                         Program Version 4.2.1 -  RELEASE  -
|  1> ! wB97X-D3 SP def2-SVP
|  2> %pal
|  3> nprocs 16
|  4> end
|  5>
|  6> * xyz 0 1
|  7> S 	 43.1372 	 13.0325 	 80.4236
|  8> C 	 44.2457 	 12.4531 	 81.6956
|  9> C 	 45.5391 	 12.4103 	 81.2524
| 10> C 	 45.6536 	 12.8184 	 79.9208
| 11> C 	 44.4731 	 13.1678 	 79.276
| 12> H 	 46.5466 	 12.9536 	 79.2943
| 13> C 	 46.7831 	 11.9783 	 82.0709
| 14> H 	 46.5735 	 12.2922 	 83.1408
| 15> H 	 47.6928 	 12.5132 	 81.9069
| 16> C 	 47.2031 	 10.4869 	 82.0361
| 17> H 	 47.344 	 10.1638 	 80.993
| 18> H 	 48.2115 	 10.252 	 82.4743
| 19> C 	 46.1711 	 9.60858 	 82.7581
| 20> H 	 45.1869 	 9.9735 	 82.3877
| 21> H 	 46.3042 	 8.59982 	 82.5452
| 22> H 	 46.0757 	 9.67136 	 83.8725
| 23> S 	 42.9056 	 12.1399 	 77.3614
| 24> C 	 43.0735 	 12.7445 	 75.7384
| 25> C 	 43.9601 	 13.7838 	 75.6251
| 26> C 	 44.7705 	 13.969 	 76.7922
| 27> C 	 44.1761 	 13.2253 	 77.8498
| 28> H 	 44.0274 	 14.4132 	 74.7256
| 29> C 	 45.8332 	 15.0313 	 76.968
| 30> H 	 46.1325 	 15.0849 	 77.9365
| 31> H 	 45.3937 	 16.0213 	 76.8366
| 32> C 	 46.9172 	 14.8141 	 75.9164
| 33> H 	 47.6839 	 15.5581 	 76.062
| 34> H 	 46.537 	 15.108 	 74.9986
| 35> C 	 47.6603 	 13.5364 	 75.9744
| 36> H 	 48.4703 	 13.5813 	 76.6438
| 37> H 	 48.1672 	 13.189 	 75.0961
| 38> H 	 46.9392 	 12.7181 	 76.342
| 39> H 	 44.0727 	 12.2444 	 82.754
| 40> H 	 42.3685 	 12.3778 	 75.0305
| 41> *
| 42>
| 43>                          ****END OF INPUT****

CARTESIAN COORDINATES (ANGSTROEM)
---------------------------------
  S     43.137200   13.032500   80.423600
  C     44.245700   12.453100   81.695600
  C     45.539100   12.410300   81.252400
  C     45.653600   12.818400   79.920800
  C     44.473100   13.167800   79.276000
  H     46.546600   12.953600   79.294300
  C     46.783100   11.978300   82.070900
  H     46.573500   12.292200   83.140800
  H     47.692800   12.513200   81.906900
  C     47.203100   10.486900   82.036100
  H     47.344000   10.163800   80.993000
  H     48.211500   10.252000   82.474300
  C     46.171100    9.608580   82.758100
  H     45.186900    9.973500   82.387700
  H     46.304200    8.599820   82.545200
  H     46.075700    9.671360   83.872500
  S     42.905600   12.139900   77.361400
  C     43.073500   12.744500   75.738400
  C     43.960100   13.783800   75.625100
  C     44.770500   13.969000   76.792200
  C     44.176100   13.225300   77.849800
  H     44.027400   14.413200   74.725600
  C     45.833200   15.031300   76.968000
  H     46.132500   15.084900   77.936500
  H     45.393700   16.021300   76.836600
  C     46.917200   14.814100   75.916400
  H     47.683900   15.558100   76.062000
  H     46.537000   15.108000   74.998600
  C     47.660300   13.536400   75.974400
  H     48.470300   13.581300   76.643800
  H     48.167200   13.189000   75.096100
  H     46.939200   12.718100   76.342000
  H     44.072700   12.244400   82.754000
  H     42.368500   12.377800   75.030500

 Total Charge           Charge          ....    0
 Multiplicity           Mult            ....    1
 Number of Electrons    NEL             ....  134
 Basis Dimension        Dim             ....  322

ORBITAL ENERGIES
----------------

  NO   OCC          E(Eh)            E(eV)
   0   2.0000     -88.969246     -2420.9763
   1   2.0000     -88.966690     -2420.9067
   2   2.0000     -10.329283      -281.0741
   3   2.0000     -10.328770      -281.0601
   4   2.0000     -10.317792      -280.7614
   5   2.0000     -10.312071      -280.6057
   6   2.0000     -10.306885      -280.4646
   7   2.0000     -10.303223      -280.3650
   8   2.0000     -10.298109      -280.2258
   9   2.0000     -10.297854      -280.2188
  10   2.0000     -10.292398      -280.0704
  11   2.0000     -10.291984      -280.0591
  12   2.0000     -10.286608      -279.9128
  13   2.0000     -10.276041      -279.6253
  14   2.0000     -10.271786      -279.5095
  15   2.0000     -10.271257      -279.4951
  16   2.0000      -8.083000      -219.9496
  17   2.0000      -8.081950      -219.9210
  18   2.0000      -6.041651      -164.4017
  19   2.0000      -6.040310      -164.3652
  20   2.0000      -6.037578      -164.2908
  21   2.0000      -6.036471      -164.2607
  22   2.0000      -6.033711      -164.1856
  23   2.0000      -6.032724      -164.1588
  24   2.0000      -1.008188       -27.4342
  25   2.0000      -0.983921       -26.7738
  26   2.0000      -0.921238       -25.0682
  27   2.0000      -0.906158       -24.6578
  28   2.0000      -0.868156       -23.6237
  29   2.0000      -0.854486       -23.2517
  30   2.0000      -0.842460       -22.9245
  31   2.0000      -0.812642       -22.1131
  32   2.0000      -0.788517       -21.4566
  33   2.0000      -0.777184       -21.1483
  34   2.0000      -0.712256       -19.3815
  35   2.0000      -0.700826       -19.0704
  36   2.0000      -0.693689       -18.8762
  37   2.0000      -0.657516       -17.8919
  38   2.0000      -0.640084       -17.4176
  39   2.0000      -0.617995       -16.8165
  40   2.0000      -0.605133       -16.4665
  41   2.0000      -0.568915       -15.4810
  42   2.0000      -0.565184       -15.3794
  43   2.0000      -0.550233       -14.9726
  44   2.0000      -0.546870       -14.8811
  45   2.0000      -0.530973       -14.4485
  46   2.0000      -0.521196       -14.1825
  47   2.0000      -0.508870       -13.8470
  48   2.0000      -0.494937       -13.4679
  49   2.0000      -0.490863       -13.3571
  50   2.0000      -0.482867       -13.1395
  51   2.0000      -0.482115       -13.1190
  52   2.0000      -0.476299       -12.9607
  53   2.0000      -0.470203       -12.7949
  54   2.0000      -0.457265       -12.4428
  55   2.0000      -0.451357       -12.2820
  56   2.0000      -0.444303       -12.0901
  57   2.0000      -0.441761       -12.0209
  58   2.0000      -0.433518       -11.7966
  59   2.0000      -0.423937       -11.5359
  60   2.0000      -0.421490       -11.4693
  61   2.0000      -0.409423       -11.1410
  62   2.0000      -0.406911       -11.0726
  63   2.0000      -0.349161        -9.5012
  64   2.0000      -0.336481        -9.1561
  65   2.0000      -0.331880        -9.0309
  66   2.0000      -0.285522        -7.7695
  67   0.0000       0.026795         0.7291
  68   0.0000       0.064757         1.7621
  69   0.0000       0.107926         2.9368
  70   0.0000       0.117692         3.2026
  71   0.0000       0.126064         3.4304

MULLIKEN ATOMIC CHARGES
-----------------------
   0 S :    0.100777
   1 C :   -0.111725
   2 C :   -0.067033
   3 C :    0.037000
   4 C :   -0.170958
   5 H :    0.014291
   6 C :    0.044202
   7 H :    0.025147
   8 H :    0.021623
   9 C :   -0.068800
  10 H :    0.032788
  11 H :    0.033176
  12 C :   -0.054244
  13 H :    0.026869
  14 H :    0.021676
  15 H :    0.031378
  16 S :    0.116882
  17 C :   -0.091738
  18 C :   -0.020100
  19 C :   -0.085279
  20 C :   -0.151514
  21 H :    0.031653
  22 C :    0.138412
  23 H :   -0.015671
  24 H :    0.031673
  25 C :   -0.034679
  26 H :    0.010157
  27 H :    0.006798
  28 C :   -0.041754
  29 H :    0.012040
  30 H :    0.026560
  31 H :    0.052105
  32 H :    0.049340
  33 H :    0.048949
Sum of atomic charges:   -0.0000000

LOEWDIN ATOMIC CHARGES
----------------------
   0 S :    0.387900
   1 C :   -0.189974
   2 C :   -0.067562
   3 C :   -0.065157
   4 C :   -0.191487
   5 H :    0.033483
   6 C :   -0.033166
   7 H :    0.034112
   8 H :    0.027840
   9 C :   -0.042795
  10 H :    0.027087
  11 H :    0.027760
  12 C :   -0.071828
  13 H :    0.027622
  14 H :    0.014728
  15 H :    0.027498
  16 S :    0.418741
  17 C :   -0.186231
  18 C :   -0.065194
  19 C :   -0.054051
  20 C :   -0.199414
  21 H :    0.036096
  22 C :   -0.016236
  23 H :    0.013527
  24 H :    0.040687
  25 C :   -0.039620
  26 H :    0.025775
  27 H :    0.013620
  28 C :   -0.067988
  29 H :    0.018081
  30 H :    0.026729
  31 H :    0.036495
  32 H :    0.034009
  33 H :    0.018916

  Mayer bond orders larger than 0.100000
B(  0-S ,  1-C ) :   1.1275 B(  0-S ,  4-C ) :   1.1409 B(  1-C ,  2-C ) :   1.6190
B(  1-C , 32-H ) :   0.9567 B(  2-C ,  3-C ) :   1.2528 B(  2-C ,  6-C ) :   1.0074
B(  3-C ,  4-C ) :   1.5703 B(  3-C ,  5-H ) :   0.9885 B(  4-C , 20-C ) :   1.0362
B(  6-C ,  7-H ) :   0.9457 B(  6-C ,  8-H ) :   0.9486 B(  6-C ,  9-C ) :   1.0631
B(  9-C , 10-H ) :   0.9552 B(  9-C , 11-H ) :   0.9562 B(  9-C , 12-C ) :   1.0718
B( 12-C , 13-H ) :   0.9748 B( 12-C , 14-H ) :   0.9741 B( 12-C , 15-H ) :   0.9757
B( 16-S , 17-C ) :   1.1489 B( 16-S , 20-C ) :   1.1687 B( 17-C , 18-C ) :   1.6086
B( 17-C , 33-H ) :   0.9739 B( 18-C , 19-C ) :   1.2308 B( 18-C , 21-H ) :   0.9845
B( 19-C , 20-C ) :   1.5555 B( 19-C , 22-C ) :   1.0469 B( 22-C , 23-H ) :   0.9290
B( 22-C , 24-H ) :   0.9311 B( 22-C , 25-C ) :   1.0711 B( 25-C , 26-H ) :   0.9492
B( 25-C , 27-H ) :   0.9580 B( 25-C , 28-C ) :   1.0722 B( 28-C , 29-H ) :   0.9728
B( 28-C , 30-H ) :   0.9698 B( 28-C , 31-H ) :   0.9719

Dispersion correction           -0.014708264
FINAL SINGLE POINT ENERGY     -1339.856626068591

DIPOLE MOMENT
-------------
                                X             Y             Z
Electronic contribution:    -23.52306       3.14055      -3.23731
Nuclear contribution   :     24.07974      -2.94155       3.09100
                        -----------------------------------------
Total Dipole Moment    :      0.55669       0.19900      -0.14631
                        -----------------------------------------
Magnitude (a.u.)       :      0.60902
Magnitude (Debye)      :      1.54801

Rotational constants in cm-1:     0.020103     0.008535     0.006978
Rotational constants in MHz :   602.667446   255.862538   209.182653

                             ****ORCA TERMINATED NORMALLY****
TOTAL RUN TIME: 0 days 0 hours 0 minutes 31 seconds 183 msec
