                         Program Version 4.2.1 -  RELEASE  -
|  1> ! wB97X-D3 SP def2-SVP
|  2> %pal
|  3> nprocs 16
|  4> end
|  5>
|  6> * xyz 0 1
|  7> S 	 -44.344 	 51.0072 	 99.9968
|  8> C 	 -44.2639 	 51.4961 	 101.645
|  9> C 	 -45.2966 	 52.3827 	 101.912
| 10> C 	 -46.0309 	 52.7592 	 100.716
| 11> C 	 -45.6081 	 52.1672 	 99.5243
| 12> H 	 -46.7887 	 53.5119 	 100.759
| 13> C 	 -45.3872 	 52.9064 	 103.298
| 14> H 	 -44.4462 	 52.9872 	 103.825
| 15> H 	 -46.0469 	 52.1971 	 103.94
| 16> C 	 -45.9512 	 54.3274 	 103.418
| 17> H 	 -45.8466 	 54.647 	 104.437
| 18> H 	 -45.4855 	 55.0362 	 102.71
| 19> C 	 -47.4638 	 54.3987 	 103.116
| 20> H 	 -47.8401 	 53.4246 	 102.854
| 21> H 	 -48.0554 	 54.6037 	 104.016
| 22> H 	 -47.6266 	 55.1588 	 102.317
| 23> S 	 -46.1559 	 50.7513 	 97.4311
| 24> C 	 -47.1206 	 51.4271 	 96.0795
| 25> C 	 -47.1467 	 52.8035 	 96.1936
| 26> C 	 -46.6797 	 53.3012 	 97.4515
| 27> C 	 -46.0558 	 52.2994 	 98.1836
| 28> H 	 -47.5999 	 53.4047 	 95.4171
| 29> C 	 -46.8679 	 54.7464 	 97.8988
| 30> H 	 -46.0157 	 55.3875 	 97.4887
| 31> H 	 -46.7418 	 54.8722 	 98.9954
| 32> C 	 -48.2996 	 55.2648 	 97.6333
| 33> H 	 -49.0036 	 54.7007 	 98.2225
| 34> H 	 -48.5238 	 55.0432 	 96.6084
| 35> C 	 -48.5641 	 56.7824 	 97.8511
| 36> H 	 -47.7256 	 57.4713 	 97.5273
| 37> H 	 -48.7074 	 57.1001 	 98.9334
| 38> H 	 -49.3957 	 57.1801 	 97.2243
| 39> H 	 -43.5481 	 51.1323 	 102.33
| 40> H 	 -47.6085 	 50.9136 	 95.2453
| 41> *
| 42>
| 43>                          ****END OF INPUT****

CARTESIAN COORDINATES (ANGSTROEM)
---------------------------------
  S    -44.344000   51.007200   99.996800
  C    -44.263900   51.496100  101.645000
  C    -45.296600   52.382700  101.912000
  C    -46.030900   52.759200  100.716000
  C    -45.608100   52.167200   99.524300
  H    -46.788700   53.511900  100.759000
  C    -45.387200   52.906400  103.298000
  H    -44.446200   52.987200  103.825000
  H    -46.046900   52.197100  103.940000
  C    -45.951200   54.327400  103.418000
  H    -45.846600   54.647000  104.437000
  H    -45.485500   55.036200  102.710000
  C    -47.463800   54.398700  103.116000
  H    -47.840100   53.424600  102.854000
  H    -48.055400   54.603700  104.016000
  H    -47.626600   55.158800  102.317000
  S    -46.155900   50.751300   97.431100
  C    -47.120600   51.427100   96.079500
  C    -47.146700   52.803500   96.193600
  C    -46.679700   53.301200   97.451500
  C    -46.055800   52.299400   98.183600
  H    -47.599900   53.404700   95.417100
  C    -46.867900   54.746400   97.898800
  H    -46.015700   55.387500   97.488700
  H    -46.741800   54.872200   98.995400
  C    -48.299600   55.264800   97.633300
  H    -49.003600   54.700700   98.222500
  H    -48.523800   55.043200   96.608400
  C    -48.564100   56.782400   97.851100
  H    -47.725600   57.471300   97.527300
  H    -48.707400   57.100100   98.933400
  H    -49.395700   57.180100   97.224300
  H    -43.548100   51.132300  102.330000
  H    -47.608500   50.913600   95.245300

 Total Charge           Charge          ....    0
 Multiplicity           Mult            ....    1
 Number of Electrons    NEL             ....  134
 Basis Dimension        Dim             ....  322

ORBITAL ENERGIES
----------------

  NO   OCC          E(Eh)            E(eV)
   0   2.0000     -88.966851     -2420.9111
   1   2.0000     -88.960799     -2420.7464
   2   2.0000     -10.333363      -281.1851
   3   2.0000     -10.326605      -281.0012
   4   2.0000     -10.323538      -280.9178
   5   2.0000     -10.309249      -280.5289
   6   2.0000     -10.308498      -280.5085
   7   2.0000     -10.302962      -280.3579
   8   2.0000     -10.300438      -280.2892
   9   2.0000     -10.298196      -280.2282
  10   2.0000     -10.297088      -280.1980
  11   2.0000     -10.295846      -280.1642
  12   2.0000     -10.292758      -280.0802
  13   2.0000     -10.290698      -280.0241
  14   2.0000     -10.283774      -279.8357
  15   2.0000     -10.277224      -279.6575
  16   2.0000      -8.081592      -219.9113
  17   2.0000      -8.075836      -219.7547
  18   2.0000      -6.040277      -164.3643
  19   2.0000      -6.036092      -164.2504
  20   2.0000      -6.034418      -164.2049
  21   2.0000      -6.032112      -164.1421
  22   2.0000      -6.030175      -164.0894
  23   2.0000      -6.026608      -163.9923
  24   2.0000      -1.010948       -27.5093
  25   2.0000      -0.983423       -26.7603
  26   2.0000      -0.915010       -24.8987
  27   2.0000      -0.905786       -24.6477
  28   2.0000      -0.877719       -23.8839
  29   2.0000      -0.848355       -23.0849
  30   2.0000      -0.837344       -22.7853
  31   2.0000      -0.821169       -22.3451
  32   2.0000      -0.780397       -21.2357
  33   2.0000      -0.769715       -20.9450
  34   2.0000      -0.712961       -19.4006
  35   2.0000      -0.701964       -19.1014
  36   2.0000      -0.691239       -18.8096
  37   2.0000      -0.661499       -18.0003
  38   2.0000      -0.641972       -17.4690
  39   2.0000      -0.626724       -17.0540
  40   2.0000      -0.598383       -16.2828
  41   2.0000      -0.574441       -15.6313
  42   2.0000      -0.559538       -15.2258
  43   2.0000      -0.547553       -14.8997
  44   2.0000      -0.534716       -14.5504
  45   2.0000      -0.525874       -14.3098
  46   2.0000      -0.520970       -14.1763
  47   2.0000      -0.516647       -14.0587
  48   2.0000      -0.508931       -13.8487
  49   2.0000      -0.503506       -13.7011
  50   2.0000      -0.490909       -13.3583
  51   2.0000      -0.488042       -13.2803
  52   2.0000      -0.473461       -12.8835
  53   2.0000      -0.469715       -12.7816
  54   2.0000      -0.456503       -12.4221
  55   2.0000      -0.452629       -12.3167
  56   2.0000      -0.435225       -11.8431
  57   2.0000      -0.432087       -11.7577
  58   2.0000      -0.430318       -11.7095
  59   2.0000      -0.423823       -11.5328
  60   2.0000      -0.423483       -11.5235
  61   2.0000      -0.411149       -11.1879
  62   2.0000      -0.402896       -10.9634
  63   2.0000      -0.360633        -9.8133
  64   2.0000      -0.333706        -9.0806
  65   2.0000      -0.322106        -8.7650
  66   2.0000      -0.282718        -7.6932
  67   0.0000       0.022111         0.6017
  68   0.0000       0.069239         1.8841
  69   0.0000       0.104912         2.8548
  70   0.0000       0.114626         3.1191
  71   0.0000       0.120109         3.2683

MULLIKEN ATOMIC CHARGES
-----------------------
   0 S :    0.093628
   1 C :   -0.107742
   2 C :   -0.068430
   3 C :    0.034653
   4 C :   -0.126961
   5 H :   -0.010599
   6 C :    0.009740
   7 H :    0.033077
   8 H :    0.052581
   9 C :   -0.082460
  10 H :    0.025749
  11 H :    0.041416
  12 C :   -0.078555
  13 H :    0.030090
  14 H :    0.032552
  15 H :    0.045472
  16 S :    0.095049
  17 C :   -0.098901
  18 C :   -0.035164
  19 C :   -0.051206
  20 C :   -0.102351
  21 H :    0.025339
  22 C :    0.044600
  23 H :    0.055594
  24 H :    0.019798
  25 C :   -0.064493
  26 H :    0.036773
  27 H :    0.019808
  28 C :   -0.094288
  29 H :    0.031282
  30 H :    0.043736
  31 H :    0.043632
  32 H :    0.041259
  33 H :    0.065324
Sum of atomic charges:    0.0000000

LOEWDIN ATOMIC CHARGES
----------------------
   0 S :    0.397280
   1 C :   -0.193036
   2 C :   -0.066736
   3 C :   -0.066887
   4 C :   -0.183445
   5 H :    0.021217
   6 C :   -0.039246
   7 H :    0.031729
   8 H :    0.041416
   9 C :   -0.045043
  10 H :    0.022766
  11 H :    0.027589
  12 C :   -0.075300
  13 H :    0.020153
  14 H :    0.027738
  15 H :    0.028734
  16 S :    0.407120
  17 C :   -0.175944
  18 C :   -0.065997
  19 C :   -0.057029
  20 C :   -0.198390
  21 H :    0.031035
  22 C :   -0.037221
  23 H :    0.042999
  24 H :    0.030180
  25 C :   -0.039527
  26 H :    0.028363
  27 H :    0.017638
  28 C :   -0.083479
  29 H :    0.029088
  30 H :    0.029854
  31 H :    0.032209
  32 H :    0.023521
  33 H :    0.036653

  Mayer bond orders larger than 0.100000
B(  0-S ,  1-C ) :   1.1457 B(  0-S ,  4-C ) :   1.1417 B(  1-C ,  2-C ) :   1.5827
B(  1-C ,  4-C ) :   0.1023 B(  1-C , 32-H ) :   0.9816 B(  2-C ,  3-C ) :   1.2623
B(  2-C ,  6-C ) :   1.0260 B(  3-C ,  4-C ) :   1.5433 B(  3-C ,  5-H ) :   0.9872
B(  4-C , 20-C ) :   1.0685 B(  6-C ,  7-H ) :   0.9503 B(  6-C ,  8-H ) :   0.9313
B(  6-C ,  9-C ) :   1.0836 B(  9-C , 10-H ) :   0.9594 B(  9-C , 11-H ) :   0.9670
B(  9-C , 12-C ) :   1.0514 B( 12-C , 13-H ) :   0.9783 B( 12-C , 14-H ) :   0.9723
B( 12-C , 15-H ) :   0.9771 B( 16-S , 17-C ) :   1.1403 B( 16-S , 20-C ) :   1.1346
B( 17-C , 18-C ) :   1.6248 B( 17-C , 33-H ) :   0.9666 B( 18-C , 19-C ) :   1.2270
B( 18-C , 21-H ) :   0.9834 B( 19-C , 20-C ) :   1.5960 B( 19-C , 22-C ) :   1.0397
B( 22-C , 23-H ) :   0.9334 B( 22-C , 24-H ) :   0.9430 B( 22-C , 25-C ) :   1.0471
B( 25-C , 26-H ) :   0.9563 B( 25-C , 27-H ) :   0.9606 B( 25-C , 28-C ) :   1.0714
B( 28-C , 29-H ) :   0.9749 B( 28-C , 30-H ) :   0.9766 B( 28-C , 31-H ) :   0.9764

Dispersion correction           -0.014021858
FINAL SINGLE POINT ENERGY     -1339.864696515866

DIPOLE MOMENT
-------------
                                X             Y             Z
Electronic contribution:     14.00293     -26.15003     -11.99102
Nuclear contribution   :    -14.38172      26.73759      12.19734
                        -----------------------------------------
Total Dipole Moment    :     -0.37879       0.58757       0.20632
                        -----------------------------------------
Magnitude (a.u.)       :      0.72889
Magnitude (Debye)      :      1.85270

Rotational constants in cm-1:     0.015699     0.010540     0.006660
Rotational constants in MHz :   470.642287   315.986770   199.667033

                             ****ORCA TERMINATED NORMALLY****
TOTAL RUN TIME: 0 days 0 hours 0 minutes 30 seconds 846 msec
