                         Program Version 4.2.1 -  RELEASE  -
|  1> ! wB97X-D3 SP def2-SVP
|  2> %pal
|  3> nprocs 16
|  4> end
|  5>
|  6> * xyz 0 1
|  7> S 	 57.7505 	 9.70855 	 69.7008
|  8> C 	 58.0157 	 11.0555 	 70.7456
|  9> C 	 57.1267 	 11.1651 	 71.745
| 10> C 	 56.1897 	 10.0648 	 71.7204
| 11> C 	 56.3526 	 9.19354 	 70.6416
| 12> H 	 55.4793 	 9.86952 	 72.4814
| 13> C 	 56.959 	 12.2239 	 72.8512
| 14> H 	 56.183 	 12.9566 	 72.5081
| 15> H 	 57.8923 	 12.7146 	 72.9687
| 16> C 	 56.7342 	 11.7802 	 74.3395
| 17> H 	 55.8643 	 11.0904 	 74.3983
| 18> H 	 57.5719 	 11.0771 	 74.5695
| 19> C 	 56.7051 	 13.0469 	 75.2398
| 20> H 	 57.6163 	 13.6684 	 75.0965
| 21> H 	 55.943 	 13.7629 	 74.9493
| 22> H 	 56.726 	 12.8257 	 76.3137
| 23> S 	 55.5258 	 6.78172 	 71.6502
| 24> C 	 54.4986 	 5.78071 	 70.7157
| 25> C 	 54.0946 	 6.37255 	 69.5606
| 26> C 	 54.716 	 7.64457 	 69.3056
| 27> C 	 55.5424 	 8.02021 	 70.3668
| 28> H 	 53.4559 	 5.83503 	 68.8901
| 29> C 	 54.5198 	 8.34593 	 67.9825
| 30> H 	 55.1226 	 7.72744 	 67.2803
| 31> H 	 55.0863 	 9.30625 	 67.9769
| 32> C 	 53.0141 	 8.62234 	 67.6566
| 33> H 	 52.7774 	 9.47698 	 68.3274
| 34> H 	 52.2999 	 7.80737 	 68
| 35> C 	 52.6676 	 8.76651 	 66.1871
| 36> H 	 52.713 	 7.8795 	 65.4994
| 37> H 	 53.2614 	 9.52092 	 65.6989
| 38> H 	 51.7068 	 9.09594 	 66.1506
| 39> H 	 58.7613 	 11.8303 	 70.565
| 40> H 	 54.0663 	 4.91241 	 71.175
| 41> *
| 42>
| 43>                          ****END OF INPUT****

CARTESIAN COORDINATES (ANGSTROEM)
---------------------------------
  S     57.750500    9.708550   69.700800
  C     58.015700   11.055500   70.745600
  C     57.126700   11.165100   71.745000
  C     56.189700   10.064800   71.720400
  C     56.352600    9.193540   70.641600
  H     55.479300    9.869520   72.481400
  C     56.959000   12.223900   72.851200
  H     56.183000   12.956600   72.508100
  H     57.892300   12.714600   72.968700
  C     56.734200   11.780200   74.339500
  H     55.864300   11.090400   74.398300
  H     57.571900   11.077100   74.569500
  C     56.705100   13.046900   75.239800
  H     57.616300   13.668400   75.096500
  H     55.943000   13.762900   74.949300
  H     56.726000   12.825700   76.313700
  S     55.525800    6.781720   71.650200
  C     54.498600    5.780710   70.715700
  C     54.094600    6.372550   69.560600
  C     54.716000    7.644570   69.305600
  C     55.542400    8.020210   70.366800
  H     53.455900    5.835030   68.890100
  C     54.519800    8.345930   67.982500
  H     55.122600    7.727440   67.280300
  H     55.086300    9.306250   67.976900
  C     53.014100    8.622340   67.656600
  H     52.777400    9.476980   68.327400
  H     52.299900    7.807370   68.000000
  C     52.667600    8.766510   66.187100
  H     52.713000    7.879500   65.499400
  H     53.261400    9.520920   65.698900
  H     51.706800    9.095940   66.150600
  H     58.761300   11.830300   70.565000
  H     54.066300    4.912410   71.175000

 Total Charge           Charge          ....    0
 Multiplicity           Mult            ....    1
 Number of Electrons    NEL             ....  134
 Basis Dimension        Dim             ....  322

ORBITAL ENERGIES
----------------

  NO   OCC          E(Eh)            E(eV)
   0   2.0000     -88.965849     -2420.8838
   1   2.0000     -88.959601     -2420.7138
   2   2.0000     -10.328155      -281.0434
   3   2.0000     -10.325799      -280.9793
   4   2.0000     -10.310473      -280.5622
   5   2.0000     -10.309370      -280.5322
   6   2.0000     -10.304776      -280.4072
   7   2.0000     -10.298614      -280.2395
   8   2.0000     -10.297676      -280.2140
   9   2.0000     -10.296388      -280.1790
  10   2.0000     -10.296165      -280.1729
  11   2.0000     -10.295441      -280.1532
  12   2.0000     -10.289539      -279.9926
  13   2.0000     -10.288738      -279.9708
  14   2.0000     -10.287036      -279.9245
  15   2.0000     -10.271899      -279.5126
  16   2.0000      -8.080624      -219.8850
  17   2.0000      -8.074969      -219.7311
  18   2.0000      -6.039181      -164.3345
  19   2.0000      -6.035110      -164.2237
  20   2.0000      -6.033403      -164.1772
  21   2.0000      -6.031353      -164.1215
  22   2.0000      -6.029350      -164.0670
  23   2.0000      -6.025824      -163.9710
  24   2.0000      -1.004526       -27.3345
  25   2.0000      -0.985234       -26.8096
  26   2.0000      -0.905683       -24.6449
  27   2.0000      -0.904821       -24.6214
  28   2.0000      -0.870883       -23.6979
  29   2.0000      -0.852987       -23.2110
  30   2.0000      -0.845099       -22.9963
  31   2.0000      -0.810032       -22.0421
  32   2.0000      -0.783290       -21.3144
  33   2.0000      -0.772816       -21.0294
  34   2.0000      -0.709718       -19.3124
  35   2.0000      -0.701337       -19.0843
  36   2.0000      -0.691614       -18.8198
  37   2.0000      -0.658847       -17.9281
  38   2.0000      -0.638335       -17.3700
  39   2.0000      -0.618204       -16.8222
  40   2.0000      -0.599401       -16.3105
  41   2.0000      -0.566258       -15.4087
  42   2.0000      -0.560294       -15.2464
  43   2.0000      -0.551149       -14.9975
  44   2.0000      -0.533577       -14.5194
  45   2.0000      -0.523244       -14.2382
  46   2.0000      -0.513812       -13.9815
  47   2.0000      -0.510160       -13.8821
  48   2.0000      -0.502468       -13.6728
  49   2.0000      -0.499112       -13.5815
  50   2.0000      -0.489318       -13.3150
  51   2.0000      -0.480867       -13.0851
  52   2.0000      -0.470267       -12.7966
  53   2.0000      -0.465008       -12.6535
  54   2.0000      -0.460507       -12.5310
  55   2.0000      -0.448579       -12.2065
  56   2.0000      -0.447321       -12.1722
  57   2.0000      -0.440164       -11.9775
  58   2.0000      -0.431297       -11.7362
  59   2.0000      -0.425154       -11.5690
  60   2.0000      -0.419101       -11.4043
  61   2.0000      -0.415337       -11.3019
  62   2.0000      -0.407887       -11.0992
  63   2.0000      -0.339019        -9.2252
  64   2.0000      -0.331129        -9.0105
  65   2.0000      -0.325668        -8.8619
  66   2.0000      -0.298741        -8.1292
  67   0.0000       0.039209         1.0669
  68   0.0000       0.070589         1.9208
  69   0.0000       0.115034         3.1302
  70   0.0000       0.118329         3.2199
  71   0.0000       0.134130         3.6499

MULLIKEN ATOMIC CHARGES
-----------------------
   0 S :    0.119367
   1 C :   -0.136119
   2 C :   -0.058028
   3 C :    0.022461
   4 C :   -0.152567
   5 H :   -0.002751
   6 C :    0.043523
   7 H :    0.055243
   8 H :    0.008208
   9 C :   -0.101730
  10 H :    0.039723
  11 H :    0.040038
  12 C :   -0.044016
  13 H :    0.024272
  14 H :    0.034194
  15 H :    0.046834
  16 S :    0.099372
  17 C :   -0.080458
  18 C :   -0.032786
  19 C :   -0.026708
  20 C :   -0.183394
  21 H :    0.013466
  22 C :    0.070921
  23 H :    0.045771
  24 H :    0.026689
  25 C :   -0.128353
  26 H :    0.046905
  27 H :    0.041778
  28 C :   -0.000160
  29 H :    0.040751
  30 H :    0.019746
  31 H :    0.008496
  32 H :    0.043701
  33 H :    0.055609
Sum of atomic charges:   -0.0000000

LOEWDIN ATOMIC CHARGES
----------------------
   0 S :    0.409163
   1 C :   -0.204098
   2 C :   -0.069355
   3 C :   -0.055303
   4 C :   -0.197284
   5 H :    0.020635
   6 C :   -0.033434
   7 H :    0.038010
   8 H :    0.022328
   9 C :   -0.043686
  10 H :    0.021171
  11 H :    0.031227
  12 C :   -0.069667
  13 H :    0.029823
  14 H :    0.027404
  15 H :    0.030870
  16 S :    0.403802
  17 C :   -0.187607
  18 C :   -0.072140
  19 C :   -0.050546
  20 C :   -0.194977
  21 H :    0.027834
  22 C :   -0.039200
  23 H :    0.037938
  24 H :    0.031155
  25 C :   -0.043953
  26 H :    0.035630
  27 H :    0.030428
  28 C :   -0.064018
  29 H :    0.034404
  30 H :    0.021638
  31 H :    0.015083
  32 H :    0.030992
  33 H :    0.025732

  Mayer bond orders larger than 0.100000
B(  0-S ,  1-C ) :   1.1361 B(  0-S ,  4-C ) :   1.1353 B(  1-C ,  2-C ) :   1.6552
B(  1-C , 32-H ) :   0.9598 B(  2-C ,  3-C ) :   1.2252 B(  2-C ,  6-C ) :   1.0064
B(  3-C ,  4-C ) :   1.5902 B(  3-C ,  5-H ) :   0.9988 B(  4-C , 20-C ) :   1.0340
B(  6-C ,  7-H ) :   0.9409 B(  6-C ,  8-H ) :   0.9470 B(  6-C ,  9-C ) :   1.0472
B(  9-C , 10-H ) :   0.9564 B(  9-C , 11-H ) :   0.9586 B(  9-C , 12-C ) :   1.0703
B( 12-C , 13-H ) :   0.9716 B( 12-C , 14-H ) :   0.9751 B( 12-C , 15-H ) :   0.9747
B( 16-S , 17-C ) :   1.1618 B( 16-S , 20-C ) :   1.1374 B( 17-C , 18-C ) :   1.6206
B( 17-C , 33-H ) :   0.9660 B( 18-C , 19-C ) :   1.2220 B( 18-C , 21-H ) :   0.9917
B( 19-C , 20-C ) :   1.5959 B( 19-C , 22-C ) :   1.0436 B( 22-C , 23-H ) :   0.9428
B( 22-C , 24-H ) :   0.9295 B( 22-C , 25-C ) :   1.0287 B( 25-C , 26-H ) :   0.9546
B( 25-C , 27-H ) :   0.9667 B( 25-C , 28-C ) :   1.0768 B( 28-C , 29-H ) :   0.9746
B( 28-C , 30-H ) :   0.9712 B( 28-C , 31-H ) :   0.9680

Dispersion correction           -0.013494551
FINAL SINGLE POINT ENERGY     -1339.879224564310

DIPOLE MOMENT
-------------
                                X             Y             Z
Electronic contribution:     10.36609     -14.91776      -0.90671
Nuclear contribution   :    -10.71456      15.23587       0.92276
                        -----------------------------------------
Total Dipole Moment    :     -0.34846       0.31811       0.01605
                        -----------------------------------------
Magnitude (a.u.)       :      0.47210
Magnitude (Debye)      :      1.19998

Rotational constants in cm-1:     0.019729     0.007017     0.006267
Rotational constants in MHz :   591.458600   210.354656   187.878511

                             ****ORCA TERMINATED NORMALLY****
TOTAL RUN TIME: 0 days 0 hours 0 minutes 28 seconds 355 msec
