                         Program Version 4.2.1 -  RELEASE  -
|  1> ! wB97X-D3 SP def2-SVP
|  2> %pal
|  3> nprocs 16
|  4> end
|  5>
|  6> * xyz 0 1
|  7> S 	 57.1073 	 -0.26988 	 86.2211
|  8> C 	 57.1014 	 0.738071 	 84.776
|  9> C 	 57.1919 	 -0.0354982 	 83.6063
| 10> C 	 57.4001 	 -1.44141 	 83.887
| 11> C 	 57.3931 	 -1.74423 	 85.2656
| 12> H 	 57.6091 	 -2.25006 	 83.1423
| 13> C 	 57.359 	 0.529062 	 82.1798
| 14> H 	 56.5272 	 0.242426 	 81.5299
| 15> H 	 58.2422 	 0.0725369 	 81.74
| 16> C 	 57.5729 	 2.02609 	 82.0519
| 17> H 	 56.6593 	 2.46525 	 82.4913
| 18> H 	 58.4071 	 2.3116 	 82.6605
| 19> C 	 57.8952 	 2.35085 	 80.5946
| 20> H 	 57.8182 	 3.43338 	 80.4486
| 21> H 	 58.8304 	 1.9082 	 80.2805
| 22> H 	 57.2303 	 1.8588 	 79.789
| 23> S 	 56.8325 	 -3.50515 	 87.3193
| 24> C 	 57.2226 	 -5.17422 	 87.065
| 25> C 	 58.1767 	 -5.35338 	 86.0713
| 26> C 	 58.3859 	 -4.14847 	 85.3198
| 27> C 	 57.6938 	 -3.04188 	 85.8694
| 28> H 	 58.7537 	 -6.27021 	 86.1821
| 29> C 	 59.4201 	 -4.22315 	 84.2308
| 30> H 	 60.3912 	 -4.55689 	 84.6422
| 31> H 	 59.6251 	 -3.24217 	 83.8541
| 32> C 	 59.0013 	 -5.09077 	 83.0415
| 33> H 	 58.1506 	 -4.57794 	 82.5225
| 34> H 	 58.6756 	 -6.04228 	 83.3642
| 35> C 	 60.1545 	 -5.2838 	 82.096
| 36> H 	 59.7879 	 -5.84145 	 81.2314
| 37> H 	 61.0916 	 -5.75939 	 82.4521
| 38> H 	 60.5431 	 -4.32837 	 81.7341
| 39> H 	 57.0592 	 1.8402 	 84.7399
| 40> H 	 57.1067 	 -5.93332 	 87.8284
| 41> *
| 42>
| 43>                          ****END OF INPUT****

CARTESIAN COORDINATES (ANGSTROEM)
---------------------------------
  S     57.107300   -0.269880   86.221100
  C     57.101400    0.738071   84.776000
  C     57.191900   -0.035498   83.606300
  C     57.400100   -1.441410   83.887000
  C     57.393100   -1.744230   85.265600
  H     57.609100   -2.250060   83.142300
  C     57.359000    0.529062   82.179800
  H     56.527200    0.242426   81.529900
  H     58.242200    0.072537   81.740000
  C     57.572900    2.026090   82.051900
  H     56.659300    2.465250   82.491300
  H     58.407100    2.311600   82.660500
  C     57.895200    2.350850   80.594600
  H     57.818200    3.433380   80.448600
  H     58.830400    1.908200   80.280500
  H     57.230300    1.858800   79.789000
  S     56.832500   -3.505150   87.319300
  C     57.222600   -5.174220   87.065000
  C     58.176700   -5.353380   86.071300
  C     58.385900   -4.148470   85.319800
  C     57.693800   -3.041880   85.869400
  H     58.753700   -6.270210   86.182100
  C     59.420100   -4.223150   84.230800
  H     60.391200   -4.556890   84.642200
  H     59.625100   -3.242170   83.854100
  C     59.001300   -5.090770   83.041500
  H     58.150600   -4.577940   82.522500
  H     58.675600   -6.042280   83.364200
  C     60.154500   -5.283800   82.096000
  H     59.787900   -5.841450   81.231400
  H     61.091600   -5.759390   82.452100
  H     60.543100   -4.328370   81.734100
  H     57.059200    1.840200   84.739900
  H     57.106700   -5.933320   87.828400

 Total Charge           Charge          ....    0
 Multiplicity           Mult            ....    1
 Number of Electrons    NEL             ....  134
 Basis Dimension        Dim             ....  322

ORBITAL ENERGIES
----------------

  NO   OCC          E(Eh)            E(eV)
   0   2.0000     -88.969118     -2420.9728
   1   2.0000     -88.967666     -2420.9333
   2   2.0000     -10.336712      -281.2762
   3   2.0000     -10.333055      -281.1767
   4   2.0000     -10.320470      -280.8343
   5   2.0000     -10.316423      -280.7241
   6   2.0000     -10.308131      -280.4985
   7   2.0000     -10.307925      -280.4929
   8   2.0000     -10.302560      -280.3469
   9   2.0000     -10.295365      -280.1511
  10   2.0000     -10.292069      -280.0614
  11   2.0000     -10.289494      -279.9914
  12   2.0000     -10.287747      -279.9438
  13   2.0000     -10.287684      -279.9421
  14   2.0000     -10.286264      -279.9035
  15   2.0000     -10.279019      -279.7063
  16   2.0000      -8.082901      -219.9469
  17   2.0000      -8.082834      -219.9451
  18   2.0000      -6.041630      -164.4011
  19   2.0000      -6.041351      -164.3935
  20   2.0000      -6.037577      -164.2908
  21   2.0000      -6.037360      -164.2849
  22   2.0000      -6.033503      -164.1800
  23   2.0000      -6.033456      -164.1787
  24   2.0000      -1.003189       -27.2982
  25   2.0000      -0.978318       -26.6214
  26   2.0000      -0.916926       -24.9508
  27   2.0000      -0.914870       -24.8949
  28   2.0000      -0.867571       -23.6078
  29   2.0000      -0.855390       -23.2763
  30   2.0000      -0.844341       -22.9757
  31   2.0000      -0.810725       -22.0610
  32   2.0000      -0.780591       -21.2410
  33   2.0000      -0.768377       -20.9086
  34   2.0000      -0.712430       -19.3862
  35   2.0000      -0.703509       -19.1435
  36   2.0000      -0.691110       -18.8061
  37   2.0000      -0.661142       -17.9906
  38   2.0000      -0.630916       -17.1681
  39   2.0000      -0.615305       -16.7433
  40   2.0000      -0.596823       -16.2404
  41   2.0000      -0.575944       -15.6722
  42   2.0000      -0.568548       -15.4710
  43   2.0000      -0.565650       -15.3921
  44   2.0000      -0.531362       -14.4591
  45   2.0000      -0.522063       -14.2060
  46   2.0000      -0.519148       -14.1267
  47   2.0000      -0.512926       -13.9574
  48   2.0000      -0.500410       -13.6168
  49   2.0000      -0.498829       -13.5738
  50   2.0000      -0.487173       -13.2567
  51   2.0000      -0.485189       -13.2027
  52   2.0000      -0.475598       -12.9417
  53   2.0000      -0.460838       -12.5400
  54   2.0000      -0.453127       -12.3302
  55   2.0000      -0.450547       -12.2600
  56   2.0000      -0.444914       -12.1067
  57   2.0000      -0.441419       -12.0116
  58   2.0000      -0.430029       -11.7017
  59   2.0000      -0.425224       -11.5709
  60   2.0000      -0.421747       -11.4763
  61   2.0000      -0.420333       -11.4379
  62   2.0000      -0.418285       -11.3821
  63   2.0000      -0.356755        -9.7078
  64   2.0000      -0.332746        -9.0545
  65   2.0000      -0.326808        -8.8929
  66   2.0000      -0.282264        -7.6808
  67   0.0000       0.019325         0.5259
  68   0.0000       0.072544         1.9740
  69   0.0000       0.100340         2.7304
  70   0.0000       0.114273         3.1095
  71   0.0000       0.123989         3.3739

MULLIKEN ATOMIC CHARGES
-----------------------
   0 S :    0.104523
   1 C :   -0.133070
   2 C :   -0.068537
   3 C :   -0.006128
   4 C :   -0.123429
   5 H :    0.023791
   6 C :    0.020929
   7 H :    0.039254
   8 H :    0.022164
   9 C :   -0.083379
  10 H :    0.038760
  11 H :    0.033867
  12 C :   -0.051048
  13 H :    0.044959
  14 H :    0.028272
  15 H :    0.029507
  16 S :    0.103756
  17 C :   -0.094559
  18 C :   -0.048781
  19 C :   -0.055144
  20 C :   -0.106687
  21 H :    0.037769
  22 C :    0.045698
  23 H :    0.034109
  24 H :    0.004997
  25 C :   -0.060512
  26 H :    0.037134
  27 H :    0.021302
  28 C :   -0.043911
  29 H :    0.035594
  30 H :    0.033516
  31 H :    0.014862
  32 H :    0.061886
  33 H :    0.058539
Sum of atomic charges:    0.0000000

LOEWDIN ATOMIC CHARGES
----------------------
   0 S :    0.385876
   1 C :   -0.205037
   2 C :   -0.060777
   3 C :   -0.069124
   4 C :   -0.180619
   5 H :    0.037970
   6 C :   -0.033530
   7 H :    0.032673
   8 H :    0.027906
   9 C :   -0.045566
  10 H :    0.025438
  11 H :    0.023515
  12 C :   -0.068234
  13 H :    0.029234
  14 H :    0.024887
  15 H :    0.032655
  16 S :    0.414455
  17 C :   -0.189609
  18 C :   -0.071642
  19 C :   -0.053481
  20 C :   -0.200642
  21 H :    0.038917
  22 C :   -0.033074
  23 H :    0.035572
  24 H :    0.020741
  25 C :   -0.034766
  26 H :    0.030404
  27 H :    0.016367
  28 C :   -0.069880
  29 H :    0.027964
  30 H :    0.027903
  31 H :    0.021868
  32 H :    0.034798
  33 H :    0.026838

  Mayer bond orders larger than 0.100000
B(  0-S ,  1-C ) :   1.1230 B(  0-S ,  4-C ) :   1.1356 B(  1-C ,  2-C ) :   1.6308
B(  1-C , 32-H ) :   0.9554 B(  2-C ,  3-C ) :   1.2422 B(  2-C ,  6-C ) :   1.0029
B(  3-C ,  4-C ) :   1.5824 B(  3-C ,  5-H ) :   0.9789 B(  4-C , 20-C ) :   1.0522
B(  6-C ,  7-H ) :   0.9343 B(  6-C ,  8-H ) :   0.9507 B(  6-C ,  9-C ) :   1.0851
B(  9-C , 10-H ) :   0.9492 B(  9-C , 11-H ) :   0.9507 B(  9-C , 12-C ) :   1.0786
B( 12-C , 13-H ) :   0.9730 B( 12-C , 14-H ) :   0.9715 B( 12-C , 15-H ) :   0.9738
B( 16-S , 17-C ) :   1.1709 B( 16-S , 20-C ) :   1.1307 B( 17-C , 18-C ) :   1.6143
B( 17-C , 33-H ) :   0.9590 B( 18-C , 19-C ) :   1.2395 B( 18-C , 21-H ) :   0.9811
B( 19-C , 20-C ) :   1.5773 B( 19-C , 22-C ) :   1.0459 B( 22-C , 23-H ) :   0.9428
B( 22-C , 24-H ) :   0.9339 B( 22-C , 25-C ) :   1.0568 B( 25-C , 26-H ) :   0.9470
B( 25-C , 27-H ) :   0.9560 B( 25-C , 28-C ) :   1.0908 B( 28-C , 29-H ) :   0.9723
B( 28-C , 30-H ) :   0.9733 B( 28-C , 31-H ) :   0.9686

Dispersion correction           -0.013432341
FINAL SINGLE POINT ENERGY     -1339.875706747285

DIPOLE MOMENT
-------------
                                X             Y             Z
Electronic contribution:    -11.43288      -2.37130      30.15621
Nuclear contribution   :     11.93003       2.19453     -30.74052
                        -----------------------------------------
Total Dipole Moment    :      0.49715      -0.17677      -0.58431
                        -----------------------------------------
Magnitude (a.u.)       :      0.78729
Magnitude (Debye)      :      2.00112

Rotational constants in cm-1:     0.018009     0.008251     0.005830
Rotational constants in MHz :   539.894451   247.356913   174.783950

                             ****ORCA TERMINATED NORMALLY****
TOTAL RUN TIME: 0 days 0 hours 0 minutes 29 seconds 139 msec
