                         Program Version 4.2.1 -  RELEASE  -
|  1> ! wB97X-D3 SP def2-SVP
|  2> %pal
|  3> nprocs 16
|  4> end
|  5>
|  6> * xyz 0 1
|  7> S 	 43.3737 	 11.2183 	 49.6648
|  8> C 	 43.2533 	 10.4614 	 51.1969
|  9> C 	 43.3956 	 11.3358 	 52.2638
| 10> C 	 43.8043 	 12.668 	 51.8406
| 11> C 	 43.5368 	 12.8199 	 50.4563
| 12> H 	 44.062 	 13.5399 	 52.416
| 13> C 	 43.1545 	 10.9469 	 53.7662
| 14> H 	 43.9188 	 11.4419 	 54.3808
| 15> H 	 43.2221 	 9.85865 	 53.8606
| 16> C 	 41.8472 	 11.5073 	 54.4378
| 17> H 	 41.7554 	 12.5482 	 54.3275
| 18> H 	 41.0871 	 11.2284 	 53.81
| 19> C 	 41.7011 	 11.1891 	 55.9254
| 20> H 	 41.8872 	 10.1821 	 56.1025
| 21> H 	 42.3266 	 11.7075 	 56.5672
| 22> H 	 40.6677 	 11.4567 	 56.1789
| 23> S 	 44.3647 	 14.0808 	 48.0809
| 24> C 	 44.1795 	 15.8215 	 47.9544
| 25> C 	 43.5174 	 16.3617 	 49.0703
| 26> C 	 43.2209 	 15.3246 	 50.0122
| 27> C 	 43.6418 	 14.0534 	 49.6722
| 28> H 	 43.2284 	 17.3786 	 49.1115
| 29> C 	 42.2518 	 15.505 	 51.1858
| 30> H 	 42.8134 	 15.9072 	 52.0609
| 31> H 	 41.8355 	 14.4778 	 51.2866
| 32> C 	 40.9514 	 16.4328 	 51.0002
| 33> H 	 41.1893 	 17.2751 	 50.3456
| 34> H 	 40.7027 	 16.8843 	 51.9318
| 35> C 	 39.7284 	 15.6568 	 50.3908
| 36> H 	 38.7822 	 16.1867 	 50.2371
| 37> H 	 39.5269 	 14.7617 	 50.9575
| 38> H 	 40.0573 	 15.3137 	 49.4355
| 39> H 	 43.0853 	 9.44498 	 51.4385
| 40> H 	 44.4955 	 16.4331 	 47.0758
| 41> *
| 42>
| 43>                          ****END OF INPUT****

CARTESIAN COORDINATES (ANGSTROEM)
---------------------------------
  S     43.373700   11.218300   49.664800
  C     43.253300   10.461400   51.196900
  C     43.395600   11.335800   52.263800
  C     43.804300   12.668000   51.840600
  C     43.536800   12.819900   50.456300
  H     44.062000   13.539900   52.416000
  C     43.154500   10.946900   53.766200
  H     43.918800   11.441900   54.380800
  H     43.222100    9.858650   53.860600
  C     41.847200   11.507300   54.437800
  H     41.755400   12.548200   54.327500
  H     41.087100   11.228400   53.810000
  C     41.701100   11.189100   55.925400
  H     41.887200   10.182100   56.102500
  H     42.326600   11.707500   56.567200
  H     40.667700   11.456700   56.178900
  S     44.364700   14.080800   48.080900
  C     44.179500   15.821500   47.954400
  C     43.517400   16.361700   49.070300
  C     43.220900   15.324600   50.012200
  C     43.641800   14.053400   49.672200
  H     43.228400   17.378600   49.111500
  C     42.251800   15.505000   51.185800
  H     42.813400   15.907200   52.060900
  H     41.835500   14.477800   51.286600
  C     40.951400   16.432800   51.000200
  H     41.189300   17.275100   50.345600
  H     40.702700   16.884300   51.931800
  C     39.728400   15.656800   50.390800
  H     38.782200   16.186700   50.237100
  H     39.526900   14.761700   50.957500
  H     40.057300   15.313700   49.435500
  H     43.085300    9.444980   51.438500
  H     44.495500   16.433100   47.075800

 Total Charge           Charge          ....    0
 Multiplicity           Mult            ....    1
 Number of Electrons    NEL             ....  134
 Basis Dimension        Dim             ....  322

ORBITAL ENERGIES
----------------

  NO   OCC          E(Eh)            E(eV)
   0   2.0000     -88.970195     -2421.0021
   1   2.0000     -88.968123     -2420.9457
   2   2.0000     -10.337941      -281.3097
   3   2.0000     -10.326510      -280.9986
   4   2.0000     -10.326289      -280.9926
   5   2.0000     -10.310487      -280.5626
   6   2.0000     -10.307788      -280.4892
   7   2.0000     -10.303190      -280.3641
   8   2.0000     -10.302981      -280.3584
   9   2.0000     -10.298606      -280.2393
  10   2.0000     -10.297526      -280.2099
  11   2.0000     -10.297343      -280.2050
  12   2.0000     -10.289889      -280.0021
  13   2.0000     -10.276148      -279.6282
  14   2.0000     -10.273891      -279.5668
  15   2.0000     -10.270886      -279.4850
  16   2.0000      -8.084667      -219.9950
  17   2.0000      -8.082749      -219.9428
  18   2.0000      -6.043263      -164.4455
  19   2.0000      -6.041285      -164.3917
  20   2.0000      -6.039362      -164.3394
  21   2.0000      -6.037272      -164.2825
  22   2.0000      -6.035206      -164.2263
  23   2.0000      -6.033487      -164.1795
  24   2.0000      -1.004342       -27.3295
  25   2.0000      -0.981715       -26.7138
  26   2.0000      -0.905788       -24.6477
  27   2.0000      -0.896355       -24.3911
  28   2.0000      -0.870142       -23.6778
  29   2.0000      -0.851991       -23.1839
  30   2.0000      -0.843410       -22.9504
  31   2.0000      -0.814315       -22.1586
  32   2.0000      -0.780914       -21.2497
  33   2.0000      -0.768463       -20.9109
  34   2.0000      -0.713519       -19.4158
  35   2.0000      -0.704449       -19.1690
  36   2.0000      -0.697843       -18.9893
  37   2.0000      -0.659867       -17.9559
  38   2.0000      -0.641562       -17.4578
  39   2.0000      -0.613809       -16.7026
  40   2.0000      -0.587561       -15.9883
  41   2.0000      -0.570461       -15.5230
  42   2.0000      -0.561812       -15.2877
  43   2.0000      -0.554585       -15.0910
  44   2.0000      -0.533678       -14.5221
  45   2.0000      -0.524212       -14.2645
  46   2.0000      -0.518445       -14.1076
  47   2.0000      -0.506493       -13.7824
  48   2.0000      -0.506348       -13.7784
  49   2.0000      -0.501851       -13.6560
  50   2.0000      -0.489004       -13.3065
  51   2.0000      -0.482327       -13.1248
  52   2.0000      -0.470304       -12.7976
  53   2.0000      -0.468437       -12.7468
  54   2.0000      -0.455998       -12.4083
  55   2.0000      -0.452425       -12.3111
  56   2.0000      -0.449089       -12.2203
  57   2.0000      -0.439736       -11.9658
  58   2.0000      -0.437088       -11.8938
  59   2.0000      -0.426682       -11.6106
  60   2.0000      -0.417419       -11.3586
  61   2.0000      -0.413996       -11.2654
  62   2.0000      -0.411456       -11.1963
  63   2.0000      -0.352868        -9.6020
  64   2.0000      -0.332863        -9.0577
  65   2.0000      -0.326703        -8.8900
  66   2.0000      -0.285024        -7.7559
  67   0.0000       0.019935         0.5424
  68   0.0000       0.075809         2.0629
  69   0.0000       0.101284         2.7561
  70   0.0000       0.115347         3.1388
  71   0.0000       0.134883         3.6704

MULLIKEN ATOMIC CHARGES
-----------------------
   0 S :    0.113922
   1 C :   -0.070816
   2 C :   -0.121311
   3 C :    0.048503
   4 C :   -0.178409
   5 H :    0.024743
   6 C :    0.047711
   7 H :    0.024236
   8 H :    0.024479
   9 C :   -0.039389
  10 H :    0.006842
  11 H :    0.001660
  12 C :    0.011591
  13 H :    0.013673
  14 H :    0.015993
  15 H :    0.033686
  16 S :    0.108410
  17 C :   -0.118178
  18 C :   -0.013842
  19 C :   -0.047920
  20 C :   -0.134078
  21 H :    0.013352
  22 C :   -0.015751
  23 H :    0.048893
  24 H :    0.059898
  25 C :   -0.045245
  26 H :    0.020901
  27 H :    0.019897
  28 C :   -0.055972
  29 H :    0.041464
  30 H :    0.029534
  31 H :    0.027395
  32 H :    0.027639
  33 H :    0.076489
Sum of atomic charges:   -0.0000000

LOEWDIN ATOMIC CHARGES
----------------------
   0 S :    0.400406
   1 C :   -0.207918
   2 C :   -0.060147
   3 C :   -0.046783
   4 C :   -0.176519
   5 H :    0.032615
   6 C :   -0.027927
   7 H :    0.029725
   8 H :    0.026175
   9 C :   -0.034996
  10 H :    0.018834
  11 H :    0.011789
  12 C :   -0.047687
  13 H :    0.016509
  14 H :    0.016837
  15 H :    0.035018
  16 S :    0.403758
  17 C :   -0.184909
  18 C :   -0.067973
  19 C :   -0.063298
  20 C :   -0.209733
  21 H :    0.027402
  22 C :   -0.036175
  23 H :    0.033869
  24 H :    0.038501
  25 C :   -0.034041
  26 H :    0.018945
  27 H :    0.016637
  28 C :   -0.065979
  29 H :    0.028227
  30 H :    0.022166
  31 H :    0.023784
  32 H :    0.023501
  33 H :    0.039390

  Mayer bond orders larger than 0.100000
B(  0-S ,  1-C ) :   1.1290 B(  0-S ,  4-C ) :   1.1362 B(  1-C ,  2-C ) :   1.6359
B(  1-C , 32-H ) :   0.9650 B(  2-C ,  3-C ) :   1.2163 B(  2-C ,  6-C ) :   1.0313
B(  3-C ,  4-C ) :   1.5618 B(  3-C ,  5-H ) :   0.9868 B(  4-C , 20-C ) :   1.0785
B(  6-C ,  7-H ) :   0.9438 B(  6-C ,  8-H ) :   0.9455 B(  6-C ,  9-C ) :   1.0521
B(  9-C , 10-H ) :   0.9512 B(  9-C , 11-H ) :   0.9535 B(  9-C , 12-C ) :   1.0790
B( 12-C , 13-H ) :   0.9767 B( 12-C , 14-H ) :   0.9742 B( 12-C , 15-H ) :   0.9717
B( 16-S , 17-C ) :   1.1688 B( 16-S , 20-C ) :   1.1231 B( 17-C , 18-C ) :   1.5856
B( 17-C , 33-H ) :   0.9619 B( 18-C , 19-C ) :   1.2507 B( 18-C , 21-H ) :   0.9970
B( 19-C , 20-C ) :   1.5905 B( 19-C , 22-C ) :   1.0273 B( 22-C , 23-H ) :   0.9329
B( 22-C , 24-H ) :   0.9490 B( 22-C , 25-C ) :   1.0542 B( 25-C , 26-H ) :   0.9589
B( 25-C , 27-H ) :   0.9589 B( 25-C , 28-C ) :   1.0701 B( 28-C , 29-H ) :   0.9768
B( 28-C , 30-H ) :   0.9750 B( 28-C , 31-H ) :   0.9790

Dispersion correction           -0.014146404
FINAL SINGLE POINT ENERGY     -1339.856265865988

DIPOLE MOMENT
-------------
                                X             Y             Z
Electronic contribution:     17.24085      -5.14742     -25.04835
Nuclear contribution   :    -17.56424       5.47320      25.59021
                        -----------------------------------------
Total Dipole Moment    :     -0.32339       0.32578       0.54187
                        -----------------------------------------
Magnitude (a.u.)       :      0.71017
Magnitude (Debye)      :      1.80510

Rotational constants in cm-1:     0.018205     0.008768     0.006622
Rotational constants in MHz :   545.761170   262.853790   198.535655

                             ****ORCA TERMINATED NORMALLY****
TOTAL RUN TIME: 0 days 0 hours 0 minutes 35 seconds 668 msec
