                         Program Version 4.2.1 -  RELEASE  -
|  1> ! wB97X-D3 SP def2-SVP
|  2> %pal
|  3> nprocs 16
|  4> end
|  5>
|  6> * xyz 0 1
|  7> S 	 5.84595 	 -8.35262 	 75.4803
|  8> C 	 4.21567 	 -8.10166 	 76.1725
|  9> C 	 3.25205 	 -8.91034 	 75.6612
| 10> C 	 3.75371 	 -9.79139 	 74.6512
| 11> C 	 5.1148 	 -9.60795 	 74.39
| 12> H 	 3.19253 	 -10.481 	 74.0759
| 13> C 	 1.78141 	 -9.02474 	 76.2273
| 14> H 	 1.10743 	 -9.02862 	 75.393
| 15> H 	 1.59869 	 -8.18852 	 76.8977
| 16> C 	 1.66054 	 -10.3081 	 76.9375
| 17> H 	 1.89722 	 -11.0827 	 76.2957
| 18> H 	 2.46654 	 -10.2773 	 77.6746
| 19> C 	 0.356149 	 -10.5318 	 77.7099
| 20> H 	 0.503699 	 -10.5511 	 78.8522
| 21> H 	 -0.263498 	 -9.73498 	 77.4356
| 22> H 	 -0.0958805 	 -11.4591 	 77.3729
| 23> S 	 7.55074 	 -9.28 	 73.1321
| 24> C 	 8.05843 	 -10.5004 	 72.0357
| 25> C 	 7.18517 	 -11.5263 	 71.8327
| 26> C 	 5.971 	 -11.3424 	 72.5884
| 27> C 	 5.99385 	 -10.1473 	 73.3705
| 28> H 	 7.58778 	 -12.3249 	 71.2223
| 29> C 	 4.96594 	 -12.4516 	 72.7302
| 30> H 	 4.01427 	 -11.9824 	 72.8777
| 31> H 	 5.23226 	 -12.9664 	 73.6476
| 32> C 	 4.73628 	 -13.3503 	 71.515
| 33> H 	 5.68024 	 -13.7033 	 71.2934
| 34> H 	 4.41481 	 -12.6462 	 70.6412
| 35> C 	 3.76726 	 -14.4961 	 71.814
| 36> H 	 2.83592 	 -14.2187 	 72.2596
| 37> H 	 4.22485 	 -15.1569 	 72.6294
| 38> H 	 3.54495 	 -15.1666 	 70.939
| 39> H 	 4.08207 	 -7.43723 	 77.0162
| 40> H 	 8.98637 	 -10.3929 	 71.5769
| 41> *
| 42>
| 43>                          ****END OF INPUT****

CARTESIAN COORDINATES (ANGSTROEM)
---------------------------------
  S      5.845950   -8.352620   75.480300
  C      4.215670   -8.101660   76.172500
  C      3.252050   -8.910340   75.661200
  C      3.753710   -9.791390   74.651200
  C      5.114800   -9.607950   74.390000
  H      3.192530  -10.481000   74.075900
  C      1.781410   -9.024740   76.227300
  H      1.107430   -9.028620   75.393000
  H      1.598690   -8.188520   76.897700
  C      1.660540  -10.308100   76.937500
  H      1.897220  -11.082700   76.295700
  H      2.466540  -10.277300   77.674600
  C      0.356149  -10.531800   77.709900
  H      0.503699  -10.551100   78.852200
  H     -0.263498   -9.734980   77.435600
  H     -0.095880  -11.459100   77.372900
  S      7.550740   -9.280000   73.132100
  C      8.058430  -10.500400   72.035700
  C      7.185170  -11.526300   71.832700
  C      5.971000  -11.342400   72.588400
  C      5.993850  -10.147300   73.370500
  H      7.587780  -12.324900   71.222300
  C      4.965940  -12.451600   72.730200
  H      4.014270  -11.982400   72.877700
  H      5.232260  -12.966400   73.647600
  C      4.736280  -13.350300   71.515000
  H      5.680240  -13.703300   71.293400
  H      4.414810  -12.646200   70.641200
  C      3.767260  -14.496100   71.814000
  H      2.835920  -14.218700   72.259600
  H      4.224850  -15.156900   72.629400
  H      3.544950  -15.166600   70.939000
  H      4.082070   -7.437230   77.016200
  H      8.986370  -10.392900   71.576900

 Total Charge           Charge          ....    0
 Multiplicity           Mult            ....    1
 Number of Electrons    NEL             ....  134
 Basis Dimension        Dim             ....  322

ORBITAL ENERGIES
----------------

  NO   OCC          E(Eh)            E(eV)
   0   2.0000     -88.965753     -2420.8812
   1   2.0000     -88.963921     -2420.8314
   2   2.0000     -10.337803      -281.3059
   3   2.0000     -10.333147      -281.1792
   4   2.0000     -10.312660      -280.6217
   5   2.0000     -10.312413      -280.6150
   6   2.0000     -10.310221      -280.5554
   7   2.0000     -10.302483      -280.3448
   8   2.0000     -10.295714      -280.1606
   9   2.0000     -10.294831      -280.1366
  10   2.0000     -10.292312      -280.0681
  11   2.0000     -10.291609      -280.0489
  12   2.0000     -10.289687      -279.9966
  13   2.0000     -10.289361      -279.9877
  14   2.0000     -10.278455      -279.6910
  15   2.0000     -10.271900      -279.5126
  16   2.0000      -8.080673      -219.8863
  17   2.0000      -8.077463      -219.7989
  18   2.0000      -6.039139      -164.3333
  19   2.0000      -6.036116      -164.2511
  20   2.0000      -6.035228      -164.2269
  21   2.0000      -6.032438      -164.1510
  22   2.0000      -6.031399      -164.1227
  23   2.0000      -6.027850      -164.0261
  24   2.0000      -1.001021       -27.2392
  25   2.0000      -0.977509       -26.5994
  26   2.0000      -0.919520       -25.0214
  27   2.0000      -0.915857       -24.9217
  28   2.0000      -0.870414       -23.6852
  29   2.0000      -0.854459       -23.2510
  30   2.0000      -0.839942       -22.8560
  31   2.0000      -0.814922       -22.1752
  32   2.0000      -0.785691       -21.3797
  33   2.0000      -0.772308       -21.0156
  34   2.0000      -0.712648       -19.3921
  35   2.0000      -0.703873       -19.1534
  36   2.0000      -0.694245       -18.8914
  37   2.0000      -0.656571       -17.8662
  38   2.0000      -0.637192       -17.3389
  39   2.0000      -0.625977       -17.0337
  40   2.0000      -0.602194       -16.3865
  41   2.0000      -0.577073       -15.7030
  42   2.0000      -0.573637       -15.6095
  43   2.0000      -0.561175       -15.2703
  44   2.0000      -0.530224       -14.4281
  45   2.0000      -0.523545       -14.2464
  46   2.0000      -0.514886       -14.0108
  47   2.0000      -0.510905       -13.9024
  48   2.0000      -0.503947       -13.7131
  49   2.0000      -0.494614       -13.4591
  50   2.0000      -0.491515       -13.3748
  51   2.0000      -0.481694       -13.1076
  52   2.0000      -0.475439       -12.9373
  53   2.0000      -0.474182       -12.9031
  54   2.0000      -0.458236       -12.4692
  55   2.0000      -0.454069       -12.3559
  56   2.0000      -0.447779       -12.1847
  57   2.0000      -0.440390       -11.9836
  58   2.0000      -0.428823       -11.6689
  59   2.0000      -0.425942       -11.5905
  60   2.0000      -0.421771       -11.4770
  61   2.0000      -0.414717       -11.2850
  62   2.0000      -0.407416       -11.0864
  63   2.0000      -0.362894        -9.8749
  64   2.0000      -0.337997        -9.1974
  65   2.0000      -0.329360        -8.9623
  66   2.0000      -0.276661        -7.5283
  67   0.0000       0.014913         0.4058
  68   0.0000       0.071276         1.9395
  69   0.0000       0.097894         2.6638
  70   0.0000       0.124003         3.3743
  71   0.0000       0.135944         3.6992

MULLIKEN ATOMIC CHARGES
-----------------------
   0 S :    0.067727
   1 C :   -0.124087
   2 C :   -0.078804
   3 C :   -0.000271
   4 C :   -0.110761
   5 H :   -0.002539
   6 C :    0.107159
   7 H :    0.019851
   8 H :    0.019873
   9 C :   -0.089569
  10 H :    0.008142
  11 H :    0.022230
  12 C :   -0.015662
  13 H :    0.052602
  14 H :    0.014883
  15 H :    0.032028
  16 S :    0.087749
  17 C :   -0.067057
  18 C :   -0.041975
  19 C :   -0.045613
  20 C :   -0.116050
  21 H :    0.027332
  22 C :    0.047232
  23 H :    0.013655
  24 H :    0.048784
  25 C :   -0.069062
  26 H :    0.013314
  27 H :    0.048005
  28 C :   -0.051295
  29 H :    0.023169
  30 H :    0.032134
  31 H :    0.050204
  32 H :    0.043300
  33 H :    0.033373
Sum of atomic charges:   -0.0000000

LOEWDIN ATOMIC CHARGES
----------------------
   0 S :    0.346380
   1 C :   -0.181805
   2 C :   -0.054520
   3 C :   -0.066282
   4 C :   -0.152078
   5 H :    0.021229
   6 C :   -0.016921
   7 H :    0.023715
   8 H :    0.027594
   9 C :   -0.046102
  10 H :    0.011891
  11 H :    0.027403
  12 C :   -0.062460
  13 H :    0.039614
  14 H :    0.016160
  15 H :    0.027391
  16 S :    0.395115
  17 C :   -0.173008
  18 C :   -0.079783
  19 C :   -0.045843
  20 C :   -0.186971
  21 H :    0.037529
  22 C :   -0.033595
  23 H :    0.024064
  24 H :    0.037636
  25 C :   -0.038984
  26 H :    0.008920
  27 H :    0.038780
  28 C :   -0.070712
  29 H :    0.018615
  30 H :    0.034776
  31 H :    0.034098
  32 H :    0.024335
  33 H :    0.013820

  Mayer bond orders larger than 0.100000
B(  0-S ,  1-C ) :   1.1051 B(  0-S ,  4-C ) :   1.1164 B(  1-C ,  2-C ) :   1.6755
B(  1-C , 32-H ) :   0.9629 B(  2-C ,  3-C ) :   1.2024 B(  2-C ,  6-C ) :   1.0196
B(  3-C ,  4-C ) :   1.5964 B(  3-C ,  5-H ) :   0.9901 B(  4-C , 20-C ) :   1.1167
B(  6-C ,  7-H ) :   0.9274 B(  6-C ,  8-H ) :   0.9422 B(  6-C ,  9-C ) :   1.0856
B(  9-C , 10-H ) :   0.9589 B(  9-C , 11-H ) :   0.9552 B(  9-C , 12-C ) :   1.0626
B( 12-C , 13-H ) :   0.9784 B( 12-C , 14-H ) :   0.9771 B( 12-C , 15-H ) :   0.9749
B( 16-S , 17-C ) :   1.1654 B( 16-S , 20-C ) :   1.1235 B( 17-C , 18-C ) :   1.6265
B( 17-C , 33-H ) :   0.9686 B( 18-C , 19-C ) :   1.2138 B( 18-C , 21-H ) :   0.9927
B( 19-C , 20-C ) :   1.5718 B( 19-C , 22-C ) :   1.0402 B( 22-C , 23-H ) :   0.9282
B( 22-C , 24-H ) :   0.9309 B( 22-C , 25-C ) :   1.0644 B( 25-C , 26-H ) :   0.9510
B( 25-C , 27-H ) :   0.9563 B( 25-C , 28-C ) :   1.0794 B( 28-C , 29-H ) :   0.9760
B( 28-C , 30-H ) :   0.9703 B( 28-C , 31-H ) :   0.9738

Dispersion correction           -0.013250930
FINAL SINGLE POINT ENERGY     -1339.862184382771

DIPOLE MOMENT
-------------
                                X             Y             Z
Electronic contribution:     24.86137      19.74220      -2.69548
Nuclear contribution   :    -25.23414     -20.35097       2.65258
                        -----------------------------------------
Total Dipole Moment    :     -0.37277      -0.60877      -0.04289
                        -----------------------------------------
Magnitude (a.u.)       :      0.71512
Magnitude (Debye)      :      1.81769

Rotational constants in cm-1:     0.016406     0.008889     0.005908
Rotational constants in MHz :   491.845605   266.480832   177.109026

                             ****ORCA TERMINATED NORMALLY****
TOTAL RUN TIME: 0 days 0 hours 0 minutes 29 seconds 372 msec
