                         Program Version 4.2.1 -  RELEASE  -
|  1> ! wB97X-D3 SP def2-SVP
|  2> %pal
|  3> nprocs 16
|  4> end
|  5>
|  6> * xyz 0 1
|  7> S 	 -10.0515 	 65.8902 	 54.5254
|  8> C 	 -9.79449 	 64.576 	 53.4212
|  9> C 	 -10.1882 	 63.3647 	 53.9496
| 10> C 	 -10.6793 	 63.5505 	 55.2923
| 11> C 	 -10.4212 	 64.8125 	 55.8246
| 12> H 	 -11.0563 	 62.6729 	 55.8483
| 13> C 	 -10.1982 	 62.0426 	 53.172
| 14> H 	 -9.47046 	 61.3498 	 53.6195
| 15> H 	 -9.91918 	 62.3593 	 52.1385
| 16> C 	 -11.6113 	 61.5022 	 53.0087
| 17> H 	 -12.275 	 61.297 	 53.8624
| 18> H 	 -12.1589 	 62.1751 	 52.3155
| 19> C 	 -11.628 	 60.1672 	 52.2464
| 20> H 	 -11.1033 	 59.3248 	 52.7301
| 21> H 	 -12.661 	 59.9034 	 52.088
| 22> H 	 -11.1233 	 60.4456 	 51.3278
| 23> S 	 -10.4664 	 66.9358 	 57.4541
| 24> C 	 -10.7754 	 66.7126 	 59.1771
| 25> C 	 -10.8731 	 65.396 	 59.5654
| 26> C 	 -11.0171 	 64.5453 	 58.4167
| 27> C 	 -10.6441 	 65.2019 	 57.224
| 28> H 	 -10.8703 	 65.2077 	 60.6327
| 29> C 	 -11.1886 	 63.0656 	 58.6751
| 30> H 	 -12.0461 	 62.7459 	 58.1847
| 31> H 	 -11.3914 	 63.0185 	 59.7791
| 32> C 	 -9.91798 	 62.2662 	 58.5035
| 33> H 	 -9.1909 	 62.648 	 59.2224
| 34> H 	 -9.46462 	 62.5211 	 57.5195
| 35> C 	 -10.0215 	 60.7548 	 58.6804
| 36> H 	 -10.4054 	 60.4882 	 59.6776
| 37> H 	 -9.1712 	 60.2137 	 58.5476
| 38> H 	 -10.8707 	 60.4085 	 58.0375
| 39> H 	 -9.58617 	 64.5998 	 52.3829
| 40> H 	 -10.7457 	 67.5233 	 59.8896
| 41> *
| 42>
| 43>                          ****END OF INPUT****

CARTESIAN COORDINATES (ANGSTROEM)
---------------------------------
  S    -10.051500   65.890200   54.525400
  C     -9.794490   64.576000   53.421200
  C    -10.188200   63.364700   53.949600
  C    -10.679300   63.550500   55.292300
  C    -10.421200   64.812500   55.824600
  H    -11.056300   62.672900   55.848300
  C    -10.198200   62.042600   53.172000
  H     -9.470460   61.349800   53.619500
  H     -9.919180   62.359300   52.138500
  C    -11.611300   61.502200   53.008700
  H    -12.275000   61.297000   53.862400
  H    -12.158900   62.175100   52.315500
  C    -11.628000   60.167200   52.246400
  H    -11.103300   59.324800   52.730100
  H    -12.661000   59.903400   52.088000
  H    -11.123300   60.445600   51.327800
  S    -10.466400   66.935800   57.454100
  C    -10.775400   66.712600   59.177100
  C    -10.873100   65.396000   59.565400
  C    -11.017100   64.545300   58.416700
  C    -10.644100   65.201900   57.224000
  H    -10.870300   65.207700   60.632700
  C    -11.188600   63.065600   58.675100
  H    -12.046100   62.745900   58.184700
  H    -11.391400   63.018500   59.779100
  C     -9.917980   62.266200   58.503500
  H     -9.190900   62.648000   59.222400
  H     -9.464620   62.521100   57.519500
  C    -10.021500   60.754800   58.680400
  H    -10.405400   60.488200   59.677600
  H     -9.171200   60.213700   58.547600
  H    -10.870700   60.408500   58.037500
  H     -9.586170   64.599800   52.382900
  H    -10.745700   67.523300   59.889600

 Total Charge           Charge          ....    0
 Multiplicity           Mult            ....    1
 Number of Electrons    NEL             ....  134
 Basis Dimension        Dim             ....  322

ORBITAL ENERGIES
----------------

  NO   OCC          E(Eh)            E(eV)
   0   2.0000     -88.968877     -2420.9662
   1   2.0000     -88.966101     -2420.8907
   2   2.0000     -10.333960      -281.2014
   3   2.0000     -10.332784      -281.1694
   4   2.0000     -10.315966      -280.7117
   5   2.0000     -10.309043      -280.5233
   6   2.0000     -10.307928      -280.4930
   7   2.0000     -10.302516      -280.3457
   8   2.0000     -10.298908      -280.2475
   9   2.0000     -10.296375      -280.1786
  10   2.0000     -10.294161      -280.1184
  11   2.0000     -10.290051      -280.0065
  12   2.0000     -10.289295      -279.9860
  13   2.0000     -10.284600      -279.8582
  14   2.0000     -10.276605      -279.6406
  15   2.0000     -10.275444      -279.6091
  16   2.0000      -8.083930      -219.9749
  17   2.0000      -8.080826      -219.8904
  18   2.0000      -6.042669      -164.4294
  19   2.0000      -6.039336      -164.3387
  20   2.0000      -6.038523      -164.3166
  21   2.0000      -6.035505      -164.2344
  22   2.0000      -6.034297      -164.2016
  23   2.0000      -6.031438      -164.1238
  24   2.0000      -1.008847       -27.4521
  25   2.0000      -0.984670       -26.7942
  26   2.0000      -0.917303       -24.9611
  27   2.0000      -0.912877       -24.8406
  28   2.0000      -0.872620       -23.7452
  29   2.0000      -0.852124       -23.1875
  30   2.0000      -0.846675       -23.0392
  31   2.0000      -0.816194       -22.2098
  32   2.0000      -0.783243       -21.3131
  33   2.0000      -0.773419       -21.0458
  34   2.0000      -0.710479       -19.3331
  35   2.0000      -0.696531       -18.9536
  36   2.0000      -0.688738       -18.7415
  37   2.0000      -0.666170       -18.1274
  38   2.0000      -0.631057       -17.1719
  39   2.0000      -0.624442       -16.9919
  40   2.0000      -0.595538       -16.2054
  41   2.0000      -0.574289       -15.6272
  42   2.0000      -0.569592       -15.4994
  43   2.0000      -0.562498       -15.3064
  44   2.0000      -0.536602       -14.6017
  45   2.0000      -0.528955       -14.3936
  46   2.0000      -0.522428       -14.2160
  47   2.0000      -0.512471       -13.9450
  48   2.0000      -0.504524       -13.7288
  49   2.0000      -0.493585       -13.4311
  50   2.0000      -0.491387       -13.3713
  51   2.0000      -0.489578       -13.3221
  52   2.0000      -0.473254       -12.8779
  53   2.0000      -0.462063       -12.5734
  54   2.0000      -0.455591       -12.3973
  55   2.0000      -0.451399       -12.2832
  56   2.0000      -0.443218       -12.0606
  57   2.0000      -0.440515       -11.9870
  58   2.0000      -0.436681       -11.8827
  59   2.0000      -0.427995       -11.6463
  60   2.0000      -0.419399       -11.4124
  61   2.0000      -0.411097       -11.1865
  62   2.0000      -0.406145       -11.0518
  63   2.0000      -0.360932        -9.8215
  64   2.0000      -0.337081        -9.1724
  65   2.0000      -0.325580        -8.8595
  66   2.0000      -0.278976        -7.5913
  67   0.0000       0.015766         0.4290
  68   0.0000       0.085081         2.3152
  69   0.0000       0.093930         2.5560
  70   0.0000       0.117830         3.2063
  71   0.0000       0.127577         3.4715

MULLIKEN ATOMIC CHARGES
-----------------------
   0 S :    0.111674
   1 C :   -0.081362
   2 C :   -0.126604
   3 C :   -0.019008
   4 C :   -0.081855
   5 H :    0.018437
   6 C :    0.085779
   7 H :    0.052507
   8 H :    0.018487
   9 C :   -0.126114
  10 H :    0.039457
  11 H :    0.034598
  12 C :   -0.037571
  13 H :    0.037699
  14 H :    0.032823
  15 H :    0.018411
  16 S :    0.082838
  17 C :   -0.079296
  18 C :   -0.041077
  19 C :   -0.076725
  20 C :   -0.119488
  21 H :    0.030579
  22 C :    0.076417
  23 H :    0.019654
  24 H :    0.017332
  25 C :   -0.089726
  26 H :    0.021216
  27 H :    0.037700
  28 C :    0.009895
  29 H :    0.015646
  30 H :    0.023628
  31 H :    0.019406
  32 H :    0.026230
  33 H :    0.048414
Sum of atomic charges:   -0.0000000

LOEWDIN ATOMIC CHARGES
----------------------
   0 S :    0.413524
   1 C :   -0.204758
   2 C :   -0.061511
   3 C :   -0.071923
   4 C :   -0.199743
   5 H :    0.031210
   6 C :   -0.027912
   7 H :    0.035326
   8 H :    0.036013
   9 C :   -0.047091
  10 H :    0.022430
  11 H :    0.031247
  12 C :   -0.062672
  13 H :    0.023874
  14 H :    0.023990
  15 H :    0.020539
  16 S :    0.390185
  17 C :   -0.174308
  18 C :   -0.068436
  19 C :   -0.051991
  20 C :   -0.180129
  21 H :    0.037787
  22 C :   -0.030249
  23 H :    0.018483
  24 H :    0.036807
  25 C :   -0.045886
  26 H :    0.025495
  27 H :    0.025588
  28 C :   -0.058213
  29 H :    0.025287
  30 H :    0.013367
  31 H :    0.027883
  32 H :    0.021931
  33 H :    0.023858

  Mayer bond orders larger than 0.100000
B(  0-S ,  1-C ) :   1.1231 B(  0-S ,  4-C ) :   1.1504 B(  1-C ,  2-C ) :   1.6325
B(  1-C , 32-H ) :   0.9622 B(  2-C ,  3-C ) :   1.2618 B(  2-C ,  6-C ) :   1.0214
B(  3-C ,  4-C ) :   1.5372 B(  3-C ,  5-H ) :   0.9858 B(  4-C , 20-C ) :   1.0989
B(  6-C ,  7-H ) :   0.9410 B(  6-C ,  8-H ) :   0.9348 B(  6-C ,  9-C ) :   1.0603
B(  9-C , 10-H ) :   0.9617 B(  9-C , 11-H ) :   0.9568 B(  9-C , 12-C ) :   1.0794
B( 12-C , 13-H ) :   0.9767 B( 12-C , 14-H ) :   0.9758 B( 12-C , 15-H ) :   0.9750
B( 16-S , 17-C ) :   1.1479 B( 16-S , 20-C ) :   1.1334 B( 17-C , 18-C ) :   1.6477
B( 17-C , 33-H ) :   0.9645 B( 18-C , 19-C ) :   1.2204 B( 18-C , 21-H ) :   0.9834
B( 19-C , 20-C ) :   1.5723 B( 19-C , 22-C ) :   1.0531 B( 22-C , 23-H ) :   0.9259
B( 22-C , 24-H ) :   0.9319 B( 22-C , 25-C ) :   1.0598 B( 25-C , 26-H ) :   0.9480
B( 25-C , 27-H ) :   0.9557 B( 25-C , 28-C ) :   1.0817 B( 28-C , 29-H ) :   0.9704
B( 28-C , 30-H ) :   0.9735 B( 28-C , 31-H ) :   0.9725

Dispersion correction           -0.014052657
FINAL SINGLE POINT ENERGY     -1339.859575958139

DIPOLE MOMENT
-------------
                                X             Y             Z
Electronic contribution:      3.29310      32.19253       2.83151
Nuclear contribution   :     -3.39741     -32.85544      -2.67442
                        -----------------------------------------
Total Dipole Moment    :     -0.10431      -0.66292       0.15709
                        -----------------------------------------
Magnitude (a.u.)       :      0.68922
Magnitude (Debye)      :      1.75185

Rotational constants in cm-1:     0.018279     0.009201     0.006491
Rotational constants in MHz :   548.001051   275.852840   194.580892

                             ****ORCA TERMINATED NORMALLY****
TOTAL RUN TIME: 0 days 0 hours 0 minutes 36 seconds 334 msec
