                         Program Version 4.2.1 -  RELEASE  -
|  1> ! wB97X-D3 SP def2-SVP
|  2> %pal
|  3> nprocs 16
|  4> end
|  5>
|  6> * xyz 0 1
|  7> S 	 14.251 	 22.8723 	 62.6435
|  8> C 	 14.5361 	 21.3527 	 63.4915
|  9> C 	 13.3593 	 20.8526 	 63.9736
| 10> C 	 12.3244 	 21.8393 	 63.9771
| 11> C 	 12.6032 	 22.9959 	 63.259
| 12> H 	 11.3316 	 21.7063 	 64.3465
| 13> C 	 13.0981 	 19.4594 	 64.5707
| 14> H 	 13.7296 	 18.7985 	 63.9746
| 15> H 	 12.1329 	 19.1292 	 64.2449
| 16> C 	 13.3967 	 19.2032 	 66.0444
| 17> H 	 13.4374 	 18.1343 	 66.3727
| 18> H 	 14.3946 	 19.5267 	 66.1633
| 19> C 	 12.515 	 20.0477 	 66.9858
| 20> H 	 11.4734 	 19.7026 	 66.917
| 21> H 	 12.8145 	 19.9402 	 68.0286
| 22> H 	 12.4518 	 21.0805 	 66.7724
| 23> S 	 12.6363 	 25.7083 	 63.8507
| 24> C 	 11.1199 	 26.5408 	 64.07
| 25> C 	 10.1223 	 25.7349 	 63.5898
| 26> C 	 10.4719 	 24.4176 	 63.2003
| 27> C 	 11.8359 	 24.2389 	 63.3451
| 28> H 	 9.15251 	 26.2439 	 63.4681
| 29> C 	 9.40736 	 23.399 	 62.8352
| 30> H 	 8.66353 	 23.4647 	 63.6359
| 31> H 	 9.89741 	 22.4383 	 62.7855
| 32> C 	 8.78949 	 23.6751 	 61.4175
| 33> H 	 9.43485 	 23.325 	 60.573
| 34> H 	 8.58589 	 24.7784 	 61.312
| 35> C 	 7.52731 	 22.834 	 61.1369
| 36> H 	 7.39801 	 22.5978 	 60.0691
| 37> H 	 6.73562 	 23.5608 	 61.3631
| 38> H 	 7.50317 	 22.0278 	 61.7973
| 39> H 	 15.4118 	 20.764 	 63.4825
| 40> H 	 11.0978 	 27.6191 	 64.3197
| 41> *
| 42>
| 43>                          ****END OF INPUT****

CARTESIAN COORDINATES (ANGSTROEM)
---------------------------------
  S     14.251000   22.872300   62.643500
  C     14.536100   21.352700   63.491500
  C     13.359300   20.852600   63.973600
  C     12.324400   21.839300   63.977100
  C     12.603200   22.995900   63.259000
  H     11.331600   21.706300   64.346500
  C     13.098100   19.459400   64.570700
  H     13.729600   18.798500   63.974600
  H     12.132900   19.129200   64.244900
  C     13.396700   19.203200   66.044400
  H     13.437400   18.134300   66.372700
  H     14.394600   19.526700   66.163300
  C     12.515000   20.047700   66.985800
  H     11.473400   19.702600   66.917000
  H     12.814500   19.940200   68.028600
  H     12.451800   21.080500   66.772400
  S     12.636300   25.708300   63.850700
  C     11.119900   26.540800   64.070000
  C     10.122300   25.734900   63.589800
  C     10.471900   24.417600   63.200300
  C     11.835900   24.238900   63.345100
  H      9.152510   26.243900   63.468100
  C      9.407360   23.399000   62.835200
  H      8.663530   23.464700   63.635900
  H      9.897410   22.438300   62.785500
  C      8.789490   23.675100   61.417500
  H      9.434850   23.325000   60.573000
  H      8.585890   24.778400   61.312000
  C      7.527310   22.834000   61.136900
  H      7.398010   22.597800   60.069100
  H      6.735620   23.560800   61.363100
  H      7.503170   22.027800   61.797300
  H     15.411800   20.764000   63.482500
  H     11.097800   27.619100   64.319700

 Total Charge           Charge          ....    0
 Multiplicity           Mult            ....    1
 Number of Electrons    NEL             ....  134
 Basis Dimension        Dim             ....  322

ORBITAL ENERGIES
----------------

  NO   OCC          E(Eh)            E(eV)
   0   2.0000     -88.967182     -2420.9201
   1   2.0000     -88.961820     -2420.7742
   2   2.0000     -10.330535      -281.1081
   3   2.0000     -10.327910      -281.0367
   4   2.0000     -10.317643      -280.7573
   5   2.0000     -10.313771      -280.6520
   6   2.0000     -10.301996      -280.3316
   7   2.0000     -10.301891      -280.3287
   8   2.0000     -10.297366      -280.2056
   9   2.0000     -10.292743      -280.0798
  10   2.0000     -10.292707      -280.0788
  11   2.0000     -10.292082      -280.0618
  12   2.0000     -10.292030      -280.0604
  13   2.0000     -10.287819      -279.9458
  14   2.0000     -10.273836      -279.5653
  15   2.0000     -10.271944      -279.5138
  16   2.0000      -8.081367      -219.9052
  17   2.0000      -8.077022      -219.7870
  18   2.0000      -6.040018      -164.3573
  19   2.0000      -6.035955      -164.2467
  20   2.0000      -6.035514      -164.2347
  21   2.0000      -6.031998      -164.1390
  22   2.0000      -6.031476      -164.1248
  23   2.0000      -6.027737      -164.0231
  24   2.0000      -1.008086       -27.4314
  25   2.0000      -0.986274       -26.8379
  26   2.0000      -0.910442       -24.7744
  27   2.0000      -0.906970       -24.6799
  28   2.0000      -0.870596       -23.6901
  29   2.0000      -0.853358       -23.2210
  30   2.0000      -0.842196       -22.9173
  31   2.0000      -0.814789       -22.1715
  32   2.0000      -0.785160       -21.3653
  33   2.0000      -0.775861       -21.1122
  34   2.0000      -0.708104       -19.2685
  35   2.0000      -0.702606       -19.1189
  36   2.0000      -0.691161       -18.8075
  37   2.0000      -0.658983       -17.9318
  38   2.0000      -0.640831       -17.4379
  39   2.0000      -0.616626       -16.7793
  40   2.0000      -0.596984       -16.2448
  41   2.0000      -0.572050       -15.5663
  42   2.0000      -0.563206       -15.3256
  43   2.0000      -0.548445       -14.9240
  44   2.0000      -0.541257       -14.7283
  45   2.0000      -0.536388       -14.5959
  46   2.0000      -0.522642       -14.2218
  47   2.0000      -0.509902       -13.8751
  48   2.0000      -0.506117       -13.7721
  49   2.0000      -0.500025       -13.6064
  50   2.0000      -0.487018       -13.2524
  51   2.0000      -0.478364       -13.0169
  52   2.0000      -0.477141       -12.9837
  53   2.0000      -0.468626       -12.7520
  54   2.0000      -0.461321       -12.5532
  55   2.0000      -0.446665       -12.1544
  56   2.0000      -0.442692       -12.0463
  57   2.0000      -0.435842       -11.8599
  58   2.0000      -0.429476       -11.6866
  59   2.0000      -0.423483       -11.5236
  60   2.0000      -0.420553       -11.4438
  61   2.0000      -0.414728       -11.2853
  62   2.0000      -0.403666       -10.9843
  63   2.0000      -0.351061        -9.5528
  64   2.0000      -0.330977        -9.0063
  65   2.0000      -0.328622        -8.9423
  66   2.0000      -0.292789        -7.9672
  67   0.0000       0.027209         0.7404
  68   0.0000       0.073279         1.9940
  69   0.0000       0.104770         2.8509
  70   0.0000       0.126219         3.4346
  71   0.0000       0.131080         3.5669

MULLIKEN ATOMIC CHARGES
-----------------------
   0 S :    0.102958
   1 C :   -0.100742
   2 C :   -0.109899
   3 C :    0.030901
   4 C :   -0.159938
   5 H :    0.006958
   6 C :    0.077682
   7 H :    0.013162
   8 H :    0.015585
   9 C :   -0.023666
  10 H :    0.039244
  11 H :    0.008926
  12 C :   -0.056267
  13 H :    0.019523
  14 H :    0.033218
  15 H :    0.034055
  16 S :    0.104486
  17 C :   -0.121410
  18 C :   -0.049502
  19 C :   -0.036705
  20 C :   -0.140201
  21 H :    0.027151
  22 C :    0.094282
  23 H :    0.040761
  24 H :    0.023872
  25 C :   -0.143791
  26 H :    0.043686
  27 H :    0.042120
  28 C :   -0.017947
  29 H :    0.041387
  30 H :    0.025926
  31 H :    0.025381
  32 H :    0.033119
  33 H :    0.075683
Sum of atomic charges:   -0.0000000

LOEWDIN ATOMIC CHARGES
----------------------
   0 S :    0.392685
   1 C :   -0.180511
   2 C :   -0.062579
   3 C :   -0.057885
   4 C :   -0.191105
   5 H :    0.024027
   6 C :   -0.030048
   7 H :    0.031265
   8 H :    0.024569
   9 C :   -0.037628
  10 H :    0.032559
  11 H :    0.018188
  12 C :   -0.066268
  13 H :    0.023666
  14 H :    0.026957
  15 H :    0.020980
  16 S :    0.405853
  17 C :   -0.193435
  18 C :   -0.078513
  19 C :   -0.059546
  20 C :   -0.195433
  21 H :    0.033593
  22 C :   -0.027424
  23 H :    0.034421
  24 H :    0.028817
  25 C :   -0.044259
  26 H :    0.031369
  27 H :    0.024657
  28 C :   -0.063851
  29 H :    0.029728
  30 H :    0.028652
  31 H :    0.015341
  32 H :    0.022615
  33 H :    0.038543

  Mayer bond orders larger than 0.100000
B(  0-S ,  1-C ) :   1.1353 B(  0-S ,  4-C ) :   1.1379 B(  1-C ,  2-C ) :   1.6211
B(  1-C , 32-H ) :   0.9699 B(  2-C ,  3-C ) :   1.2387 B(  2-C ,  6-C ) :   1.0135
B(  3-C ,  4-C ) :   1.5777 B(  3-C ,  5-H ) :   0.9856 B(  4-C , 20-C ) :   1.0358
B(  6-C ,  7-H ) :   0.9326 B(  6-C ,  8-H ) :   0.9451 B(  6-C ,  9-C ) :   1.0694
B(  9-C , 10-H ) :   0.9556 B(  9-C , 11-H ) :   0.9494 B(  9-C , 12-C ) :   1.0790
B( 12-C , 13-H ) :   0.9757 B( 12-C , 14-H ) :   0.9744 B( 12-C , 15-H ) :   0.9744
B( 16-S , 17-C ) :   1.1503 B( 16-S , 20-C ) :   1.1499 B( 17-C , 18-C ) :   1.6120
B( 17-C , 33-H ) :   0.9656 B( 18-C , 19-C ) :   1.2359 B( 18-C , 21-H ) :   0.9840
B( 19-C , 20-C ) :   1.5882 B( 19-C , 22-C ) :   1.0404 B( 22-C , 23-H ) :   0.9429
B( 22-C , 24-H ) :   0.9161 B( 22-C , 25-C ) :   1.0629 B( 25-C , 26-H ) :   0.9612
B( 25-C , 27-H ) :   0.9711 B( 25-C , 28-C ) :   1.0553 B( 28-C , 29-H ) :   0.9808
B( 28-C , 30-H ) :   0.9791 B( 28-C , 31-H ) :   0.9746

Dispersion correction           -0.013959384
FINAL SINGLE POINT ENERGY     -1339.870091199137

DIPOLE MOMENT
-------------
                                X             Y             Z
Electronic contribution:     17.97190      17.57656      -4.42078
Nuclear contribution   :    -18.45696     -17.94795       4.53373
                        -----------------------------------------
Total Dipole Moment    :     -0.48505      -0.37140       0.11296
                        -----------------------------------------
Magnitude (a.u.)       :      0.62126
Magnitude (Debye)      :      1.57913

Rotational constants in cm-1:     0.016669     0.008566     0.007131
Rotational constants in MHz :   499.721814   256.812099   213.774500

                             ****ORCA TERMINATED NORMALLY****
TOTAL RUN TIME: 0 days 0 hours 0 minutes 34 seconds 152 msec
