                         Program Version 4.2.1 -  RELEASE  -
|  1> ! wB97X-D3 SP def2-SVP
|  2> %pal
|  3> nprocs 16
|  4> end
|  5>
|  6> * xyz 0 1
|  7> S 	 -17.1888 	 -11.828 	 87.9178
|  8> C 	 -15.5379 	 -12.3972 	 88.0715
|  9> C 	 -15.1177 	 -12.4185 	 89.393
| 10> C 	 -16.2306 	 -12.2968 	 90.3065
| 11> C 	 -17.4072 	 -11.9262 	 89.6843
| 12> H 	 -16.2747 	 -12.3275 	 91.3821
| 13> C 	 -13.7707 	 -12.8791 	 89.7842
| 14> H 	 -13.3647 	 -12.1129 	 90.4511
| 15> H 	 -13.2137 	 -12.7119 	 88.9398
| 16> C 	 -13.5611 	 -14.363 	 90.3415
| 17> H 	 -14.2958 	 -14.5425 	 91.1633
| 18> H 	 -13.6971 	 -15.0372 	 89.4893
| 19> C 	 -12.1499 	 -14.6353 	 90.8262
| 20> H 	 -11.7809 	 -13.8376 	 91.463
| 21> H 	 -12.2223 	 -15.4454 	 91.5246
| 22> H 	 -11.4294 	 -14.7847 	 89.9933
| 23> S 	 -19.5047 	 -12.8406 	 91.2581
| 24> C 	 -20.7647 	 -11.756 	 91.6011
| 25> C 	 -20.5868 	 -10.5137 	 90.9803
| 26> C 	 -19.4538 	 -10.4949 	 90.1412
| 27> C 	 -18.6571 	 -11.609 	 90.3157
| 28> H 	 -21.3671 	 -9.77674 	 91.0967
| 29> C 	 -19.3143 	 -9.38769 	 89.1596
| 30> H 	 -20.2333 	 -9.54795 	 88.5915
| 31> H 	 -18.5593 	 -9.56273 	 88.4681
| 32> C 	 -19.3259 	 -7.96457 	 89.7242
| 33> H 	 -18.3741 	 -7.83982 	 90.3516
| 34> H 	 -20.14 	 -7.81012 	 90.4191
| 35> C 	 -19.359 	 -7.03154 	 88.4903
| 36> H 	 -19.3232 	 -5.99199 	 88.7771
| 37> H 	 -20.3175 	 -7.19861 	 87.9401
| 38> H 	 -18.5539 	 -7.1799 	 87.7758
| 39> H 	 -14.7846 	 -12.5477 	 87.2029
| 40> H 	 -21.6084 	 -12.0081 	 92.2477
| 41> *
| 42>
| 43>                          ****END OF INPUT****

CARTESIAN COORDINATES (ANGSTROEM)
---------------------------------
  S    -17.188800  -11.828000   87.917800
  C    -15.537900  -12.397200   88.071500
  C    -15.117700  -12.418500   89.393000
  C    -16.230600  -12.296800   90.306500
  C    -17.407200  -11.926200   89.684300
  H    -16.274700  -12.327500   91.382100
  C    -13.770700  -12.879100   89.784200
  H    -13.364700  -12.112900   90.451100
  H    -13.213700  -12.711900   88.939800
  C    -13.561100  -14.363000   90.341500
  H    -14.295800  -14.542500   91.163300
  H    -13.697100  -15.037200   89.489300
  C    -12.149900  -14.635300   90.826200
  H    -11.780900  -13.837600   91.463000
  H    -12.222300  -15.445400   91.524600
  H    -11.429400  -14.784700   89.993300
  S    -19.504700  -12.840600   91.258100
  C    -20.764700  -11.756000   91.601100
  C    -20.586800  -10.513700   90.980300
  C    -19.453800  -10.494900   90.141200
  C    -18.657100  -11.609000   90.315700
  H    -21.367100   -9.776740   91.096700
  C    -19.314300   -9.387690   89.159600
  H    -20.233300   -9.547950   88.591500
  H    -18.559300   -9.562730   88.468100
  C    -19.325900   -7.964570   89.724200
  H    -18.374100   -7.839820   90.351600
  H    -20.140000   -7.810120   90.419100
  C    -19.359000   -7.031540   88.490300
  H    -19.323200   -5.991990   88.777100
  H    -20.317500   -7.198610   87.940100
  H    -18.553900   -7.179900   87.775800
  H    -14.784600  -12.547700   87.202900
  H    -21.608400  -12.008100   92.247700

 Total Charge           Charge          ....    0
 Multiplicity           Mult            ....    1
 Number of Electrons    NEL             ....  134
 Basis Dimension        Dim             ....  322

ORBITAL ENERGIES
----------------

  NO   OCC          E(Eh)            E(eV)
   0   2.0000     -88.965312     -2420.8692
   1   2.0000     -88.965267     -2420.8680
   2   2.0000     -10.326079      -280.9869
   3   2.0000     -10.319399      -280.8051
   4   2.0000     -10.319371      -280.8044
   5   2.0000     -10.315133      -280.6890
   6   2.0000     -10.299018      -280.2505
   7   2.0000     -10.297299      -280.2038
   8   2.0000     -10.293192      -280.0920
   9   2.0000     -10.292493      -280.0730
  10   2.0000     -10.292102      -280.0623
  11   2.0000     -10.289757      -279.9985
  12   2.0000     -10.281991      -279.7872
  13   2.0000     -10.281106      -279.7631
  14   2.0000     -10.279488      -279.7191
  15   2.0000     -10.276994      -279.6512
  16   2.0000      -8.080618      -219.8848
  17   2.0000      -8.079073      -219.8427
  18   2.0000      -6.039002      -164.3296
  19   2.0000      -6.037671      -164.2934
  20   2.0000      -6.035049      -164.2220
  21   2.0000      -6.033772      -164.1873
  22   2.0000      -6.031475      -164.1248
  23   2.0000      -6.029748      -164.0778
  24   2.0000      -1.007031       -27.4027
  25   2.0000      -0.982526       -26.7359
  26   2.0000      -0.914837       -24.8940
  27   2.0000      -0.907530       -24.6952
  28   2.0000      -0.869437       -23.6586
  29   2.0000      -0.853162       -23.2157
  30   2.0000      -0.848328       -23.0842
  31   2.0000      -0.813256       -22.1298
  32   2.0000      -0.782260       -21.2864
  33   2.0000      -0.765453       -20.8290
  34   2.0000      -0.708178       -19.2705
  35   2.0000      -0.702752       -19.1229
  36   2.0000      -0.689821       -18.7710
  37   2.0000      -0.661959       -18.0128
  38   2.0000      -0.634669       -17.2702
  39   2.0000      -0.616759       -16.7829
  40   2.0000      -0.600356       -16.3365
  41   2.0000      -0.564991       -15.3742
  42   2.0000      -0.562776       -15.3139
  43   2.0000      -0.558364       -15.1939
  44   2.0000      -0.528131       -14.3712
  45   2.0000      -0.524639       -14.2761
  46   2.0000      -0.516673       -14.0594
  47   2.0000      -0.509618       -13.8674
  48   2.0000      -0.503665       -13.7054
  49   2.0000      -0.497421       -13.5355
  50   2.0000      -0.484048       -13.1716
  51   2.0000      -0.478261       -13.0141
  52   2.0000      -0.468990       -12.7619
  53   2.0000      -0.464834       -12.6488
  54   2.0000      -0.457639       -12.4530
  55   2.0000      -0.450657       -12.2630
  56   2.0000      -0.444704       -12.1010
  57   2.0000      -0.443313       -12.0632
  58   2.0000      -0.430319       -11.7096
  59   2.0000      -0.426351       -11.6016
  60   2.0000      -0.423081       -11.5126
  61   2.0000      -0.420094       -11.4313
  62   2.0000      -0.414042       -11.2667
  63   2.0000      -0.342785        -9.3276
  64   2.0000      -0.329803        -8.9744
  65   2.0000      -0.324989        -8.8434
  66   2.0000      -0.288969        -7.8632
  67   0.0000       0.036307         0.9880
  68   0.0000       0.067697         1.8421
  69   0.0000       0.106940         2.9100
  70   0.0000       0.111511         3.0344
  71   0.0000       0.132098         3.5946

MULLIKEN ATOMIC CHARGES
-----------------------
   0 S :    0.104430
   1 C :   -0.148858
   2 C :   -0.098554
   3 C :    0.022357
   4 C :   -0.155138
   5 H :    0.009765
   6 C :    0.104234
   7 H :    0.019746
   8 H :   -0.022387
   9 C :   -0.074910
  10 H :    0.042322
  11 H :    0.036696
  12 C :   -0.036942
  13 H :    0.019424
  14 H :    0.029011
  15 H :    0.045609
  16 S :    0.124990
  17 C :   -0.104540
  18 C :   -0.051057
  19 C :   -0.011730
  20 C :   -0.169726
  21 H :    0.017198
  22 C :    0.088466
  23 H :    0.031518
  24 H :   -0.011595
  25 C :   -0.089557
  26 H :    0.045947
  27 H :    0.031353
  28 C :   -0.036936
  29 H :    0.030440
  30 H :    0.031008
  31 H :    0.035173
  32 H :    0.079512
  33 H :    0.062733
Sum of atomic charges:    0.0000000

LOEWDIN ATOMIC CHARGES
----------------------
   0 S :    0.391374
   1 C :   -0.210555
   2 C :   -0.066637
   3 C :   -0.058499
   4 C :   -0.178794
   5 H :    0.030723
   6 C :   -0.037215
   7 H :    0.032447
   8 H :    0.015220
   9 C :   -0.032880
  10 H :    0.028985
  11 H :    0.028731
  12 C :   -0.068233
  13 H :    0.022203
  14 H :    0.027187
  15 H :    0.030758
  16 S :    0.424906
  17 C :   -0.199449
  18 C :   -0.075946
  19 C :   -0.050378
  20 C :   -0.209485
  21 H :    0.029189
  22 C :   -0.030995
  23 H :    0.039621
  24 H :    0.006486
  25 C :   -0.035773
  26 H :    0.034192
  27 H :    0.020525
  28 C :   -0.065292
  29 H :    0.022098
  30 H :    0.029858
  31 H :    0.026811
  32 H :    0.047671
  33 H :    0.031146

  Mayer bond orders larger than 0.100000
B(  0-S ,  1-C ) :   1.1322 B(  0-S ,  4-C ) :   1.1197 B(  1-C ,  2-C ) :   1.6262
B(  1-C , 32-H ) :   0.9505 B(  2-C ,  3-C ) :   1.1897 B(  2-C ,  6-C ) :   1.0576
B(  3-C ,  4-C ) :   1.6095 B(  3-C ,  5-H ) :   0.9953 B(  4-C , 20-C ) :   1.0628
B(  6-C ,  7-H ) :   0.9246 B(  6-C ,  8-H ) :   0.9247 B(  6-C ,  9-C ) :   1.0447
B(  9-C , 10-H ) :   0.9608 B(  9-C , 11-H ) :   0.9571 B(  9-C , 12-C ) :   1.0822
B( 12-C , 13-H ) :   0.9733 B( 12-C , 14-H ) :   0.9721 B( 12-C , 15-H ) :   0.9764
B( 16-S , 17-C ) :   1.1825 B( 16-S , 20-C ) :   1.1324 B( 17-C , 18-C ) :   1.5868
B( 17-C , 33-H ) :   0.9647 B( 18-C , 19-C ) :   1.2441 B( 18-C , 21-H ) :   0.9939
B( 19-C , 20-C ) :   1.5676 B( 19-C , 22-C ) :   1.0310 B( 22-C , 23-H ) :   0.9298
B( 22-C , 24-H ) :   0.9278 B( 22-C , 25-C ) :   1.0561 B( 25-C , 26-H ) :   0.9545
B( 25-C , 27-H ) :   0.9567 B( 25-C , 28-C ) :   1.0765 B( 28-C , 29-H ) :   0.9744
B( 28-C , 30-H ) :   0.9739 B( 28-C , 31-H ) :   0.9746

Dispersion correction           -0.013573925
FINAL SINGLE POINT ENERGY     -1339.873793754038

DIPOLE MOMENT
-------------
                                X             Y             Z
Electronic contribution:    -13.96706      -8.20092      -0.28897
Nuclear contribution   :     14.11700       8.43650       0.38216
                        -----------------------------------------
Total Dipole Moment    :      0.14994       0.23558       0.09319
                        -----------------------------------------
Magnitude (a.u.)       :      0.29439
Magnitude (Debye)      :      0.74827

Rotational constants in cm-1:     0.021167     0.007325     0.006064
Rotational constants in MHz :   634.556631   219.584092   181.799342

                             ****ORCA TERMINATED NORMALLY****
TOTAL RUN TIME: 0 days 0 hours 0 minutes 30 seconds 671 msec
