                         Program Version 4.2.1 -  RELEASE  -
|  1> ! wB97X-D3 SP def2-SVP
|  2> %pal
|  3> nprocs 16
|  4> end
|  5>
|  6> * xyz 0 1
|  7> S 	 14.0824 	 26.8971 	 66.6282
|  8> C 	 14.3433 	 27.8319 	 65.1287
|  9> C 	 15.0233 	 29.0279 	 65.4541
| 10> C 	 15.3703 	 29.0978 	 66.8542
| 11> C 	 15.1588 	 27.9191 	 67.5591
| 12> H 	 15.9863 	 29.9125 	 67.257
| 13> C 	 15.2427 	 30.1442 	 64.4622
| 14> H 	 15.4405 	 31.0648 	 65.0688
| 15> H 	 14.3225 	 30.2653 	 63.9333
| 16> C 	 16.4513 	 29.8583 	 63.4661
| 17> H 	 17.4112 	 29.8025 	 63.9841
| 18> H 	 16.2397 	 28.8529 	 63.0329
| 19> C 	 16.6183 	 30.855 	 62.3302
| 20> H 	 16.1681 	 31.7841 	 62.5876
| 21> H 	 17.631 	 30.8975 	 61.9448
| 22> H 	 16.0038 	 30.526 	 61.4598
| 23> S 	 14.3308 	 27.3852 	 70.1058
| 24> C 	 15.516 	 27.1191 	 71.3824
| 25> C 	 16.7938 	 27.5296 	 70.9711
| 26> C 	 16.8641 	 27.9101 	 69.5352
| 27> C 	 15.5967 	 27.7532 	 68.9226
| 28> H 	 17.5173 	 27.5662 	 71.7813
| 29> C 	 18.0608 	 28.532 	 68.8663
| 30> H 	 18.1204 	 28.7173 	 67.7751
| 31> H 	 18.7592 	 27.756 	 68.8278
| 32> C 	 18.6914 	 29.7358 	 69.563
| 33> H 	 19.6433 	 29.8723 	 69.0804
| 34> H 	 18.8282 	 29.6384 	 70.6189
| 35> C 	 17.8422 	 30.9605 	 69.4545
| 36> H 	 16.8312 	 30.9172 	 69.8946
| 37> H 	 17.6992 	 31.1514 	 68.414
| 38> H 	 18.3937 	 31.7738 	 69.8944
| 39> H 	 14.0581 	 27.5479 	 64.1415
| 40> H 	 15.2706 	 26.6681 	 72.3506
| 41> *
| 42>
| 43>                          ****END OF INPUT****

CARTESIAN COORDINATES (ANGSTROEM)
---------------------------------
  S     14.082400   26.897100   66.628200
  C     14.343300   27.831900   65.128700
  C     15.023300   29.027900   65.454100
  C     15.370300   29.097800   66.854200
  C     15.158800   27.919100   67.559100
  H     15.986300   29.912500   67.257000
  C     15.242700   30.144200   64.462200
  H     15.440500   31.064800   65.068800
  H     14.322500   30.265300   63.933300
  C     16.451300   29.858300   63.466100
  H     17.411200   29.802500   63.984100
  H     16.239700   28.852900   63.032900
  C     16.618300   30.855000   62.330200
  H     16.168100   31.784100   62.587600
  H     17.631000   30.897500   61.944800
  H     16.003800   30.526000   61.459800
  S     14.330800   27.385200   70.105800
  C     15.516000   27.119100   71.382400
  C     16.793800   27.529600   70.971100
  C     16.864100   27.910100   69.535200
  C     15.596700   27.753200   68.922600
  H     17.517300   27.566200   71.781300
  C     18.060800   28.532000   68.866300
  H     18.120400   28.717300   67.775100
  H     18.759200   27.756000   68.827800
  C     18.691400   29.735800   69.563000
  H     19.643300   29.872300   69.080400
  H     18.828200   29.638400   70.618900
  C     17.842200   30.960500   69.454500
  H     16.831200   30.917200   69.894600
  H     17.699200   31.151400   68.414000
  H     18.393700   31.773800   69.894400
  H     14.058100   27.547900   64.141500
  H     15.270600   26.668100   72.350600

 Total Charge           Charge          ....    0
 Multiplicity           Mult            ....    1
 Number of Electrons    NEL             ....  134
 Basis Dimension        Dim             ....  322

ORBITAL ENERGIES
----------------

  NO   OCC          E(Eh)            E(eV)
   0   2.0000     -88.967904     -2420.9397
   1   2.0000     -88.962552     -2420.7941
   2   2.0000     -10.330329      -281.1026
   3   2.0000     -10.329475      -281.0793
   4   2.0000     -10.322433      -280.8877
   5   2.0000     -10.317994      -280.7669
   6   2.0000     -10.317865      -280.7634
   7   2.0000     -10.305066      -280.4151
   8   2.0000     -10.304456      -280.3985
   9   2.0000     -10.297453      -280.2079
  10   2.0000     -10.295226      -280.1473
  11   2.0000     -10.292335      -280.0687
  12   2.0000     -10.287824      -279.9459
  13   2.0000     -10.281135      -279.7639
  14   2.0000     -10.276741      -279.6443
  15   2.0000     -10.269738      -279.4538
  16   2.0000      -8.081657      -219.9131
  17   2.0000      -8.077020      -219.7869
  18   2.0000      -6.040321      -164.3655
  19   2.0000      -6.036290      -164.2558
  20   2.0000      -6.035628      -164.2378
  21   2.0000      -6.032298      -164.1472
  22   2.0000      -6.031603      -164.1283
  23   2.0000      -6.027652      -164.0207
  24   2.0000      -0.999158       -27.1885
  25   2.0000      -0.973696       -26.4956
  26   2.0000      -0.917276       -24.9604
  27   2.0000      -0.906399       -24.6644
  28   2.0000      -0.867651       -23.6100
  29   2.0000      -0.850979       -23.1563
  30   2.0000      -0.844128       -22.9699
  31   2.0000      -0.812495       -22.1091
  32   2.0000      -0.784958       -21.3598
  33   2.0000      -0.770574       -20.9684
  34   2.0000      -0.707611       -19.2551
  35   2.0000      -0.700527       -19.0623
  36   2.0000      -0.693702       -18.8766
  37   2.0000      -0.652609       -17.7584
  38   2.0000      -0.635957       -17.3053
  39   2.0000      -0.621545       -16.9131
  40   2.0000      -0.602466       -16.3939
  41   2.0000      -0.565589       -15.3905
  42   2.0000      -0.560269       -15.2457
  43   2.0000      -0.555638       -15.1197
  44   2.0000      -0.543087       -14.7782
  45   2.0000      -0.533604       -14.5201
  46   2.0000      -0.522344       -14.2137
  47   2.0000      -0.509285       -13.8583
  48   2.0000      -0.502694       -13.6790
  49   2.0000      -0.501166       -13.6374
  50   2.0000      -0.494025       -13.4431
  51   2.0000      -0.478191       -13.0122
  52   2.0000      -0.471634       -12.8338
  53   2.0000      -0.463057       -12.6004
  54   2.0000      -0.460146       -12.5212
  55   2.0000      -0.443605       -12.0711
  56   2.0000      -0.442931       -12.0528
  57   2.0000      -0.437535       -11.9059
  58   2.0000      -0.434771       -11.8307
  59   2.0000      -0.422778       -11.5044
  60   2.0000      -0.418294       -11.3824
  61   2.0000      -0.414222       -11.2716
  62   2.0000      -0.411132       -11.1875
  63   2.0000      -0.340546        -9.2667
  64   2.0000      -0.325975        -8.8702
  65   2.0000      -0.324656        -8.8343
  66   2.0000      -0.289377        -7.8743
  67   0.0000       0.022244         0.6053
  68   0.0000       0.064523         1.7558
  69   0.0000       0.099841         2.7168
  70   0.0000       0.115677         3.1477
  71   0.0000       0.132019         3.5924

MULLIKEN ATOMIC CHARGES
-----------------------
   0 S :    0.116896
   1 C :   -0.111968
   2 C :   -0.106217
   3 C :    0.039596
   4 C :   -0.136832
   5 H :    0.007105
   6 C :    0.058403
   7 H :    0.031488
   8 H :    0.031215
   9 C :   -0.101711
  10 H :    0.033086
  11 H :    0.030554
  12 C :   -0.021776
  13 H :    0.023430
  14 H :    0.040662
  15 H :    0.024424
  16 S :    0.094818
  17 C :   -0.115271
  18 C :   -0.044599
  19 C :   -0.000902
  20 C :   -0.170984
  21 H :    0.028862
  22 C :    0.058909
  23 H :    0.028284
  24 H :    0.007988
  25 C :   -0.055661
  26 H :    0.023758
  27 H :    0.022346
  28 C :   -0.039820
  29 H :    0.049610
  30 H :    0.013163
  31 H :    0.028771
  32 H :    0.041713
  33 H :    0.070660
Sum of atomic charges:    0.0000000

LOEWDIN ATOMIC CHARGES
----------------------
   0 S :    0.396906
   1 C :   -0.186624
   2 C :   -0.059607
   3 C :   -0.060906
   4 C :   -0.200727
   5 H :    0.030121
   6 C :   -0.031539
   7 H :    0.034055
   8 H :    0.028184
   9 C :   -0.041236
  10 H :    0.024163
  11 H :    0.025188
  12 C :   -0.069852
  13 H :    0.020576
  14 H :    0.028779
  15 H :    0.029530
  16 S :    0.384919
  17 C :   -0.185119
  18 C :   -0.071706
  19 C :   -0.043678
  20 C :   -0.188186
  21 H :    0.033371
  22 C :   -0.044203
  23 H :    0.040590
  24 H :    0.027894
  25 C :   -0.032576
  26 H :    0.026221
  27 H :    0.019512
  28 C :   -0.063046
  29 H :    0.032196
  30 H :    0.013711
  31 H :    0.025572
  32 H :    0.023411
  33 H :    0.034106

  Mayer bond orders larger than 0.100000
B(  0-S ,  1-C ) :   1.1329 B(  0-S ,  4-C ) :   1.1466 B(  1-C ,  2-C ) :   1.5824
B(  1-C ,  4-C ) :   0.1021 B(  1-C , 32-H ) :   0.9748 B(  2-C ,  3-C ) :   1.2647
B(  2-C ,  6-C ) :   1.0239 B(  3-C ,  4-C ) :   1.5383 B(  3-C ,  5-H ) :   0.9819
B(  4-C , 20-C ) :   1.0772 B(  6-C ,  7-H ) :   0.9406 B(  6-C ,  8-H ) :   0.9447
B(  6-C ,  9-C ) :   1.0545 B(  9-C , 10-H ) :   0.9623 B(  9-C , 11-H ) :   0.9638
B(  9-C , 12-C ) :   1.0728 B( 12-C , 13-H ) :   0.9742 B( 12-C , 14-H ) :   0.9763
B( 12-C , 15-H ) :   0.9745 B( 16-S , 17-C ) :   1.1432 B( 16-S , 20-C ) :   1.1369
B( 17-C , 18-C ) :   1.6334 B( 17-C , 33-H ) :   0.9663 B( 18-C , 19-C ) :   1.1942
B( 18-C , 21-H ) :   0.9883 B( 19-C , 20-C ) :   1.5932 B( 19-C , 22-C ) :   1.0341
B( 22-C , 23-H ) :   0.9356 B( 22-C , 24-H ) :   0.9120 B( 22-C , 25-C ) :   1.0883
B( 25-C , 26-H ) :   0.9477 B( 25-C , 27-H ) :   0.9561 B( 25-C , 28-C ) :   1.0844
B( 28-C , 29-H ) :   0.9740 B( 28-C , 30-H ) :   0.9657 B( 28-C , 31-H ) :   0.9690

Dispersion correction           -0.014604073
FINAL SINGLE POINT ENERGY     -1339.857105201208

DIPOLE MOMENT
-------------
                                X             Y             Z
Electronic contribution:    -18.54585     -20.11243      14.01557
Nuclear contribution   :     19.15701      20.57741     -14.21327
                        -----------------------------------------
Total Dipole Moment    :      0.61116       0.46498      -0.19769
                        -----------------------------------------
Magnitude (a.u.)       :      0.79297
Magnitude (Debye)      :      2.01558

Rotational constants in cm-1:     0.019563     0.008641     0.006418
Rotational constants in MHz :   586.475513   259.045004   192.401764

                             ****ORCA TERMINATED NORMALLY****
TOTAL RUN TIME: 0 days 0 hours 0 minutes 33 seconds 96 msec
