                         Program Version 4.2.1 -  RELEASE  -
|  1> ! wB97X-D3 SP def2-SVP
|  2> %pal
|  3> nprocs 16
|  4> end
|  5>
|  6> * xyz 0 1
|  7> S 	 12.1674 	 -9.52235 	 69.8979
|  8> C 	 12.5758 	 -7.87977 	 70.356
|  9> C 	 11.447 	 -7.00403 	 70.23
| 10> C 	 10.2834 	 -7.69961 	 69.7898
| 11> C 	 10.5178 	 -9.03093 	 69.5011
| 12> H 	 9.38002 	 -7.17929 	 69.7421
| 13> C 	 11.5624 	 -5.54206 	 70.6866
| 14> H 	 12.608 	 -5.39098 	 71.0707
| 15> H 	 10.8333 	 -5.41094 	 71.5251
| 16> C 	 11.3682 	 -4.50448 	 69.5828
| 17> H 	 10.4222 	 -4.70917 	 69.0474
| 18> H 	 11.2507 	 -3.54557 	 69.9486
| 19> C 	 12.4852 	 -4.51761 	 68.5455
| 20> H 	 12.5933 	 -5.30726 	 67.8381
| 21> H 	 12.3371 	 -3.65825 	 67.872
| 22> H 	 13.4181 	 -4.29679 	 68.9932
| 23> S 	 10.0451 	 -11.3139 	 68.1419
| 24> C 	 8.54611 	 -12.2641 	 68.26
| 25> C 	 7.67899 	 -11.5324 	 69.1101
| 26> C 	 8.29815 	 -10.4093 	 69.7727
| 27> C 	 9.46582 	 -10.0216 	 69.1017
| 28> H 	 6.70615 	 -11.8908 	 69.3551
| 29> C 	 7.71728 	 -9.77069 	 71.0049
| 30> H 	 6.67246 	 -9.93799 	 70.9476
| 31> H 	 7.71965 	 -8.73596 	 70.7435
| 32> C 	 8.26461 	 -10.0782 	 72.4737
| 33> H 	 9.386 	 -10.0101 	 72.4701
| 34> H 	 8.04685 	 -11.0085 	 72.8679
| 35> C 	 7.7378 	 -8.98256 	 73.3803
| 36> H 	 6.61132 	 -9.01288 	 73.591
| 37> H 	 8.0059 	 -8.01115 	 72.9649
| 38> H 	 8.27925 	 -9.11483 	 74.3397
| 39> H 	 13.5274 	 -7.40546 	 70.5965
| 40> H 	 8.36646 	 -13.1775 	 67.8199
| 41> *
| 42>
| 43>                          ****END OF INPUT****

CARTESIAN COORDINATES (ANGSTROEM)
---------------------------------
  S     12.167400   -9.522350   69.897900
  C     12.575800   -7.879770   70.356000
  C     11.447000   -7.004030   70.230000
  C     10.283400   -7.699610   69.789800
  C     10.517800   -9.030930   69.501100
  H      9.380020   -7.179290   69.742100
  C     11.562400   -5.542060   70.686600
  H     12.608000   -5.390980   71.070700
  H     10.833300   -5.410940   71.525100
  C     11.368200   -4.504480   69.582800
  H     10.422200   -4.709170   69.047400
  H     11.250700   -3.545570   69.948600
  C     12.485200   -4.517610   68.545500
  H     12.593300   -5.307260   67.838100
  H     12.337100   -3.658250   67.872000
  H     13.418100   -4.296790   68.993200
  S     10.045100  -11.313900   68.141900
  C      8.546110  -12.264100   68.260000
  C      7.678990  -11.532400   69.110100
  C      8.298150  -10.409300   69.772700
  C      9.465820  -10.021600   69.101700
  H      6.706150  -11.890800   69.355100
  C      7.717280   -9.770690   71.004900
  H      6.672460   -9.937990   70.947600
  H      7.719650   -8.735960   70.743500
  C      8.264610  -10.078200   72.473700
  H      9.386000  -10.010100   72.470100
  H      8.046850  -11.008500   72.867900
  C      7.737800   -8.982560   73.380300
  H      6.611320   -9.012880   73.591000
  H      8.005900   -8.011150   72.964900
  H      8.279250   -9.114830   74.339700
  H     13.527400   -7.405460   70.596500
  H      8.366460  -13.177500   67.819900

 Total Charge           Charge          ....    0
 Multiplicity           Mult            ....    1
 Number of Electrons    NEL             ....  134
 Basis Dimension        Dim             ....  322

ORBITAL ENERGIES
----------------

  NO   OCC          E(Eh)            E(eV)
   0   2.0000     -88.972821     -2421.0735
   1   2.0000     -88.963881     -2420.8303
   2   2.0000     -10.334518      -281.2165
   3   2.0000     -10.325110      -280.9605
   4   2.0000     -10.320408      -280.8326
   5   2.0000     -10.315880      -280.7094
   6   2.0000     -10.305179      -280.4182
   7   2.0000     -10.302894      -280.3560
   8   2.0000     -10.300331      -280.2863
   9   2.0000     -10.297610      -280.2122
  10   2.0000     -10.291547      -280.0472
  11   2.0000     -10.289441      -279.9899
  12   2.0000     -10.287690      -279.9423
  13   2.0000     -10.283523      -279.8289
  14   2.0000     -10.282967      -279.8138
  15   2.0000     -10.269565      -279.4491
  16   2.0000      -8.086329      -220.0402
  17   2.0000      -8.078767      -219.8344
  18   2.0000      -6.044913      -164.4904
  19   2.0000      -6.040966      -164.3830
  20   2.0000      -6.037277      -164.2826
  21   2.0000      -6.037113      -164.2782
  22   2.0000      -6.033138      -164.1700
  23   2.0000      -6.029619      -164.0743
  24   2.0000      -1.003438       -27.3049
  25   2.0000      -0.978542       -26.6275
  26   2.0000      -0.911116       -24.7927
  27   2.0000      -0.905035       -24.6273
  28   2.0000      -0.862634       -23.4735
  29   2.0000      -0.854409       -23.2497
  30   2.0000      -0.846978       -23.0475
  31   2.0000      -0.815142       -22.1811
  32   2.0000      -0.778415       -21.1817
  33   2.0000      -0.768315       -20.9069
  34   2.0000      -0.708691       -19.2845
  35   2.0000      -0.702279       -19.1100
  36   2.0000      -0.693505       -18.8712
  37   2.0000      -0.666123       -18.1261
  38   2.0000      -0.633719       -17.2444
  39   2.0000      -0.625691       -17.0259
  40   2.0000      -0.592884       -16.1332
  41   2.0000      -0.566089       -15.4041
  42   2.0000      -0.561419       -15.2770
  43   2.0000      -0.552312       -15.0292
  44   2.0000      -0.547852       -14.9078
  45   2.0000      -0.527156       -14.3446
  46   2.0000      -0.516580       -14.0568
  47   2.0000      -0.514087       -13.9890
  48   2.0000      -0.498293       -13.5592
  49   2.0000      -0.496322       -13.5056
  50   2.0000      -0.485560       -13.2128
  51   2.0000      -0.481735       -13.1087
  52   2.0000      -0.464558       -12.6413
  53   2.0000      -0.462692       -12.5905
  54   2.0000      -0.459955       -12.5160
  55   2.0000      -0.452257       -12.3065
  56   2.0000      -0.446062       -12.1380
  57   2.0000      -0.439240       -11.9523
  58   2.0000      -0.431962       -11.7543
  59   2.0000      -0.423310       -11.5188
  60   2.0000      -0.421147       -11.4600
  61   2.0000      -0.414511       -11.2794
  62   2.0000      -0.412591       -11.2272
  63   2.0000      -0.344971        -9.3871
  64   2.0000      -0.332355        -9.0438
  65   2.0000      -0.324352        -8.8261
  66   2.0000      -0.287824        -7.8321
  67   0.0000       0.025221         0.6863
  68   0.0000       0.067025         1.8238
  69   0.0000       0.107002         2.9117
  70   0.0000       0.114355         3.1118
  71   0.0000       0.124019         3.3747

MULLIKEN ATOMIC CHARGES
-----------------------
   0 S :    0.128950
   1 C :   -0.115620
   2 C :   -0.127902
   3 C :    0.043157
   4 C :   -0.114747
   5 H :   -0.008448
   6 C :    0.039455
   7 H :    0.020185
   8 H :    0.045756
   9 C :   -0.028225
  10 H :    0.023107
  11 H :    0.012488
  12 C :   -0.041549
  13 H :    0.040789
  14 H :    0.018907
  15 H :    0.011085
  16 S :    0.083530
  17 C :   -0.068021
  18 C :   -0.000222
  19 C :   -0.103453
  20 C :   -0.125948
  21 H :    0.009258
  22 C :    0.095773
  23 H :   -0.003695
  24 H :    0.001537
  25 C :   -0.013283
  26 H :    0.044282
  27 H :    0.017830
  28 C :   -0.083128
  29 H :    0.046428
  30 H :    0.030604
  31 H :    0.037705
  32 H :    0.047483
  33 H :    0.035932
Sum of atomic charges:   -0.0000000

LOEWDIN ATOMIC CHARGES
----------------------
   0 S :    0.406630
   1 C :   -0.212098
   2 C :   -0.057380
   3 C :   -0.061010
   4 C :   -0.186562
   5 H :    0.021846
   6 C :   -0.033204
   7 H :    0.031297
   8 H :    0.035849
   9 C :   -0.037848
  10 H :    0.026048
  11 H :    0.015700
  12 C :   -0.063810
  13 H :    0.025153
  14 H :    0.030732
  15 H :    0.016532
  16 S :    0.413214
  17 C :   -0.166072
  18 C :   -0.061419
  19 C :   -0.054331
  20 C :   -0.214580
  21 H :    0.023007
  22 C :   -0.035529
  23 H :    0.025593
  24 H :    0.029079
  25 C :   -0.024340
  26 H :    0.035154
  27 H :    0.013807
  28 C :   -0.069208
  29 H :    0.031227
  30 H :    0.022274
  31 H :    0.029546
  32 H :    0.029971
  33 H :    0.014730

  Mayer bond orders larger than 0.100000
B(  0-S ,  1-C ) :   1.1369 B(  0-S ,  4-C ) :   1.1477 B(  1-C ,  2-C ) :   1.5930
B(  1-C , 32-H ) :   0.9600 B(  2-C ,  3-C ) :   1.2703 B(  2-C ,  6-C ) :   1.0201
B(  3-C ,  4-C ) :   1.5565 B(  3-C ,  5-H ) :   1.0037 B(  4-C , 20-C ) :   1.0280
B(  6-C ,  7-H ) :   0.9451 B(  6-C ,  8-H ) :   0.9421 B(  6-C ,  9-C ) :   1.0711
B(  9-C , 10-H ) :   0.9542 B(  9-C , 11-H ) :   0.9545 B(  9-C , 12-C ) :   1.0771
B( 12-C , 13-H ) :   0.9774 B( 12-C , 14-H ) :   0.9694 B( 12-C , 15-H ) :   0.9739
B( 16-S , 17-C ) :   1.1633 B( 16-S , 20-C ) :   1.1467 B( 17-C , 18-C ) :   1.5657
B( 17-C , 20-C ) :   0.1013 B( 17-C , 33-H ) :   0.9848 B( 18-C , 19-C ) :   1.2745
B( 18-C , 21-H ) :   0.9873 B( 19-C , 20-C ) :   1.5456 B( 19-C , 22-C ) :   1.0395
B( 22-C , 23-H ) :   0.9207 B( 22-C , 24-H ) :   0.9358 B( 22-C , 25-C ) :   1.0348
B( 25-C , 26-H ) :   0.9574 B( 25-C , 27-H ) :   0.9582 B( 25-C , 28-C ) :   1.0784
B( 28-C , 29-H ) :   0.9750 B( 28-C , 30-H ) :   0.9768 B( 28-C , 31-H ) :   0.9728

Dispersion correction           -0.014543676
FINAL SINGLE POINT ENERGY     -1339.854588162124

DIPOLE MOMENT
-------------
                                X             Y             Z
Electronic contribution:      6.14906     -21.43563     -12.59420
Nuclear contribution   :     -6.51400      21.79578      13.04423
                        -----------------------------------------
Total Dipole Moment    :     -0.36494       0.36015       0.45003
                        -----------------------------------------
Magnitude (a.u.)       :      0.68222
Magnitude (Debye)      :      1.73406

Rotational constants in cm-1:     0.018912     0.008745     0.007080
Rotational constants in MHz :   566.979037   262.162138   212.245746

                             ****ORCA TERMINATED NORMALLY****
TOTAL RUN TIME: 0 days 0 hours 0 minutes 35 seconds 512 msec
