                         Program Version 4.2.1 -  RELEASE  -
|  1> ! wB97X-D3 SP def2-SVP
|  2> %pal
|  3> nprocs 16
|  4> end
|  5>
|  6> * xyz 0 1
|  7> S 	 48.5922 	 25.0808 	 44.7463
|  8> C 	 50.3167 	 25.0045 	 44.7424
|  9> C 	 50.8141 	 25.9072 	 45.6813
| 10> C 	 49.8451 	 26.317 	 46.6358
| 11> C 	 48.6006 	 25.8574 	 46.3437
| 12> H 	 50.0338 	 26.8916 	 47.5589
| 13> C 	 52.244 	 26.3571 	 45.6907
| 14> H 	 52.7223 	 25.7556 	 46.3971
| 15> H 	 52.2737 	 27.3179 	 46.2899
| 16> C 	 53.0415 	 26.6105 	 44.3591
| 17> H 	 53.2509 	 25.7383 	 43.7753
| 18> H 	 52.5141 	 27.2988 	 43.6936
| 19> C 	 54.2816 	 27.3865 	 44.7274
| 20> H 	 54.0119 	 28.2311 	 45.3995
| 21> H 	 54.9126 	 26.7357 	 45.3031
| 22> H 	 54.9337 	 27.7881 	 43.9905
| 23> S 	 46.7815 	 27.7322 	 47.2059
| 24> C 	 45.4261 	 27.2245 	 48.129
| 25> C 	 45.4654 	 25.8734 	 48.3918
| 26> C 	 46.5428 	 25.2276 	 47.783
| 27> C 	 47.406 	 26.1102 	 47.0937
| 28> H 	 44.7843 	 25.4478 	 49.0602
| 29> C 	 46.622 	 23.6741 	 47.7821
| 30> H 	 47.5531 	 23.401 	 47.2175
| 31> H 	 45.8457 	 23.1571 	 47.1656
| 32> C 	 46.6002 	 23.0941 	 49.2341
| 33> H 	 45.704 	 23.3155 	 49.7659
| 34> H 	 47.4453 	 23.5587 	 49.8046
| 35> C 	 46.7595 	 21.5795 	 49.3574
| 36> H 	 47.7067 	 21.2194 	 49.0591
| 37> H 	 45.9288 	 21.0328 	 48.7704
| 38> H 	 46.6795 	 21.2102 	 50.5087
| 39> H 	 50.8683 	 24.6787 	 43.875
| 40> H 	 44.7393 	 27.8192 	 48.604
| 41> *
| 42>
| 43>                          ****END OF INPUT****

CARTESIAN COORDINATES (ANGSTROEM)
---------------------------------
  S     48.592200   25.080800   44.746300
  C     50.316700   25.004500   44.742400
  C     50.814100   25.907200   45.681300
  C     49.845100   26.317000   46.635800
  C     48.600600   25.857400   46.343700
  H     50.033800   26.891600   47.558900
  C     52.244000   26.357100   45.690700
  H     52.722300   25.755600   46.397100
  H     52.273700   27.317900   46.289900
  C     53.041500   26.610500   44.359100
  H     53.250900   25.738300   43.775300
  H     52.514100   27.298800   43.693600
  C     54.281600   27.386500   44.727400
  H     54.011900   28.231100   45.399500
  H     54.912600   26.735700   45.303100
  H     54.933700   27.788100   43.990500
  S     46.781500   27.732200   47.205900
  C     45.426100   27.224500   48.129000
  C     45.465400   25.873400   48.391800
  C     46.542800   25.227600   47.783000
  C     47.406000   26.110200   47.093700
  H     44.784300   25.447800   49.060200
  C     46.622000   23.674100   47.782100
  H     47.553100   23.401000   47.217500
  H     45.845700   23.157100   47.165600
  C     46.600200   23.094100   49.234100
  H     45.704000   23.315500   49.765900
  H     47.445300   23.558700   49.804600
  C     46.759500   21.579500   49.357400
  H     47.706700   21.219400   49.059100
  H     45.928800   21.032800   48.770400
  H     46.679500   21.210200   50.508700
  H     50.868300   24.678700   43.875000
  H     44.739300   27.819200   48.604000

 Total Charge           Charge          ....    0
 Multiplicity           Mult            ....    1
 Number of Electrons    NEL             ....  134
 Basis Dimension        Dim             ....  322

ORBITAL ENERGIES
----------------

  NO   OCC          E(Eh)            E(eV)
   0   2.0000     -88.967996     -2420.9423
   1   2.0000     -88.962281     -2420.7867
   2   2.0000     -10.325133      -280.9612
   3   2.0000     -10.323485      -280.9163
   4   2.0000     -10.309149      -280.5262
   5   2.0000     -10.308024      -280.4956
   6   2.0000     -10.303303      -280.3671
   7   2.0000     -10.300423      -280.2888
   8   2.0000     -10.298202      -280.2283
   9   2.0000     -10.294121      -280.1173
  10   2.0000     -10.292894      -280.0839
  11   2.0000     -10.291261      -280.0395
  12   2.0000     -10.289475      -279.9909
  13   2.0000     -10.287092      -279.9260
  14   2.0000     -10.283774      -279.8357
  15   2.0000     -10.274510      -279.5836
  16   2.0000      -8.083115      -219.9527
  17   2.0000      -8.077058      -219.7879
  18   2.0000      -6.041438      -164.3959
  19   2.0000      -6.037441      -164.2871
  20   2.0000      -6.035504      -164.2344
  21   2.0000      -6.034178      -164.1983
  22   2.0000      -6.031777      -164.1330
  23   2.0000      -6.027650      -164.0207
  24   2.0000      -1.009784       -27.4776
  25   2.0000      -0.988452       -26.8972
  26   2.0000      -0.912580       -24.8326
  27   2.0000      -0.899341       -24.4723
  28   2.0000      -0.874808       -23.8047
  29   2.0000      -0.854489       -23.2518
  30   2.0000      -0.847669       -23.0662
  31   2.0000      -0.817034       -22.2326
  32   2.0000      -0.776952       -21.1419
  33   2.0000      -0.763452       -20.7746
  34   2.0000      -0.715378       -19.4664
  35   2.0000      -0.702604       -19.1188
  36   2.0000      -0.693717       -18.8770
  37   2.0000      -0.659445       -17.9444
  38   2.0000      -0.641965       -17.4687
  39   2.0000      -0.614580       -16.7236
  40   2.0000      -0.597092       -16.2477
  41   2.0000      -0.574640       -15.6367
  42   2.0000      -0.567695       -15.4478
  43   2.0000      -0.559288       -15.2190
  44   2.0000      -0.526998       -14.3404
  45   2.0000      -0.526021       -14.3138
  46   2.0000      -0.515785       -14.0352
  47   2.0000      -0.512403       -13.9432
  48   2.0000      -0.504718       -13.7341
  49   2.0000      -0.497282       -13.5317
  50   2.0000      -0.485950       -13.2234
  51   2.0000      -0.476340       -12.9619
  52   2.0000      -0.471475       -12.8295
  53   2.0000      -0.464693       -12.6449
  54   2.0000      -0.456976       -12.4349
  55   2.0000      -0.455252       -12.3880
  56   2.0000      -0.443260       -12.0617
  57   2.0000      -0.435826       -11.8594
  58   2.0000      -0.423885       -11.5345
  59   2.0000      -0.422176       -11.4880
  60   2.0000      -0.421194       -11.4613
  61   2.0000      -0.419657       -11.4195
  62   2.0000      -0.415342       -11.3020
  63   2.0000      -0.339025        -9.2253
  64   2.0000      -0.335591        -9.1319
  65   2.0000      -0.317556        -8.6411
  66   2.0000      -0.300921        -8.1885
  67   0.0000       0.033375         0.9082
  68   0.0000       0.061609         1.6765
  69   0.0000       0.105821         2.8795
  70   0.0000       0.124187         3.3793
  71   0.0000       0.131784         3.5860

MULLIKEN ATOMIC CHARGES
-----------------------
   0 S :    0.109733
   1 C :   -0.112082
   2 C :   -0.092669
   3 C :    0.022653
   4 C :   -0.156632
   5 H :    0.027290
   6 C :    0.038255
   7 H :    0.023862
   8 H :    0.015872
   9 C :   -0.032429
  10 H :    0.033886
  11 H :    0.033769
  12 C :   -0.048792
  13 H :    0.028716
  14 H :    0.014757
  15 H :    0.028168
  16 S :    0.133583
  17 C :   -0.052782
  18 C :   -0.028889
  19 C :    0.007752
  20 C :   -0.195485
  21 H :   -0.001510
  22 C :    0.053479
  23 H :    0.029209
  24 H :    0.044125
  25 C :   -0.093885
  26 H :    0.029608
  27 H :    0.040072
  28 C :   -0.088845
  29 H :    0.028690
  30 H :    0.041505
  31 H :    0.044824
  32 H :    0.052603
  33 H :    0.021588
Sum of atomic charges:    0.0000000

LOEWDIN ATOMIC CHARGES
----------------------
   0 S :    0.402215
   1 C :   -0.206762
   2 C :   -0.061104
   3 C :   -0.061536
   4 C :   -0.188817
   5 H :    0.039944
   6 C :   -0.035625
   7 H :    0.027538
   8 H :    0.038355
   9 C :   -0.034726
  10 H :    0.020201
  11 H :    0.028688
  12 C :   -0.064611
  13 H :    0.028924
  14 H :    0.020052
  15 H :    0.020777
  16 S :    0.436804
  17 C :   -0.181353
  18 C :   -0.064917
  19 C :   -0.048348
  20 C :   -0.215366
  21 H :    0.022601
  22 C :   -0.035100
  23 H :    0.030841
  24 H :    0.034851
  25 C :   -0.048500
  26 H :    0.017940
  27 H :    0.031880
  28 C :   -0.075486
  29 H :    0.013099
  30 H :    0.030356
  31 H :    0.039359
  32 H :    0.024944
  33 H :    0.012884

  Mayer bond orders larger than 0.100000
B(  0-S ,  1-C ) :   1.1384 B(  0-S ,  4-C ) :   1.1403 B(  1-C ,  2-C ) :   1.6009
B(  1-C , 32-H ) :   0.9676 B(  2-C ,  3-C ) :   1.2383 B(  2-C ,  6-C ) :   1.0149
B(  3-C ,  4-C ) :   1.5850 B(  3-C ,  5-H ) :   0.9942 B(  4-C , 20-C ) :   1.0479
B(  6-C ,  7-H ) :   0.9299 B(  6-C ,  8-H ) :   0.9435 B(  6-C ,  9-C ) :   1.0436
B(  9-C , 10-H ) :   0.9532 B(  9-C , 11-H ) :   0.9614 B(  9-C , 12-C ) :   1.0816
B( 12-C , 13-H ) :   0.9743 B( 12-C , 14-H ) :   0.9743 B( 12-C , 15-H ) :   0.9741
B( 16-S , 17-C ) :   1.1767 B( 16-S , 20-C ) :   1.1596 B( 17-C , 18-C ) :   1.5805
B( 17-C , 20-C ) :   0.1055 B( 17-C , 33-H ) :   0.9730 B( 18-C , 19-C ) :   1.2793
B( 18-C , 21-H ) :   0.9991 B( 19-C , 20-C ) :   1.5451 B( 19-C , 22-C ) :   1.0383
B( 22-C , 23-H ) :   0.9336 B( 22-C , 24-H ) :   0.9445 B( 22-C , 25-C ) :   1.0440
B( 25-C , 26-H ) :   0.9574 B( 25-C , 27-H ) :   0.9561 B( 25-C , 28-C ) :   1.0873
B( 28-C , 29-H ) :   0.9765 B( 28-C , 30-H ) :   0.9706 B( 28-C , 31-H ) :   0.9738

Dispersion correction           -0.013487542
FINAL SINGLE POINT ENERGY     -1339.863016165972

DIPOLE MOMENT
-------------
                                X             Y             Z
Electronic contribution:    -15.65680      10.65962      -6.09268
Nuclear contribution   :     16.00103     -10.64586       6.33293
                        -----------------------------------------
Total Dipole Moment    :      0.34423       0.01376       0.24025
                        -----------------------------------------
Magnitude (a.u.)       :      0.42001
Magnitude (Debye)      :      1.06757

Rotational constants in cm-1:     0.021171     0.006944     0.005946
Rotational constants in MHz :   634.691952   208.183728   178.269812

                             ****ORCA TERMINATED NORMALLY****
TOTAL RUN TIME: 0 days 0 hours 0 minutes 32 seconds 939 msec
