                         Program Version 4.2.1 -  RELEASE  -
|  1> ! wB97X-D3 SP def2-SVP
|  2> %pal
|  3> nprocs 16
|  4> end
|  5>
|  6> * xyz 0 1
|  7> S 	 9.11687 	 -9.00237 	 63.9255
|  8> C 	 7.88546 	 -8.22258 	 62.9708
|  9> C 	 8.37955 	 -7.57056 	 61.8989
| 10> C 	 9.80425 	 -7.76384 	 61.7958
| 11> C 	 10.3152 	 -8.49262 	 62.8367
| 12> H 	 10.4499 	 -7.33634 	 61.0726
| 13> C 	 7.56454 	 -6.82643 	 60.9316
| 14> H 	 6.86158 	 -7.55203 	 60.5117
| 15> H 	 8.16398 	 -6.46244 	 60.1422
| 16> C 	 6.73082 	 -5.60888 	 61.4756
| 17> H 	 6.18521 	 -5.15149 	 60.5678
| 18> H 	 5.91383 	 -6.06194 	 62.0762
| 19> C 	 7.47752 	 -4.50706 	 62.2406
| 20> H 	 7.85712 	 -4.96371 	 63.1827
| 21> H 	 8.36209 	 -4.0626 	 61.8272
| 22> H 	 6.74957 	 -3.73181 	 62.6305
| 23> S 	 12.8166 	 -7.55575 	 63.6642
| 24> C 	 14.0276 	 -8.76915 	 63.9837
| 25> C 	 13.6878 	 -9.97012 	 63.417
| 26> C 	 12.33 	 -10.0228 	 62.9646
| 27> C 	 11.7056 	 -8.77878 	 63.0704
| 28> H 	 14.4436 	 -10.7832 	 63.4188
| 29> C 	 11.6728 	 -11.2491 	 62.4316
| 30> H 	 11.7292 	 -11.3278 	 61.3052
| 31> H 	 10.6111 	 -11.1887 	 62.5927
| 32> C 	 12.1163 	 -12.5852 	 63.0743
| 33> H 	 11.9313 	 -12.4475 	 64.1381
| 34> H 	 13.2362 	 -12.7383 	 62.8136
| 35> C 	 11.2063 	 -13.7189 	 62.5471
| 36> H 	 10.1706 	 -13.4311 	 62.4174
| 37> H 	 11.0707 	 -14.5802 	 63.2094
| 38> H 	 11.5621 	 -14.0518 	 61.5322
| 39> H 	 6.84675 	 -8.32999 	 63.0652
| 40> H 	 15.0651 	 -8.61742 	 64.4142
| 41> *
| 42>
| 43>                          ****END OF INPUT****

CARTESIAN COORDINATES (ANGSTROEM)
---------------------------------
  S      9.116870   -9.002370   63.925500
  C      7.885460   -8.222580   62.970800
  C      8.379550   -7.570560   61.898900
  C      9.804250   -7.763840   61.795800
  C     10.315200   -8.492620   62.836700
  H     10.449900   -7.336340   61.072600
  C      7.564540   -6.826430   60.931600
  H      6.861580   -7.552030   60.511700
  H      8.163980   -6.462440   60.142200
  C      6.730820   -5.608880   61.475600
  H      6.185210   -5.151490   60.567800
  H      5.913830   -6.061940   62.076200
  C      7.477520   -4.507060   62.240600
  H      7.857120   -4.963710   63.182700
  H      8.362090   -4.062600   61.827200
  H      6.749570   -3.731810   62.630500
  S     12.816600   -7.555750   63.664200
  C     14.027600   -8.769150   63.983700
  C     13.687800   -9.970120   63.417000
  C     12.330000  -10.022800   62.964600
  C     11.705600   -8.778780   63.070400
  H     14.443600  -10.783200   63.418800
  C     11.672800  -11.249100   62.431600
  H     11.729200  -11.327800   61.305200
  H     10.611100  -11.188700   62.592700
  C     12.116300  -12.585200   63.074300
  H     11.931300  -12.447500   64.138100
  H     13.236200  -12.738300   62.813600
  C     11.206300  -13.718900   62.547100
  H     10.170600  -13.431100   62.417400
  H     11.070700  -14.580200   63.209400
  H     11.562100  -14.051800   61.532200
  H      6.846750   -8.329990   63.065200
  H     15.065100   -8.617420   64.414200

 Total Charge           Charge          ....    0
 Multiplicity           Mult            ....    1
 Number of Electrons    NEL             ....  134
 Basis Dimension        Dim             ....  322

ORBITAL ENERGIES
----------------

  NO   OCC          E(Eh)            E(eV)
   0   2.0000     -88.966166     -2420.8925
   1   2.0000     -88.966042     -2420.8891
   2   2.0000     -10.320762      -280.8422
   3   2.0000     -10.319779      -280.8155
   4   2.0000     -10.319323      -280.8031
   5   2.0000     -10.302017      -280.3321
   6   2.0000     -10.301650      -280.3222
   7   2.0000     -10.298950      -280.2487
   8   2.0000     -10.294685      -280.1326
   9   2.0000     -10.294023      -280.1146
  10   2.0000     -10.292664      -280.0776
  11   2.0000     -10.287684      -279.9421
  12   2.0000     -10.287463      -279.9361
  13   2.0000     -10.287128      -279.9270
  14   2.0000     -10.281151      -279.7643
  15   2.0000     -10.281072      -279.7622
  16   2.0000      -8.081677      -219.9136
  17   2.0000      -8.080688      -219.8867
  18   2.0000      -6.040178      -164.3616
  19   2.0000      -6.039224      -164.3356
  20   2.0000      -6.036032      -164.2488
  21   2.0000      -6.035255      -164.2276
  22   2.0000      -6.032442      -164.1511
  23   2.0000      -6.031373      -164.1220
  24   2.0000      -1.013012       -27.5655
  25   2.0000      -0.987768       -26.8785
  26   2.0000      -0.913275       -24.8515
  27   2.0000      -0.907268       -24.6880
  28   2.0000      -0.868462       -23.6320
  29   2.0000      -0.848291       -23.0832
  30   2.0000      -0.845434       -23.0054
  31   2.0000      -0.815082       -22.1795
  32   2.0000      -0.785592       -21.3771
  33   2.0000      -0.769001       -20.9256
  34   2.0000      -0.705037       -19.1850
  35   2.0000      -0.700572       -19.0635
  36   2.0000      -0.696789       -18.9606
  37   2.0000      -0.648318       -17.6416
  38   2.0000      -0.641090       -17.4449
  39   2.0000      -0.610230       -16.6052
  40   2.0000      -0.595995       -16.2179
  41   2.0000      -0.576192       -15.6790
  42   2.0000      -0.566948       -15.4274
  43   2.0000      -0.548554       -14.9269
  44   2.0000      -0.538481       -14.6528
  45   2.0000      -0.520215       -14.1558
  46   2.0000      -0.513991       -13.9864
  47   2.0000      -0.509443       -13.8626
  48   2.0000      -0.501243       -13.6395
  49   2.0000      -0.494469       -13.4552
  50   2.0000      -0.485009       -13.1978
  51   2.0000      -0.481419       -13.1001
  52   2.0000      -0.473278       -12.8785
  53   2.0000      -0.467956       -12.7337
  54   2.0000      -0.462569       -12.5871
  55   2.0000      -0.446920       -12.1613
  56   2.0000      -0.441798       -12.0219
  57   2.0000      -0.439171       -11.9505
  58   2.0000      -0.427630       -11.6364
  59   2.0000      -0.426164       -11.5965
  60   2.0000      -0.421500       -11.4696
  61   2.0000      -0.415271       -11.3001
  62   2.0000      -0.411089       -11.1863
  63   2.0000      -0.333449        -9.0736
  64   2.0000      -0.331695        -9.0259
  65   2.0000      -0.324625        -8.8335
  66   2.0000      -0.304284        -8.2800
  67   0.0000       0.043359         1.1799
  68   0.0000       0.059982         1.6322
  69   0.0000       0.112085         3.0500
  70   0.0000       0.122848         3.3429
  71   0.0000       0.127122         3.4592

MULLIKEN ATOMIC CHARGES
-----------------------
   0 S :    0.133698
   1 C :   -0.106881
   2 C :   -0.088841
   3 C :    0.043263
   4 C :   -0.185834
   5 H :   -0.006201
   6 C :    0.095987
   7 H :    0.038819
   8 H :    0.006631
   9 C :   -0.112277
  10 H :    0.040079
  11 H :    0.030189
  12 C :   -0.056987
  13 H :    0.036337
  14 H :    0.036484
  15 H :    0.045883
  16 S :    0.124624
  17 C :   -0.119403
  18 C :   -0.047837
  19 C :   -0.006597
  20 C :   -0.165030
  21 H :    0.030285
  22 C :    0.050950
  23 H :    0.044292
  24 H :    0.008882
  25 C :   -0.109233
  26 H :    0.040427
  27 H :    0.054301
  28 C :   -0.045733
  29 H :    0.021781
  30 H :    0.035577
  31 H :    0.037346
  32 H :    0.018304
  33 H :    0.076716
Sum of atomic charges:   -0.0000000

LOEWDIN ATOMIC CHARGES
----------------------
   0 S :    0.436796
   1 C :   -0.194446
   2 C :   -0.064396
   3 C :   -0.056871
   4 C :   -0.209711
   5 H :    0.025162
   6 C :   -0.033376
   7 H :    0.039754
   8 H :    0.022644
   9 C :   -0.044091
  10 H :    0.029893
  11 H :    0.023429
  12 C :   -0.078359
  13 H :    0.031848
  14 H :    0.022893
  15 H :    0.037009
  16 S :    0.407327
  17 C :   -0.197503
  18 C :   -0.078585
  19 C :   -0.052296
  20 C :   -0.207925
  21 H :    0.036183
  22 C :   -0.042454
  23 H :    0.039100
  24 H :    0.020694
  25 C :   -0.043805
  26 H :    0.026530
  27 H :    0.032725
  28 C :   -0.072755
  29 H :    0.023776
  30 H :    0.027046
  31 H :    0.031417
  32 H :    0.017044
  33 H :    0.045305

  Mayer bond orders larger than 0.100000
B(  0-S ,  1-C ) :   1.1288 B(  0-S ,  4-C ) :   1.1616 B(  1-C ,  2-C ) :   1.6281
B(  1-C , 32-H ) :   0.9720 B(  2-C ,  3-C ) :   1.2193 B(  2-C ,  6-C ) :   1.0272
B(  3-C ,  4-C ) :   1.5866 B(  3-C ,  5-H ) :   1.0053 B(  4-C , 20-C ) :   1.0276
B(  6-C ,  7-H ) :   0.9335 B(  6-C ,  8-H ) :   0.9371 B(  6-C ,  9-C ) :   1.0702
B(  9-C , 10-H ) :   0.9579 B(  9-C , 11-H ) :   0.9556 B(  9-C , 12-C ) :   1.0704
B( 12-C , 13-H ) :   0.9681 B( 12-C , 14-H ) :   0.9784 B( 12-C , 15-H ) :   0.9722
B( 16-S , 17-C ) :   1.1548 B( 16-S , 20-C ) :   1.1365 B( 17-C , 18-C ) :   1.6269
B( 17-C , 33-H ) :   0.9549 B( 18-C , 19-C ) :   1.2323 B( 18-C , 21-H ) :   0.9814
B( 19-C , 20-C ) :   1.5868 B( 19-C , 22-C ) :   1.0562 B( 22-C , 23-H ) :   0.9274
B( 22-C , 24-H ) :   0.9195 B( 22-C , 25-C ) :   1.0598 B( 25-C , 26-H ) :   0.9603
B( 25-C , 27-H ) :   0.9507 B( 25-C , 28-C ) :   1.0770 B( 28-C , 29-H ) :   0.9724
B( 28-C , 30-H ) :   0.9758 B( 28-C , 31-H ) :   0.9741

Dispersion correction           -0.014302522
FINAL SINGLE POINT ENERGY     -1339.883058926099

DIPOLE MOMENT
-------------
                                X             Y             Z
Electronic contribution:     10.48099       5.21789       9.39552
Nuclear contribution   :    -10.60865      -5.40569      -9.72363
                        -----------------------------------------
Total Dipole Moment    :     -0.12766      -0.18780      -0.32811
                        -----------------------------------------
Magnitude (a.u.)       :      0.39902
Magnitude (Debye)      :      1.01423

Rotational constants in cm-1:     0.021825     0.007934     0.006390
Rotational constants in MHz :   654.303455   237.861908   191.561889

                             ****ORCA TERMINATED NORMALLY****
TOTAL RUN TIME: 0 days 0 hours 0 minutes 34 seconds 185 msec
