                         Program Version 4.2.1 -  RELEASE  -
|  1> ! wB97X-D3 SP def2-SVP
|  2> %pal
|  3> nprocs 16
|  4> end
|  5>
|  6> * xyz 0 1
|  7> S 	 3.87329 	 14.8296 	 88.7803
|  8> C 	 2.82616 	 15.4561 	 87.5451
|  9> C 	 3.45384 	 15.4115 	 86.2965
| 10> C 	 4.8104 	 14.9186 	 86.3885
| 11> C 	 5.17798 	 14.5672 	 87.6936
| 12> H 	 5.51771 	 14.6949 	 85.5977
| 13> C 	 2.89654 	 15.9282 	 84.9725
| 14> H 	 3.7262 	 16.1454 	 84.2839
| 15> H 	 2.41821 	 16.871 	 85.1453
| 16> C 	 2.08825 	 15.0423 	 84.1314
| 17> H 	 2.74422 	 14.1513 	 83.9719
| 18> H 	 1.38851 	 14.5256 	 84.7513
| 19> C 	 1.56925 	 15.6667 	 82.8391
| 20> H 	 0.773311 	 16.3227 	 83.0538
| 21> H 	 2.39398 	 16.2452 	 82.4253
| 22> H 	 1.38965 	 14.9579 	 82.0167
| 23> S 	 6.35767 	 12.1881 	 88.3368
| 24> C 	 7.94758 	 12.1878 	 89.1016
| 25> C 	 8.59338 	 13.3707 	 88.7645
| 26> C 	 7.6689 	 14.351 	 88.3408
| 27> C 	 6.35709 	 13.9074 	 88.2408
| 28> H 	 9.65509 	 13.4145 	 88.9524
| 29> C 	 8.10829 	 15.7858 	 87.9911
| 30> H 	 8.80455 	 16.1241 	 88.7856
| 31> H 	 7.27069 	 16.5001 	 88.1947
| 32> C 	 8.9112 	 15.8669 	 86.7103
| 33> H 	 8.28538 	 15.7021 	 85.8615
| 34> H 	 9.58193 	 15.0955 	 86.7593
| 35> C 	 9.66845 	 17.1936 	 86.5551
| 36> H 	 10.5343 	 17.3042 	 87.1932
| 37> H 	 9.09334 	 18.1499 	 86.4415
| 38> H 	 10.0631 	 17.1505 	 85.54
| 39> H 	 1.85935 	 15.8041 	 87.8116
| 40> H 	 8.58525 	 11.3459 	 89.343
| 41> *
| 42>
| 43>                          ****END OF INPUT****

CARTESIAN COORDINATES (ANGSTROEM)
---------------------------------
  S      3.873290   14.829600   88.780300
  C      2.826160   15.456100   87.545100
  C      3.453840   15.411500   86.296500
  C      4.810400   14.918600   86.388500
  C      5.177980   14.567200   87.693600
  H      5.517710   14.694900   85.597700
  C      2.896540   15.928200   84.972500
  H      3.726200   16.145400   84.283900
  H      2.418210   16.871000   85.145300
  C      2.088250   15.042300   84.131400
  H      2.744220   14.151300   83.971900
  H      1.388510   14.525600   84.751300
  C      1.569250   15.666700   82.839100
  H      0.773311   16.322700   83.053800
  H      2.393980   16.245200   82.425300
  H      1.389650   14.957900   82.016700
  S      6.357670   12.188100   88.336800
  C      7.947580   12.187800   89.101600
  C      8.593380   13.370700   88.764500
  C      7.668900   14.351000   88.340800
  C      6.357090   13.907400   88.240800
  H      9.655090   13.414500   88.952400
  C      8.108290   15.785800   87.991100
  H      8.804550   16.124100   88.785600
  H      7.270690   16.500100   88.194700
  C      8.911200   15.866900   86.710300
  H      8.285380   15.702100   85.861500
  H      9.581930   15.095500   86.759300
  C      9.668450   17.193600   86.555100
  H     10.534300   17.304200   87.193200
  H      9.093340   18.149900   86.441500
  H     10.063100   17.150500   85.540000
  H      1.859350   15.804100   87.811600
  H      8.585250   11.345900   89.343000

 Total Charge           Charge          ....    0
 Multiplicity           Mult            ....    1
 Number of Electrons    NEL             ....  134
 Basis Dimension        Dim             ....  322

ORBITAL ENERGIES
----------------

  NO   OCC          E(Eh)            E(eV)
   0   2.0000     -88.964051     -2420.8349
   1   2.0000     -88.963544     -2420.8211
   2   2.0000     -10.327340      -281.0212
   3   2.0000     -10.322011      -280.8762
   4   2.0000     -10.316288      -280.7205
   5   2.0000     -10.315691      -280.7042
   6   2.0000     -10.308607      -280.5115
   7   2.0000     -10.301946      -280.3302
   8   2.0000     -10.299734      -280.2700
   9   2.0000     -10.293429      -280.0984
  10   2.0000     -10.288342      -279.9600
  11   2.0000     -10.285355      -279.8787
  12   2.0000     -10.279139      -279.7096
  13   2.0000     -10.279090      -279.7083
  14   2.0000     -10.279024      -279.7065
  15   2.0000     -10.278385      -279.6891
  16   2.0000      -8.079720      -219.8604
  17   2.0000      -8.078596      -219.8298
  18   2.0000      -6.038062      -164.3040
  19   2.0000      -6.037083      -164.2774
  20   2.0000      -6.033824      -164.1887
  21   2.0000      -6.033333      -164.1753
  22   2.0000      -6.030869      -164.1083
  23   2.0000      -6.029052      -164.0588
  24   2.0000      -1.010399       -27.4944
  25   2.0000      -0.986973       -26.8569
  26   2.0000      -0.921466       -25.0744
  27   2.0000      -0.909830       -24.7577
  28   2.0000      -0.872437       -23.7402
  29   2.0000      -0.848239       -23.0817
  30   2.0000      -0.846722       -23.0405
  31   2.0000      -0.815650       -22.1950
  32   2.0000      -0.785662       -21.3789
  33   2.0000      -0.770971       -20.9792
  34   2.0000      -0.706846       -19.2342
  35   2.0000      -0.702969       -19.1287
  36   2.0000      -0.696624       -18.9561
  37   2.0000      -0.658636       -17.9224
  38   2.0000      -0.653302       -17.7773
  39   2.0000      -0.617889       -16.8136
  40   2.0000      -0.590955       -16.0807
  41   2.0000      -0.578004       -15.7283
  42   2.0000      -0.569209       -15.4890
  43   2.0000      -0.563354       -15.3296
  44   2.0000      -0.528947       -14.3934
  45   2.0000      -0.523489       -14.2449
  46   2.0000      -0.513276       -13.9669
  47   2.0000      -0.511019       -13.9055
  48   2.0000      -0.509419       -13.8620
  49   2.0000      -0.502018       -13.6606
  50   2.0000      -0.493101       -13.4179
  51   2.0000      -0.475592       -12.9415
  52   2.0000      -0.472909       -12.8685
  53   2.0000      -0.469672       -12.7804
  54   2.0000      -0.463394       -12.6096
  55   2.0000      -0.450658       -12.2630
  56   2.0000      -0.444201       -12.0873
  57   2.0000      -0.437507       -11.9052
  58   2.0000      -0.434871       -11.8334
  59   2.0000      -0.424057       -11.5392
  60   2.0000      -0.418640       -11.3918
  61   2.0000      -0.411616       -11.2006
  62   2.0000      -0.401624       -10.9287
  63   2.0000      -0.337250        -9.1770
  64   2.0000      -0.326585        -8.8868
  65   2.0000      -0.321614        -8.7516
  66   2.0000      -0.308850        -8.4042
  67   0.0000       0.035398         0.9632
  68   0.0000       0.054062         1.4711
  69   0.0000       0.106559         2.8996
  70   0.0000       0.118890         3.2352
  71   0.0000       0.130047         3.5388

MULLIKEN ATOMIC CHARGES
-----------------------
   0 S :    0.120403
   1 C :   -0.112539
   2 C :   -0.080763
   3 C :    0.055764
   4 C :   -0.207077
   5 H :    0.016097
   6 C :    0.055754
   7 H :    0.011458
   8 H :    0.019093
   9 C :   -0.056760
  10 H :    0.009250
  11 H :    0.005006
  12 C :   -0.000599
  13 H :    0.034382
  14 H :    0.014049
  15 H :    0.041530
  16 S :    0.113311
  17 C :   -0.082615
  18 C :   -0.061088
  19 C :   -0.027176
  20 C :   -0.145314
  21 H :    0.024967
  22 C :    0.051154
  23 H :    0.011665
  24 H :    0.036921
  25 C :   -0.001772
  26 H :    0.018151
  27 H :    0.000018
  28 C :   -0.058125
  29 H :    0.037281
  30 H :    0.041614
  31 H :    0.017934
  32 H :    0.040886
  33 H :    0.057138
Sum of atomic charges:    0.0000000

LOEWDIN ATOMIC CHARGES
----------------------
   0 S :    0.438912
   1 C :   -0.193007
   2 C :   -0.058616
   3 C :   -0.059318
   4 C :   -0.211390
   5 H :    0.032717
   6 C :   -0.035375
   7 H :    0.030523
   8 H :    0.024052
   9 C :   -0.051739
  10 H :    0.026747
  11 H :    0.014776
  12 C :   -0.057300
  13 H :    0.022648
  14 H :    0.026321
  15 H :    0.034503
  16 S :    0.416372
  17 C :   -0.183701
  18 C :   -0.070285
  19 C :   -0.054991
  20 C :   -0.223238
  21 H :    0.032423
  22 C :   -0.038319
  23 H :    0.028785
  24 H :    0.034473
  25 C :   -0.027376
  26 H :    0.021229
  27 H :    0.015513
  28 C :   -0.071558
  29 H :    0.023603
  30 H :    0.033391
  31 H :    0.028059
  32 H :    0.020751
  33 H :    0.030409

  Mayer bond orders larger than 0.100000
B(  0-S ,  1-C ) :   1.1653 B(  0-S ,  4-C ) :   1.1847 B(  1-C ,  2-C ) :   1.5676
B(  1-C ,  4-C ) :   0.1036 B(  1-C , 32-H ) :   0.9831 B(  2-C ,  3-C ) :   1.2512
B(  2-C ,  6-C ) :   1.0166 B(  3-C ,  4-C ) :   1.5670 B(  3-C ,  5-H ) :   0.9958
B(  4-C , 20-C ) :   1.0000 B(  6-C ,  7-H ) :   0.9375 B(  6-C ,  8-H ) :   0.9439
B(  6-C ,  9-C ) :   1.0684 B(  9-C , 10-H ) :   0.9451 B(  9-C , 11-H ) :   0.9515
B(  9-C , 12-C ) :   1.0675 B( 12-C , 13-H ) :   0.9759 B( 12-C , 14-H ) :   0.9698
B( 12-C , 15-H ) :   0.9730 B( 16-S , 17-C ) :   1.1587 B( 16-S , 20-C ) :   1.1594
B( 17-C , 18-C ) :   1.6038 B( 17-C , 20-C ) :   0.1068 B( 17-C , 33-H ) :   0.9637
B( 18-C , 19-C ) :   1.2534 B( 18-C , 21-H ) :   0.9905 B( 19-C , 20-C ) :   1.5792
B( 19-C , 22-C ) :   1.0427 B( 22-C , 23-H ) :   0.9387 B( 22-C , 24-H ) :   0.9343
B( 22-C , 25-C ) :   1.0582 B( 25-C , 26-H ) :   0.9518 B( 25-C , 27-H ) :   0.9482
B( 25-C , 28-C ) :   1.0933 B( 28-C , 29-H ) :   0.9741 B( 28-C , 30-H ) :   0.9737
B( 28-C , 31-H ) :   0.9693

Dispersion correction           -0.013728941
FINAL SINGLE POINT ENERGY     -1339.855071058187

DIPOLE MOMENT
-------------
                                X             Y             Z
Electronic contribution:     -3.28893     -15.66233      21.57424
Nuclear contribution   :      3.62119      15.93523     -22.14219
                        -----------------------------------------
Total Dipole Moment    :      0.33226       0.27289      -0.56794
                        -----------------------------------------
Magnitude (a.u.)       :      0.71234
Magnitude (Debye)      :      1.81062

Rotational constants in cm-1:     0.018200     0.007773     0.006430
Rotational constants in MHz :   545.637005   233.018245   192.752086

                             ****ORCA TERMINATED NORMALLY****
TOTAL RUN TIME: 0 days 0 hours 0 minutes 33 seconds 577 msec
