                         Program Version 4.2.1 -  RELEASE  -
|  1> ! wB97X-D3 SP def2-SVP
|  2> %pal
|  3> nprocs 16
|  4> end
|  5>
|  6> * xyz 0 1
|  7> S 	 -46.4822 	 50.6375 	 100.999
|  8> C 	 -45.3969 	 50.5116 	 99.6237
|  9> C 	 -44.1824 	 51.1482 	 99.9031
| 10> C 	 -44.1847 	 51.6291 	 101.279
| 11> C 	 -45.3673 	 51.4467 	 102.028
| 12> H 	 -43.3036 	 52.1836 	 101.685
| 13> C 	 -43.0699 	 51.353 	 98.9782
| 14> H 	 -42.9648 	 52.4147 	 98.8926
| 15> H 	 -43.2719 	 51.0013 	 97.9641
| 16> C 	 -41.7464 	 50.721 	 99.4797
| 17> H 	 -41.0395 	 50.9102 	 98.6747
| 18> H 	 -41.5405 	 51.2933 	 100.349
| 19> C 	 -41.9181 	 49.2395 	 99.7404
| 20> H 	 -40.9737 	 48.7227 	 100.03
| 21> H 	 -42.69 	 49.0231 	 100.487
| 22> H 	 -42.3391 	 48.814 	 98.8227
| 23> S 	 -47.2126 	 52.5361 	 103.806
| 24> C 	 -46.9195 	 52.5476 	 105.537
| 25> C 	 -45.6613 	 51.9964 	 105.774
| 26> C 	 -44.8982 	 51.6445 	 104.607
| 27> C 	 -45.7116 	 51.6894 	 103.451
| 28> H 	 -45.3217 	 52.0476 	 106.772
| 29> C 	 -43.4931 	 51.194 	 104.704
| 30> H 	 -43.1211 	 51.3401 	 105.762
| 31> H 	 -42.9855 	 51.8737 	 103.987
| 32> C 	 -43.3465 	 49.6267 	 104.424
| 33> H 	 -43.984 	 49.3568 	 103.585
| 34> H 	 -43.8171 	 49.1128 	 105.23
| 35> C 	 -41.9326 	 49.1464 	 104.265
| 36> H 	 -41.4454 	 49.6702 	 103.419
| 37> H 	 -41.9864 	 48.0806 	 103.966
| 38> H 	 -41.3002 	 49.2813 	 105.171
| 39> H 	 -45.6165 	 50.0873 	 98.6583
| 40> H 	 -47.6493 	 52.8469 	 106.283
| 41> *
| 42>
| 43>                          ****END OF INPUT****

CARTESIAN COORDINATES (ANGSTROEM)
---------------------------------
  S    -46.482200   50.637500  100.999000
  C    -45.396900   50.511600   99.623700
  C    -44.182400   51.148200   99.903100
  C    -44.184700   51.629100  101.279000
  C    -45.367300   51.446700  102.028000
  H    -43.303600   52.183600  101.685000
  C    -43.069900   51.353000   98.978200
  H    -42.964800   52.414700   98.892600
  H    -43.271900   51.001300   97.964100
  C    -41.746400   50.721000   99.479700
  H    -41.039500   50.910200   98.674700
  H    -41.540500   51.293300  100.349000
  C    -41.918100   49.239500   99.740400
  H    -40.973700   48.722700  100.030000
  H    -42.690000   49.023100  100.487000
  H    -42.339100   48.814000   98.822700
  S    -47.212600   52.536100  103.806000
  C    -46.919500   52.547600  105.537000
  C    -45.661300   51.996400  105.774000
  C    -44.898200   51.644500  104.607000
  C    -45.711600   51.689400  103.451000
  H    -45.321700   52.047600  106.772000
  C    -43.493100   51.194000  104.704000
  H    -43.121100   51.340100  105.762000
  H    -42.985500   51.873700  103.987000
  C    -43.346500   49.626700  104.424000
  H    -43.984000   49.356800  103.585000
  H    -43.817100   49.112800  105.230000
  C    -41.932600   49.146400  104.265000
  H    -41.445400   49.670200  103.419000
  H    -41.986400   48.080600  103.966000
  H    -41.300200   49.281300  105.171000
  H    -45.616500   50.087300   98.658300
  H    -47.649300   52.846900  106.283000

 Total Charge           Charge          ....    0
 Multiplicity           Mult            ....    1
 Number of Electrons    NEL             ....  134
 Basis Dimension        Dim             ....  322

ORBITAL ENERGIES
----------------

  NO   OCC          E(Eh)            E(eV)
   0   2.0000     -88.966619     -2420.9048
   1   2.0000     -88.965071     -2420.8626
   2   2.0000     -10.336949      -281.2827
   3   2.0000     -10.333962      -281.2014
   4   2.0000     -10.321130      -280.8522
   5   2.0000     -10.315565      -280.7008
   6   2.0000     -10.307724      -280.4874
   7   2.0000     -10.303530      -280.3733
   8   2.0000     -10.302810      -280.3537
   9   2.0000     -10.299611      -280.2667
  10   2.0000     -10.293783      -280.1081
  11   2.0000     -10.288080      -279.9529
  12   2.0000     -10.285073      -279.8711
  13   2.0000     -10.283683      -279.8332
  14   2.0000     -10.281076      -279.7623
  15   2.0000     -10.278301      -279.6868
  16   2.0000      -8.080941      -219.8936
  17   2.0000      -8.080045      -219.8692
  18   2.0000      -6.039493      -164.3430
  19   2.0000      -6.038588      -164.3183
  20   2.0000      -6.035397      -164.2315
  21   2.0000      -6.034252      -164.2004
  22   2.0000      -6.031785      -164.1332
  23   2.0000      -6.031006      -164.1120
  24   2.0000      -1.004056       -27.3217
  25   2.0000      -0.982878       -26.7455
  26   2.0000      -0.922553       -25.1039
  27   2.0000      -0.906547       -24.6684
  28   2.0000      -0.866610       -23.5816
  29   2.0000      -0.853117       -23.2145
  30   2.0000      -0.840232       -22.8639
  31   2.0000      -0.812888       -22.1198
  32   2.0000      -0.783534       -21.3210
  33   2.0000      -0.770349       -20.9623
  34   2.0000      -0.710898       -19.3445
  35   2.0000      -0.699548       -19.0357
  36   2.0000      -0.690509       -18.7897
  37   2.0000      -0.661730       -18.0066
  38   2.0000      -0.637458       -17.3461
  39   2.0000      -0.623467       -16.9654
  40   2.0000      -0.590280       -16.0623
  41   2.0000      -0.573328       -15.6010
  42   2.0000      -0.563675       -15.3384
  43   2.0000      -0.557603       -15.1732
  44   2.0000      -0.542709       -14.7679
  45   2.0000      -0.525271       -14.2933
  46   2.0000      -0.516153       -14.0452
  47   2.0000      -0.513079       -13.9616
  48   2.0000      -0.502865       -13.6836
  49   2.0000      -0.500439       -13.6176
  50   2.0000      -0.492959       -13.4141
  51   2.0000      -0.487993       -13.2790
  52   2.0000      -0.469256       -12.7691
  53   2.0000      -0.464577       -12.6418
  54   2.0000      -0.459797       -12.5117
  55   2.0000      -0.449714       -12.2373
  56   2.0000      -0.441014       -12.0006
  57   2.0000      -0.437942       -11.9170
  58   2.0000      -0.427761       -11.6400
  59   2.0000      -0.424923       -11.5627
  60   2.0000      -0.424063       -11.5393
  61   2.0000      -0.414108       -11.2685
  62   2.0000      -0.411901       -11.2084
  63   2.0000      -0.348137        -9.4733
  64   2.0000      -0.327760        -8.9188
  65   2.0000      -0.325729        -8.8635
  66   2.0000      -0.291209        -7.9242
  67   0.0000       0.023555         0.6410
  68   0.0000       0.072856         1.9825
  69   0.0000       0.109485         2.9792
  70   0.0000       0.119307         3.2465
  71   0.0000       0.125717         3.4209

MULLIKEN ATOMIC CHARGES
-----------------------
   0 S :    0.106180
   1 C :   -0.110813
   2 C :   -0.121393
   3 C :   -0.016740
   4 C :   -0.136860
   5 H :    0.026662
   6 C :    0.064474
   7 H :    0.034790
   8 H :    0.012094
   9 C :   -0.057693
  10 H :    0.034446
  11 H :    0.019429
  12 C :   -0.052832
  13 H :    0.047295
  14 H :    0.047687
  15 H :    0.018127
  16 S :    0.102654
  17 C :   -0.102828
  18 C :   -0.019680
  19 C :   -0.053755
  20 C :   -0.127043
  21 H :    0.005358
  22 C :    0.042691
  23 H :    0.030354
  24 H :    0.039721
  25 C :   -0.069527
  26 H :    0.038794
  27 H :    0.018234
  28 C :   -0.040925
  29 H :    0.030584
  30 H :    0.040172
  31 H :    0.039442
  32 H :    0.042770
  33 H :    0.068132
Sum of atomic charges:    0.0000000

LOEWDIN ATOMIC CHARGES
----------------------
   0 S :    0.421423
   1 C :   -0.201456
   2 C :   -0.061314
   3 C :   -0.078935
   4 C :   -0.205809
   5 H :    0.029973
   6 C :   -0.033210
   7 H :    0.034329
   8 H :    0.026801
   9 C :   -0.032172
  10 H :    0.026494
  11 H :    0.014464
  12 C :   -0.068625
  13 H :    0.030501
  14 H :    0.029226
  15 H :    0.025226
  16 S :    0.406232
  17 C :   -0.185490
  18 C :   -0.069475
  19 C :   -0.052069
  20 C :   -0.205427
  21 H :    0.023946
  22 C :   -0.036290
  23 H :    0.036991
  24 H :    0.034547
  25 C :   -0.036556
  26 H :    0.026605
  27 H :    0.021832
  28 C :   -0.070382
  29 H :    0.026002
  30 H :    0.032957
  31 H :    0.027982
  32 H :    0.027592
  33 H :    0.034089

  Mayer bond orders larger than 0.100000
B(  0-S ,  1-C ) :   1.1445 B(  0-S ,  4-C ) :   1.1726 B(  1-C ,  2-C ) :   1.5798
B(  1-C , 32-H ) :   0.9690 B(  2-C ,  3-C ) :   1.2546 B(  2-C ,  6-C ) :   1.0417
B(  3-C ,  4-C ) :   1.5480 B(  3-C ,  5-H ) :   0.9828 B(  4-C , 20-C ) :   1.0176
B(  6-C ,  7-H ) :   0.9330 B(  6-C ,  8-H ) :   0.9385 B(  6-C ,  9-C ) :   1.0666
B(  9-C , 10-H ) :   0.9565 B(  9-C , 11-H ) :   0.9558 B(  9-C , 12-C ) :   1.0769
B( 12-C , 13-H ) :   0.9739 B( 12-C , 14-H ) :   0.9672 B( 12-C , 15-H ) :   0.9717
B( 16-S , 17-C ) :   1.1617 B( 16-S , 20-C ) :   1.1541 B( 17-C , 18-C ) :   1.5877
B( 17-C , 20-C ) :   0.1097 B( 17-C , 33-H ) :   0.9676 B( 18-C , 19-C ) :   1.2601
B( 18-C , 21-H ) :   0.9926 B( 19-C , 20-C ) :   1.5466 B( 19-C , 22-C ) :   1.0533
B( 22-C , 23-H ) :   0.9336 B( 22-C , 24-H ) :   0.9300 B( 22-C , 25-C ) :   1.0508
B( 25-C , 26-H ) :   0.9606 B( 25-C , 27-H ) :   0.9496 B( 25-C , 28-C ) :   1.0895
B( 28-C , 29-H ) :   0.9741 B( 28-C , 30-H ) :   0.9694 B( 28-C , 31-H ) :   0.9718

Dispersion correction           -0.015728440
FINAL SINGLE POINT ENERGY     -1339.886439452895

DIPOLE MOMENT
-------------
                                X             Y             Z
Electronic contribution:    -27.75777      11.10209       3.25470
Nuclear contribution   :     28.40321     -11.12905      -3.18069
                        -----------------------------------------
Total Dipole Moment    :      0.64544      -0.02697       0.07401
                        -----------------------------------------
Magnitude (a.u.)       :      0.65023
Magnitude (Debye)      :      1.65276

Rotational constants in cm-1:     0.019477     0.009968     0.007326
Rotational constants in MHz :   583.898552   298.819179   219.630570

                             ****ORCA TERMINATED NORMALLY****
TOTAL RUN TIME: 0 days 0 hours 0 minutes 32 seconds 548 msec
