                         Program Version 4.2.1 -  RELEASE  -
|  1> ! wB97X-D3 SP def2-SVP
|  2> %pal
|  3> nprocs 16
|  4> end
|  5>
|  6> * xyz 0 1
|  7> S 	 26.8233 	 33.2847 	 57.1012
|  8> C 	 25.2438 	 32.7459 	 57.5587
|  9> C 	 24.3936 	 32.8721 	 56.4715
| 10> C 	 25.013 	 33.5509 	 55.3755
| 11> C 	 26.3658 	 33.7996 	 55.5455
| 12> H 	 24.4618 	 33.7347 	 54.4625
| 13> C 	 22.8681 	 32.5879 	 56.5099
| 14> H 	 22.3898 	 33.5373 	 56.3661
| 15> H 	 22.465 	 32.3878 	 57.4911
| 16> C 	 22.3408 	 31.5068 	 55.5863
| 17> H 	 22.5673 	 31.6966 	 54.6129
| 18> H 	 22.7063 	 30.481 	 55.8376
| 19> C 	 20.8142 	 31.5473 	 55.5995
| 20> H 	 20.5113 	 32.5879 	 55.4032
| 21> H 	 20.3536 	 30.9696 	 54.8217
| 22> H 	 20.4104 	 31.2129 	 56.5133
| 23> S 	 28.6117 	 35.3245 	 55.149
| 24> C 	 29.2541 	 35.3815 	 53.5527
| 25> C 	 28.4909 	 34.7751 	 52.605
| 26> C 	 27.3534 	 34.1083 	 53.1745
| 27> C 	 27.3277 	 34.2788 	 54.5654
| 28> H 	 28.707 	 34.9365 	 51.5254
| 29> C 	 26.4295 	 33.3342 	 52.3617
| 30> H 	 25.4732 	 33.7259 	 52.751
| 31> H 	 26.6023 	 32.2522 	 52.555
| 32> C 	 26.3539 	 33.6823 	 50.8903
| 33> H 	 25.6024 	 32.9937 	 50.4386
| 34> H 	 27.3547 	 33.3512 	 50.5781
| 35> C 	 25.9415 	 35.0787 	 50.4442
| 36> H 	 26.7675 	 35.7803 	 50.7128
| 37> H 	 24.9239 	 35.3156 	 50.8
| 38> H 	 25.7958 	 34.9869 	 49.3874
| 39> H 	 24.8466 	 32.3711 	 58.4443
| 40> H 	 30.031 	 36.074 	 53.3116
| 41> *
| 42>
| 43>                          ****END OF INPUT****

CARTESIAN COORDINATES (ANGSTROEM)
---------------------------------
  S     26.823300   33.284700   57.101200
  C     25.243800   32.745900   57.558700
  C     24.393600   32.872100   56.471500
  C     25.013000   33.550900   55.375500
  C     26.365800   33.799600   55.545500
  H     24.461800   33.734700   54.462500
  C     22.868100   32.587900   56.509900
  H     22.389800   33.537300   56.366100
  H     22.465000   32.387800   57.491100
  C     22.340800   31.506800   55.586300
  H     22.567300   31.696600   54.612900
  H     22.706300   30.481000   55.837600
  C     20.814200   31.547300   55.599500
  H     20.511300   32.587900   55.403200
  H     20.353600   30.969600   54.821700
  H     20.410400   31.212900   56.513300
  S     28.611700   35.324500   55.149000
  C     29.254100   35.381500   53.552700
  C     28.490900   34.775100   52.605000
  C     27.353400   34.108300   53.174500
  C     27.327700   34.278800   54.565400
  H     28.707000   34.936500   51.525400
  C     26.429500   33.334200   52.361700
  H     25.473200   33.725900   52.751000
  H     26.602300   32.252200   52.555000
  C     26.353900   33.682300   50.890300
  H     25.602400   32.993700   50.438600
  H     27.354700   33.351200   50.578100
  C     25.941500   35.078700   50.444200
  H     26.767500   35.780300   50.712800
  H     24.923900   35.315600   50.800000
  H     25.795800   34.986900   49.387400
  H     24.846600   32.371100   58.444300
  H     30.031000   36.074000   53.311600

 Total Charge           Charge          ....    0
 Multiplicity           Mult            ....    1
 Number of Electrons    NEL             ....  134
 Basis Dimension        Dim             ....  322

ORBITAL ENERGIES
----------------

  NO   OCC          E(Eh)            E(eV)
   0   2.0000     -88.967085     -2420.9175
   1   2.0000     -88.964456     -2420.8459
   2   2.0000     -10.326003      -280.9848
   3   2.0000     -10.325516      -280.9716
   4   2.0000     -10.311078      -280.5787
   5   2.0000     -10.305533      -280.4278
   6   2.0000     -10.302160      -280.3360
   7   2.0000     -10.298070      -280.2247
   8   2.0000     -10.294389      -280.1246
   9   2.0000     -10.289366      -279.9879
  10   2.0000     -10.289146      -279.9819
  11   2.0000     -10.288587      -279.9667
  12   2.0000     -10.288074      -279.9527
  13   2.0000     -10.285621      -279.8860
  14   2.0000     -10.279716      -279.7253
  15   2.0000     -10.272073      -279.5173
  16   2.0000      -8.082365      -219.9323
  17   2.0000      -8.080058      -219.8696
  18   2.0000      -6.040686      -164.3754
  19   2.0000      -6.038536      -164.3169
  20   2.0000      -6.036962      -164.2741
  21   2.0000      -6.034252      -164.2004
  22   2.0000      -6.033136      -164.1700
  23   2.0000      -6.030987      -164.1115
  24   2.0000      -1.012301       -27.5461
  25   2.0000      -0.989389       -26.9227
  26   2.0000      -0.922451       -25.1012
  27   2.0000      -0.915179       -24.9033
  28   2.0000      -0.873520       -23.7697
  29   2.0000      -0.856560       -23.3082
  30   2.0000      -0.844096       -22.9690
  31   2.0000      -0.816694       -22.2234
  32   2.0000      -0.788439       -21.4545
  33   2.0000      -0.775298       -21.0969
  34   2.0000      -0.711475       -19.3602
  35   2.0000      -0.701973       -19.1017
  36   2.0000      -0.696376       -18.9494
  37   2.0000      -0.655401       -17.8344
  38   2.0000      -0.638763       -17.3816
  39   2.0000      -0.624614       -16.9966
  40   2.0000      -0.598822       -16.2948
  41   2.0000      -0.571244       -15.5443
  42   2.0000      -0.569996       -15.5104
  43   2.0000      -0.567779       -15.4500
  44   2.0000      -0.545978       -14.8568
  45   2.0000      -0.527375       -14.3506
  46   2.0000      -0.518822       -14.1179
  47   2.0000      -0.510649       -13.8955
  48   2.0000      -0.504078       -13.7167
  49   2.0000      -0.500648       -13.6233
  50   2.0000      -0.494376       -13.4527
  51   2.0000      -0.484593       -13.1865
  52   2.0000      -0.472053       -12.8452
  53   2.0000      -0.466723       -12.7002
  54   2.0000      -0.461256       -12.5514
  55   2.0000      -0.455450       -12.3934
  56   2.0000      -0.448006       -12.1909
  57   2.0000      -0.441954       -12.0262
  58   2.0000      -0.438669       -11.9368
  59   2.0000      -0.425799       -11.5866
  60   2.0000      -0.420007       -11.4290
  61   2.0000      -0.410871       -11.1804
  62   2.0000      -0.400493       -10.8980
  63   2.0000      -0.354061        -9.6345
  64   2.0000      -0.332617        -9.0510
  65   2.0000      -0.328680        -8.9438
  66   2.0000      -0.285286        -7.7630
  67   0.0000       0.027295         0.7427
  68   0.0000       0.083042         2.2597
  69   0.0000       0.106819         2.9067
  70   0.0000       0.123843         3.3699
  71   0.0000       0.131297         3.5728

MULLIKEN ATOMIC CHARGES
-----------------------
   0 S :    0.116226
   1 C :   -0.074710
   2 C :   -0.089177
   3 C :    0.001849
   4 C :   -0.116315
   5 H :    0.009113
   6 C :    0.035296
   7 H :    0.022395
   8 H :    0.000346
   9 C :   -0.022817
  10 H :    0.000879
  11 H :    0.037019
  12 C :   -0.039048
  13 H :    0.020507
  14 H :    0.025432
  15 H :    0.020381
  16 S :    0.114087
  17 C :   -0.067988
  18 C :   -0.067269
  19 C :   -0.063998
  20 C :   -0.153503
  21 H :    0.038474
  22 C :    0.091950
  23 H :    0.012424
  24 H :    0.066531
  25 C :   -0.133801
  26 H :    0.032857
  27 H :    0.025760
  28 C :   -0.019737
  29 H :    0.048727
  30 H :    0.035258
  31 H :    0.033475
  32 H :    0.013212
  33 H :    0.046165
Sum of atomic charges:   -0.0000000

LOEWDIN ATOMIC CHARGES
----------------------
   0 S :    0.435159
   1 C :   -0.202194
   2 C :   -0.058526
   3 C :   -0.074163
   4 C :   -0.209017
   5 H :    0.024468
   6 C :   -0.032149
   7 H :    0.030326
   8 H :    0.025753
   9 C :   -0.031674
  10 H :    0.008338
  11 H :    0.030608
  12 C :   -0.056127
  13 H :    0.025945
  14 H :    0.022668
  15 H :    0.015437
  16 S :    0.415627
  17 C :   -0.185959
  18 C :   -0.080734
  19 C :   -0.051875
  20 C :   -0.199373
  21 H :    0.039608
  22 C :   -0.043320
  23 H :    0.032882
  24 H :    0.048449
  25 C :   -0.050385
  26 H :    0.030561
  27 H :    0.020054
  28 C :   -0.063362
  29 H :    0.031482
  30 H :    0.031001
  31 H :    0.028738
  32 H :    0.019268
  33 H :    0.022486

  Mayer bond orders larger than 0.100000
B(  0-S ,  1-C ) :   1.1380 B(  0-S ,  4-C ) :   1.1728 B(  1-C ,  2-C ) :   1.5939
B(  1-C , 32-H ) :   0.9754 B(  2-C ,  3-C ) :   1.2832 B(  2-C ,  6-C ) :   1.0102
B(  3-C ,  4-C ) :   1.5309 B(  3-C ,  5-H ) :   0.9909 B(  4-C , 20-C ) :   1.0557
B(  6-C ,  7-H ) :   0.9464 B(  6-C ,  8-H ) :   0.9460 B(  6-C ,  9-C ) :   1.0625
B(  9-C , 10-H ) :   0.9551 B(  9-C , 11-H ) :   0.9539 B(  9-C , 12-C ) :   1.0835
B( 12-C , 13-H ) :   0.9736 B( 12-C , 14-H ) :   0.9741 B( 12-C , 15-H ) :   0.9771
B( 16-S , 17-C ) :   1.1623 B( 16-S , 20-C ) :   1.1452 B( 17-C , 18-C ) :   1.6195
B( 17-C , 33-H ) :   0.9618 B( 18-C , 19-C ) :   1.2402 B( 18-C , 21-H ) :   0.9748
B( 19-C , 20-C ) :   1.5897 B( 19-C , 22-C ) :   1.0249 B( 22-C , 23-H ) :   0.9172
B( 22-C , 24-H ) :   0.9260 B( 22-C , 25-C ) :   1.0867 B( 25-C , 26-H ) :   0.9522
B( 25-C , 27-H ) :   0.9415 B( 25-C , 28-C ) :   1.0871 B( 28-C , 29-H ) :   0.9694
B( 28-C , 30-H ) :   0.9662 B( 28-C , 31-H ) :   0.9709

Dispersion correction           -0.013720779
FINAL SINGLE POINT ENERGY     -1339.867079526437

DIPOLE MOMENT
-------------
                                X             Y             Z
Electronic contribution:     24.90383       7.65529      17.29831
Nuclear contribution   :    -25.46835      -7.72323     -17.91517
                        -----------------------------------------
Total Dipole Moment    :     -0.56452      -0.06794      -0.61686
                        -----------------------------------------
Magnitude (a.u.)       :      0.83894
Magnitude (Debye)      :      2.13240

Rotational constants in cm-1:     0.018259     0.008785     0.006189
Rotational constants in MHz :   547.381809   263.358099   185.528875

                             ****ORCA TERMINATED NORMALLY****
TOTAL RUN TIME: 0 days 0 hours 0 minutes 35 seconds 700 msec
