                         Program Version 4.2.1 -  RELEASE  -
|  1> ! wB97X-D3 SP def2-SVP
|  2> %pal
|  3> nprocs 16
|  4> end
|  5>
|  6> * xyz 0 1
|  7> S 	 -11.0804 	 66.632 	 54.2709
|  8> C 	 -11.0459 	 65.2172 	 55.331
|  9> C 	 -10.1907 	 64.1723 	 54.8898
| 10> C 	 -9.87561 	 64.4428 	 53.4931
| 11> C 	 -10.3469 	 65.5723 	 52.9624
| 12> H 	 -9.34423 	 63.771 	 52.78
| 13> C 	 -9.73851 	 62.9017 	 55.5578
| 14> H 	 -9.35396 	 63.2456 	 56.4214
| 15> H 	 -8.79413 	 62.512 	 55.0856
| 16> C 	 -10.887 	 61.8785 	 55.7771
| 17> H 	 -11.6206 	 62.3123 	 56.4447
| 18> H 	 -11.3294 	 61.7424 	 54.7766
| 19> C 	 -10.3479 	 60.5255 	 56.3213
| 20> H 	 -11.1209 	 59.7789 	 56.5396
| 21> H 	 -9.68672 	 60.0701 	 55.5562
| 22> H 	 -9.66546 	 60.6325 	 57.1458
| 23> S 	 -11.4377 	 66.3381 	 50.523
| 24> C 	 -10.413 	 66.643 	 49.1714
| 25> C 	 -9.05541 	 66.6125 	 49.529
| 26> C 	 -8.86405 	 66.3725 	 50.9459
| 27> C 	 -10.0593 	 66.0722 	 51.624
| 28> H 	 -8.32685 	 66.8075 	 48.7673
| 29> C 	 -7.46265 	 66.3301 	 51.6321
| 30> H 	 -6.77172 	 66.0663 	 50.8446
| 31> H 	 -7.50258 	 65.5081 	 52.3393
| 32> C 	 -7.09393 	 67.6636 	 52.367
| 33> H 	 -7.93279 	 67.8309 	 52.9996
| 34> H 	 -7.03452 	 68.4273 	 51.6084
| 35> C 	 -5.74584 	 67.8163 	 52.9609
| 36> H 	 -5.62446 	 67.2262 	 53.9152
| 37> H 	 -5.5786 	 68.8727 	 53.3298
| 38> H 	 -5.01459 	 67.482 	 52.2442
| 39> H 	 -11.5529 	 65.2047 	 56.2751
| 40> H 	 -10.7933 	 66.9305 	 48.2276
| 41> *
| 42>
| 43>                          ****END OF INPUT****

CARTESIAN COORDINATES (ANGSTROEM)
---------------------------------
  S    -11.080400   66.632000   54.270900
  C    -11.045900   65.217200   55.331000
  C    -10.190700   64.172300   54.889800
  C     -9.875610   64.442800   53.493100
  C    -10.346900   65.572300   52.962400
  H     -9.344230   63.771000   52.780000
  C     -9.738510   62.901700   55.557800
  H     -9.353960   63.245600   56.421400
  H     -8.794130   62.512000   55.085600
  C    -10.887000   61.878500   55.777100
  H    -11.620600   62.312300   56.444700
  H    -11.329400   61.742400   54.776600
  C    -10.347900   60.525500   56.321300
  H    -11.120900   59.778900   56.539600
  H     -9.686720   60.070100   55.556200
  H     -9.665460   60.632500   57.145800
  S    -11.437700   66.338100   50.523000
  C    -10.413000   66.643000   49.171400
  C     -9.055410   66.612500   49.529000
  C     -8.864050   66.372500   50.945900
  C    -10.059300   66.072200   51.624000
  H     -8.326850   66.807500   48.767300
  C     -7.462650   66.330100   51.632100
  H     -6.771720   66.066300   50.844600
  H     -7.502580   65.508100   52.339300
  C     -7.093930   67.663600   52.367000
  H     -7.932790   67.830900   52.999600
  H     -7.034520   68.427300   51.608400
  C     -5.745840   67.816300   52.960900
  H     -5.624460   67.226200   53.915200
  H     -5.578600   68.872700   53.329800
  H     -5.014590   67.482000   52.244200
  H    -11.552900   65.204700   56.275100
  H    -10.793300   66.930500   48.227600

 Total Charge           Charge          ....    0
 Multiplicity           Mult            ....    1
 Number of Electrons    NEL             ....  134
 Basis Dimension        Dim             ....  322

ORBITAL ENERGIES
----------------

  NO   OCC          E(Eh)            E(eV)
   0   2.0000     -88.965037     -2420.8617
   1   2.0000     -88.962697     -2420.7980
   2   2.0000     -10.327445      -281.0241
   3   2.0000     -10.327260      -281.0190
   4   2.0000     -10.321272      -280.8561
   5   2.0000     -10.317323      -280.7486
   6   2.0000     -10.312127      -280.6072
   7   2.0000     -10.309686      -280.5408
   8   2.0000     -10.297808      -280.2176
   9   2.0000     -10.295456      -280.1536
  10   2.0000     -10.294933      -280.1394
  11   2.0000     -10.292068      -280.0614
  12   2.0000     -10.290707      -280.0244
  13   2.0000     -10.282805      -279.8094
  14   2.0000     -10.280001      -279.7331
  15   2.0000     -10.276811      -279.6463
  16   2.0000      -8.078342      -219.8229
  17   2.0000      -8.077533      -219.8008
  18   2.0000      -6.036976      -164.2745
  19   2.0000      -6.035939      -164.2463
  20   2.0000      -6.033423      -164.1778
  21   2.0000      -6.031875      -164.1357
  22   2.0000      -6.028681      -164.0487
  23   2.0000      -6.028542      -164.0450
  24   2.0000      -0.997257       -27.1368
  25   2.0000      -0.975533       -26.5456
  26   2.0000      -0.910889       -24.7865
  27   2.0000      -0.905278       -24.6339
  28   2.0000      -0.866658       -23.5830
  29   2.0000      -0.850077       -23.1318
  30   2.0000      -0.845011       -22.9939
  31   2.0000      -0.814260       -22.1571
  32   2.0000      -0.781797       -21.2738
  33   2.0000      -0.767761       -20.8918
  34   2.0000      -0.711520       -19.3615
  35   2.0000      -0.698973       -19.0200
  36   2.0000      -0.688477       -18.7344
  37   2.0000      -0.660201       -17.9650
  38   2.0000      -0.644691       -17.5429
  39   2.0000      -0.615406       -16.7460
  40   2.0000      -0.587813       -15.9952
  41   2.0000      -0.572480       -15.5780
  42   2.0000      -0.566701       -15.4207
  43   2.0000      -0.557515       -15.1708
  44   2.0000      -0.528279       -14.3752
  45   2.0000      -0.522482       -14.2174
  46   2.0000      -0.519238       -14.1292
  47   2.0000      -0.511529       -13.9194
  48   2.0000      -0.504003       -13.7146
  49   2.0000      -0.497884       -13.5481
  50   2.0000      -0.490846       -13.3566
  51   2.0000      -0.477786       -13.0012
  52   2.0000      -0.467365       -12.7176
  53   2.0000      -0.461601       -12.5608
  54   2.0000      -0.454225       -12.3601
  55   2.0000      -0.448133       -12.1943
  56   2.0000      -0.446510       -12.1502
  57   2.0000      -0.439548       -11.9607
  58   2.0000      -0.429728       -11.6935
  59   2.0000      -0.427402       -11.6302
  60   2.0000      -0.423536       -11.5250
  61   2.0000      -0.417165       -11.3516
  62   2.0000      -0.406139       -11.0516
  63   2.0000      -0.338737        -9.2175
  64   2.0000      -0.328935        -8.9508
  65   2.0000      -0.322308        -8.7704
  66   2.0000      -0.300447        -8.1756
  67   0.0000       0.029701         0.8082
  68   0.0000       0.058227         1.5844
  69   0.0000       0.094349         2.5674
  70   0.0000       0.125316         3.4100
  71   0.0000       0.127203         3.4614

MULLIKEN ATOMIC CHARGES
-----------------------
   0 S :    0.094221
   1 C :   -0.117976
   2 C :   -0.106486
   3 C :    0.016321
   4 C :   -0.131516
   5 H :    0.034169
   6 C :    0.108049
   7 H :   -0.004889
   8 H :    0.025020
   9 C :   -0.066518
  10 H :    0.035013
  11 H :    0.042514
  12 C :   -0.043911
  13 H :    0.045336
  14 H :    0.024761
  15 H :    0.024323
  16 S :    0.107492
  17 C :   -0.082262
  18 C :   -0.039219
  19 C :   -0.038836
  20 C :   -0.199742
  21 H :    0.017216
  22 C :    0.089497
  23 H :    0.010397
  24 H :    0.017002
  25 C :   -0.051265
  26 H :    0.025310
  27 H :    0.017890
  28 C :   -0.047437
  29 H :    0.028017
  30 H :    0.045325
  31 H :    0.031361
  32 H :    0.042579
  33 H :    0.048243
Sum of atomic charges:    0.0000000

LOEWDIN ATOMIC CHARGES
----------------------
   0 S :    0.351837
   1 C :   -0.179056
   2 C :   -0.053765
   3 C :   -0.057909
   4 C :   -0.177838
   5 H :    0.041002
   6 C :   -0.032226
   7 H :    0.015676
   8 H :    0.038943
   9 C :   -0.030149
  10 H :    0.023862
  11 H :    0.030388
  12 C :   -0.070655
  13 H :    0.028965
  14 H :    0.028379
  15 H :    0.021471
  16 S :    0.408884
  17 C :   -0.181858
  18 C :   -0.075870
  19 C :   -0.042196
  20 C :   -0.202943
  21 H :    0.029309
  22 C :   -0.024005
  23 H :    0.022837
  24 H :    0.025299
  25 C :   -0.041237
  26 H :    0.020515
  27 H :    0.024680
  28 C :   -0.068652
  29 H :    0.024543
  30 H :    0.036139
  31 H :    0.024094
  32 H :    0.020077
  33 H :    0.021456

  Mayer bond orders larger than 0.100000
B(  0-S ,  1-C ) :   1.1374 B(  0-S ,  4-C ) :   1.0881 B(  1-C ,  2-C ) :   1.6267
B(  1-C , 32-H ) :   0.9718 B(  2-C ,  3-C ) :   1.1881 B(  2-C ,  6-C ) :   1.0175
B(  3-C ,  4-C ) :   1.6699 B(  3-C ,  5-H ) :   0.9801 B(  4-C , 20-C ) :   1.0388
B(  6-C ,  7-H ) :   0.9153 B(  6-C ,  8-H ) :   0.9456 B(  6-C ,  9-C ) :   1.0504
B(  9-C , 10-H ) :   0.9569 B(  9-C , 11-H ) :   0.9624 B(  9-C , 12-C ) :   1.0760
B( 12-C , 13-H ) :   0.9758 B( 12-C , 14-H ) :   0.9742 B( 12-C , 15-H ) :   0.9753
B( 16-S , 17-C ) :   1.1831 B( 16-S , 20-C ) :   1.1361 B( 17-C , 18-C ) :   1.5808
B( 17-C , 20-C ) :   0.1034 B( 17-C , 33-H ) :   0.9728 B( 18-C , 19-C ) :   1.2473
B( 18-C , 21-H ) :   0.9958 B( 19-C , 20-C ) :   1.5790 B( 19-C , 22-C ) :   1.0339
B( 22-C , 23-H ) :   0.9322 B( 22-C , 24-H ) :   0.9348 B( 22-C , 25-C ) :   1.0616
B( 25-C , 26-H ) :   0.9554 B( 25-C , 27-H ) :   0.9541 B( 25-C , 28-C ) :   1.0889
B( 28-C , 29-H ) :   0.9721 B( 28-C , 30-H ) :   0.9723 B( 28-C , 31-H ) :   0.9704

Dispersion correction           -0.014031975
FINAL SINGLE POINT ENERGY     -1339.862847076396

DIPOLE MOMENT
-------------
                                X             Y             Z
Electronic contribution:    -17.78370      12.74593     -11.90828
Nuclear contribution   :     18.31432     -13.13384      12.01604
                        -----------------------------------------
Total Dipole Moment    :      0.53062      -0.38792       0.10777
                        -----------------------------------------
Magnitude (a.u.)       :      0.66607
Magnitude (Debye)      :      1.69302

Rotational constants in cm-1:     0.017869     0.007677     0.006649
Rotational constants in MHz :   535.684886   230.149295   199.332439

                             ****ORCA TERMINATED NORMALLY****
TOTAL RUN TIME: 0 days 0 hours 0 minutes 34 seconds 257 msec
