                         Program Version 4.2.1 -  RELEASE  -
|  1> ! wB97X-D3 SP def2-SVP
|  2> %pal
|  3> nprocs 16
|  4> end
|  5>
|  6> * xyz 0 1
|  7> S 	 68.0241 	 20.7051 	 76.6243
|  8> C 	 69.7265 	 20.8738 	 77.02
|  9> C 	 70.0996 	 22.2234 	 76.9457
| 10> C 	 69.0158 	 23.0419 	 76.5574
| 11> C 	 67.8335 	 22.4034 	 76.4127
| 12> H 	 69.0481 	 24.0936 	 76.3484
| 13> C 	 71.4762 	 22.5748 	 77.3229
| 14> H 	 72.0145 	 23.1921 	 76.6266
| 15> H 	 72.0658 	 21.7055 	 77.441
| 16> C 	 71.4614 	 23.5094 	 78.6517
| 17> H 	 70.8411 	 24.341 	 78.506
| 18> H 	 70.9581 	 22.9003 	 79.4129
| 19> C 	 72.8986 	 23.8102 	 79.0905
| 20> H 	 73.7206 	 23.0934 	 78.8415
| 21> H 	 73.2167 	 24.8255 	 78.8266
| 22> H 	 72.9949 	 23.7972 	 80.1712
| 23> S 	 65.3891 	 21.9639 	 75.1417
| 24> C 	 64.2222 	 23.2289 	 74.9377
| 25> C 	 64.8102 	 24.4163 	 75.3251
| 26> C 	 66.0485 	 24.3347 	 76.038
| 27> C 	 66.5101 	 22.9855 	 76.0798
| 28> H 	 64.2283 	 25.3219 	 75.1346
| 29> C 	 66.8121 	 25.5635 	 76.4925
| 30> H 	 67.3643 	 25.2651 	 77.2998
| 31> H 	 66.1103 	 26.2891 	 76.9042
| 32> C 	 67.7803 	 26.281 	 75.5273
| 33> H 	 67.1911 	 26.8759 	 74.7778
| 34> H 	 68.5126 	 25.6336 	 75.0102
| 35> C 	 68.6579 	 27.4258 	 76.2373
| 36> H 	 69.4624 	 27.7784 	 75.6312
| 37> H 	 69.0482 	 26.9029 	 77.1057
| 38> H 	 68.0089 	 28.2913 	 76.4522
| 39> H 	 70.3877 	 20.0366 	 77.3876
| 40> H 	 63.2378 	 23.0474 	 74.5029
| 41> *
| 42>
| 43>                          ****END OF INPUT****

CARTESIAN COORDINATES (ANGSTROEM)
---------------------------------
  S     68.024100   20.705100   76.624300
  C     69.726500   20.873800   77.020000
  C     70.099600   22.223400   76.945700
  C     69.015800   23.041900   76.557400
  C     67.833500   22.403400   76.412700
  H     69.048100   24.093600   76.348400
  C     71.476200   22.574800   77.322900
  H     72.014500   23.192100   76.626600
  H     72.065800   21.705500   77.441000
  C     71.461400   23.509400   78.651700
  H     70.841100   24.341000   78.506000
  H     70.958100   22.900300   79.412900
  C     72.898600   23.810200   79.090500
  H     73.720600   23.093400   78.841500
  H     73.216700   24.825500   78.826600
  H     72.994900   23.797200   80.171200
  S     65.389100   21.963900   75.141700
  C     64.222200   23.228900   74.937700
  C     64.810200   24.416300   75.325100
  C     66.048500   24.334700   76.038000
  C     66.510100   22.985500   76.079800
  H     64.228300   25.321900   75.134600
  C     66.812100   25.563500   76.492500
  H     67.364300   25.265100   77.299800
  H     66.110300   26.289100   76.904200
  C     67.780300   26.281000   75.527300
  H     67.191100   26.875900   74.777800
  H     68.512600   25.633600   75.010200
  C     68.657900   27.425800   76.237300
  H     69.462400   27.778400   75.631200
  H     69.048200   26.902900   77.105700
  H     68.008900   28.291300   76.452200
  H     70.387700   20.036600   77.387600
  H     63.237800   23.047400   74.502900

 Total Charge           Charge          ....    0
 Multiplicity           Mult            ....    1
 Number of Electrons    NEL             ....  134
 Basis Dimension        Dim             ....  322

ORBITAL ENERGIES
----------------

  NO   OCC          E(Eh)            E(eV)
   0   2.0000     -88.964524     -2420.8478
   1   2.0000     -88.964106     -2420.8364
   2   2.0000     -10.337427      -281.2957
   3   2.0000     -10.329233      -281.0727
   4   2.0000     -10.319090      -280.7967
   5   2.0000     -10.317876      -280.7637
   6   2.0000     -10.311738      -280.5966
   7   2.0000     -10.300258      -280.2843
   8   2.0000     -10.299370      -280.2601
   9   2.0000     -10.295844      -280.1642
  10   2.0000     -10.291410      -280.0435
  11   2.0000     -10.289739      -279.9980
  12   2.0000     -10.289388      -279.9885
  13   2.0000     -10.288491      -279.9641
  14   2.0000     -10.284709      -279.8612
  15   2.0000     -10.281658      -279.7781
  16   2.0000      -8.079731      -219.8606
  17   2.0000      -8.078754      -219.8341
  18   2.0000      -6.038198      -164.3077
  19   2.0000      -6.037282      -164.2828
  20   2.0000      -6.034163      -164.1979
  21   2.0000      -6.033188      -164.1714
  22   2.0000      -6.030513      -164.0986
  23   2.0000      -6.029587      -164.0734
  24   2.0000      -1.009229       -27.4625
  25   2.0000      -0.985042       -26.8044
  26   2.0000      -0.910546       -24.7772
  27   2.0000      -0.908325       -24.7168
  28   2.0000      -0.866122       -23.5684
  29   2.0000      -0.851972       -23.1833
  30   2.0000      -0.844271       -22.9738
  31   2.0000      -0.819154       -22.2903
  32   2.0000      -0.785264       -21.3681
  33   2.0000      -0.769475       -20.9385
  34   2.0000      -0.713019       -19.4022
  35   2.0000      -0.700699       -19.0670
  36   2.0000      -0.692406       -18.8413
  37   2.0000      -0.661661       -18.0047
  38   2.0000      -0.641444       -17.4546
  39   2.0000      -0.625906       -17.0318
  40   2.0000      -0.599963       -16.3258
  41   2.0000      -0.573409       -15.6033
  42   2.0000      -0.568211       -15.4618
  43   2.0000      -0.555978       -15.1289
  44   2.0000      -0.528423       -14.3791
  45   2.0000      -0.522389       -14.2149
  46   2.0000      -0.519172       -14.1274
  47   2.0000      -0.514138       -13.9904
  48   2.0000      -0.502947       -13.6859
  49   2.0000      -0.499593       -13.5946
  50   2.0000      -0.493927       -13.4404
  51   2.0000      -0.484686       -13.1890
  52   2.0000      -0.476188       -12.9577
  53   2.0000      -0.466188       -12.6856
  54   2.0000      -0.462173       -12.5764
  55   2.0000      -0.458586       -12.4787
  56   2.0000      -0.450841       -12.2680
  57   2.0000      -0.441744       -12.0205
  58   2.0000      -0.434221       -11.8157
  59   2.0000      -0.424930       -11.5629
  60   2.0000      -0.415745       -11.3130
  61   2.0000      -0.412064       -11.2128
  62   2.0000      -0.410939       -11.1822
  63   2.0000      -0.356385        -9.6977
  64   2.0000      -0.331750        -9.0274
  65   2.0000      -0.327083        -8.9004
  66   2.0000      -0.284865        -7.7516
  67   0.0000       0.018830         0.5124
  68   0.0000       0.084843         2.3087
  69   0.0000       0.101567         2.7638
  70   0.0000       0.121650         3.3103
  71   0.0000       0.122824         3.3422

MULLIKEN ATOMIC CHARGES
-----------------------
   0 S :    0.104239
   1 C :   -0.150351
   2 C :   -0.071406
   3 C :    0.013796
   4 C :   -0.105905
   5 H :   -0.036364
   6 C :    0.090168
   7 H :    0.024085
   8 H :    0.006855
   9 C :   -0.079895
  10 H :    0.025328
  11 H :    0.033407
  12 C :   -0.051930
  13 H :    0.037294
  14 H :    0.033824
  15 H :    0.022876
  16 S :    0.083317
  17 C :   -0.101957
  18 C :   -0.037558
  19 C :   -0.054174
  20 C :   -0.101979
  21 H :    0.021665
  22 C :    0.107956
  23 H :   -0.005462
  24 H :    0.022795
  25 C :   -0.117566
  26 H :    0.035163
  27 H :    0.053031
  28 C :   -0.058493
  29 H :    0.037913
  30 H :    0.029391
  31 H :    0.043612
  32 H :    0.074727
  33 H :    0.071597
Sum of atomic charges:    0.0000000

LOEWDIN ATOMIC CHARGES
----------------------
   0 S :    0.410600
   1 C :   -0.206465
   2 C :   -0.060556
   3 C :   -0.072161
   4 C :   -0.192657
   5 H :    0.026891
   6 C :   -0.022746
   7 H :    0.026898
   8 H :    0.023256
   9 C :   -0.028651
  10 H :    0.016145
  11 H :    0.025680
  12 C :   -0.078745
  13 H :    0.032369
  14 H :    0.026722
  15 H :    0.026419
  16 S :    0.397549
  17 C :   -0.191792
  18 C :   -0.073833
  19 C :   -0.054923
  20 C :   -0.179875
  21 H :    0.031940
  22 C :   -0.033189
  23 H :    0.015930
  24 H :    0.036087
  25 C :   -0.041248
  26 H :    0.026914
  27 H :    0.024576
  28 C :   -0.061760
  29 H :    0.023495
  30 H :    0.020737
  31 H :    0.028266
  32 H :    0.042338
  33 H :    0.035785

  Mayer bond orders larger than 0.100000
B(  0-S ,  1-C ) :   1.1376 B(  0-S ,  4-C ) :   1.1580 B(  1-C ,  2-C ) :   1.5834
B(  1-C , 32-H ) :   0.9611 B(  2-C ,  3-C ) :   1.2405 B(  2-C ,  6-C ) :   1.0595
B(  3-C ,  4-C ) :   1.5683 B(  3-C ,  5-H ) :   0.9976 B(  4-C , 20-C ) :   1.0408
B(  6-C ,  7-H ) :   0.9351 B(  6-C ,  8-H ) :   0.9401 B(  6-C ,  9-C ) :   1.0374
B(  9-C , 10-H ) :   0.9644 B(  9-C , 11-H ) :   0.9639 B(  9-C , 12-C ) :   1.0660
B( 12-C , 13-H ) :   0.9754 B( 12-C , 14-H ) :   0.9764 B( 12-C , 15-H ) :   0.9754
B( 16-S , 17-C ) :   1.1578 B( 16-S , 20-C ) :   1.1539 B( 17-C , 18-C ) :   1.5767
B( 17-C , 20-C ) :   0.1049 B( 17-C , 33-H ) :   0.9707 B( 18-C , 19-C ) :   1.2655
B( 18-C , 21-H ) :   0.9900 B( 19-C , 20-C ) :   1.5482 B( 19-C , 22-C ) :   1.0545
B( 22-C , 23-H ) :   0.9245 B( 22-C , 24-H ) :   0.9267 B( 22-C , 25-C ) :   1.0523
B( 25-C , 26-H ) :   0.9567 B( 25-C , 27-H ) :   0.9552 B( 25-C , 28-C ) :   1.0633
B( 28-C , 29-H ) :   0.9773 B( 28-C , 30-H ) :   0.9785 B( 28-C , 31-H ) :   0.9800

Dispersion correction           -0.014118313
FINAL SINGLE POINT ENERGY     -1339.868152732849

DIPOLE MOMENT
-------------
                                X             Y             Z
Electronic contribution:    -22.20945     -23.57800      -9.42504
Nuclear contribution   :     22.57604      24.24122       9.53683
                        -----------------------------------------
Total Dipole Moment    :      0.36658       0.66322       0.11179
                        -----------------------------------------
Magnitude (a.u.)       :      0.76599
Magnitude (Debye)      :      1.94699

Rotational constants in cm-1:     0.018017     0.009368     0.006388
Rotational constants in MHz :   540.141724   280.835132   191.515224

                             ****ORCA TERMINATED NORMALLY****
TOTAL RUN TIME: 0 days 0 hours 0 minutes 28 seconds 739 msec
