                         Program Version 4.2.1 -  RELEASE  -
|  1> ! wB97X-D3 SP def2-SVP
|  2> %pal
|  3> nprocs 16
|  4> end
|  5>
|  6> * xyz 0 1
|  7> S 	 -47.3217 	 32.0266 	 96.972
|  8> C 	 -47.6137 	 33.7129 	 96.6729
|  9> C 	 -47.6704 	 34.3496 	 97.9002
| 10> C 	 -47.8416 	 33.4768 	 99.0111
| 11> C 	 -47.8249 	 32.17 	 98.6552
| 12> H 	 -47.8998 	 33.7404 	 100.063
| 13> C 	 -47.483 	 35.8473 	 98.046
| 14> H 	 -46.5438 	 36.1327 	 97.4249
| 15> H 	 -47.2191 	 36.2062 	 99.068
| 16> C 	 -48.7212 	 36.6323 	 97.4745
| 17> H 	 -48.4464 	 37.6514 	 97.2648
| 18> H 	 -49.0369 	 36.1838 	 96.5193
| 19> C 	 -49.8298 	 36.5979 	 98.5414
| 20> H 	 -50.2104 	 35.5849 	 98.5407
| 21> H 	 -49.5455 	 36.869 	 99.5549
| 22> H 	 -50.7177 	 37.1357 	 98.2853
| 23> S 	 -46.9948 	 29.5951 	 99.1049
| 24> C 	 -47.5115 	 28.7728 	 100.531
| 25> C 	 -48.2977 	 29.503 	 101.308
| 26> C 	 -48.5518 	 30.841 	 100.756
| 27> C 	 -47.9263 	 31.0243 	 99.557
| 28> H 	 -48.7754 	 29.1105 	 102.248
| 29> C 	 -49.5877 	 31.7878 	 101.409
| 30> H 	 -50.5445 	 31.3067 	 101.456
| 31> H 	 -49.7157 	 32.7144 	 100.779
| 32> C 	 -49.2479 	 32.3095 	 102.859
| 33> H 	 -49.0778 	 31.4412 	 103.537
| 34> H 	 -50.0436 	 32.9227 	 103.247
| 35> C 	 -48.0308 	 33.1827 	 102.869
| 36> H 	 -47.5859 	 33.0833 	 103.882
| 37> H 	 -48.2814 	 34.2394 	 102.785
| 38> H 	 -47.4002 	 32.8859 	 102.121
| 39> H 	 -47.4441 	 34.1748 	 95.6915
| 40> H 	 -47.2395 	 27.6741 	 100.795
| 41> *
| 42>
| 43>                          ****END OF INPUT****

CARTESIAN COORDINATES (ANGSTROEM)
---------------------------------
  S    -47.321700   32.026600   96.972000
  C    -47.613700   33.712900   96.672900
  C    -47.670400   34.349600   97.900200
  C    -47.841600   33.476800   99.011100
  C    -47.824900   32.170000   98.655200
  H    -47.899800   33.740400  100.063000
  C    -47.483000   35.847300   98.046000
  H    -46.543800   36.132700   97.424900
  H    -47.219100   36.206200   99.068000
  C    -48.721200   36.632300   97.474500
  H    -48.446400   37.651400   97.264800
  H    -49.036900   36.183800   96.519300
  C    -49.829800   36.597900   98.541400
  H    -50.210400   35.584900   98.540700
  H    -49.545500   36.869000   99.554900
  H    -50.717700   37.135700   98.285300
  S    -46.994800   29.595100   99.104900
  C    -47.511500   28.772800  100.531000
  C    -48.297700   29.503000  101.308000
  C    -48.551800   30.841000  100.756000
  C    -47.926300   31.024300   99.557000
  H    -48.775400   29.110500  102.248000
  C    -49.587700   31.787800  101.409000
  H    -50.544500   31.306700  101.456000
  H    -49.715700   32.714400  100.779000
  C    -49.247900   32.309500  102.859000
  H    -49.077800   31.441200  103.537000
  H    -50.043600   32.922700  103.247000
  C    -48.030800   33.182700  102.869000
  H    -47.585900   33.083300  103.882000
  H    -48.281400   34.239400  102.785000
  H    -47.400200   32.885900  102.121000
  H    -47.444100   34.174800   95.691500
  H    -47.239500   27.674100  100.795000

 Total Charge           Charge          ....    0
 Multiplicity           Mult            ....    1
 Number of Electrons    NEL             ....  134
 Basis Dimension        Dim             ....  322

ORBITAL ENERGIES
----------------

  NO   OCC          E(Eh)            E(eV)
   0   2.0000     -88.964550     -2420.8485
   1   2.0000     -88.963280     -2420.8139
   2   2.0000     -10.329183      -281.0714
   3   2.0000     -10.328994      -281.0662
   4   2.0000     -10.319482      -280.8074
   5   2.0000     -10.315656      -280.7033
   6   2.0000     -10.307923      -280.4929
   7   2.0000     -10.302765      -280.3525
   8   2.0000     -10.301192      -280.3097
   9   2.0000     -10.297743      -280.2158
  10   2.0000     -10.296304      -280.1767
  11   2.0000     -10.291344      -280.0417
  12   2.0000     -10.289502      -279.9916
  13   2.0000     -10.286792      -279.9178
  14   2.0000     -10.271957      -279.5142
  15   2.0000     -10.268429      -279.4182
  16   2.0000      -8.079509      -219.8546
  17   2.0000      -8.078818      -219.8358
  18   2.0000      -6.038120      -164.3056
  19   2.0000      -6.037551      -164.2901
  20   2.0000      -6.034204      -164.1990
  21   2.0000      -6.033332      -164.1753
  22   2.0000      -6.029925      -164.0826
  23   2.0000      -6.029179      -164.0623
  24   2.0000      -1.012723       -27.5576
  25   2.0000      -0.990397       -26.9501
  26   2.0000      -0.908912       -24.7327
  27   2.0000      -0.907474       -24.6936
  28   2.0000      -0.873458       -23.7680
  29   2.0000      -0.852944       -23.2098
  30   2.0000      -0.842992       -22.9390
  31   2.0000      -0.819558       -22.3013
  32   2.0000      -0.781445       -21.2642
  33   2.0000      -0.769073       -20.9276
  34   2.0000      -0.704426       -19.1684
  35   2.0000      -0.703837       -19.1524
  36   2.0000      -0.688898       -18.7459
  37   2.0000      -0.658287       -17.9129
  38   2.0000      -0.638384       -17.3713
  39   2.0000      -0.616683       -16.7808
  40   2.0000      -0.594165       -16.1680
  41   2.0000      -0.573240       -15.5986
  42   2.0000      -0.562391       -15.3034
  43   2.0000      -0.549067       -14.9409
  44   2.0000      -0.545400       -14.8411
  45   2.0000      -0.531801       -14.4710
  46   2.0000      -0.516158       -14.0454
  47   2.0000      -0.511410       -13.9162
  48   2.0000      -0.503683       -13.7059
  49   2.0000      -0.502661       -13.6781
  50   2.0000      -0.487709       -13.2712
  51   2.0000      -0.480712       -13.0808
  52   2.0000      -0.472309       -12.8522
  53   2.0000      -0.465254       -12.6602
  54   2.0000      -0.459180       -12.4949
  55   2.0000      -0.448793       -12.2123
  56   2.0000      -0.443451       -12.0669
  57   2.0000      -0.434926       -11.8349
  58   2.0000      -0.432416       -11.7666
  59   2.0000      -0.428221       -11.6525
  60   2.0000      -0.416041       -11.3211
  61   2.0000      -0.415831       -11.3153
  62   2.0000      -0.411979       -11.2105
  63   2.0000      -0.364818        -9.9272
  64   2.0000      -0.334192        -9.0938
  65   2.0000      -0.324186        -8.8216
  66   2.0000      -0.288053        -7.8383
  67   0.0000       0.022648         0.6163
  68   0.0000       0.075599         2.0571
  69   0.0000       0.102105         2.7784
  70   0.0000       0.121042         3.2937
  71   0.0000       0.132889         3.6161

MULLIKEN ATOMIC CHARGES
-----------------------
   0 S :    0.095875
   1 C :   -0.121343
   2 C :   -0.071905
   3 C :    0.011411
   4 C :   -0.099853
   5 H :   -0.007675
   6 C :   -0.005643
   7 H :    0.045344
   8 H :    0.033001
   9 C :   -0.052307
  10 H :    0.024847
  11 H :    0.031546
  12 C :   -0.038318
  13 H :    0.027215
  14 H :    0.028406
  15 H :    0.023015
  16 S :    0.089108
  17 C :   -0.101899
  18 C :   -0.037222
  19 C :   -0.074258
  20 C :   -0.121026
  21 H :    0.038300
  22 C :    0.025660
  23 H :    0.037126
  24 H :    0.032094
  25 C :   -0.086169
  26 H :    0.032850
  27 H :    0.028864
  28 C :   -0.038388
  29 H :    0.035039
  30 H :    0.031083
  31 H :    0.035320
  32 H :    0.063480
  33 H :    0.086424
Sum of atomic charges:   -0.0000000

LOEWDIN ATOMIC CHARGES
----------------------
   0 S :    0.398536
   1 C :   -0.201634
   2 C :   -0.063086
   3 C :   -0.069062
   4 C :   -0.179935
   5 H :    0.032098
   6 C :   -0.037435
   7 H :    0.038027
   8 H :    0.029887
   9 C :   -0.033140
  10 H :    0.016666
  11 H :    0.025959
  12 C :   -0.067662
  13 H :    0.027289
  14 H :    0.022829
  15 H :    0.021344
  16 S :    0.391211
  17 C :   -0.199288
  18 C :   -0.081252
  19 C :   -0.063369
  20 C :   -0.181389
  21 H :    0.041904
  22 C :   -0.031686
  23 H :    0.029418
  24 H :    0.033648
  25 C :   -0.039878
  26 H :    0.022590
  27 H :    0.023752
  28 C :   -0.063437
  29 H :    0.035074
  30 H :    0.025038
  31 H :    0.010371
  32 H :    0.034132
  33 H :    0.052479

  Mayer bond orders larger than 0.100000
B(  0-S ,  1-C ) :   1.1332 B(  0-S ,  4-C ) :   1.1501 B(  1-C ,  2-C ) :   1.5917
B(  1-C , 32-H ) :   0.9687 B(  2-C ,  3-C ) :   1.2419 B(  2-C ,  6-C ) :   1.0144
B(  3-C ,  4-C ) :   1.5586 B(  3-C ,  5-H ) :   0.9954 B(  4-C , 20-C ) :   1.0594
B(  6-C ,  7-H ) :   0.9451 B(  6-C ,  8-H ) :   0.9551 B(  6-C ,  9-C ) :   1.0601
B(  9-C , 10-H ) :   0.9593 B(  9-C , 11-H ) :   0.9597 B(  9-C , 12-C ) :   1.0687
B( 12-C , 13-H ) :   0.9742 B( 12-C , 14-H ) :   0.9771 B( 12-C , 15-H ) :   0.9726
B( 16-S , 17-C ) :   1.1306 B( 16-S , 20-C ) :   1.1136 B( 17-C , 18-C ) :   1.6800
B( 17-C , 33-H ) :   0.9491 B( 18-C , 19-C ) :   1.1876 B( 18-C , 21-H ) :   0.9809
B( 19-C , 20-C ) :   1.6590 B( 19-C , 22-C ) :   1.0319 B( 22-C , 23-H ) :   0.9413
B( 22-C , 24-H ) :   0.9430 B( 22-C , 25-C ) :   1.0683 B( 25-C , 26-H ) :   0.9635
B( 25-C , 27-H ) :   0.9569 B( 25-C , 28-C ) :   1.0761 B( 28-C , 29-H ) :   0.9696
B( 28-C , 30-H ) :   0.9732 B( 28-C , 31-H ) :   0.9718

Dispersion correction           -0.014981735
FINAL SINGLE POINT ENERGY     -1339.874470288573

DIPOLE MOMENT
-------------
                                X             Y             Z
Electronic contribution:     10.34146     -23.70397     -14.48659
Nuclear contribution   :    -10.54375      24.11295      14.96542
                        -----------------------------------------
Total Dipole Moment    :     -0.20228       0.40899       0.47883
                        -----------------------------------------
Magnitude (a.u.)       :      0.66141
Magnitude (Debye)      :      1.68117

Rotational constants in cm-1:     0.019105     0.009784     0.006922
Rotational constants in MHz :   572.766866   293.325351   207.525666

                             ****ORCA TERMINATED NORMALLY****
TOTAL RUN TIME: 0 days 0 hours 0 minutes 31 seconds 666 msec
