                         Program Version 4.2.1 -  RELEASE  -
|  1> ! wB97X-D3 SP def2-SVP
|  2> %pal
|  3> nprocs 16
|  4> end
|  5>
|  6> * xyz 0 1
|  7> S 	 -18.0332 	 33.5639 	 42.8551
|  8> C 	 -17.3128 	 32.6359 	 44.1964
|  9> C 	 -18.331 	 32.0641 	 44.9312
| 10> C 	 -19.6307 	 32.4117 	 44.5427
| 11> C 	 -19.6688 	 33.2611 	 43.4439
| 12> H 	 -20.5108 	 31.9879 	 44.9132
| 13> C 	 -18.1016 	 31.0172 	 46.063
| 14> H 	 -18.6316 	 31.4197 	 46.9613
| 15> H 	 -17.0408 	 31.0797 	 46.3301
| 16> C 	 -18.4979 	 29.5546 	 45.7729
| 17> H 	 -19.5813 	 29.3419 	 45.7402
| 18> H 	 -18.1773 	 29.358 	 44.728
| 19> C 	 -17.8469 	 28.6603 	 46.8695
| 20> H 	 -17.9557 	 29.1451 	 47.8939
| 21> H 	 -18.3827 	 27.7119 	 46.8742
| 22> H 	 -16.8004 	 28.5125 	 46.6014
| 23> S 	 -20.6169 	 33.4025 	 40.8701
| 24> C 	 -22.1944 	 34.0008 	 40.5109
| 25> C 	 -22.9988 	 34.0618 	 41.576
| 26> C 	 -22.1819 	 33.7881 	 42.7555
| 27> C 	 -20.8063 	 33.664 	 42.5892
| 28> H 	 -24.0895 	 34.3904 	 41.4666
| 29> C 	 -22.9141 	 33.8381 	 44.034
| 30> H 	 -23.5766 	 34.7796 	 44.0776
| 31> H 	 -22.1117 	 34.001 	 44.8322
| 32> C 	 -23.5443 	 32.4341 	 44.3311
| 33> H 	 -22.787 	 31.6794 	 44.2163
| 34> H 	 -24.2859 	 32.2418 	 43.5869
| 35> C 	 -24.2958 	 32.2076 	 45.683
| 36> H 	 -23.5614 	 32.3575 	 46.4689
| 37> H 	 -24.5534 	 31.0366 	 45.7036
| 38> H 	 -25.2279 	 32.7365 	 45.7349
| 39> H 	 -16.3403 	 32.2172 	 44.3473
| 40> H 	 -22.4996 	 34.2242 	 39.4769
| 41> *
| 42>
| 43>                          ****END OF INPUT****

CARTESIAN COORDINATES (ANGSTROEM)
---------------------------------
  S    -18.033200   33.563900   42.855100
  C    -17.312800   32.635900   44.196400
  C    -18.331000   32.064100   44.931200
  C    -19.630700   32.411700   44.542700
  C    -19.668800   33.261100   43.443900
  H    -20.510800   31.987900   44.913200
  C    -18.101600   31.017200   46.063000
  H    -18.631600   31.419700   46.961300
  H    -17.040800   31.079700   46.330100
  C    -18.497900   29.554600   45.772900
  H    -19.581300   29.341900   45.740200
  H    -18.177300   29.358000   44.728000
  C    -17.846900   28.660300   46.869500
  H    -17.955700   29.145100   47.893900
  H    -18.382700   27.711900   46.874200
  H    -16.800400   28.512500   46.601400
  S    -20.616900   33.402500   40.870100
  C    -22.194400   34.000800   40.510900
  C    -22.998800   34.061800   41.576000
  C    -22.181900   33.788100   42.755500
  C    -20.806300   33.664000   42.589200
  H    -24.089500   34.390400   41.466600
  C    -22.914100   33.838100   44.034000
  H    -23.576600   34.779600   44.077600
  H    -22.111700   34.001000   44.832200
  C    -23.544300   32.434100   44.331100
  H    -22.787000   31.679400   44.216300
  H    -24.285900   32.241800   43.586900
  C    -24.295800   32.207600   45.683000
  H    -23.561400   32.357500   46.468900
  H    -24.553400   31.036600   45.703600
  H    -25.227900   32.736500   45.734900
  H    -16.340300   32.217200   44.347300
  H    -22.499600   34.224200   39.476900

 Total Charge           Charge          ....    0
 Multiplicity           Mult            ....    1
 Number of Electrons    NEL             ....  134
 Basis Dimension        Dim             ....  322

ORBITAL ENERGIES
----------------

  NO   OCC          E(Eh)            E(eV)
   0   2.0000     -88.970699     -2421.0158
   1   2.0000     -88.957919     -2420.6680
   2   2.0000     -10.338994      -281.3383
   3   2.0000     -10.330305      -281.1019
   4   2.0000     -10.314866      -280.6818
   5   2.0000     -10.314075      -280.6603
   6   2.0000     -10.305440      -280.4253
   7   2.0000     -10.299949      -280.2759
   8   2.0000     -10.298535      -280.2374
   9   2.0000     -10.298034      -280.2238
  10   2.0000     -10.297322      -280.2044
  11   2.0000     -10.294531      -280.1284
  12   2.0000     -10.291320      -280.0411
  13   2.0000     -10.290191      -280.0103
  14   2.0000     -10.288094      -279.9533
  15   2.0000     -10.287868      -279.9471
  16   2.0000      -8.084201      -219.9823
  17   2.0000      -8.073883      -219.7015
  18   2.0000      -6.042896      -164.4355
  19   2.0000      -6.038833      -164.3250
  20   2.0000      -6.034857      -164.2168
  21   2.0000      -6.032480      -164.1521
  22   2.0000      -6.028389      -164.0408
  23   2.0000      -6.024260      -163.9285
  24   2.0000      -1.010956       -27.5095
  25   2.0000      -0.987841       -26.8805
  26   2.0000      -0.908013       -24.7083
  27   2.0000      -0.905333       -24.6354
  28   2.0000      -0.872851       -23.7515
  29   2.0000      -0.849660       -23.1204
  30   2.0000      -0.843776       -22.9603
  31   2.0000      -0.820878       -22.3372
  32   2.0000      -0.776162       -21.1204
  33   2.0000      -0.765582       -20.8326
  34   2.0000      -0.708982       -19.2924
  35   2.0000      -0.697718       -18.9859
  36   2.0000      -0.692100       -18.8330
  37   2.0000      -0.659841       -17.9552
  38   2.0000      -0.639148       -17.3921
  39   2.0000      -0.624883       -17.0039
  40   2.0000      -0.589949       -16.0533
  41   2.0000      -0.570877       -15.5344
  42   2.0000      -0.566476       -15.4146
  43   2.0000      -0.561429       -15.2772
  44   2.0000      -0.527529       -14.3548
  45   2.0000      -0.524458       -14.2712
  46   2.0000      -0.511805       -13.9269
  47   2.0000      -0.508176       -13.8282
  48   2.0000      -0.505476       -13.7547
  49   2.0000      -0.501603       -13.6493
  50   2.0000      -0.498497       -13.5648
  51   2.0000      -0.473643       -12.8885
  52   2.0000      -0.471484       -12.8297
  53   2.0000      -0.466724       -12.7002
  54   2.0000      -0.454675       -12.3723
  55   2.0000      -0.453462       -12.3393
  56   2.0000      -0.445461       -12.1216
  57   2.0000      -0.443308       -12.0630
  58   2.0000      -0.432154       -11.7595
  59   2.0000      -0.419155       -11.4058
  60   2.0000      -0.415798       -11.3144
  61   2.0000      -0.410194       -11.1619
  62   2.0000      -0.408320       -11.1109
  63   2.0000      -0.357411        -9.7256
  64   2.0000      -0.334354        -9.0982
  65   2.0000      -0.323023        -8.7899
  66   2.0000      -0.292605        -7.9622
  67   0.0000       0.019740         0.5372
  68   0.0000       0.078316         2.1311
  69   0.0000       0.105221         2.8632
  70   0.0000       0.118280         3.2186
  71   0.0000       0.128776         3.5042

MULLIKEN ATOMIC CHARGES
-----------------------
   0 S :    0.100822
   1 C :   -0.082548
   2 C :   -0.126399
   3 C :    0.064509
   4 C :   -0.135606
   5 H :   -0.024899
   6 C :    0.035387
   7 H :    0.038164
   8 H :    0.015086
   9 C :   -0.082642
  10 H :    0.033640
  11 H :    0.037941
  12 C :   -0.066737
  13 H :    0.047747
  14 H :    0.038032
  15 H :    0.045502
  16 S :    0.074476
  17 C :   -0.082844
  18 C :   -0.032960
  19 C :   -0.099837
  20 C :   -0.063726
  21 H :    0.056796
  22 C :   -0.006945
  23 H :    0.050617
  24 H :    0.025817
  25 C :   -0.076516
  26 H :    0.028290
  27 H :    0.017304
  28 C :   -0.054832
  29 H :    0.036829
  30 H :    0.042845
  31 H :    0.045873
  32 H :    0.040704
  33 H :    0.060109
Sum of atomic charges:   -0.0000000

LOEWDIN ATOMIC CHARGES
----------------------
   0 S :    0.396593
   1 C :   -0.196564
   2 C :   -0.062768
   3 C :   -0.058795
   4 C :   -0.177017
   5 H :    0.020433
   6 C :   -0.034531
   7 H :    0.033630
   8 H :    0.026817
   9 C :   -0.047054
  10 H :    0.023475
  11 H :    0.028170
  12 C :   -0.066174
  13 H :    0.034765
  14 H :    0.025943
  15 H :    0.027071
  16 S :    0.397862
  17 C :   -0.179853
  18 C :   -0.085674
  19 C :   -0.058382
  20 C :   -0.201571
  21 H :    0.053322
  22 C :   -0.049333
  23 H :    0.038833
  24 H :    0.030195
  25 C :   -0.039477
  26 H :    0.021301
  27 H :    0.018012
  28 C :   -0.066159
  29 H :    0.021622
  30 H :    0.040763
  31 H :    0.022510
  32 H :    0.030184
  33 H :    0.031851

  Mayer bond orders larger than 0.100000
B(  0-S ,  1-C ) :   1.1181 B(  0-S ,  4-C ) :   1.1580 B(  1-C ,  2-C ) :   1.6268
B(  1-C , 32-H ) :   0.9607 B(  2-C ,  3-C ) :   1.2612 B(  2-C ,  6-C ) :   1.0202
B(  3-C ,  4-C ) :   1.5432 B(  3-C ,  5-H ) :   1.0024 B(  4-C , 20-C ) :   1.0349
B(  6-C ,  7-H ) :   0.9371 B(  6-C ,  8-H ) :   0.9477 B(  6-C ,  9-C ) :   1.0492
B(  9-C , 10-H ) :   0.9574 B(  9-C , 11-H ) :   0.9592 B(  9-C , 12-C ) :   1.0677
B( 12-C , 13-H ) :   0.9740 B( 12-C , 14-H ) :   0.9767 B( 12-C , 15-H ) :   0.9778
B( 16-S , 17-C ) :   1.1612 B( 16-S , 20-C ) :   1.1063 B( 17-C , 18-C ) :   1.6332
B( 17-C , 33-H ) :   0.9609 B( 18-C , 19-C ) :   1.1926 B( 18-C , 21-H ) :   0.9834
B( 19-C , 20-C ) :   1.6221 B( 19-C , 22-C ) :   1.0665 B( 22-C , 23-H ) :   0.9468
B( 22-C , 24-H ) :   0.9382 B( 22-C , 25-C ) :   1.0364 B( 25-C , 26-H ) :   0.9541
B( 25-C , 27-H ) :   0.9569 B( 25-C , 28-C ) :   1.0814 B( 28-C , 29-H ) :   0.9756
B( 28-C , 30-H ) :   0.9737 B( 28-C , 31-H ) :   0.9763

Dispersion correction           -0.013953090
FINAL SINGLE POINT ENERGY     -1339.853792210494

DIPOLE MOMENT
-------------
                                X             Y             Z
Electronic contribution:      9.77799      17.25773     -23.57879
Nuclear contribution   :    -10.25349     -17.76824      23.91272
                        -----------------------------------------
Total Dipole Moment    :     -0.47550      -0.51051       0.33393
                        -----------------------------------------
Magnitude (a.u.)       :      0.77345
Magnitude (Debye)      :      1.96596

Rotational constants in cm-1:     0.017160     0.008982     0.006488
Rotational constants in MHz :   514.443188   269.278398   194.504232

                             ****ORCA TERMINATED NORMALLY****
TOTAL RUN TIME: 0 days 0 hours 0 minutes 28 seconds 343 msec
