                         Program Version 4.2.1 -  RELEASE  -
|  1> ! wB97X-D3 SP def2-SVP
|  2> %pal
|  3> nprocs 16
|  4> end
|  5>
|  6> * xyz 0 1
|  7> S 	 40.3441 	 5.81566 	 88.4791
|  8> C 	 40.552 	 6.84533 	 87.0101
|  9> C 	 39.6473 	 6.35829 	 86.0296
| 10> C 	 38.6457 	 5.5378 	 86.5995
| 11> C 	 38.784 	 5.24295 	 87.9331
| 12> H 	 37.7449 	 5.22357 	 86.0961
| 13> C 	 39.4853 	 6.81223 	 84.5999
| 14> H 	 39.5522 	 7.90993 	 84.5316
| 15> H 	 38.4729 	 6.58684 	 84.4643
| 16> C 	 40.3746 	 6.09622 	 83.5519
| 17> H 	 39.9697 	 5.12605 	 83.2546
| 18> H 	 40.3989 	 6.65343 	 82.6276
| 19> C 	 41.861 	 5.97378 	 83.8845
| 20> H 	 41.9337 	 5.49895 	 84.9043
| 21> H 	 42.3747 	 5.28263 	 83.201
| 22> H 	 42.41 	 6.9124 	 83.8854
| 23> S 	 36.2034 	 5.00813 	 88.8531
| 24> C 	 35.7896 	 3.60801 	 89.8579
| 25> C 	 36.9481 	 3.07535 	 90.3291
| 26> C 	 38.1374 	 3.50738 	 89.6277
| 27> C 	 37.8483 	 4.45279 	 88.7034
| 28> H 	 36.7973 	 2.34512 	 91.1038
| 29> C 	 39.5004 	 2.82958 	 89.7706
| 30> H 	 40.2884 	 3.62967 	 89.9011
| 31> H 	 39.7118 	 2.25224 	 88.8823
| 32> C 	 39.7685 	 1.86891 	 90.9321
| 33> H 	 39.097 	 1.01486 	 90.7933
| 34> H 	 39.658 	 2.42451 	 91.8805
| 35> C 	 41.1532 	 1.34427 	 90.8539
| 36> H 	 41.4195 	 0.800433 	 91.7548
| 37> H 	 41.8129 	 2.15345 	 90.6566
| 38> H 	 41.2006 	 0.64047 	 90.036
| 39> H 	 41.4552 	 7.47778 	 86.9422
| 40> H 	 34.7846 	 3.41213 	 90.2625
| 41> *
| 42>
| 43>                          ****END OF INPUT****

CARTESIAN COORDINATES (ANGSTROEM)
---------------------------------
  S     40.344100    5.815660   88.479100
  C     40.552000    6.845330   87.010100
  C     39.647300    6.358290   86.029600
  C     38.645700    5.537800   86.599500
  C     38.784000    5.242950   87.933100
  H     37.744900    5.223570   86.096100
  C     39.485300    6.812230   84.599900
  H     39.552200    7.909930   84.531600
  H     38.472900    6.586840   84.464300
  C     40.374600    6.096220   83.551900
  H     39.969700    5.126050   83.254600
  H     40.398900    6.653430   82.627600
  C     41.861000    5.973780   83.884500
  H     41.933700    5.498950   84.904300
  H     42.374700    5.282630   83.201000
  H     42.410000    6.912400   83.885400
  S     36.203400    5.008130   88.853100
  C     35.789600    3.608010   89.857900
  C     36.948100    3.075350   90.329100
  C     38.137400    3.507380   89.627700
  C     37.848300    4.452790   88.703400
  H     36.797300    2.345120   91.103800
  C     39.500400    2.829580   89.770600
  H     40.288400    3.629670   89.901100
  H     39.711800    2.252240   88.882300
  C     39.768500    1.868910   90.932100
  H     39.097000    1.014860   90.793300
  H     39.658000    2.424510   91.880500
  C     41.153200    1.344270   90.853900
  H     41.419500    0.800433   91.754800
  H     41.812900    2.153450   90.656600
  H     41.200600    0.640470   90.036000
  H     41.455200    7.477780   86.942200
  H     34.784600    3.412130   90.262500

 Total Charge           Charge          ....    0
 Multiplicity           Mult            ....    1
 Number of Electrons    NEL             ....  134
 Basis Dimension        Dim             ....  322

ORBITAL ENERGIES
----------------

  NO   OCC          E(Eh)            E(eV)
   0   2.0000     -88.964476     -2420.8465
   1   2.0000     -88.961468     -2420.7646
   2   2.0000     -10.326422      -280.9962
   3   2.0000     -10.326007      -280.9849
   4   2.0000     -10.320488      -280.8348
   5   2.0000     -10.316636      -280.7299
   6   2.0000     -10.306208      -280.4462
   7   2.0000     -10.301189      -280.3096
   8   2.0000     -10.292871      -280.0833
   9   2.0000     -10.292343      -280.0689
  10   2.0000     -10.289801      -279.9997
  11   2.0000     -10.289594      -279.9941
  12   2.0000     -10.285924      -279.8942
  13   2.0000     -10.282499      -279.8010
  14   2.0000     -10.277274      -279.6589
  15   2.0000     -10.269423      -279.4452
  16   2.0000      -8.078126      -219.8170
  17   2.0000      -8.076291      -219.7670
  18   2.0000      -6.036713      -164.2673
  19   2.0000      -6.034887      -164.2176
  20   2.0000      -6.032821      -164.1614
  21   2.0000      -6.031017      -164.1123
  22   2.0000      -6.028828      -164.0528
  23   2.0000      -6.026702      -163.9949
  24   2.0000      -1.008512       -27.4430
  25   2.0000      -0.982676       -26.7400
  26   2.0000      -0.916425       -24.9372
  27   2.0000      -0.910353       -24.7720
  28   2.0000      -0.870239       -23.6804
  29   2.0000      -0.853136       -23.2150
  30   2.0000      -0.845970       -23.0200
  31   2.0000      -0.813257       -22.1299
  32   2.0000      -0.782117       -21.2825
  33   2.0000      -0.772428       -21.0188
  34   2.0000      -0.701876       -19.0990
  35   2.0000      -0.700414       -19.0592
  36   2.0000      -0.691957       -18.8291
  37   2.0000      -0.655187       -17.8285
  38   2.0000      -0.636406       -17.3175
  39   2.0000      -0.616566       -16.7776
  40   2.0000      -0.597177       -16.2500
  41   2.0000      -0.586285       -15.9536
  42   2.0000      -0.565358       -15.3842
  43   2.0000      -0.550363       -14.9761
  44   2.0000      -0.542970       -14.7750
  45   2.0000      -0.528646       -14.3852
  46   2.0000      -0.520740       -14.1701
  47   2.0000      -0.510510       -13.8917
  48   2.0000      -0.507964       -13.8224
  49   2.0000      -0.497145       -13.5280
  50   2.0000      -0.483985       -13.1699
  51   2.0000      -0.479996       -13.0613
  52   2.0000      -0.469676       -12.7805
  53   2.0000      -0.463229       -12.6051
  54   2.0000      -0.460956       -12.5432
  55   2.0000      -0.449099       -12.2206
  56   2.0000      -0.441095       -12.0028
  57   2.0000      -0.440551       -11.9880
  58   2.0000      -0.430540       -11.7156
  59   2.0000      -0.422164       -11.4877
  60   2.0000      -0.417870       -11.3708
  61   2.0000      -0.414422       -11.2770
  62   2.0000      -0.403751       -10.9866
  63   2.0000      -0.347042        -9.4435
  64   2.0000      -0.329625        -8.9696
  65   2.0000      -0.326701        -8.8900
  66   2.0000      -0.292159        -7.9500
  67   0.0000       0.022141         0.6025
  68   0.0000       0.066690         1.8147
  69   0.0000       0.106703         2.9035
  70   0.0000       0.110783         3.0146
  71   0.0000       0.127757         3.4765

MULLIKEN ATOMIC CHARGES
-----------------------
   0 S :    0.078608
   1 C :   -0.134936
   2 C :   -0.087109
   3 C :    0.000369
   4 C :   -0.127390
   5 H :    0.014253
   6 C :    0.099117
   7 H :    0.038926
   8 H :    0.004074
   9 C :   -0.051856
  10 H :    0.027278
  11 H :    0.022826
  12 C :   -0.084599
  13 H :    0.045647
  14 H :    0.035432
  15 H :    0.032556
  16 S :    0.092740
  17 C :   -0.103605
  18 C :   -0.041849
  19 C :   -0.015232
  20 C :   -0.127339
  21 H :    0.017699
  22 C :   -0.002430
  23 H :    0.038077
  24 H :    0.040012
  25 C :   -0.087169
  26 H :    0.030435
  27 H :    0.035142
  28 C :   -0.000403
  29 H :    0.034202
  30 H :    0.019178
  31 H :    0.019018
  32 H :    0.072315
  33 H :    0.066015
Sum of atomic charges:   -0.0000000

LOEWDIN ATOMIC CHARGES
----------------------
   0 S :    0.389720
   1 C :   -0.177833
   2 C :   -0.059926
   3 C :   -0.065032
   4 C :   -0.188812
   5 H :    0.029723
   6 C :   -0.028887
   7 H :    0.037294
   8 H :    0.025198
   9 C :   -0.040999
  10 H :    0.025421
  11 H :    0.024286
  12 C :   -0.073341
  13 H :    0.029114
  14 H :    0.028365
  15 H :    0.021558
  16 S :    0.392079
  17 C :   -0.180774
  18 C :   -0.067459
  19 C :   -0.064653
  20 C :   -0.192802
  21 H :    0.030484
  22 C :   -0.039752
  23 H :    0.023329
  24 H :    0.033604
  25 C :   -0.044403
  26 H :    0.023680
  27 H :    0.025864
  28 C :   -0.055481
  29 H :    0.028263
  30 H :    0.020038
  31 H :    0.023270
  32 H :    0.033188
  33 H :    0.035677

  Mayer bond orders larger than 0.100000
B(  0-S ,  1-C ) :   1.1345 B(  0-S ,  4-C ) :   1.1355 B(  1-C ,  2-C ) :   1.5564
B(  1-C ,  4-C ) :   0.1007 B(  1-C , 32-H ) :   0.9735 B(  2-C ,  3-C ) :   1.2507
B(  2-C ,  6-C ) :   1.0141 B(  3-C ,  4-C ) :   1.5563 B(  3-C ,  5-H ) :   0.9924
B(  4-C , 20-C ) :   1.0724 B(  6-C ,  7-H ) :   0.9461 B(  6-C ,  8-H ) :   0.9407
B(  6-C ,  9-C ) :   1.0638 B(  9-C , 10-H ) :   0.9560 B(  9-C , 11-H ) :   0.9547
B(  9-C , 12-C ) :   1.0875 B( 12-C , 13-H ) :   0.9689 B( 12-C , 14-H ) :   0.9727
B( 12-C , 15-H ) :   0.9765 B( 16-S , 17-C ) :   1.1283 B( 16-S , 20-C ) :   1.1382
B( 17-C , 18-C ) :   1.6412 B( 17-C , 33-H ) :   0.9635 B( 18-C , 19-C ) :   1.2006
B( 18-C , 21-H ) :   0.9947 B( 19-C , 20-C ) :   1.6128 B( 19-C , 22-C ) :   1.0221
B( 22-C , 23-H ) :   0.9253 B( 22-C , 24-H ) :   0.9404 B( 22-C , 25-C ) :   1.0935
B( 25-C , 26-H ) :   0.9450 B( 25-C , 27-H ) :   0.9531 B( 25-C , 28-C ) :   1.0963
B( 28-C , 29-H ) :   0.9695 B( 28-C , 30-H ) :   0.9708 B( 28-C , 31-H ) :   0.9711

Dispersion correction           -0.013889239
FINAL SINGLE POINT ENERGY     -1339.865257709843

DIPOLE MOMENT
-------------
                                X             Y             Z
Electronic contribution:    -15.87009       9.08650       8.54574
Nuclear contribution   :     16.02632      -9.35137      -8.71784
                        -----------------------------------------
Total Dipole Moment    :      0.15623      -0.26487      -0.17210
                        -----------------------------------------
Magnitude (a.u.)       :      0.35240
Magnitude (Debye)      :      0.89572

Rotational constants in cm-1:     0.019785     0.008116     0.006426
Rotational constants in MHz :   593.146884   243.326155   192.661549

                             ****ORCA TERMINATED NORMALLY****
TOTAL RUN TIME: 0 days 0 hours 0 minutes 29 seconds 350 msec
