                         Program Version 4.2.1 -  RELEASE  -
|  1> ! wB97X-D3 SP def2-SVP
|  2> %pal
|  3> nprocs 16
|  4> end
|  5>
|  6> * xyz 0 1
|  7> S 	 -21.2225 	 -6.74138 	 95.4965
|  8> C 	 -22.8269 	 -6.38204 	 96.0986
|  9> C 	 -23.1156 	 -5.08674 	 95.8378
| 10> C 	 -22.0913 	 -4.38998 	 95.1281
| 11> C 	 -20.9827 	 -5.16284 	 94.8535
| 12> H 	 -22.0482 	 -3.35877 	 94.774
| 13> C 	 -24.3745 	 -4.39111 	 96.2186
| 14> H 	 -24.8886 	 -4.87332 	 96.9831
| 15> H 	 -25.0623 	 -4.54249 	 95.356
| 16> C 	 -24.2717 	 -2.90248 	 96.5905
| 17> H 	 -24.3244 	 -2.34826 	 95.6374
| 18> H 	 -25.2264 	 -2.6081 	 97.0487
| 19> C 	 -23.0353 	 -2.56765 	 97.4609
| 20> H 	 -23.1135 	 -1.50212 	 97.7848
| 21> H 	 -23.1169 	 -3.19509 	 98.3201
| 22> H 	 -22.0618 	 -2.58967 	 97.0204
| 23> S 	 -18.3602 	 -4.91218 	 95.2271
| 24> C 	 -17.328 	 -4.40031 	 93.9882
| 25> C 	 -18.0103 	 -3.68677 	 93.0508
| 26> C 	 -19.4598 	 -3.91076 	 93.1099
| 27> C 	 -19.7632 	 -4.73405 	 94.2137
| 28> H 	 -17.405 	 -3.20615 	 92.2893
| 29> C 	 -20.4578 	 -3.44273 	 92.0862
| 30> H 	 -21.4387 	 -3.3922 	 92.5377
| 31> H 	 -20.4717 	 -4.19781 	 91.3473
| 32> C 	 -20.1784 	 -2.06881 	 91.5634
| 33> H 	 -19.2808 	 -1.95139 	 90.9623
| 34> H 	 -19.9597 	 -1.35112 	 92.3286
| 35> C 	 -21.3079 	 -1.45654 	 90.7168
| 36> H 	 -22.2796 	 -1.40478 	 91.2366
| 37> H 	 -21.4286 	 -2.05703 	 89.7774
| 38> H 	 -21.1066 	 -0.362943 	 90.5086
| 39> H 	 -23.552 	 -7.06005 	 96.6138
| 40> H 	 -16.2593 	 -4.35185 	 94.1213
| 41> *
| 42>
| 43>                          ****END OF INPUT****

CARTESIAN COORDINATES (ANGSTROEM)
---------------------------------
  S    -21.222500   -6.741380   95.496500
  C    -22.826900   -6.382040   96.098600
  C    -23.115600   -5.086740   95.837800
  C    -22.091300   -4.389980   95.128100
  C    -20.982700   -5.162840   94.853500
  H    -22.048200   -3.358770   94.774000
  C    -24.374500   -4.391110   96.218600
  H    -24.888600   -4.873320   96.983100
  H    -25.062300   -4.542490   95.356000
  C    -24.271700   -2.902480   96.590500
  H    -24.324400   -2.348260   95.637400
  H    -25.226400   -2.608100   97.048700
  C    -23.035300   -2.567650   97.460900
  H    -23.113500   -1.502120   97.784800
  H    -23.116900   -3.195090   98.320100
  H    -22.061800   -2.589670   97.020400
  S    -18.360200   -4.912180   95.227100
  C    -17.328000   -4.400310   93.988200
  C    -18.010300   -3.686770   93.050800
  C    -19.459800   -3.910760   93.109900
  C    -19.763200   -4.734050   94.213700
  H    -17.405000   -3.206150   92.289300
  C    -20.457800   -3.442730   92.086200
  H    -21.438700   -3.392200   92.537700
  H    -20.471700   -4.197810   91.347300
  C    -20.178400   -2.068810   91.563400
  H    -19.280800   -1.951390   90.962300
  H    -19.959700   -1.351120   92.328600
  C    -21.307900   -1.456540   90.716800
  H    -22.279600   -1.404780   91.236600
  H    -21.428600   -2.057030   89.777400
  H    -21.106600   -0.362943   90.508600
  H    -23.552000   -7.060050   96.613800
  H    -16.259300   -4.351850   94.121300

 Total Charge           Charge          ....    0
 Multiplicity           Mult            ....    1
 Number of Electrons    NEL             ....  134
 Basis Dimension        Dim             ....  322

ORBITAL ENERGIES
----------------

  NO   OCC          E(Eh)            E(eV)
   0   2.0000     -88.962559     -2420.7943
   1   2.0000     -88.958298     -2420.6784
   2   2.0000     -10.323735      -280.9231
   3   2.0000     -10.323394      -280.9138
   4   2.0000     -10.312481      -280.6169
   5   2.0000     -10.310671      -280.5676
   6   2.0000     -10.308503      -280.5086
   7   2.0000     -10.295045      -280.1424
   8   2.0000     -10.294455      -280.1263
   9   2.0000     -10.290215      -280.0110
  10   2.0000     -10.289990      -280.0049
  11   2.0000     -10.287539      -279.9382
  12   2.0000     -10.286823      -279.9187
  13   2.0000     -10.283514      -279.8286
  14   2.0000     -10.283028      -279.8154
  15   2.0000     -10.275383      -279.6074
  16   2.0000      -8.077712      -219.8057
  17   2.0000      -8.074900      -219.7292
  18   2.0000      -6.036238      -164.2544
  19   2.0000      -6.033273      -164.1737
  20   2.0000      -6.032041      -164.1402
  21   2.0000      -6.029308      -164.0658
  22   2.0000      -6.028518      -164.0443
  23   2.0000      -6.025508      -163.9624
  24   2.0000      -1.013175       -27.5699
  25   2.0000      -0.990474       -26.9522
  26   2.0000      -0.917729       -24.9727
  27   2.0000      -0.914021       -24.8718
  28   2.0000      -0.873849       -23.7787
  29   2.0000      -0.849744       -23.1227
  30   2.0000      -0.838567       -22.8186
  31   2.0000      -0.817987       -22.2585
  32   2.0000      -0.786748       -21.4085
  33   2.0000      -0.774916       -21.0865
  34   2.0000      -0.711001       -19.3473
  35   2.0000      -0.702942       -19.1280
  36   2.0000      -0.693928       -18.8828
  37   2.0000      -0.652997       -17.7689
  38   2.0000      -0.636616       -17.3232
  39   2.0000      -0.623537       -16.9673
  40   2.0000      -0.600586       -16.3428
  41   2.0000      -0.573507       -15.6059
  42   2.0000      -0.565719       -15.3940
  43   2.0000      -0.557312       -15.1652
  44   2.0000      -0.533168       -14.5082
  45   2.0000      -0.529020       -14.3954
  46   2.0000      -0.516240       -14.0476
  47   2.0000      -0.515633       -14.0311
  48   2.0000      -0.507179       -13.8010
  49   2.0000      -0.499465       -13.5911
  50   2.0000      -0.490398       -13.3444
  51   2.0000      -0.481317       -13.0973
  52   2.0000      -0.475151       -12.9295
  53   2.0000      -0.466303       -12.6887
  54   2.0000      -0.463686       -12.6175
  55   2.0000      -0.451835       -12.2950
  56   2.0000      -0.441949       -12.0261
  57   2.0000      -0.436027       -11.8649
  58   2.0000      -0.429027       -11.6744
  59   2.0000      -0.422807       -11.5052
  60   2.0000      -0.418567       -11.3898
  61   2.0000      -0.415351       -11.3023
  62   2.0000      -0.413515       -11.2523
  63   2.0000      -0.345617        -9.4047
  64   2.0000      -0.327867        -8.9217
  65   2.0000      -0.322553        -8.7771
  66   2.0000      -0.294680        -8.0187
  67   0.0000       0.030779         0.8375
  68   0.0000       0.077706         2.1145
  69   0.0000       0.108599         2.9551
  70   0.0000       0.126803         3.4505
  71   0.0000       0.134530         3.6607

MULLIKEN ATOMIC CHARGES
-----------------------
   0 S :    0.116705
   1 C :   -0.138533
   2 C :   -0.086574
   3 C :    0.022158
   4 C :   -0.176056
   5 H :    0.021298
   6 C :    0.085865
   7 H :   -0.004202
   8 H :    0.041226
   9 C :   -0.091835
  10 H :    0.023411
  11 H :    0.029226
  12 C :   -0.030711
  13 H :    0.031556
  14 H :    0.033039
  15 H :    0.043433
  16 S :    0.102514
  17 C :   -0.074738
  18 C :   -0.053944
  19 C :   -0.055434
  20 C :   -0.151549
  21 H :    0.022604
  22 C :    0.157028
  23 H :    0.006421
  24 H :    0.033625
  25 C :   -0.100154
  26 H :    0.024821
  27 H :    0.018850
  28 C :   -0.078916
  29 H :    0.030686
  30 H :    0.043178
  31 H :    0.040673
  32 H :    0.059812
  33 H :    0.054518
Sum of atomic charges:    0.0000000

LOEWDIN ATOMIC CHARGES
----------------------
   0 S :    0.417602
   1 C :   -0.207082
   2 C :   -0.068263
   3 C :   -0.065846
   4 C :   -0.212338
   5 H :    0.032121
   6 C :   -0.036317
   7 H :    0.016415
   8 H :    0.041662
   9 C :   -0.044309
  10 H :    0.020994
  11 H :    0.028923
  12 C :   -0.062690
  13 H :    0.031914
  14 H :    0.025350
  15 H :    0.025496
  16 S :    0.428100
  17 C :   -0.197269
  18 C :   -0.076702
  19 C :   -0.045873
  20 C :   -0.203007
  21 H :    0.031493
  22 C :   -0.025491
  23 H :    0.030320
  24 H :    0.033737
  25 C :   -0.048122
  26 H :    0.023272
  27 H :    0.022947
  28 C :   -0.071317
  29 H :    0.021826
  30 H :    0.028905
  31 H :    0.033025
  32 H :    0.043350
  33 H :    0.027176

  Mayer bond orders larger than 0.100000
B(  0-S ,  1-C ) :   1.1229 B(  0-S ,  4-C ) :   1.1657 B(  1-C ,  2-C ) :   1.6268
B(  1-C , 32-H ) :   0.9644 B(  2-C ,  3-C ) :   1.2246 B(  2-C ,  6-C ) :   1.0241
B(  3-C ,  4-C ) :   1.5689 B(  3-C ,  5-H ) :   0.9867 B(  4-C , 20-C ) :   1.0372
B(  6-C ,  7-H ) :   0.9364 B(  6-C ,  8-H ) :   0.9304 B(  6-C ,  9-C ) :   1.0733
B(  9-C , 10-H ) :   0.9478 B(  9-C , 11-H ) :   0.9562 B(  9-C , 12-C ) :   1.0785
B( 12-C , 13-H ) :   0.9712 B( 12-C , 14-H ) :   0.9760 B( 12-C , 15-H ) :   0.9697
B( 16-S , 17-C ) :   1.1638 B( 16-S , 20-C ) :   1.1643 B( 17-C , 18-C ) :   1.6219
B( 17-C , 33-H ) :   0.9666 B( 18-C , 19-C ) :   1.2066 B( 18-C , 21-H ) :   0.9923
B( 19-C , 20-C ) :   1.5848 B( 19-C , 22-C ) :   1.0470 B( 22-C , 23-H ) :   0.9304
B( 22-C , 24-H ) :   0.9212 B( 22-C , 25-C ) :   1.0632 B( 25-C , 26-H ) :   0.9445
B( 25-C , 27-H ) :   0.9573 B( 25-C , 28-C ) :   1.0947 B( 28-C , 29-H ) :   0.9739
B( 28-C , 30-H ) :   0.9740 B( 28-C , 31-H ) :   0.9735

Dispersion correction           -0.014386766
FINAL SINGLE POINT ENERGY     -1339.872590734581

DIPOLE MOMENT
-------------
                                X             Y             Z
Electronic contribution:     15.42415     -21.59661       7.42274
Nuclear contribution   :    -15.76997      22.19414      -7.61167
                        -----------------------------------------
Total Dipole Moment    :     -0.34582       0.59753      -0.18893
                        -----------------------------------------
Magnitude (a.u.)       :      0.71578
Magnitude (Debye)      :      1.81936

Rotational constants in cm-1:     0.016249     0.009906     0.007405
Rotational constants in MHz :   487.144366   296.984803   221.991848

                             ****ORCA TERMINATED NORMALLY****
TOTAL RUN TIME: 0 days 0 hours 0 minutes 30 seconds 812 msec
