                         Program Version 4.2.1 -  RELEASE  -
|  1> ! wB97X-D3 SP def2-SVP
|  2> %pal
|  3> nprocs 16
|  4> end
|  5>
|  6> * xyz 0 1
|  7> S 	 50.6062 	 21.5087 	 84.1866
|  8> C 	 51.0709 	 22.9821 	 85.0744
|  9> C 	 50.9443 	 22.7551 	 86.4403
| 10> C 	 50.6449 	 21.3789 	 86.7994
| 11> C 	 50.3694 	 20.637 	 85.7161
| 12> H 	 50.4469 	 20.9641 	 87.684
| 13> C 	 51.044 	 23.7715 	 87.6137
| 14> H 	 50.563 	 23.3137 	 88.4761
| 15> H 	 50.4239 	 24.5346 	 87.2393
| 16> C 	 52.4816 	 24.4285 	 87.854
| 17> H 	 52.9946 	 24.4808 	 86.9021
| 18> H 	 52.3578 	 25.4025 	 88.2665
| 19> C 	 53.3727 	 23.7252 	 88.8739
| 20> H 	 53.5821 	 22.682 	 88.5644
| 21> H 	 54.3498 	 24.191 	 89.0604
| 22> H 	 52.824 	 23.6919 	 89.7564
| 23> S 	 48.1443 	 19.1052 	 86.2865
| 24> C 	 48.1373 	 17.3846 	 86.0294
| 25> C 	 49.325 	 17.0218 	 85.4904
| 26> C 	 50.267 	 18.0969 	 85.307
| 27> C 	 49.7763 	 19.3031 	 85.6992
| 28> H 	 49.3946 	 16.014 	 85.0983
| 29> C 	 51.6337 	 17.8053 	 84.6853
| 30> H 	 51.9507 	 16.8233 	 84.9279
| 31> H 	 52.18 	 18.6233 	 85.2205
| 32> C 	 51.5953 	 18.0441 	 83.1822
| 33> H 	 52.6173 	 18.0328 	 82.9185
| 34> H 	 51.3259 	 19.0901 	 82.9492
| 35> C 	 50.7733 	 17.0113 	 82.3586
| 36> H 	 50.9772 	 15.955 	 82.6342
| 37> H 	 50.902 	 17.1095 	 81.2461
| 38> H 	 49.7188 	 17.0622 	 82.6069
| 39> H 	 51.3182 	 23.9305 	 84.568
| 40> H 	 47.3966 	 16.6137 	 86.1851
| 41> *
| 42>
| 43>                          ****END OF INPUT****

CARTESIAN COORDINATES (ANGSTROEM)
---------------------------------
  S     50.606200   21.508700   84.186600
  C     51.070900   22.982100   85.074400
  C     50.944300   22.755100   86.440300
  C     50.644900   21.378900   86.799400
  C     50.369400   20.637000   85.716100
  H     50.446900   20.964100   87.684000
  C     51.044000   23.771500   87.613700
  H     50.563000   23.313700   88.476100
  H     50.423900   24.534600   87.239300
  C     52.481600   24.428500   87.854000
  H     52.994600   24.480800   86.902100
  H     52.357800   25.402500   88.266500
  C     53.372700   23.725200   88.873900
  H     53.582100   22.682000   88.564400
  H     54.349800   24.191000   89.060400
  H     52.824000   23.691900   89.756400
  S     48.144300   19.105200   86.286500
  C     48.137300   17.384600   86.029400
  C     49.325000   17.021800   85.490400
  C     50.267000   18.096900   85.307000
  C     49.776300   19.303100   85.699200
  H     49.394600   16.014000   85.098300
  C     51.633700   17.805300   84.685300
  H     51.950700   16.823300   84.927900
  H     52.180000   18.623300   85.220500
  C     51.595300   18.044100   83.182200
  H     52.617300   18.032800   82.918500
  H     51.325900   19.090100   82.949200
  C     50.773300   17.011300   82.358600
  H     50.977200   15.955000   82.634200
  H     50.902000   17.109500   81.246100
  H     49.718800   17.062200   82.606900
  H     51.318200   23.930500   84.568000
  H     47.396600   16.613700   86.185100

 Total Charge           Charge          ....    0
 Multiplicity           Mult            ....    1
 Number of Electrons    NEL             ....  134
 Basis Dimension        Dim             ....  322

ORBITAL ENERGIES
----------------

  NO   OCC          E(Eh)            E(eV)
   0   2.0000     -88.966622     -2420.9049
   1   2.0000     -88.962507     -2420.7929
   2   2.0000     -10.328108      -281.0421
   3   2.0000     -10.322465      -280.8885
   4   2.0000     -10.320373      -280.8316
   5   2.0000     -10.312114      -280.6069
   6   2.0000     -10.309554      -280.5372
   7   2.0000     -10.296760      -280.1891
   8   2.0000     -10.294949      -280.1398
   9   2.0000     -10.288269      -279.9580
  10   2.0000     -10.287390      -279.9341
  11   2.0000     -10.286107      -279.8992
  12   2.0000     -10.285455      -279.8815
  13   2.0000     -10.281686      -279.7789
  14   2.0000     -10.281278      -279.7678
  15   2.0000     -10.272261      -279.5224
  16   2.0000      -8.080226      -219.8741
  17   2.0000      -8.077402      -219.7973
  18   2.0000      -6.038896      -164.3267
  19   2.0000      -6.036041      -164.2490
  20   2.0000      -6.034928      -164.2187
  21   2.0000      -6.031846      -164.1349
  22   2.0000      -6.030851      -164.1078
  23   2.0000      -6.028033      -164.0311
  24   2.0000      -1.008505       -27.4428
  25   2.0000      -0.983520       -26.7630
  26   2.0000      -0.907895       -24.7051
  27   2.0000      -0.903349       -24.5814
  28   2.0000      -0.872358       -23.7381
  29   2.0000      -0.850934       -23.1551
  30   2.0000      -0.838798       -22.8249
  31   2.0000      -0.821561       -22.3558
  32   2.0000      -0.782362       -21.2892
  33   2.0000      -0.772009       -21.0074
  34   2.0000      -0.708092       -19.2682
  35   2.0000      -0.704752       -19.1773
  36   2.0000      -0.691684       -18.8217
  37   2.0000      -0.661783       -18.0080
  38   2.0000      -0.651771       -17.7356
  39   2.0000      -0.611789       -16.6476
  40   2.0000      -0.586878       -15.9698
  41   2.0000      -0.573305       -15.6004
  42   2.0000      -0.551992       -15.0205
  43   2.0000      -0.548346       -14.9213
  44   2.0000      -0.545951       -14.8561
  45   2.0000      -0.537462       -14.6251
  46   2.0000      -0.524616       -14.2755
  47   2.0000      -0.515294       -14.0219
  48   2.0000      -0.503693       -13.7062
  49   2.0000      -0.494544       -13.4572
  50   2.0000      -0.485745       -13.2178
  51   2.0000      -0.479510       -13.0481
  52   2.0000      -0.471150       -12.8206
  53   2.0000      -0.468181       -12.7398
  54   2.0000      -0.462830       -12.5942
  55   2.0000      -0.446841       -12.1591
  56   2.0000      -0.439618       -11.9626
  57   2.0000      -0.436180       -11.8691
  58   2.0000      -0.433061       -11.7842
  59   2.0000      -0.425330       -11.5738
  60   2.0000      -0.424855       -11.5609
  61   2.0000      -0.410231       -11.1629
  62   2.0000      -0.400033       -10.8855
  63   2.0000      -0.339948        -9.2505
  64   2.0000      -0.332862        -9.0576
  65   2.0000      -0.322912        -8.7869
  66   2.0000      -0.308402        -8.3921
  67   0.0000       0.039276         1.0688
  68   0.0000       0.063631         1.7315
  69   0.0000       0.106082         2.8866
  70   0.0000       0.118778         3.2321
  71   0.0000       0.132841         3.6148

MULLIKEN ATOMIC CHARGES
-----------------------
   0 S :    0.097593
   1 C :   -0.135493
   2 C :   -0.104433
   3 C :    0.097101
   4 C :   -0.167158
   5 H :   -0.040054
   6 C :    0.085684
   7 H :    0.027081
   8 H :    0.023627
   9 C :   -0.054751
  10 H :    0.028861
  11 H :    0.025010
  12 C :   -0.042458
  13 H :    0.030428
  14 H :    0.039283
  15 H :    0.013255
  16 S :    0.111484
  17 C :   -0.078990
  18 C :   -0.052635
  19 C :   -0.045456
  20 C :   -0.179217
  21 H :    0.014646
  22 C :    0.082363
  23 H :    0.016266
  24 H :    0.043066
  25 C :   -0.024753
  26 H :    0.015892
  27 H :    0.020722
  28 C :   -0.072183
  29 H :    0.021029
  30 H :    0.051137
  31 H :    0.038190
  32 H :    0.064388
  33 H :    0.050475
Sum of atomic charges:    0.0000000

LOEWDIN ATOMIC CHARGES
----------------------
   0 S :    0.387190
   1 C :   -0.196288
   2 C :   -0.051723
   3 C :   -0.046636
   4 C :   -0.175153
   5 H :    0.012532
   6 C :   -0.023319
   7 H :    0.029842
   8 H :    0.029489
   9 C :   -0.031449
  10 H :    0.022819
  11 H :    0.020009
  12 C :   -0.063708
  13 H :    0.026386
  14 H :    0.028911
  15 H :    0.013786
  16 S :    0.408867
  17 C :   -0.189931
  18 C :   -0.082309
  19 C :   -0.055092
  20 C :   -0.212696
  21 H :    0.028778
  22 C :   -0.023742
  23 H :    0.023367
  24 H :    0.042401
  25 C :   -0.038762
  26 H :    0.018349
  27 H :    0.017399
  28 C :   -0.073862
  29 H :    0.023762
  30 H :    0.034658
  31 H :    0.024526
  32 H :    0.035555
  33 H :    0.036044

  Mayer bond orders larger than 0.100000
B(  0-S ,  1-C ) :   1.1166 B(  0-S ,  4-C ) :   1.1373 B(  1-C ,  2-C ) :   1.6455
B(  1-C , 32-H ) :   0.9689 B(  2-C ,  3-C ) :   1.1810 B(  2-C ,  6-C ) :   1.0057
B(  3-C ,  4-C ) :   1.6373 B(  3-C ,  5-H ) :   1.0111 B(  4-C , 20-C ) :   1.0039
B(  6-C ,  7-H ) :   0.9520 B(  6-C ,  8-H ) :   0.9348 B(  6-C ,  9-C ) :   1.0526
B(  9-C , 10-H ) :   0.9609 B(  9-C , 11-H ) :   0.9588 B(  9-C , 12-C ) :   1.0815
B( 12-C , 13-H ) :   0.9773 B( 12-C , 14-H ) :   0.9738 B( 12-C , 15-H ) :   0.9766
B( 16-S , 17-C ) :   1.1448 B( 16-S , 20-C ) :   1.1294 B( 17-C , 18-C ) :   1.6438
B( 17-C , 33-H ) :   0.9632 B( 18-C , 19-C ) :   1.2263 B( 18-C , 21-H ) :   0.9840
B( 19-C , 20-C ) :   1.6286 B( 19-C , 22-C ) :   1.0217 B( 22-C , 23-H ) :   0.9394
B( 22-C , 24-H ) :   0.9256 B( 22-C , 25-C ) :   1.0860 B( 25-C , 26-H ) :   0.9539
B( 25-C , 27-H ) :   0.9460 B( 25-C , 28-C ) :   1.0612 B( 28-C , 29-H ) :   0.9735
B( 28-C , 30-H ) :   0.9748 B( 28-C , 31-H ) :   0.9728

Dispersion correction           -0.014908635
FINAL SINGLE POINT ENERGY     -1339.864498373414

DIPOLE MOMENT
-------------
                                X             Y             Z
Electronic contribution:    -15.32393      -2.51565      -2.27850
Nuclear contribution   :     15.53982       2.56368       2.43840
                        -----------------------------------------
Total Dipole Moment    :      0.21589       0.04803       0.15990
                        -----------------------------------------
Magnitude (a.u.)       :      0.27292
Magnitude (Debye)      :      0.69370

Rotational constants in cm-1:     0.023289     0.007576     0.006733
Rotational constants in MHz :   698.189198   227.112709   201.847156

                             ****ORCA TERMINATED NORMALLY****
TOTAL RUN TIME: 0 days 0 hours 0 minutes 28 seconds 461 msec
