                         Program Version 4.2.1 -  RELEASE  -
|  1> ! wB97X-D3 SP def2-SVP
|  2> %pal
|  3> nprocs 16
|  4> end
|  5>
|  6> * xyz 0 1
|  7> S 	 8.4905 	 -6.6038 	 89.8032
|  8> C 	 8.42009 	 -5.50969 	 91.2315
|  9> C 	 9.33247 	 -4.50085 	 91.1383
| 10> C 	 9.99176 	 -4.49635 	 89.8585
| 11> C 	 9.64999 	 -5.55768 	 89.0505
| 12> H 	 10.8073 	 -3.87406 	 89.5165
| 13> C 	 9.53034 	 -3.43087 	 92.2013
| 14> H 	 10.499 	 -3.3906 	 92.6657
| 15> H 	 8.8719 	 -3.7187 	 93.0734
| 16> C 	 9.31466 	 -1.95345 	 91.7301
| 17> H 	 10.1954 	 -1.57104 	 91.1925
| 18> H 	 8.46922 	 -1.86268 	 91.1478
| 19> C 	 8.96498 	 -0.907378 	 92.8011
| 20> H 	 7.92836 	 -0.920197 	 93.0944
| 21> H 	 9.44322 	 -1.06372 	 93.7659
| 22> H 	 9.14812 	 0.16085 	 92.4887
| 23> S 	 11.8523 	 -6.60211 	 87.6815
| 24> C 	 11.9447 	 -6.56823 	 85.9545
| 25> C 	 10.8024 	 -5.87292 	 85.52
| 26> C 	 9.82359 	 -5.51528 	 86.4426
| 27> C 	 10.2876 	 -5.76163 	 87.7268
| 28> H 	 10.7777 	 -5.74413 	 84.4226
| 29> C 	 8.69939 	 -4.61824 	 86.1016
| 30> H 	 9.11836 	 -4.04111 	 85.2676
| 31> H 	 8.50261 	 -3.9749 	 86.8885
| 32> C 	 7.41689 	 -5.32161 	 85.7144
| 33> H 	 7.07029 	 -5.90304 	 86.5859
| 34> H 	 7.61901 	 -6.01798 	 84.9051
| 35> C 	 6.38172 	 -4.36018 	 85.1326
| 36> H 	 5.61705 	 -4.92976 	 84.6655
| 37> H 	 6.73981 	 -3.81369 	 84.2101
| 38> H 	 5.87474 	 -3.69225 	 85.8582
| 39> H 	 7.75167 	 -5.6942 	 92.0441
| 40> H 	 12.6786 	 -7.02144 	 85.2702
| 41> *
| 42>
| 43>                          ****END OF INPUT****

CARTESIAN COORDINATES (ANGSTROEM)
---------------------------------
  S      8.490500   -6.603800   89.803200
  C      8.420090   -5.509690   91.231500
  C      9.332470   -4.500850   91.138300
  C      9.991760   -4.496350   89.858500
  C      9.649990   -5.557680   89.050500
  H     10.807300   -3.874060   89.516500
  C      9.530340   -3.430870   92.201300
  H     10.499000   -3.390600   92.665700
  H      8.871900   -3.718700   93.073400
  C      9.314660   -1.953450   91.730100
  H     10.195400   -1.571040   91.192500
  H      8.469220   -1.862680   91.147800
  C      8.964980   -0.907378   92.801100
  H      7.928360   -0.920197   93.094400
  H      9.443220   -1.063720   93.765900
  H      9.148120    0.160850   92.488700
  S     11.852300   -6.602110   87.681500
  C     11.944700   -6.568230   85.954500
  C     10.802400   -5.872920   85.520000
  C      9.823590   -5.515280   86.442600
  C     10.287600   -5.761630   87.726800
  H     10.777700   -5.744130   84.422600
  C      8.699390   -4.618240   86.101600
  H      9.118360   -4.041110   85.267600
  H      8.502610   -3.974900   86.888500
  C      7.416890   -5.321610   85.714400
  H      7.070290   -5.903040   86.585900
  H      7.619010   -6.017980   84.905100
  C      6.381720   -4.360180   85.132600
  H      5.617050   -4.929760   84.665500
  H      6.739810   -3.813690   84.210100
  H      5.874740   -3.692250   85.858200
  H      7.751670   -5.694200   92.044100
  H     12.678600   -7.021440   85.270200

 Total Charge           Charge          ....    0
 Multiplicity           Mult            ....    1
 Number of Electrons    NEL             ....  134
 Basis Dimension        Dim             ....  322

ORBITAL ENERGIES
----------------

  NO   OCC          E(Eh)            E(eV)
   0   2.0000     -88.968487     -2420.9556
   1   2.0000     -88.964758     -2420.8541
   2   2.0000     -10.328740      -281.0593
   3   2.0000     -10.326881      -281.0087
   4   2.0000     -10.318715      -280.7865
   5   2.0000     -10.317695      -280.7587
   6   2.0000     -10.305832      -280.4360
   7   2.0000     -10.300119      -280.2805
   8   2.0000     -10.296565      -280.1838
   9   2.0000     -10.293652      -280.1045
  10   2.0000     -10.290466      -280.0178
  11   2.0000     -10.284707      -279.8611
  12   2.0000     -10.282451      -279.7997
  13   2.0000     -10.279721      -279.7254
  14   2.0000     -10.278354      -279.6882
  15   2.0000     -10.277440      -279.6634
  16   2.0000      -8.082569      -219.9379
  17   2.0000      -8.079117      -219.8440
  18   2.0000      -6.041086      -164.3863
  19   2.0000      -6.037557      -164.2903
  20   2.0000      -6.037235      -164.2815
  21   2.0000      -6.033457      -164.1787
  22   2.0000      -6.033287      -164.1741
  23   2.0000      -6.030180      -164.0896
  24   2.0000      -1.005410       -27.3586
  25   2.0000      -0.984884       -26.8001
  26   2.0000      -0.914396       -24.8820
  27   2.0000      -0.907759       -24.7014
  28   2.0000      -0.867706       -23.6115
  29   2.0000      -0.852818       -23.2063
  30   2.0000      -0.846724       -23.0405
  31   2.0000      -0.810538       -22.0559
  32   2.0000      -0.784083       -21.3360
  33   2.0000      -0.774834       -21.0843
  34   2.0000      -0.708279       -19.2733
  35   2.0000      -0.698478       -19.0066
  36   2.0000      -0.692905       -18.8549
  37   2.0000      -0.659677       -17.9507
  38   2.0000      -0.644312       -17.5326
  39   2.0000      -0.615585       -16.7509
  40   2.0000      -0.598617       -16.2892
  41   2.0000      -0.576205       -15.6793
  42   2.0000      -0.564087       -15.3496
  43   2.0000      -0.555036       -15.1033
  44   2.0000      -0.526236       -14.3196
  45   2.0000      -0.524902       -14.2833
  46   2.0000      -0.513848       -13.9825
  47   2.0000      -0.511883       -13.9290
  48   2.0000      -0.505978       -13.7684
  49   2.0000      -0.498682       -13.5698
  50   2.0000      -0.492995       -13.4151
  51   2.0000      -0.478404       -13.0180
  52   2.0000      -0.473430       -12.8827
  53   2.0000      -0.466608       -12.6970
  54   2.0000      -0.459538       -12.5047
  55   2.0000      -0.446572       -12.1519
  56   2.0000      -0.437987       -11.9182
  57   2.0000      -0.430984       -11.7277
  58   2.0000      -0.427611       -11.6359
  59   2.0000      -0.427384       -11.6297
  60   2.0000      -0.422054       -11.4847
  61   2.0000      -0.419231       -11.4079
  62   2.0000      -0.412963       -11.2373
  63   2.0000      -0.335809        -9.1378
  64   2.0000      -0.328263        -8.9325
  65   2.0000      -0.324452        -8.8288
  66   2.0000      -0.311022        -8.4633
  67   0.0000       0.044256         1.2043
  68   0.0000       0.051961         1.4139
  69   0.0000       0.114008         3.1023
  70   0.0000       0.117030         3.1846
  71   0.0000       0.134934         3.6718

MULLIKEN ATOMIC CHARGES
-----------------------
   0 S :    0.114498
   1 C :   -0.142498
   2 C :   -0.030655
   3 C :    0.024802
   4 C :   -0.148761
   5 H :    0.019108
   6 C :    0.063342
   7 H :    0.034381
   8 H :    0.020419
   9 C :   -0.050278
  10 H :    0.041485
  11 H :    0.019717
  12 C :   -0.082887
  13 H :    0.022903
  14 H :    0.020187
  15 H :    0.042828
  16 S :    0.115699
  17 C :   -0.111118
  18 C :   -0.080216
  19 C :    0.040333
  20 C :   -0.219967
  21 H :    0.021223
  22 C :    0.097702
  23 H :    0.020625
  24 H :    0.008345
  25 C :   -0.078763
  26 H :    0.035142
  27 H :    0.020694
  28 C :   -0.041418
  29 H :    0.016250
  30 H :    0.029681
  31 H :    0.043128
  32 H :    0.043696
  33 H :    0.070372
Sum of atomic charges:    0.0000000

LOEWDIN ATOMIC CHARGES
----------------------
   0 S :    0.391702
   1 C :   -0.172544
   2 C :   -0.060118
   3 C :   -0.058895
   4 C :   -0.203500
   5 H :    0.033434
   6 C :   -0.031478
   7 H :    0.031711
   8 H :    0.033936
   9 C :   -0.037793
  10 H :    0.028743
  11 H :    0.016670
  12 C :   -0.071548
  13 H :    0.020895
  14 H :    0.019173
  15 H :    0.034423
  16 S :    0.412026
  17 C :   -0.206229
  18 C :   -0.080440
  19 C :   -0.058847
  20 C :   -0.192143
  21 H :    0.030226
  22 C :   -0.023863
  23 H :    0.035406
  24 H :    0.022098
  25 C :   -0.037915
  26 H :    0.027649
  27 H :    0.023610
  28 C :   -0.072624
  29 H :    0.021030
  30 H :    0.032379
  31 H :    0.027896
  32 H :    0.023599
  33 H :    0.041332

  Mayer bond orders larger than 0.100000
B(  0-S ,  1-C ) :   1.1250 B(  0-S ,  4-C ) :   1.1405 B(  1-C ,  2-C ) :   1.6355
B(  1-C , 32-H ) :   0.9706 B(  2-C ,  3-C ) :   1.1970 B(  2-C ,  6-C ) :   1.0373
B(  3-C ,  4-C ) :   1.6141 B(  3-C ,  5-H ) :   0.9924 B(  4-C , 20-C ) :   1.0102
B(  6-C ,  7-H ) :   0.9335 B(  6-C ,  8-H ) :   0.9466 B(  6-C ,  9-C ) :   1.0485
B(  9-C , 10-H ) :   0.9568 B(  9-C , 11-H ) :   0.9637 B(  9-C , 12-C ) :   1.0749
B( 12-C , 13-H ) :   0.9780 B( 12-C , 14-H ) :   0.9757 B( 12-C , 15-H ) :   0.9758
B( 16-S , 17-C ) :   1.1660 B( 16-S , 20-C ) :   1.1645 B( 17-C , 18-C ) :   1.5843
B( 17-C , 20-C ) :   0.1131 B( 17-C , 33-H ) :   0.9657 B( 18-C , 19-C ) :   1.2677
B( 18-C , 21-H ) :   0.9793 B( 19-C , 20-C ) :   1.5475 B( 19-C , 22-C ) :   1.0358
B( 22-C , 23-H ) :   0.9409 B( 22-C , 24-H ) :   0.9304 B( 22-C , 25-C ) :   1.0641
B( 25-C , 26-H ) :   0.9499 B( 25-C , 27-H ) :   0.9559 B( 25-C , 28-C ) :   1.0908
B( 28-C , 29-H ) :   0.9716 B( 28-C , 30-H ) :   0.9697 B( 28-C , 31-H ) :   0.9734

Dispersion correction           -0.013774984
FINAL SINGLE POINT ENERGY     -1339.871360966624

DIPOLE MOMENT
-------------
                                X             Y             Z
Electronic contribution:     12.91026     -21.94380      -1.23376
Nuclear contribution   :    -13.05123      22.41596       1.18337
                        -----------------------------------------
Total Dipole Moment    :     -0.14097       0.47217      -0.05039
                        -----------------------------------------
Magnitude (a.u.)       :      0.49533
Magnitude (Debye)      :      1.25903

Rotational constants in cm-1:     0.017282     0.007851     0.006782
Rotational constants in MHz :   518.089609   235.363646   203.323006

                             ****ORCA TERMINATED NORMALLY****
TOTAL RUN TIME: 0 days 0 hours 0 minutes 30 seconds 573 msec
