                         Program Version 4.2.1 -  RELEASE  -
|  1> ! wB97X-D3 SP def2-SVP
|  2> %pal
|  3> nprocs 16
|  4> end
|  5>
|  6> * xyz 0 1
|  7> S 	 -40.4418 	 24.4841 	 79.9518
|  8> C 	 -39.6781 	 25.8724 	 80.6987
|  9> C 	 -38.6378 	 26.3465 	 79.8826
| 10> C 	 -38.4036 	 25.4963 	 78.751
| 11> C 	 -39.2996 	 24.4194 	 78.6347
| 12> H 	 -37.725 	 25.6857 	 77.9418
| 13> C 	 -37.8267 	 27.5693 	 80.2332
| 14> H 	 -37.0173 	 27.1605 	 80.7638
| 15> H 	 -38.4458 	 28.1249 	 80.9183
| 16> C 	 -37.508 	 28.4493 	 79.0033
| 17> H 	 -36.9197 	 27.8759 	 78.1887
| 18> H 	 -38.4797 	 28.7691 	 78.5147
| 19> C 	 -36.7341 	 29.7242 	 79.1707
| 20> H 	 -36.3203 	 30.1343 	 78.2139
| 21> H 	 -37.3364 	 30.5551 	 79.5691
| 22> H 	 -35.8754 	 29.528 	 79.768
| 23> S 	 -39.6282 	 21.7843 	 77.9199
| 24> C 	 -39.6683 	 21.2559 	 76.3005
| 25> C 	 -39.5033 	 22.2763 	 75.4518
| 26> C 	 -39.3639 	 23.5325 	 76.118
| 27> C 	 -39.4357 	 23.4661 	 77.5259
| 28> H 	 -39.3729 	 22.0449 	 74.3958
| 29> C 	 -39.142 	 24.8622 	 75.3406
| 30> H 	 -38.2343 	 24.5963 	 74.8004
| 31> H 	 -38.8496 	 25.673 	 76.0136
| 32> C 	 -40.2613 	 25.2719 	 74.3857
| 33> H 	 -40.3919 	 24.5139 	 73.5829
| 34> H 	 -39.9095 	 26.0962 	 73.7815
| 35> C 	 -41.6707 	 25.5488 	 75.0299
| 36> H 	 -42.528 	 25.8518 	 74.4411
| 37> H 	 -41.7009 	 26.254 	 75.8331
| 38> H 	 -42.052 	 24.6715 	 75.4985
| 39> H 	 -39.9712 	 26.4259 	 81.6334
| 40> H 	 -39.7994 	 20.2672 	 75.9695
| 41> *
| 42>
| 43>                          ****END OF INPUT****

CARTESIAN COORDINATES (ANGSTROEM)
---------------------------------
  S    -40.441800   24.484100   79.951800
  C    -39.678100   25.872400   80.698700
  C    -38.637800   26.346500   79.882600
  C    -38.403600   25.496300   78.751000
  C    -39.299600   24.419400   78.634700
  H    -37.725000   25.685700   77.941800
  C    -37.826700   27.569300   80.233200
  H    -37.017300   27.160500   80.763800
  H    -38.445800   28.124900   80.918300
  C    -37.508000   28.449300   79.003300
  H    -36.919700   27.875900   78.188700
  H    -38.479700   28.769100   78.514700
  C    -36.734100   29.724200   79.170700
  H    -36.320300   30.134300   78.213900
  H    -37.336400   30.555100   79.569100
  H    -35.875400   29.528000   79.768000
  S    -39.628200   21.784300   77.919900
  C    -39.668300   21.255900   76.300500
  C    -39.503300   22.276300   75.451800
  C    -39.363900   23.532500   76.118000
  C    -39.435700   23.466100   77.525900
  H    -39.372900   22.044900   74.395800
  C    -39.142000   24.862200   75.340600
  H    -38.234300   24.596300   74.800400
  H    -38.849600   25.673000   76.013600
  C    -40.261300   25.271900   74.385700
  H    -40.391900   24.513900   73.582900
  H    -39.909500   26.096200   73.781500
  C    -41.670700   25.548800   75.029900
  H    -42.528000   25.851800   74.441100
  H    -41.700900   26.254000   75.833100
  H    -42.052000   24.671500   75.498500
  H    -39.971200   26.425900   81.633400
  H    -39.799400   20.267200   75.969500

 Total Charge           Charge          ....    0
 Multiplicity           Mult            ....    1
 Number of Electrons    NEL             ....  134
 Basis Dimension        Dim             ....  322

ORBITAL ENERGIES
----------------

  NO   OCC          E(Eh)            E(eV)
   0   2.0000     -88.968454     -2420.9547
   1   2.0000     -88.960415     -2420.7360
   2   2.0000     -10.334850      -281.2256
   3   2.0000     -10.329263      -281.0735
   4   2.0000     -10.319146      -280.7982
   5   2.0000     -10.308300      -280.5031
   6   2.0000     -10.307806      -280.4897
   7   2.0000     -10.303332      -280.3679
   8   2.0000     -10.298908      -280.2475
   9   2.0000     -10.295547      -280.1561
  10   2.0000     -10.293741      -280.1069
  11   2.0000     -10.291882      -280.0564
  12   2.0000     -10.291788      -280.0538
  13   2.0000     -10.289724      -279.9976
  14   2.0000     -10.278942      -279.7042
  15   2.0000     -10.268526      -279.4208
  16   2.0000      -8.082771      -219.9434
  17   2.0000      -8.076512      -219.7731
  18   2.0000      -6.041314      -164.3925
  19   2.0000      -6.037163      -164.2796
  20   2.0000      -6.034932      -164.2189
  21   2.0000      -6.033680      -164.1848
  22   2.0000      -6.030685      -164.1033
  23   2.0000      -6.027407      -164.0141
  24   2.0000      -1.009364       -27.4662
  25   2.0000      -0.986788       -26.8519
  26   2.0000      -0.913985       -24.8708
  27   2.0000      -0.901551       -24.5324
  28   2.0000      -0.873133       -23.7592
  29   2.0000      -0.849554       -23.1175
  30   2.0000      -0.840845       -22.8806
  31   2.0000      -0.819264       -22.2933
  32   2.0000      -0.786058       -21.3897
  33   2.0000      -0.775220       -21.0948
  34   2.0000      -0.713849       -19.4248
  35   2.0000      -0.701485       -19.0884
  36   2.0000      -0.687814       -18.7164
  37   2.0000      -0.654771       -17.8172
  38   2.0000      -0.637330       -17.3426
  39   2.0000      -0.621931       -16.9236
  40   2.0000      -0.594737       -16.1836
  41   2.0000      -0.573502       -15.6058
  42   2.0000      -0.567534       -15.4434
  43   2.0000      -0.548451       -14.9241
  44   2.0000      -0.534245       -14.5375
  45   2.0000      -0.528241       -14.3742
  46   2.0000      -0.516037       -14.0421
  47   2.0000      -0.512230       -13.9385
  48   2.0000      -0.504024       -13.7152
  49   2.0000      -0.502528       -13.6745
  50   2.0000      -0.494774       -13.4635
  51   2.0000      -0.478500       -13.0207
  52   2.0000      -0.471869       -12.8402
  53   2.0000      -0.466528       -12.6949
  54   2.0000      -0.461643       -12.5619
  55   2.0000      -0.451253       -12.2792
  56   2.0000      -0.446595       -12.1525
  57   2.0000      -0.439533       -11.9603
  58   2.0000      -0.427840       -11.6421
  59   2.0000      -0.421136       -11.4597
  60   2.0000      -0.417286       -11.3549
  61   2.0000      -0.413713       -11.2577
  62   2.0000      -0.403977       -10.9928
  63   2.0000      -0.350697        -9.5429
  64   2.0000      -0.330284        -8.9875
  65   2.0000      -0.328257        -8.9323
  66   2.0000      -0.292345        -7.9551
  67   0.0000       0.029624         0.8061
  68   0.0000       0.076764         2.0889
  69   0.0000       0.118010         3.2112
  70   0.0000       0.124915         3.3991
  71   0.0000       0.133220         3.6251

MULLIKEN ATOMIC CHARGES
-----------------------
   0 S :    0.122398
   1 C :   -0.138065
   2 C :   -0.138150
   3 C :    0.036145
   4 C :   -0.137032
   5 H :    0.008143
   6 C :    0.151294
   7 H :    0.037013
   8 H :    0.010914
   9 C :   -0.162720
  10 H :    0.044271
  11 H :    0.043025
  12 C :   -0.029416
  13 H :    0.033705
  14 H :    0.034763
  15 H :    0.021463
  16 S :    0.099859
  17 C :   -0.057792
  18 C :   -0.046664
  19 C :   -0.059718
  20 C :   -0.157656
  21 H :    0.023229
  22 C :    0.070892
  23 H :    0.030639
  24 H :    0.021207
  25 C :   -0.048471
  26 H :    0.023591
  27 H :    0.024147
  28 C :   -0.034181
  29 H :    0.026181
  30 H :    0.018434
  31 H :    0.023600
  32 H :    0.067633
  33 H :    0.037320
Sum of atomic charges:   -0.0000000

LOEWDIN ATOMIC CHARGES
----------------------
   0 S :    0.417651
   1 C :   -0.217641
   2 C :   -0.060028
   3 C :   -0.065278
   4 C :   -0.196224
   5 H :    0.024625
   6 C :   -0.024645
   7 H :    0.030840
   8 H :    0.029242
   9 C :   -0.054109
  10 H :    0.031049
  11 H :    0.033163
  12 C :   -0.071014
  13 H :    0.033118
  14 H :    0.025236
  15 H :    0.019169
  16 S :    0.426713
  17 C :   -0.185326
  18 C :   -0.081302
  19 C :   -0.052181
  20 C :   -0.211522
  21 H :    0.036160
  22 C :   -0.030603
  23 H :    0.035616
  24 H :    0.027651
  25 C :   -0.039473
  26 H :    0.026026
  27 H :    0.023082
  28 C :   -0.072270
  29 H :    0.027883
  30 H :    0.022263
  31 H :    0.024987
  32 H :    0.042906
  33 H :    0.024236

  Mayer bond orders larger than 0.100000
B(  0-S ,  1-C ) :   1.1426 B(  0-S ,  4-C ) :   1.1719 B(  1-C ,  2-C ) :   1.5912
B(  1-C ,  4-C ) :   0.1046 B(  1-C , 32-H ) :   0.9605 B(  2-C ,  3-C ) :   1.2591
B(  2-C ,  6-C ) :   1.0154 B(  3-C ,  4-C ) :   1.5478 B(  3-C ,  5-H ) :   0.9924
B(  4-C , 20-C ) :   1.0319 B(  6-C ,  7-H ) :   0.9317 B(  6-C ,  8-H ) :   0.9362
B(  6-C ,  9-C ) :   1.0568 B(  9-C , 10-H ) :   0.9532 B(  9-C , 11-H ) :   0.9593
B(  9-C , 12-C ) :   1.0940 B( 12-C , 13-H ) :   0.9725 B( 12-C , 14-H ) :   0.9740
B( 12-C , 15-H ) :   0.9707 B( 16-S , 17-C ) :   1.1721 B( 16-S , 20-C ) :   1.1487
B( 17-C , 18-C ) :   1.6042 B( 17-C , 33-H ) :   0.9706 B( 18-C , 19-C ) :   1.2500
B( 18-C , 21-H ) :   0.9933 B( 19-C , 20-C ) :   1.5707 B( 19-C , 22-C ) :   1.0199
B( 22-C , 23-H ) :   0.9316 B( 22-C , 24-H ) :   0.9400 B( 22-C , 25-C ) :   1.0837
B( 25-C , 26-H ) :   0.9542 B( 25-C , 27-H ) :   0.9554 B( 25-C , 28-C ) :   1.0538
B( 28-C , 29-H ) :   0.9772 B( 28-C , 30-H ) :   0.9774 B( 28-C , 31-H ) :   0.9735

Dispersion correction           -0.014235900
FINAL SINGLE POINT ENERGY     -1339.877309721982

DIPOLE MOMENT
-------------
                                X             Y             Z
Electronic contribution:     -6.07131     -25.44292      11.61086
Nuclear contribution   :      6.36652      25.93480     -12.00452
                        -----------------------------------------
Total Dipole Moment    :      0.29521       0.49188      -0.39365
                        -----------------------------------------
Magnitude (a.u.)       :      0.69574
Magnitude (Debye)      :      1.76843

Rotational constants in cm-1:     0.018746     0.008523     0.006850
Rotational constants in MHz :   561.985496   255.511383   205.349885

                             ****ORCA TERMINATED NORMALLY****
TOTAL RUN TIME: 0 days 0 hours 0 minutes 30 seconds 220 msec
