                         Program Version 4.2.1 -  RELEASE  -
|  1> ! wB97X-D3 SP def2-SVP
|  2> %pal
|  3> nprocs 16
|  4> end
|  5>
|  6> * xyz 0 1
|  7> S 	 9.18576 	 -12.2734 	 96.5938
|  8> C 	 10.3141 	 -12.2734 	 97.9074
|  9> C 	 9.76575 	 -11.9537 	 99.1366
| 10> C 	 8.3532 	 -11.8337 	 99.0014
| 11> C 	 7.91892 	 -11.9189 	 97.6875
| 12> H 	 7.60178 	 -11.5125 	 99.7078
| 13> C 	 10.4808 	 -11.9141 	 100.415
| 14> H 	 10.2129 	 -11.0044 	 100.941
| 15> H 	 11.6139 	 -11.8221 	 100.222
| 16> C 	 10.3258 	 -13.1141 	 101.435
| 17> H 	 11.0856 	 -13.1482 	 102.238
| 18> H 	 9.36413 	 -13.0649 	 101.919
| 19> C 	 10.2703 	 -14.4945 	 100.776
| 20> H 	 11.0855 	 -14.6849 	 100.023
| 21> H 	 10.4741 	 -15.2835 	 101.528
| 22> H 	 9.33865 	 -14.5814 	 100.308
| 23> S 	 6.37971 	 -10.63 	 95.7606
| 24> C 	 4.65322 	 -10.5072 	 96.086
| 25> C 	 4.2245 	 -11.292 	 97.12
| 26> C 	 5.28735 	 -11.8303 	 97.8519
| 27> C 	 6.53499 	 -11.6012 	 97.2974
| 28> H 	 3.1834 	 -11.3324 	 97.4099
| 29> C 	 4.93118 	 -12.6897 	 99.0576
| 30> H 	 5.84344 	 -13.3192 	 99.2325
| 31> H 	 4.13954 	 -13.3539 	 98.677
| 32> C 	 4.52891 	 -11.8846 	 100.244
| 33> H 	 3.67867 	 -11.3555 	 99.8392
| 34> H 	 5.26743 	 -11.2219 	 100.694
| 35> C 	 3.99206 	 -12.8558 	 101.324
| 36> H 	 3.56841 	 -13.8156 	 100.906
| 37> H 	 3.17296 	 -12.4498 	 101.98
| 38> H 	 4.76522 	 -13.252 	 102.009
| 39> H 	 11.3632 	 -12.3434 	 97.7955
| 40> H 	 4.03348 	 -10.058 	 95.2959
| 41> *
| 42>
| 43>                          ****END OF INPUT****

CARTESIAN COORDINATES (ANGSTROEM)
---------------------------------
  S      9.185760  -12.273400   96.593800
  C     10.314100  -12.273400   97.907400
  C      9.765750  -11.953700   99.136600
  C      8.353200  -11.833700   99.001400
  C      7.918920  -11.918900   97.687500
  H      7.601780  -11.512500   99.707800
  C     10.480800  -11.914100  100.415000
  H     10.212900  -11.004400  100.941000
  H     11.613900  -11.822100  100.222000
  C     10.325800  -13.114100  101.435000
  H     11.085600  -13.148200  102.238000
  H      9.364130  -13.064900  101.919000
  C     10.270300  -14.494500  100.776000
  H     11.085500  -14.684900  100.023000
  H     10.474100  -15.283500  101.528000
  H      9.338650  -14.581400  100.308000
  S      6.379710  -10.630000   95.760600
  C      4.653220  -10.507200   96.086000
  C      4.224500  -11.292000   97.120000
  C      5.287350  -11.830300   97.851900
  C      6.534990  -11.601200   97.297400
  H      3.183400  -11.332400   97.409900
  C      4.931180  -12.689700   99.057600
  H      5.843440  -13.319200   99.232500
  H      4.139540  -13.353900   98.677000
  C      4.528910  -11.884600  100.244000
  H      3.678670  -11.355500   99.839200
  H      5.267430  -11.221900  100.694000
  C      3.992060  -12.855800  101.324000
  H      3.568410  -13.815600  100.906000
  H      3.172960  -12.449800  101.980000
  H      4.765220  -13.252000  102.009000
  H     11.363200  -12.343400   97.795500
  H      4.033480  -10.058000   95.295900

 Total Charge           Charge          ....    0
 Multiplicity           Mult            ....    1
 Number of Electrons    NEL             ....  134
 Basis Dimension        Dim             ....  322

ORBITAL ENERGIES
----------------

  NO   OCC          E(Eh)            E(eV)
   0   2.0000     -88.971648     -2421.0416
   1   2.0000     -88.963349     -2420.8158
   2   2.0000     -10.332354      -281.1577
   3   2.0000     -10.327444      -281.0240
   4   2.0000     -10.319150      -280.7983
   5   2.0000     -10.309852      -280.5453
   6   2.0000     -10.300907      -280.3019
   7   2.0000     -10.300013      -280.2776
   8   2.0000     -10.298293      -280.2308
   9   2.0000     -10.294425      -280.1255
  10   2.0000     -10.291836      -280.0551
  11   2.0000     -10.291226      -280.0385
  12   2.0000     -10.290603      -280.0215
  13   2.0000     -10.289650      -279.9956
  14   2.0000     -10.287217      -279.9294
  15   2.0000     -10.272846      -279.5384
  16   2.0000      -8.087165      -220.0629
  17   2.0000      -8.077374      -219.7965
  18   2.0000      -6.045594      -164.5090
  19   2.0000      -6.041596      -164.4002
  20   2.0000      -6.037949      -164.3009
  21   2.0000      -6.035831      -164.2433
  22   2.0000      -6.032210      -164.1448
  23   2.0000      -6.028010      -164.0305
  24   2.0000      -1.010351       -27.4930
  25   2.0000      -0.986563       -26.8458
  26   2.0000      -0.917802       -24.9747
  27   2.0000      -0.911025       -24.7902
  28   2.0000      -0.867588       -23.6083
  29   2.0000      -0.855100       -23.2684
  30   2.0000      -0.848297       -23.0833
  31   2.0000      -0.812091       -22.0981
  32   2.0000      -0.782000       -21.2793
  33   2.0000      -0.771058       -20.9816
  34   2.0000      -0.707516       -19.2525
  35   2.0000      -0.698290       -19.0014
  36   2.0000      -0.694389       -18.8953
  37   2.0000      -0.666371       -18.1329
  38   2.0000      -0.642658       -17.4876
  39   2.0000      -0.616220       -16.7682
  40   2.0000      -0.595370       -16.2008
  41   2.0000      -0.574384       -15.6298
  42   2.0000      -0.565125       -15.3778
  43   2.0000      -0.554871       -15.0988
  44   2.0000      -0.545427       -14.8418
  45   2.0000      -0.525362       -14.2958
  46   2.0000      -0.514349       -13.9961
  47   2.0000      -0.514269       -13.9940
  48   2.0000      -0.503105       -13.6902
  49   2.0000      -0.495457       -13.4821
  50   2.0000      -0.490128       -13.3371
  51   2.0000      -0.474308       -12.9066
  52   2.0000      -0.464309       -12.6345
  53   2.0000      -0.461454       -12.5568
  54   2.0000      -0.460025       -12.5179
  55   2.0000      -0.454418       -12.3653
  56   2.0000      -0.445199       -12.1145
  57   2.0000      -0.441618       -12.0171
  58   2.0000      -0.435204       -11.8425
  59   2.0000      -0.429127       -11.6771
  60   2.0000      -0.418910       -11.3991
  61   2.0000      -0.415315       -11.3013
  62   2.0000      -0.409999       -11.1567
  63   2.0000      -0.352652        -9.5962
  64   2.0000      -0.336039        -9.1441
  65   2.0000      -0.333721        -9.0810
  66   2.0000      -0.286287        -7.7903
  67   0.0000       0.026239         0.7140
  68   0.0000       0.069697         1.8965
  69   0.0000       0.105251         2.8640
  70   0.0000       0.118521         3.2251
  71   0.0000       0.124735         3.3942

MULLIKEN ATOMIC CHARGES
-----------------------
   0 S :    0.128714
   1 C :   -0.097557
   2 C :   -0.069470
   3 C :    0.006456
   4 C :   -0.134149
   5 H :   -0.002861
   6 C :    0.053345
   7 H :    0.033161
   8 H :    0.030874
   9 C :   -0.079424
  10 H :    0.036912
  11 H :    0.023331
  12 C :   -0.056021
  13 H :    0.026964
  14 H :    0.034383
  15 H :    0.034327
  16 S :    0.073440
  17 C :   -0.097312
  18 C :   -0.023665
  19 C :   -0.048983
  20 C :   -0.145144
  21 H :    0.024648
  22 C :    0.014890
  23 H :    0.031999
  24 H :    0.041171
  25 C :   -0.026915
  26 H :    0.020593
  27 H :    0.050497
  28 C :   -0.086284
  29 H :    0.027501
  30 H :    0.043294
  31 H :    0.035425
  32 H :    0.028912
  33 H :    0.066949
Sum of atomic charges:    0.0000000

LOEWDIN ATOMIC CHARGES
----------------------
   0 S :    0.431949
   1 C :   -0.194073
   2 C :   -0.063305
   3 C :   -0.066052
   4 C :   -0.204912
   5 H :    0.029012
   6 C :   -0.037842
   7 H :    0.032499
   8 H :    0.038632
   9 C :   -0.039971
  10 H :    0.026970
  11 H :    0.020660
  12 C :   -0.067118
  13 H :    0.025277
  14 H :    0.029308
  15 H :    0.017945
  16 S :    0.358861
  17 C :   -0.171963
  18 C :   -0.074417
  19 C :   -0.061925
  20 C :   -0.167217
  21 H :    0.033834
  22 C :   -0.032801
  23 H :    0.030101
  24 H :    0.037086
  25 C :   -0.038768
  26 H :    0.025921
  27 H :    0.029647
  28 C :   -0.078690
  29 H :    0.028089
  30 H :    0.029082
  31 H :    0.026163
  32 H :    0.018588
  33 H :    0.029432

  Mayer bond orders larger than 0.100000
B(  0-S ,  1-C ) :   1.1394 B(  0-S ,  4-C ) :   1.1602 B(  1-C ,  2-C ) :   1.6033
B(  1-C , 32-H ) :   0.9652 B(  2-C ,  3-C ) :   1.2252 B(  2-C ,  6-C ) :   1.0557
B(  3-C ,  4-C ) :   1.5646 B(  3-C ,  5-H ) :   0.9964 B(  4-C , 20-C ) :   1.0473
B(  6-C ,  7-H ) :   0.9348 B(  6-C ,  8-H ) :   0.9379 B(  6-C ,  9-C ) :   1.0548
B(  9-C , 10-H ) :   0.9639 B(  9-C , 11-H ) :   0.9559 B(  9-C , 12-C ) :   1.0789
B( 12-C , 13-H ) :   0.9770 B( 12-C , 14-H ) :   0.9738 B( 12-C , 15-H ) :   0.9725
B( 16-S , 17-C ) :   1.1548 B( 16-S , 20-C ) :   1.1123 B( 17-C , 18-C ) :   1.6193
B( 17-C , 20-C ) :   0.1020 B( 17-C , 33-H ) :   0.9604 B( 18-C , 19-C ) :   1.2300
B( 18-C , 21-H ) :   0.9858 B( 19-C , 20-C ) :   1.6321 B( 19-C , 22-C ) :   1.0228
B( 22-C , 23-H ) :   0.9337 B( 22-C , 24-H ) :   0.9403 B( 22-C , 25-C ) :   1.0681
B( 25-C , 26-H ) :   0.9522 B( 25-C , 27-H ) :   0.9531 B( 25-C , 28-C ) :   1.0695
B( 28-C , 29-H ) :   0.9731 B( 28-C , 30-H ) :   0.9771 B( 28-C , 31-H ) :   0.9755

Dispersion correction           -0.014506264
FINAL SINGLE POINT ENERGY     -1339.877634494660

DIPOLE MOMENT
-------------
                                X             Y             Z
Electronic contribution:      2.77636      10.65680     -28.58311
Nuclear contribution   :     -3.00793     -10.74850      29.15984
                        -----------------------------------------
Total Dipole Moment    :     -0.23157      -0.09170       0.57673
                        -----------------------------------------
Magnitude (a.u.)       :      0.62821
Magnitude (Debye)      :      1.59679

Rotational constants in cm-1:     0.016972     0.010026     0.006755
Rotational constants in MHz :   508.820000   300.576720   202.513411

                             ****ORCA TERMINATED NORMALLY****
TOTAL RUN TIME: 0 days 0 hours 0 minutes 34 seconds 451 msec
