                         Program Version 4.2.1 -  RELEASE  -
|  1> ! wB97X-D3 SP def2-SVP
|  2> %pal
|  3> nprocs 16
|  4> end
|  5>
|  6> * xyz 0 1
|  7> S 	 -27.5544 	 -2.72212 	 104.996
|  8> C 	 -28.5589 	 -2.80475 	 106.408
|  9> C 	 -29.924 	 -3.10302 	 106.046
| 10> C 	 -30.1007 	 -2.92135 	 104.635
| 11> C 	 -28.9538 	 -2.60921 	 103.934
| 12> H 	 -31.0686 	 -3.03593 	 104.1
| 13> C 	 -31.0549 	 -3.46417 	 107.05
| 14> H 	 -31.9557 	 -2.89206 	 106.765
| 15> H 	 -30.7938 	 -3.06518 	 108.037
| 16> C 	 -31.336 	 -4.94685 	 107.325
| 17> H 	 -30.4149 	 -5.43573 	 107.669
| 18> H 	 -32.101 	 -4.87663 	 108.083
| 19> C 	 -31.8488 	 -5.75857 	 106.145
| 20> H 	 -31.0715 	 -6.03719 	 105.447
| 21> H 	 -32.2619 	 -6.64261 	 106.52
| 22> H 	 -32.5467 	 -5.1482 	 105.524
| 23> S 	 -27.3151 	 -2.96738 	 101.747
| 24> C 	 -27.7545 	 -2.25663 	 100.177
| 25> C 	 -29.0853 	 -1.78347 	 100.357
| 26> C 	 -29.6635 	 -1.85416 	 101.637
| 27> C 	 -28.7756 	 -2.3345 	 102.509
| 28> H 	 -29.5588 	 -1.3657 	 99.4703
| 29> C 	 -31.1243 	 -1.35323 	 101.872
| 30> H 	 -31.2887 	 -0.342292 	 101.475
| 31> H 	 -31.2098 	 -1.14532 	 102.935
| 32> C 	 -32.2279 	 -2.27762 	 101.428
| 33> H 	 -32.1293 	 -3.32887 	 101.726
| 34> H 	 -32.4142 	 -2.26394 	 100.352
| 35> C 	 -33.5873 	 -1.7247 	 102.097
| 36> H 	 -34.4708 	 -2.40324 	 101.784
| 37> H 	 -33.8571 	 -0.744931 	 101.752
| 38> H 	 -33.5676 	 -1.73254 	 103.163
| 39> H 	 -28.2875 	 -2.79957 	 107.451
| 40> H 	 -27.1385 	 -2.27102 	 99.2065
| 41> *
| 42>
| 43>                          ****END OF INPUT****

CARTESIAN COORDINATES (ANGSTROEM)
---------------------------------
  S    -27.554400   -2.722120  104.996000
  C    -28.558900   -2.804750  106.408000
  C    -29.924000   -3.103020  106.046000
  C    -30.100700   -2.921350  104.635000
  C    -28.953800   -2.609210  103.934000
  H    -31.068600   -3.035930  104.100000
  C    -31.054900   -3.464170  107.050000
  H    -31.955700   -2.892060  106.765000
  H    -30.793800   -3.065180  108.037000
  C    -31.336000   -4.946850  107.325000
  H    -30.414900   -5.435730  107.669000
  H    -32.101000   -4.876630  108.083000
  C    -31.848800   -5.758570  106.145000
  H    -31.071500   -6.037190  105.447000
  H    -32.261900   -6.642610  106.520000
  H    -32.546700   -5.148200  105.524000
  S    -27.315100   -2.967380  101.747000
  C    -27.754500   -2.256630  100.177000
  C    -29.085300   -1.783470  100.357000
  C    -29.663500   -1.854160  101.637000
  C    -28.775600   -2.334500  102.509000
  H    -29.558800   -1.365700   99.470300
  C    -31.124300   -1.353230  101.872000
  H    -31.288700   -0.342292  101.475000
  H    -31.209800   -1.145320  102.935000
  C    -32.227900   -2.277620  101.428000
  H    -32.129300   -3.328870  101.726000
  H    -32.414200   -2.263940  100.352000
  C    -33.587300   -1.724700  102.097000
  H    -34.470800   -2.403240  101.784000
  H    -33.857100   -0.744931  101.752000
  H    -33.567600   -1.732540  103.163000
  H    -28.287500   -2.799570  107.451000
  H    -27.138500   -2.271020   99.206500

 Total Charge           Charge          ....    0
 Multiplicity           Mult            ....    1
 Number of Electrons    NEL             ....  134
 Basis Dimension        Dim             ....  322

ORBITAL ENERGIES
----------------

  NO   OCC          E(Eh)            E(eV)
   0   2.0000     -88.969230     -2420.9758
   1   2.0000     -88.964650     -2420.8512
   2   2.0000     -10.329948      -281.0922
   3   2.0000     -10.329040      -281.0675
   4   2.0000     -10.326466      -280.9974
   5   2.0000     -10.318757      -280.7877
   6   2.0000     -10.309303      -280.5304
   7   2.0000     -10.298887      -280.2470
   8   2.0000     -10.298791      -280.2443
   9   2.0000     -10.298011      -280.2231
  10   2.0000     -10.297823      -280.2180
  11   2.0000     -10.296594      -280.1846
  12   2.0000     -10.295412      -280.1524
  13   2.0000     -10.287333      -279.9326
  14   2.0000     -10.287081      -279.9257
  15   2.0000     -10.272018      -279.5158
  16   2.0000      -8.083641      -219.9671
  17   2.0000      -8.078848      -219.8366
  18   2.0000      -6.042185      -164.4162
  19   2.0000      -6.038245      -164.3090
  20   2.0000      -6.037586      -164.2911
  21   2.0000      -6.034337      -164.2027
  22   2.0000      -6.033438      -164.1782
  23   2.0000      -6.029380      -164.0678
  24   2.0000      -1.007499       -27.4154
  25   2.0000      -0.981045       -26.6956
  26   2.0000      -0.909976       -24.7617
  27   2.0000      -0.907310       -24.6892
  28   2.0000      -0.864886       -23.5347
  29   2.0000      -0.851863       -23.1804
  30   2.0000      -0.841907       -22.9095
  31   2.0000      -0.810157       -22.0455
  32   2.0000      -0.781917       -21.2770
  33   2.0000      -0.774994       -21.0887
  34   2.0000      -0.706985       -19.2380
  35   2.0000      -0.697690       -18.9851
  36   2.0000      -0.695832       -18.9345
  37   2.0000      -0.662147       -18.0179
  38   2.0000      -0.635212       -17.2850
  39   2.0000      -0.614935       -16.7332
  40   2.0000      -0.594285       -16.1713
  41   2.0000      -0.571719       -15.5573
  42   2.0000      -0.566553       -15.4167
  43   2.0000      -0.546309       -14.8658
  44   2.0000      -0.542634       -14.7658
  45   2.0000      -0.525953       -14.3119
  46   2.0000      -0.514930       -14.0120
  47   2.0000      -0.511064       -13.9067
  48   2.0000      -0.503518       -13.7014
  49   2.0000      -0.498353       -13.5609
  50   2.0000      -0.493210       -13.4209
  51   2.0000      -0.476850       -12.9758
  52   2.0000      -0.470507       -12.8031
  53   2.0000      -0.466710       -12.6998
  54   2.0000      -0.460371       -12.5273
  55   2.0000      -0.447959       -12.1896
  56   2.0000      -0.443236       -12.0611
  57   2.0000      -0.435588       -11.8530
  58   2.0000      -0.434896       -11.8341
  59   2.0000      -0.426250       -11.5989
  60   2.0000      -0.422647       -11.5008
  61   2.0000      -0.415322       -11.3015
  62   2.0000      -0.409720       -11.1491
  63   2.0000      -0.355183        -9.6650
  64   2.0000      -0.333042        -9.0625
  65   2.0000      -0.330156        -8.9840
  66   2.0000      -0.282596        -7.6898
  67   0.0000       0.020525         0.5585
  68   0.0000       0.070521         1.9190
  69   0.0000       0.098978         2.6933
  70   0.0000       0.118539         3.2256
  71   0.0000       0.126150         3.4327

MULLIKEN ATOMIC CHARGES
-----------------------
   0 S :    0.118665
   1 C :   -0.097422
   2 C :   -0.113182
   3 C :    0.004525
   4 C :   -0.148462
   5 H :    0.016200
   6 C :    0.031482
   7 H :    0.031781
   8 H :    0.018399
   9 C :   -0.051806
  10 H :    0.032719
  11 H :    0.029516
  12 C :   -0.034537
  13 H :    0.035947
  14 H :    0.027229
  15 H :    0.022278
  16 S :    0.087312
  17 C :   -0.130809
  18 C :   -0.050179
  19 C :   -0.020047
  20 C :   -0.106547
  21 H :    0.015601
  22 C :    0.058636
  23 H :    0.030619
  24 H :    0.015882
  25 C :   -0.064797
  26 H :    0.043895
  27 H :    0.038908
  28 C :   -0.083948
  29 H :    0.040946
  30 H :    0.030644
  31 H :    0.030083
  32 H :    0.044929
  33 H :    0.095541
Sum of atomic charges:   -0.0000000

LOEWDIN ATOMIC CHARGES
----------------------
   0 S :    0.413070
   1 C :   -0.204199
   2 C :   -0.060400
   3 C :   -0.072854
   4 C :   -0.187984
   5 H :    0.035790
   6 C :   -0.036148
   7 H :    0.030315
   8 H :    0.031401
   9 C :   -0.035760
  10 H :    0.028490
  11 H :    0.024719
  12 C :   -0.063828
  13 H :    0.026955
  14 H :    0.019944
  15 H :    0.024906
  16 S :    0.380108
  17 C :   -0.201069
  18 C :   -0.066503
  19 C :   -0.068909
  20 C :   -0.180816
  21 H :    0.027147
  22 C :   -0.030516
  23 H :    0.036028
  24 H :    0.027620
  25 C :   -0.036336
  26 H :    0.026731
  27 H :    0.026989
  28 C :   -0.065225
  29 H :    0.033968
  30 H :    0.019615
  31 H :    0.015821
  32 H :    0.027199
  33 H :    0.053733

  Mayer bond orders larger than 0.100000
B(  0-S ,  1-C ) :   1.1561 B(  0-S ,  4-C ) :   1.1451 B(  1-C ,  2-C ) :   1.5789
B(  1-C ,  4-C ) :   0.1087 B(  1-C , 32-H ) :   0.9682 B(  2-C ,  3-C ) :   1.2632
B(  2-C ,  6-C ) :   1.0170 B(  3-C ,  4-C ) :   1.5565 B(  3-C ,  5-H ) :   0.9832
B(  4-C , 20-C ) :   1.0455 B(  6-C ,  7-H ) :   0.9457 B(  6-C ,  8-H ) :   0.9405
B(  6-C ,  9-C ) :   1.0786 B(  9-C , 10-H ) :   0.9513 B(  9-C , 11-H ) :   0.9547
B(  9-C , 12-C ) :   1.0844 B( 12-C , 13-H ) :   0.9725 B( 12-C , 14-H ) :   0.9729
B( 12-C , 15-H ) :   0.9751 B( 16-S , 17-C ) :   1.1274 B( 16-S , 20-C ) :   1.1358
B( 17-C , 18-C ) :   1.6009 B( 17-C , 20-C ) :   0.1049 B( 17-C , 33-H ) :   0.9615
B( 18-C , 19-C ) :   1.2329 B( 18-C , 21-H ) :   0.9880 B( 19-C , 20-C ) :   1.6400
B( 19-C , 22-C ) :   1.0195 B( 22-C , 23-H ) :   0.9335 B( 22-C , 24-H ) :   0.9400
B( 22-C , 25-C ) :   1.0622 B( 25-C , 26-H ) :   0.9567 B( 25-C , 27-H ) :   0.9539
B( 25-C , 28-C ) :   1.0695 B( 28-C , 29-H ) :   0.9763 B( 28-C , 30-H ) :   0.9770
B( 28-C , 31-H ) :   0.9799

Dispersion correction           -0.014415812
FINAL SINGLE POINT ENERGY     -1339.868017468054

DIPOLE MOMENT
-------------
                                X             Y             Z
Electronic contribution:     29.97968       4.25092      -5.77297
Nuclear contribution   :    -30.72748      -4.27700       5.81001
                        -----------------------------------------
Total Dipole Moment    :     -0.74779      -0.02608       0.03704
                        -----------------------------------------
Magnitude (a.u.)       :      0.74916
Magnitude (Debye)      :      1.90422

Rotational constants in cm-1:     0.016661     0.009894     0.006963
Rotational constants in MHz :   499.470151   296.612752   208.759528

                             ****ORCA TERMINATED NORMALLY****
TOTAL RUN TIME: 0 days 0 hours 0 minutes 30 seconds 868 msec
