                         Program Version 4.2.1 -  RELEASE  -
|  1> ! wB97X-D3 SP def2-SVP
|  2> %pal
|  3> nprocs 16
|  4> end
|  5>
|  6> * xyz 0 1
|  7> S 	 -70.4233 	 39.1195 	 140.372
|  8> C 	 -71.6793 	 38.1747 	 139.512
|  9> C 	 -71.1832 	 37.4438 	 138.427
| 10> C 	 -69.7198 	 37.657 	 138.322
| 11> C 	 -69.162 	 38.398 	 139.359
| 12> H 	 -69.068 	 37.2167 	 137.605
| 13> C 	 -72.1288 	 36.6235 	 137.523
| 14> H 	 -71.733 	 36.4735 	 136.518
| 15> H 	 -72.9922 	 37.2647 	 137.34
| 16> C 	 -72.7094 	 35.3419 	 138.161
| 17> H 	 -71.9072 	 34.5652 	 138.242
| 18> H 	 -73.0397 	 35.5794 	 139.233
| 19> C 	 -73.813 	 34.5718 	 137.421
| 20> H 	 -73.3439 	 33.8808 	 136.731
| 21> H 	 -74.3494 	 33.9516 	 138.178
| 22> H 	 -74.4611 	 35.3098 	 136.93
| 23> S 	 -66.8272 	 37.3173 	 140.29
| 24> C 	 -65.4399 	 38.4316 	 140.564
| 25> C 	 -65.6599 	 39.6741 	 139.935
| 26> C 	 -66.9615 	 39.7937 	 139.359
| 27> C 	 -67.7213 	 38.6508 	 139.59
| 28> H 	 -64.9905 	 40.5259 	 139.996
| 29> C 	 -67.4287 	 41.0573 	 138.777
| 30> H 	 -68.2893 	 40.9289 	 138.147
| 31> H 	 -66.7158 	 41.4172 	 138.08
| 32> C 	 -67.6203 	 42.2907 	 139.779
| 33> H 	 -68.0251 	 43.1133 	 139.192
| 34> H 	 -66.7492 	 42.6848 	 140.277
| 35> C 	 -68.6814 	 42.0026 	 140.936
| 36> H 	 -68.166 	 41.2372 	 141.52
| 37> H 	 -69.6427 	 41.6673 	 140.536
| 38> H 	 -68.8953 	 42.8951 	 141.591
| 39> H 	 -72.7579 	 38.1297 	 139.661
| 40> H 	 -64.6186 	 38.2003 	 141.228
| 41> *
| 42>
| 43>                          ****END OF INPUT****

CARTESIAN COORDINATES (ANGSTROEM)
---------------------------------
  S    -70.423300   39.119500  140.372000
  C    -71.679300   38.174700  139.512000
  C    -71.183200   37.443800  138.427000
  C    -69.719800   37.657000  138.322000
  C    -69.162000   38.398000  139.359000
  H    -69.068000   37.216700  137.605000
  C    -72.128800   36.623500  137.523000
  H    -71.733000   36.473500  136.518000
  H    -72.992200   37.264700  137.340000
  C    -72.709400   35.341900  138.161000
  H    -71.907200   34.565200  138.242000
  H    -73.039700   35.579400  139.233000
  C    -73.813000   34.571800  137.421000
  H    -73.343900   33.880800  136.731000
  H    -74.349400   33.951600  138.178000
  H    -74.461100   35.309800  136.930000
  S    -66.827200   37.317300  140.290000
  C    -65.439900   38.431600  140.564000
  C    -65.659900   39.674100  139.935000
  C    -66.961500   39.793700  139.359000
  C    -67.721300   38.650800  139.590000
  H    -64.990500   40.525900  139.996000
  C    -67.428700   41.057300  138.777000
  H    -68.289300   40.928900  138.147000
  H    -66.715800   41.417200  138.080000
  C    -67.620300   42.290700  139.779000
  H    -68.025100   43.113300  139.192000
  H    -66.749200   42.684800  140.277000
  C    -68.681400   42.002600  140.936000
  H    -68.166000   41.237200  141.520000
  H    -69.642700   41.667300  140.536000
  H    -68.895300   42.895100  141.591000
  H    -72.757900   38.129700  139.661000
  H    -64.618600   38.200300  141.228000

 Total Charge           Charge          ....    0
 Multiplicity           Mult            ....    1
 Number of Electrons    NEL             ....  134
 Basis Dimension        Dim             ....  322

ORBITAL ENERGIES
----------------

  NO   OCC          E(Eh)            E(eV)
   0   2.0000     -88.969307     -2420.9779
   1   2.0000     -88.968410     -2420.9535
   2   2.0000     -10.331620      -281.1377
   3   2.0000     -10.327344      -281.0213
   4   2.0000     -10.325286      -280.9653
   5   2.0000     -10.316924      -280.7378
   6   2.0000     -10.309962      -280.5483
   7   2.0000     -10.302298      -280.3398
   8   2.0000     -10.299599      -280.2663
   9   2.0000     -10.299045      -280.2513
  10   2.0000     -10.298822      -280.2452
  11   2.0000     -10.293923      -280.1119
  12   2.0000     -10.290805      -280.0270
  13   2.0000     -10.288888      -279.9749
  14   2.0000     -10.283353      -279.8243
  15   2.0000     -10.275906      -279.6216
  16   2.0000      -8.082283      -219.9301
  17   2.0000      -8.082096      -219.9250
  18   2.0000      -6.040894      -164.3811
  19   2.0000      -6.040845      -164.3798
  20   2.0000      -6.036969      -164.2743
  21   2.0000      -6.036835      -164.2706
  22   2.0000      -6.032976      -164.1656
  23   2.0000      -6.032675      -164.1574
  24   2.0000      -0.997485       -27.1429
  25   2.0000      -0.972396       -26.4602
  26   2.0000      -0.905934       -24.6517
  27   2.0000      -0.901592       -24.5336
  28   2.0000      -0.862730       -23.4761
  29   2.0000      -0.842917       -22.9369
  30   2.0000      -0.840909       -22.8823
  31   2.0000      -0.810726       -22.0610
  32   2.0000      -0.784023       -21.3344
  33   2.0000      -0.768010       -20.8986
  34   2.0000      -0.702543       -19.1172
  35   2.0000      -0.691472       -18.8159
  36   2.0000      -0.689401       -18.7596
  37   2.0000      -0.663313       -18.0497
  38   2.0000      -0.636372       -17.3166
  39   2.0000      -0.610987       -16.6258
  40   2.0000      -0.598072       -16.2744
  41   2.0000      -0.569300       -15.4914
  42   2.0000      -0.556774       -15.1506
  43   2.0000      -0.542846       -14.7716
  44   2.0000      -0.538984       -14.6665
  45   2.0000      -0.524485       -14.2720
  46   2.0000      -0.517790       -14.0898
  47   2.0000      -0.508472       -13.8362
  48   2.0000      -0.502162       -13.6645
  49   2.0000      -0.495113       -13.4727
  50   2.0000      -0.485900       -13.2220
  51   2.0000      -0.474640       -12.9156
  52   2.0000      -0.469149       -12.7662
  53   2.0000      -0.460575       -12.5329
  54   2.0000      -0.456226       -12.4145
  55   2.0000      -0.444977       -12.1085
  56   2.0000      -0.441355       -12.0099
  57   2.0000      -0.440332       -11.9820
  58   2.0000      -0.428630       -11.6636
  59   2.0000      -0.424574       -11.5533
  60   2.0000      -0.422015       -11.4836
  61   2.0000      -0.410779       -11.1779
  62   2.0000      -0.408775       -11.1233
  63   2.0000      -0.335238        -9.1223
  64   2.0000      -0.330108        -8.9827
  65   2.0000      -0.320618        -8.7245
  66   2.0000      -0.302513        -8.2318
  67   0.0000       0.039618         1.0781
  68   0.0000       0.047755         1.2995
  69   0.0000       0.099637         2.7112
  70   0.0000       0.111163         3.0249
  71   0.0000       0.127307         3.4642

MULLIKEN ATOMIC CHARGES
-----------------------
   0 S :    0.121234
   1 C :   -0.114352
   2 C :   -0.095836
   3 C :    0.059111
   4 C :   -0.171837
   5 H :    0.002645
   6 C :    0.077449
   7 H :    0.024253
   8 H :    0.022694
   9 C :   -0.136407
  10 H :    0.033874
  11 H :    0.039006
  12 C :   -0.036850
  13 H :    0.036955
  14 H :    0.045060
  15 H :    0.033213
  16 S :    0.117485
  17 C :   -0.104685
  18 C :   -0.025343
  19 C :   -0.008927
  20 C :   -0.199954
  21 H :    0.022901
  22 C :    0.092815
  23 H :    0.025896
  24 H :    0.018297
  25 C :   -0.082835
  26 H :    0.028627
  27 H :    0.029850
  28 C :   -0.097678
  29 H :    0.045069
  30 H :    0.043836
  31 H :    0.042377
  32 H :    0.047407
  33 H :    0.064649
Sum of atomic charges:    0.0000000

LOEWDIN ATOMIC CHARGES
----------------------
   0 S :    0.407111
   1 C :   -0.190493
   2 C :   -0.056314
   3 C :   -0.056406
   4 C :   -0.194131
   5 H :    0.025677
   6 C :   -0.037170
   7 H :    0.029871
   8 H :    0.030528
   9 C :   -0.053023
  10 H :    0.026693
  11 H :    0.028112
  12 C :   -0.066604
  13 H :    0.024857
  14 H :    0.036121
  15 H :    0.023249
  16 S :    0.394965
  17 C :   -0.169738
  18 C :   -0.061217
  19 C :   -0.057785
  20 C :   -0.201632
  21 H :    0.031993
  22 C :   -0.031302
  23 H :    0.033279
  24 H :    0.032680
  25 C :   -0.032342
  26 H :    0.021962
  27 H :    0.018957
  28 C :   -0.079219
  29 H :    0.023355
  30 H :    0.009481
  31 H :    0.030185
  32 H :    0.029876
  33 H :    0.028423

  Mayer bond orders larger than 0.100000
B(  0-S ,  1-C ) :   1.1250 B(  0-S ,  4-C ) :   1.1260 B(  1-C ,  2-C ) :   1.6479
B(  1-C , 32-H ) :   0.9599 B(  2-C ,  3-C ) :   1.2032 B(  2-C ,  6-C ) :   1.0211
B(  3-C ,  4-C ) :   1.6203 B(  3-C ,  5-H ) :   0.9950 B(  4-C , 20-C ) :   1.0121
B(  6-C ,  7-H ) :   0.9448 B(  6-C ,  8-H ) :   0.9371 B(  6-C ,  9-C ) :   1.0554
B(  9-C , 10-H ) :   0.9588 B(  9-C , 11-H ) :   0.9608 B(  9-C , 12-C ) :   1.0691
B( 12-C , 13-H ) :   0.9793 B( 12-C , 14-H ) :   0.9739 B( 12-C , 15-H ) :   0.9764
B( 16-S , 17-C ) :   1.1441 B( 16-S , 20-C ) :   1.1477 B( 17-C , 18-C ) :   1.6044
B( 17-C , 33-H ) :   0.9711 B( 18-C , 19-C ) :   1.2246 B( 18-C , 21-H ) :   0.9869
B( 19-C , 20-C ) :   1.5915 B( 19-C , 22-C ) :   1.0763 B( 22-C , 23-H ) :   0.9281
B( 22-C , 24-H ) :   0.9212 B( 22-C , 25-C ) :   1.0573 B( 25-C , 26-H ) :   0.9587
B( 25-C , 27-H ) :   0.9622 B( 25-C , 28-C ) :   1.0596 B( 28-C , 29-H ) :   0.9787
B( 28-C , 30-H ) :   0.9699 B( 28-C , 31-H ) :   0.9745

Dispersion correction           -0.014913788
FINAL SINGLE POINT ENERGY     -1339.869008763939

DIPOLE MOMENT
-------------
                                X             Y             Z
Electronic contribution:     13.84891      -1.97729       7.69933
Nuclear contribution   :    -13.92740       2.10947      -8.02263
                        -----------------------------------------
Total Dipole Moment    :     -0.07848       0.13219      -0.32330
                        -----------------------------------------
Magnitude (a.u.)       :      0.35798
Magnitude (Debye)      :      0.90992

Rotational constants in cm-1:     0.024663     0.007272     0.006216
Rotational constants in MHz :   739.386119   218.021342   186.358849

                             ****ORCA TERMINATED NORMALLY****
TOTAL RUN TIME: 0 days 0 hours 0 minutes 32 seconds 487 msec
