                         Program Version 4.2.1 -  RELEASE  -
|  1> ! wB97X-D3 SP def2-SVP
|  2> %pal
|  3> nprocs 16
|  4> end
|  5>
|  6> * xyz 0 1
|  7> S 	 30.9752 	 3.29932 	 66.3034
|  8> C 	 31.3074 	 4.7391 	 65.2338
|  9> C 	 30.6843 	 4.54322 	 64.0283
| 10> C 	 30.0796 	 3.30488 	 63.9156
| 11> C 	 30.2014 	 2.4408 	 64.9658
| 12> H 	 29.7692 	 2.91604 	 62.9799
| 13> C 	 30.5771 	 5.51485 	 62.856
| 14> H 	 30.6399 	 6.49261 	 63.25
| 15> H 	 29.5428 	 5.38326 	 62.4535
| 16> C 	 31.7388 	 5.21695 	 61.7562
| 17> H 	 31.7312 	 4.17876 	 61.4216
| 18> H 	 31.6132 	 5.88316 	 60.928
| 19> C 	 33.2094 	 5.37108 	 62.4001
| 20> H 	 33.2906 	 4.75242 	 63.3156
| 21> H 	 34.0662 	 5.13896 	 61.6913
| 22> H 	 33.4827 	 6.38445 	 62.6974
| 23> S 	 31.51 	 0.0176149 	 64.883
| 24> C 	 30.6223 	 -1.45755 	 64.8987
| 25> C 	 29.2621 	 -1.2305 	 64.7361
| 26> C 	 28.9264 	 0.148981 	 64.6772
| 27> C 	 30.0204 	 0.950772 	 64.9377
| 28> H 	 28.4897 	 -1.99519 	 64.7856
| 29> C 	 27.476 	 0.604485 	 64.5219
| 30> H 	 27.2382 	 1.41116 	 65.2696
| 31> H 	 26.8456 	 -0.234006 	 64.8326
| 32> C 	 27.1362 	 1.22706 	 63.1332
| 33> H 	 27.3961 	 0.46653 	 62.3688
| 34> H 	 27.6371 	 2.18437 	 62.8472
| 35> C 	 25.6086 	 1.36422 	 62.8936
| 36> H 	 25.0929 	 0.389665 	 63.0031
| 37> H 	 25.3813 	 1.70713 	 61.8805
| 38> H 	 25.1572 	 1.97057 	 63.709
| 39> H 	 31.7521 	 5.72398 	 65.3894
| 40> H 	 31.0859 	 -2.38735 	 65.114
| 41> *
| 42>
| 43>                          ****END OF INPUT****

CARTESIAN COORDINATES (ANGSTROEM)
---------------------------------
  S     30.975200    3.299320   66.303400
  C     31.307400    4.739100   65.233800
  C     30.684300    4.543220   64.028300
  C     30.079600    3.304880   63.915600
  C     30.201400    2.440800   64.965800
  H     29.769200    2.916040   62.979900
  C     30.577100    5.514850   62.856000
  H     30.639900    6.492610   63.250000
  H     29.542800    5.383260   62.453500
  C     31.738800    5.216950   61.756200
  H     31.731200    4.178760   61.421600
  H     31.613200    5.883160   60.928000
  C     33.209400    5.371080   62.400100
  H     33.290600    4.752420   63.315600
  H     34.066200    5.138960   61.691300
  H     33.482700    6.384450   62.697400
  S     31.510000    0.017615   64.883000
  C     30.622300   -1.457550   64.898700
  C     29.262100   -1.230500   64.736100
  C     28.926400    0.148981   64.677200
  C     30.020400    0.950772   64.937700
  H     28.489700   -1.995190   64.785600
  C     27.476000    0.604485   64.521900
  H     27.238200    1.411160   65.269600
  H     26.845600   -0.234006   64.832600
  C     27.136200    1.227060   63.133200
  H     27.396100    0.466530   62.368800
  H     27.637100    2.184370   62.847200
  C     25.608600    1.364220   62.893600
  H     25.092900    0.389665   63.003100
  H     25.381300    1.707130   61.880500
  H     25.157200    1.970570   63.709000
  H     31.752100    5.723980   65.389400
  H     31.085900   -2.387350   65.114000

 Total Charge           Charge          ....    0
 Multiplicity           Mult            ....    1
 Number of Electrons    NEL             ....  134
 Basis Dimension        Dim             ....  322

ORBITAL ENERGIES
----------------

  NO   OCC          E(Eh)            E(eV)
   0   2.0000     -88.968623     -2420.9593
   1   2.0000     -88.964879     -2420.8574
   2   2.0000     -10.332127      -281.1515
   3   2.0000     -10.328957      -281.0652
   4   2.0000     -10.319468      -280.8070
   5   2.0000     -10.315331      -280.6944
   6   2.0000     -10.303698      -280.3779
   7   2.0000     -10.301161      -280.3088
   8   2.0000     -10.300476      -280.2902
   9   2.0000     -10.300211      -280.2830
  10   2.0000     -10.294982      -280.1407
  11   2.0000     -10.294593      -280.1301
  12   2.0000     -10.294101      -280.1167
  13   2.0000     -10.285526      -279.8834
  14   2.0000     -10.283962      -279.8408
  15   2.0000     -10.282455      -279.7998
  16   2.0000      -8.081635      -219.9125
  17   2.0000      -8.080202      -219.8735
  18   2.0000      -6.040451      -164.3690
  19   2.0000      -6.038655      -164.3202
  20   2.0000      -6.036347      -164.2574
  21   2.0000      -6.034647      -164.2111
  22   2.0000      -6.032172      -164.1438
  23   2.0000      -6.030951      -164.1105
  24   2.0000      -1.006204       -27.3802
  25   2.0000      -0.986087       -26.8328
  26   2.0000      -0.903543       -24.5867
  27   2.0000      -0.900382       -24.5007
  28   2.0000      -0.858918       -23.3724
  29   2.0000      -0.851654       -23.1747
  30   2.0000      -0.839654       -22.8482
  31   2.0000      -0.811240       -22.0750
  32   2.0000      -0.779560       -21.2129
  33   2.0000      -0.772693       -21.0260
  34   2.0000      -0.706891       -19.2355
  35   2.0000      -0.701664       -19.0933
  36   2.0000      -0.691796       -18.8247
  37   2.0000      -0.665650       -18.1133
  38   2.0000      -0.636477       -17.3194
  39   2.0000      -0.620936       -16.8965
  40   2.0000      -0.598526       -16.2867
  41   2.0000      -0.567254       -15.4358
  42   2.0000      -0.557031       -15.1576
  43   2.0000      -0.540645       -14.7117
  44   2.0000      -0.533733       -14.5236
  45   2.0000      -0.524546       -14.2736
  46   2.0000      -0.519618       -14.1395
  47   2.0000      -0.511247       -13.9117
  48   2.0000      -0.505864       -13.7653
  49   2.0000      -0.494226       -13.4486
  50   2.0000      -0.482037       -13.1169
  51   2.0000      -0.474139       -12.9020
  52   2.0000      -0.466761       -12.7012
  53   2.0000      -0.461981       -12.5711
  54   2.0000      -0.456250       -12.4152
  55   2.0000      -0.450512       -12.2590
  56   2.0000      -0.442541       -12.0422
  57   2.0000      -0.440358       -11.9828
  58   2.0000      -0.431194       -11.7334
  59   2.0000      -0.430418       -11.7123
  60   2.0000      -0.420379       -11.4391
  61   2.0000      -0.417451       -11.3594
  62   2.0000      -0.410459       -11.1692
  63   2.0000      -0.340936        -9.2773
  64   2.0000      -0.330754        -9.0003
  65   2.0000      -0.328326        -8.9342
  66   2.0000      -0.303077        -8.2471
  67   0.0000       0.028380         0.7723
  68   0.0000       0.062793         1.7087
  69   0.0000       0.105233         2.8635
  70   0.0000       0.117707         3.2030
  71   0.0000       0.129792         3.5318

MULLIKEN ATOMIC CHARGES
-----------------------
   0 S :    0.102050
   1 C :   -0.109977
   2 C :   -0.131390
   3 C :    0.064261
   4 C :   -0.163809
   5 H :    0.006291
   6 C :    0.070437
   7 H :    0.016136
   8 H :    0.042666
   9 C :   -0.047855
  10 H :    0.043368
  11 H :    0.038440
  12 C :   -0.119104
  13 H :    0.057358
  14 H :    0.046021
  15 H :    0.023034
  16 S :    0.115994
  17 C :   -0.080688
  18 C :   -0.030143
  19 C :   -0.019278
  20 C :   -0.168704
  21 H :    0.018918
  22 C :    0.047641
  23 H :    0.043314
  24 H :    0.020916
  25 C :   -0.099766
  26 H :    0.030850
  27 H :    0.050156
  28 C :   -0.060832
  29 H :    0.025313
  30 H :    0.041607
  31 H :    0.031848
  32 H :    0.043865
  33 H :    0.051063
Sum of atomic charges:   -0.0000000

LOEWDIN ATOMIC CHARGES
----------------------
   0 S :    0.374742
   1 C :   -0.182149
   2 C :   -0.071574
   3 C :   -0.061781
   4 C :   -0.187886
   5 H :    0.023283
   6 C :   -0.021906
   7 H :    0.021336
   8 H :    0.037759
   9 C :   -0.026210
  10 H :    0.027189
  11 H :    0.019617
  12 C :   -0.082344
  13 H :    0.029665
  14 H :    0.033721
  15 H :    0.017854
  16 S :    0.421119
  17 C :   -0.185793
  18 C :   -0.072137
  19 C :   -0.057180
  20 C :   -0.195895
  21 H :    0.030976
  22 C :   -0.032905
  23 H :    0.039183
  24 H :    0.030736
  25 C :   -0.046682
  26 H :    0.025974
  27 H :    0.029264
  28 C :   -0.071628
  29 H :    0.024442
  30 H :    0.026868
  31 H :    0.024427
  32 H :    0.035108
  33 H :    0.022804

  Mayer bond orders larger than 0.100000
B(  0-S ,  1-C ) :   1.1152 B(  0-S ,  4-C ) :   1.1408 B(  1-C ,  2-C ) :   1.6319
B(  1-C , 32-H ) :   0.9598 B(  2-C ,  3-C ) :   1.2563 B(  2-C ,  6-C ) :   1.0087
B(  3-C ,  4-C ) :   1.5947 B(  3-C ,  5-H ) :   0.9814 B(  4-C , 20-C ) :   0.9918
B(  6-C ,  7-H ) :   0.9449 B(  6-C ,  8-H ) :   0.9507 B(  6-C ,  9-C ) :   1.0435
B(  9-C , 10-H ) :   0.9639 B(  9-C , 11-H ) :   0.9645 B(  9-C , 12-C ) :   1.0546
B( 12-C , 13-H ) :   0.9738 B( 12-C , 14-H ) :   0.9765 B( 12-C , 15-H ) :   0.9790
B( 16-S , 17-C ) :   1.1712 B( 16-S , 20-C ) :   1.1557 B( 17-C , 18-C ) :   1.5773
B( 17-C , 20-C ) :   0.1019 B( 17-C , 33-H ) :   0.9739 B( 18-C , 19-C ) :   1.2605
B( 18-C , 21-H ) :   0.9876 B( 19-C , 20-C ) :   1.6045 B( 19-C , 22-C ) :   1.0397
B( 22-C , 23-H ) :   0.9353 B( 22-C , 24-H ) :   0.9434 B( 22-C , 25-C ) :   1.0491
B( 25-C , 26-H ) :   0.9587 B( 25-C , 27-H ) :   0.9510 B( 25-C , 28-C ) :   1.0805
B( 28-C , 29-H ) :   0.9755 B( 28-C , 30-H ) :   0.9748 B( 28-C , 31-H ) :   0.9739

Dispersion correction           -0.014743207
FINAL SINGLE POINT ENERGY     -1339.867638503755

DIPOLE MOMENT
-------------
                                X             Y             Z
Electronic contribution:     11.08865     -10.09223      17.85708
Nuclear contribution   :    -11.40374      10.17183     -18.35427
                        -----------------------------------------
Total Dipole Moment    :     -0.31509       0.07959      -0.49720
                        -----------------------------------------
Magnitude (a.u.)       :      0.59399
Magnitude (Debye)      :      1.50980

Rotational constants in cm-1:     0.017179     0.009101     0.007344
Rotational constants in MHz :   514.998487   272.848149   220.175886

                             ****ORCA TERMINATED NORMALLY****
TOTAL RUN TIME: 0 days 0 hours 0 minutes 30 seconds 243 msec
