                         Program Version 4.2.1 -  RELEASE  -
|  1> ! wB97X-D3 SP def2-SVP
|  2> %pal
|  3> nprocs 16
|  4> end
|  5>
|  6> * xyz 0 1
|  7> S 	 47.3659 	 7.0209 	 89.239
|  8> C 	 46.8805 	 6.54044 	 87.6067
|  9> C 	 46.7958 	 5.15656 	 87.5243
| 10> C 	 47.3592 	 4.51933 	 88.6543
| 11> C 	 47.8064 	 5.35983 	 89.6894
| 12> H 	 47.4857 	 3.44044 	 88.7979
| 13> C 	 46.2746 	 4.33698 	 86.3821
| 14> H 	 47.1916 	 4.1542 	 85.7992
| 15> H 	 45.6686 	 4.97346 	 85.731
| 16> C 	 45.411 	 3.10073 	 86.5789
| 17> H 	 45.7667 	 2.39437 	 87.3836
| 18> H 	 44.3869 	 3.40578 	 86.9382
| 19> C 	 45.3113 	 2.21782 	 85.3357
| 20> H 	 45.0571 	 2.86589 	 84.485
| 21> H 	 46.3074 	 1.71822 	 85.195
| 22> H 	 44.4856 	 1.56167 	 85.3919
| 23> S 	 47.9574 	 5.82831 	 92.2533
| 24> C 	 49.1571 	 5.11062 	 93.2623
| 25> C 	 49.8045 	 4.07705 	 92.5723
| 26> C 	 49.4609 	 3.94469 	 91.1795
| 27> C 	 48.5138 	 4.92808 	 90.8858
| 28> H 	 50.5574 	 3.49668 	 93.1168
| 29> C 	 49.9479 	 2.92261 	 90.1836
| 30> H 	 49.0461 	 2.41023 	 89.8595
| 31> H 	 50.5244 	 2.22117 	 90.7352
| 32> C 	 50.747 	 3.47804 	 89.0015
| 33> H 	 50.1943 	 4.237 	 88.4302
| 34> H 	 50.7552 	 2.60461 	 88.3658
| 35> C 	 52.2074 	 3.94397 	 89.3365
| 36> H 	 52.1597 	 4.97326 	 89.8374
| 37> H 	 52.7944 	 4.03191 	 88.4098
| 38> H 	 52.688 	 3.2227 	 89.9524
| 39> H 	 46.3601 	 7.14635 	 86.8375
| 40> H 	 49.5564 	 5.45417 	 94.213
| 41> *
| 42>
| 43>                          ****END OF INPUT****

CARTESIAN COORDINATES (ANGSTROEM)
---------------------------------
  S     47.365900    7.020900   89.239000
  C     46.880500    6.540440   87.606700
  C     46.795800    5.156560   87.524300
  C     47.359200    4.519330   88.654300
  C     47.806400    5.359830   89.689400
  H     47.485700    3.440440   88.797900
  C     46.274600    4.336980   86.382100
  H     47.191600    4.154200   85.799200
  H     45.668600    4.973460   85.731000
  C     45.411000    3.100730   86.578900
  H     45.766700    2.394370   87.383600
  H     44.386900    3.405780   86.938200
  C     45.311300    2.217820   85.335700
  H     45.057100    2.865890   84.485000
  H     46.307400    1.718220   85.195000
  H     44.485600    1.561670   85.391900
  S     47.957400    5.828310   92.253300
  C     49.157100    5.110620   93.262300
  C     49.804500    4.077050   92.572300
  C     49.460900    3.944690   91.179500
  C     48.513800    4.928080   90.885800
  H     50.557400    3.496680   93.116800
  C     49.947900    2.922610   90.183600
  H     49.046100    2.410230   89.859500
  H     50.524400    2.221170   90.735200
  C     50.747000    3.478040   89.001500
  H     50.194300    4.237000   88.430200
  H     50.755200    2.604610   88.365800
  C     52.207400    3.943970   89.336500
  H     52.159700    4.973260   89.837400
  H     52.794400    4.031910   88.409800
  H     52.688000    3.222700   89.952400
  H     46.360100    7.146350   86.837500
  H     49.556400    5.454170   94.213000

 Total Charge           Charge          ....    0
 Multiplicity           Mult            ....    1
 Number of Electrons    NEL             ....  134
 Basis Dimension        Dim             ....  322

ORBITAL ENERGIES
----------------

  NO   OCC          E(Eh)            E(eV)
   0   2.0000     -88.968935     -2420.9678
   1   2.0000     -88.965367     -2420.8707
   2   2.0000     -10.332529      -281.1624
   3   2.0000     -10.324719      -280.9499
   4   2.0000     -10.317368      -280.7498
   5   2.0000     -10.313452      -280.6433
   6   2.0000     -10.305865      -280.4368
   7   2.0000     -10.301649      -280.3221
   8   2.0000     -10.297033      -280.1965
   9   2.0000     -10.296111      -280.1714
  10   2.0000     -10.294853      -280.1372
  11   2.0000     -10.292407      -280.0706
  12   2.0000     -10.292164      -280.0640
  13   2.0000     -10.286267      -279.9035
  14   2.0000     -10.282609      -279.8040
  15   2.0000     -10.282460      -279.8000
  16   2.0000      -8.082323      -219.9312
  17   2.0000      -8.080865      -219.8915
  18   2.0000      -6.041064      -164.3857
  19   2.0000      -6.039328      -164.3385
  20   2.0000      -6.037002      -164.2752
  21   2.0000      -6.035180      -164.2256
  22   2.0000      -6.032910      -164.1638
  23   2.0000      -6.031723      -164.1315
  24   2.0000      -1.007229       -27.4081
  25   2.0000      -0.982006       -26.7217
  26   2.0000      -0.914060       -24.8728
  27   2.0000      -0.910758       -24.7830
  28   2.0000      -0.870378       -23.6842
  29   2.0000      -0.849049       -23.1038
  30   2.0000      -0.844885       -22.9905
  31   2.0000      -0.810918       -22.0662
  32   2.0000      -0.784764       -21.3545
  33   2.0000      -0.773574       -21.0500
  34   2.0000      -0.711456       -19.3597
  35   2.0000      -0.697795       -18.9880
  36   2.0000      -0.688948       -18.7472
  37   2.0000      -0.663145       -18.0451
  38   2.0000      -0.633432       -17.2366
  39   2.0000      -0.619522       -16.8581
  40   2.0000      -0.590765       -16.0755
  41   2.0000      -0.569356       -15.4930
  42   2.0000      -0.564669       -15.3654
  43   2.0000      -0.554652       -15.0929
  44   2.0000      -0.537863       -14.6360
  45   2.0000      -0.525961       -14.3121
  46   2.0000      -0.515816       -14.0361
  47   2.0000      -0.510292       -13.8858
  48   2.0000      -0.504761       -13.7352
  49   2.0000      -0.498842       -13.5742
  50   2.0000      -0.489181       -13.3113
  51   2.0000      -0.477798       -13.0016
  52   2.0000      -0.475460       -12.9379
  53   2.0000      -0.462218       -12.5776
  54   2.0000      -0.459586       -12.5060
  55   2.0000      -0.451314       -12.2809
  56   2.0000      -0.442639       -12.0448
  57   2.0000      -0.438136       -11.9223
  58   2.0000      -0.435316       -11.8456
  59   2.0000      -0.427205       -11.6248
  60   2.0000      -0.419449       -11.4138
  61   2.0000      -0.414395       -11.2763
  62   2.0000      -0.413488       -11.2516
  63   2.0000      -0.346478        -9.4281
  64   2.0000      -0.331452        -9.0193
  65   2.0000      -0.327563        -8.9134
  66   2.0000      -0.284108        -7.7310
  67   0.0000       0.018487         0.5031
  68   0.0000       0.074399         2.0245
  69   0.0000       0.102845         2.7986
  70   0.0000       0.120706         3.2846
  71   0.0000       0.132969         3.6183

MULLIKEN ATOMIC CHARGES
-----------------------
   0 S :    0.115426
   1 C :   -0.128344
   2 C :   -0.074119
   3 C :   -0.006022
   4 C :   -0.118428
   5 H :    0.005635
   6 C :    0.055235
   7 H :    0.045822
   8 H :    0.011689
   9 C :   -0.108475
  10 H :    0.035529
  11 H :    0.039123
  12 C :   -0.039052
  13 H :    0.024111
  14 H :    0.048117
  15 H :    0.029586
  16 S :    0.110940
  17 C :   -0.084935
  18 C :   -0.072490
  19 C :   -0.026456
  20 C :   -0.186179
  21 H :    0.019083
  22 C :    0.082003
  23 H :    0.037053
  24 H :    0.000981
  25 C :   -0.074078
  26 H :    0.052822
  27 H :    0.018345
  28 C :   -0.052644
  29 H :    0.059461
  30 H :    0.040448
  31 H :    0.022240
  32 H :    0.059276
  33 H :    0.058298
Sum of atomic charges:   -0.0000000

LOEWDIN ATOMIC CHARGES
----------------------
   0 S :    0.391565
   1 C :   -0.207531
   2 C :   -0.065101
   3 C :   -0.068726
   4 C :   -0.194687
   5 H :    0.027834
   6 C :   -0.040807
   7 H :    0.040064
   8 H :    0.029570
   9 C :   -0.048917
  10 H :    0.024398
  11 H :    0.029513
  12 C :   -0.061227
  13 H :    0.024284
  14 H :    0.033807
  15 H :    0.022076
  16 S :    0.430074
  17 C :   -0.207685
  18 C :   -0.071811
  19 C :   -0.056862
  20 C :   -0.195487
  21 H :    0.030521
  22 C :   -0.027200
  23 H :    0.032810
  24 H :    0.025306
  25 C :   -0.039062
  26 H :    0.029226
  27 H :    0.021981
  28 C :   -0.065060
  29 H :    0.039564
  30 H :    0.029755
  31 H :    0.016758
  32 H :    0.037979
  33 H :    0.033075

  Mayer bond orders larger than 0.100000
B(  0-S ,  1-C ) :   1.1290 B(  0-S ,  4-C ) :   1.1406 B(  1-C ,  2-C ) :   1.5991
B(  1-C ,  4-C ) :   0.1044 B(  1-C , 32-H ) :   0.9568 B(  2-C ,  3-C ) :   1.2567
B(  2-C ,  6-C ) :   1.0190 B(  3-C ,  4-C ) :   1.5387 B(  3-C ,  5-H ) :   0.9922
B(  4-C , 20-C ) :   1.0678 B(  6-C ,  7-H ) :   0.9403 B(  6-C ,  8-H ) :   0.9329
B(  6-C ,  9-C ) :   1.0540 B(  9-C , 10-H ) :   0.9565 B(  9-C , 11-H ) :   0.9545
B(  9-C , 12-C ) :   1.0804 B( 12-C , 13-H ) :   0.9743 B( 12-C , 14-H ) :   0.9760
B( 12-C , 15-H ) :   0.9728 B( 16-S , 17-C ) :   1.1521 B( 16-S , 20-C ) :   1.1661
B( 17-C , 18-C ) :   1.6046 B( 17-C , 20-C ) :   0.1010 B( 17-C , 33-H ) :   0.9657
B( 18-C , 19-C ) :   1.2442 B( 18-C , 21-H ) :   0.9843 B( 19-C , 20-C ) :   1.5522
B( 19-C , 22-C ) :   1.0291 B( 22-C , 23-H ) :   0.9343 B( 22-C , 24-H ) :   0.9220
B( 22-C , 25-C ) :   1.0745 B( 25-C , 26-H ) :   0.9555 B( 25-C , 27-H ) :   0.9531
B( 25-C , 28-C ) :   1.0673 B( 28-C , 29-H ) :   0.9757 B( 28-C , 30-H ) :   0.9755
B( 28-C , 31-H ) :   0.9764

Dispersion correction           -0.014528326
FINAL SINGLE POINT ENERGY     -1339.873640528705

DIPOLE MOMENT
-------------
                                X             Y             Z
Electronic contribution:     -4.48664      19.57609      19.87433
Nuclear contribution   :      4.58972     -20.21578     -20.29401
                        -----------------------------------------
Total Dipole Moment    :      0.10308      -0.63970      -0.41968
                        -----------------------------------------
Magnitude (a.u.)       :      0.77199
Magnitude (Debye)      :      1.96224

Rotational constants in cm-1:     0.018523     0.008692     0.007176
Rotational constants in MHz :   555.293032   260.589309   215.140686

                             ****ORCA TERMINATED NORMALLY****
TOTAL RUN TIME: 0 days 0 hours 0 minutes 29 seconds 345 msec
