                         Program Version 4.2.1 -  RELEASE  -
|  1> ! wB97X-D3 SP def2-SVP
|  2> %pal
|  3> nprocs 16
|  4> end
|  5>
|  6> * xyz 0 1
|  7> S 	 -15.1989 	 30.2742 	 37.211
|  8> C 	 -15.3717 	 30.9738 	 38.7955
|  9> C 	 -14.8475 	 32.3086 	 38.7282
| 10> C 	 -14.1702 	 32.7132 	 37.5106
| 11> C 	 -14.2739 	 31.6945 	 36.5452
| 12> H 	 -13.629 	 33.6696 	 37.4139
| 13> C 	 -15.0781 	 33.354 	 39.7871
| 14> H 	 -14.1569 	 33.8444 	 39.8956
| 15> H 	 -15.2857 	 32.8 	 40.6392
| 16> C 	 -16.1859 	 34.2826 	 39.4271
| 17> H 	 -17.121 	 33.7383 	 39.342
| 18> H 	 -16.4424 	 34.8878 	 40.3665
| 19> C 	 -16.1273 	 35.0917 	 38.0477
| 20> H 	 -16.3031 	 34.5538 	 37.1403
| 21> H 	 -16.9202 	 35.8298 	 38.0127
| 22> H 	 -15.1808 	 35.6221 	 37.934
| 23> S 	 -12.763 	 30.4391 	 34.6175
| 24> C 	 -12.8721 	 30.8676 	 32.963
| 25> C 	 -13.6563 	 32.0245 	 32.8943
| 26> C 	 -14.1395 	 32.5346 	 34.135
| 27> C 	 -13.7691 	 31.7299 	 35.191
| 28> H 	 -13.8108 	 32.4274 	 31.9183
| 29> C 	 -15.217 	 33.6756 	 34.1476
| 30> H 	 -15.9468 	 33.3099 	 34.752
| 31> H 	 -15.6187 	 33.798 	 33.1258
| 32> C 	 -14.6944 	 35.0852 	 34.5553
| 33> H 	 -13.8535 	 35.3819 	 33.8968
| 34> H 	 -14.2175 	 35.0203 	 35.4938
| 35> C 	 -15.8042 	 36.1032 	 34.5975
| 36> H 	 -15.4559 	 37.0652 	 35.1514
| 37> H 	 -16.6268 	 35.689 	 35.1621
| 38> H 	 -16.1538 	 36.2948 	 33.6211
| 39> H 	 -16.0034 	 30.6711 	 39.6079
| 40> H 	 -12.2933 	 30.4935 	 32.1479
| 41> *
| 42>
| 43>                          ****END OF INPUT****

CARTESIAN COORDINATES (ANGSTROEM)
---------------------------------
  S    -15.198900   30.274200   37.211000
  C    -15.371700   30.973800   38.795500
  C    -14.847500   32.308600   38.728200
  C    -14.170200   32.713200   37.510600
  C    -14.273900   31.694500   36.545200
  H    -13.629000   33.669600   37.413900
  C    -15.078100   33.354000   39.787100
  H    -14.156900   33.844400   39.895600
  H    -15.285700   32.800000   40.639200
  C    -16.185900   34.282600   39.427100
  H    -17.121000   33.738300   39.342000
  H    -16.442400   34.887800   40.366500
  C    -16.127300   35.091700   38.047700
  H    -16.303100   34.553800   37.140300
  H    -16.920200   35.829800   38.012700
  H    -15.180800   35.622100   37.934000
  S    -12.763000   30.439100   34.617500
  C    -12.872100   30.867600   32.963000
  C    -13.656300   32.024500   32.894300
  C    -14.139500   32.534600   34.135000
  C    -13.769100   31.729900   35.191000
  H    -13.810800   32.427400   31.918300
  C    -15.217000   33.675600   34.147600
  H    -15.946800   33.309900   34.752000
  H    -15.618700   33.798000   33.125800
  C    -14.694400   35.085200   34.555300
  H    -13.853500   35.381900   33.896800
  H    -14.217500   35.020300   35.493800
  C    -15.804200   36.103200   34.597500
  H    -15.455900   37.065200   35.151400
  H    -16.626800   35.689000   35.162100
  H    -16.153800   36.294800   33.621100
  H    -16.003400   30.671100   39.607900
  H    -12.293300   30.493500   32.147900

 Total Charge           Charge          ....    0
 Multiplicity           Mult            ....    1
 Number of Electrons    NEL             ....  134
 Basis Dimension        Dim             ....  322

ORBITAL ENERGIES
----------------

  NO   OCC          E(Eh)            E(eV)
   0   2.0000     -88.969542     -2420.9843
   1   2.0000     -88.964042     -2420.8347
   2   2.0000     -10.339198      -281.3439
   3   2.0000     -10.324562      -280.9456
   4   2.0000     -10.318388      -280.7776
   5   2.0000     -10.315160      -280.6898
   6   2.0000     -10.305365      -280.4232
   7   2.0000     -10.303338      -280.3681
   8   2.0000     -10.302907      -280.3564
   9   2.0000     -10.294659      -280.1319
  10   2.0000     -10.291366      -280.0423
  11   2.0000     -10.291086      -280.0347
  12   2.0000     -10.283266      -279.8219
  13   2.0000     -10.282915      -279.8124
  14   2.0000     -10.280701      -279.7521
  15   2.0000     -10.278305      -279.6869
  16   2.0000      -8.082708      -219.9417
  17   2.0000      -8.079613      -219.8574
  18   2.0000      -6.041410      -164.3951
  19   2.0000      -6.038048      -164.3037
  20   2.0000      -6.037333      -164.2842
  21   2.0000      -6.033719      -164.1858
  22   2.0000      -6.033423      -164.1778
  23   2.0000      -6.030652      -164.1024
  24   2.0000      -1.006960       -27.4008
  25   2.0000      -0.978452       -26.6250
  26   2.0000      -0.913401       -24.8549
  27   2.0000      -0.909457       -24.7476
  28   2.0000      -0.869629       -23.6638
  29   2.0000      -0.852065       -23.1859
  30   2.0000      -0.838241       -22.8097
  31   2.0000      -0.817326       -22.2406
  32   2.0000      -0.783355       -21.3162
  33   2.0000      -0.773990       -21.0613
  34   2.0000      -0.707674       -19.2568
  35   2.0000      -0.705112       -19.1871
  36   2.0000      -0.700563       -19.0633
  37   2.0000      -0.663396       -18.0519
  38   2.0000      -0.637668       -17.3518
  39   2.0000      -0.617822       -16.8118
  40   2.0000      -0.591948       -16.1077
  41   2.0000      -0.573502       -15.6058
  42   2.0000      -0.569277       -15.4908
  43   2.0000      -0.554717       -15.0946
  44   2.0000      -0.538022       -14.6403
  45   2.0000      -0.524387       -14.2693
  46   2.0000      -0.518757       -14.1161
  47   2.0000      -0.515389       -14.0244
  48   2.0000      -0.510798       -13.8995
  49   2.0000      -0.501814       -13.6550
  50   2.0000      -0.493754       -13.4357
  51   2.0000      -0.486333       -13.2338
  52   2.0000      -0.472170       -12.8484
  53   2.0000      -0.466659       -12.6984
  54   2.0000      -0.461423       -12.5560
  55   2.0000      -0.449654       -12.2357
  56   2.0000      -0.443461       -12.0672
  57   2.0000      -0.438295       -11.9266
  58   2.0000      -0.430403       -11.7119
  59   2.0000      -0.424267       -11.5449
  60   2.0000      -0.420096       -11.4314
  61   2.0000      -0.414996       -11.2926
  62   2.0000      -0.401991       -10.9387
  63   2.0000      -0.347191        -9.4476
  64   2.0000      -0.332472        -9.0470
  65   2.0000      -0.323073        -8.7912
  66   2.0000      -0.293470        -7.9857
  67   0.0000       0.027486         0.7479
  68   0.0000       0.061442         1.6719
  69   0.0000       0.117196         3.1891
  70   0.0000       0.122361         3.3296
  71   0.0000       0.125802         3.4233

MULLIKEN ATOMIC CHARGES
-----------------------
   0 S :    0.115486
   1 C :   -0.093527
   2 C :   -0.185895
   3 C :    0.036088
   4 C :   -0.148485
   5 H :    0.042136
   6 C :    0.154001
   7 H :    0.013626
   8 H :   -0.005842
   9 C :   -0.074110
  10 H :    0.013754
  11 H :    0.038841
  12 C :   -0.057413
  13 H :    0.041428
  14 H :    0.029695
  15 H :    0.028258
  16 S :    0.118749
  17 C :   -0.087423
  18 C :   -0.056661
  19 C :   -0.008383
  20 C :   -0.187185
  21 H :    0.008139
  22 C :    0.097083
  23 H :    0.011116
  24 H :    0.020454
  25 C :   -0.062679
  26 H :    0.028025
  27 H :   -0.007293
  28 C :   -0.020666
  29 H :    0.049567
  30 H :    0.017045
  31 H :    0.023133
  32 H :    0.051322
  33 H :    0.057615
Sum of atomic charges:   -0.0000000

LOEWDIN ATOMIC CHARGES
----------------------
   0 S :    0.391545
   1 C :   -0.215723
   2 C :   -0.053059
   3 C :   -0.057207
   4 C :   -0.173504
   5 H :    0.039646
   6 C :   -0.030604
   7 H :    0.023914
   8 H :    0.023211
   9 C :   -0.041872
  10 H :    0.023547
  11 H :    0.033680
  12 C :   -0.065427
  13 H :    0.022298
  14 H :    0.028611
  15 H :    0.020521
  16 S :    0.436100
  17 C :   -0.198552
  18 C :   -0.072946
  19 C :   -0.050519
  20 C :   -0.217079
  21 H :    0.023583
  22 C :   -0.011527
  23 H :    0.014206
  24 H :    0.032722
  25 C :   -0.041063
  26 H :    0.027488
  27 H :    0.009612
  28 C :   -0.061411
  29 H :    0.039958
  30 H :    0.020929
  31 H :    0.017842
  32 H :    0.030219
  33 H :    0.030860

  Mayer bond orders larger than 0.100000
B(  0-S ,  1-C ) :   1.1272 B(  0-S ,  4-C ) :   1.1484 B(  1-C ,  2-C ) :   1.5980
B(  1-C ,  4-C ) :   0.1030 B(  1-C , 32-H ) :   0.9663 B(  2-C ,  3-C ) :   1.2480
B(  2-C ,  6-C ) :   1.0319 B(  3-C ,  4-C ) :   1.5501 B(  3-C ,  5-H ) :   0.9780
B(  4-C , 20-C ) :   1.0559 B(  6-C ,  7-H ) :   0.9337 B(  6-C ,  8-H ) :   0.9247
B(  6-C ,  9-C ) :   1.0828 B(  9-C , 10-H ) :   0.9471 B(  9-C , 11-H ) :   0.9560
B(  9-C , 12-C ) :   1.0682 B( 12-C , 13-H ) :   0.9649 B( 12-C , 14-H ) :   0.9690
B( 12-C , 15-H ) :   0.9753 B( 16-S , 17-C ) :   1.1731 B( 16-S , 20-C ) :   1.1627
B( 17-C , 18-C ) :   1.5718 B( 17-C , 20-C ) :   0.1010 B( 17-C , 33-H ) :   0.9718
B( 18-C , 19-C ) :   1.2801 B( 18-C , 21-H ) :   0.9937 B( 19-C , 20-C ) :   1.5500
B( 19-C , 22-C ) :   1.0226 B( 22-C , 23-H ) :   0.9310 B( 22-C , 24-H ) :   0.9431
B( 22-C , 25-C ) :   1.0617 B( 25-C , 26-H ) :   0.9511 B( 25-C , 27-H ) :   0.9510
B( 25-C , 28-C ) :   1.0863 B( 28-C , 29-H ) :   0.9716 B( 28-C , 30-H ) :   0.9683
B( 28-C , 31-H ) :   0.9717

Dispersion correction           -0.016771017
FINAL SINGLE POINT ENERGY     -1339.859185561367

DIPOLE MOMENT
-------------
                                X             Y             Z
Electronic contribution:     11.57522     -28.89041      -4.35475
Nuclear contribution   :    -11.88102      29.55279       4.32431
                        -----------------------------------------
Total Dipole Moment    :     -0.30581       0.66237      -0.03044
                        -----------------------------------------
Magnitude (a.u.)       :      0.73019
Magnitude (Debye)      :      1.85601

Rotational constants in cm-1:     0.017478     0.011337     0.007431
Rotational constants in MHz :   523.985985   339.866402   222.785139

                             ****ORCA TERMINATED NORMALLY****
TOTAL RUN TIME: 0 days 0 hours 0 minutes 37 seconds 1 msec
