                         Program Version 4.2.1 -  RELEASE  -
|  1> ! wB97X-D3 SP def2-SVP
|  2> %pal
|  3> nprocs 16
|  4> end
|  5>
|  6> * xyz 0 1
|  7> S 	 -2.11758 	 44.6342 	 32.6872
|  8> C 	 -1.56425 	 44.0463 	 34.2253
|  9> C 	 -1.21893 	 45.0957 	 35.0824
| 10> C 	 -1.42913 	 46.352 	 34.5203
| 11> C 	 -1.9021 	 46.304 	 33.2288
| 12> H 	 -1.19959 	 47.2475 	 35.0317
| 13> C 	 -0.616363 	 44.8186 	 36.3974
| 14> H 	 -0.0331561 	 45.6712 	 36.6782
| 15> H 	 0.0408627 	 43.9882 	 36.2678
| 16> C 	 -1.65456 	 44.3897 	 37.5049
| 17> H 	 -1.07106 	 44.3994 	 38.4107
| 18> H 	 -2.56506 	 44.9679 	 37.6426
| 19> C 	 -2.21639 	 42.9236 	 37.3841
| 20> H 	 -2.63415 	 42.7343 	 36.3647
| 21> H 	 -1.39246 	 42.0933 	 37.5961
| 22> H 	 -3.07298 	 42.755 	 38.0233
| 23> S 	 -2.29924 	 47.0262 	 30.6826
| 24> C 	 -2.24434 	 48.6544 	 30.2002
| 25> C 	 -2.33474 	 49.4878 	 31.2825
| 26> C 	 -2.20841 	 48.8395 	 32.5446
| 27> C 	 -2.08149 	 47.4653 	 32.351
| 28> H 	 -2.38149 	 50.5192 	 31.1332
| 29> C 	 -2.03961 	 49.6884 	 33.7229
| 30> H 	 -2.38874 	 49.1349 	 34.5295
| 31> H 	 -2.67133 	 50.5572 	 33.7376
| 32> C 	 -0.572165 	 49.9312 	 34.0972
| 33> H 	 -0.00683718 	 48.9982 	 34.1644
| 34> H 	 -0.55718 	 50.2147 	 35.1687
| 35> C 	 0.0936346 	 51.1327 	 33.5055
| 36> H 	 -0.346044 	 52.0198 	 33.8834
| 37> H 	 0.0685834 	 51.3469 	 32.4358
| 38> H 	 1.15808 	 51.0799 	 33.7698
| 39> H 	 -1.27027 	 43.0744 	 34.4388
| 40> H 	 -2.49676 	 48.9931 	 29.2201
| 41> *
| 42>
| 43>                          ****END OF INPUT****

CARTESIAN COORDINATES (ANGSTROEM)
---------------------------------
  S     -2.117580   44.634200   32.687200
  C     -1.564250   44.046300   34.225300
  C     -1.218930   45.095700   35.082400
  C     -1.429130   46.352000   34.520300
  C     -1.902100   46.304000   33.228800
  H     -1.199590   47.247500   35.031700
  C     -0.616363   44.818600   36.397400
  H     -0.033156   45.671200   36.678200
  H      0.040863   43.988200   36.267800
  C     -1.654560   44.389700   37.504900
  H     -1.071060   44.399400   38.410700
  H     -2.565060   44.967900   37.642600
  C     -2.216390   42.923600   37.384100
  H     -2.634150   42.734300   36.364700
  H     -1.392460   42.093300   37.596100
  H     -3.072980   42.755000   38.023300
  S     -2.299240   47.026200   30.682600
  C     -2.244340   48.654400   30.200200
  C     -2.334740   49.487800   31.282500
  C     -2.208410   48.839500   32.544600
  C     -2.081490   47.465300   32.351000
  H     -2.381490   50.519200   31.133200
  C     -2.039610   49.688400   33.722900
  H     -2.388740   49.134900   34.529500
  H     -2.671330   50.557200   33.737600
  C     -0.572165   49.931200   34.097200
  H     -0.006837   48.998200   34.164400
  H     -0.557180   50.214700   35.168700
  C      0.093635   51.132700   33.505500
  H     -0.346044   52.019800   33.883400
  H      0.068583   51.346900   32.435800
  H      1.158080   51.079900   33.769800
  H     -1.270270   43.074400   34.438800
  H     -2.496760   48.993100   29.220100

 Total Charge           Charge          ....    0
 Multiplicity           Mult            ....    1
 Number of Electrons    NEL             ....  134
 Basis Dimension        Dim             ....  322

ORBITAL ENERGIES
----------------

  NO   OCC          E(Eh)            E(eV)
   0   2.0000     -88.969265     -2420.9768
   1   2.0000     -88.962071     -2420.7810
   2   2.0000     -10.331300      -281.1290
   3   2.0000     -10.327177      -281.0168
   4   2.0000     -10.306300      -280.4487
   5   2.0000     -10.304891      -280.4103
   6   2.0000     -10.299464      -280.2627
   7   2.0000     -10.292613      -280.0762
   8   2.0000     -10.291371      -280.0424
   9   2.0000     -10.289402      -279.9889
  10   2.0000     -10.289368      -279.9879
  11   2.0000     -10.289267      -279.9852
  12   2.0000     -10.286609      -279.9129
  13   2.0000     -10.283318      -279.8233
  14   2.0000     -10.283164      -279.8191
  15   2.0000     -10.273545      -279.5574
  16   2.0000      -8.083488      -219.9629
  17   2.0000      -8.078334      -219.8226
  18   2.0000      -6.042100      -164.4139
  19   2.0000      -6.038084      -164.3046
  20   2.0000      -6.036755      -164.2685
  21   2.0000      -6.034185      -164.1985
  22   2.0000      -6.032721      -164.1587
  23   2.0000      -6.029026      -164.0581
  24   2.0000      -1.012974       -27.5644
  25   2.0000      -0.989891       -26.9363
  26   2.0000      -0.922065       -25.0907
  27   2.0000      -0.910261       -24.7695
  28   2.0000      -0.866370       -23.5751
  29   2.0000      -0.860141       -23.4056
  30   2.0000      -0.849455       -23.1148
  31   2.0000      -0.816823       -22.2269
  32   2.0000      -0.790832       -21.5196
  33   2.0000      -0.773642       -21.0519
  34   2.0000      -0.713247       -19.4084
  35   2.0000      -0.700360       -19.0578
  36   2.0000      -0.695450       -18.9242
  37   2.0000      -0.668983       -18.2040
  38   2.0000      -0.639953       -17.4140
  39   2.0000      -0.627696       -17.0805
  40   2.0000      -0.603403       -16.4194
  41   2.0000      -0.569499       -15.4969
  42   2.0000      -0.558509       -15.1978
  43   2.0000      -0.550733       -14.9862
  44   2.0000      -0.545754       -14.8507
  45   2.0000      -0.537223       -14.6186
  46   2.0000      -0.522935       -14.2298
  47   2.0000      -0.513409       -13.9706
  48   2.0000      -0.505191       -13.7469
  49   2.0000      -0.500093       -13.6082
  50   2.0000      -0.491437       -13.3727
  51   2.0000      -0.485406       -13.2086
  52   2.0000      -0.475497       -12.9389
  53   2.0000      -0.464200       -12.6315
  54   2.0000      -0.461953       -12.5704
  55   2.0000      -0.451747       -12.2927
  56   2.0000      -0.445978       -12.1357
  57   2.0000      -0.442944       -12.0531
  58   2.0000      -0.432777       -11.7765
  59   2.0000      -0.426590       -11.6081
  60   2.0000      -0.423127       -11.5139
  61   2.0000      -0.412381       -11.2215
  62   2.0000      -0.404829       -11.0160
  63   2.0000      -0.360715        -9.8156
  64   2.0000      -0.337015        -9.1707
  65   2.0000      -0.326070        -8.8728
  66   2.0000      -0.277115        -7.5407
  67   0.0000       0.018354         0.4995
  68   0.0000       0.083319         2.2672
  69   0.0000       0.100397         2.7319
  70   0.0000       0.120871         3.2891
  71   0.0000       0.139067         3.7842

MULLIKEN ATOMIC CHARGES
-----------------------
   0 S :    0.110886
   1 C :   -0.089894
   2 C :   -0.103937
   3 C :   -0.011407
   4 C :   -0.065722
   5 H :   -0.024075
   6 C :    0.099702
   7 H :    0.015850
   8 H :    0.019116
   9 C :   -0.049543
  10 H :    0.030833
  11 H :    0.038699
  12 C :   -0.123298
  13 H :    0.039452
  14 H :    0.043916
  15 H :    0.038213
  16 S :    0.090165
  17 C :   -0.055274
  18 C :   -0.036451
  19 C :   -0.045080
  20 C :   -0.144432
  21 H :   -0.007592
  22 C :    0.118648
  23 H :   -0.006718
  24 H :    0.016869
  25 C :   -0.088663
  26 H :    0.037725
  27 H :    0.021189
  28 C :   -0.016006
  29 H :    0.014017
  30 H :    0.025856
  31 H :    0.033879
  32 H :    0.026718
  33 H :    0.046357
Sum of atomic charges:    0.0000000

LOEWDIN ATOMIC CHARGES
----------------------
   0 S :    0.402541
   1 C :   -0.199357
   2 C :   -0.058597
   3 C :   -0.069547
   4 C :   -0.177245
   5 H :    0.022642
   6 C :   -0.024814
   7 H :    0.027598
   8 H :    0.031700
   9 C :   -0.033184
  10 H :    0.022732
  11 H :    0.027112
  12 C :   -0.081934
  13 H :    0.025311
  14 H :    0.032076
  15 H :    0.024199
  16 S :    0.424758
  17 C :   -0.198097
  18 C :   -0.061770
  19 C :   -0.054529
  20 C :   -0.187879
  21 H :    0.019224
  22 C :   -0.031122
  23 H :    0.023331
  24 H :    0.033358
  25 C :   -0.040558
  26 H :    0.026367
  27 H :    0.030776
  28 C :   -0.066746
  29 H :    0.019720
  30 H :    0.021642
  31 H :    0.032995
  32 H :    0.012861
  33 H :    0.024437

  Mayer bond orders larger than 0.100000
B(  0-S ,  1-C ) :   1.1321 B(  0-S ,  4-C ) :   1.1499 B(  1-C ,  2-C ) :   1.5841
B(  1-C , 32-H ) :   0.9643 B(  2-C ,  3-C ) :   1.2902 B(  2-C ,  6-C ) :   1.0335
B(  3-C ,  4-C ) :   1.5319 B(  3-C ,  5-H ) :   1.0019 B(  4-C , 20-C ) :   1.0833
B(  6-C ,  7-H ) :   0.9397 B(  6-C ,  8-H ) :   0.9353 B(  6-C ,  9-C ) :   1.0522
B(  9-C , 10-H ) :   0.9584 B(  9-C , 11-H ) :   0.9626 B(  9-C , 12-C ) :   1.0705
B( 12-C , 13-H ) :   0.9688 B( 12-C , 14-H ) :   0.9748 B( 12-C , 15-H ) :   0.9754
B( 16-S , 17-C ) :   1.1641 B( 16-S , 20-C ) :   1.1514 B( 17-C , 18-C ) :   1.6016
B( 17-C , 33-H ) :   0.9661 B( 18-C , 19-C ) :   1.2515 B( 18-C , 21-H ) :   0.9975
B( 19-C , 20-C ) :   1.5506 B( 19-C , 22-C ) :   1.0764 B( 22-C , 23-H ) :   0.9045
B( 22-C , 24-H ) :   0.9272 B( 22-C , 25-C ) :   1.0796 B( 25-C , 26-H ) :   0.9497
B( 25-C , 27-H ) :   0.9520 B( 25-C , 28-C ) :   1.0773 B( 28-C , 29-H ) :   0.9740
B( 28-C , 30-H ) :   0.9744 B( 28-C , 31-H ) :   0.9691

Dispersion correction           -0.014431775
FINAL SINGLE POINT ENERGY     -1339.860358663322

DIPOLE MOMENT
-------------
                                X             Y             Z
Electronic contribution:     -7.33100      -7.04284     -23.86719
Nuclear contribution   :      7.53064       7.50049      24.43120
                        -----------------------------------------
Total Dipole Moment    :      0.19964       0.45766       0.56402
                        -----------------------------------------
Magnitude (a.u.)       :      0.75327
Magnitude (Debye)      :      1.91467

Rotational constants in cm-1:     0.021535     0.008411     0.006378
Rotational constants in MHz :   645.615832   252.164022   191.219289

                             ****ORCA TERMINATED NORMALLY****
TOTAL RUN TIME: 0 days 0 hours 0 minutes 34 seconds 673 msec
