                         Program Version 4.2.1 -  RELEASE  -
|  1> ! wB97X-D3 SP def2-SVP
|  2> %pal
|  3> nprocs 16
|  4> end
|  5>
|  6> * xyz 0 1
|  7> S 	 1.8834 	 -21.2555 	 54.1731
|  8> C 	 0.894499 	 -22.7072 	 54.1576
|  9> C 	 1.75019 	 -23.7666 	 54.0198
| 10> C 	 3.19385 	 -23.3942 	 53.9248
| 11> C 	 3.39823 	 -22.0332 	 54.0566
| 12> H 	 3.93981 	 -24.1751 	 53.8361
| 13> C 	 1.37703 	 -25.2249 	 53.9922
| 14> H 	 2.02699 	 -25.7107 	 53.2424
| 15> H 	 0.316918 	 -25.2419 	 53.6745
| 16> C 	 1.85188 	 -25.9676 	 55.2648
| 17> H 	 1.64858 	 -27.0468 	 55.1861
| 18> H 	 2.92552 	 -25.8025 	 55.4098
| 19> C 	 1.09785 	 -25.6306 	 56.5734
| 20> H 	 0.0848894 	 -25.9564 	 56.5661
| 21> H 	 1.36458 	 -26.2993 	 57.3598
| 22> H 	 1.21648 	 -24.6639 	 56.9411
| 23> S 	 4.88937 	 -20.1968 	 52.5756
| 24> C 	 6.58502 	 -20.0716 	 52.7773
| 25> C 	 7.01758 	 -20.7946 	 53.859
| 26> C 	 5.95979 	 -21.5655 	 54.5076
| 27> C 	 4.73151 	 -21.371 	 53.8761
| 28> H 	 8.10834 	 -20.7228 	 54.134
| 29> C 	 6.31782 	 -22.403 	 55.7456
| 30> H 	 5.44822 	 -22.8039 	 56.2348
| 31> H 	 6.75271 	 -21.7953 	 56.5188
| 32> C 	 7.39351 	 -23.4392 	 55.3349
| 33> H 	 7.83946 	 -23.9922 	 56.1582
| 34> H 	 8.22473 	 -22.8413 	 54.9605
| 35> C 	 6.93504 	 -24.499 	 54.4178
| 36> H 	 6.97487 	 -23.9988 	 53.4349
| 37> H 	 5.88542 	 -24.8698 	 54.6551
| 38> H 	 7.6216 	 -25.3269 	 54.4387
| 39> H 	 -0.205631 	 -22.6386 	 54.304
| 40> H 	 7.30418 	 -19.4694 	 52.1597
| 41> *
| 42>
| 43>                          ****END OF INPUT****

CARTESIAN COORDINATES (ANGSTROEM)
---------------------------------
  S      1.883400  -21.255500   54.173100
  C      0.894499  -22.707200   54.157600
  C      1.750190  -23.766600   54.019800
  C      3.193850  -23.394200   53.924800
  C      3.398230  -22.033200   54.056600
  H      3.939810  -24.175100   53.836100
  C      1.377030  -25.224900   53.992200
  H      2.026990  -25.710700   53.242400
  H      0.316918  -25.241900   53.674500
  C      1.851880  -25.967600   55.264800
  H      1.648580  -27.046800   55.186100
  H      2.925520  -25.802500   55.409800
  C      1.097850  -25.630600   56.573400
  H      0.084889  -25.956400   56.566100
  H      1.364580  -26.299300   57.359800
  H      1.216480  -24.663900   56.941100
  S      4.889370  -20.196800   52.575600
  C      6.585020  -20.071600   52.777300
  C      7.017580  -20.794600   53.859000
  C      5.959790  -21.565500   54.507600
  C      4.731510  -21.371000   53.876100
  H      8.108340  -20.722800   54.134000
  C      6.317820  -22.403000   55.745600
  H      5.448220  -22.803900   56.234800
  H      6.752710  -21.795300   56.518800
  C      7.393510  -23.439200   55.334900
  H      7.839460  -23.992200   56.158200
  H      8.224730  -22.841300   54.960500
  C      6.935040  -24.499000   54.417800
  H      6.974870  -23.998800   53.434900
  H      5.885420  -24.869800   54.655100
  H      7.621600  -25.326900   54.438700
  H     -0.205631  -22.638600   54.304000
  H      7.304180  -19.469400   52.159700

 Total Charge           Charge          ....    0
 Multiplicity           Mult            ....    1
 Number of Electrons    NEL             ....  134
 Basis Dimension        Dim             ....  322

ORBITAL ENERGIES
----------------

  NO   OCC          E(Eh)            E(eV)
   0   2.0000     -88.965147     -2420.8647
   1   2.0000     -88.960773     -2420.7457
   2   2.0000     -10.334619      -281.2193
   3   2.0000     -10.333845      -281.1982
   4   2.0000     -10.319248      -280.8010
   5   2.0000     -10.319055      -280.7958
   6   2.0000     -10.311568      -280.5920
   7   2.0000     -10.303360      -280.3687
   8   2.0000     -10.298684      -280.2414
   9   2.0000     -10.296861      -280.1918
  10   2.0000     -10.294429      -280.1256
  11   2.0000     -10.292862      -280.0830
  12   2.0000     -10.291626      -280.0494
  13   2.0000     -10.280795      -279.7547
  14   2.0000     -10.276595      -279.6404
  15   2.0000     -10.263522      -279.2846
  16   2.0000      -8.080507      -219.8818
  17   2.0000      -8.076514      -219.7731
  18   2.0000      -6.039037      -164.3306
  19   2.0000      -6.035215      -164.2265
  20   2.0000      -6.034876      -164.2173
  21   2.0000      -6.031242      -164.1184
  22   2.0000      -6.030694      -164.1035
  23   2.0000      -6.027163      -164.0074
  24   2.0000      -1.006502       -27.3883
  25   2.0000      -0.986679       -26.8489
  26   2.0000      -0.915219       -24.9044
  27   2.0000      -0.910147       -24.7664
  28   2.0000      -0.867886       -23.6164
  29   2.0000      -0.849082       -23.1047
  30   2.0000      -0.841397       -22.8956
  31   2.0000      -0.815439       -22.1892
  32   2.0000      -0.784115       -21.3369
  33   2.0000      -0.779034       -21.1986
  34   2.0000      -0.707179       -19.2433
  35   2.0000      -0.694567       -18.9001
  36   2.0000      -0.689625       -18.7657
  37   2.0000      -0.650164       -17.6919
  38   2.0000      -0.638554       -17.3759
  39   2.0000      -0.621906       -16.9229
  40   2.0000      -0.599496       -16.3131
  41   2.0000      -0.569722       -15.5029
  42   2.0000      -0.557606       -15.1732
  43   2.0000      -0.550237       -14.9727
  44   2.0000      -0.543828       -14.7983
  45   2.0000      -0.538145       -14.6437
  46   2.0000      -0.518769       -14.1164
  47   2.0000      -0.514905       -14.0113
  48   2.0000      -0.509042       -13.8517
  49   2.0000      -0.498784       -13.5726
  50   2.0000      -0.493469       -13.4280
  51   2.0000      -0.478724       -13.0267
  52   2.0000      -0.470107       -12.7922
  53   2.0000      -0.469677       -12.7806
  54   2.0000      -0.462403       -12.5826
  55   2.0000      -0.442197       -12.0328
  56   2.0000      -0.437429       -11.9031
  57   2.0000      -0.434987       -11.8366
  58   2.0000      -0.427747       -11.6396
  59   2.0000      -0.427025       -11.6199
  60   2.0000      -0.424116       -11.5408
  61   2.0000      -0.406306       -11.0562
  62   2.0000      -0.404478       -11.0064
  63   2.0000      -0.349265        -9.5040
  64   2.0000      -0.328809        -8.9473
  65   2.0000      -0.320761        -8.7284
  66   2.0000      -0.302890        -8.2420
  67   0.0000       0.039927         1.0865
  68   0.0000       0.072203         1.9647
  69   0.0000       0.117079         3.1859
  70   0.0000       0.120855         3.2886
  71   0.0000       0.124167         3.3788

MULLIKEN ATOMIC CHARGES
-----------------------
   0 S :    0.086572
   1 C :   -0.146670
   2 C :   -0.101915
   3 C :    0.030210
   4 C :   -0.114245
   5 H :   -0.001996
   6 C :    0.074995
   7 H :    0.032029
   8 H :    0.032047
   9 C :   -0.093023
  10 H :    0.034637
  11 H :    0.036238
  12 C :   -0.015178
  13 H :    0.009749
  14 H :    0.007927
  15 H :    0.032480
  16 S :    0.116358
  17 C :   -0.106162
  18 C :   -0.076799
  19 C :   -0.049127
  20 C :   -0.157150
  21 H :    0.046851
  22 C :    0.115201
  23 H :    0.018330
  24 H :    0.029185
  25 C :   -0.102686
  26 H :    0.017357
  27 H :    0.021955
  28 C :   -0.045167
  29 H :    0.046075
  30 H :    0.042596
  31 H :    0.030522
  32 H :    0.074281
  33 H :    0.074526
Sum of atomic charges:    0.0000000

LOEWDIN ATOMIC CHARGES
----------------------
   0 S :    0.410526
   1 C :   -0.204298
   2 C :   -0.063444
   3 C :   -0.065005
   4 C :   -0.206370
   5 H :    0.024645
   6 C :   -0.037038
   7 H :    0.037296
   8 H :    0.033725
   9 C :   -0.036358
  10 H :    0.028402
  11 H :    0.025224
  12 C :   -0.067486
  13 H :    0.023056
  14 H :    0.025570
  15 H :    0.015917
  16 S :    0.417522
  17 C :   -0.205084
  18 C :   -0.086689
  19 C :   -0.051442
  20 C :   -0.194400
  21 H :    0.040964
  22 C :   -0.022519
  23 H :    0.025451
  24 H :    0.033419
  25 C :   -0.046825
  26 H :    0.019446
  27 H :    0.021636
  28 C :   -0.067481
  29 H :    0.032595
  30 H :    0.028947
  31 H :    0.023709
  32 H :    0.042178
  33 H :    0.044209

  Mayer bond orders larger than 0.100000
B(  0-S ,  1-C ) :   1.1178 B(  0-S ,  4-C ) :   1.1682 B(  1-C ,  2-C ) :   1.6100
B(  1-C , 32-H ) :   0.9732 B(  2-C ,  3-C ) :   1.2277 B(  2-C ,  6-C ) :   1.0352
B(  3-C ,  4-C ) :   1.5611 B(  3-C ,  5-H ) :   0.9916 B(  4-C , 20-C ) :   1.0029
B(  6-C ,  7-H ) :   0.9332 B(  6-C ,  8-H ) :   0.9488 B(  6-C ,  9-C ) :   1.0588
B(  9-C , 10-H ) :   0.9581 B(  9-C , 11-H ) :   0.9557 B(  9-C , 12-C ) :   1.0813
B( 12-C , 13-H ) :   0.9693 B( 12-C , 14-H ) :   0.9662 B( 12-C , 15-H ) :   0.9786
B( 16-S , 17-C ) :   1.1600 B( 16-S , 20-C ) :   1.1418 B( 17-C , 18-C ) :   1.6401
B( 17-C , 33-H ) :   0.9577 B( 18-C , 19-C ) :   1.2123 B( 18-C , 21-H ) :   0.9753
B( 19-C , 20-C ) :   1.6227 B( 19-C , 22-C ) :   1.0368 B( 22-C , 23-H ) :   0.9407
B( 22-C , 24-H ) :   0.9381 B( 22-C , 25-C ) :   1.0640 B( 25-C , 26-H ) :   0.9570
B( 25-C , 27-H ) :   0.9561 B( 25-C , 28-C ) :   1.0753 B( 28-C , 29-H ) :   0.9725
B( 28-C , 30-H ) :   0.9665 B( 28-C , 31-H ) :   0.9711

Dispersion correction           -0.015198297
FINAL SINGLE POINT ENERGY     -1339.871667624388

DIPOLE MOMENT
-------------
                                X             Y             Z
Electronic contribution:     -5.09256      25.49065     -12.19236
Nuclear contribution   :      5.42659     -26.07702      12.46360
                        -----------------------------------------
Total Dipole Moment    :      0.33403      -0.58637       0.27124
                        -----------------------------------------
Magnitude (a.u.)       :      0.72731
Magnitude (Debye)      :      1.84867

Rotational constants in cm-1:     0.019495     0.009523     0.007071
Rotational constants in MHz :   584.449487   285.495172   211.994391

                             ****ORCA TERMINATED NORMALLY****
TOTAL RUN TIME: 0 days 0 hours 0 minutes 36 seconds 41 msec
