                         Program Version 4.2.1 -  RELEASE  -
|  1> ! wB97X-D3 SP def2-SVP
|  2> %pal
|  3> nprocs 16
|  4> end
|  5>
|  6> * xyz 0 1
|  7> S 	 17.8953 	 18.8923 	 39.9356
|  8> C 	 18.1871 	 18.8109 	 38.255
|  9> C 	 17.0277 	 18.948 	 37.4801
| 10> C 	 15.9076 	 18.9503 	 38.3344
| 11> C 	 16.2248 	 18.8041 	 39.6675
| 12> H 	 14.8802 	 18.916 	 37.9948
| 13> C 	 16.8971 	 18.99 	 35.9882
| 14> H 	 17.2032 	 17.9994 	 35.5757
| 15> H 	 17.6554 	 19.6389 	 35.7147
| 16> C 	 15.5703 	 19.5727 	 35.283
| 17> H 	 15.6545 	 19.4762 	 34.1924
| 18> H 	 14.7159 	 18.9626 	 35.5683
| 19> C 	 15.3052 	 20.9933 	 35.7981
| 20> H 	 15.1575 	 21.166 	 36.8799
| 21> H 	 16.1735 	 21.6592 	 35.569
| 22> H 	 14.5069 	 21.4949 	 35.164
| 23> S 	 15.2163 	 17.4083 	 41.9047
| 24> C 	 13.9878 	 18.0874 	 42.8913
| 25> C 	 13.4532 	 19.2041 	 42.2328
| 26> C 	 14.1257 	 19.5272 	 40.9829
| 27> C 	 15.1825 	 18.6685 	 40.7079
| 28> H 	 12.5807 	 19.7057 	 42.5874
| 29> C 	 13.8256 	 20.8306 	 40.2765
| 30> H 	 12.9087 	 21.2958 	 40.6725
| 31> H 	 13.5889 	 20.7142 	 39.2534
| 32> C 	 14.8907 	 21.8838 	 40.4135
| 33> H 	 14.5707 	 22.7877 	 39.8381
| 34> H 	 15.8242 	 21.5297 	 39.9578
| 35> C 	 15.1775 	 22.392 	 41.8893
| 36> H 	 15.6402 	 21.5647 	 42.4496
| 37> H 	 14.2492 	 22.8065 	 42.3093
| 38> H 	 15.8496 	 23.2706 	 41.9224
| 39> H 	 19.1534 	 18.5896 	 37.8057
| 40> H 	 13.5003 	 17.5795 	 43.7199
| 41> *
| 42>
| 43>                          ****END OF INPUT****

CARTESIAN COORDINATES (ANGSTROEM)
---------------------------------
  S     17.895300   18.892300   39.935600
  C     18.187100   18.810900   38.255000
  C     17.027700   18.948000   37.480100
  C     15.907600   18.950300   38.334400
  C     16.224800   18.804100   39.667500
  H     14.880200   18.916000   37.994800
  C     16.897100   18.990000   35.988200
  H     17.203200   17.999400   35.575700
  H     17.655400   19.638900   35.714700
  C     15.570300   19.572700   35.283000
  H     15.654500   19.476200   34.192400
  H     14.715900   18.962600   35.568300
  C     15.305200   20.993300   35.798100
  H     15.157500   21.166000   36.879900
  H     16.173500   21.659200   35.569000
  H     14.506900   21.494900   35.164000
  S     15.216300   17.408300   41.904700
  C     13.987800   18.087400   42.891300
  C     13.453200   19.204100   42.232800
  C     14.125700   19.527200   40.982900
  C     15.182500   18.668500   40.707900
  H     12.580700   19.705700   42.587400
  C     13.825600   20.830600   40.276500
  H     12.908700   21.295800   40.672500
  H     13.588900   20.714200   39.253400
  C     14.890700   21.883800   40.413500
  H     14.570700   22.787700   39.838100
  H     15.824200   21.529700   39.957800
  C     15.177500   22.392000   41.889300
  H     15.640200   21.564700   42.449600
  H     14.249200   22.806500   42.309300
  H     15.849600   23.270600   41.922400
  H     19.153400   18.589600   37.805700
  H     13.500300   17.579500   43.719900

 Total Charge           Charge          ....    0
 Multiplicity           Mult            ....    1
 Number of Electrons    NEL             ....  134
 Basis Dimension        Dim             ....  322

ORBITAL ENERGIES
----------------

  NO   OCC          E(Eh)            E(eV)
   0   2.0000     -88.971835     -2421.0467
   1   2.0000     -88.964365     -2420.8434
   2   2.0000     -10.326419      -280.9961
   3   2.0000     -10.323767      -280.9240
   4   2.0000     -10.317473      -280.7527
   5   2.0000     -10.310214      -280.5552
   6   2.0000     -10.302516      -280.3457
   7   2.0000     -10.300647      -280.2949
   8   2.0000     -10.300214      -280.2831
   9   2.0000     -10.294522      -280.1282
  10   2.0000     -10.292948      -280.0853
  11   2.0000     -10.288367      -279.9607
  12   2.0000     -10.287117      -279.9267
  13   2.0000     -10.284860      -279.8653
  14   2.0000     -10.283851      -279.8378
  15   2.0000     -10.277141      -279.6552
  16   2.0000      -8.087730      -220.0783
  17   2.0000      -8.079696      -219.8597
  18   2.0000      -6.046004      -164.5201
  19   2.0000      -6.042091      -164.4136
  20   2.0000      -6.038652      -164.3201
  21   2.0000      -6.038170      -164.3069
  22   2.0000      -6.033827      -164.1888
  23   2.0000      -6.030758      -164.1053
  24   2.0000      -1.014242       -27.5989
  25   2.0000      -0.990039       -26.9403
  26   2.0000      -0.910169       -24.7670
  27   2.0000      -0.907225       -24.6869
  28   2.0000      -0.866287       -23.5729
  29   2.0000      -0.851848       -23.1800
  30   2.0000      -0.837126       -22.7794
  31   2.0000      -0.813111       -22.1259
  32   2.0000      -0.783290       -21.3144
  33   2.0000      -0.772579       -21.0229
  34   2.0000      -0.711020       -19.3478
  35   2.0000      -0.698197       -18.9989
  36   2.0000      -0.681732       -18.5509
  37   2.0000      -0.662091       -18.0164
  38   2.0000      -0.639261       -17.3952
  39   2.0000      -0.625151       -17.0112
  40   2.0000      -0.594726       -16.1833
  41   2.0000      -0.567632       -15.4461
  42   2.0000      -0.551218       -14.9994
  43   2.0000      -0.548597       -14.9281
  44   2.0000      -0.543836       -14.7985
  45   2.0000      -0.536931       -14.6106
  46   2.0000      -0.515013       -14.0142
  47   2.0000      -0.506306       -13.7773
  48   2.0000      -0.499822       -13.6008
  49   2.0000      -0.496699       -13.5159
  50   2.0000      -0.487407       -13.2630
  51   2.0000      -0.480322       -13.0702
  52   2.0000      -0.472990       -12.8707
  53   2.0000      -0.463415       -12.6102
  54   2.0000      -0.457068       -12.4374
  55   2.0000      -0.454079       -12.3561
  56   2.0000      -0.445102       -12.1118
  57   2.0000      -0.440889       -11.9972
  58   2.0000      -0.433359       -11.7923
  59   2.0000      -0.429315       -11.6822
  60   2.0000      -0.412839       -11.2339
  61   2.0000      -0.411510       -11.1978
  62   2.0000      -0.406685       -11.0665
  63   2.0000      -0.342853        -9.3295
  64   2.0000      -0.332998        -9.0613
  65   2.0000      -0.326572        -8.8865
  66   2.0000      -0.293339        -7.9821
  67   0.0000       0.029628         0.8062
  68   0.0000       0.072896         1.9836
  69   0.0000       0.115037         3.1303
  70   0.0000       0.122134         3.3234
  71   0.0000       0.136566         3.7161

MULLIKEN ATOMIC CHARGES
-----------------------
   0 S :    0.154736
   1 C :   -0.145954
   2 C :   -0.083551
   3 C :    0.004233
   4 C :   -0.160829
   5 H :    0.012081
   6 C :    0.077381
   7 H :    0.047282
   8 H :    0.009172
   9 C :   -0.051322
  10 H :    0.042868
  11 H :    0.035636
  12 C :   -0.107020
  13 H :    0.056914
  14 H :    0.027594
  15 H :    0.042943
  16 S :    0.116229
  17 C :   -0.099131
  18 C :   -0.032360
  19 C :   -0.043870
  20 C :   -0.171384
  21 H :    0.011864
  22 C :    0.115034
  23 H :    0.006038
  24 H :    0.010488
  25 C :   -0.107136
  26 H :    0.028113
  27 H :    0.042962
  28 C :   -0.065585
  29 H :    0.054964
  30 H :    0.024800
  31 H :    0.033646
  32 H :    0.043983
  33 H :    0.069180
Sum of atomic charges:    0.0000000

LOEWDIN ATOMIC CHARGES
----------------------
   0 S :    0.457985
   1 C :   -0.219635
   2 C :   -0.059162
   3 C :   -0.064030
   4 C :   -0.217526
   5 H :    0.030594
   6 C :   -0.033366
   7 H :    0.039549
   8 H :    0.022119
   9 C :   -0.035391
  10 H :    0.033193
  11 H :    0.021646
  12 C :   -0.082598
  13 H :    0.030721
  14 H :    0.027802
  15 H :    0.033625
  16 S :    0.427930
  17 C :   -0.203226
  18 C :   -0.067626
  19 C :   -0.056584
  20 C :   -0.207008
  21 H :    0.024769
  22 C :   -0.034478
  23 H :    0.030498
  24 H :    0.023324
  25 C :   -0.040867
  26 H :    0.025388
  27 H :    0.020991
  28 C :   -0.070203
  29 H :    0.029572
  30 H :    0.022486
  31 H :    0.027400
  32 H :    0.027043
  33 H :    0.035065

  Mayer bond orders larger than 0.100000
B(  0-S ,  1-C ) :   1.1616 B(  0-S ,  4-C ) :   1.1798 B(  1-C ,  2-C ) :   1.5729
B(  1-C , 32-H ) :   0.9702 B(  2-C ,  3-C ) :   1.2856 B(  2-C ,  6-C ) :   0.9982
B(  3-C ,  4-C ) :   1.5331 B(  3-C ,  5-H ) :   0.9966 B(  4-C , 20-C ) :   1.0310
B(  6-C ,  7-H ) :   0.9348 B(  6-C ,  8-H ) :   0.9336 B(  6-C ,  9-C ) :   1.0723
B(  9-C , 10-H ) :   0.9556 B(  9-C , 11-H ) :   0.9537 B(  9-C , 12-C ) :   1.0674
B( 12-C , 13-H ) :   0.9730 B( 12-C , 14-H ) :   0.9728 B( 12-C , 15-H ) :   0.9727
B( 16-S , 17-C ) :   1.1746 B( 16-S , 20-C ) :   1.1561 B( 17-C , 18-C ) :   1.5666
B( 17-C , 33-H ) :   0.9675 B( 18-C , 19-C ) :   1.2770 B( 18-C , 21-H ) :   0.9912
B( 19-C , 20-C ) :   1.5556 B( 19-C , 22-C ) :   1.0461 B( 22-C , 23-H ) :   0.9295
B( 22-C , 24-H ) :   0.9242 B( 22-C , 25-C ) :   1.0811 B( 25-C , 26-H ) :   0.9542
B( 25-C , 27-H ) :   0.9541 B( 25-C , 28-C ) :   1.0695 B( 28-C , 29-H ) :   0.9756
B( 28-C , 30-H ) :   0.9746 B( 28-C , 31-H ) :   0.9765

Dispersion correction           -0.016394515
FINAL SINGLE POINT ENERGY     -1339.881622764384

DIPOLE MOMENT
-------------
                                X             Y             Z
Electronic contribution:      7.85156     -19.27185      15.45954
Nuclear contribution   :     -8.12703      19.54939     -15.97598
                        -----------------------------------------
Total Dipole Moment    :     -0.27546       0.27755      -0.51644
                        -----------------------------------------
Magnitude (a.u.)       :      0.64778
Magnitude (Debye)      :      1.64654

Rotational constants in cm-1:     0.019632     0.009676     0.008211
Rotational constants in MHz :   588.542825   290.065884   246.150611

                             ****ORCA TERMINATED NORMALLY****
TOTAL RUN TIME: 0 days 0 hours 0 minutes 35 seconds 564 msec
