                         Program Version 4.2.1 -  RELEASE  -
|  1> ! wB97X-D3 SP def2-SVP
|  2> %pal
|  3> nprocs 16
|  4> end
|  5>
|  6> * xyz 0 1
|  7> S 	 49.1343 	 3.26858 	 85.2354
|  8> C 	 48.2012 	 2.65637 	 83.8578
|  9> C 	 47.0198 	 2.08533 	 84.2334
| 10> C 	 46.7041 	 2.40491 	 85.6328
| 11> C 	 47.7015 	 3.14832 	 86.2442
| 12> H 	 45.8459 	 2.13549 	 86.1494
| 13> C 	 45.9086 	 1.46397 	 83.2476
| 14> H 	 46.1858 	 1.83283 	 82.2471
| 15> H 	 44.963 	 1.90667 	 83.511
| 16> C 	 45.9134 	 -0.104011 	 83.1389
| 17> H 	 45.8063 	 -0.665939 	 84.0719
| 18> H 	 44.9071 	 -0.332008 	 82.6468
| 19> C 	 47.0198 	 -0.593687 	 82.3632
| 20> H 	 46.835 	 -1.55011 	 81.9944
| 21> H 	 46.9948 	 0.0612884 	 81.5257
| 22> H 	 47.9564 	 -0.676327 	 82.8627
| 23> S 	 47.0569 	 5.08447 	 88.0336
| 24> C 	 46.9946 	 4.69781 	 89.6746
| 25> C 	 47.4941 	 3.47127 	 89.9789
| 26> C 	 47.9138 	 2.73526 	 88.8208
| 27> C 	 47.6221 	 3.47207 	 87.6631
| 28> H 	 47.6978 	 3.24263 	 91.0182
| 29> C 	 48.5338 	 1.40511 	 88.8989
| 30> H 	 47.8876 	 0.82928 	 88.2555
| 31> H 	 48.448 	 1.16017 	 89.9616
| 32> C 	 50.0399 	 1.28008 	 88.3717
| 33> H 	 49.9892 	 1.63195 	 87.426
| 34> H 	 50.3659 	 0.227282 	 88.3165
| 35> C 	 50.9674 	 2.18607 	 89.1668
| 36> H 	 52.0309 	 2.15271 	 88.8595
| 37> H 	 51.0229 	 1.91827 	 90.2154
| 38> H 	 50.5297 	 3.14909 	 89.1287
| 39> H 	 48.6974 	 2.57845 	 82.9215
| 40> H 	 46.4189 	 5.29552 	 90.4209
| 41> *
| 42>
| 43>                          ****END OF INPUT****

CARTESIAN COORDINATES (ANGSTROEM)
---------------------------------
  S     49.134300    3.268580   85.235400
  C     48.201200    2.656370   83.857800
  C     47.019800    2.085330   84.233400
  C     46.704100    2.404910   85.632800
  C     47.701500    3.148320   86.244200
  H     45.845900    2.135490   86.149400
  C     45.908600    1.463970   83.247600
  H     46.185800    1.832830   82.247100
  H     44.963000    1.906670   83.511000
  C     45.913400   -0.104011   83.138900
  H     45.806300   -0.665939   84.071900
  H     44.907100   -0.332008   82.646800
  C     47.019800   -0.593687   82.363200
  H     46.835000   -1.550110   81.994400
  H     46.994800    0.061288   81.525700
  H     47.956400   -0.676327   82.862700
  S     47.056900    5.084470   88.033600
  C     46.994600    4.697810   89.674600
  C     47.494100    3.471270   89.978900
  C     47.913800    2.735260   88.820800
  C     47.622100    3.472070   87.663100
  H     47.697800    3.242630   91.018200
  C     48.533800    1.405110   88.898900
  H     47.887600    0.829280   88.255500
  H     48.448000    1.160170   89.961600
  C     50.039900    1.280080   88.371700
  H     49.989200    1.631950   87.426000
  H     50.365900    0.227282   88.316500
  C     50.967400    2.186070   89.166800
  H     52.030900    2.152710   88.859500
  H     51.022900    1.918270   90.215400
  H     50.529700    3.149090   89.128700
  H     48.697400    2.578450   82.921500
  H     46.418900    5.295520   90.420900

 Total Charge           Charge          ....    0
 Multiplicity           Mult            ....    1
 Number of Electrons    NEL             ....  134
 Basis Dimension        Dim             ....  322

ORBITAL ENERGIES
----------------

  NO   OCC          E(Eh)            E(eV)
   0   2.0000     -88.965477     -2420.8737
   1   2.0000     -88.962720     -2420.7987
   2   2.0000     -10.326944      -281.0104
   3   2.0000     -10.319965      -280.8205
   4   2.0000     -10.314469      -280.6710
   5   2.0000     -10.309690      -280.5409
   6   2.0000     -10.308573      -280.5105
   7   2.0000     -10.303179      -280.3637
   8   2.0000     -10.301013      -280.3048
   9   2.0000     -10.293581      -280.1026
  10   2.0000     -10.289226      -279.9841
  11   2.0000     -10.287183      -279.9285
  12   2.0000     -10.286843      -279.9192
  13   2.0000     -10.277736      -279.6714
  14   2.0000     -10.267677      -279.3977
  15   2.0000     -10.262243      -279.2498
  16   2.0000      -8.079515      -219.8548
  17   2.0000      -8.078898      -219.8380
  18   2.0000      -6.038049      -164.3037
  19   2.0000      -6.037097      -164.2777
  20   2.0000      -6.034333      -164.2026
  21   2.0000      -6.033238      -164.1728
  22   2.0000      -6.030065      -164.0864
  23   2.0000      -6.029865      -164.0810
  24   2.0000      -1.007496       -27.4154
  25   2.0000      -0.982926       -26.7468
  26   2.0000      -0.915717       -24.9179
  27   2.0000      -0.909476       -24.7481
  28   2.0000      -0.871127       -23.7046
  29   2.0000      -0.851398       -23.1677
  30   2.0000      -0.847665       -23.0661
  31   2.0000      -0.811881       -22.0924
  32   2.0000      -0.784629       -21.3508
  33   2.0000      -0.771032       -20.9808
  34   2.0000      -0.711675       -19.3657
  35   2.0000      -0.695513       -18.9259
  36   2.0000      -0.688055       -18.7229
  37   2.0000      -0.657499       -17.8915
  38   2.0000      -0.649883       -17.6842
  39   2.0000      -0.614196       -16.7131
  40   2.0000      -0.586019       -15.9464
  41   2.0000      -0.569790       -15.5048
  42   2.0000      -0.565135       -15.3781
  43   2.0000      -0.552532       -15.0352
  44   2.0000      -0.550750       -14.9867
  45   2.0000      -0.540298       -14.7022
  46   2.0000      -0.516508       -14.0549
  47   2.0000      -0.511092       -13.9075
  48   2.0000      -0.499367       -13.5885
  49   2.0000      -0.490237       -13.3400
  50   2.0000      -0.482082       -13.1181
  51   2.0000      -0.478927       -13.0323
  52   2.0000      -0.472295       -12.8518
  53   2.0000      -0.462932       -12.5970
  54   2.0000      -0.457951       -12.4615
  55   2.0000      -0.451160       -12.2767
  56   2.0000      -0.448077       -12.1928
  57   2.0000      -0.441949       -12.0260
  58   2.0000      -0.432196       -11.7606
  59   2.0000      -0.430081       -11.7031
  60   2.0000      -0.426655       -11.6099
  61   2.0000      -0.416036       -11.3209
  62   2.0000      -0.400678       -10.9030
  63   2.0000      -0.332984        -9.0609
  64   2.0000      -0.327088        -8.9005
  65   2.0000      -0.320297        -8.7157
  66   2.0000      -0.309246        -8.4150
  67   0.0000       0.046870         1.2754
  68   0.0000       0.050997         1.3877
  69   0.0000       0.105962         2.8834
  70   0.0000       0.119727         3.2579
  71   0.0000       0.124816         3.3964

MULLIKEN ATOMIC CHARGES
-----------------------
   0 S :    0.102893
   1 C :   -0.121452
   2 C :   -0.053323
   3 C :    0.064982
   4 C :   -0.153184
   5 H :   -0.008058
   6 C :    0.039897
   7 H :    0.024370
   8 H :    0.034573
   9 C :   -0.099692
  10 H :    0.026940
  11 H :    0.031856
  12 C :    0.034457
  13 H :    0.010701
  14 H :    0.003680
  15 H :    0.036796
  16 S :    0.130409
  17 C :   -0.103153
  18 C :   -0.050527
  19 C :   -0.051974
  20 C :   -0.229690
  21 H :    0.021410
  22 C :    0.089310
  23 H :    0.030805
  24 H :    0.015987
  25 C :   -0.003585
  26 H :   -0.007704
  27 H :    0.031980
  28 C :   -0.050000
  29 H :    0.039200
  30 H :    0.015223
  31 H :    0.034825
  32 H :    0.041982
  33 H :    0.070066
Sum of atomic charges:    0.0000000

LOEWDIN ATOMIC CHARGES
----------------------
   0 S :    0.389903
   1 C :   -0.180193
   2 C :   -0.059121
   3 C :   -0.042425
   4 C :   -0.201701
   5 H :    0.020573
   6 C :   -0.018683
   7 H :    0.029079
   8 H :    0.027254
   9 C :   -0.046206
  10 H :    0.021598
  11 H :    0.031199
  12 C :   -0.058175
  13 H :    0.022238
  14 H :    0.022451
  15 H :    0.026944
  16 S :    0.438654
  17 C :   -0.211024
  18 C :   -0.084670
  19 C :   -0.052594
  20 C :   -0.212553
  21 H :    0.032514
  22 C :   -0.027606
  23 H :    0.036153
  24 H :    0.029291
  25 C :   -0.022571
  26 H :   -0.002616
  27 H :    0.026092
  28 C :   -0.064666
  29 H :    0.030132
  30 H :    0.020145
  31 H :    0.023235
  32 H :    0.019470
  33 H :    0.037879

  Mayer bond orders larger than 0.100000
B(  0-S ,  1-C ) :   1.1277 B(  0-S ,  4-C ) :   1.1337 B(  1-C ,  2-C ) :   1.6447
B(  1-C , 32-H ) :   0.9724 B(  2-C ,  3-C ) :   1.1964 B(  2-C ,  6-C ) :   0.9916
B(  3-C ,  4-C ) :   1.6148 B(  3-C ,  5-H ) :   1.0031 B(  4-C , 20-C ) :   1.0249
B(  6-C ,  7-H ) :   0.9531 B(  6-C ,  8-H ) :   0.9551 B(  6-C ,  9-C ) :   1.0598
B(  9-C , 10-H ) :   0.9545 B(  9-C , 11-H ) :   0.9535 B(  9-C , 12-C ) :   1.0877
B( 12-C , 13-H ) :   0.9613 B( 12-C , 14-H ) :   0.9696 B( 12-C , 15-H ) :   0.9700
B( 16-S , 17-C ) :   1.1813 B( 16-S , 20-C ) :   1.1631 B( 17-C , 18-C ) :   1.6139
B( 17-C , 33-H ) :   0.9535 B( 18-C , 19-C ) :   1.2474 B( 18-C , 21-H ) :   0.9858
B( 19-C , 20-C ) :   1.5661 B( 19-C , 22-C ) :   1.0373 B( 22-C , 23-H ) :   0.9216
B( 22-C , 24-H ) :   0.9339 B( 22-C , 25-C ) :   1.0669 B( 25-C , 26-H ) :   0.9512
B( 25-C , 27-H ) :   0.9578 B( 25-C , 28-C ) :   1.0715 B( 28-C , 29-H ) :   0.9736
B( 28-C , 30-H ) :   0.9761 B( 28-C , 31-H ) :   0.9746

Dispersion correction           -0.015300217
FINAL SINGLE POINT ENERGY     -1339.854040385356

DIPOLE MOMENT
-------------
                                X             Y             Z
Electronic contribution:     -1.81791      20.47461       5.48173
Nuclear contribution   :      1.55001     -21.03296      -5.58247
                        -----------------------------------------
Total Dipole Moment    :     -0.26789      -0.55834      -0.10075
                        -----------------------------------------
Magnitude (a.u.)       :      0.62743
Magnitude (Debye)      :      1.59479

Rotational constants in cm-1:     0.021740     0.008081     0.007233
Rotational constants in MHz :   651.751690   242.275409   216.839647

                             ****ORCA TERMINATED NORMALLY****
TOTAL RUN TIME: 0 days 0 hours 0 minutes 30 seconds 940 msec
