                         Program Version 4.2.1 -  RELEASE  -
|  1> ! wB97X-D3 SP def2-SVP
|  2> %pal
|  3> nprocs 16
|  4> end
|  5>
|  6> * xyz 0 1
|  7> S 	 10.8547 	 -7.11345 	 98.3649
|  8> C 	 10.2263 	 -8.62618 	 98.8013
|  9> C 	 9.77529 	 -9.35426 	 97.7124
| 10> C 	 10.0298 	 -8.74118 	 96.473
| 11> C 	 10.6 	 -7.48602 	 96.6141
| 12> H 	 9.77842 	 -9.19149 	 95.5341
| 13> C 	 9.0893 	 -10.673 	 97.8584
| 14> H 	 8.2777 	 -10.7094 	 97.2108
| 15> H 	 8.38859 	 -10.7244 	 98.7501
| 16> C 	 10.0084 	 -11.9058 	 97.7311
| 17> H 	 9.57212 	 -12.8389 	 97.6744
| 18> H 	 10.5363 	 -11.7158 	 96.8117
| 19> C 	 10.9803 	 -11.8616 	 98.9447
| 20> H 	 11.3716 	 -12.8372 	 99.1911
| 21> H 	 11.6943 	 -11.0077 	 98.9092
| 22> H 	 10.3967 	 -11.6955 	 99.8538
| 23> S 	 10.4736 	 -4.80705 	 96.0415
| 24> C 	 11.3724 	 -4.24356 	 94.7152
| 25> C 	 11.8118 	 -5.24167 	 93.8617
| 26> C 	 11.4953 	 -6.55763 	 94.3279
| 27> C 	 10.9187 	 -6.46267 	 95.6027
| 28> H 	 12.3894 	 -4.9949 	 92.987
| 29> C 	 11.9602 	 -7.83408 	 93.73
| 30> H 	 12.1388 	 -8.56899 	 94.5277
| 31> H 	 12.8811 	 -7.56531 	 93.2704
| 32> C 	 11.0365 	 -8.39833 	 92.6863
| 33> H 	 11.0019 	 -7.82339 	 91.7493
| 34> H 	 10.0043 	 -8.42073 	 93.1303
| 35> C 	 11.388 	 -9.84004 	 92.3814
| 36> H 	 11.2527 	 -10.4227 	 93.2798
| 37> H 	 12.3866 	 -9.84261 	 91.9576
| 38> H 	 10.7234 	 -10.2313 	 91.5947
| 39> H 	 10.3189 	 -9.00731 	 99.7536
| 40> H 	 11.5352 	 -3.23876 	 94.4591
| 41> *
| 42>
| 43>                          ****END OF INPUT****

CARTESIAN COORDINATES (ANGSTROEM)
---------------------------------
  S     10.854700   -7.113450   98.364900
  C     10.226300   -8.626180   98.801300
  C      9.775290   -9.354260   97.712400
  C     10.029800   -8.741180   96.473000
  C     10.600000   -7.486020   96.614100
  H      9.778420   -9.191490   95.534100
  C      9.089300  -10.673000   97.858400
  H      8.277700  -10.709400   97.210800
  H      8.388590  -10.724400   98.750100
  C     10.008400  -11.905800   97.731100
  H      9.572120  -12.838900   97.674400
  H     10.536300  -11.715800   96.811700
  C     10.980300  -11.861600   98.944700
  H     11.371600  -12.837200   99.191100
  H     11.694300  -11.007700   98.909200
  H     10.396700  -11.695500   99.853800
  S     10.473600   -4.807050   96.041500
  C     11.372400   -4.243560   94.715200
  C     11.811800   -5.241670   93.861700
  C     11.495300   -6.557630   94.327900
  C     10.918700   -6.462670   95.602700
  H     12.389400   -4.994900   92.987000
  C     11.960200   -7.834080   93.730000
  H     12.138800   -8.568990   94.527700
  H     12.881100   -7.565310   93.270400
  C     11.036500   -8.398330   92.686300
  H     11.001900   -7.823390   91.749300
  H     10.004300   -8.420730   93.130300
  C     11.388000   -9.840040   92.381400
  H     11.252700  -10.422700   93.279800
  H     12.386600   -9.842610   91.957600
  H     10.723400  -10.231300   91.594700
  H     10.318900   -9.007310   99.753600
  H     11.535200   -3.238760   94.459100

 Total Charge           Charge          ....    0
 Multiplicity           Mult            ....    1
 Number of Electrons    NEL             ....  134
 Basis Dimension        Dim             ....  322

ORBITAL ENERGIES
----------------

  NO   OCC          E(Eh)            E(eV)
   0   2.0000     -88.967352     -2420.9247
   1   2.0000     -88.966307     -2420.8963
   2   2.0000     -10.334830      -281.2250
   3   2.0000     -10.326427      -280.9964
   4   2.0000     -10.307398      -280.4786
   5   2.0000     -10.305214      -280.4191
   6   2.0000     -10.301576      -280.3201
   7   2.0000     -10.296978      -280.1950
   8   2.0000     -10.295531      -280.1557
   9   2.0000     -10.291586      -280.0483
  10   2.0000     -10.286425      -279.9079
  11   2.0000     -10.286064      -279.8980
  12   2.0000     -10.285654      -279.8869
  13   2.0000     -10.282656      -279.8053
  14   2.0000     -10.276944      -279.6499
  15   2.0000     -10.276052      -279.6256
  16   2.0000      -8.082169      -219.9270
  17   2.0000      -8.081617      -219.9120
  18   2.0000      -6.040531      -164.3712
  19   2.0000      -6.039963      -164.3557
  20   2.0000      -6.036623      -164.2649
  21   2.0000      -6.036180      -164.2528
  22   2.0000      -6.033119      -164.1695
  23   2.0000      -6.032390      -164.1497
  24   2.0000      -1.007630       -27.4190
  25   2.0000      -0.988127       -26.8883
  26   2.0000      -0.921169       -25.0663
  27   2.0000      -0.912534       -24.8313
  28   2.0000      -0.866747       -23.5854
  29   2.0000      -0.858389       -23.3579
  30   2.0000      -0.851217       -23.1628
  31   2.0000      -0.812865       -22.1192
  32   2.0000      -0.784522       -21.3479
  33   2.0000      -0.771759       -21.0006
  34   2.0000      -0.710932       -19.3454
  35   2.0000      -0.699351       -19.0303
  36   2.0000      -0.692628       -18.8474
  37   2.0000      -0.664678       -18.0868
  38   2.0000      -0.646129       -17.5821
  39   2.0000      -0.627110       -17.0645
  40   2.0000      -0.599222       -16.3057
  41   2.0000      -0.581013       -15.8102
  42   2.0000      -0.578382       -15.7386
  43   2.0000      -0.548144       -14.9158
  44   2.0000      -0.536324       -14.5941
  45   2.0000      -0.525235       -14.2924
  46   2.0000      -0.519318       -14.1314
  47   2.0000      -0.515208       -14.0195
  48   2.0000      -0.506124       -13.7723
  49   2.0000      -0.496363       -13.5067
  50   2.0000      -0.492856       -13.4113
  51   2.0000      -0.476987       -12.9795
  52   2.0000      -0.473959       -12.8971
  53   2.0000      -0.467465       -12.7204
  54   2.0000      -0.462417       -12.5830
  55   2.0000      -0.452271       -12.3069
  56   2.0000      -0.446695       -12.1552
  57   2.0000      -0.435491       -11.8503
  58   2.0000      -0.431193       -11.7333
  59   2.0000      -0.429458       -11.6861
  60   2.0000      -0.421172       -11.4607
  61   2.0000      -0.417752       -11.3676
  62   2.0000      -0.409627       -11.1465
  63   2.0000      -0.353892        -9.6299
  64   2.0000      -0.334687        -9.1073
  65   2.0000      -0.330555        -8.9949
  66   2.0000      -0.281851        -7.6696
  67   0.0000       0.025764         0.7011
  68   0.0000       0.070112         1.9079
  69   0.0000       0.110050         2.9946
  70   0.0000       0.121672         3.3109
  71   0.0000       0.127004         3.4559

MULLIKEN ATOMIC CHARGES
-----------------------
   0 S :    0.112710
   1 C :   -0.081568
   2 C :   -0.099476
   3 C :    0.047947
   4 C :   -0.139926
   5 H :   -0.004519
   6 C :    0.038980
   7 H :   -0.003542
   8 H :    0.023976
   9 C :    0.005153
  10 H :    0.014914
  11 H :    0.019859
  12 C :   -0.069342
  13 H :    0.025822
  14 H :    0.058369
  15 H :    0.010578
  16 S :    0.119844
  17 C :   -0.060635
  18 C :   -0.045735
  19 C :   -0.016768
  20 C :   -0.171615
  21 H :    0.010610
  22 C :    0.084540
  23 H :    0.030475
  24 H :    0.009925
  25 C :   -0.111718
  26 H :    0.033767
  27 H :    0.033091
  28 C :   -0.023924
  29 H :    0.031674
  30 H :    0.028370
  31 H :    0.034411
  32 H :    0.021775
  33 H :    0.031979
Sum of atomic charges:    0.0000000

LOEWDIN ATOMIC CHARGES
----------------------
   0 S :    0.410611
   1 C :   -0.194926
   2 C :   -0.064904
   3 C :   -0.058161
   4 C :   -0.173826
   5 H :    0.028963
   6 C :   -0.040302
   7 H :    0.018797
   8 H :    0.035889
   9 C :   -0.024433
  10 H :    0.014345
  11 H :    0.022810
  12 C :   -0.070752
  13 H :    0.022672
  14 H :    0.032264
  15 H :    0.020925
  16 S :    0.417550
  17 C :   -0.195289
  18 C :   -0.069280
  19 C :   -0.050517
  20 C :   -0.191611
  21 H :    0.028947
  22 C :   -0.031822
  23 H :    0.034885
  24 H :    0.027723
  25 C :   -0.043734
  26 H :    0.025684
  27 H :    0.024339
  28 C :   -0.061273
  29 H :    0.021710
  30 H :    0.024110
  31 H :    0.028086
  32 H :    0.012059
  33 H :    0.018465

  Mayer bond orders larger than 0.100000
B(  0-S ,  1-C ) :   1.1561 B(  0-S ,  4-C ) :   1.1540 B(  1-C ,  2-C ) :   1.5785
B(  1-C , 32-H ) :   0.9772 B(  2-C ,  3-C ) :   1.2772 B(  2-C ,  6-C ) :   1.0217
B(  3-C ,  4-C ) :   1.5300 B(  3-C ,  5-H ) :   0.9977 B(  4-C , 20-C ) :   1.0517
B(  6-C ,  7-H ) :   0.9319 B(  6-C ,  8-H ) :   0.9448 B(  6-C ,  9-C ) :   1.0626
B(  9-C , 10-H ) :   0.9591 B(  9-C , 11-H ) :   0.9559 B(  9-C , 12-C ) :   1.0738
B( 12-C , 13-H ) :   0.9733 B( 12-C , 14-H ) :   0.9730 B( 12-C , 15-H ) :   0.9720
B( 16-S , 17-C ) :   1.1542 B( 16-S , 20-C ) :   1.1467 B( 17-C , 18-C ) :   1.6143
B( 17-C , 33-H ) :   0.9707 B( 18-C , 19-C ) :   1.2370 B( 18-C , 21-H ) :   0.9918
B( 19-C , 20-C ) :   1.5728 B( 19-C , 22-C ) :   1.0495 B( 22-C , 23-H ) :   0.9366
B( 22-C , 24-H ) :   0.9183 B( 22-C , 25-C ) :   1.0629 B( 25-C , 26-H ) :   0.9501
B( 25-C , 27-H ) :   0.9555 B( 25-C , 28-C ) :   1.0938 B( 28-C , 29-H ) :   0.9741
B( 28-C , 30-H ) :   0.9698 B( 28-C , 31-H ) :   0.9731

Dispersion correction           -0.014805407
FINAL SINGLE POINT ENERGY     -1339.872493616728

DIPOLE MOMENT
-------------
                                X             Y             Z
Electronic contribution:     -1.20605      27.56103       9.22378
Nuclear contribution   :      1.21898     -28.04861      -9.59050
                        -----------------------------------------
Total Dipole Moment    :      0.01293      -0.48757      -0.36672
                        -----------------------------------------
Magnitude (a.u.)       :      0.61023
Magnitude (Debye)      :      1.55107

Rotational constants in cm-1:     0.018627     0.009574     0.006744
Rotational constants in MHz :   558.433585   287.008782   202.192440

                             ****ORCA TERMINATED NORMALLY****
TOTAL RUN TIME: 0 days 0 hours 0 minutes 35 seconds 583 msec
