                         Program Version 4.2.1 -  RELEASE  -
|  1> ! wB97X-D3 SP def2-SVP
|  2> %pal
|  3> nprocs 16
|  4> end
|  5>
|  6> * xyz 0 1
|  7> S 	 5.07676 	 -11.6029 	 72.6408
|  8> C 	 3.63008 	 -10.5398 	 72.6312
|  9> C 	 3.80417 	 -9.42254 	 71.7553
| 10> C 	 5.19639 	 -9.26153 	 71.3637
| 11> C 	 6.01899 	 -10.2904 	 71.8458
| 12> H 	 5.6372 	 -8.40039 	 70.9071
| 13> C 	 2.78101 	 -8.49009 	 71.3383
| 14> H 	 2.01788 	 -9.07531 	 70.8756
| 15> H 	 3.18993 	 -7.89615 	 70.5307
| 16> C 	 2.18731 	 -7.679 	 72.4973
| 17> H 	 1.70016 	 -8.40808 	 73.1417
| 18> H 	 2.84579 	 -7.08272 	 73.1878
| 19> C 	 1.0517 	 -6.78143 	 71.9779
| 20> H 	 1.48186 	 -5.82709 	 71.7976
| 21> H 	 0.551219 	 -7.02458 	 71.0718
| 22> H 	 0.338583 	 -6.73502 	 72.8055
| 23> S 	 8.2347 	 -8.79774 	 71.1299
| 24> C 	 9.69655 	 -9.66621 	 70.9581
| 25> C 	 9.62621 	 -11.0521 	 71.2189
| 26> C 	 8.30916 	 -11.4524 	 71.5397
| 27> C 	 7.44355 	 -10.3638 	 71.5166
| 28> H 	 10.4839 	 -11.7714 	 71.1655
| 29> C 	 7.88031 	 -12.8797 	 71.8929
| 30> H 	 6.84414 	 -12.9875 	 71.5798
| 31> H 	 7.79405 	 -13.0452 	 72.9667
| 32> C 	 8.58339 	 -13.9452 	 71.0864
| 33> H 	 9.63661 	 -14.0432 	 71.4282
| 34> H 	 8.42851 	 -13.8199 	 69.9604
| 35> C 	 7.96143 	 -15.3026 	 71.4892
| 36> H 	 8.05587 	 -15.4966 	 72.5711
| 37> H 	 8.51449 	 -16.0315 	 70.9027
| 38> H 	 6.86204 	 -15.435 	 71.1742
| 39> H 	 2.66858 	 -10.7745 	 73.1247
| 40> H 	 10.5026 	 -9.1446 	 70.5403
| 41> *
| 42>
| 43>                          ****END OF INPUT****

CARTESIAN COORDINATES (ANGSTROEM)
---------------------------------
  S      5.076760  -11.602900   72.640800
  C      3.630080  -10.539800   72.631200
  C      3.804170   -9.422540   71.755300
  C      5.196390   -9.261530   71.363700
  C      6.018990  -10.290400   71.845800
  H      5.637200   -8.400390   70.907100
  C      2.781010   -8.490090   71.338300
  H      2.017880   -9.075310   70.875600
  H      3.189930   -7.896150   70.530700
  C      2.187310   -7.679000   72.497300
  H      1.700160   -8.408080   73.141700
  H      2.845790   -7.082720   73.187800
  C      1.051700   -6.781430   71.977900
  H      1.481860   -5.827090   71.797600
  H      0.551219   -7.024580   71.071800
  H      0.338583   -6.735020   72.805500
  S      8.234700   -8.797740   71.129900
  C      9.696550   -9.666210   70.958100
  C      9.626210  -11.052100   71.218900
  C      8.309160  -11.452400   71.539700
  C      7.443550  -10.363800   71.516600
  H     10.483900  -11.771400   71.165500
  C      7.880310  -12.879700   71.892900
  H      6.844140  -12.987500   71.579800
  H      7.794050  -13.045200   72.966700
  C      8.583390  -13.945200   71.086400
  H      9.636610  -14.043200   71.428200
  H      8.428510  -13.819900   69.960400
  C      7.961430  -15.302600   71.489200
  H      8.055870  -15.496600   72.571100
  H      8.514490  -16.031500   70.902700
  H      6.862040  -15.435000   71.174200
  H      2.668580  -10.774500   73.124700
  H     10.502600   -9.144600   70.540300

 Total Charge           Charge          ....    0
 Multiplicity           Mult            ....    1
 Number of Electrons    NEL             ....  134
 Basis Dimension        Dim             ....  322

ORBITAL ENERGIES
----------------

  NO   OCC          E(Eh)            E(eV)
   0   2.0000     -88.970084     -2420.9991
   1   2.0000     -88.969039     -2420.9706
   2   2.0000     -10.332503      -281.1617
   3   2.0000     -10.325924      -280.9827
   4   2.0000     -10.317747      -280.7602
   5   2.0000     -10.313686      -280.6497
   6   2.0000     -10.302558      -280.3468
   7   2.0000     -10.300709      -280.2965
   8   2.0000     -10.299454      -280.2624
   9   2.0000     -10.295743      -280.1614
  10   2.0000     -10.292004      -280.0597
  11   2.0000     -10.290730      -280.0250
  12   2.0000     -10.290684      -280.0238
  13   2.0000     -10.284049      -279.8432
  14   2.0000     -10.283975      -279.8412
  15   2.0000     -10.270554      -279.4760
  16   2.0000      -8.083764      -219.9704
  17   2.0000      -8.082124      -219.9258
  18   2.0000      -6.042109      -164.4141
  19   2.0000      -6.040919      -164.3818
  20   2.0000      -6.038524      -164.3166
  21   2.0000      -6.037144      -164.2790
  22   2.0000      -6.034489      -164.2068
  23   2.0000      -6.032624      -164.1561
  24   2.0000      -0.999313       -27.1927
  25   2.0000      -0.972072       -26.4514
  26   2.0000      -0.916704       -24.9448
  27   2.0000      -0.914069       -24.8731
  28   2.0000      -0.861631       -23.4462
  29   2.0000      -0.856297       -23.3010
  30   2.0000      -0.847175       -23.0528
  31   2.0000      -0.804682       -21.8965
  32   2.0000      -0.780701       -21.2440
  33   2.0000      -0.764568       -20.8050
  34   2.0000      -0.708554       -19.2807
  35   2.0000      -0.695833       -18.9346
  36   2.0000      -0.692304       -18.8385
  37   2.0000      -0.658594       -17.9213
  38   2.0000      -0.629108       -17.1189
  39   2.0000      -0.614443       -16.7198
  40   2.0000      -0.601630       -16.3712
  41   2.0000      -0.574831       -15.6420
  42   2.0000      -0.567312       -15.4373
  43   2.0000      -0.550661       -14.9842
  44   2.0000      -0.534625       -14.5479
  45   2.0000      -0.528479       -14.3807
  46   2.0000      -0.514426       -13.9983
  47   2.0000      -0.511346       -13.9144
  48   2.0000      -0.500831       -13.6283
  49   2.0000      -0.495038       -13.4707
  50   2.0000      -0.482936       -13.1414
  51   2.0000      -0.476367       -12.9626
  52   2.0000      -0.467803       -12.7296
  53   2.0000      -0.462495       -12.5851
  54   2.0000      -0.460950       -12.5431
  55   2.0000      -0.452194       -12.3048
  56   2.0000      -0.451096       -12.2750
  57   2.0000      -0.443659       -12.0726
  58   2.0000      -0.431838       -11.7509
  59   2.0000      -0.423961       -11.5366
  60   2.0000      -0.417174       -11.3519
  61   2.0000      -0.412578       -11.2268
  62   2.0000      -0.406561       -11.0631
  63   2.0000      -0.353440        -9.6176
  64   2.0000      -0.337347        -9.1797
  65   2.0000      -0.323847        -8.8123
  66   2.0000      -0.270104        -7.3499
  67   0.0000       0.017162         0.4670
  68   0.0000       0.075922         2.0659
  69   0.0000       0.099969         2.7203
  70   0.0000       0.103280         2.8104
  71   0.0000       0.134668         3.6645

MULLIKEN ATOMIC CHARGES
-----------------------
   0 S :    0.079184
   1 C :   -0.133675
   2 C :   -0.078589
   3 C :   -0.029857
   4 C :   -0.090110
   5 H :    0.018943
   6 C :    0.094082
   7 H :    0.026370
   8 H :    0.015536
   9 C :   -0.103462
  10 H :    0.020338
  11 H :    0.047467
  12 C :   -0.019002
  13 H :    0.023715
  14 H :    0.024006
  15 H :    0.031075
  16 S :    0.095700
  17 C :   -0.072486
  18 C :   -0.039352
  19 C :   -0.052565
  20 C :   -0.134958
  21 H :    0.033215
  22 C :    0.037014
  23 H :    0.026308
  24 H :    0.047735
  25 C :   -0.114056
  26 H :    0.041730
  27 H :    0.062597
  28 C :   -0.072868
  29 H :    0.039955
  30 H :    0.030931
  31 H :    0.045843
  32 H :    0.058108
  33 H :    0.041127
Sum of atomic charges:   -0.0000000

LOEWDIN ATOMIC CHARGES
----------------------
   0 S :    0.380568
   1 C :   -0.206754
   2 C :   -0.047000
   3 C :   -0.074819
   4 C :   -0.164263
   5 H :    0.019794
   6 C :   -0.038057
   7 H :    0.035544
   8 H :    0.029084
   9 C :   -0.033694
  10 H :    0.019860
  11 H :    0.034336
  12 C :   -0.062510
  13 H :    0.021503
  14 H :    0.020056
  15 H :    0.028627
  16 S :    0.411881
  17 C :   -0.186888
  18 C :   -0.071423
  19 C :   -0.060773
  20 C :   -0.176070
  21 H :    0.039477
  22 C :   -0.046760
  23 H :    0.018843
  24 H :    0.033817
  25 C :   -0.045290
  26 H :    0.026226
  27 H :    0.041523
  28 C :   -0.070712
  29 H :    0.026176
  30 H :    0.022999
  31 H :    0.031629
  32 H :    0.030042
  33 H :    0.013027

  Mayer bond orders larger than 0.100000
B(  0-S ,  1-C ) :   1.1087 B(  0-S ,  4-C ) :   1.1252 B(  1-C ,  2-C ) :   1.5959
B(  1-C , 32-H ) :   0.9648 B(  2-C ,  3-C ) :   1.2399 B(  2-C ,  6-C ) :   1.0445
B(  3-C ,  4-C ) :   1.5502 B(  3-C ,  5-H ) :   0.9819 B(  4-C , 20-C ) :   1.1003
B(  6-C ,  7-H ) :   0.9203 B(  6-C ,  8-H ) :   0.9409 B(  6-C ,  9-C ) :   1.0620
B(  9-C , 10-H ) :   0.9618 B(  9-C , 11-H ) :   0.9607 B(  9-C , 12-C ) :   1.0680
B( 12-C , 13-H ) :   0.9780 B( 12-C , 14-H ) :   0.9751 B( 12-C , 15-H ) :   0.9778
B( 16-S , 17-C ) :   1.1708 B( 16-S , 20-C ) :   1.1340 B( 17-C , 18-C ) :   1.5691
B( 17-C , 33-H ) :   0.9737 B( 18-C , 19-C ) :   1.2663 B( 18-C , 21-H ) :   0.9839
B( 19-C , 20-C ) :   1.5800 B( 19-C , 22-C ) :   1.0166 B( 22-C , 23-H ) :   0.9243
B( 22-C , 24-H ) :   0.9344 B( 22-C , 25-C ) :   1.0711 B( 25-C , 26-H ) :   0.9449
B( 25-C , 27-H ) :   0.9557 B( 25-C , 28-C ) :   1.0875 B( 28-C , 29-H ) :   0.9733
B( 28-C , 30-H ) :   0.9743 B( 28-C , 31-H ) :   0.9726

Dispersion correction           -0.013308164
FINAL SINGLE POINT ENERGY     -1339.859032804471

DIPOLE MOMENT
-------------
                                X             Y             Z
Electronic contribution:     11.93052       4.65448       0.83496
Nuclear contribution   :    -12.09411      -4.68701      -1.00958
                        -----------------------------------------
Total Dipole Moment    :     -0.16358      -0.03253      -0.17462
                        -----------------------------------------
Magnitude (a.u.)       :      0.24148
Magnitude (Debye)      :      0.61379

Rotational constants in cm-1:     0.023087     0.007306     0.005728
Rotational constants in MHz :   692.120784   219.022602   171.730000

                             ****ORCA TERMINATED NORMALLY****
TOTAL RUN TIME: 0 days 0 hours 0 minutes 29 seconds 160 msec
