                         Program Version 4.2.1 -  RELEASE  -
|  1> ! wB97X-D3 SP def2-SVP
|  2> %pal
|  3> nprocs 16
|  4> end
|  5>
|  6> * xyz 0 1
|  7> S 	 10.1996 	 -14.8581 	 65.7341
|  8> C 	 10.5179 	 -16.62 	 65.5822
|  9> C 	 10.4887 	 -17.2793 	 66.7875
| 10> C 	 10.3606 	 -16.3912 	 67.836
| 11> C 	 10.1687 	 -15.0225 	 67.4895
| 12> H 	 10.4423 	 -16.7287 	 68.9164
| 13> C 	 10.5091 	 -18.7725 	 67.0293
| 14> H 	 10.6266 	 -19.4045 	 66.0787
| 15> H 	 9.54199 	 -19.082 	 67.4256
| 16> C 	 11.5656 	 -19.3261 	 67.9621
| 17> H 	 11.4036 	 -19.0105 	 69.0072
| 18> H 	 11.498 	 -20.3746 	 67.8103
| 19> C 	 12.9754 	 -18.9318 	 67.5794
| 20> H 	 13.6324 	 -19.3704 	 68.2985
| 21> H 	 13.3155 	 -19.1884 	 66.5996
| 22> H 	 13.0381 	 -17.895 	 67.6132
| 23> S 	 8.33318 	 -13.1718 	 68.3585
| 24> C 	 8.6774 	 -12.2013 	 69.7643
| 25> C 	 9.89557 	 -12.4936 	 70.3213
| 26> C 	 10.6705 	 -13.5218 	 69.589
| 27> C 	 9.90704 	 -13.9071 	 68.428
| 28> H 	 10.2055 	 -11.9637 	 71.209
| 29> C 	 11.9928 	 -13.9696 	 70.0687
| 30> H 	 12.4033 	 -14.8431 	 69.568
| 31> H 	 11.7851 	 -14.3447 	 71.1041
| 32> C 	 12.9854 	 -12.8567 	 70.1985
| 33> H 	 13.8672 	 -13.2318 	 70.7842
| 34> H 	 12.5633 	 -12.0548 	 70.7856
| 35> C 	 13.6106 	 -12.4117 	 68.8693
| 36> H 	 12.8314 	 -11.8777 	 68.3476
| 37> H 	 13.9029 	 -13.2305 	 68.2422
| 38> H 	 14.4708 	 -11.7552 	 69.1756
| 39> H 	 10.2932 	 -17.1663 	 64.6734
| 40> H 	 8.03566 	 -11.4284 	 70.1639
| 41> *
| 42>
| 43>                          ****END OF INPUT****

CARTESIAN COORDINATES (ANGSTROEM)
---------------------------------
  S     10.199600  -14.858100   65.734100
  C     10.517900  -16.620000   65.582200
  C     10.488700  -17.279300   66.787500
  C     10.360600  -16.391200   67.836000
  C     10.168700  -15.022500   67.489500
  H     10.442300  -16.728700   68.916400
  C     10.509100  -18.772500   67.029300
  H     10.626600  -19.404500   66.078700
  H      9.541990  -19.082000   67.425600
  C     11.565600  -19.326100   67.962100
  H     11.403600  -19.010500   69.007200
  H     11.498000  -20.374600   67.810300
  C     12.975400  -18.931800   67.579400
  H     13.632400  -19.370400   68.298500
  H     13.315500  -19.188400   66.599600
  H     13.038100  -17.895000   67.613200
  S      8.333180  -13.171800   68.358500
  C      8.677400  -12.201300   69.764300
  C      9.895570  -12.493600   70.321300
  C     10.670500  -13.521800   69.589000
  C      9.907040  -13.907100   68.428000
  H     10.205500  -11.963700   71.209000
  C     11.992800  -13.969600   70.068700
  H     12.403300  -14.843100   69.568000
  H     11.785100  -14.344700   71.104100
  C     12.985400  -12.856700   70.198500
  H     13.867200  -13.231800   70.784200
  H     12.563300  -12.054800   70.785600
  C     13.610600  -12.411700   68.869300
  H     12.831400  -11.877700   68.347600
  H     13.902900  -13.230500   68.242200
  H     14.470800  -11.755200   69.175600
  H     10.293200  -17.166300   64.673400
  H      8.035660  -11.428400   70.163900

 Total Charge           Charge          ....    0
 Multiplicity           Mult            ....    1
 Number of Electrons    NEL             ....  134
 Basis Dimension        Dim             ....  322

ORBITAL ENERGIES
----------------

  NO   OCC          E(Eh)            E(eV)
   0   2.0000     -88.969998     -2420.9967
   1   2.0000     -88.967441     -2420.9272
   2   2.0000     -10.336478      -281.2699
   3   2.0000     -10.332068      -281.1499
   4   2.0000     -10.316968      -280.7390
   5   2.0000     -10.314340      -280.6674
   6   2.0000     -10.313228      -280.6372
   7   2.0000     -10.297680      -280.2141
   8   2.0000     -10.297309      -280.2040
   9   2.0000     -10.297193      -280.2009
  10   2.0000     -10.296946      -280.1941
  11   2.0000     -10.291236      -280.0388
  12   2.0000     -10.284361      -279.8517
  13   2.0000     -10.283536      -279.8292
  14   2.0000     -10.272957      -279.5414
  15   2.0000     -10.262560      -279.2584
  16   2.0000      -8.083506      -219.9634
  17   2.0000      -8.082423      -219.9339
  18   2.0000      -6.041978      -164.4106
  19   2.0000      -6.040909      -164.3815
  20   2.0000      -6.038236      -164.3088
  21   2.0000      -6.036948      -164.2737
  22   2.0000      -6.034330      -164.2025
  23   2.0000      -6.033136      -164.1700
  24   2.0000      -1.000496       -27.2249
  25   2.0000      -0.981170       -26.6990
  26   2.0000      -0.919157       -25.0115
  27   2.0000      -0.917053       -24.9543
  28   2.0000      -0.868088       -23.6219
  29   2.0000      -0.847083       -23.0503
  30   2.0000      -0.845242       -23.0002
  31   2.0000      -0.809505       -22.0278
  32   2.0000      -0.789377       -21.4800
  33   2.0000      -0.774354       -21.0712
  34   2.0000      -0.706660       -19.2292
  35   2.0000      -0.694938       -18.9102
  36   2.0000      -0.692367       -18.8403
  37   2.0000      -0.651254       -17.7215
  38   2.0000      -0.631262       -17.1775
  39   2.0000      -0.622131       -16.9290
  40   2.0000      -0.604881       -16.4596
  41   2.0000      -0.569687       -15.5020
  42   2.0000      -0.556677       -15.1480
  43   2.0000      -0.553302       -15.0561
  44   2.0000      -0.547130       -14.8882
  45   2.0000      -0.538036       -14.6407
  46   2.0000      -0.520041       -14.1510
  47   2.0000      -0.508705       -13.8426
  48   2.0000      -0.499797       -13.6002
  49   2.0000      -0.493315       -13.4238
  50   2.0000      -0.489683       -13.3250
  51   2.0000      -0.479523       -13.0485
  52   2.0000      -0.468168       -12.7395
  53   2.0000      -0.465753       -12.6738
  54   2.0000      -0.461539       -12.5591
  55   2.0000      -0.444351       -12.0914
  56   2.0000      -0.443445       -12.0667
  57   2.0000      -0.435151       -11.8411
  58   2.0000      -0.433436       -11.7944
  59   2.0000      -0.429994       -11.7007
  60   2.0000      -0.422870       -11.5069
  61   2.0000      -0.420102       -11.4316
  62   2.0000      -0.406235       -11.0542
  63   2.0000      -0.339636        -9.2420
  64   2.0000      -0.336361        -9.1528
  65   2.0000      -0.322939        -8.7876
  66   2.0000      -0.295348        -8.0368
  67   0.0000       0.027728         0.7545
  68   0.0000       0.066345         1.8053
  69   0.0000       0.111733         3.0404
  70   0.0000       0.113629         3.0920
  71   0.0000       0.127188         3.4610

MULLIKEN ATOMIC CHARGES
-----------------------
   0 S :    0.106268
   1 C :   -0.118693
   2 C :   -0.084136
   3 C :    0.017536
   4 C :   -0.175909
   5 H :    0.030677
   6 C :    0.045735
   7 H :    0.025291
   8 H :    0.039768
   9 C :   -0.085534
  10 H :    0.035644
  11 H :    0.026357
  12 C :   -0.006353
  13 H :    0.026418
  14 H :    0.016510
  15 H :    0.018609
  16 S :    0.117786
  17 C :   -0.087989
  18 C :   -0.046224
  19 C :   -0.039130
  20 C :   -0.159241
  21 H :    0.021261
  22 C :    0.081464
  23 H :    0.020872
  24 H :    0.034598
  25 C :   -0.106479
  26 H :    0.026250
  27 H :    0.027309
  28 C :   -0.031792
  29 H :    0.036308
  30 H :    0.032323
  31 H :    0.045659
  32 H :    0.052013
  33 H :    0.056825
Sum of atomic charges:   -0.0000000

LOEWDIN ATOMIC CHARGES
----------------------
   0 S :    0.390397
   1 C :   -0.190706
   2 C :   -0.071637
   3 C :   -0.068611
   4 C :   -0.194968
   5 H :    0.038309
   6 C :   -0.033241
   7 H :    0.036342
   8 H :    0.034375
   9 C :   -0.038469
  10 H :    0.024331
  11 H :    0.023897
  12 C :   -0.055330
  13 H :    0.024663
  14 H :    0.021438
  15 H :    0.016686
  16 S :    0.416675
  17 C :   -0.188456
  18 C :   -0.070800
  19 C :   -0.043066
  20 C :   -0.214878
  21 H :    0.029061
  22 C :   -0.041634
  23 H :    0.029777
  24 H :    0.042897
  25 C :   -0.043448
  26 H :    0.026230
  27 H :    0.020288
  28 C :   -0.061075
  29 H :    0.024694
  30 H :    0.023767
  31 H :    0.034391
  32 H :    0.027080
  33 H :    0.031019

  Mayer bond orders larger than 0.100000
B(  0-S ,  1-C ) :   1.1332 B(  0-S ,  4-C ) :   1.1671 B(  1-C ,  2-C ) :   1.6127
B(  1-C ,  4-C ) :   0.1087 B(  1-C , 32-H ) :   0.9543 B(  2-C ,  3-C ) :   1.2781
B(  2-C ,  6-C ) :   1.0150 B(  3-C ,  4-C ) :   1.5398 B(  3-C ,  5-H ) :   0.9822
B(  4-C , 20-C ) :   1.0267 B(  6-C ,  7-H ) :   0.9447 B(  6-C ,  8-H ) :   0.9388
B(  6-C ,  9-C ) :   1.0813 B(  9-C , 10-H ) :   0.9511 B(  9-C , 11-H ) :   0.9542
B(  9-C , 12-C ) :   1.0859 B( 12-C , 13-H ) :   0.9722 B( 12-C , 14-H ) :   0.9728
B( 12-C , 15-H ) :   0.9696 B( 16-S , 17-C ) :   1.1454 B( 16-S , 20-C ) :   1.1561
B( 17-C , 18-C ) :   1.6411 B( 17-C , 33-H ) :   0.9661 B( 18-C , 19-C ) :   1.2126
B( 18-C , 21-H ) :   0.9846 B( 19-C , 20-C ) :   1.5684 B( 19-C , 22-C ) :   1.0558
B( 22-C , 23-H ) :   0.9341 B( 22-C , 24-H ) :   0.9189 B( 22-C , 25-C ) :   1.0872
B( 25-C , 26-H ) :   0.9530 B( 25-C , 27-H ) :   0.9548 B( 25-C , 28-C ) :   1.0670
B( 28-C , 29-H ) :   0.9768 B( 28-C , 30-H ) :   0.9731 B( 28-C , 31-H ) :   0.9751

Dispersion correction           -0.014653075
FINAL SINGLE POINT ENERGY     -1339.875184593377

DIPOLE MOMENT
-------------
                                X             Y             Z
Electronic contribution:    -20.91411      12.23342      -9.43269
Nuclear contribution   :     21.11054     -12.58334       9.99500
                        -----------------------------------------
Total Dipole Moment    :      0.19644      -0.34991       0.56231
                        -----------------------------------------
Magnitude (a.u.)       :      0.69081
Magnitude (Debye)      :      1.75590

Rotational constants in cm-1:     0.018349     0.008965     0.007403
Rotational constants in MHz :   550.077420   268.755137   221.933414

                             ****ORCA TERMINATED NORMALLY****
TOTAL RUN TIME: 0 days 0 hours 0 minutes 35 seconds 457 msec
