                         Program Version 4.2.1 -  RELEASE  -
|  1> ! wB97X-D3 SP def2-SVP
|  2> %pal
|  3> nprocs 16
|  4> end
|  5>
|  6> * xyz 0 1
|  7> S 	 -31.5454 	 4.62493 	 99.0078
|  8> C 	 -31.5909 	 2.97819 	 98.3669
|  9> C 	 -32.6275 	 2.32003 	 99.0028
| 10> C 	 -33.2571 	 3.06301 	 100.059
| 11> C 	 -32.7977 	 4.30043 	 100.122
| 12> H 	 -34.0958 	 2.70058 	 100.618
| 13> C 	 -33.1348 	 0.909056 	 98.6826
| 14> H 	 -33.3442 	 0.343903 	 99.6387
| 15> H 	 -32.3123 	 0.34604 	 98.2726
| 16> C 	 -34.2866 	 0.870803 	 97.6719
| 17> H 	 -35.2018 	 0.874271 	 98.3
| 18> H 	 -34.1341 	 1.78858 	 97.1201
| 19> C 	 -34.3532 	 -0.373279 	 96.7703
| 20> H 	 -34.8197 	 -1.20802 	 97.3139
| 21> H 	 -34.9438 	 -0.0910774 	 95.9469
| 22> H 	 -33.4063 	 -0.610612 	 96.3919
| 23> S 	 -33.7904 	 6.83305 	 100.363
| 24> C 	 -33.6831 	 7.57147 	 101.878
| 25> C 	 -33.4873 	 6.72133 	 102.953
| 26> C 	 -33.2946 	 5.40309 	 102.438
| 27> C 	 -33.28 	 5.29755 	 101.061
| 28> H 	 -33.5548 	 7.12881 	 103.991
| 29> C 	 -32.7267 	 4.35108 	 103.444
| 30> H 	 -32.2588 	 4.86211 	 104.323
| 31> H 	 -31.9985 	 3.79255 	 102.903
| 32> C 	 -33.8022 	 3.38871 	 103.87
| 33> H 	 -34.1687 	 2.74613 	 103.058
| 34> H 	 -34.7885 	 3.87101 	 104.095
| 35> C 	 -33.4082 	 2.41724 	 104.947
| 36> H 	 -33.4352 	 2.83504 	 106.018
| 37> H 	 -32.4209 	 1.97993 	 104.684
| 38> H 	 -34.1863 	 1.61712 	 104.98
| 39> H 	 -31.0176 	 2.63866 	 97.5259
| 40> H 	 -33.9328 	 8.63933 	 101.8
| 41> *
| 42>
| 43>                          ****END OF INPUT****

CARTESIAN COORDINATES (ANGSTROEM)
---------------------------------
  S    -31.545400    4.624930   99.007800
  C    -31.590900    2.978190   98.366900
  C    -32.627500    2.320030   99.002800
  C    -33.257100    3.063010  100.059000
  C    -32.797700    4.300430  100.122000
  H    -34.095800    2.700580  100.618000
  C    -33.134800    0.909056   98.682600
  H    -33.344200    0.343903   99.638700
  H    -32.312300    0.346040   98.272600
  C    -34.286600    0.870803   97.671900
  H    -35.201800    0.874271   98.300000
  H    -34.134100    1.788580   97.120100
  C    -34.353200   -0.373279   96.770300
  H    -34.819700   -1.208020   97.313900
  H    -34.943800   -0.091077   95.946900
  H    -33.406300   -0.610612   96.391900
  S    -33.790400    6.833050  100.363000
  C    -33.683100    7.571470  101.878000
  C    -33.487300    6.721330  102.953000
  C    -33.294600    5.403090  102.438000
  C    -33.280000    5.297550  101.061000
  H    -33.554800    7.128810  103.991000
  C    -32.726700    4.351080  103.444000
  H    -32.258800    4.862110  104.323000
  H    -31.998500    3.792550  102.903000
  C    -33.802200    3.388710  103.870000
  H    -34.168700    2.746130  103.058000
  H    -34.788500    3.871010  104.095000
  C    -33.408200    2.417240  104.947000
  H    -33.435200    2.835040  106.018000
  H    -32.420900    1.979930  104.684000
  H    -34.186300    1.617120  104.980000
  H    -31.017600    2.638660   97.525900
  H    -33.932800    8.639330  101.800000

 Total Charge           Charge          ....    0
 Multiplicity           Mult            ....    1
 Number of Electrons    NEL             ....  134
 Basis Dimension        Dim             ....  322

ORBITAL ENERGIES
----------------

  NO   OCC          E(Eh)            E(eV)
   0   2.0000     -88.964049     -2420.8349
   1   2.0000     -88.960793     -2420.7462
   2   2.0000     -10.322314      -280.8845
   3   2.0000     -10.320552      -280.8365
   4   2.0000     -10.315179      -280.6903
   5   2.0000     -10.314213      -280.6640
   6   2.0000     -10.305844      -280.4363
   7   2.0000     -10.300959      -280.3034
   8   2.0000     -10.298560      -280.2381
   9   2.0000     -10.290583      -280.0210
  10   2.0000     -10.288690      -279.9695
  11   2.0000     -10.284491      -279.8552
  12   2.0000     -10.284337      -279.8510
  13   2.0000     -10.284055      -279.8434
  14   2.0000     -10.281881      -279.7842
  15   2.0000     -10.272183      -279.5203
  16   2.0000      -8.079486      -219.8540
  17   2.0000      -8.077255      -219.7933
  18   2.0000      -6.038011      -164.3026
  19   2.0000      -6.035437      -164.2326
  20   2.0000      -6.033926      -164.1915
  21   2.0000      -6.031564      -164.1272
  22   2.0000      -6.030117      -164.0878
  23   2.0000      -6.028218      -164.0362
  24   2.0000      -1.015080       -27.6217
  25   2.0000      -0.990832       -26.9619
  26   2.0000      -0.910698       -24.7814
  27   2.0000      -0.910378       -24.7726
  28   2.0000      -0.870991       -23.7009
  29   2.0000      -0.854107       -23.2414
  30   2.0000      -0.848390       -23.0859
  31   2.0000      -0.814929       -22.1753
  32   2.0000      -0.782744       -21.2996
  33   2.0000      -0.772073       -21.0092
  34   2.0000      -0.698578       -19.0093
  35   2.0000      -0.695781       -18.9332
  36   2.0000      -0.686485       -18.6802
  37   2.0000      -0.663052       -18.0426
  38   2.0000      -0.644756       -17.5447
  39   2.0000      -0.622829       -16.9480
  40   2.0000      -0.599591       -16.3157
  41   2.0000      -0.575144       -15.6505
  42   2.0000      -0.563371       -15.3301
  43   2.0000      -0.554338       -15.0843
  44   2.0000      -0.528006       -14.3678
  45   2.0000      -0.523795       -14.2532
  46   2.0000      -0.518109       -14.0985
  47   2.0000      -0.514271       -13.9940
  48   2.0000      -0.508157       -13.8277
  49   2.0000      -0.502118       -13.6633
  50   2.0000      -0.496874       -13.5206
  51   2.0000      -0.476226       -12.9588
  52   2.0000      -0.473508       -12.8848
  53   2.0000      -0.465543       -12.6681
  54   2.0000      -0.456618       -12.4252
  55   2.0000      -0.453091       -12.3292
  56   2.0000      -0.445575       -12.1247
  57   2.0000      -0.436774       -11.8852
  58   2.0000      -0.428967       -11.6728
  59   2.0000      -0.418167       -11.3789
  60   2.0000      -0.415574       -11.3083
  61   2.0000      -0.411531       -11.1983
  62   2.0000      -0.402542       -10.9537
  63   2.0000      -0.344840        -9.3836
  64   2.0000      -0.336015        -9.1434
  65   2.0000      -0.326450        -8.8831
  66   2.0000      -0.299249        -8.1430
  67   0.0000       0.036862         1.0031
  68   0.0000       0.071612         1.9487
  69   0.0000       0.118395         3.2217
  70   0.0000       0.120726         3.2851
  71   0.0000       0.127565         3.4712

MULLIKEN ATOMIC CHARGES
-----------------------
   0 S :    0.113544
   1 C :   -0.122727
   2 C :   -0.101381
   3 C :    0.023082
   4 C :   -0.099119
   5 H :    0.010851
   6 C :    0.040886
   7 H :    0.032955
   8 H :    0.002746
   9 C :   -0.082792
  10 H :    0.033848
  11 H :    0.035097
  12 C :   -0.001742
  13 H :    0.039784
  14 H :    0.025794
  15 H :    0.013993
  16 S :    0.101182
  17 C :   -0.114237
  18 C :   -0.041991
  19 C :   -0.017387
  20 C :   -0.187541
  21 H :    0.046100
  22 C :    0.093033
  23 H :    0.037154
  24 H :    0.025250
  25 C :   -0.111964
  26 H :    0.016220
  27 H :    0.023846
  28 C :   -0.060219
  29 H :    0.043685
  30 H :    0.037818
  31 H :    0.031945
  32 H :    0.047071
  33 H :    0.065218
Sum of atomic charges:   -0.0000000

LOEWDIN ATOMIC CHARGES
----------------------
   0 S :    0.414194
   1 C :   -0.194700
   2 C :   -0.057026
   3 C :   -0.065364
   4 C :   -0.205037
   5 H :    0.030822
   6 C :   -0.041602
   7 H :    0.032085
   8 H :    0.020681
   9 C :   -0.040601
  10 H :    0.028515
  11 H :    0.024400
  12 C :   -0.053897
  13 H :    0.030994
  14 H :    0.024654
  15 H :    0.014861
  16 S :    0.420473
  17 C :   -0.194176
  18 C :   -0.083498
  19 C :   -0.046620
  20 C :   -0.199642
  21 H :    0.046061
  22 C :   -0.021793
  23 H :    0.035390
  24 H :    0.027341
  25 C :   -0.060432
  26 H :    0.023626
  27 H :    0.025438
  28 C :   -0.074294
  29 H :    0.029831
  30 H :    0.027851
  31 H :    0.028649
  32 H :    0.027875
  33 H :    0.024942

  Mayer bond orders larger than 0.100000
B(  0-S ,  1-C ) :   1.1162 B(  0-S ,  4-C ) :   1.1571 B(  1-C ,  2-C ) :   1.6198
B(  1-C , 32-H ) :   0.9775 B(  2-C ,  3-C ) :   1.2151 B(  2-C ,  6-C ) :   1.0356
B(  3-C ,  4-C ) :   1.5874 B(  3-C ,  5-H ) :   1.0063 B(  4-C , 20-C ) :   1.0133
B(  6-C ,  7-H ) :   0.9438 B(  6-C ,  8-H ) :   0.9409 B(  6-C ,  9-C ) :   1.0424
B(  9-C , 10-H ) :   0.9552 B(  9-C , 11-H ) :   0.9617 B(  9-C , 12-C ) :   1.0898
B( 12-C , 13-H ) :   0.9761 B( 12-C , 14-H ) :   0.9736 B( 12-C , 15-H ) :   0.9745
B( 16-S , 17-C ) :   1.1972 B( 16-S , 20-C ) :   1.1402 B( 17-C , 18-C ) :   1.5746
B( 17-C , 33-H ) :   0.9635 B( 18-C , 19-C ) :   1.2344 B( 18-C , 21-H ) :   0.9932
B( 19-C , 20-C ) :   1.6120 B( 19-C , 22-C ) :   1.0293 B( 22-C , 23-H ) :   0.9530
B( 22-C , 24-H ) :   0.9287 B( 22-C , 25-C ) :   1.0566 B( 25-C , 26-H ) :   0.9487
B( 25-C , 27-H ) :   0.9524 B( 25-C , 28-C ) :   1.0892 B( 28-C , 29-H ) :   0.9739
B( 28-C , 30-H ) :   0.9684 B( 28-C , 31-H ) :   0.9735

Dispersion correction           -0.013958093
FINAL SINGLE POINT ENERGY     -1339.869122660415

DIPOLE MOMENT
-------------
                                X             Y             Z
Electronic contribution:      6.95807      25.84434      -6.93121
Nuclear contribution   :     -7.16138     -26.22754       7.05957
                        -----------------------------------------
Total Dipole Moment    :     -0.20331      -0.38320       0.12836
                        -----------------------------------------
Magnitude (a.u.)       :      0.45239
Magnitude (Debye)      :      1.14988

Rotational constants in cm-1:     0.018092     0.008383     0.006570
Rotational constants in MHz :   542.370915   251.327054   196.968886

                             ****ORCA TERMINATED NORMALLY****
TOTAL RUN TIME: 0 days 0 hours 0 minutes 28 seconds 112 msec
