                         Program Version 4.2.1 -  RELEASE  -
|  1> ! wB97X-D3 SP def2-SVP
|  2> %pal
|  3> nprocs 16
|  4> end
|  5>
|  6> * xyz 0 1
|  7> S 	 4.73975 	 -12.0692 	 64.5258
|  8> C 	 5.22664 	 -12.2432 	 66.1189
|  9> C 	 5.53185 	 -11.0081 	 66.6393
| 10> C 	 5.045 	 -9.91916 	 65.8536
| 11> C 	 4.61404 	 -10.2996 	 64.5842
| 12> H 	 5.06675 	 -8.89197 	 66.0629
| 13> C 	 6.07877 	 -10.6639 	 68.0165
| 14> H 	 6.77774 	 -9.82036 	 67.7266
| 15> H 	 6.74648 	 -11.3865 	 68.3202
| 16> C 	 5.06419 	 -10.246 	 69.1194
| 17> H 	 4.61245 	 -9.27023 	 68.8336
| 18> H 	 4.23874 	 -10.9519 	 69.1807
| 19> C 	 5.78549 	 -10.0614 	 70.4864
| 20> H 	 6.63069 	 -9.38078 	 70.4586
| 21> H 	 5.06779 	 -9.75963 	 71.1791
| 22> H 	 6.04462 	 -11.0467 	 70.917
| 23> S 	 4.51226 	 -7.81271 	 63.1646
| 24> C 	 3.35345 	 -7.60026 	 61.8766
| 25> C 	 2.43558 	 -8.61129 	 61.965
| 26> C 	 2.81359 	 -9.64103 	 62.8268
| 27> C 	 3.9239 	 -9.47289 	 63.5922
| 28> H 	 1.46367 	 -8.62239 	 61.4402
| 29> C 	 1.82473 	 -10.8217 	 62.915
| 30> H 	 0.804843 	 -10.4287 	 62.7789
| 31> H 	 1.87282 	 -11.1993 	 63.9184
| 32> C 	 2.12625 	 -11.8145 	 61.8317
| 33> H 	 3.24915 	 -11.9148 	 61.786
| 34> H 	 1.73856 	 -11.3441 	 60.844
| 35> C 	 1.32884 	 -13.1335 	 62.0664
| 36> H 	 1.81949 	 -13.7131 	 62.8545
| 37> H 	 1.28543 	 -13.7505 	 61.1756
| 38> H 	 0.33244 	 -12.8059 	 62.4726
| 39> H 	 5.39696 	 -13.2066 	 66.5927
| 40> H 	 3.22478 	 -6.68653 	 61.2597
| 41> *
| 42>
| 43>                          ****END OF INPUT****

CARTESIAN COORDINATES (ANGSTROEM)
---------------------------------
  S      4.739750  -12.069200   64.525800
  C      5.226640  -12.243200   66.118900
  C      5.531850  -11.008100   66.639300
  C      5.045000   -9.919160   65.853600
  C      4.614040  -10.299600   64.584200
  H      5.066750   -8.891970   66.062900
  C      6.078770  -10.663900   68.016500
  H      6.777740   -9.820360   67.726600
  H      6.746480  -11.386500   68.320200
  C      5.064190  -10.246000   69.119400
  H      4.612450   -9.270230   68.833600
  H      4.238740  -10.951900   69.180700
  C      5.785490  -10.061400   70.486400
  H      6.630690   -9.380780   70.458600
  H      5.067790   -9.759630   71.179100
  H      6.044620  -11.046700   70.917000
  S      4.512260   -7.812710   63.164600
  C      3.353450   -7.600260   61.876600
  C      2.435580   -8.611290   61.965000
  C      2.813590   -9.641030   62.826800
  C      3.923900   -9.472890   63.592200
  H      1.463670   -8.622390   61.440200
  C      1.824730  -10.821700   62.915000
  H      0.804843  -10.428700   62.778900
  H      1.872820  -11.199300   63.918400
  C      2.126250  -11.814500   61.831700
  H      3.249150  -11.914800   61.786000
  H      1.738560  -11.344100   60.844000
  C      1.328840  -13.133500   62.066400
  H      1.819490  -13.713100   62.854500
  H      1.285430  -13.750500   61.175600
  H      0.332440  -12.805900   62.472600
  H      5.396960  -13.206600   66.592700
  H      3.224780   -6.686530   61.259700

 Total Charge           Charge          ....    0
 Multiplicity           Mult            ....    1
 Number of Electrons    NEL             ....  134
 Basis Dimension        Dim             ....  322

ORBITAL ENERGIES
----------------

  NO   OCC          E(Eh)            E(eV)
   0   2.0000     -88.967269     -2420.9225
   1   2.0000     -88.962636     -2420.7964
   2   2.0000     -10.334905      -281.2271
   3   2.0000     -10.331903      -281.1454
   4   2.0000     -10.322783      -280.8972
   5   2.0000     -10.313307      -280.6393
   6   2.0000     -10.299807      -280.2720
   7   2.0000     -10.295396      -280.1520
   8   2.0000     -10.293686      -280.1054
   9   2.0000     -10.291589      -280.0484
  10   2.0000     -10.290777      -280.0263
  11   2.0000     -10.290598      -280.0214
  12   2.0000     -10.288317      -279.9593
  13   2.0000     -10.283389      -279.8252
  14   2.0000     -10.279117      -279.7090
  15   2.0000     -10.277277      -279.6589
  16   2.0000      -8.082510      -219.9363
  17   2.0000      -8.076712      -219.7785
  18   2.0000      -6.040965      -164.3830
  19   2.0000      -6.036800      -164.2697
  20   2.0000      -6.035395      -164.2315
  21   2.0000      -6.033430      -164.1780
  22   2.0000      -6.031327      -164.1208
  23   2.0000      -6.027293      -164.0110
  24   2.0000      -1.010484       -27.4967
  25   2.0000      -0.992329       -27.0026
  26   2.0000      -0.908486       -24.7211
  27   2.0000      -0.905733       -24.6462
  28   2.0000      -0.875316       -23.8186
  29   2.0000      -0.851939       -23.1824
  30   2.0000      -0.842034       -22.9129
  31   2.0000      -0.816161       -22.2089
  32   2.0000      -0.778178       -21.1753
  33   2.0000      -0.768902       -20.9229
  34   2.0000      -0.708123       -19.2690
  35   2.0000      -0.700548       -19.0629
  36   2.0000      -0.684674       -18.6309
  37   2.0000      -0.670304       -18.2399
  38   2.0000      -0.648534       -17.6475
  39   2.0000      -0.614154       -16.7120
  40   2.0000      -0.596106       -16.2209
  41   2.0000      -0.571893       -15.5620
  42   2.0000      -0.560648       -15.2560
  43   2.0000      -0.558186       -15.1890
  44   2.0000      -0.527328       -14.3493
  45   2.0000      -0.523243       -14.2382
  46   2.0000      -0.521405       -14.1882
  47   2.0000      -0.514916       -14.0116
  48   2.0000      -0.507788       -13.8176
  49   2.0000      -0.501673       -13.6512
  50   2.0000      -0.491735       -13.3808
  51   2.0000      -0.474715       -12.9177
  52   2.0000      -0.471312       -12.8250
  53   2.0000      -0.468946       -12.7607
  54   2.0000      -0.466365       -12.6904
  55   2.0000      -0.445374       -12.1193
  56   2.0000      -0.440355       -11.9827
  57   2.0000      -0.435988       -11.8638
  58   2.0000      -0.434387       -11.8203
  59   2.0000      -0.424009       -11.5379
  60   2.0000      -0.410974       -11.1832
  61   2.0000      -0.410826       -11.1791
  62   2.0000      -0.403443       -10.9782
  63   2.0000      -0.359685        -9.7875
  64   2.0000      -0.329184        -8.9576
  65   2.0000      -0.326716        -8.8904
  66   2.0000      -0.291610        -7.9351
  67   0.0000       0.023673         0.6442
  68   0.0000       0.074849         2.0367
  69   0.0000       0.107322         2.9204
  70   0.0000       0.114751         3.1225
  71   0.0000       0.133672         3.6374

MULLIKEN ATOMIC CHARGES
-----------------------
   0 S :    0.109444
   1 C :   -0.120678
   2 C :   -0.084000
   3 C :    0.014997
   4 C :   -0.132714
   5 H :   -0.000942
   6 C :    0.070603
   7 H :    0.031762
   8 H :   -0.006184
   9 C :   -0.066085
  10 H :    0.031475
  11 H :    0.032920
  12 C :   -0.025634
  13 H :    0.041136
  14 H :    0.017946
  15 H :    0.027207
  16 S :    0.076099
  17 C :   -0.090223
  18 C :   -0.033739
  19 C :   -0.079266
  20 C :   -0.123213
  21 H :    0.030845
  22 C :    0.055559
  23 H :    0.021612
  24 H :    0.022762
  25 C :   -0.112487
  26 H :    0.043946
  27 H :    0.034172
  28 C :   -0.029502
  29 H :    0.033754
  30 H :    0.041739
  31 H :    0.032472
  32 H :    0.057531
  33 H :    0.076686
Sum of atomic charges:   -0.0000000

LOEWDIN ATOMIC CHARGES
----------------------
   0 S :    0.434197
   1 C :   -0.217091
   2 C :   -0.070161
   3 C :   -0.052807
   4 C :   -0.184605
   5 H :    0.021991
   6 C :   -0.034520
   7 H :    0.040995
   8 H :    0.013252
   9 C :   -0.033182
  10 H :    0.026337
  11 H :    0.024610
  12 C :   -0.061936
  13 H :    0.027032
  14 H :    0.019087
  15 H :    0.028232
  16 S :    0.376041
  17 C :   -0.181191
  18 C :   -0.080564
  19 C :   -0.059947
  20 C :   -0.181153
  21 H :    0.037093
  22 C :   -0.033565
  23 H :    0.028054
  24 H :    0.018976
  25 C :   -0.048398
  26 H :    0.023395
  27 H :    0.029562
  28 C :   -0.066770
  29 H :    0.025305
  30 H :    0.024174
  31 H :    0.030290
  32 H :    0.034989
  33 H :    0.042275

  Mayer bond orders larger than 0.100000
B(  0-S ,  1-C ) :   1.1667 B(  0-S ,  4-C ) :   1.1458 B(  1-C ,  2-C ) :   1.5681
B(  1-C , 32-H ) :   0.9728 B(  2-C ,  3-C ) :   1.2512 B(  2-C ,  6-C ) :   1.0270
B(  3-C ,  4-C ) :   1.5559 B(  3-C ,  5-H ) :   1.0008 B(  4-C , 20-C ) :   1.0506
B(  6-C ,  7-H ) :   0.9371 B(  6-C ,  8-H ) :   0.9429 B(  6-C ,  9-C ) :   1.0518
B(  9-C , 10-H ) :   0.9542 B(  9-C , 11-H ) :   0.9587 B(  9-C , 12-C ) :   1.0835
B( 12-C , 13-H ) :   0.9764 B( 12-C , 14-H ) :   0.9718 B( 12-C , 15-H ) :   0.9737
B( 16-S , 17-C ) :   1.1646 B( 16-S , 20-C ) :   1.1017 B( 17-C , 18-C ) :   1.5798
B( 17-C , 33-H ) :   0.9612 B( 18-C , 19-C ) :   1.2705 B( 18-C , 21-H ) :   0.9817
B( 19-C , 20-C ) :   1.6049 B( 19-C , 22-C ) :   1.0294 B( 22-C , 23-H ) :   0.9328
B( 22-C , 24-H ) :   0.9412 B( 22-C , 25-C ) :   1.0551 B( 25-C , 26-H ) :   0.9584
B( 25-C , 27-H ) :   0.9529 B( 25-C , 28-C ) :   1.0690 B( 28-C , 29-H ) :   0.9755
B( 28-C , 30-H ) :   0.9764 B( 28-C , 31-H ) :   0.9696

Dispersion correction           -0.014201837
FINAL SINGLE POINT ENERGY     -1339.868541207736

DIPOLE MOMENT
-------------
                                X             Y             Z
Electronic contribution:      6.62170       8.08639     -13.14076
Nuclear contribution   :     -6.94714      -8.13153      13.53517
                        -----------------------------------------
Total Dipole Moment    :     -0.32545      -0.04514       0.39441
                        -----------------------------------------
Magnitude (a.u.)       :      0.51334
Magnitude (Debye)      :      1.30480

Rotational constants in cm-1:     0.020121     0.007878     0.006244
Rotational constants in MHz :   603.213223   236.179424   187.186927

                             ****ORCA TERMINATED NORMALLY****
TOTAL RUN TIME: 0 days 0 hours 0 minutes 29 seconds 543 msec
