                         Program Version 4.2.1 -  RELEASE  -
|  1> ! wB97X-D3 SP def2-SVP
|  2> %pal
|  3> nprocs 16
|  4> end
|  5>
|  6> * xyz 0 1
|  7> S 	 11.7051 	 -13.6783 	 75.8117
|  8> C 	 11.1188 	 -12.493 	 76.9624
|  9> C 	 11.9527 	 -12.3807 	 78.0489
| 10> C 	 13.0536 	 -13.2873 	 78.0097
| 11> C 	 13.095 	 -14.0813 	 76.7973
| 12> H 	 13.6291 	 -13.615 	 78.9248
| 13> C 	 11.7395 	 -11.3672 	 79.2175
| 14> H 	 12.3326 	 -10.5773 	 78.7605
| 15> H 	 12.3037 	 -11.8868 	 79.9874
| 16> C 	 10.313 	 -11.0741 	 79.6218
| 17> H 	 9.81206 	 -10.6706 	 78.8102
| 18> H 	 9.63168 	 -11.8841 	 79.5345
| 19> C 	 10.2838 	 -10.1676 	 80.8779
| 20> H 	 10.8506 	 -10.8446 	 81.6153
| 21> H 	 10.9154 	 -9.30167 	 80.8327
| 22> H 	 9.26288 	 -9.87946 	 81.1502
| 23> S 	 13.2906 	 -16.7654 	 75.9299
| 24> C 	 14.9166 	 -17.4557 	 75.7181
| 25> C 	 15.8759 	 -16.4919 	 75.9935
| 26> C 	 15.3267 	 -15.2521 	 76.4416
| 27> C 	 13.9187 	 -15.1975 	 76.4739
| 28> H 	 16.8885 	 -16.8479 	 76.087
| 29> C 	 16.1996 	 -14.2049 	 76.9017
| 30> H 	 17.3122 	 -14.4971 	 76.7937
| 31> H 	 16.0528 	 -14.1324 	 78.0459
| 32> C 	 16.1062 	 -12.7818 	 76.3455
| 33> H 	 15.1823 	 -12.3244 	 76.6628
| 34> H 	 16.0891 	 -12.8052 	 75.2501
| 35> C 	 17.2151 	 -12.0011 	 76.8776
| 36> H 	 17.1763 	 -11.9607 	 77.9625
| 37> H 	 17.1888 	 -10.9518 	 76.4668
| 38> H 	 18.2014 	 -12.4159 	 76.6703
| 39> H 	 10.1427 	 -12.0571 	 76.9311
| 40> H 	 15.1796 	 -18.4275 	 75.3379
| 41> *
| 42>
| 43>                          ****END OF INPUT****

CARTESIAN COORDINATES (ANGSTROEM)
---------------------------------
  S     11.705100  -13.678300   75.811700
  C     11.118800  -12.493000   76.962400
  C     11.952700  -12.380700   78.048900
  C     13.053600  -13.287300   78.009700
  C     13.095000  -14.081300   76.797300
  H     13.629100  -13.615000   78.924800
  C     11.739500  -11.367200   79.217500
  H     12.332600  -10.577300   78.760500
  H     12.303700  -11.886800   79.987400
  C     10.313000  -11.074100   79.621800
  H      9.812060  -10.670600   78.810200
  H      9.631680  -11.884100   79.534500
  C     10.283800  -10.167600   80.877900
  H     10.850600  -10.844600   81.615300
  H     10.915400   -9.301670   80.832700
  H      9.262880   -9.879460   81.150200
  S     13.290600  -16.765400   75.929900
  C     14.916600  -17.455700   75.718100
  C     15.875900  -16.491900   75.993500
  C     15.326700  -15.252100   76.441600
  C     13.918700  -15.197500   76.473900
  H     16.888500  -16.847900   76.087000
  C     16.199600  -14.204900   76.901700
  H     17.312200  -14.497100   76.793700
  H     16.052800  -14.132400   78.045900
  C     16.106200  -12.781800   76.345500
  H     15.182300  -12.324400   76.662800
  H     16.089100  -12.805200   75.250100
  C     17.215100  -12.001100   76.877600
  H     17.176300  -11.960700   77.962500
  H     17.188800  -10.951800   76.466800
  H     18.201400  -12.415900   76.670300
  H     10.142700  -12.057100   76.931100
  H     15.179600  -18.427500   75.337900

 Total Charge           Charge          ....    0
 Multiplicity           Mult            ....    1
 Number of Electrons    NEL             ....  134
 Basis Dimension        Dim             ....  322

ORBITAL ENERGIES
----------------

  NO   OCC          E(Eh)            E(eV)
   0   2.0000     -88.968412     -2420.9536
   1   2.0000     -88.968196     -2420.9477
   2   2.0000     -10.336352      -281.2664
   3   2.0000     -10.327911      -281.0368
   4   2.0000     -10.322164      -280.8804
   5   2.0000     -10.310129      -280.5529
   6   2.0000     -10.305458      -280.4258
   7   2.0000     -10.303435      -280.3707
   8   2.0000     -10.301047      -280.3057
   9   2.0000     -10.296659      -280.1863
  10   2.0000     -10.293623      -280.1037
  11   2.0000     -10.292919      -280.0846
  12   2.0000     -10.289925      -280.0031
  13   2.0000     -10.283147      -279.8187
  14   2.0000     -10.272728      -279.5351
  15   2.0000     -10.271889      -279.5123
  16   2.0000      -8.082610      -219.9390
  17   2.0000      -8.081912      -219.9200
  18   2.0000      -6.041067      -164.3858
  19   2.0000      -6.040564      -164.3721
  20   2.0000      -6.037012      -164.2754
  21   2.0000      -6.036459      -164.2604
  22   2.0000      -6.033588      -164.1823
  23   2.0000      -6.032705      -164.1582
  24   2.0000      -1.003017       -27.2935
  25   2.0000      -0.980151       -26.6713
  26   2.0000      -0.916758       -24.9463
  27   2.0000      -0.916040       -24.9267
  28   2.0000      -0.872658       -23.7462
  29   2.0000      -0.857044       -23.3214
  30   2.0000      -0.847382       -23.0584
  31   2.0000      -0.811165       -22.0729
  32   2.0000      -0.780418       -21.2363
  33   2.0000      -0.762414       -20.7463
  34   2.0000      -0.729097       -19.8397
  35   2.0000      -0.710832       -19.3427
  36   2.0000      -0.687811       -18.7163
  37   2.0000      -0.661377       -17.9970
  38   2.0000      -0.635451       -17.2915
  39   2.0000      -0.613110       -16.6836
  40   2.0000      -0.594397       -16.1744
  41   2.0000      -0.575827       -15.6690
  42   2.0000      -0.570516       -15.5245
  43   2.0000      -0.559905       -15.2358
  44   2.0000      -0.532576       -14.4921
  45   2.0000      -0.520993       -14.1769
  46   2.0000      -0.518952       -14.1214
  47   2.0000      -0.513084       -13.9617
  48   2.0000      -0.507085       -13.7985
  49   2.0000      -0.499762       -13.5992
  50   2.0000      -0.493968       -13.4415
  51   2.0000      -0.482243       -13.1225
  52   2.0000      -0.477830       -13.0024
  53   2.0000      -0.462541       -12.5864
  54   2.0000      -0.461061       -12.5461
  55   2.0000      -0.452456       -12.3119
  56   2.0000      -0.445144       -12.1130
  57   2.0000      -0.439099       -11.9485
  58   2.0000      -0.425420       -11.5763
  59   2.0000      -0.419489       -11.4149
  60   2.0000      -0.414761       -11.2862
  61   2.0000      -0.408973       -11.1287
  62   2.0000      -0.405241       -11.0272
  63   2.0000      -0.344971        -9.3871
  64   2.0000      -0.331682        -9.0255
  65   2.0000      -0.327827        -8.9206
  66   2.0000      -0.285191        -7.7604
  67   0.0000       0.015547         0.4230
  68   0.0000       0.068700         1.8694
  69   0.0000       0.111949         3.0463
  70   0.0000       0.120263         3.2725
  71   0.0000       0.126358         3.4384

MULLIKEN ATOMIC CHARGES
-----------------------
   0 S :    0.117514
   1 C :   -0.131085
   2 C :   -0.134600
   3 C :   -0.003443
   4 C :   -0.188475
   5 H :    0.051093
   6 C :    0.086477
   7 H :    0.058540
   8 H :    0.020534
   9 C :   -0.040642
  10 H :   -0.005593
  11 H :    0.009658
  12 C :   -0.031291
  13 H :    0.036957
  14 H :    0.031494
  15 H :    0.045808
  16 S :    0.108295
  17 C :   -0.097936
  18 C :   -0.025538
  19 C :    0.016405
  20 C :   -0.129665
  21 H :    0.025432
  22 C :   -0.063599
  23 H :    0.024585
  24 H :    0.043604
  25 C :   -0.029448
  26 H :    0.037378
  27 H :    0.029279
  28 C :   -0.032771
  29 H :    0.016045
  30 H :    0.038954
  31 H :    0.016916
  32 H :    0.042028
  33 H :    0.057089
Sum of atomic charges:   -0.0000000

LOEWDIN ATOMIC CHARGES
----------------------
   0 S :    0.415855
   1 C :   -0.210449
   2 C :   -0.061879
   3 C :   -0.078798
   4 C :   -0.191392
   5 H :    0.042491
   6 C :   -0.022047
   7 H :    0.043658
   8 H :    0.027256
   9 C :   -0.056067
  10 H :    0.015761
  11 H :    0.028777
  12 C :   -0.058730
  13 H :    0.036748
  14 H :    0.023813
  15 H :    0.028907
  16 S :    0.390873
  17 C :   -0.171069
  18 C :   -0.071551
  19 C :   -0.055922
  20 C :   -0.206846
  21 H :    0.033385
  22 C :   -0.049061
  23 H :    0.035335
  24 H :    0.041392
  25 C :   -0.043988
  26 H :    0.024500
  27 H :    0.026084
  28 C :   -0.065154
  29 H :    0.022411
  30 H :    0.032595
  31 H :    0.019288
  32 H :    0.022777
  33 H :    0.031047

  Mayer bond orders larger than 0.100000
B(  0-S ,  1-C ) :   1.1331 B(  0-S ,  4-C ) :   1.1718 B(  1-C ,  2-C ) :   1.6021
B(  1-C ,  4-C ) :   0.1044 B(  1-C , 32-H ) :   0.9699 B(  2-C ,  3-C ) :   1.2936
B(  2-C ,  6-C ) :   0.9698 B(  3-C ,  4-C ) :   1.5080 B(  3-C ,  5-H ) :   0.9705
B(  4-C , 20-C ) :   1.1191 B(  6-C ,  7-H ) :   0.9348 B(  6-C ,  8-H ) :   0.9482
B(  6-C ,  9-C ) :   1.0668 B(  9-C , 10-H ) :   0.9292 B(  9-C , 11-H ) :   0.9517
B(  9-C , 12-C ) :   1.0684 B( 12-C , 13-H ) :   0.9783 B( 12-C , 14-H ) :   0.9753
B( 12-C , 15-H ) :   0.9735 B( 16-S , 17-C ) :   1.1593 B( 16-S , 20-C ) :   1.1143
B( 17-C , 18-C ) :   1.6000 B( 17-C , 33-H ) :   0.9648 B( 18-C , 19-C ) :   1.2632
B( 18-C , 21-H ) :   0.9867 B( 19-C , 20-C ) :   1.5380 B( 19-C , 22-C ) :   1.0619
B( 22-C , 23-H ) :   0.9427 B( 22-C , 24-H ) :   0.9180 B( 22-C , 25-C ) :   1.0591
B( 25-C , 26-H ) :   0.9370 B( 25-C , 27-H ) :   0.9527 B( 25-C , 28-C ) :   1.1031
B( 28-C , 29-H ) :   0.9670 B( 28-C , 30-H ) :   0.9683 B( 28-C , 31-H ) :   0.9688

Dispersion correction           -0.014153331
FINAL SINGLE POINT ENERGY     -1339.845469070557

DIPOLE MOMENT
-------------
                                X             Y             Z
Electronic contribution:     -6.97525     -22.23363     -16.66629
Nuclear contribution   :      7.15331      22.50148      17.11135
                        -----------------------------------------
Total Dipole Moment    :      0.17805       0.26785       0.44506
                        -----------------------------------------
Magnitude (a.u.)       :      0.54912
Magnitude (Debye)      :      1.39574

Rotational constants in cm-1:     0.020468     0.007879     0.006355
Rotational constants in MHz :   613.612451   236.208844   190.528314

                             ****ORCA TERMINATED NORMALLY****
TOTAL RUN TIME: 0 days 0 hours 0 minutes 30 seconds 327 msec
