                         Program Version 4.2.1 -  RELEASE  -
|  1> ! wB97X-D3 SP def2-SVP
|  2> %pal
|  3> nprocs 16
|  4> end
|  5>
|  6> * xyz 0 1
|  7> S 	 12.1223 	 18.5034 	 39.8395
|  8> C 	 12.7259 	 17.1899 	 38.8076
|  9> C 	 12.5673 	 17.417 	 37.484
| 10> C 	 11.8256 	 18.5923 	 37.1731
| 11> C 	 11.491 	 19.242 	 38.3373
| 12> H 	 11.5967 	 19.016 	 36.2227
| 13> C 	 12.971 	 16.4628 	 36.3879
| 14> H 	 13.9442 	 16.7606 	 36.098
| 15> H 	 12.2716 	 16.6364 	 35.5762
| 16> C 	 12.9273 	 14.958 	 36.6702
| 17> H 	 13.0878 	 14.3404 	 35.7152
| 18> H 	 13.729 	 14.6765 	 37.3676
| 19> C 	 11.5543 	 14.4521 	 37.2208
| 20> H 	 11.4844 	 14.9082 	 38.2108
| 21> H 	 10.6235 	 14.6996 	 36.5861
| 22> H 	 11.5598 	 13.3878 	 37.4343
| 23> S 	 11.1405 	 21.7528 	 39.5394
| 24> C 	 9.62825 	 22.625 	 39.2415
| 25> C 	 8.832 	 21.9059 	 38.3189
| 26> C 	 9.42166 	 20.7146 	 37.8638
| 27> C 	 10.7421 	 20.5117 	 38.3756
| 28> H 	 7.79833 	 22.3662 	 38.0403
| 29> C 	 8.54483 	 19.7921 	 37.0729
| 30> H 	 9.18796 	 19.501 	 36.2672
| 31> H 	 7.82483 	 20.4321 	 36.6283
| 32> C 	 7.93916 	 18.5933 	 37.815
| 33> H 	 8.79595 	 18.0731 	 38.3539
| 34> H 	 7.32036 	 17.9573 	 37.1379
| 35> C 	 6.9244 	 19.1245 	 38.9099
| 36> H 	 6.46763 	 18.2517 	 39.3814
| 37> H 	 6.07679 	 19.6373 	 38.4767
| 38> H 	 7.54013 	 19.6843 	 39.6222
| 39> H 	 13.303 	 16.3708 	 39.174
| 40> H 	 9.49183 	 23.6334 	 39.5679
| 41> *
| 42>
| 43>                          ****END OF INPUT****

CARTESIAN COORDINATES (ANGSTROEM)
---------------------------------
  S     12.122300   18.503400   39.839500
  C     12.725900   17.189900   38.807600
  C     12.567300   17.417000   37.484000
  C     11.825600   18.592300   37.173100
  C     11.491000   19.242000   38.337300
  H     11.596700   19.016000   36.222700
  C     12.971000   16.462800   36.387900
  H     13.944200   16.760600   36.098000
  H     12.271600   16.636400   35.576200
  C     12.927300   14.958000   36.670200
  H     13.087800   14.340400   35.715200
  H     13.729000   14.676500   37.367600
  C     11.554300   14.452100   37.220800
  H     11.484400   14.908200   38.210800
  H     10.623500   14.699600   36.586100
  H     11.559800   13.387800   37.434300
  S     11.140500   21.752800   39.539400
  C      9.628250   22.625000   39.241500
  C      8.832000   21.905900   38.318900
  C      9.421660   20.714600   37.863800
  C     10.742100   20.511700   38.375600
  H      7.798330   22.366200   38.040300
  C      8.544830   19.792100   37.072900
  H      9.187960   19.501000   36.267200
  H      7.824830   20.432100   36.628300
  C      7.939160   18.593300   37.815000
  H      8.795950   18.073100   38.353900
  H      7.320360   17.957300   37.137900
  C      6.924400   19.124500   38.909900
  H      6.467630   18.251700   39.381400
  H      6.076790   19.637300   38.476700
  H      7.540130   19.684300   39.622200
  H     13.303000   16.370800   39.174000
  H      9.491830   23.633400   39.567900

 Total Charge           Charge          ....    0
 Multiplicity           Mult            ....    1
 Number of Electrons    NEL             ....  134
 Basis Dimension        Dim             ....  322

ORBITAL ENERGIES
----------------

  NO   OCC          E(Eh)            E(eV)
   0   2.0000     -88.969993     -2420.9966
   1   2.0000     -88.969701     -2420.9887
   2   2.0000     -10.333728      -281.1950
   3   2.0000     -10.330397      -281.1044
   4   2.0000     -10.321517      -280.8628
   5   2.0000     -10.308423      -280.5065
   6   2.0000     -10.304115      -280.3892
   7   2.0000     -10.303701      -280.3779
   8   2.0000     -10.297179      -280.2005
   9   2.0000     -10.296661      -280.1864
  10   2.0000     -10.293578      -280.1025
  11   2.0000     -10.292239      -280.0661
  12   2.0000     -10.287962      -279.9497
  13   2.0000     -10.282040      -279.7885
  14   2.0000     -10.281106      -279.7631
  15   2.0000     -10.273230      -279.5488
  16   2.0000      -8.084100      -219.9795
  17   2.0000      -8.083399      -219.9605
  18   2.0000      -6.042502      -164.4248
  19   2.0000      -6.041983      -164.4107
  20   2.0000      -6.038557      -164.3175
  21   2.0000      -6.038355      -164.3120
  22   2.0000      -6.035164      -164.2252
  23   2.0000      -6.033836      -164.1890
  24   2.0000      -1.003716       -27.3125
  25   2.0000      -0.981754       -26.7149
  26   2.0000      -0.910449       -24.7746
  27   2.0000      -0.907075       -24.6828
  28   2.0000      -0.862233       -23.4625
  29   2.0000      -0.851073       -23.1589
  30   2.0000      -0.842353       -22.9216
  31   2.0000      -0.809231       -22.0203
  32   2.0000      -0.783127       -21.3100
  33   2.0000      -0.771950       -21.0058
  34   2.0000      -0.708697       -19.2846
  35   2.0000      -0.697869       -18.9900
  36   2.0000      -0.683550       -18.6003
  37   2.0000      -0.659480       -17.9454
  38   2.0000      -0.640025       -17.4160
  39   2.0000      -0.608161       -16.5489
  40   2.0000      -0.587730       -15.9930
  41   2.0000      -0.571341       -15.5470
  42   2.0000      -0.558885       -15.2080
  43   2.0000      -0.556620       -15.1464
  44   2.0000      -0.545573       -14.8458
  45   2.0000      -0.530742       -14.4422
  46   2.0000      -0.516556       -14.0562
  47   2.0000      -0.512870       -13.9559
  48   2.0000      -0.493356       -13.4249
  49   2.0000      -0.491329       -13.3697
  50   2.0000      -0.482464       -13.1285
  51   2.0000      -0.479927       -13.0595
  52   2.0000      -0.464777       -12.6472
  53   2.0000      -0.463869       -12.6225
  54   2.0000      -0.457087       -12.4380
  55   2.0000      -0.449992       -12.2449
  56   2.0000      -0.444379       -12.0922
  57   2.0000      -0.441592       -12.0163
  58   2.0000      -0.431179       -11.7330
  59   2.0000      -0.424550       -11.5526
  60   2.0000      -0.421391       -11.4666
  61   2.0000      -0.407628       -11.0921
  62   2.0000      -0.406014       -11.0482
  63   2.0000      -0.348619        -9.4864
  64   2.0000      -0.334693        -9.1075
  65   2.0000      -0.333473        -9.0743
  66   2.0000      -0.286107        -7.7854
  67   0.0000       0.021883         0.5955
  68   0.0000       0.065642         1.7862
  69   0.0000       0.100894         2.7455
  70   0.0000       0.122763         3.3406
  71   0.0000       0.131251         3.5715

MULLIKEN ATOMIC CHARGES
-----------------------
   0 S :    0.107012
   1 C :   -0.117392
   2 C :   -0.085370
   3 C :    0.003211
   4 C :   -0.132544
   5 H :    0.016269
   6 C :    0.127251
   7 H :    0.033969
   8 H :    0.019861
   9 C :   -0.126063
  10 H :    0.044285
  11 H :    0.032716
  12 C :   -0.072848
  13 H :    0.029072
  14 H :    0.051054
  15 H :    0.033292
  16 S :    0.099752
  17 C :   -0.112110
  18 C :   -0.058070
  19 C :   -0.112877
  20 C :   -0.143432
  21 H :    0.059055
  22 C :    0.141460
  23 H :    0.006421
  24 H :    0.000912
  25 C :   -0.084256
  26 H :    0.060655
  27 H :    0.039793
  28 C :   -0.068046
  29 H :    0.030547
  30 H :    0.025426
  31 H :    0.056890
  32 H :    0.034405
  33 H :    0.059700
Sum of atomic charges:   -0.0000000

LOEWDIN ATOMIC CHARGES
----------------------
   0 S :    0.372291
   1 C :   -0.191136
   2 C :   -0.057536
   3 C :   -0.058905
   4 C :   -0.165641
   5 H :    0.031954
   6 C :   -0.027756
   7 H :    0.031611
   8 H :    0.030493
   9 C :   -0.047714
  10 H :    0.033668
  11 H :    0.021871
  12 C :   -0.077513
  13 H :    0.023450
  14 H :    0.035364
  15 H :    0.023756
  16 S :    0.406640
  17 C :   -0.183811
  18 C :   -0.080041
  19 C :   -0.058419
  20 C :   -0.209119
  21 H :    0.049798
  22 C :   -0.033900
  23 H :    0.025121
  24 H :    0.023863
  25 C :   -0.035235
  26 H :    0.037580
  27 H :    0.027143
  28 C :   -0.067606
  29 H :    0.024722
  30 H :    0.019839
  31 H :    0.029675
  32 H :    0.021032
  33 H :    0.024462

  Mayer bond orders larger than 0.100000
B(  0-S ,  1-C ) :   1.0960 B(  0-S ,  4-C ) :   1.1312 B(  1-C ,  2-C ) :   1.6774
B(  1-C , 32-H ) :   0.9602 B(  2-C ,  3-C ) :   1.2005 B(  2-C ,  6-C ) :   0.9987
B(  3-C ,  4-C ) :   1.6052 B(  3-C ,  5-H ) :   0.9998 B(  4-C , 20-C ) :   1.0553
B(  6-C ,  7-H ) :   0.9252 B(  6-C ,  8-H ) :   0.9466 B(  6-C ,  9-C ) :   1.0825
B(  9-C , 10-H ) :   0.9578 B(  9-C , 11-H ) :   0.9498 B(  9-C , 12-C ) :   1.0755
B( 12-C , 13-H ) :   0.9707 B( 12-C , 14-H ) :   0.9751 B( 12-C , 15-H ) :   0.9734
B( 16-S , 17-C ) :   1.1718 B( 16-S , 20-C ) :   1.1543 B( 17-C , 18-C ) :   1.5558
B( 17-C , 20-C ) :   0.1122 B( 17-C , 33-H ) :   0.9700 B( 18-C , 19-C ) :   1.3080
B( 18-C , 21-H ) :   0.9705 B( 19-C , 20-C ) :   1.5159 B( 19-C , 22-C ) :   1.0264
B( 22-C , 23-H ) :   0.9204 B( 22-C , 24-H ) :   0.9291 B( 22-C , 25-C ) :   1.0612
B( 25-C , 26-H ) :   0.9550 B( 25-C , 27-H ) :   0.9567 B( 25-C , 28-C ) :   1.0709
B( 28-C , 29-H ) :   0.9754 B( 28-C , 30-H ) :   0.9758 B( 28-C , 31-H ) :   0.9759

Dispersion correction           -0.015630813
FINAL SINGLE POINT ENERGY     -1339.871050377749

DIPOLE MOMENT
-------------
                                X             Y             Z
Electronic contribution:     11.58281      19.99152      12.13382
Nuclear contribution   :    -11.82730     -20.21960     -12.58876
                        -----------------------------------------
Total Dipole Moment    :     -0.24449      -0.22809      -0.45494
                        -----------------------------------------
Magnitude (a.u.)       :      0.56459
Magnitude (Debye)      :      1.43508

Rotational constants in cm-1:     0.022172     0.008815     0.007299
Rotational constants in MHz :   664.693871   264.259831   218.821092

                             ****ORCA TERMINATED NORMALLY****
TOTAL RUN TIME: 0 days 0 hours 0 minutes 37 seconds 396 msec
