                         Program Version 4.2.1 -  RELEASE  -
|  1> ! wB97X-D3 SP def2-SVP
|  2> %pal
|  3> nprocs 16
|  4> end
|  5>
|  6> * xyz 0 1
|  7> S 	 17.0206 	 10.7456 	 87.5793
|  8> C 	 18.396 	 11.1467 	 86.5255
|  9> C 	 17.9802 	 11.3301 	 85.2156
| 10> C 	 16.5253 	 11.0242 	 85.0903
| 11> C 	 15.8624 	 10.7175 	 86.2541
| 12> H 	 15.9255 	 11.0929 	 84.2244
| 13> C 	 18.7264 	 11.9166 	 84.0966
| 14> H 	 18.0203 	 12.2795 	 83.3756
| 15> H 	 19.1986 	 11.0485 	 83.673
| 16> C 	 19.8739 	 12.8817 	 84.388
| 17> H 	 20.5924 	 12.4384 	 85.0604
| 18> H 	 20.3839 	 12.9013 	 83.4775
| 19> C 	 19.5777 	 14.2541 	 85.0323
| 20> H 	 20.4897 	 14.7895 	 85.4871
| 21> H 	 19.3128 	 14.9554 	 84.2287
| 22> H 	 18.8288 	 14.1847 	 85.7716
| 23> S 	 13.5863 	 11.8365 	 87.2544
| 24> C 	 12.0698 	 11.1409 	 86.9793
| 25> C 	 12.2067 	 9.94931 	 86.2843
| 26> C 	 13.5277 	 9.65757 	 85.89
| 27> C 	 14.4353 	 10.5124 	 86.4638
| 28> H 	 11.3026 	 9.41518 	 86.1579
| 29> C 	 13.8152 	 8.44807 	 85.0578
| 30> H 	 13.3622 	 7.62081 	 85.509
| 31> H 	 14.8762 	 8.24994 	 85.1208
| 32> C 	 13.3473 	 8.42241 	 83.6396
| 33> H 	 12.2716 	 8.59387 	 83.6278
| 34> H 	 13.4045 	 7.47745 	 83.241
| 35> C 	 13.9174 	 9.62671 	 82.7654
| 36> H 	 15.0014 	 9.52668 	 82.5955
| 37> H 	 13.7701 	 10.5547 	 83.2606
| 38> H 	 13.3823 	 9.63973 	 81.7993
| 39> H 	 19.4807 	 11.1901 	 86.7956
| 40> H 	 11.0881 	 11.6043 	 87.3486
| 41> *
| 42>
| 43>                          ****END OF INPUT****

CARTESIAN COORDINATES (ANGSTROEM)
---------------------------------
  S     17.020600   10.745600   87.579300
  C     18.396000   11.146700   86.525500
  C     17.980200   11.330100   85.215600
  C     16.525300   11.024200   85.090300
  C     15.862400   10.717500   86.254100
  H     15.925500   11.092900   84.224400
  C     18.726400   11.916600   84.096600
  H     18.020300   12.279500   83.375600
  H     19.198600   11.048500   83.673000
  C     19.873900   12.881700   84.388000
  H     20.592400   12.438400   85.060400
  H     20.383900   12.901300   83.477500
  C     19.577700   14.254100   85.032300
  H     20.489700   14.789500   85.487100
  H     19.312800   14.955400   84.228700
  H     18.828800   14.184700   85.771600
  S     13.586300   11.836500   87.254400
  C     12.069800   11.140900   86.979300
  C     12.206700    9.949310   86.284300
  C     13.527700    9.657570   85.890000
  C     14.435300   10.512400   86.463800
  H     11.302600    9.415180   86.157900
  C     13.815200    8.448070   85.057800
  H     13.362200    7.620810   85.509000
  H     14.876200    8.249940   85.120800
  C     13.347300    8.422410   83.639600
  H     12.271600    8.593870   83.627800
  H     13.404500    7.477450   83.241000
  C     13.917400    9.626710   82.765400
  H     15.001400    9.526680   82.595500
  H     13.770100   10.554700   83.260600
  H     13.382300    9.639730   81.799300
  H     19.480700   11.190100   86.795600
  H     11.088100   11.604300   87.348600

 Total Charge           Charge          ....    0
 Multiplicity           Mult            ....    1
 Number of Electrons    NEL             ....  134
 Basis Dimension        Dim             ....  322

ORBITAL ENERGIES
----------------

  NO   OCC          E(Eh)            E(eV)
   0   2.0000     -88.962779     -2420.8003
   1   2.0000     -88.960682     -2420.7432
   2   2.0000     -10.328276      -281.0467
   3   2.0000     -10.324817      -280.9525
   4   2.0000     -10.319755      -280.8148
   5   2.0000     -10.317731      -280.7597
   6   2.0000     -10.303439      -280.3708
   7   2.0000     -10.302025      -280.3323
   8   2.0000     -10.292311      -280.0680
   9   2.0000     -10.287837      -279.9463
  10   2.0000     -10.287617      -279.9403
  11   2.0000     -10.283444      -279.8267
  12   2.0000     -10.281364      -279.7701
  13   2.0000     -10.279707      -279.7251
  14   2.0000     -10.279652      -279.7236
  15   2.0000     -10.279598      -279.7221
  16   2.0000      -8.078719      -219.8331
  17   2.0000      -8.074842      -219.7276
  18   2.0000      -6.037091      -164.2776
  19   2.0000      -6.033658      -164.1842
  20   2.0000      -6.032916      -164.1640
  21   2.0000      -6.029672      -164.0757
  22   2.0000      -6.029335      -164.0665
  23   2.0000      -6.025397      -163.9594
  24   2.0000      -1.009996       -27.4834
  25   2.0000      -0.981182       -26.6993
  26   2.0000      -0.917173       -24.9576
  27   2.0000      -0.916026       -24.9263
  28   2.0000      -0.867413       -23.6035
  29   2.0000      -0.849007       -23.1027
  30   2.0000      -0.842598       -22.9283
  31   2.0000      -0.812130       -22.0992
  32   2.0000      -0.787469       -21.4281
  33   2.0000      -0.779623       -21.2146
  34   2.0000      -0.713579       -19.4175
  35   2.0000      -0.711922       -19.3724
  36   2.0000      -0.692893       -18.8546
  37   2.0000      -0.658705       -17.9243
  38   2.0000      -0.635176       -17.2840
  39   2.0000      -0.611075       -16.6282
  40   2.0000      -0.593742       -16.1565
  41   2.0000      -0.579016       -15.7558
  42   2.0000      -0.557337       -15.1659
  43   2.0000      -0.555484       -15.1155
  44   2.0000      -0.547730       -14.9045
  45   2.0000      -0.535022       -14.5587
  46   2.0000      -0.519689       -14.1415
  47   2.0000      -0.514224       -13.9927
  48   2.0000      -0.503117       -13.6905
  49   2.0000      -0.499010       -13.5787
  50   2.0000      -0.495636       -13.4869
  51   2.0000      -0.476484       -12.9658
  52   2.0000      -0.473070       -12.8729
  53   2.0000      -0.465051       -12.6547
  54   2.0000      -0.461974       -12.5709
  55   2.0000      -0.455373       -12.3913
  56   2.0000      -0.438761       -11.9393
  57   2.0000      -0.436150       -11.8682
  58   2.0000      -0.434994       -11.8368
  59   2.0000      -0.423450       -11.5227
  60   2.0000      -0.418543       -11.3891
  61   2.0000      -0.412188       -11.2162
  62   2.0000      -0.410684       -11.1753
  63   2.0000      -0.341055        -9.2806
  64   2.0000      -0.332101        -9.0369
  65   2.0000      -0.318959        -8.6793
  66   2.0000      -0.300018        -8.1639
  67   0.0000       0.040420         1.0999
  68   0.0000       0.064957         1.7676
  69   0.0000       0.117485         3.1969
  70   0.0000       0.125306         3.4097
  71   0.0000       0.125890         3.4256

MULLIKEN ATOMIC CHARGES
-----------------------
   0 S :    0.096169
   1 C :   -0.134334
   2 C :   -0.122601
   3 C :    0.058213
   4 C :   -0.164148
   5 H :   -0.029734
   6 C :    0.099191
   7 H :    0.023530
   8 H :    0.033039
   9 C :   -0.046776
  10 H :    0.011321
  11 H :    0.011399
  12 C :   -0.053289
  13 H :    0.039991
  14 H :    0.029979
  15 H :    0.041148
  16 S :    0.115142
  17 C :   -0.123959
  18 C :   -0.037658
  19 C :   -0.026756
  20 C :   -0.156035
  21 H :    0.004248
  22 C :    0.115405
  23 H :    0.009831
  24 H :    0.019128
  25 C :   -0.040782
  26 H :    0.013381
  27 H :    0.011278
  28 C :   -0.076872
  29 H :    0.039762
  30 H :    0.049314
  31 H :    0.038944
  32 H :    0.065427
  33 H :    0.087107
Sum of atomic charges:    0.0000000

LOEWDIN ATOMIC CHARGES
----------------------
   0 S :    0.382270
   1 C :   -0.204921
   2 C :   -0.060178
   3 C :   -0.057774
   4 C :   -0.194779
   5 H :    0.019560
   6 C :   -0.033122
   7 H :    0.030995
   8 H :    0.043058
   9 C :   -0.037483
  10 H :    0.021379
  11 H :    0.020062
  12 C :   -0.067425
  13 H :    0.036224
  14 H :    0.025574
  15 H :    0.020844
  16 S :    0.431204
  17 C :   -0.209171
  18 C :   -0.077155
  19 C :   -0.050693
  20 C :   -0.202818
  21 H :    0.025647
  22 C :   -0.027282
  23 H :    0.029071
  24 H :    0.030076
  25 C :   -0.029115
  26 H :    0.023216
  27 H :    0.014670
  28 C :   -0.063366
  29 H :    0.023167
  30 H :    0.020339
  31 H :    0.029726
  32 H :    0.040434
  33 H :    0.047764

  Mayer bond orders larger than 0.100000
B(  0-S ,  1-C ) :   1.1165 B(  0-S ,  4-C ) :   1.1317 B(  1-C ,  2-C ) :   1.6447
B(  1-C , 32-H ) :   0.9587 B(  2-C ,  3-C ) :   1.1916 B(  2-C ,  6-C ) :   1.0209
B(  3-C ,  4-C ) :   1.6286 B(  3-C ,  5-H ) :   0.9940 B(  4-C , 20-C ) :   1.0014
B(  6-C ,  7-H ) :   0.9456 B(  6-C ,  8-H ) :   0.9099 B(  6-C ,  9-C ) :   1.0940
B(  9-C , 10-H ) :   0.9499 B(  9-C , 11-H ) :   0.9505 B(  9-C , 12-C ) :   1.0625
B( 12-C , 13-H ) :   0.9764 B( 12-C , 14-H ) :   0.9772 B( 12-C , 15-H ) :   0.9777
B( 16-S , 17-C ) :   1.1874 B( 16-S , 20-C ) :   1.1537 B( 17-C , 18-C ) :   1.5821
B( 17-C , 33-H ) :   0.9563 B( 18-C , 19-C ) :   1.2273 B( 18-C , 21-H ) :   1.0053
B( 19-C , 20-C ) :   1.5884 B( 19-C , 22-C ) :   1.0526 B( 22-C , 23-H ) :   0.9238
B( 22-C , 24-H ) :   0.9307 B( 22-C , 25-C ) :   1.0882 B( 25-C , 26-H ) :   0.9511
B( 25-C , 27-H ) :   0.9547 B( 25-C , 28-C ) :   1.0626 B( 28-C , 29-H ) :   0.9755
B( 28-C , 30-H ) :   0.9706 B( 28-C , 31-H ) :   0.9725

Dispersion correction           -0.015113181
FINAL SINGLE POINT ENERGY     -1339.865533246915

DIPOLE MOMENT
-------------
                                X             Y             Z
Electronic contribution:     -8.48117      -0.86796      20.89627
Nuclear contribution   :      8.40269       0.74732     -21.57481
                        -----------------------------------------
Total Dipole Moment    :     -0.07848      -0.12064      -0.67854
                        -----------------------------------------
Magnitude (a.u.)       :      0.69363
Magnitude (Debye)      :      1.76307

Rotational constants in cm-1:     0.021368     0.008227     0.007006
Rotational constants in MHz :   640.611371   246.645985   210.031089

                             ****ORCA TERMINATED NORMALLY****
TOTAL RUN TIME: 0 days 0 hours 0 minutes 35 seconds 917 msec
