                         Program Version 4.2.1 -  RELEASE  -
|  1> ! wB97X-D3 SP def2-SVP
|  2> %pal
|  3> nprocs 16
|  4> end
|  5>
|  6> * xyz 0 1
|  7> S 	 -36.61 	 70.2636 	 172.744
|  8> C 	 -35.1647 	 70.8339 	 171.947
|  9> C 	 -34.4031 	 71.5895 	 172.823
| 10> C 	 -34.9466 	 71.6401 	 174.156
| 11> C 	 -36.0626 	 70.8485 	 174.269
| 12> H 	 -34.5358 	 72.0203 	 175.048
| 13> C 	 -33.0118 	 72.1037 	 172.442
| 14> H 	 -33.0624 	 72.5942 	 171.428
| 15> H 	 -32.3694 	 71.2387 	 172.47
| 16> C 	 -32.4644 	 73.1164 	 173.444
| 17> H 	 -33.2748 	 73.8956 	 173.452
| 18> H 	 -32.3129 	 72.6689 	 174.427
| 19> C 	 -31.2677 	 73.8784 	 172.956
| 20> H 	 -31.5774 	 74.4035 	 172.152
| 21> H 	 -30.929 	 74.6402 	 173.586
| 22> H 	 -30.4164 	 73.2912 	 172.611
| 23> S 	 -38.6229 	 70.6326 	 175.243
| 24> C 	 -38.8217 	 70.0309 	 176.918
| 25> C 	 -37.5649 	 69.7795 	 177.444
| 26> C 	 -36.4568 	 69.9134 	 176.561
| 27> C 	 -36.832 	 70.5069 	 175.392
| 28> H 	 -37.58 	 69.3639 	 178.472
| 29> C 	 -35.023 	 69.4991 	 177.024
| 30> H 	 -34.2791 	 69.8025 	 176.243
| 31> H 	 -34.9612 	 68.4571 	 177.101
| 32> C 	 -34.5716 	 70.1075 	 178.383
| 33> H 	 -33.5375 	 69.7349 	 178.594
| 34> H 	 -35.2159 	 69.7387 	 179.198
| 35> C 	 -34.5405 	 71.6691 	 178.37
| 36> H 	 -35.498 	 72.0438 	 178.633
| 37> H 	 -34.3178 	 72.0526 	 177.383
| 38> H 	 -33.7937 	 72.0079 	 179.061
| 39> H 	 -34.8608 	 70.5112 	 170.98
| 40> H 	 -39.745 	 69.7609 	 177.382
| 41> *
| 42>
| 43>                          ****END OF INPUT****

CARTESIAN COORDINATES (ANGSTROEM)
---------------------------------
  S    -36.610000   70.263600  172.744000
  C    -35.164700   70.833900  171.947000
  C    -34.403100   71.589500  172.823000
  C    -34.946600   71.640100  174.156000
  C    -36.062600   70.848500  174.269000
  H    -34.535800   72.020300  175.048000
  C    -33.011800   72.103700  172.442000
  H    -33.062400   72.594200  171.428000
  H    -32.369400   71.238700  172.470000
  C    -32.464400   73.116400  173.444000
  H    -33.274800   73.895600  173.452000
  H    -32.312900   72.668900  174.427000
  C    -31.267700   73.878400  172.956000
  H    -31.577400   74.403500  172.152000
  H    -30.929000   74.640200  173.586000
  H    -30.416400   73.291200  172.611000
  S    -38.622900   70.632600  175.243000
  C    -38.821700   70.030900  176.918000
  C    -37.564900   69.779500  177.444000
  C    -36.456800   69.913400  176.561000
  C    -36.832000   70.506900  175.392000
  H    -37.580000   69.363900  178.472000
  C    -35.023000   69.499100  177.024000
  H    -34.279100   69.802500  176.243000
  H    -34.961200   68.457100  177.101000
  C    -34.571600   70.107500  178.383000
  H    -33.537500   69.734900  178.594000
  H    -35.215900   69.738700  179.198000
  C    -34.540500   71.669100  178.370000
  H    -35.498000   72.043800  178.633000
  H    -34.317800   72.052600  177.383000
  H    -33.793700   72.007900  179.061000
  H    -34.860800   70.511200  170.980000
  H    -39.745000   69.760900  177.382000

 Total Charge           Charge          ....    0
 Multiplicity           Mult            ....    1
 Number of Electrons    NEL             ....  134
 Basis Dimension        Dim             ....  322

ORBITAL ENERGIES
----------------

  NO   OCC          E(Eh)            E(eV)
   0   2.0000     -88.963153     -2420.8105
   1   2.0000     -88.961817     -2420.7741
   2   2.0000     -10.324797      -280.9520
   3   2.0000     -10.321039      -280.8498
   4   2.0000     -10.319921      -280.8193
   5   2.0000     -10.309364      -280.5321
   6   2.0000     -10.305236      -280.4197
   7   2.0000     -10.303627      -280.3759
   8   2.0000     -10.296347      -280.1778
   9   2.0000     -10.296328      -280.1773
  10   2.0000     -10.294640      -280.1314
  11   2.0000     -10.294377      -280.1242
  12   2.0000     -10.292185      -280.0646
  13   2.0000     -10.287283      -279.9312
  14   2.0000     -10.273309      -279.5509
  15   2.0000     -10.263138      -279.2742
  16   2.0000      -8.077481      -219.7994
  17   2.0000      -8.076776      -219.7802
  18   2.0000      -6.035959      -164.2468
  19   2.0000      -6.035468      -164.2334
  20   2.0000      -6.031767      -164.1327
  21   2.0000      -6.031576      -164.1275
  22   2.0000      -6.028291      -164.0381
  23   2.0000      -6.027249      -164.0098
  24   2.0000      -1.010943       -27.5091
  25   2.0000      -0.980151       -26.6713
  26   2.0000      -0.917922       -24.9779
  27   2.0000      -0.902002       -24.5447
  28   2.0000      -0.876812       -23.8593
  29   2.0000      -0.852167       -23.1886
  30   2.0000      -0.840310       -22.8660
  31   2.0000      -0.817770       -22.2527
  32   2.0000      -0.786620       -21.4050
  33   2.0000      -0.777593       -21.1594
  34   2.0000      -0.716215       -19.4892
  35   2.0000      -0.695714       -18.9313
  36   2.0000      -0.690503       -18.7895
  37   2.0000      -0.655253       -17.8303
  38   2.0000      -0.647096       -17.6084
  39   2.0000      -0.619059       -16.8455
  40   2.0000      -0.595611       -16.2074
  41   2.0000      -0.583103       -15.8670
  42   2.0000      -0.559726       -15.2309
  43   2.0000      -0.553342       -15.0572
  44   2.0000      -0.541654       -14.7391
  45   2.0000      -0.526272       -14.3206
  46   2.0000      -0.522364       -14.2142
  47   2.0000      -0.513915       -13.9843
  48   2.0000      -0.508526       -13.8377
  49   2.0000      -0.503976       -13.7139
  50   2.0000      -0.491686       -13.3795
  51   2.0000      -0.480882       -13.0855
  52   2.0000      -0.473947       -12.8968
  53   2.0000      -0.467653       -12.7255
  54   2.0000      -0.458848       -12.4859
  55   2.0000      -0.453414       -12.3380
  56   2.0000      -0.437906       -11.9160
  57   2.0000      -0.433915       -11.8074
  58   2.0000      -0.432830       -11.7779
  59   2.0000      -0.428148       -11.6505
  60   2.0000      -0.421019       -11.4565
  61   2.0000      -0.414762       -11.2863
  62   2.0000      -0.412647       -11.2287
  63   2.0000      -0.347123        -9.4457
  64   2.0000      -0.331823        -9.0294
  65   2.0000      -0.330916        -9.0047
  66   2.0000      -0.289322        -7.8729
  67   0.0000       0.027511         0.7486
  68   0.0000       0.067029         1.8239
  69   0.0000       0.104989         2.8569
  70   0.0000       0.122450         3.3320
  71   0.0000       0.129830         3.5328

MULLIKEN ATOMIC CHARGES
-----------------------
   0 S :    0.109279
   1 C :   -0.107752
   2 C :   -0.096901
   3 C :    0.060883
   4 C :   -0.153525
   5 H :   -0.025378
   6 C :    0.058430
   7 H :    0.039897
   8 H :    0.040495
   9 C :   -0.131298
  10 H :    0.035894
  11 H :    0.037377
  12 C :    0.049150
  13 H :   -0.010253
  14 H :    0.016536
  15 H :    0.023469
  16 S :    0.085036
  17 C :   -0.088167
  18 C :   -0.053178
  19 C :   -0.017980
  20 C :   -0.160137
  21 H :    0.030608
  22 C :    0.088437
  23 H :    0.029800
  24 H :    0.025996
  25 C :   -0.119762
  26 H :    0.036291
  27 H :    0.035654
  28 C :   -0.009844
  29 H :    0.033387
  30 H :    0.015867
  31 H :    0.032095
  32 H :    0.035604
  33 H :    0.053988
Sum of atomic charges:   -0.0000000

LOEWDIN ATOMIC CHARGES
----------------------
   0 S :    0.417613
   1 C :   -0.195922
   2 C :   -0.058500
   3 C :   -0.061362
   4 C :   -0.192069
   5 H :    0.021466
   6 C :   -0.031231
   7 H :    0.037676
   8 H :    0.031113
   9 C :   -0.044487
  10 H :    0.032973
  11 H :    0.020367
  12 C :   -0.057085
  13 H :    0.013173
  14 H :    0.023000
  15 H :    0.025180
  16 S :    0.358344
  17 C :   -0.168455
  18 C :   -0.074776
  19 C :   -0.056992
  20 C :   -0.181388
  21 H :    0.035199
  22 C :   -0.023458
  23 H :    0.033083
  24 H :    0.024968
  25 C :   -0.040218
  26 H :    0.027638
  27 H :    0.021899
  28 C :   -0.057825
  29 H :    0.024207
  30 H :    0.020188
  31 H :    0.025476
  32 H :    0.022403
  33 H :    0.027800

  Mayer bond orders larger than 0.100000
B(  0-S ,  1-C ) :   1.1325 B(  0-S ,  4-C ) :   1.1602 B(  1-C ,  2-C ) :   1.6211
B(  1-C , 32-H ) :   0.9802 B(  2-C ,  3-C ) :   1.2166 B(  2-C ,  6-C ) :   1.0071
B(  3-C ,  4-C ) :   1.5627 B(  3-C ,  5-H ) :   1.0096 B(  4-C , 20-C ) :   1.0640
B(  6-C ,  7-H ) :   0.9450 B(  6-C ,  8-H ) :   0.9306 B(  6-C ,  9-C ) :   1.0912
B(  9-C , 10-H ) :   0.9600 B(  9-C , 11-H ) :   0.9448 B(  9-C , 12-C ) :   1.0860
B( 12-C , 13-H ) :   0.9640 B( 12-C , 14-H ) :   0.9659 B( 12-C , 15-H ) :   0.9695
B( 16-S , 17-C ) :   1.1222 B( 16-S , 20-C ) :   1.1125 B( 17-C , 18-C ) :   1.6507
B( 17-C , 20-C ) :   0.1013 B( 17-C , 33-H ) :   0.9705 B( 18-C , 19-C ) :   1.2032
B( 18-C , 21-H ) :   0.9793 B( 19-C , 20-C ) :   1.6298 B( 19-C , 22-C ) :   1.0280
B( 22-C , 23-H ) :   0.9380 B( 22-C , 24-H ) :   0.9333 B( 22-C , 25-C ) :   1.0798
B( 25-C , 26-H ) :   0.9599 B( 25-C , 27-H ) :   0.9547 B( 25-C , 28-C ) :   1.0619
B( 28-C , 29-H ) :   0.9724 B( 28-C , 30-H ) :   0.9807 B( 28-C , 31-H ) :   0.9740

Dispersion correction           -0.014630041
FINAL SINGLE POINT ENERGY     -1339.871317003377

DIPOLE MOMENT
-------------
                                X             Y             Z
Electronic contribution:    -27.09171     -10.17154      -9.50043
Nuclear contribution   :     27.77479      10.08689       9.83277
                        -----------------------------------------
Total Dipole Moment    :      0.68308      -0.08465       0.33234
                        -----------------------------------------
Magnitude (a.u.)       :      0.76434
Magnitude (Debye)      :      1.94280

Rotational constants in cm-1:     0.018511     0.009303     0.006767
Rotational constants in MHz :   554.953450   278.903035   202.855761

                             ****ORCA TERMINATED NORMALLY****
TOTAL RUN TIME: 0 days 0 hours 0 minutes 35 seconds 125 msec
