                         Program Version 4.2.1 -  RELEASE  -
|  1> ! wB97X-D3 SP def2-SVP
|  2> %pal
|  3> nprocs 16
|  4> end
|  5>
|  6> * xyz 0 1
|  7> S 	 18.549 	 -11.0276 	 82.7754
|  8> C 	 17.4943 	 -9.65314 	 82.8838
|  9> C 	 16.2586 	 -9.8069 	 82.3765
| 10> C 	 16.0949 	 -11.1696 	 81.8618
| 11> C 	 17.282 	 -11.8745 	 81.819
| 12> H 	 15.0993 	 -11.5219 	 81.4157
| 13> C 	 15.1174 	 -8.83796 	 82.5331
| 14> H 	 14.9779 	 -8.56483 	 83.5969
| 15> H 	 14.2001 	 -9.41127 	 82.269
| 16> C 	 15.0544 	 -7.61941 	 81.639
| 17> H 	 15.9829 	 -7.19145 	 81.9153
| 18> H 	 15.0126 	 -7.95551 	 80.6359
| 19> C 	 13.8966 	 -6.69933 	 81.8667
| 20> H 	 12.8612 	 -7.01746 	 81.5078
| 21> H 	 13.8402 	 -6.66015 	 82.9571
| 22> H 	 14.0108 	 -5.67209 	 81.4451
| 23> S 	 17.7881 	 -14.586 	 82.2049
| 24> C 	 18.2437 	 -15.5434 	 80.7877
| 25> C 	 18.2608 	 -14.7248 	 79.6545
| 26> C 	 17.8454 	 -13.3795 	 79.8536
| 27> C 	 17.5081 	 -13.1447 	 81.175
| 28> H 	 18.704 	 -15.1758 	 78.7811
| 29> C 	 18.0072 	 -12.3996 	 78.7239
| 30> H 	 18.6045 	 -12.9453 	 77.9555
| 31> H 	 18.6984 	 -11.5559 	 79.0115
| 32> C 	 16.7208 	 -11.7848 	 78.2157
| 33> H 	 17.0561 	 -10.8296 	 77.8055
| 34> H 	 16.0422 	 -11.4773 	 79.0908
| 35> C 	 16.0614 	 -12.5596 	 77.0473
| 36> H 	 16.8534 	 -12.7781 	 76.312
| 37> H 	 15.2782 	 -11.9243 	 76.5664
| 38> H 	 15.5689 	 -13.5128 	 77.3616
| 39> H 	 17.7239 	 -8.78622 	 83.4516
| 40> H 	 18.6631 	 -16.4585 	 80.8851
| 41> *
| 42>
| 43>                          ****END OF INPUT****

CARTESIAN COORDINATES (ANGSTROEM)
---------------------------------
  S     18.549000  -11.027600   82.775400
  C     17.494300   -9.653140   82.883800
  C     16.258600   -9.806900   82.376500
  C     16.094900  -11.169600   81.861800
  C     17.282000  -11.874500   81.819000
  H     15.099300  -11.521900   81.415700
  C     15.117400   -8.837960   82.533100
  H     14.977900   -8.564830   83.596900
  H     14.200100   -9.411270   82.269000
  C     15.054400   -7.619410   81.639000
  H     15.982900   -7.191450   81.915300
  H     15.012600   -7.955510   80.635900
  C     13.896600   -6.699330   81.866700
  H     12.861200   -7.017460   81.507800
  H     13.840200   -6.660150   82.957100
  H     14.010800   -5.672090   81.445100
  S     17.788100  -14.586000   82.204900
  C     18.243700  -15.543400   80.787700
  C     18.260800  -14.724800   79.654500
  C     17.845400  -13.379500   79.853600
  C     17.508100  -13.144700   81.175000
  H     18.704000  -15.175800   78.781100
  C     18.007200  -12.399600   78.723900
  H     18.604500  -12.945300   77.955500
  H     18.698400  -11.555900   79.011500
  C     16.720800  -11.784800   78.215700
  H     17.056100  -10.829600   77.805500
  H     16.042200  -11.477300   79.090800
  C     16.061400  -12.559600   77.047300
  H     16.853400  -12.778100   76.312000
  H     15.278200  -11.924300   76.566400
  H     15.568900  -13.512800   77.361600
  H     17.723900   -8.786220   83.451600
  H     18.663100  -16.458500   80.885100

 Total Charge           Charge          ....    0
 Multiplicity           Mult            ....    1
 Number of Electrons    NEL             ....  134
 Basis Dimension        Dim             ....  322

ORBITAL ENERGIES
----------------

  NO   OCC          E(Eh)            E(eV)
   0   2.0000     -88.967750     -2420.9356
   1   2.0000     -88.963886     -2420.8304
   2   2.0000     -10.331062      -281.1225
   3   2.0000     -10.325337      -280.9667
   4   2.0000     -10.313347      -280.6404
   5   2.0000     -10.308466      -280.5076
   6   2.0000     -10.305585      -280.4292
   7   2.0000     -10.303008      -280.3591
   8   2.0000     -10.298830      -280.2454
   9   2.0000     -10.294256      -280.1210
  10   2.0000     -10.293441      -280.0988
  11   2.0000     -10.293023      -280.0874
  12   2.0000     -10.288464      -279.9633
  13   2.0000     -10.286080      -279.8985
  14   2.0000     -10.284110      -279.8449
  15   2.0000     -10.278421      -279.6900
  16   2.0000      -8.082085      -219.9247
  17   2.0000      -8.077789      -219.8078
  18   2.0000      -6.040657      -164.3746
  19   2.0000      -6.036837      -164.2707
  20   2.0000      -6.036308      -164.2563
  21   2.0000      -6.032612      -164.1557
  22   2.0000      -6.032405      -164.1501
  23   2.0000      -6.028612      -164.0469
  24   2.0000      -1.002266       -27.2731
  25   2.0000      -0.980576       -26.6828
  26   2.0000      -0.919962       -25.0334
  27   2.0000      -0.906955       -24.6795
  28   2.0000      -0.872226       -23.7345
  29   2.0000      -0.849468       -23.1152
  30   2.0000      -0.845421       -23.0051
  31   2.0000      -0.812287       -22.1034
  32   2.0000      -0.780762       -21.2456
  33   2.0000      -0.772362       -21.0170
  34   2.0000      -0.711147       -19.3513
  35   2.0000      -0.700537       -19.0626
  36   2.0000      -0.688013       -18.7218
  37   2.0000      -0.664817       -18.0906
  38   2.0000      -0.639498       -17.4016
  39   2.0000      -0.615331       -16.7440
  40   2.0000      -0.592229       -16.1154
  41   2.0000      -0.577155       -15.7052
  42   2.0000      -0.566351       -15.4112
  43   2.0000      -0.545776       -14.8513
  44   2.0000      -0.544572       -14.8185
  45   2.0000      -0.524585       -14.2747
  46   2.0000      -0.519304       -14.1310
  47   2.0000      -0.508619       -13.8402
  48   2.0000      -0.499943       -13.6041
  49   2.0000      -0.498470       -13.5641
  50   2.0000      -0.486137       -13.2284
  51   2.0000      -0.478250       -13.0139
  52   2.0000      -0.476240       -12.9592
  53   2.0000      -0.463309       -12.6073
  54   2.0000      -0.455773       -12.4022
  55   2.0000      -0.453987       -12.3536
  56   2.0000      -0.437970       -11.9178
  57   2.0000      -0.435319       -11.8456
  58   2.0000      -0.434734       -11.8297
  59   2.0000      -0.424942       -11.5633
  60   2.0000      -0.419607       -11.4181
  61   2.0000      -0.409424       -11.1410
  62   2.0000      -0.406792       -11.0694
  63   2.0000      -0.335367        -9.1258
  64   2.0000      -0.330127        -8.9832
  65   2.0000      -0.325341        -8.8530
  66   2.0000      -0.305984        -8.3262
  67   0.0000       0.031696         0.8625
  68   0.0000       0.054246         1.4761
  69   0.0000       0.108933         2.9642
  70   0.0000       0.112634         3.0649
  71   0.0000       0.124897         3.3986

MULLIKEN ATOMIC CHARGES
-----------------------
   0 S :    0.120573
   1 C :   -0.101097
   2 C :   -0.088692
   3 C :    0.027429
   4 C :   -0.171787
   5 H :    0.052948
   6 C :    0.007612
   7 H :    0.037947
   8 H :    0.009874
   9 C :   -0.006809
  10 H :    0.013830
  11 H :    0.022195
  12 C :   -0.066845
  13 H :    0.040172
  14 H :    0.019113
  15 H :    0.047558
  16 S :    0.092320
  17 C :   -0.061439
  18 C :   -0.051064
  19 C :    0.015451
  20 C :   -0.192033
  21 H :    0.020161
  22 C :    0.046732
  23 H :    0.019349
  24 H :    0.045991
  25 C :   -0.078356
  26 H :    0.019821
  27 H :    0.044887
  28 C :   -0.059378
  29 H :    0.030846
  30 H :    0.041852
  31 H :    0.045524
  32 H :    0.030996
  33 H :    0.024321
Sum of atomic charges:   -0.0000000

LOEWDIN ATOMIC CHARGES
----------------------
   0 S :    0.389090
   1 C :   -0.186523
   2 C :   -0.072429
   3 C :   -0.053660
   4 C :   -0.186566
   5 H :    0.044672
   6 C :   -0.037058
   7 H :    0.031489
   8 H :    0.028261
   9 C :   -0.039032
  10 H :    0.020423
  11 H :    0.021558
  12 C :   -0.072452
  13 H :    0.031933
  14 H :    0.023281
  15 H :    0.033430
  16 S :    0.381632
  17 C :   -0.160280
  18 C :   -0.069788
  19 C :   -0.048959
  20 C :   -0.195336
  21 H :    0.030078
  22 C :   -0.036334
  23 H :    0.032345
  24 H :    0.042000
  25 C :   -0.050632
  26 H :    0.024020
  27 H :    0.033856
  28 C :   -0.070667
  29 H :    0.026033
  30 H :    0.029761
  31 H :    0.028738
  32 H :    0.020707
  33 H :    0.006410

  Mayer bond orders larger than 0.100000
B(  0-S ,  1-C ) :   1.1305 B(  0-S ,  4-C ) :   1.1166 B(  1-C ,  2-C ) :   1.6645
B(  1-C , 32-H ) :   0.9615 B(  2-C ,  3-C ) :   1.2217 B(  2-C ,  6-C ) :   1.0211
B(  3-C ,  4-C ) :   1.6230 B(  3-C ,  5-H ) :   0.9664 B(  4-C , 20-C ) :   1.0471
B(  6-C ,  7-H ) :   0.9389 B(  6-C ,  8-H ) :   0.9390 B(  6-C ,  9-C ) :   1.0622
B(  9-C , 10-H ) :   0.9545 B(  9-C , 11-H ) :   0.9512 B(  9-C , 12-C ) :   1.0851
B( 12-C , 13-H ) :   0.9732 B( 12-C , 14-H ) :   0.9717 B( 12-C , 15-H ) :   0.9722
B( 16-S , 17-C ) :   1.1556 B( 16-S , 20-C ) :   1.1390 B( 17-C , 18-C ) :   1.6076
B( 17-C , 20-C ) :   0.1031 B( 17-C , 33-H ) :   0.9791 B( 18-C , 19-C ) :   1.2444
B( 18-C , 21-H ) :   0.9872 B( 19-C , 20-C ) :   1.5891 B( 19-C , 22-C ) :   1.0372
B( 22-C , 23-H ) :   0.9378 B( 22-C , 24-H ) :   0.9310 B( 22-C , 25-C ) :   1.0668
B( 25-C , 26-H ) :   0.9518 B( 25-C , 27-H ) :   0.9509 B( 25-C , 28-C ) :   1.0700
B( 28-C , 29-H ) :   0.9727 B( 28-C , 30-H ) :   0.9756 B( 28-C , 31-H ) :   0.9777

Dispersion correction           -0.014263128
FINAL SINGLE POINT ENERGY     -1339.865026227443

DIPOLE MOMENT
-------------
                                X             Y             Z
Electronic contribution:     16.27757     -19.16841      16.35053
Nuclear contribution   :    -16.39242      19.53785     -16.71996
                        -----------------------------------------
Total Dipole Moment    :     -0.11485       0.36944      -0.36943
                        -----------------------------------------
Magnitude (a.u.)       :      0.53494
Magnitude (Debye)      :      1.35970

Rotational constants in cm-1:     0.019685     0.008276     0.006482
Rotational constants in MHz :   590.149059   248.104876   194.339761

                             ****ORCA TERMINATED NORMALLY****
TOTAL RUN TIME: 0 days 0 hours 0 minutes 29 seconds 180 msec
