                         Program Version 4.2.1 -  RELEASE  -
|  1> ! wB97X-D3 SP def2-SVP
|  2> %pal
|  3> nprocs 16
|  4> end
|  5>
|  6> * xyz 0 1
|  7> S 	 -4.70568 	 46.141 	 32.1287
|  8> C 	 -3.36719 	 45.1382 	 32.7998
|  9> C 	 -2.359 	 46.0231 	 33.1552
| 10> C 	 -2.66874 	 47.3756 	 32.9395
| 11> C 	 -3.97873 	 47.6558 	 32.5066
| 12> H 	 -2.0884 	 48.2304 	 33.0685
| 13> C 	 -0.939939 	 45.5145 	 33.4676
| 14> H 	 -0.159277 	 46.2697 	 33.1517
| 15> H 	 -0.790318 	 44.6978 	 32.7271
| 16> C 	 -0.747937 	 45.1183 	 34.9421
| 17> H 	 0.267041 	 45.0434 	 35.2198
| 18> H 	 -1.20279 	 45.8705 	 35.5879
| 19> C 	 -1.42509 	 43.8143 	 35.38
| 20> H 	 -2.52498 	 43.7556 	 35.2853
| 21> H 	 -1.18741 	 42.9191 	 34.7594
| 22> H 	 -1.35154 	 43.6273 	 36.3762
| 23> S 	 -4.73276 	 49.4373 	 30.4681
| 24> C 	 -5.32489 	 50.9977 	 30.9622
| 25> C 	 -5.40768 	 51.1557 	 32.323
| 26> C 	 -4.9202 	 50.0138 	 33.0441
| 27> C 	 -4.47051 	 49.0054 	 32.1779
| 28> H 	 -5.84524 	 51.9926 	 32.7495
| 29> C 	 -4.64158 	 50.209 	 34.4963
| 30> H 	 -5.2197 	 49.4737 	 34.9573
| 31> H 	 -5.11847 	 51.1041 	 35.0062
| 32> C 	 -3.1333 	 50.0475 	 34.9679
| 33> H 	 -2.94619 	 48.994 	 35.0591
| 34> H 	 -3.04654 	 50.495 	 35.9142
| 35> C 	 -2.17357 	 50.8317 	 34.0844
| 36> H 	 -2.43923 	 51.8934 	 34.0276
| 37> H 	 -2.10136 	 50.4929 	 33.0457
| 38> H 	 -1.2132 	 50.6398 	 34.5908
| 39> H 	 -3.4003 	 44.0456 	 32.9253
| 40> H 	 -5.74624 	 51.7039 	 30.3389
| 41> *
| 42>
| 43>                          ****END OF INPUT****

CARTESIAN COORDINATES (ANGSTROEM)
---------------------------------
  S     -4.705680   46.141000   32.128700
  C     -3.367190   45.138200   32.799800
  C     -2.359000   46.023100   33.155200
  C     -2.668740   47.375600   32.939500
  C     -3.978730   47.655800   32.506600
  H     -2.088400   48.230400   33.068500
  C     -0.939939   45.514500   33.467600
  H     -0.159277   46.269700   33.151700
  H     -0.790318   44.697800   32.727100
  C     -0.747937   45.118300   34.942100
  H      0.267041   45.043400   35.219800
  H     -1.202790   45.870500   35.587900
  C     -1.425090   43.814300   35.380000
  H     -2.524980   43.755600   35.285300
  H     -1.187410   42.919100   34.759400
  H     -1.351540   43.627300   36.376200
  S     -4.732760   49.437300   30.468100
  C     -5.324890   50.997700   30.962200
  C     -5.407680   51.155700   32.323000
  C     -4.920200   50.013800   33.044100
  C     -4.470510   49.005400   32.177900
  H     -5.845240   51.992600   32.749500
  C     -4.641580   50.209000   34.496300
  H     -5.219700   49.473700   34.957300
  H     -5.118470   51.104100   35.006200
  C     -3.133300   50.047500   34.967900
  H     -2.946190   48.994000   35.059100
  H     -3.046540   50.495000   35.914200
  C     -2.173570   50.831700   34.084400
  H     -2.439230   51.893400   34.027600
  H     -2.101360   50.492900   33.045700
  H     -1.213200   50.639800   34.590800
  H     -3.400300   44.045600   32.925300
  H     -5.746240   51.703900   30.338900

 Total Charge           Charge          ....    0
 Multiplicity           Mult            ....    1
 Number of Electrons    NEL             ....  134
 Basis Dimension        Dim             ....  322

ORBITAL ENERGIES
----------------

  NO   OCC          E(Eh)            E(eV)
   0   2.0000     -88.968848     -2420.9654
   1   2.0000     -88.965033     -2420.8616
   2   2.0000     -10.331880      -281.1447
   3   2.0000     -10.328900      -281.0636
   4   2.0000     -10.321563      -280.8640
   5   2.0000     -10.311217      -280.5825
   6   2.0000     -10.305331      -280.4223
   7   2.0000     -10.302164      -280.3361
   8   2.0000     -10.299847      -280.2731
   9   2.0000     -10.287827      -279.9460
  10   2.0000     -10.286847      -279.9193
  11   2.0000     -10.286408      -279.9074
  12   2.0000     -10.286268      -279.9036
  13   2.0000     -10.281943      -279.7859
  14   2.0000     -10.276650      -279.6419
  15   2.0000     -10.272781      -279.5366
  16   2.0000      -8.083104      -219.9525
  17   2.0000      -8.079157      -219.8450
  18   2.0000      -6.041629      -164.4011
  19   2.0000      -6.037706      -164.2943
  20   2.0000      -6.037654      -164.2929
  21   2.0000      -6.033855      -164.1896
  22   2.0000      -6.033512      -164.1802
  23   2.0000      -6.030176      -164.0894
  24   2.0000      -1.002831       -27.2884
  25   2.0000      -0.982395       -26.7323
  26   2.0000      -0.908685       -24.7266
  27   2.0000      -0.907330       -24.6897
  28   2.0000      -0.866876       -23.5889
  29   2.0000      -0.851644       -23.1744
  30   2.0000      -0.843647       -22.9568
  31   2.0000      -0.814716       -22.1695
  32   2.0000      -0.785182       -21.3659
  33   2.0000      -0.775950       -21.1147
  34   2.0000      -0.712574       -19.3901
  35   2.0000      -0.703013       -19.1300
  36   2.0000      -0.690090       -18.7783
  37   2.0000      -0.664528       -18.0827
  38   2.0000      -0.646274       -17.5860
  39   2.0000      -0.612291       -16.6613
  40   2.0000      -0.591398       -16.0928
  41   2.0000      -0.573372       -15.6022
  42   2.0000      -0.560344       -15.2477
  43   2.0000      -0.550154       -14.9705
  44   2.0000      -0.544512       -14.8169
  45   2.0000      -0.539097       -14.6696
  46   2.0000      -0.525290       -14.2939
  47   2.0000      -0.512925       -13.9574
  48   2.0000      -0.505636       -13.7591
  49   2.0000      -0.495462       -13.4822
  50   2.0000      -0.482957       -13.1419
  51   2.0000      -0.480416       -13.0728
  52   2.0000      -0.475948       -12.9512
  53   2.0000      -0.467588       -12.7237
  54   2.0000      -0.456791       -12.4299
  55   2.0000      -0.446222       -12.1423
  56   2.0000      -0.441710       -12.0195
  57   2.0000      -0.437762       -11.9121
  58   2.0000      -0.426813       -11.6142
  59   2.0000      -0.423441       -11.5224
  60   2.0000      -0.417110       -11.3501
  61   2.0000      -0.412921       -11.2362
  62   2.0000      -0.407353       -11.0846
  63   2.0000      -0.334829        -9.1112
  64   2.0000      -0.331264        -9.0142
  65   2.0000      -0.326135        -8.8746
  66   2.0000      -0.300251        -8.1702
  67   0.0000       0.032998         0.8979
  68   0.0000       0.053566         1.4576
  69   0.0000       0.112822         3.0700
  70   0.0000       0.116752         3.1770
  71   0.0000       0.129590         3.5263

MULLIKEN ATOMIC CHARGES
-----------------------
   0 S :    0.105492
   1 C :   -0.148635
   2 C :   -0.050170
   3 C :    0.056857
   4 C :   -0.155746
   5 H :   -0.031245
   6 C :    0.016523
   7 H :    0.038369
   8 H :    0.040245
   9 C :   -0.011729
  10 H :    0.026002
  11 H :    0.030302
  12 C :   -0.056536
  13 H :    0.015382
  14 H :    0.025067
  15 H :    0.013452
  16 S :    0.119633
  17 C :   -0.051768
  18 C :   -0.020018
  19 C :   -0.008042
  20 C :   -0.208137
  21 H :   -0.007144
  22 C :    0.064088
  23 H :    0.012054
  24 H :    0.026260
  25 C :   -0.052642
  26 H :    0.038098
  27 H :    0.015412
  28 C :   -0.061423
  29 H :    0.036482
  30 H :    0.050211
  31 H :    0.036892
  32 H :    0.069068
  33 H :    0.027345
Sum of atomic charges:    0.0000000

LOEWDIN ATOMIC CHARGES
----------------------
   0 S :    0.405575
   1 C :   -0.187359
   2 C :   -0.067464
   3 C :   -0.059629
   4 C :   -0.208846
   5 H :    0.019342
   6 C :   -0.032989
   7 H :    0.037560
   8 H :    0.033636
   9 C :   -0.034814
  10 H :    0.019976
  11 H :    0.030179
  12 C :   -0.070784
  13 H :    0.025726
  14 H :    0.025996
  15 H :    0.013263
  16 S :    0.402473
  17 C :   -0.171291
  18 C :   -0.060996
  19 C :   -0.042512
  20 C :   -0.198687
  21 H :    0.020390
  22 C :   -0.040447
  23 H :    0.026743
  24 H :    0.037152
  25 C :   -0.029408
  26 H :    0.021112
  27 H :    0.020447
  28 C :   -0.068564
  29 H :    0.029419
  30 H :    0.022956
  31 H :    0.030661
  32 H :    0.036800
  33 H :    0.014383

  Mayer bond orders larger than 0.100000
B(  0-S ,  1-C ) :   1.1488 B(  0-S ,  4-C ) :   1.1747 B(  1-C ,  2-C ) :   1.5596
B(  1-C ,  4-C ) :   0.1113 B(  1-C , 32-H ) :   0.9681 B(  2-C ,  3-C ) :   1.2799
B(  2-C ,  6-C ) :   0.9977 B(  3-C ,  4-C ) :   1.5327 B(  3-C ,  5-H ) :   0.9982
B(  4-C , 20-C ) :   1.0341 B(  6-C ,  7-H ) :   0.9507 B(  6-C ,  8-H ) :   0.9561
B(  6-C ,  9-C ) :   1.0576 B(  9-C , 10-H ) :   0.9579 B(  9-C , 11-H ) :   0.9529
B(  9-C , 12-C ) :   1.0801 B( 12-C , 13-H ) :   0.9670 B( 12-C , 14-H ) :   0.9750
B( 12-C , 15-H ) :   0.9718 B( 16-S , 17-C ) :   1.1536 B( 16-S , 20-C ) :   1.1330
B( 17-C , 18-C ) :   1.6225 B( 17-C , 33-H ) :   0.9704 B( 18-C , 19-C ) :   1.2353
B( 18-C , 21-H ) :   0.9993 B( 19-C , 20-C ) :   1.5965 B( 19-C , 22-C ) :   1.0415
B( 22-C , 23-H ) :   0.9118 B( 22-C , 24-H ) :   0.9466 B( 22-C , 25-C ) :   1.0676
B( 25-C , 26-H ) :   0.9525 B( 25-C , 27-H ) :   0.9509 B( 25-C , 28-C ) :   1.0786
B( 28-C , 29-H ) :   0.9722 B( 28-C , 30-H ) :   0.9645 B( 28-C , 31-H ) :   0.9746

Dispersion correction           -0.015932854
FINAL SINGLE POINT ENERGY     -1339.850114850090

DIPOLE MOMENT
-------------
                                X             Y             Z
Electronic contribution:    -16.94330       2.39873     -20.77387
Nuclear contribution   :     17.24436      -2.20090      21.29272
                        -----------------------------------------
Total Dipole Moment    :      0.30106       0.19783       0.51885
                        -----------------------------------------
Magnitude (a.u.)       :      0.63165
Magnitude (Debye)      :      1.60553

Rotational constants in cm-1:     0.022835     0.008690     0.007088
Rotational constants in MHz :   684.576251   260.512110   212.507323

                             ****ORCA TERMINATED NORMALLY****
TOTAL RUN TIME: 0 days 0 hours 0 minutes 35 seconds 936 msec
