                         Program Version 4.2.1 -  RELEASE  -
|  1> ! wB97X-D3 SP def2-SVP
|  2> %pal
|  3> nprocs 16
|  4> end
|  5>
|  6> * xyz 0 1
|  7> S 	 -107.194 	 52.903 	 114.255
|  8> C 	 -108.691 	 53.9062 	 114.177
|  9> C 	 -108.386 	 55.2685 	 114.231
| 10> C 	 -107.006 	 55.4247 	 114.401
| 11> C 	 -106.225 	 54.3204 	 114.553
| 12> H 	 -106.492 	 56.3487 	 114.461
| 13> C 	 -109.358 	 56.3512 	 114.196
| 14> H 	 -108.862 	 57.3388 	 114.401
| 15> H 	 -110.112 	 56.1767 	 114.902
| 16> C 	 -110.051 	 56.6499 	 112.814
| 17> H 	 -110.626 	 55.6978 	 112.595
| 18> H 	 -110.681 	 57.5002 	 112.926
| 19> C 	 -109.047 	 57.1723 	 111.751
| 20> H 	 -109.633 	 57.3571 	 110.868
| 21> H 	 -108.536 	 58.1443 	 112.129
| 22> H 	 -108.235 	 56.4875 	 111.472
| 23> S 	 -104.52 	 54.0577 	 116.628
| 24> C 	 -102.716 	 54.0177 	 116.5
| 25> C 	 -102.453 	 54.2773 	 115.14
| 26> C 	 -103.59 	 54.394 	 114.268
| 27> C 	 -104.795 	 54.2219 	 114.949
| 28> H 	 -101.427 	 54.3376 	 114.73
| 29> C 	 -103.535 	 54.6382 	 112.828
| 30> H 	 -102.988 	 55.6278 	 112.552
| 31> H 	 -104.567 	 54.678 	 112.485
| 32> C 	 -102.949 	 53.5786 	 112.02
| 33> H 	 -101.916 	 53.5267 	 112.169
| 34> H 	 -103.055 	 53.9438 	 110.994
| 35> C 	 -103.687 	 52.2206 	 112.139
| 36> H 	 -104.73 	 52.4066 	 112.25
| 37> H 	 -103.469 	 51.7194 	 113.071
| 38> H 	 -103.677 	 51.5215 	 111.309
| 39> H 	 -109.698 	 53.5395 	 113.958
| 40> H 	 -102.058 	 53.9164 	 117.35
| 41> *
| 42>
| 43>                          ****END OF INPUT****

CARTESIAN COORDINATES (ANGSTROEM)
---------------------------------
  S    -107.194000   52.903000  114.255000
  C    -108.691000   53.906200  114.177000
  C    -108.386000   55.268500  114.231000
  C    -107.006000   55.424700  114.401000
  C    -106.225000   54.320400  114.553000
  H    -106.492000   56.348700  114.461000
  C    -109.358000   56.351200  114.196000
  H    -108.862000   57.338800  114.401000
  H    -110.112000   56.176700  114.902000
  C    -110.051000   56.649900  112.814000
  H    -110.626000   55.697800  112.595000
  H    -110.681000   57.500200  112.926000
  C    -109.047000   57.172300  111.751000
  H    -109.633000   57.357100  110.868000
  H    -108.536000   58.144300  112.129000
  H    -108.235000   56.487500  111.472000
  S    -104.520000   54.057700  116.628000
  C    -102.716000   54.017700  116.500000
  C    -102.453000   54.277300  115.140000
  C    -103.590000   54.394000  114.268000
  C    -104.795000   54.221900  114.949000
  H    -101.427000   54.337600  114.730000
  C    -103.535000   54.638200  112.828000
  H    -102.988000   55.627800  112.552000
  H    -104.567000   54.678000  112.485000
  C    -102.949000   53.578600  112.020000
  H    -101.916000   53.526700  112.169000
  H    -103.055000   53.943800  110.994000
  C    -103.687000   52.220600  112.139000
  H    -104.730000   52.406600  112.250000
  H    -103.469000   51.719400  113.071000
  H    -103.677000   51.521500  111.309000
  H    -109.698000   53.539500  113.958000
  H    -102.058000   53.916400  117.350000

 Total Charge           Charge          ....    0
 Multiplicity           Mult            ....    1
 Number of Electrons    NEL             ....  134
 Basis Dimension        Dim             ....  322

ORBITAL ENERGIES
----------------

  NO   OCC          E(Eh)            E(eV)
   0   2.0000     -88.968507     -2420.9562
   1   2.0000     -88.961941     -2420.7775
   2   2.0000     -10.329319      -281.0751
   3   2.0000     -10.328439      -281.0511
   4   2.0000     -10.327422      -281.0234
   5   2.0000     -10.321336      -280.8578
   6   2.0000     -10.303008      -280.3591
   7   2.0000     -10.300209      -280.2829
   8   2.0000     -10.299850      -280.2732
   9   2.0000     -10.295048      -280.1425
  10   2.0000     -10.289837      -280.0007
  11   2.0000     -10.287998      -279.9506
  12   2.0000     -10.286977      -279.9229
  13   2.0000     -10.285912      -279.8939
  14   2.0000     -10.274861      -279.5932
  15   2.0000     -10.266946      -279.3778
  16   2.0000      -8.082129      -219.9259
  17   2.0000      -8.076636      -219.7764
  18   2.0000      -6.040673      -164.3751
  19   2.0000      -6.036758      -164.2685
  20   2.0000      -6.035163      -164.2251
  21   2.0000      -6.032935      -164.1645
  22   2.0000      -6.030936      -164.1101
  23   2.0000      -6.027547      -164.0179
  24   2.0000      -1.007069       -27.4037
  25   2.0000      -0.984361       -26.7858
  26   2.0000      -0.921742       -25.0819
  27   2.0000      -0.914489       -24.8845
  28   2.0000      -0.865595       -23.5541
  29   2.0000      -0.847097       -23.0507
  30   2.0000      -0.841110       -22.8878
  31   2.0000      -0.816350       -22.2140
  32   2.0000      -0.783845       -21.3295
  33   2.0000      -0.774905       -21.0862
  34   2.0000      -0.705885       -19.2081
  35   2.0000      -0.702921       -19.1275
  36   2.0000      -0.697854       -18.9896
  37   2.0000      -0.657751       -17.8983
  38   2.0000      -0.641704       -17.4616
  39   2.0000      -0.615881       -16.7590
  40   2.0000      -0.601639       -16.3714
  41   2.0000      -0.579726       -15.7751
  42   2.0000      -0.557341       -15.1660
  43   2.0000      -0.554710       -15.0944
  44   2.0000      -0.547834       -14.9073
  45   2.0000      -0.539589       -14.6830
  46   2.0000      -0.521934       -14.2026
  47   2.0000      -0.505829       -13.7643
  48   2.0000      -0.503503       -13.7010
  49   2.0000      -0.499308       -13.5869
  50   2.0000      -0.489214       -13.3122
  51   2.0000      -0.473652       -12.8887
  52   2.0000      -0.468809       -12.7569
  53   2.0000      -0.466436       -12.6924
  54   2.0000      -0.458482       -12.4759
  55   2.0000      -0.441915       -12.0251
  56   2.0000      -0.438830       -11.9412
  57   2.0000      -0.433801       -11.8043
  58   2.0000      -0.431281       -11.7358
  59   2.0000      -0.427950       -11.6451
  60   2.0000      -0.420466       -11.4415
  61   2.0000      -0.416360       -11.3297
  62   2.0000      -0.407711       -11.0944
  63   2.0000      -0.337807        -9.1922
  64   2.0000      -0.328784        -8.9467
  65   2.0000      -0.318211        -8.6590
  66   2.0000      -0.312036        -8.4909
  67   0.0000       0.038726         1.0538
  68   0.0000       0.049420         1.3448
  69   0.0000       0.108855         2.9621
  70   0.0000       0.113870         3.0986
  71   0.0000       0.125522         3.4156

MULLIKEN ATOMIC CHARGES
-----------------------
   0 S :    0.116464
   1 C :   -0.135963
   2 C :   -0.048564
   3 C :    0.070244
   4 C :   -0.195060
   5 H :   -0.011385
   6 C :    0.060574
   7 H :    0.020096
   8 H :    0.029525
   9 C :   -0.080466
  10 H :    0.040229
  11 H :    0.031599
  12 C :   -0.086351
  13 H :    0.039239
  14 H :    0.040430
  15 H :    0.048018
  16 S :    0.101973
  17 C :   -0.104725
  18 C :   -0.030800
  19 C :   -0.015249
  20 C :   -0.173003
  21 H :    0.029568
  22 C :    0.031287
  23 H :    0.046968
  24 H :    0.022010
  25 C :   -0.037319
  26 H :    0.011613
  27 H :    0.022318
  28 C :   -0.028753
  29 H :   -0.007594
  30 H :    0.036926
  31 H :    0.035722
  32 H :    0.051156
  33 H :    0.069277
Sum of atomic charges:   -0.0000000

LOEWDIN ATOMIC CHARGES
----------------------
   0 S :    0.398135
   1 C :   -0.178800
   2 C :   -0.065851
   3 C :   -0.055440
   4 C :   -0.204931
   5 H :    0.026115
   6 C :   -0.034085
   7 H :    0.034228
   8 H :    0.027964
   9 C :   -0.034992
  10 H :    0.026840
  11 H :    0.022046
  12 C :   -0.071739
  13 H :    0.025004
  14 H :    0.034978
  15 H :    0.025270
  16 S :    0.411084
  17 C :   -0.171890
  18 C :   -0.069508
  19 C :   -0.064963
  20 C :   -0.213486
  21 H :    0.033827
  22 C :   -0.042254
  23 H :    0.044292
  24 H :    0.031412
  25 C :   -0.037619
  26 H :    0.010860
  27 H :    0.028487
  28 C :   -0.066925
  29 H :    0.015568
  30 H :    0.027729
  31 H :    0.027357
  32 H :    0.028660
  33 H :    0.032627

  Mayer bond orders larger than 0.100000
B(  0-S ,  1-C ) :   1.1462 B(  0-S ,  4-C ) :   1.1516 B(  1-C ,  2-C ) :   1.5764
B(  1-C ,  4-C ) :   0.1064 B(  1-C , 32-H ) :   0.9673 B(  2-C ,  3-C ) :   1.2471
B(  2-C ,  6-C ) :   1.0299 B(  3-C ,  4-C ) :   1.5946 B(  3-C ,  5-H ) :   1.0033
B(  4-C , 20-C ) :   0.9760 B(  6-C ,  7-H ) :   0.9404 B(  6-C ,  8-H ) :   0.9357
B(  6-C ,  9-C ) :   1.0749 B(  9-C , 10-H ) :   0.9574 B(  9-C , 11-H ) :   0.9575
B(  9-C , 12-C ) :   1.0643 B( 12-C , 13-H ) :   0.9757 B( 12-C , 14-H ) :   0.9713
B( 12-C , 15-H ) :   0.9779 B( 16-S , 17-C ) :   1.1519 B( 16-S , 20-C ) :   1.1788
B( 17-C , 18-C ) :   1.5631 B( 17-C , 20-C ) :   0.1081 B( 17-C , 33-H ) :   0.9782
B( 18-C , 19-C ) :   1.2550 B( 18-C , 21-H ) :   0.9817 B( 19-C , 20-C ) :   1.5673
B( 19-C , 22-C ) :   1.0667 B( 22-C , 23-H ) :   0.9273 B( 22-C , 24-H ) :   0.9241
B( 22-C , 25-C ) :   1.0935 B( 25-C , 26-H ) :   0.9548 B( 25-C , 27-H ) :   0.9509
B( 25-C , 28-C ) :   1.0599 B( 28-C , 29-H ) :   0.9675 B( 28-C , 30-H ) :   0.9705
B( 28-C , 31-H ) :   0.9767

Dispersion correction           -0.015325702
FINAL SINGLE POINT ENERGY     -1339.865017955937

DIPOLE MOMENT
-------------
                                X             Y             Z
Electronic contribution:      4.15692      -9.24695      19.43103
Nuclear contribution   :     -4.24830       9.74244     -19.78050
                        -----------------------------------------
Total Dipole Moment    :     -0.09138       0.49549      -0.34947
                        -----------------------------------------
Magnitude (a.u.)       :      0.61318
Magnitude (Debye)      :      1.55859

Rotational constants in cm-1:     0.021323     0.008264     0.007417
Rotational constants in MHz :   639.241554   247.747941   222.345722

                             ****ORCA TERMINATED NORMALLY****
TOTAL RUN TIME: 0 days 0 hours 0 minutes 34 seconds 311 msec
