                         Program Version 4.2.1 -  RELEASE  -
|  1> ! wB97X-D3 SP def2-SVP
|  2> %pal
|  3> nprocs 16
|  4> end
|  5>
|  6> * xyz 0 1
|  7> S 	 -5.81082 	 72.7793 	 57.1946
|  8> C 	 -6.60018 	 71.3596 	 57.7456
|  9> C 	 -7.56384 	 70.8844 	 56.8325
| 10> C 	 -7.37899 	 71.4662 	 55.5646
| 11> C 	 -6.57999 	 72.6126 	 55.6286
| 12> H 	 -7.96914 	 71.163 	 54.6945
| 13> C 	 -8.4641 	 69.6841 	 56.9758
| 14> H 	 -8.52882 	 69.4871 	 58.0928
| 15> H 	 -8.0789 	 68.8203 	 56.4709
| 16> C 	 -9.87976 	 69.9228 	 56.4101
| 17> H 	 -10.173 	 70.901 	 56.6574
| 18> H 	 -9.89499 	 69.711 	 55.3739
| 19> C 	 -11.0204 	 69.1117 	 57.1479
| 20> H 	 -12.0107 	 69.3536 	 56.7373
| 21> H 	 -10.9025 	 68.0121 	 56.9862
| 22> H 	 -10.8699 	 69.3015 	 58.2471
| 23> S 	 -7.09369 	 75.078 	 54.8174
| 24> C 	 -6.38089 	 75.6842 	 53.3726
| 25> C 	 -5.81599 	 74.7322 	 52.633
| 26> C 	 -5.6217 	 73.5368 	 53.4105
| 27> C 	 -6.30478 	 73.6069 	 54.6187
| 28> H 	 -5.32783 	 74.9344 	 51.7435
| 29> C 	 -5.09924 	 72.2396 	 52.7363
| 30> H 	 -5.953 	 71.7204 	 52.3827
| 31> H 	 -4.75281 	 71.4883 	 53.4659
| 32> C 	 -4.12812 	 72.3626 	 51.5855
| 33> H 	 -3.22384 	 72.8269 	 51.9827
| 34> H 	 -4.58938 	 73.096 	 50.9265
| 35> C 	 -3.92829 	 70.9907 	 50.8666
| 36> H 	 -3.86103 	 71.0184 	 49.7739
| 37> H 	 -4.76721 	 70.3835 	 51.0747
| 38> H 	 -3.13602 	 70.4781 	 51.3321
| 39> H 	 -6.49231 	 70.8968 	 58.7555
| 40> H 	 -6.38892 	 76.7597 	 53.1328
| 41> *
| 42>
| 43>                          ****END OF INPUT****

CARTESIAN COORDINATES (ANGSTROEM)
---------------------------------
  S     -5.810820   72.779300   57.194600
  C     -6.600180   71.359600   57.745600
  C     -7.563840   70.884400   56.832500
  C     -7.378990   71.466200   55.564600
  C     -6.579990   72.612600   55.628600
  H     -7.969140   71.163000   54.694500
  C     -8.464100   69.684100   56.975800
  H     -8.528820   69.487100   58.092800
  H     -8.078900   68.820300   56.470900
  C     -9.879760   69.922800   56.410100
  H    -10.173000   70.901000   56.657400
  H     -9.894990   69.711000   55.373900
  C    -11.020400   69.111700   57.147900
  H    -12.010700   69.353600   56.737300
  H    -10.902500   68.012100   56.986200
  H    -10.869900   69.301500   58.247100
  S     -7.093690   75.078000   54.817400
  C     -6.380890   75.684200   53.372600
  C     -5.815990   74.732200   52.633000
  C     -5.621700   73.536800   53.410500
  C     -6.304780   73.606900   54.618700
  H     -5.327830   74.934400   51.743500
  C     -5.099240   72.239600   52.736300
  H     -5.953000   71.720400   52.382700
  H     -4.752810   71.488300   53.465900
  C     -4.128120   72.362600   51.585500
  H     -3.223840   72.826900   51.982700
  H     -4.589380   73.096000   50.926500
  C     -3.928290   70.990700   50.866600
  H     -3.861030   71.018400   49.773900
  H     -4.767210   70.383500   51.074700
  H     -3.136020   70.478100   51.332100
  H     -6.492310   70.896800   58.755500
  H     -6.388920   76.759700   53.132800

 Total Charge           Charge          ....    0
 Multiplicity           Mult            ....    1
 Number of Electrons    NEL             ....  134
 Basis Dimension        Dim             ....  322

ORBITAL ENERGIES
----------------

  NO   OCC          E(Eh)            E(eV)
   0   2.0000     -88.968612     -2420.9590
   1   2.0000     -88.959425     -2420.7090
   2   2.0000     -10.325478      -280.9705
   3   2.0000     -10.315774      -280.7065
   4   2.0000     -10.314130      -280.6617
   5   2.0000     -10.308755      -280.5155
   6   2.0000     -10.301159      -280.3088
   7   2.0000     -10.297592      -280.2117
   8   2.0000     -10.293904      -280.1114
   9   2.0000     -10.293849      -280.1099
  10   2.0000     -10.288297      -279.9588
  11   2.0000     -10.284889      -279.8661
  12   2.0000     -10.284767      -279.8627
  13   2.0000     -10.282163      -279.7919
  14   2.0000     -10.281801      -279.7820
  15   2.0000     -10.274386      -279.5803
  16   2.0000      -8.083648      -219.9672
  17   2.0000      -8.076558      -219.7743
  18   2.0000      -6.041925      -164.4091
  19   2.0000      -6.038102      -164.3051
  20   2.0000      -6.034846      -164.2165
  21   2.0000      -6.034648      -164.2111
  22   2.0000      -6.030790      -164.1061
  23   2.0000      -6.027338      -164.0122
  24   2.0000      -1.015548       -27.6345
  25   2.0000      -0.990066       -26.9411
  26   2.0000      -0.911791       -24.8111
  27   2.0000      -0.909177       -24.7400
  28   2.0000      -0.872433       -23.7401
  29   2.0000      -0.849928       -23.1277
  30   2.0000      -0.847052       -23.0494
  31   2.0000      -0.812288       -22.1035
  32   2.0000      -0.781445       -21.2642
  33   2.0000      -0.768207       -20.9040
  34   2.0000      -0.711242       -19.3539
  35   2.0000      -0.702022       -19.1030
  36   2.0000      -0.686731       -18.6869
  37   2.0000      -0.656649       -17.8683
  38   2.0000      -0.636884       -17.3305
  39   2.0000      -0.623310       -16.9611
  40   2.0000      -0.603263       -16.4156
  41   2.0000      -0.582300       -15.8452
  42   2.0000      -0.565764       -15.3952
  43   2.0000      -0.560678       -15.2568
  44   2.0000      -0.523497       -14.2451
  45   2.0000      -0.519446       -14.1349
  46   2.0000      -0.515974       -14.0404
  47   2.0000      -0.506105       -13.7718
  48   2.0000      -0.504303       -13.7228
  49   2.0000      -0.498499       -13.5649
  50   2.0000      -0.490681       -13.3521
  51   2.0000      -0.475772       -12.9464
  52   2.0000      -0.468691       -12.7537
  53   2.0000      -0.462599       -12.5880
  54   2.0000      -0.462391       -12.5823
  55   2.0000      -0.454603       -12.3704
  56   2.0000      -0.450818       -12.2674
  57   2.0000      -0.435042       -11.8381
  58   2.0000      -0.432679       -11.7738
  59   2.0000      -0.429626       -11.6907
  60   2.0000      -0.421913       -11.4808
  61   2.0000      -0.416636       -11.3372
  62   2.0000      -0.414247       -11.2722
  63   2.0000      -0.342842        -9.3292
  64   2.0000      -0.331302        -9.0152
  65   2.0000      -0.318114        -8.6563
  66   2.0000      -0.298760        -8.1297
  67   0.0000       0.041799         1.1374
  68   0.0000       0.064742         1.7617
  69   0.0000       0.115745         3.1496
  70   0.0000       0.119739         3.2583
  71   0.0000       0.127605         3.4723

MULLIKEN ATOMIC CHARGES
-----------------------
   0 S :    0.141330
   1 C :   -0.130723
   2 C :   -0.107305
   3 C :    0.046868
   4 C :   -0.179328
   5 H :    0.021864
   6 C :    0.057166
   7 H :    0.020192
   8 H :    0.040036
   9 C :   -0.072959
  10 H :    0.028599
  11 H :    0.032163
  12 C :   -0.090169
  13 H :    0.045283
  14 H :    0.031052
  15 H :    0.045253
  16 S :    0.122802
  17 C :   -0.101278
  18 C :   -0.004103
  19 C :   -0.018622
  20 C :   -0.172125
  21 H :    0.001253
  22 C :    0.032704
  23 H :    0.017759
  24 H :    0.024713
  25 C :   -0.094604
  26 H :    0.036781
  27 H :    0.026411
  28 C :    0.002192
  29 H :    0.040432
  30 H :    0.006682
  31 H :    0.027588
  32 H :    0.059989
  33 H :    0.062104
Sum of atomic charges:   -0.0000000

LOEWDIN ATOMIC CHARGES
----------------------
   0 S :    0.433661
   1 C :   -0.218196
   2 C :   -0.071419
   3 C :   -0.054139
   4 C :   -0.202032
   5 H :    0.034959
   6 C :   -0.031843
   7 H :    0.032706
   8 H :    0.030731
   9 C :   -0.034878
  10 H :    0.020731
  11 H :    0.016959
  12 C :   -0.068739
  13 H :    0.027542
  14 H :    0.022749
  15 H :    0.030444
  16 S :    0.443622
  17 C :   -0.187372
  18 C :   -0.069804
  19 C :   -0.050260
  20 C :   -0.234209
  21 H :    0.019635
  22 C :   -0.037268
  23 H :    0.024357
  24 H :    0.030216
  25 C :   -0.040423
  26 H :    0.025356
  27 H :    0.019905
  28 C :   -0.055653
  29 H :    0.031073
  30 H :    0.020080
  31 H :    0.024044
  32 H :    0.034954
  33 H :    0.032509

  Mayer bond orders larger than 0.100000
B(  0-S ,  1-C ) :   1.1648 B(  0-S ,  4-C ) :   1.1699 B(  1-C ,  2-C ) :   1.5837
B(  1-C ,  4-C ) :   0.1116 B(  1-C , 32-H ) :   0.9586 B(  2-C ,  3-C ) :   1.2634
B(  2-C ,  6-C ) :   1.0390 B(  3-C ,  4-C ) :   1.5612 B(  3-C ,  5-H ) :   0.9885
B(  4-C , 20-C ) :   1.0072 B(  6-C ,  7-H ) :   0.9416 B(  6-C ,  8-H ) :   0.9408
B(  6-C ,  9-C ) :   1.0566 B(  9-C , 10-H ) :   0.9644 B(  9-C , 11-H ) :   0.9538
B(  9-C , 12-C ) :   1.0793 B( 12-C , 13-H ) :   0.9765 B( 12-C , 14-H ) :   0.9768
B( 12-C , 15-H ) :   0.9766 B( 16-S , 17-C ) :   1.1600 B( 16-S , 20-C ) :   1.1760
B( 17-C , 18-C ) :   1.6228 B( 17-C , 33-H ) :   0.9632 B( 18-C , 19-C ) :   1.2345
B( 18-C , 21-H ) :   0.9870 B( 19-C , 20-C ) :   1.5995 B( 19-C , 22-C ) :   1.0394
B( 22-C , 23-H ) :   0.9322 B( 22-C , 24-H ) :   0.9346 B( 22-C , 25-C ) :   1.0652
B( 25-C , 26-H ) :   0.9659 B( 25-C , 27-H ) :   0.9501 B( 25-C , 28-C ) :   1.0665
B( 28-C , 29-H ) :   0.9761 B( 28-C , 30-H ) :   0.9731 B( 28-C , 31-H ) :   0.9745

Dispersion correction           -0.013403521
FINAL SINGLE POINT ENERGY     -1339.860942838675

DIPOLE MOMENT
-------------
                                X             Y             Z
Electronic contribution:      5.64057      21.74654      11.02836
Nuclear contribution   :     -5.80335     -22.19993     -11.37656
                        -----------------------------------------
Total Dipole Moment    :     -0.16278      -0.45339      -0.34821
                        -----------------------------------------
Magnitude (a.u.)       :      0.59440
Magnitude (Debye)      :      1.51084

Rotational constants in cm-1:     0.017608     0.007661     0.006629
Rotational constants in MHz :   527.885780   229.674040   198.735236

                             ****ORCA TERMINATED NORMALLY****
TOTAL RUN TIME: 0 days 0 hours 0 minutes 33 seconds 140 msec
