                         Program Version 4.2.1 -  RELEASE  -
|  1> ! wB97X-D3 SP def2-SVP
|  2> %pal
|  3> nprocs 16
|  4> end
|  5>
|  6> * xyz 0 1
|  7> S 	 -45.8325 	 26.7604 	 86.3563
|  8> C 	 -47.2708 	 25.6838 	 86.3351
|  9> C 	 -47.0021 	 24.5562 	 85.5627
| 10> C 	 -45.6622 	 24.4527 	 85.1018
| 11> C 	 -44.914 	 25.5472 	 85.4814
| 12> H 	 -45.1091 	 23.6708 	 84.5546
| 13> C 	 -48.0518 	 23.5897 	 85.2521
| 14> H 	 -48.0758 	 23.5232 	 84.1115
| 15> H 	 -49.1095 	 23.9745 	 85.4648
| 16> C 	 -47.8207 	 22.182 	 85.8447
| 17> H 	 -48.3793 	 21.4495 	 85.2106
| 18> H 	 -46.7593 	 21.9599 	 85.6411
| 19> C 	 -48.3373 	 22.0079 	 87.2951
| 20> H 	 -48.5322 	 20.9465 	 87.7647
| 21> H 	 -47.5754 	 22.5213 	 87.9036
| 22> H 	 -49.2541 	 22.6811 	 87.4058
| 23> S 	 -43.3305 	 27.5399 	 84.2991
| 24> C 	 -41.6414 	 27.1454 	 84.028
| 25> C 	 -41.3405 	 25.859 	 84.411
| 26> C 	 -42.4128 	 25.1576 	 85.0769
| 27> C 	 -43.5405 	 25.9336 	 85.0752
| 28> H 	 -40.3659 	 25.5463 	 84.2152
| 29> C 	 -42.2555 	 23.7946 	 85.7018
| 30> H 	 -43.1645 	 23.5422 	 86.2025
| 31> H 	 -41.4035 	 23.8318 	 86.3896
| 32> C 	 -41.9289 	 22.7319 	 84.6748
| 33> H 	 -40.9854 	 23.054 	 84.2435
| 34> H 	 -42.6091 	 22.718 	 83.8289
| 35> C 	 -41.6897 	 21.3813 	 85.33
| 36> H 	 -41.1316 	 21.5512 	 86.3276
| 37> H 	 -41.0515 	 20.7063 	 84.7445
| 38> H 	 -42.6417 	 20.8817 	 85.6624
| 39> H 	 -48.1714 	 26.0552 	 86.7274
| 40> H 	 -40.843 	 27.7069 	 83.5599
| 41> *
| 42>
| 43>                          ****END OF INPUT****

CARTESIAN COORDINATES (ANGSTROEM)
---------------------------------
  S    -45.832500   26.760400   86.356300
  C    -47.270800   25.683800   86.335100
  C    -47.002100   24.556200   85.562700
  C    -45.662200   24.452700   85.101800
  C    -44.914000   25.547200   85.481400
  H    -45.109100   23.670800   84.554600
  C    -48.051800   23.589700   85.252100
  H    -48.075800   23.523200   84.111500
  H    -49.109500   23.974500   85.464800
  C    -47.820700   22.182000   85.844700
  H    -48.379300   21.449500   85.210600
  H    -46.759300   21.959900   85.641100
  C    -48.337300   22.007900   87.295100
  H    -48.532200   20.946500   87.764700
  H    -47.575400   22.521300   87.903600
  H    -49.254100   22.681100   87.405800
  S    -43.330500   27.539900   84.299100
  C    -41.641400   27.145400   84.028000
  C    -41.340500   25.859000   84.411000
  C    -42.412800   25.157600   85.076900
  C    -43.540500   25.933600   85.075200
  H    -40.365900   25.546300   84.215200
  C    -42.255500   23.794600   85.701800
  H    -43.164500   23.542200   86.202500
  H    -41.403500   23.831800   86.389600
  C    -41.928900   22.731900   84.674800
  H    -40.985400   23.054000   84.243500
  H    -42.609100   22.718000   83.828900
  C    -41.689700   21.381300   85.330000
  H    -41.131600   21.551200   86.327600
  H    -41.051500   20.706300   84.744500
  H    -42.641700   20.881700   85.662400
  H    -48.171400   26.055200   86.727400
  H    -40.843000   27.706900   83.559900

 Total Charge           Charge          ....    0
 Multiplicity           Mult            ....    1
 Number of Electrons    NEL             ....  134
 Basis Dimension        Dim             ....  322

ORBITAL ENERGIES
----------------

  NO   OCC          E(Eh)            E(eV)
   0   2.0000     -88.968494     -2420.9558
   1   2.0000     -88.962402     -2420.7900
   2   2.0000     -10.331908      -281.1455
   3   2.0000     -10.328365      -281.0491
   4   2.0000     -10.316737      -280.7327
   5   2.0000     -10.315116      -280.6886
   6   2.0000     -10.304913      -280.4109
   7   2.0000     -10.303025      -280.3596
   8   2.0000     -10.299774      -280.2711
   9   2.0000     -10.299604      -280.2665
  10   2.0000     -10.294265      -280.1212
  11   2.0000     -10.293370      -280.0968
  12   2.0000     -10.290933      -280.0305
  13   2.0000     -10.290606      -280.0216
  14   2.0000     -10.289597      -279.9942
  15   2.0000     -10.286499      -279.9099
  16   2.0000      -8.082259      -219.9295
  17   2.0000      -8.076826      -219.7816
  18   2.0000      -6.040928      -164.3820
  19   2.0000      -6.037076      -164.2772
  20   2.0000      -6.035210      -164.2264
  21   2.0000      -6.032710      -164.1584
  22   2.0000      -6.031443      -164.1239
  23   2.0000      -6.027674      -164.0214
  24   2.0000      -1.003946       -27.3188
  25   2.0000      -0.981541       -26.7091
  26   2.0000      -0.918636       -24.9973
  27   2.0000      -0.912109       -24.8197
  28   2.0000      -0.864883       -23.5347
  29   2.0000      -0.852437       -23.1960
  30   2.0000      -0.842512       -22.9259
  31   2.0000      -0.817161       -22.2361
  32   2.0000      -0.781086       -21.2544
  33   2.0000      -0.768291       -20.9063
  34   2.0000      -0.706764       -19.2320
  35   2.0000      -0.700224       -19.0541
  36   2.0000      -0.691927       -18.8283
  37   2.0000      -0.657870       -17.9015
  38   2.0000      -0.647237       -17.6122
  39   2.0000      -0.620865       -16.8946
  40   2.0000      -0.597484       -16.2584
  41   2.0000      -0.576094       -15.6763
  42   2.0000      -0.564927       -15.3725
  43   2.0000      -0.545878       -14.8541
  44   2.0000      -0.532275       -14.4839
  45   2.0000      -0.525870       -14.3097
  46   2.0000      -0.522464       -14.2170
  47   2.0000      -0.513141       -13.9633
  48   2.0000      -0.503066       -13.6891
  49   2.0000      -0.494466       -13.4551
  50   2.0000      -0.483415       -13.1544
  51   2.0000      -0.477374       -12.9900
  52   2.0000      -0.476186       -12.9577
  53   2.0000      -0.462830       -12.5943
  54   2.0000      -0.455072       -12.3831
  55   2.0000      -0.451776       -12.2935
  56   2.0000      -0.440027       -11.9737
  57   2.0000      -0.438746       -11.9389
  58   2.0000      -0.436770       -11.8851
  59   2.0000      -0.427327       -11.6281
  60   2.0000      -0.424842       -11.5605
  61   2.0000      -0.420968       -11.4551
  62   2.0000      -0.401537       -10.9264
  63   2.0000      -0.345861        -9.4114
  64   2.0000      -0.333200        -9.0668
  65   2.0000      -0.330451        -8.9920
  66   2.0000      -0.293830        -7.9955
  67   0.0000       0.029364         0.7990
  68   0.0000       0.069929         1.9029
  69   0.0000       0.104435         2.8418
  70   0.0000       0.118067         3.2128
  71   0.0000       0.121959         3.3187

MULLIKEN ATOMIC CHARGES
-----------------------
   0 S :    0.080842
   1 C :   -0.104547
   2 C :   -0.048006
   3 C :    0.034498
   4 C :   -0.177499
   5 H :    0.024983
   6 C :   -0.010026
   7 H :    0.047403
   8 H :    0.032765
   9 C :   -0.069770
  10 H :    0.029898
  11 H :    0.030144
  12 C :   -0.087165
  13 H :    0.068038
  14 H :    0.038628
  15 H :    0.034740
  16 S :    0.112319
  17 C :   -0.079931
  18 C :   -0.034780
  19 C :   -0.024000
  20 C :   -0.145484
  21 H :   -0.007579
  22 C :    0.100606
  23 H :    0.019935
  24 H :    0.032872
  25 C :   -0.089299
  26 H :    0.018038
  27 H :    0.031054
  28 C :   -0.061252
  29 H :    0.029713
  30 H :    0.044795
  31 H :    0.041917
  32 H :    0.034752
  33 H :    0.051398
Sum of atomic charges:    0.0000000

LOEWDIN ATOMIC CHARGES
----------------------
   0 S :    0.377564
   1 C :   -0.174438
   2 C :   -0.063415
   3 C :   -0.071297
   4 C :   -0.176019
   5 H :    0.040529
   6 C :   -0.043180
   7 H :    0.043413
   8 H :    0.034218
   9 C :   -0.047372
  10 H :    0.024830
  11 H :    0.023450
  12 C :   -0.085990
  13 H :    0.041900
  14 H :    0.027798
  15 H :    0.031365
  16 S :    0.381049
  17 C :   -0.182254
  18 C :   -0.064063
  19 C :   -0.052807
  20 C :   -0.186106
  21 H :    0.018619
  22 C :   -0.023023
  23 H :    0.024108
  24 H :    0.036266
  25 C :   -0.044471
  26 H :    0.022561
  27 H :    0.021359
  28 C :   -0.073480
  29 H :    0.033107
  30 H :    0.027003
  31 H :    0.029159
  32 H :    0.016061
  33 H :    0.033557

  Mayer bond orders larger than 0.100000
B(  0-S ,  1-C ) :   1.1156 B(  0-S ,  4-C ) :   1.1646 B(  1-C ,  2-C ) :   1.6010
B(  1-C , 32-H ) :   0.9847 B(  2-C ,  3-C ) :   1.2029 B(  2-C ,  6-C ) :   1.0387
B(  3-C ,  4-C ) :   1.5907 B(  3-C ,  5-H ) :   0.9855 B(  4-C , 20-C ) :   1.0101
B(  6-C ,  7-H ) :   0.9341 B(  6-C ,  8-H ) :   0.9460 B(  6-C ,  9-C ) :   1.0632
B(  9-C , 10-H ) :   0.9561 B(  9-C , 11-H ) :   0.9599 B(  9-C , 12-C ) :   1.0475
B( 12-C , 13-H ) :   0.9755 B( 12-C , 14-H ) :   0.9758 B( 12-C , 15-H ) :   0.9721
B( 16-S , 17-C ) :   1.1232 B( 16-S , 20-C ) :   1.1190 B( 17-C , 18-C ) :   1.6782
B( 17-C , 33-H ) :   0.9619 B( 18-C , 19-C ) :   1.1793 B( 18-C , 21-H ) :   0.9941
B( 19-C , 20-C ) :   1.6464 B( 19-C , 22-C ) :   1.0519 B( 22-C , 23-H ) :   0.9313
B( 22-C , 24-H ) :   0.9246 B( 22-C , 25-C ) :   1.0637 B( 25-C , 26-H ) :   0.9517
B( 25-C , 27-H ) :   0.9551 B( 25-C , 28-C ) :   1.0808 B( 28-C , 29-H ) :   0.9678
B( 28-C , 30-H ) :   0.9747 B( 28-C , 31-H ) :   0.9735

Dispersion correction           -0.014226446
FINAL SINGLE POINT ENERGY     -1339.876187988015

DIPOLE MOMENT
-------------
                                X             Y             Z
Electronic contribution:      2.72960      30.04813      -3.25600
Nuclear contribution   :     -2.56628     -30.65224       3.06318
                        -----------------------------------------
Total Dipole Moment    :      0.16331      -0.60411      -0.19282
                        -----------------------------------------
Magnitude (a.u.)       :      0.65483
Magnitude (Debye)      :      1.66444

Rotational constants in cm-1:     0.017315     0.009528     0.006596
Rotational constants in MHz :   519.087357   285.656938   197.746790

                             ****ORCA TERMINATED NORMALLY****
TOTAL RUN TIME: 0 days 0 hours 0 minutes 29 seconds 720 msec
