                         Program Version 4.2.1 -  RELEASE  -
|  1> ! wB97X-D3 SP def2-SVP
|  2> %pal
|  3> nprocs 16
|  4> end
|  5>
|  6> * xyz 0 1
|  7> S 	 43.98 	 12.8958 	 86.8155
|  8> C 	 45.0444 	 14.1144 	 87.5614
|  9> C 	 45.6925 	 14.8578 	 86.5955
| 10> C 	 45.4723 	 14.3497 	 85.2636
| 11> C 	 44.59 	 13.2384 	 85.2597
| 12> H 	 45.8608 	 14.7399 	 84.3894
| 13> C 	 46.5872 	 15.9989 	 86.933
| 14> H 	 47.5352 	 15.5904 	 87.2615
| 15> H 	 46.1309 	 16.4761 	 87.7775
| 16> C 	 46.6367 	 17.1064 	 85.7782
| 17> H 	 47.3928 	 17.844 	 86.165
| 18> H 	 46.829 	 16.7215 	 84.787
| 19> C 	 45.1329 	 17.698 	 85.6372
| 20> H 	 44.6639 	 18.0541 	 86.5453
| 21> H 	 45.1883 	 18.6715 	 85.1641
| 22> H 	 44.3986 	 17.1563 	 85.1189
| 23> S 	 43.8185 	 10.7719 	 84.2424
| 24> C 	 43.3451 	 10.6683 	 82.5365
| 25> C 	 43.3276 	 11.8916 	 81.9272
| 26> C 	 43.6988 	 13.0025 	 82.8316
| 27> C 	 44.117 	 12.5222 	 84.1109
| 28> H 	 43.0479 	 11.928 	 80.8912
| 29> C 	 43.7689 	 14.4009 	 82.2438
| 30> H 	 44.3535 	 14.2574 	 81.3926
| 31> H 	 44.2407 	 15.0504 	 82.9771
| 32> C 	 42.4872 	 15.0912 	 81.827
| 33> H 	 41.9764 	 14.4609 	 81.1455
| 34> H 	 42.747 	 15.963 	 81.2329
| 35> C 	 41.427 	 15.5215 	 82.8776
| 36> H 	 41.7464 	 15.207 	 83.8618
| 37> H 	 40.474 	 15.1482 	 82.7886
| 38> H 	 41.2133 	 16.5868 	 82.6873
| 39> H 	 44.9821 	 14.2512 	 88.6282
| 40> H 	 43.156 	 9.68577 	 82.1222
| 41> *
| 42>
| 43>                          ****END OF INPUT****

CARTESIAN COORDINATES (ANGSTROEM)
---------------------------------
  S     43.980000   12.895800   86.815500
  C     45.044400   14.114400   87.561400
  C     45.692500   14.857800   86.595500
  C     45.472300   14.349700   85.263600
  C     44.590000   13.238400   85.259700
  H     45.860800   14.739900   84.389400
  C     46.587200   15.998900   86.933000
  H     47.535200   15.590400   87.261500
  H     46.130900   16.476100   87.777500
  C     46.636700   17.106400   85.778200
  H     47.392800   17.844000   86.165000
  H     46.829000   16.721500   84.787000
  C     45.132900   17.698000   85.637200
  H     44.663900   18.054100   86.545300
  H     45.188300   18.671500   85.164100
  H     44.398600   17.156300   85.118900
  S     43.818500   10.771900   84.242400
  C     43.345100   10.668300   82.536500
  C     43.327600   11.891600   81.927200
  C     43.698800   13.002500   82.831600
  C     44.117000   12.522200   84.110900
  H     43.047900   11.928000   80.891200
  C     43.768900   14.400900   82.243800
  H     44.353500   14.257400   81.392600
  H     44.240700   15.050400   82.977100
  C     42.487200   15.091200   81.827000
  H     41.976400   14.460900   81.145500
  H     42.747000   15.963000   81.232900
  C     41.427000   15.521500   82.877600
  H     41.746400   15.207000   83.861800
  H     40.474000   15.148200   82.788600
  H     41.213300   16.586800   82.687300
  H     44.982100   14.251200   88.628200
  H     43.156000    9.685770   82.122200

 Total Charge           Charge          ....    0
 Multiplicity           Mult            ....    1
 Number of Electrons    NEL             ....  134
 Basis Dimension        Dim             ....  322

ORBITAL ENERGIES
----------------

  NO   OCC          E(Eh)            E(eV)
   0   2.0000     -88.963911     -2420.8311
   1   2.0000     -88.962599     -2420.7954
   2   2.0000     -10.332395      -281.1588
   3   2.0000     -10.328369      -281.0492
   4   2.0000     -10.320065      -280.8232
   5   2.0000     -10.313553      -280.6460
   6   2.0000     -10.310956      -280.5754
   7   2.0000     -10.306019      -280.4410
   8   2.0000     -10.300810      -280.2993
   9   2.0000     -10.297926      -280.2208
  10   2.0000     -10.291425      -280.0439
  11   2.0000     -10.290598      -280.0214
  12   2.0000     -10.288155      -279.9549
  13   2.0000     -10.280797      -279.7547
  14   2.0000     -10.275729      -279.6168
  15   2.0000     -10.268454      -279.4188
  16   2.0000      -8.079058      -219.8423
  17   2.0000      -8.076870      -219.7828
  18   2.0000      -6.037468      -164.2879
  19   2.0000      -6.035503      -164.2344
  20   2.0000      -6.033476      -164.1792
  21   2.0000      -6.031504      -164.1256
  22   2.0000      -6.029951      -164.0833
  23   2.0000      -6.027472      -164.0158
  24   2.0000      -1.002172       -27.2705
  25   2.0000      -0.975499       -26.5447
  26   2.0000      -0.911056       -24.7911
  27   2.0000      -0.907511       -24.6946
  28   2.0000      -0.865872       -23.5616
  29   2.0000      -0.846780       -23.0421
  30   2.0000      -0.836961       -22.7749
  31   2.0000      -0.814706       -22.1693
  32   2.0000      -0.788285       -21.4503
  33   2.0000      -0.774545       -21.0764
  34   2.0000      -0.719195       -19.5703
  35   2.0000      -0.702157       -19.1067
  36   2.0000      -0.691161       -18.8075
  37   2.0000      -0.656945       -17.8764
  38   2.0000      -0.641094       -17.4450
  39   2.0000      -0.625081       -17.0093
  40   2.0000      -0.596234       -16.2244
  41   2.0000      -0.565633       -15.3916
  42   2.0000      -0.561446       -15.2777
  43   2.0000      -0.551928       -15.0187
  44   2.0000      -0.545185       -14.8352
  45   2.0000      -0.532039       -14.4775
  46   2.0000      -0.520470       -14.1627
  47   2.0000      -0.509122       -13.8539
  48   2.0000      -0.500758       -13.6263
  49   2.0000      -0.497426       -13.5356
  50   2.0000      -0.494401       -13.4533
  51   2.0000      -0.475971       -12.9518
  52   2.0000      -0.471571       -12.8321
  53   2.0000      -0.460787       -12.5387
  54   2.0000      -0.458095       -12.4654
  55   2.0000      -0.453070       -12.3287
  56   2.0000      -0.444449       -12.0941
  57   2.0000      -0.441010       -12.0005
  58   2.0000      -0.432579       -11.7711
  59   2.0000      -0.432240       -11.7619
  60   2.0000      -0.417616       -11.3639
  61   2.0000      -0.409842       -11.1524
  62   2.0000      -0.403529       -10.9806
  63   2.0000      -0.350725        -9.5437
  64   2.0000      -0.328972        -8.9518
  65   2.0000      -0.327152        -8.9022
  66   2.0000      -0.283919        -7.7258
  67   0.0000       0.023343         0.6352
  68   0.0000       0.077310         2.1037
  69   0.0000       0.103923         2.8279
  70   0.0000       0.114074         3.1041
  71   0.0000       0.135582         3.6894

MULLIKEN ATOMIC CHARGES
-----------------------
   0 S :    0.104180
   1 C :   -0.144140
   2 C :   -0.080241
   3 C :    0.041006
   4 C :   -0.135031
   5 H :   -0.021455
   6 C :    0.084421
   7 H :    0.047785
   8 H :    0.019676
   9 C :   -0.089038
  10 H :    0.053610
  11 H :    0.046853
  12 C :   -0.065306
  13 H :    0.018670
  14 H :    0.020588
  15 H :    0.043157
  16 S :    0.084406
  17 C :   -0.094088
  18 C :   -0.025025
  19 C :   -0.052695
  20 C :   -0.146850
  21 H :    0.023344
  22 C :    0.101211
  23 H :    0.021970
  24 H :    0.012929
  25 C :   -0.070410
  26 H :    0.006494
  27 H :    0.025686
  28 C :   -0.016158
  29 H :    0.038309
  30 H :    0.007890
  31 H :    0.028529
  32 H :    0.046833
  33 H :    0.062890
Sum of atomic charges:    0.0000000

LOEWDIN ATOMIC CHARGES
----------------------
   0 S :    0.411910
   1 C :   -0.192914
   2 C :   -0.055815
   3 C :   -0.060010
   4 C :   -0.200665
   5 H :    0.012836
   6 C :   -0.031340
   7 H :    0.032678
   8 H :    0.029129
   9 C :   -0.028435
  10 H :    0.035762
  11 H :    0.021682
  12 C :   -0.071673
  13 H :    0.024488
  14 H :    0.026753
  15 H :    0.019831
  16 S :    0.373064
  17 C :   -0.168639
  18 C :   -0.070775
  19 C :   -0.045091
  20 C :   -0.194375
  21 H :    0.031456
  22 C :   -0.028104
  23 H :    0.031230
  24 H :    0.027417
  25 C :   -0.038821
  26 H :    0.015534
  27 H :    0.026162
  28 C :   -0.063638
  29 H :    0.029256
  30 H :    0.016068
  31 H :    0.033412
  32 H :    0.023253
  33 H :    0.028372

  Mayer bond orders larger than 0.100000
B(  0-S ,  1-C ) :   1.1251 B(  0-S ,  4-C ) :   1.1824 B(  1-C ,  2-C ) :   1.5939
B(  1-C , 32-H ) :   0.9784 B(  2-C ,  3-C ) :   1.2453 B(  2-C ,  6-C ) :   1.0087
B(  3-C ,  4-C ) :   1.5228 B(  3-C ,  5-H ) :   1.0060 B(  4-C , 20-C ) :   1.0801
B(  6-C ,  7-H ) :   0.9401 B(  6-C ,  8-H ) :   0.9433 B(  6-C ,  9-C ) :   1.0637
B(  9-C , 10-H ) :   0.9602 B(  9-C , 11-H ) :   0.9589 B(  9-C , 12-C ) :   1.0533
B( 12-C , 13-H ) :   0.9754 B( 12-C , 14-H ) :   0.9731 B( 12-C , 15-H ) :   0.9790
B( 16-S , 17-C ) :   1.1366 B( 16-S , 20-C ) :   1.1235 B( 17-C , 18-C ) :   1.6386
B( 17-C , 33-H ) :   0.9687 B( 18-C , 19-C ) :   1.1923 B( 18-C , 21-H ) :   0.9910
B( 19-C , 20-C ) :   1.5803 B( 19-C , 22-C ) :   1.0421 B( 22-C , 23-H ) :   0.9257
B( 22-C , 24-H ) :   0.9295 B( 22-C , 25-C ) :   1.0961 B( 25-C , 26-H ) :   0.9548
B( 25-C , 27-H ) :   0.9603 B( 25-C , 28-C ) :   1.0537 B( 28-C , 29-H ) :   0.9806
B( 28-C , 30-H ) :   0.9754 B( 28-C , 31-H ) :   0.9776

Dispersion correction           -0.015091301
FINAL SINGLE POINT ENERGY     -1339.855387644847

DIPOLE MOMENT
-------------
                                X             Y             Z
Electronic contribution:      0.47881     -27.68791       8.07974
Nuclear contribution   :     -0.43371      28.30882      -8.46664
                        -----------------------------------------
Total Dipole Moment    :      0.04510       0.62090      -0.38690
                        -----------------------------------------
Magnitude (a.u.)       :      0.73297
Magnitude (Debye)      :      1.86307

Rotational constants in cm-1:     0.018016     0.010139     0.007476
Rotational constants in MHz :   540.120921   303.958870   224.123647

                             ****ORCA TERMINATED NORMALLY****
TOTAL RUN TIME: 0 days 0 hours 0 minutes 31 seconds 946 msec
