                         Program Version 4.2.1 -  RELEASE  -
|  1> ! wB97X-D3 SP def2-SVP
|  2> %pal
|  3> nprocs 16
|  4> end
|  5>
|  6> * xyz 0 1
|  7> S 	 -5.32958 	 74.9656 	 47.7245
|  8> C 	 -3.88553 	 75.7428 	 47.1184
|  9> C 	 -4.07548 	 76.255 	 45.8487
| 10> C 	 -5.38379 	 75.9241 	 45.3376
| 11> C 	 -6.24897 	 75.2744 	 46.2423
| 12> H 	 -5.66058 	 76.0752 	 44.2868
| 13> C 	 -2.85598 	 76.738 	 45.0246
| 14> H 	 -2.77593 	 75.9829 	 44.25
| 15> H 	 -1.9801 	 76.5515 	 45.6497
| 16> C 	 -2.77525 	 78.1972 	 44.535
| 17> H 	 -3.67097 	 78.2704 	 43.9462
| 18> H 	 -2.78735 	 78.8464 	 45.3695
| 19> C 	 -1.50002 	 78.4176 	 43.6522
| 20> H 	 -1.76384 	 77.9818 	 42.6779
| 21> H 	 -1.31891 	 79.4469 	 43.4479
| 22> H 	 -0.695911 	 77.8389 	 43.9384
| 23> S 	 -7.22722 	 73.036 	 45.4203
| 24> C 	 -8.94367 	 72.7649 	 45.4767
| 25> C 	 -9.70157 	 73.8697 	 45.6608
| 26> C 	 -8.78623 	 74.9355 	 45.985
| 27> C 	 -7.49113 	 74.5886 	 45.9039
| 28> H 	 -10.7999 	 73.7946 	 45.8472
| 29> C 	 -9.35014 	 76.2564 	 46.4258
| 30> H 	 -10.1603 	 76.4867 	 45.7289
| 31> H 	 -8.66932 	 77.1038 	 46.2522
| 32> C 	 -9.9198 	 76.4265 	 47.8573
| 33> H 	 -9.30552 	 76.0674 	 48.7173
| 34> H 	 -10.9718 	 76.0193 	 47.9381
| 35> C 	 -10.1073 	 77.977 	 48.1927
| 36> H 	 -9.19944 	 78.5034 	 48.3307
| 37> H 	 -10.7304 	 78.1651 	 49.0821
| 38> H 	 -10.6155 	 78.6229 	 47.4367
| 39> H 	 -2.9688 	 75.9343 	 47.6669
| 40> H 	 -9.43445 	 71.7834 	 45.2721
| 41> *
| 42>
| 43>                          ****END OF INPUT****

CARTESIAN COORDINATES (ANGSTROEM)
---------------------------------
  S     -5.329580   74.965600   47.724500
  C     -3.885530   75.742800   47.118400
  C     -4.075480   76.255000   45.848700
  C     -5.383790   75.924100   45.337600
  C     -6.248970   75.274400   46.242300
  H     -5.660580   76.075200   44.286800
  C     -2.855980   76.738000   45.024600
  H     -2.775930   75.982900   44.250000
  H     -1.980100   76.551500   45.649700
  C     -2.775250   78.197200   44.535000
  H     -3.670970   78.270400   43.946200
  H     -2.787350   78.846400   45.369500
  C     -1.500020   78.417600   43.652200
  H     -1.763840   77.981800   42.677900
  H     -1.318910   79.446900   43.447900
  H     -0.695911   77.838900   43.938400
  S     -7.227220   73.036000   45.420300
  C     -8.943670   72.764900   45.476700
  C     -9.701570   73.869700   45.660800
  C     -8.786230   74.935500   45.985000
  C     -7.491130   74.588600   45.903900
  H    -10.799900   73.794600   45.847200
  C     -9.350140   76.256400   46.425800
  H    -10.160300   76.486700   45.728900
  H     -8.669320   77.103800   46.252200
  C     -9.919800   76.426500   47.857300
  H     -9.305520   76.067400   48.717300
  H    -10.971800   76.019300   47.938100
  C    -10.107300   77.977000   48.192700
  H     -9.199440   78.503400   48.330700
  H    -10.730400   78.165100   49.082100
  H    -10.615500   78.622900   47.436700
  H     -2.968800   75.934300   47.666900
  H     -9.434450   71.783400   45.272100

 Total Charge           Charge          ....    0
 Multiplicity           Mult            ....    1
 Number of Electrons    NEL             ....  134
 Basis Dimension        Dim             ....  322

ORBITAL ENERGIES
----------------

  NO   OCC          E(Eh)            E(eV)
   0   2.0000     -88.965658     -2420.8786
   1   2.0000     -88.963169     -2420.8109
   2   2.0000     -10.331579      -281.1365
   3   2.0000     -10.314317      -280.6668
   4   2.0000     -10.313589      -280.6470
   5   2.0000     -10.311997      -280.6037
   6   2.0000     -10.301503      -280.3182
   7   2.0000     -10.299947      -280.2758
   8   2.0000     -10.298014      -280.2232
   9   2.0000     -10.297414      -280.2069
  10   2.0000     -10.293657      -280.1046
  11   2.0000     -10.293317      -280.0954
  12   2.0000     -10.288976      -279.9773
  13   2.0000     -10.284642      -279.8593
  14   2.0000     -10.276543      -279.6390
  15   2.0000     -10.273993      -279.5696
  16   2.0000      -8.080654      -219.8858
  17   2.0000      -8.079861      -219.8642
  18   2.0000      -6.038997      -164.3295
  19   2.0000      -6.038427      -164.3139
  20   2.0000      -6.034877      -164.2174
  21   2.0000      -6.034324      -164.2023
  22   2.0000      -6.031271      -164.1192
  23   2.0000      -6.030706      -164.1039
  24   2.0000      -1.021612       -27.7995
  25   2.0000      -0.984024       -26.7766
  26   2.0000      -0.908388       -24.7185
  27   2.0000      -0.900898       -24.5147
  28   2.0000      -0.875509       -23.8238
  29   2.0000      -0.847282       -23.0557
  30   2.0000      -0.843166       -22.9437
  31   2.0000      -0.815528       -22.1917
  32   2.0000      -0.780289       -21.2327
  33   2.0000      -0.768974       -20.9248
  34   2.0000      -0.710821       -19.3424
  35   2.0000      -0.699358       -19.0305
  36   2.0000      -0.690676       -18.7943
  37   2.0000      -0.664337       -18.0775
  38   2.0000      -0.637675       -17.3520
  39   2.0000      -0.616808       -16.7842
  40   2.0000      -0.595933       -16.2162
  41   2.0000      -0.569566       -15.4987
  42   2.0000      -0.564071       -15.3491
  43   2.0000      -0.552641       -15.0381
  44   2.0000      -0.534429       -14.5425
  45   2.0000      -0.520978       -14.1765
  46   2.0000      -0.518716       -14.1150
  47   2.0000      -0.501015       -13.6333
  48   2.0000      -0.497074       -13.5261
  49   2.0000      -0.493464       -13.4278
  50   2.0000      -0.491372       -13.3709
  51   2.0000      -0.479721       -13.0539
  52   2.0000      -0.473279       -12.8786
  53   2.0000      -0.464078       -12.6282
  54   2.0000      -0.454478       -12.3670
  55   2.0000      -0.449783       -12.2392
  56   2.0000      -0.443477       -12.0676
  57   2.0000      -0.437518       -11.9055
  58   2.0000      -0.434895       -11.8341
  59   2.0000      -0.424850       -11.5608
  60   2.0000      -0.420348       -11.4383
  61   2.0000      -0.412738       -11.2312
  62   2.0000      -0.411471       -11.1967
  63   2.0000      -0.342994        -9.3333
  64   2.0000      -0.327137        -8.9018
  65   2.0000      -0.320177        -8.7125
  66   2.0000      -0.312288        -8.4978
  67   0.0000       0.046808         1.2737
  68   0.0000       0.060871         1.6564
  69   0.0000       0.112418         3.0591
  70   0.0000       0.122183         3.3248
  71   0.0000       0.129704         3.5294

MULLIKEN ATOMIC CHARGES
-----------------------
   0 S :    0.114142
   1 C :   -0.127257
   2 C :   -0.078303
   3 C :    0.028991
   4 C :   -0.153937
   5 H :    0.022622
   6 C :    0.007144
   7 H :    0.034472
   8 H :    0.007095
   9 C :   -0.039433
  10 H :    0.027138
  11 H :    0.027533
  12 C :   -0.006815
  13 H :    0.016732
  14 H :    0.036917
  15 H :    0.016623
  16 S :    0.139182
  17 C :   -0.109391
  18 C :   -0.038666
  19 C :   -0.027250
  20 C :   -0.174853
  21 H :    0.048241
  22 C :    0.056671
  23 H :    0.022002
  24 H :    0.024891
  25 C :   -0.069698
  26 H :    0.051593
  27 H :    0.037846
  28 C :   -0.092135
  29 H :    0.029486
  30 H :    0.032459
  31 H :    0.022367
  32 H :    0.055153
  33 H :    0.058436
Sum of atomic charges:    0.0000000

LOEWDIN ATOMIC CHARGES
----------------------
   0 S :    0.399351
   1 C :   -0.196357
   2 C :   -0.070759
   3 C :   -0.060991
   4 C :   -0.200474
   5 H :    0.032189
   6 C :   -0.030024
   7 H :    0.031019
   8 H :    0.024271
   9 C :   -0.029976
  10 H :    0.022272
  11 H :    0.018395
  12 C :   -0.055319
  13 H :    0.030516
  14 H :    0.024984
  15 H :    0.014259
  16 S :    0.457640
  17 C :   -0.185550
  18 C :   -0.076289
  19 C :   -0.056844
  20 C :   -0.241502
  21 H :    0.046670
  22 C :   -0.039974
  23 H :    0.035239
  24 H :    0.031584
  25 C :   -0.037902
  26 H :    0.032640
  27 H :    0.027792
  28 C :   -0.078373
  29 H :    0.017184
  30 H :    0.026673
  31 H :    0.024576
  32 H :    0.031254
  33 H :    0.031827

  Mayer bond orders larger than 0.100000
B(  0-S ,  1-C ) :   1.1500 B(  0-S ,  4-C ) :   1.1513 B(  1-C ,  2-C ) :   1.6109
B(  1-C , 32-H ) :   0.9600 B(  2-C ,  3-C ) :   1.2490 B(  2-C ,  6-C ) :   1.0131
B(  3-C ,  4-C ) :   1.5735 B(  3-C ,  5-H ) :   0.9895 B(  4-C , 20-C ) :   0.9922
B(  6-C ,  7-H ) :   0.9483 B(  6-C ,  8-H ) :   0.9447 B(  6-C ,  9-C ) :   1.0502
B(  9-C , 10-H ) :   0.9642 B(  9-C , 11-H ) :   0.9588 B(  9-C , 12-C ) :   1.0737
B( 12-C , 13-H ) :   0.9725 B( 12-C , 14-H ) :   0.9763 B( 12-C , 15-H ) :   0.9777
B( 16-S , 17-C ) :   1.1607 B( 16-S , 20-C ) :   1.1568 B( 17-C , 18-C ) :   1.6549
B( 17-C , 33-H ) :   0.9564 B( 18-C , 19-C ) :   1.2070 B( 18-C , 21-H ) :   0.9814
B( 19-C , 20-C ) :   1.6604 B( 19-C , 22-C ) :   1.0517 B( 22-C , 23-H ) :   0.9261
B( 22-C , 24-H ) :   0.9419 B( 22-C , 25-C ) :   1.0559 B( 25-C , 26-H ) :   0.9599
B( 25-C , 27-H ) :   0.9569 B( 25-C , 28-C ) :   1.0635 B( 28-C , 29-H ) :   0.9789
B( 28-C , 30-H ) :   0.9769 B( 28-C , 31-H ) :   0.9759

Dispersion correction           -0.013262878
FINAL SINGLE POINT ENERGY     -1339.856983072229

DIPOLE MOMENT
-------------
                                X             Y             Z
Electronic contribution:     -2.07451     -22.48004       3.53618
Nuclear contribution   :      2.09099      22.71091      -3.78455
                        -----------------------------------------
Total Dipole Moment    :      0.01648       0.23087      -0.24837
                        -----------------------------------------
Magnitude (a.u.)       :      0.33950
Magnitude (Debye)      :      0.86293

Rotational constants in cm-1:     0.019264     0.007264     0.006324
Rotational constants in MHz :   577.524496   217.759385   189.598732

                             ****ORCA TERMINATED NORMALLY****
TOTAL RUN TIME: 0 days 0 hours 0 minutes 31 seconds 698 msec
