                         Program Version 4.2.1 -  RELEASE  -
|  1> ! wB97X-D3 SP def2-SVP
|  2> %pal
|  3> nprocs 16
|  4> end
|  5>
|  6> * xyz 0 1
|  7> S 	 57.0957 	 24.261 	 41.6423
|  8> C 	 57.3213 	 25.878 	 40.9445
|  9> C 	 56.4194 	 26.803 	 41.4694
| 10> C 	 55.461 	 26.1601 	 42.3547
| 11> C 	 55.6744 	 24.8184 	 42.5592
| 12> H 	 54.6284 	 26.6223 	 42.7673
| 13> C 	 56.4569 	 28.2678 	 41.1813
| 14> H 	 55.6818 	 28.4024 	 40.3971
| 15> H 	 57.478 	 28.5269 	 40.7064
| 16> C 	 56.1716 	 29.1151 	 42.423
| 17> H 	 55.0842 	 29.0648 	 42.6988
| 18> H 	 56.7778 	 28.7462 	 43.2473
| 19> C 	 56.5447 	 30.6941 	 42.2007
| 20> H 	 57.5321 	 30.9575 	 41.9511
| 21> H 	 55.9798 	 31.0622 	 41.3724
| 22> H 	 56.3744 	 31.201 	 43.2208
| 23> S 	 55.9927 	 23.2469 	 44.7923
| 24> C 	 54.5926 	 22.5786 	 45.5386
| 25> C 	 53.5001 	 22.7878 	 44.727
| 26> C 	 53.7157 	 23.6611 	 43.6142
| 27> C 	 55.0569 	 23.9476 	 43.4738
| 28> H 	 52.5507 	 22.4895 	 45.1633
| 29> C 	 52.549 	 24.2167 	 42.726
| 30> H 	 52.2794 	 23.5296 	 41.9337
| 31> H 	 52.8935 	 25.1081 	 42.2323
| 32> C 	 51.3382 	 24.6707 	 43.6089
| 33> H 	 51.6795 	 25.1628 	 44.4371
| 34> H 	 50.8499 	 23.8368 	 44.1005
| 35> C 	 50.4107 	 25.5436 	 42.7436
| 36> H 	 50.2906 	 25.0322 	 41.7395
| 37> H 	 50.7065 	 26.6229 	 42.6109
| 38> H 	 49.3474 	 25.4181 	 43.0713
| 39> H 	 58.183 	 26.1664 	 40.2871
| 40> H 	 54.5145 	 21.9789 	 46.4716
| 41> *
| 42>
| 43>                          ****END OF INPUT****

CARTESIAN COORDINATES (ANGSTROEM)
---------------------------------
  S     57.095700   24.261000   41.642300
  C     57.321300   25.878000   40.944500
  C     56.419400   26.803000   41.469400
  C     55.461000   26.160100   42.354700
  C     55.674400   24.818400   42.559200
  H     54.628400   26.622300   42.767300
  C     56.456900   28.267800   41.181300
  H     55.681800   28.402400   40.397100
  H     57.478000   28.526900   40.706400
  C     56.171600   29.115100   42.423000
  H     55.084200   29.064800   42.698800
  H     56.777800   28.746200   43.247300
  C     56.544700   30.694100   42.200700
  H     57.532100   30.957500   41.951100
  H     55.979800   31.062200   41.372400
  H     56.374400   31.201000   43.220800
  S     55.992700   23.246900   44.792300
  C     54.592600   22.578600   45.538600
  C     53.500100   22.787800   44.727000
  C     53.715700   23.661100   43.614200
  C     55.056900   23.947600   43.473800
  H     52.550700   22.489500   45.163300
  C     52.549000   24.216700   42.726000
  H     52.279400   23.529600   41.933700
  H     52.893500   25.108100   42.232300
  C     51.338200   24.670700   43.608900
  H     51.679500   25.162800   44.437100
  H     50.849900   23.836800   44.100500
  C     50.410700   25.543600   42.743600
  H     50.290600   25.032200   41.739500
  H     50.706500   26.622900   42.610900
  H     49.347400   25.418100   43.071300
  H     58.183000   26.166400   40.287100
  H     54.514500   21.978900   46.471600

 Total Charge           Charge          ....    0
 Multiplicity           Mult            ....    1
 Number of Electrons    NEL             ....  134
 Basis Dimension        Dim             ....  322

ORBITAL ENERGIES
----------------

  NO   OCC          E(Eh)            E(eV)
   0   2.0000     -88.965009     -2420.8610
   1   2.0000     -88.962666     -2420.7972
   2   2.0000     -10.326318      -280.9934
   3   2.0000     -10.320992      -280.8485
   4   2.0000     -10.317984      -280.7666
   5   2.0000     -10.317193      -280.7451
   6   2.0000     -10.304885      -280.4102
   7   2.0000     -10.302587      -280.3477
   8   2.0000     -10.300802      -280.2991
   9   2.0000     -10.299422      -280.2615
  10   2.0000     -10.294685      -280.1326
  11   2.0000     -10.291841      -280.0552
  12   2.0000     -10.291085      -280.0347
  13   2.0000     -10.290897      -280.0296
  14   2.0000     -10.285101      -279.8718
  15   2.0000     -10.282847      -279.8105
  16   2.0000      -8.080072      -219.8699
  17   2.0000      -8.076656      -219.7770
  18   2.0000      -6.038622      -164.3192
  19   2.0000      -6.035261      -164.2278
  20   2.0000      -6.034454      -164.2058
  21   2.0000      -6.031300      -164.1200
  22   2.0000      -6.030822      -164.1070
  23   2.0000      -6.027330      -164.0120
  24   2.0000      -1.007395       -27.4126
  25   2.0000      -0.979116       -26.6431
  26   2.0000      -0.908469       -24.7207
  27   2.0000      -0.906449       -24.6657
  28   2.0000      -0.870505       -23.6876
  29   2.0000      -0.847028       -23.0488
  30   2.0000      -0.837707       -22.7952
  31   2.0000      -0.813463       -22.1354
  32   2.0000      -0.779419       -21.2091
  33   2.0000      -0.767911       -20.8959
  34   2.0000      -0.715436       -19.4680
  35   2.0000      -0.709787       -19.3143
  36   2.0000      -0.690724       -18.7956
  37   2.0000      -0.653471       -17.7819
  38   2.0000      -0.637951       -17.3595
  39   2.0000      -0.621065       -16.9000
  40   2.0000      -0.594723       -16.1832
  41   2.0000      -0.568096       -15.4587
  42   2.0000      -0.565940       -15.4000
  43   2.0000      -0.555286       -15.1101
  44   2.0000      -0.525739       -14.3061
  45   2.0000      -0.519245       -14.1294
  46   2.0000      -0.512649       -13.9499
  47   2.0000      -0.509451       -13.8629
  48   2.0000      -0.507501       -13.8098
  49   2.0000      -0.499951       -13.6044
  50   2.0000      -0.490473       -13.3464
  51   2.0000      -0.476221       -12.9586
  52   2.0000      -0.473907       -12.8957
  53   2.0000      -0.464959       -12.6522
  54   2.0000      -0.456100       -12.4111
  55   2.0000      -0.450165       -12.2496
  56   2.0000      -0.441020       -12.0008
  57   2.0000      -0.439422       -11.9573
  58   2.0000      -0.431517       -11.7422
  59   2.0000      -0.430683       -11.7195
  60   2.0000      -0.425985       -11.5916
  61   2.0000      -0.411397       -11.1947
  62   2.0000      -0.408596       -11.1185
  63   2.0000      -0.345601        -9.4043
  64   2.0000      -0.331930        -9.0323
  65   2.0000      -0.325092        -8.8462
  66   2.0000      -0.292402        -7.9567
  67   0.0000       0.034124         0.9286
  68   0.0000       0.065235         1.7751
  69   0.0000       0.120160         3.2697
  70   0.0000       0.120586         3.2813
  71   0.0000       0.127154         3.4600

MULLIKEN ATOMIC CHARGES
-----------------------
   0 S :    0.095387
   1 C :   -0.140709
   2 C :   -0.096083
   3 C :    0.068976
   4 C :   -0.179138
   5 H :   -0.015059
   6 C :    0.047258
   7 H :    0.048611
   8 H :    0.036468
   9 C :   -0.115882
  10 H :    0.049833
  11 H :    0.047117
  12 C :   -0.057233
  13 H :    0.022573
  14 H :    0.030202
  15 H :    0.049846
  16 S :    0.121107
  17 C :   -0.115865
  18 C :   -0.039752
  19 C :   -0.047721
  20 C :   -0.142328
  21 H :    0.017006
  22 C :    0.098434
  23 H :    0.045825
  24 H :    0.008393
  25 C :   -0.056714
  26 H :    0.009340
  27 H :    0.026593
  28 C :   -0.083104
  29 H :    0.032095
  30 H :    0.061758
  31 H :    0.034390
  32 H :    0.064090
  33 H :    0.074286
Sum of atomic charges:    0.0000000

LOEWDIN ATOMIC CHARGES
----------------------
   0 S :    0.377213
   1 C :   -0.202213
   2 C :   -0.063687
   3 C :   -0.052064
   4 C :   -0.177878
   5 H :    0.017469
   6 C :   -0.044102
   7 H :    0.038061
   8 H :    0.039152
   9 C :   -0.038415
  10 H :    0.030759
  11 H :    0.026546
  12 C :   -0.068092
  13 H :    0.015436
  14 H :    0.020977
  15 H :    0.038451
  16 S :    0.414769
  17 C :   -0.200351
  18 C :   -0.080580
  19 C :   -0.049777
  20 C :   -0.206957
  21 H :    0.028171
  22 C :   -0.018484
  23 H :    0.033072
  24 H :    0.024807
  25 C :   -0.037961
  26 H :    0.013057
  27 H :    0.023378
  28 C :   -0.079067
  29 H :    0.031857
  30 H :    0.034489
  31 H :    0.031412
  32 H :    0.037161
  33 H :    0.043389

  Mayer bond orders larger than 0.100000
B(  0-S ,  1-C ) :   1.1215 B(  0-S ,  4-C ) :   1.1299 B(  1-C ,  2-C ) :   1.6382
B(  1-C , 32-H ) :   0.9599 B(  2-C ,  3-C ) :   1.2081 B(  2-C ,  6-C ) :   1.0258
B(  3-C ,  4-C ) :   1.5992 B(  3-C ,  5-H ) :   0.9968 B(  4-C , 20-C ) :   1.0636
B(  6-C ,  7-H ) :   0.9278 B(  6-C ,  8-H ) :   0.9471 B(  6-C ,  9-C ) :   1.0608
B(  9-C , 10-H ) :   0.9474 B(  9-C , 11-H ) :   0.9658 B(  9-C , 12-C ) :   1.0690
B( 12-C , 13-H ) :   0.9801 B( 12-C , 14-H ) :   0.9767 B( 12-C , 15-H ) :   0.9780
B( 16-S , 17-C ) :   1.1572 B( 16-S , 20-C ) :   1.1353 B( 17-C , 18-C ) :   1.6255
B( 17-C , 33-H ) :   0.9605 B( 18-C , 19-C ) :   1.2339 B( 18-C , 21-H ) :   0.9831
B( 19-C , 20-C ) :   1.6015 B( 19-C , 22-C ) :   1.0297 B( 22-C , 23-H ) :   0.9325
B( 22-C , 24-H ) :   0.9377 B( 22-C , 25-C ) :   1.0558 B( 25-C , 26-H ) :   0.9594
B( 25-C , 27-H ) :   0.9512 B( 25-C , 28-C ) :   1.0786 B( 28-C , 29-H ) :   0.9706
B( 28-C , 30-H ) :   0.9743 B( 28-C , 31-H ) :   0.9725

Dispersion correction           -0.013718070
FINAL SINGLE POINT ENERGY     -1339.866051562110

DIPOLE MOMENT
-------------
                                X             Y             Z
Electronic contribution:     17.29177     -23.58762       3.93225
Nuclear contribution   :    -17.82322      24.11258      -3.85039
                        -----------------------------------------
Total Dipole Moment    :     -0.53145       0.52497       0.08185
                        -----------------------------------------
Magnitude (a.u.)       :      0.75148
Magnitude (Debye)      :      1.91012

Rotational constants in cm-1:     0.016051     0.008711     0.006703
Rotational constants in MHz :   481.198260   261.134256   200.947993

                             ****ORCA TERMINATED NORMALLY****
TOTAL RUN TIME: 0 days 0 hours 0 minutes 27 seconds 640 msec
