                         Program Version 4.2.1 -  RELEASE  -
|  1> ! wB97X-D3 SP def2-SVP
|  2> %pal
|  3> nprocs 16
|  4> end
|  5>
|  6> * xyz 0 1
|  7> S 	 -39.421 	 44.5249 	 96.5896
|  8> C 	 -40.1552 	 44.5115 	 98.1828
|  9> C 	 -39.7067 	 43.4553 	 98.9236
| 10> C 	 -38.7091 	 42.7668 	 98.2086
| 11> C 	 -38.3317 	 43.3293 	 96.9875
| 12> H 	 -38.1835 	 41.8858 	 98.5359
| 13> C 	 -40.2347 	 43.0136 	 100.253
| 14> H 	 -39.8244 	 41.99 	 100.53
| 15> H 	 -41.3665 	 42.7805 	 100.157
| 16> C 	 -39.8711 	 44.0063 	 101.338
| 17> H 	 -38.9039 	 44.3678 	 101.321
| 18> H 	 -40.4033 	 44.9317 	 101.101
| 19> C 	 -40.2132 	 43.438 	 102.807
| 20> H 	 -41.2806 	 43.1776 	 102.878
| 21> H 	 -39.5636 	 42.5028 	 103.074
| 22> H 	 -39.9999 	 44.1614 	 103.609
| 23> S 	 -36.4069 	 44.3723 	 95.1956
| 24> C 	 -35.2011 	 43.3356 	 94.4646
| 25> C 	 -35.4114 	 41.989 	 94.8048
| 26> C 	 -36.5447 	 41.8127 	 95.7194
| 27> C 	 -37.2352 	 42.987 	 96.0229
| 28> H 	 -34.8314 	 41.236 	 94.2646
| 29> C 	 -36.8949 	 40.4462 	 96.2271
| 30> H 	 -36.9374 	 40.4009 	 97.3209
| 31> H 	 -36.0878 	 39.7729 	 95.9946
| 32> C 	 -38.2595 	 40.095 	 95.5812
| 33> H 	 -38.1387 	 40.3474 	 94.525
| 34> H 	 -39.1035 	 40.6067 	 96.0761
| 35> C 	 -38.4663 	 38.5707 	 95.676
| 36> H 	 -39.4649 	 38.3179 	 95.5141
| 37> H 	 -38.34 	 38.3498 	 96.7096
| 38> H 	 -37.9061 	 37.8662 	 95.0461
| 39> H 	 -40.8526 	 45.2756 	 98.5717
| 40> H 	 -34.5551 	 43.6598 	 93.695
| 41> *
| 42>
| 43>                          ****END OF INPUT****

CARTESIAN COORDINATES (ANGSTROEM)
---------------------------------
  S    -39.421000   44.524900   96.589600
  C    -40.155200   44.511500   98.182800
  C    -39.706700   43.455300   98.923600
  C    -38.709100   42.766800   98.208600
  C    -38.331700   43.329300   96.987500
  H    -38.183500   41.885800   98.535900
  C    -40.234700   43.013600  100.253000
  H    -39.824400   41.990000  100.530000
  H    -41.366500   42.780500  100.157000
  C    -39.871100   44.006300  101.338000
  H    -38.903900   44.367800  101.321000
  H    -40.403300   44.931700  101.101000
  C    -40.213200   43.438000  102.807000
  H    -41.280600   43.177600  102.878000
  H    -39.563600   42.502800  103.074000
  H    -39.999900   44.161400  103.609000
  S    -36.406900   44.372300   95.195600
  C    -35.201100   43.335600   94.464600
  C    -35.411400   41.989000   94.804800
  C    -36.544700   41.812700   95.719400
  C    -37.235200   42.987000   96.022900
  H    -34.831400   41.236000   94.264600
  C    -36.894900   40.446200   96.227100
  H    -36.937400   40.400900   97.320900
  H    -36.087800   39.772900   95.994600
  C    -38.259500   40.095000   95.581200
  H    -38.138700   40.347400   94.525000
  H    -39.103500   40.606700   96.076100
  C    -38.466300   38.570700   95.676000
  H    -39.464900   38.317900   95.514100
  H    -38.340000   38.349800   96.709600
  H    -37.906100   37.866200   95.046100
  H    -40.852600   45.275600   98.571700
  H    -34.555100   43.659800   93.695000

 Total Charge           Charge          ....    0
 Multiplicity           Mult            ....    1
 Number of Electrons    NEL             ....  134
 Basis Dimension        Dim             ....  322

ORBITAL ENERGIES
----------------

  NO   OCC          E(Eh)            E(eV)
   0   2.0000     -88.965977     -2420.8873
   1   2.0000     -88.964437     -2420.8454
   2   2.0000     -10.335832      -281.2523
   3   2.0000     -10.329574      -281.0820
   4   2.0000     -10.319930      -280.8196
   5   2.0000     -10.312249      -280.6106
   6   2.0000     -10.309392      -280.5328
   7   2.0000     -10.303436      -280.3707
   8   2.0000     -10.301929      -280.3297
   9   2.0000     -10.298124      -280.2262
  10   2.0000     -10.294036      -280.1150
  11   2.0000     -10.290290      -280.0130
  12   2.0000     -10.289791      -279.9995
  13   2.0000     -10.288049      -279.9520
  14   2.0000     -10.287542      -279.9382
  15   2.0000     -10.266889      -279.3763
  16   2.0000      -8.082285      -219.9302
  17   2.0000      -8.078195      -219.8189
  18   2.0000      -6.040546      -164.3716
  19   2.0000      -6.036858      -164.2713
  20   2.0000      -6.036589      -164.2639
  21   2.0000      -6.033169      -164.1709
  22   2.0000      -6.032738      -164.1591
  23   2.0000      -6.028941      -164.0558
  24   2.0000      -1.012910       -27.5627
  25   2.0000      -0.980306       -26.6755
  26   2.0000      -0.914898       -24.8956
  27   2.0000      -0.910730       -24.7822
  28   2.0000      -0.863280       -23.4910
  29   2.0000      -0.849068       -23.1043
  30   2.0000      -0.840313       -22.8661
  31   2.0000      -0.811094       -22.0710
  32   2.0000      -0.780098       -21.2276
  33   2.0000      -0.771196       -20.9853
  34   2.0000      -0.710585       -19.3360
  35   2.0000      -0.705811       -19.2061
  36   2.0000      -0.690123       -18.7792
  37   2.0000      -0.664017       -18.0688
  38   2.0000      -0.640070       -17.4172
  39   2.0000      -0.619921       -16.8689
  40   2.0000      -0.595865       -16.2143
  41   2.0000      -0.572698       -15.5839
  42   2.0000      -0.565393       -15.3851
  43   2.0000      -0.551208       -14.9991
  44   2.0000      -0.527065       -14.3422
  45   2.0000      -0.521691       -14.1959
  46   2.0000      -0.519389       -14.1333
  47   2.0000      -0.515422       -14.0253
  48   2.0000      -0.502980       -13.6868
  49   2.0000      -0.500536       -13.6203
  50   2.0000      -0.489157       -13.3106
  51   2.0000      -0.481733       -13.1086
  52   2.0000      -0.466116       -12.6837
  53   2.0000      -0.463358       -12.6086
  54   2.0000      -0.458128       -12.4663
  55   2.0000      -0.450891       -12.2694
  56   2.0000      -0.444033       -12.0827
  57   2.0000      -0.441800       -12.0220
  58   2.0000      -0.432311       -11.7638
  59   2.0000      -0.425352       -11.5744
  60   2.0000      -0.421799       -11.4777
  61   2.0000      -0.414589       -11.2815
  62   2.0000      -0.409280       -11.1371
  63   2.0000      -0.348833        -9.4922
  64   2.0000      -0.332648        -9.0518
  65   2.0000      -0.326167        -8.8755
  66   2.0000      -0.289498        -7.8776
  67   0.0000       0.022880         0.6226
  68   0.0000       0.074691         2.0324
  69   0.0000       0.106436         2.8963
  70   0.0000       0.116625         3.1735
  71   0.0000       0.141211         3.8425

MULLIKEN ATOMIC CHARGES
-----------------------
   0 S :    0.117429
   1 C :   -0.147875
   2 C :   -0.062801
   3 C :    0.012865
   4 C :   -0.139205
   5 H :   -0.012288
   6 C :    0.032174
   7 H :    0.024970
   8 H :    0.056142
   9 C :   -0.047264
  10 H :    0.020533
  11 H :    0.021274
  12 C :   -0.091713
  13 H :    0.039719
  14 H :    0.049136
  15 H :    0.041742
  16 S :    0.086626
  17 C :   -0.080532
  18 C :   -0.038878
  19 C :   -0.077234
  20 C :   -0.111899
  21 H :    0.031937
  22 C :    0.067301
  23 H :    0.032189
  24 H :    0.012169
  25 C :   -0.088755
  26 H :    0.040528
  27 H :    0.058261
  28 C :   -0.007026
  29 H :    0.005978
  30 H :    0.006503
  31 H :    0.037206
  32 H :    0.057663
  33 H :    0.053125
Sum of atomic charges:   -0.0000000

LOEWDIN ATOMIC CHARGES
----------------------
   0 S :    0.446997
   1 C :   -0.205259
   2 C :   -0.067741
   3 C :   -0.073368
   4 C :   -0.215939
   5 H :    0.023051
   6 C :   -0.037979
   7 H :    0.031958
   8 H :    0.043742
   9 C :   -0.036153
  10 H :    0.018010
  11 H :    0.024874
  12 C :   -0.075954
  13 H :    0.025239
  14 H :    0.035747
  15 H :    0.026011
  16 S :    0.379028
  17 C :   -0.175002
  18 C :   -0.076088
  19 C :   -0.049390
  20 C :   -0.185300
  21 H :    0.035314
  22 C :   -0.033360
  23 H :    0.028215
  24 H :    0.027932
  25 C :   -0.028917
  26 H :    0.027119
  27 H :    0.034526
  28 C :   -0.066568
  29 H :    0.015954
  30 H :    0.019490
  31 H :    0.027444
  32 H :    0.033378
  33 H :    0.022992

  Mayer bond orders larger than 0.100000
B(  0-S ,  1-C ) :   1.1488 B(  0-S ,  4-C ) :   1.1989 B(  1-C ,  2-C ) :   1.5775
B(  1-C ,  4-C ) :   0.1018 B(  1-C , 32-H ) :   0.9665 B(  2-C ,  3-C ) :   1.2901
B(  2-C ,  6-C ) :   1.0119 B(  3-C ,  4-C ) :   1.5220 B(  3-C ,  5-H ) :   1.0005
B(  4-C , 20-C ) :   1.0184 B(  6-C ,  7-H ) :   0.9476 B(  6-C ,  8-H ) :   0.9398
B(  6-C ,  9-C ) :   1.0463 B(  9-C , 10-H ) :   0.9594 B(  9-C , 11-H ) :   0.9545
B(  9-C , 12-C ) :   1.0679 B( 12-C , 13-H ) :   0.9767 B( 12-C , 14-H ) :   0.9762
B( 12-C , 15-H ) :   0.9775 B( 16-S , 17-C ) :   1.1636 B( 16-S , 20-C ) :   1.1158
B( 17-C , 18-C ) :   1.6103 B( 17-C , 33-H ) :   0.9682 B( 18-C , 19-C ) :   1.2287
B( 18-C , 21-H ) :   0.9855 B( 19-C , 20-C ) :   1.6040 B( 19-C , 22-C ) :   1.0577
B( 22-C , 23-H ) :   0.9258 B( 22-C , 24-H ) :   0.9352 B( 22-C , 25-C ) :   1.0534
B( 25-C , 26-H ) :   0.9606 B( 25-C , 27-H ) :   0.9502 B( 25-C , 28-C ) :   1.0850
B( 28-C , 29-H ) :   0.9701 B( 28-C , 30-H ) :   0.9675 B( 28-C , 31-H ) :   0.9776

Dispersion correction           -0.014035448
FINAL SINGLE POINT ENERGY     -1339.864670674794

DIPOLE MOMENT
-------------
                                X             Y             Z
Electronic contribution:      7.93963      18.62225     -18.70375
Nuclear contribution   :     -7.98635     -19.14333      18.98058
                        -----------------------------------------
Total Dipole Moment    :     -0.04672      -0.52108       0.27683
                        -----------------------------------------
Magnitude (a.u.)       :      0.59190
Magnitude (Debye)      :      1.50448

Rotational constants in cm-1:     0.019255     0.007887     0.006446
Rotational constants in MHz :   577.247542   236.446794   193.239205

                             ****ORCA TERMINATED NORMALLY****
TOTAL RUN TIME: 0 days 0 hours 0 minutes 29 seconds 870 msec
