                         Program Version 4.2.1 -  RELEASE  -
|  1> ! wB97X-D3 SP def2-SVP
|  2> %pal
|  3> nprocs 16
|  4> end
|  5>
|  6> * xyz 0 1
|  7> S 	 -61.5973 	 35.0812 	 134.065
|  8> C 	 -59.9325 	 34.5282 	 133.843
|  9> C 	 -59.0286 	 35.573 	 133.976
| 10> C 	 -59.684 	 36.8142 	 134.234
| 11> C 	 -61.0757 	 36.765 	 134.308
| 12> H 	 -59.091 	 37.7874 	 134.227
| 13> C 	 -57.5486 	 35.5304 	 133.788
| 14> H 	 -57.3474 	 35.5848 	 132.678
| 15> H 	 -57.2549 	 34.4708 	 133.994
| 16> C 	 -56.628 	 36.529 	 134.507
| 17> H 	 -56.8789 	 37.593 	 134.245
| 18> H 	 -56.7372 	 36.3657 	 135.597
| 19> C 	 -55.1483 	 36.1584 	 134.072
| 20> H 	 -54.9198 	 35.1306 	 134.278
| 21> H 	 -54.867 	 36.4045 	 133.123
| 22> H 	 -54.4088 	 36.7136 	 134.718
| 23> S 	 -62.505 	 38.3393 	 136.005
| 24> C 	 -63.5187 	 39.5949 	 135.349
| 25> C 	 -63.1198 	 39.8477 	 134.06
| 26> C 	 -62.298 	 38.851 	 133.497
| 27> C 	 -61.9858 	 37.8844 	 134.414
| 28> H 	 -63.4979 	 40.7567 	 133.627
| 29> C 	 -61.7497 	 38.8935 	 132.129
| 30> H 	 -60.8101 	 38.4467 	 132.097
| 31> H 	 -61.5889 	 39.9108 	 131.773
| 32> C 	 -62.64 	 38.1464 	 131.059
| 33> H 	 -63.5889 	 38.7066 	 130.92
| 34> H 	 -62.7794 	 37.1525 	 131.439
| 35> C 	 -61.8761 	 38.0896 	 129.715
| 36> H 	 -60.7854 	 37.8305 	 129.845
| 37> H 	 -61.8646 	 39.0152 	 129.189
| 38> H 	 -62.2381 	 37.2589 	 129.093
| 39> H 	 -59.639 	 33.5092 	 133.545
| 40> H 	 -64.05 	 40.2882 	 135.979
| 41> *
| 42>
| 43>                          ****END OF INPUT****

CARTESIAN COORDINATES (ANGSTROEM)
---------------------------------
  S    -61.597300   35.081200  134.065000
  C    -59.932500   34.528200  133.843000
  C    -59.028600   35.573000  133.976000
  C    -59.684000   36.814200  134.234000
  C    -61.075700   36.765000  134.308000
  H    -59.091000   37.787400  134.227000
  C    -57.548600   35.530400  133.788000
  H    -57.347400   35.584800  132.678000
  H    -57.254900   34.470800  133.994000
  C    -56.628000   36.529000  134.507000
  H    -56.878900   37.593000  134.245000
  H    -56.737200   36.365700  135.597000
  C    -55.148300   36.158400  134.072000
  H    -54.919800   35.130600  134.278000
  H    -54.867000   36.404500  133.123000
  H    -54.408800   36.713600  134.718000
  S    -62.505000   38.339300  136.005000
  C    -63.518700   39.594900  135.349000
  C    -63.119800   39.847700  134.060000
  C    -62.298000   38.851000  133.497000
  C    -61.985800   37.884400  134.414000
  H    -63.497900   40.756700  133.627000
  C    -61.749700   38.893500  132.129000
  H    -60.810100   38.446700  132.097000
  H    -61.588900   39.910800  131.773000
  C    -62.640000   38.146400  131.059000
  H    -63.588900   38.706600  130.920000
  H    -62.779400   37.152500  131.439000
  C    -61.876100   38.089600  129.715000
  H    -60.785400   37.830500  129.845000
  H    -61.864600   39.015200  129.189000
  H    -62.238100   37.258900  129.093000
  H    -59.639000   33.509200  133.545000
  H    -64.050000   40.288200  135.979000

 Total Charge           Charge          ....    0
 Multiplicity           Mult            ....    1
 Number of Electrons    NEL             ....  134
 Basis Dimension        Dim             ....  322

ORBITAL ENERGIES
----------------

  NO   OCC          E(Eh)            E(eV)
   0   2.0000     -88.967677     -2420.9336
   1   2.0000     -88.959861     -2420.7209
   2   2.0000     -10.330469      -281.1064
   3   2.0000     -10.318795      -280.7887
   4   2.0000     -10.318652      -280.7848
   5   2.0000     -10.312371      -280.6139
   6   2.0000     -10.303345      -280.3683
   7   2.0000     -10.300053      -280.2787
   8   2.0000     -10.299287      -280.2579
   9   2.0000     -10.298373      -280.2330
  10   2.0000     -10.296593      -280.1845
  11   2.0000     -10.289229      -279.9841
  12   2.0000     -10.285748      -279.8894
  13   2.0000     -10.280349      -279.7425
  14   2.0000     -10.279889      -279.7300
  15   2.0000     -10.276523      -279.6384
  16   2.0000      -8.081256      -219.9022
  17   2.0000      -8.075434      -219.7437
  18   2.0000      -6.039837      -164.3523
  19   2.0000      -6.035854      -164.2439
  20   2.0000      -6.033781      -164.1875
  21   2.0000      -6.032070      -164.1410
  22   2.0000      -6.029983      -164.0842
  23   2.0000      -6.026147      -163.9798
  24   2.0000      -1.009204       -27.4618
  25   2.0000      -0.983152       -26.7529
  26   2.0000      -0.910361       -24.7722
  27   2.0000      -0.906261       -24.6606
  28   2.0000      -0.870315       -23.6825
  29   2.0000      -0.848458       -23.0877
  30   2.0000      -0.844851       -22.9896
  31   2.0000      -0.811743       -22.0886
  32   2.0000      -0.779806       -21.2196
  33   2.0000      -0.769660       -20.9435
  34   2.0000      -0.715118       -19.4593
  35   2.0000      -0.697833       -18.9890
  36   2.0000      -0.693362       -18.8673
  37   2.0000      -0.662217       -18.0198
  38   2.0000      -0.633864       -17.2483
  39   2.0000      -0.620234       -16.8774
  40   2.0000      -0.598877       -16.2963
  41   2.0000      -0.570223       -15.5166
  42   2.0000      -0.568462       -15.4686
  43   2.0000      -0.561794       -15.2872
  44   2.0000      -0.524414       -14.2700
  45   2.0000      -0.519033       -14.1236
  46   2.0000      -0.510609       -13.8944
  47   2.0000      -0.507809       -13.8182
  48   2.0000      -0.503660       -13.7053
  49   2.0000      -0.496762       -13.5176
  50   2.0000      -0.492265       -13.3952
  51   2.0000      -0.478148       -13.0111
  52   2.0000      -0.468961       -12.7611
  53   2.0000      -0.464926       -12.6513
  54   2.0000      -0.459903       -12.5146
  55   2.0000      -0.447504       -12.1772
  56   2.0000      -0.443727       -12.0744
  57   2.0000      -0.434994       -11.8368
  58   2.0000      -0.431654       -11.7459
  59   2.0000      -0.429327       -11.6826
  60   2.0000      -0.423437       -11.5223
  61   2.0000      -0.421264       -11.4632
  62   2.0000      -0.418042       -11.3755
  63   2.0000      -0.333149        -9.0655
  64   2.0000      -0.326419        -8.8823
  65   2.0000      -0.318511        -8.6671
  66   2.0000      -0.309153        -8.4125
  67   0.0000       0.040821         1.1108
  68   0.0000       0.050169         1.3652
  69   0.0000       0.109077         2.9681
  70   0.0000       0.119238         3.2446
  71   0.0000       0.126420         3.4401

MULLIKEN ATOMIC CHARGES
-----------------------
   0 S :    0.114177
   1 C :   -0.135851
   2 C :   -0.066180
   3 C :    0.030020
   4 C :   -0.180346
   5 H :    0.036387
   6 C :    0.007883
   7 H :    0.046554
   8 H :    0.020775
   9 C :   -0.091041
  10 H :    0.051070
  11 H :    0.049460
  12 C :   -0.024906
  13 H :    0.025987
  14 H :    0.018359
  15 H :    0.029454
  16 S :    0.106470
  17 C :   -0.084171
  18 C :   -0.051843
  19 C :    0.021855
  20 C :   -0.183566
  21 H :    0.011655
  22 C :    0.094128
  23 H :   -0.007344
  24 H :    0.015096
  25 C :   -0.066249
  26 H :    0.039314
  27 H :    0.026877
  28 C :   -0.053728
  29 H :    0.024663
  30 H :    0.028655
  31 H :    0.039330
  32 H :    0.052392
  33 H :    0.054665
Sum of atomic charges:    0.0000000

LOEWDIN ATOMIC CHARGES
----------------------
   0 S :    0.394820
   1 C :   -0.197280
   2 C :   -0.073485
   3 C :   -0.064987
   4 C :   -0.196521
   5 H :    0.041110
   6 C :   -0.048213
   7 H :    0.040255
   8 H :    0.033034
   9 C :   -0.037918
  10 H :    0.029042
  11 H :    0.032137
  12 C :   -0.056250
  13 H :    0.023821
  14 H :    0.010682
  15 H :    0.032483
  16 S :    0.417059
  17 C :   -0.183549
  18 C :   -0.067870
  19 C :   -0.053024
  20 C :   -0.209556
  21 H :    0.029622
  22 C :   -0.027271
  23 H :    0.018397
  24 H :    0.029456
  25 C :   -0.026970
  26 H :    0.027670
  27 H :    0.019885
  28 C :   -0.072010
  29 H :    0.028263
  30 H :    0.018990
  31 H :    0.028929
  32 H :    0.033048
  33 H :    0.026200

  Mayer bond orders larger than 0.100000
B(  0-S ,  1-C ) :   1.1388 B(  0-S ,  4-C ) :   1.1430 B(  1-C ,  2-C ) :   1.6042
B(  1-C ,  4-C ) :   0.1030 B(  1-C , 32-H ) :   0.9661 B(  2-C ,  3-C ) :   1.2599
B(  2-C ,  6-C ) :   1.0156 B(  3-C ,  4-C ) :   1.5785 B(  3-C ,  5-H ) :   0.9757
B(  4-C , 20-C ) :   1.0195 B(  6-C ,  7-H ) :   0.9333 B(  6-C ,  8-H ) :   0.9400
B(  6-C ,  9-C ) :   1.0643 B(  9-C , 10-H ) :   0.9470 B(  9-C , 11-H ) :   0.9588
B(  9-C , 12-C ) :   1.0759 B( 12-C , 13-H ) :   0.9755 B( 12-C , 14-H ) :   0.9793
B( 12-C , 15-H ) :   0.9740 B( 16-S , 17-C ) :   1.1608 B( 16-S , 20-C ) :   1.1636
B( 17-C , 18-C ) :   1.5986 B( 17-C , 20-C ) :   0.1027 B( 17-C , 33-H ) :   0.9685
B( 18-C , 19-C ) :   1.2351 B( 18-C , 21-H ) :   0.9972 B( 19-C , 20-C ) :   1.5790
B( 19-C , 22-C ) :   1.0648 B( 22-C , 23-H ) :   0.9166 B( 22-C , 24-H ) :   0.9327
B( 22-C , 25-C ) :   1.0656 B( 25-C , 26-H ) :   0.9577 B( 25-C , 27-H ) :   0.9561
B( 25-C , 28-C ) :   1.0818 B( 28-C , 29-H ) :   0.9725 B( 28-C , 30-H ) :   0.9758
B( 28-C , 31-H ) :   0.9750

Dispersion correction           -0.014242525
FINAL SINGLE POINT ENERGY     -1339.876721966215

DIPOLE MOMENT
-------------
                                X             Y             Z
Electronic contribution:    -19.99428      -2.76942      17.22955
Nuclear contribution   :     20.65058       3.09170     -17.66009
                        -----------------------------------------
Total Dipole Moment    :      0.65630       0.32228      -0.43054
                        -----------------------------------------
Magnitude (a.u.)       :      0.84851
Magnitude (Debye)      :      2.15673

Rotational constants in cm-1:     0.017134     0.008266     0.007344
Rotational constants in MHz :   513.652730   247.812251   220.154002

                             ****ORCA TERMINATED NORMALLY****
TOTAL RUN TIME: 0 days 0 hours 0 minutes 34 seconds 899 msec
