                         Program Version 4.2.1 -  RELEASE  -
|  1> ! wB97X-D3 SP def2-SVP
|  2> %pal
|  3> nprocs 16
|  4> end
|  5>
|  6> * xyz 0 1
|  7> S 	 15.2266 	 -12.3699 	 79.4508
|  8> C 	 16.8929 	 -11.839 	 79.6537
|  9> C 	 17.5366 	 -11.8444 	 78.4412
| 10> C 	 16.7446 	 -12.4729 	 77.3524
| 11> C 	 15.5275 	 -12.9898 	 77.7938
| 12> H 	 17.1302 	 -12.7205 	 76.3674
| 13> C 	 18.8726 	 -11.2309 	 78.2283
| 14> H 	 18.8992 	 -10.2886 	 78.8219
| 15> H 	 18.89 	 -10.923 	 77.1758
| 16> C 	 20.1142 	 -12.2054 	 78.5281
| 17> H 	 20.131 	 -12.5779 	 79.5247
| 18> H 	 19.8973 	 -13.165 	 78.074
| 19> C 	 21.4903 	 -11.6972 	 78.0189
| 20> H 	 21.6095 	 -10.6471 	 78.3201
| 21> H 	 22.2926 	 -12.4311 	 78.3956
| 22> H 	 21.4661 	 -11.6457 	 76.9924
| 23> S 	 13.5085 	 -14.8399 	 77.9104
| 24> C 	 12.9614 	 -15.4906 	 76.4099
| 25> C 	 13.0974 	 -14.5422 	 75.4123
| 26> C 	 14.0338 	 -13.4746 	 75.7316
| 27> C 	 14.4642 	 -13.5957 	 77.0215
| 28> H 	 12.4857 	 -14.7103 	 74.4767
| 29> C 	 14.3278 	 -12.2946 	 74.8547
| 30> H 	 13.9189 	 -12.4762 	 73.8266
| 31> H 	 15.4312 	 -12.3405 	 74.7089
| 32> C 	 13.8569 	 -10.9235 	 75.3842
| 33> H 	 14.5134 	 -10.5433 	 76.1433
| 34> H 	 12.8359 	 -10.9716 	 75.8455
| 35> C 	 13.8445 	 -9.82762 	 74.3309
| 36> H 	 13.0871 	 -10.0653 	 73.6097
| 37> H 	 14.7472 	 -9.66198 	 73.8032
| 38> H 	 13.6197 	 -8.83947 	 74.8149
| 39> H 	 17.2897 	 -11.4173 	 80.5631
| 40> H 	 12.3312 	 -16.3635 	 76.2806
| 41> *
| 42>
| 43>                          ****END OF INPUT****

CARTESIAN COORDINATES (ANGSTROEM)
---------------------------------
  S     15.226600  -12.369900   79.450800
  C     16.892900  -11.839000   79.653700
  C     17.536600  -11.844400   78.441200
  C     16.744600  -12.472900   77.352400
  C     15.527500  -12.989800   77.793800
  H     17.130200  -12.720500   76.367400
  C     18.872600  -11.230900   78.228300
  H     18.899200  -10.288600   78.821900
  H     18.890000  -10.923000   77.175800
  C     20.114200  -12.205400   78.528100
  H     20.131000  -12.577900   79.524700
  H     19.897300  -13.165000   78.074000
  C     21.490300  -11.697200   78.018900
  H     21.609500  -10.647100   78.320100
  H     22.292600  -12.431100   78.395600
  H     21.466100  -11.645700   76.992400
  S     13.508500  -14.839900   77.910400
  C     12.961400  -15.490600   76.409900
  C     13.097400  -14.542200   75.412300
  C     14.033800  -13.474600   75.731600
  C     14.464200  -13.595700   77.021500
  H     12.485700  -14.710300   74.476700
  C     14.327800  -12.294600   74.854700
  H     13.918900  -12.476200   73.826600
  H     15.431200  -12.340500   74.708900
  C     13.856900  -10.923500   75.384200
  H     14.513400  -10.543300   76.143300
  H     12.835900  -10.971600   75.845500
  C     13.844500   -9.827620   74.330900
  H     13.087100  -10.065300   73.609700
  H     14.747200   -9.661980   73.803200
  H     13.619700   -8.839470   74.814900
  H     17.289700  -11.417300   80.563100
  H     12.331200  -16.363500   76.280600

 Total Charge           Charge          ....    0
 Multiplicity           Mult            ....    1
 Number of Electrons    NEL             ....  134
 Basis Dimension        Dim             ....  322

ORBITAL ENERGIES
----------------

  NO   OCC          E(Eh)            E(eV)
   0   2.0000     -88.962207     -2420.7847
   1   2.0000     -88.961213     -2420.7577
   2   2.0000     -10.335548      -281.2445
   3   2.0000     -10.327782      -281.0332
   4   2.0000     -10.318096      -280.7697
   5   2.0000     -10.312051      -280.6052
   6   2.0000     -10.308739      -280.5151
   7   2.0000     -10.303013      -280.3592
   8   2.0000     -10.301621      -280.3214
   9   2.0000     -10.300750      -280.2977
  10   2.0000     -10.299695      -280.2689
  11   2.0000     -10.297097      -280.1983
  12   2.0000     -10.286594      -279.9125
  13   2.0000     -10.285598      -279.8854
  14   2.0000     -10.281744      -279.7805
  15   2.0000     -10.273482      -279.5557
  16   2.0000      -8.077115      -219.7895
  17   2.0000      -8.075329      -219.7409
  18   2.0000      -6.035672      -164.2390
  19   2.0000      -6.034080      -164.1957
  20   2.0000      -6.031905      -164.1365
  21   2.0000      -6.030063      -164.0864
  22   2.0000      -6.027489      -164.0163
  23   2.0000      -6.025735      -163.9686
  24   2.0000      -1.003822       -27.3154
  25   2.0000      -0.978606       -26.6292
  26   2.0000      -0.909799       -24.7569
  27   2.0000      -0.903066       -24.5737
  28   2.0000      -0.868887       -23.6436
  29   2.0000      -0.853933       -23.2367
  30   2.0000      -0.840662       -22.8756
  31   2.0000      -0.814518       -22.1642
  32   2.0000      -0.780910       -21.2496
  33   2.0000      -0.766574       -20.8595
  34   2.0000      -0.710086       -19.3224
  35   2.0000      -0.706983       -19.2380
  36   2.0000      -0.693225       -18.8636
  37   2.0000      -0.660713       -17.9789
  38   2.0000      -0.638040       -17.3619
  39   2.0000      -0.613343       -16.6899
  40   2.0000      -0.590296       -16.0628
  41   2.0000      -0.566471       -15.4145
  42   2.0000      -0.560192       -15.2436
  43   2.0000      -0.548451       -14.9241
  44   2.0000      -0.530603       -14.4384
  45   2.0000      -0.524597       -14.2750
  46   2.0000      -0.518945       -14.1212
  47   2.0000      -0.514519       -14.0008
  48   2.0000      -0.504931       -13.7399
  49   2.0000      -0.500076       -13.6078
  50   2.0000      -0.491696       -13.3797
  51   2.0000      -0.484300       -13.1785
  52   2.0000      -0.470134       -12.7930
  53   2.0000      -0.459603       -12.5064
  54   2.0000      -0.454248       -12.3607
  55   2.0000      -0.447286       -12.1713
  56   2.0000      -0.445729       -12.1289
  57   2.0000      -0.437649       -11.9090
  58   2.0000      -0.432460       -11.7678
  59   2.0000      -0.425515       -11.5789
  60   2.0000      -0.417919       -11.3721
  61   2.0000      -0.413717       -11.2578
  62   2.0000      -0.412175       -11.2158
  63   2.0000      -0.353613        -9.6223
  64   2.0000      -0.326632        -8.8881
  65   2.0000      -0.322021        -8.7626
  66   2.0000      -0.286005        -7.7826
  67   0.0000       0.018169         0.4944
  68   0.0000       0.063767         1.7352
  69   0.0000       0.095719         2.6046
  70   0.0000       0.121520         3.3067
  71   0.0000       0.133085         3.6214

MULLIKEN ATOMIC CHARGES
-----------------------
   0 S :    0.075732
   1 C :   -0.101134
   2 C :   -0.115292
   3 C :    0.004765
   4 C :   -0.089782
   5 H :    0.023241
   6 C :    0.047141
   7 H :    0.036823
   8 H :    0.019933
   9 C :   -0.064891
  10 H :    0.015291
  11 H :    0.015777
  12 C :   -0.027264
  13 H :    0.031268
  14 H :    0.056891
  15 H :    0.015430
  16 S :    0.099014
  17 C :   -0.085372
  18 C :   -0.068716
  19 C :   -0.035516
  20 C :   -0.164942
  21 H :    0.041398
  22 C :    0.058636
  23 H :    0.019050
  24 H :    0.031504
  25 C :   -0.059625
  26 H :    0.034985
  27 H :    0.043243
  28 C :   -0.047111
  29 H :    0.024342
  30 H :    0.020474
  31 H :    0.037601
  32 H :    0.046888
  33 H :    0.060220
Sum of atomic charges:   -0.0000000

LOEWDIN ATOMIC CHARGES
----------------------
   0 S :    0.368367
   1 C :   -0.190559
   2 C :   -0.063817
   3 C :   -0.069493
   4 C :   -0.169778
   5 H :    0.029518
   6 C :   -0.036180
   7 H :    0.033934
   8 H :    0.030658
   9 C :   -0.041952
  10 H :    0.018561
  11 H :    0.023564
  12 C :   -0.062794
  13 H :    0.027145
  14 H :    0.042374
  15 H :    0.011687
  16 S :    0.387934
  17 C :   -0.185807
  18 C :   -0.079767
  19 C :   -0.052614
  20 C :   -0.181200
  21 H :    0.040993
  22 C :   -0.037239
  23 H :    0.032354
  24 H :    0.037694
  25 C :   -0.039989
  26 H :    0.025008
  27 H :    0.033762
  28 C :   -0.063664
  29 H :    0.019330
  30 H :    0.017348
  31 H :    0.034182
  32 H :    0.029003
  33 H :    0.031437

  Mayer bond orders larger than 0.100000
B(  0-S ,  1-C ) :   1.1099 B(  0-S ,  4-C ) :   1.1284 B(  1-C ,  2-C ) :   1.6399
B(  1-C , 32-H ) :   0.9726 B(  2-C ,  3-C ) :   1.2022 B(  2-C ,  6-C ) :   1.0377
B(  3-C ,  4-C ) :   1.6004 B(  3-C ,  5-H ) :   0.9897 B(  4-C , 20-C ) :   1.0632
B(  6-C ,  7-H ) :   0.9414 B(  6-C ,  8-H ) :   0.9418 B(  6-C ,  9-C ) :   1.0405
B(  9-C , 10-H ) :   0.9590 B(  9-C , 11-H ) :   0.9540 B(  9-C , 12-C ) :   1.0723
B( 12-C , 13-H ) :   0.9757 B( 12-C , 14-H ) :   0.9729 B( 12-C , 15-H ) :   0.9767
B( 16-S , 17-C ) :   1.1554 B( 16-S , 20-C ) :   1.1070 B( 17-C , 18-C ) :   1.6268
B( 17-C , 33-H ) :   0.9665 B( 18-C , 19-C ) :   1.2044 B( 18-C , 21-H ) :   0.9799
B( 19-C , 20-C ) :   1.6042 B( 19-C , 22-C ) :   1.0495 B( 22-C , 23-H ) :   0.9372
B( 22-C , 24-H ) :   0.9211 B( 22-C , 25-C ) :   1.0562 B( 25-C , 26-H ) :   0.9483
B( 25-C , 27-H ) :   0.9583 B( 25-C , 28-C ) :   1.0929 B( 28-C , 29-H ) :   0.9761
B( 28-C , 30-H ) :   0.9741 B( 28-C , 31-H ) :   0.9736

Dispersion correction           -0.014080153
FINAL SINGLE POINT ENERGY     -1339.860496316416

DIPOLE MOMENT
-------------
                                X             Y             Z
Electronic contribution:    -18.03142     -15.58239      13.27310
Nuclear contribution   :     18.26544      15.86366     -13.84841
                        -----------------------------------------
Total Dipole Moment    :      0.23403       0.28128      -0.57531
                        -----------------------------------------
Magnitude (a.u.)       :      0.68181
Magnitude (Debye)      :      1.73303

Rotational constants in cm-1:     0.018408     0.007932     0.006683
Rotational constants in MHz :   551.845608   237.795116   200.343168

                             ****ORCA TERMINATED NORMALLY****
TOTAL RUN TIME: 0 days 0 hours 0 minutes 28 seconds 209 msec
