                         Program Version 4.2.1 -  RELEASE  -
|  1> ! wB97X-D3 SP def2-SVP
|  2> %pal
|  3> nprocs 16
|  4> end
|  5>
|  6> * xyz 0 1
|  7> S 	 47.6505 	 21.056 	 89.7883
|  8> C 	 46.339 	 22.1337 	 89.9864
|  9> C 	 46.6614 	 23.5035 	 89.78
| 10> C 	 48.035 	 23.5717 	 89.3657
| 11> C 	 48.7568 	 22.3404 	 89.3453
| 12> H 	 48.6196 	 24.4373 	 89.1634
| 13> C 	 45.8485 	 24.7868 	 89.9153
| 14> H 	 44.8465 	 24.5684 	 90.2612
| 15> H 	 45.7261 	 25.1539 	 88.9056
| 16> C 	 46.451 	 25.9043 	 90.7883
| 17> H 	 45.6229 	 26.5057 	 91.0962
| 18> H 	 46.7276 	 25.5314 	 91.7146
| 19> C 	 47.505 	 26.8352 	 90.0548
| 20> H 	 47.5786 	 27.8362 	 90.5224
| 21> H 	 48.4164 	 26.4398 	 90.3656
| 22> H 	 47.6428 	 26.8086 	 88.9832
| 23> S 	 50.5025 	 20.6944 	 87.9552
| 24> C 	 52.1593 	 21.1438 	 87.9378
| 25> C 	 52.3941 	 22.3069 	 88.6149
| 26> C 	 51.2922 	 22.8534 	 89.3182
| 27> C 	 50.1416 	 22.0822 	 89.0981
| 28> H 	 53.418 	 22.6998 	 88.5841
| 29> C 	 51.4512 	 23.992 	 90.2576
| 30> H 	 52.353 	 23.8086 	 90.8645
| 31> H 	 50.5742 	 23.9705 	 90.98
| 32> C 	 51.5466 	 25.3183 	 89.5348
| 33> H 	 50.6769 	 25.513 	 88.9278
| 34> H 	 52.3282 	 25.2399 	 88.7865
| 35> C 	 51.7151 	 26.5 	 90.5477
| 36> H 	 51.9309 	 27.4308 	 89.9966
| 37> H 	 52.5917 	 26.2027 	 91.1396
| 38> H 	 50.9081 	 26.5088 	 91.2969
| 39> H 	 45.3168 	 21.8443 	 90.2391
| 40> H 	 52.7882 	 20.7997 	 87.1129
| 41> *
| 42>
| 43>                          ****END OF INPUT****

CARTESIAN COORDINATES (ANGSTROEM)
---------------------------------
  S     47.650500   21.056000   89.788300
  C     46.339000   22.133700   89.986400
  C     46.661400   23.503500   89.780000
  C     48.035000   23.571700   89.365700
  C     48.756800   22.340400   89.345300
  H     48.619600   24.437300   89.163400
  C     45.848500   24.786800   89.915300
  H     44.846500   24.568400   90.261200
  H     45.726100   25.153900   88.905600
  C     46.451000   25.904300   90.788300
  H     45.622900   26.505700   91.096200
  H     46.727600   25.531400   91.714600
  C     47.505000   26.835200   90.054800
  H     47.578600   27.836200   90.522400
  H     48.416400   26.439800   90.365600
  H     47.642800   26.808600   88.983200
  S     50.502500   20.694400   87.955200
  C     52.159300   21.143800   87.937800
  C     52.394100   22.306900   88.614900
  C     51.292200   22.853400   89.318200
  C     50.141600   22.082200   89.098100
  H     53.418000   22.699800   88.584100
  C     51.451200   23.992000   90.257600
  H     52.353000   23.808600   90.864500
  H     50.574200   23.970500   90.980000
  C     51.546600   25.318300   89.534800
  H     50.676900   25.513000   88.927800
  H     52.328200   25.239900   88.786500
  C     51.715100   26.500000   90.547700
  H     51.930900   27.430800   89.996600
  H     52.591700   26.202700   91.139600
  H     50.908100   26.508800   91.296900
  H     45.316800   21.844300   90.239100
  H     52.788200   20.799700   87.112900

 Total Charge           Charge          ....    0
 Multiplicity           Mult            ....    1
 Number of Electrons    NEL             ....  134
 Basis Dimension        Dim             ....  322

ORBITAL ENERGIES
----------------

  NO   OCC          E(Eh)            E(eV)
   0   2.0000     -88.967221     -2420.9212
   1   2.0000     -88.963280     -2420.8139
   2   2.0000     -10.332324      -281.1568
   3   2.0000     -10.328495      -281.0526
   4   2.0000     -10.315638      -280.7028
   5   2.0000     -10.313503      -280.6447
   6   2.0000     -10.306014      -280.4409
   7   2.0000     -10.305386      -280.4238
   8   2.0000     -10.296728      -280.1882
   9   2.0000     -10.294448      -280.1262
  10   2.0000     -10.293467      -280.0995
  11   2.0000     -10.292660      -280.0775
  12   2.0000     -10.288516      -279.9647
  13   2.0000     -10.287053      -279.9249
  14   2.0000     -10.286681      -279.9148
  15   2.0000     -10.279790      -279.7273
  16   2.0000      -8.082286      -219.9302
  17   2.0000      -8.077873      -219.8101
  18   2.0000      -6.040720      -164.3764
  19   2.0000      -6.036608      -164.2645
  20   2.0000      -6.036260      -164.2550
  21   2.0000      -6.033257      -164.1733
  22   2.0000      -6.032525      -164.1534
  23   2.0000      -6.028627      -164.0473
  24   2.0000      -1.003230       -27.2993
  25   2.0000      -0.981502       -26.7080
  26   2.0000      -0.916651       -24.9434
  27   2.0000      -0.910376       -24.7726
  28   2.0000      -0.869064       -23.6484
  29   2.0000      -0.853539       -23.2260
  30   2.0000      -0.843396       -22.9500
  31   2.0000      -0.809734       -22.0340
  32   2.0000      -0.788013       -21.4429
  33   2.0000      -0.773259       -21.0414
  34   2.0000      -0.716947       -19.5091
  35   2.0000      -0.707398       -19.2493
  36   2.0000      -0.695827       -18.9344
  37   2.0000      -0.661785       -18.0081
  38   2.0000      -0.638704       -17.3800
  39   2.0000      -0.617547       -16.8043
  40   2.0000      -0.598958       -16.2985
  41   2.0000      -0.566662       -15.4197
  42   2.0000      -0.565752       -15.3949
  43   2.0000      -0.542640       -14.7660
  44   2.0000      -0.536641       -14.6027
  45   2.0000      -0.533263       -14.5108
  46   2.0000      -0.516097       -14.0437
  47   2.0000      -0.509110       -13.8536
  48   2.0000      -0.505608       -13.7583
  49   2.0000      -0.498933       -13.5767
  50   2.0000      -0.488198       -13.2845
  51   2.0000      -0.486345       -13.2341
  52   2.0000      -0.475678       -12.9438
  53   2.0000      -0.468249       -12.7417
  54   2.0000      -0.456760       -12.4291
  55   2.0000      -0.451046       -12.2736
  56   2.0000      -0.449020       -12.2185
  57   2.0000      -0.444359       -12.0916
  58   2.0000      -0.433572       -11.7981
  59   2.0000      -0.427770       -11.6402
  60   2.0000      -0.422802       -11.5050
  61   2.0000      -0.415718       -11.3123
  62   2.0000      -0.410186       -11.1617
  63   2.0000      -0.350894        -9.5483
  64   2.0000      -0.332915        -9.0591
  65   2.0000      -0.328960        -8.9515
  66   2.0000      -0.280456        -7.6316
  67   0.0000       0.021545         0.5863
  68   0.0000       0.068962         1.8765
  69   0.0000       0.109238         2.9725
  70   0.0000       0.117825         3.2062
  71   0.0000       0.122666         3.3379

MULLIKEN ATOMIC CHARGES
-----------------------
   0 S :    0.124394
   1 C :   -0.117024
   2 C :   -0.090418
   3 C :    0.047786
   4 C :   -0.171932
   5 H :   -0.045174
   6 C :    0.077818
   7 H :    0.010921
   8 H :    0.038760
   9 C :   -0.032814
  10 H :    0.017941
  11 H :    0.012422
  12 C :   -0.035481
  13 H :    0.037341
  14 H :   -0.000306
  15 H :    0.045048
  16 S :    0.083516
  17 C :   -0.079653
  18 C :   -0.066073
  19 C :   -0.016929
  20 C :   -0.137374
  21 H :    0.025101
  22 C :    0.032822
  23 H :    0.035379
  24 H :    0.039985
  25 C :   -0.085879
  26 H :    0.024747
  27 H :    0.020088
  28 C :   -0.023977
  29 H :    0.050653
  30 H :    0.019899
  31 H :    0.039867
  32 H :    0.047043
  33 H :    0.071503
Sum of atomic charges:    0.0000000

LOEWDIN ATOMIC CHARGES
----------------------
   0 S :    0.429130
   1 C :   -0.217672
   2 C :   -0.061063
   3 C :   -0.060751
   4 C :   -0.203466
   5 H :    0.018016
   6 C :   -0.026485
   7 H :    0.027884
   8 H :    0.035333
   9 C :   -0.027257
  10 H :    0.024360
  11 H :    0.017935
  12 C :   -0.073169
  13 H :    0.035472
  14 H :    0.017110
  15 H :    0.028724
  16 S :    0.382192
  17 C :   -0.197744
  18 C :   -0.076325
  19 C :   -0.051850
  20 C :   -0.173176
  21 H :    0.033878
  22 C :   -0.035523
  23 H :    0.035116
  24 H :    0.037559
  25 C :   -0.039956
  26 H :    0.016994
  27 H :    0.022488
  28 C :   -0.064970
  29 H :    0.031547
  30 H :    0.025359
  31 H :    0.027113
  32 H :    0.028493
  33 H :    0.034705

  Mayer bond orders larger than 0.100000
B(  0-S ,  1-C ) :   1.1669 B(  0-S ,  4-C ) :   1.1552 B(  1-C ,  2-C ) :   1.5731
B(  1-C ,  4-C ) :   0.1027 B(  1-C , 32-H ) :   0.9622 B(  2-C ,  3-C ) :   1.2645
B(  2-C ,  6-C ) :   1.0284 B(  3-C ,  4-C ) :   1.5426 B(  3-C ,  5-H ) :   0.9908
B(  4-C , 20-C ) :   1.0741 B(  6-C ,  7-H ) :   0.9370 B(  6-C ,  8-H ) :   0.9406
B(  6-C ,  9-C ) :   1.0718 B(  9-C , 10-H ) :   0.9589 B(  9-C , 11-H ) :   0.9593
B(  9-C , 12-C ) :   1.0507 B( 12-C , 13-H ) :   0.9681 B( 12-C , 14-H ) :   0.9695
B( 12-C , 15-H ) :   0.9775 B( 16-S , 17-C ) :   1.1552 B( 16-S , 20-C ) :   1.1273
B( 17-C , 18-C ) :   1.6275 B( 17-C , 33-H ) :   0.9566 B( 18-C , 19-C ) :   1.2324
B( 18-C , 21-H ) :   0.9843 B( 19-C , 20-C ) :   1.5834 B( 19-C , 22-C ) :   1.0415
B( 22-C , 23-H ) :   0.9350 B( 22-C , 24-H ) :   0.9347 B( 22-C , 25-C ) :   1.0555
B( 25-C , 26-H ) :   0.9490 B( 25-C , 27-H ) :   0.9536 B( 25-C , 28-C ) :   1.0741
B( 28-C , 29-H ) :   0.9741 B( 28-C , 30-H ) :   0.9709 B( 28-C , 31-H ) :   0.9705

Dispersion correction           -0.015563029
FINAL SINGLE POINT ENERGY     -1339.866263404668

DIPOLE MOMENT
-------------
                                X             Y             Z
Electronic contribution:     -1.33374     -31.83050      -8.28390
Nuclear contribution   :      1.47805      32.64693       8.40799
                        -----------------------------------------
Total Dipole Moment    :      0.14431       0.81643       0.12409
                        -----------------------------------------
Magnitude (a.u.)       :      0.83832
Magnitude (Debye)      :      2.13085

Rotational constants in cm-1:     0.016139     0.011262     0.007021
Rotational constants in MHz :   483.848492   337.619316   210.498930

                             ****ORCA TERMINATED NORMALLY****
TOTAL RUN TIME: 0 days 0 hours 0 minutes 32 seconds 619 msec
