                         Program Version 4.2.1 -  RELEASE  -
|  1> ! wB97X-D3 SP def2-SVP
|  2> %pal
|  3> nprocs 16
|  4> end
|  5>
|  6> * xyz 0 1
|  7> S 	 -0.759837 	 58.7859 	 48.6597
|  8> C 	 -1.83518 	 57.6709 	 49.5492
|  9> C 	 -2.94585 	 57.5035 	 48.7709
| 10> C 	 -3.02118 	 58.1988 	 47.5119
| 11> C 	 -1.83779 	 58.854 	 47.2402
| 12> H 	 -3.92036 	 58.1922 	 46.8767
| 13> C 	 -4.09668 	 56.5677 	 49.1687
| 14> H 	 -3.74173 	 55.8713 	 49.8983
| 15> H 	 -4.355 	 55.8868 	 48.3248
| 16> C 	 -5.29059 	 57.3109 	 49.8585
| 17> H 	 -4.97665 	 58.0971 	 50.5745
| 18> H 	 -5.7895 	 57.8725 	 49.0608
| 19> C 	 -6.40226 	 56.3469 	 50.4116
| 20> H 	 -7.21362 	 57.0629 	 50.7998
| 21> H 	 -6.82201 	 55.6816 	 49.6354
| 22> H 	 -5.96189 	 55.7652 	 51.2174
| 23> S 	 -0.359749 	 61.0434 	 46.2695
| 24> C 	 -0.330426 	 61.3734 	 44.5211
| 25> C 	 -0.87414 	 60.3376 	 43.8592
| 26> C 	 -1.6331 	 59.4157 	 44.6466
| 27> C 	 -1.4405 	 59.606 	 46.0364
| 28> H 	 -0.815416 	 60.2536 	 42.7998
| 29> C 	 -2.48916 	 58.345 	 43.9835
| 30> H 	 -3.39093 	 58.7709 	 43.4829
| 31> H 	 -2.88789 	 57.6633 	 44.6521
| 32> C 	 -1.75272 	 57.4597 	 43.0493
| 33> H 	 -1.18591 	 57.9962 	 42.3078
| 34> H 	 -2.45339 	 56.8938 	 42.5054
| 35> C 	 -0.71464 	 56.554 	 43.759
| 36> H 	 -1.0708 	 56.086 	 44.6801
| 37> H 	 0.0340072 	 57.2567 	 43.9987
| 38> H 	 -0.309482 	 55.7546 	 43.1715
| 39> H 	 -1.59664 	 57.0639 	 50.4712
| 40> H 	 0.363002 	 62.0588 	 43.9996
| 41> *
| 42>
| 43>                          ****END OF INPUT****

CARTESIAN COORDINATES (ANGSTROEM)
---------------------------------
  S     -0.759837   58.785900   48.659700
  C     -1.835180   57.670900   49.549200
  C     -2.945850   57.503500   48.770900
  C     -3.021180   58.198800   47.511900
  C     -1.837790   58.854000   47.240200
  H     -3.920360   58.192200   46.876700
  C     -4.096680   56.567700   49.168700
  H     -3.741730   55.871300   49.898300
  H     -4.355000   55.886800   48.324800
  C     -5.290590   57.310900   49.858500
  H     -4.976650   58.097100   50.574500
  H     -5.789500   57.872500   49.060800
  C     -6.402260   56.346900   50.411600
  H     -7.213620   57.062900   50.799800
  H     -6.822010   55.681600   49.635400
  H     -5.961890   55.765200   51.217400
  S     -0.359749   61.043400   46.269500
  C     -0.330426   61.373400   44.521100
  C     -0.874140   60.337600   43.859200
  C     -1.633100   59.415700   44.646600
  C     -1.440500   59.606000   46.036400
  H     -0.815416   60.253600   42.799800
  C     -2.489160   58.345000   43.983500
  H     -3.390930   58.770900   43.482900
  H     -2.887890   57.663300   44.652100
  C     -1.752720   57.459700   43.049300
  H     -1.185910   57.996200   42.307800
  H     -2.453390   56.893800   42.505400
  C     -0.714640   56.554000   43.759000
  H     -1.070800   56.086000   44.680100
  H      0.034007   57.256700   43.998700
  H     -0.309482   55.754600   43.171500
  H     -1.596640   57.063900   50.471200
  H      0.363002   62.058800   43.999600

 Total Charge           Charge          ....    0
 Multiplicity           Mult            ....    1
 Number of Electrons    NEL             ....  134
 Basis Dimension        Dim             ....  322

ORBITAL ENERGIES
----------------

  NO   OCC          E(Eh)            E(eV)
   0   2.0000     -88.965794     -2420.8823
   1   2.0000     -88.965056     -2420.8622
   2   2.0000     -10.340815      -281.3879
   3   2.0000     -10.340484      -281.3789
   4   2.0000     -10.321779      -280.8699
   5   2.0000     -10.320100      -280.8242
   6   2.0000     -10.311025      -280.5773
   7   2.0000     -10.302400      -280.3426
   8   2.0000     -10.300023      -280.2779
   9   2.0000     -10.292751      -280.0800
  10   2.0000     -10.292138      -280.0633
  11   2.0000     -10.291691      -280.0512
  12   2.0000     -10.289443      -279.9900
  13   2.0000     -10.287972      -279.9499
  14   2.0000     -10.277677      -279.6698
  15   2.0000     -10.266980      -279.3787
  16   2.0000      -8.079505      -219.8545
  17   2.0000      -8.078490      -219.8269
  18   2.0000      -6.038321      -164.3111
  19   2.0000      -6.037273      -164.2826
  20   2.0000      -6.034170      -164.1981
  21   2.0000      -6.033270      -164.1736
  22   2.0000      -6.029948      -164.0832
  23   2.0000      -6.028925      -164.0554
  24   2.0000      -1.000656       -27.2292
  25   2.0000      -0.980680       -26.6857
  26   2.0000      -0.918873       -25.0038
  27   2.0000      -0.902460       -24.5572
  28   2.0000      -0.868382       -23.6299
  29   2.0000      -0.845830       -23.0162
  30   2.0000      -0.837967       -22.8022
  31   2.0000      -0.818102       -22.2617
  32   2.0000      -0.784847       -21.3568
  33   2.0000      -0.769059       -20.9272
  34   2.0000      -0.710606       -19.3366
  35   2.0000      -0.698465       -19.0062
  36   2.0000      -0.694762       -18.9054
  37   2.0000      -0.656276       -17.8582
  38   2.0000      -0.637058       -17.3352
  39   2.0000      -0.622947       -16.9512
  40   2.0000      -0.606592       -16.5062
  41   2.0000      -0.564023       -15.3479
  42   2.0000      -0.559479       -15.2242
  43   2.0000      -0.554998       -15.1023
  44   2.0000      -0.540468       -14.7069
  45   2.0000      -0.522527       -14.2187
  46   2.0000      -0.516558       -14.0563
  47   2.0000      -0.509384       -13.8610
  48   2.0000      -0.503433       -13.6991
  49   2.0000      -0.500203       -13.6112
  50   2.0000      -0.492947       -13.4138
  51   2.0000      -0.476562       -12.9679
  52   2.0000      -0.471958       -12.8426
  53   2.0000      -0.464105       -12.6289
  54   2.0000      -0.459085       -12.4923
  55   2.0000      -0.449606       -12.2344
  56   2.0000      -0.448512       -12.2046
  57   2.0000      -0.440753       -11.9935
  58   2.0000      -0.432184       -11.7603
  59   2.0000      -0.422031       -11.4841
  60   2.0000      -0.414282       -11.2732
  61   2.0000      -0.412453       -11.2234
  62   2.0000      -0.404982       -11.0201
  63   2.0000      -0.359970        -9.7953
  64   2.0000      -0.332226        -9.0403
  65   2.0000      -0.327270        -8.9055
  66   2.0000      -0.290451        -7.9036
  67   0.0000       0.017750         0.4830
  68   0.0000       0.071308         1.9404
  69   0.0000       0.099423         2.7054
  70   0.0000       0.116269         3.1638
  71   0.0000       0.135839         3.6964

MULLIKEN ATOMIC CHARGES
-----------------------
   0 S :    0.084591
   1 C :   -0.130953
   2 C :   -0.100987
   3 C :    0.015598
   4 C :   -0.106913
   5 H :    0.034848
   6 C :    0.048830
   7 H :   -0.001792
   8 H :    0.033925
   9 C :   -0.096371
  10 H :    0.045862
  11 H :    0.021033
  12 C :   -0.069369
  13 H :    0.051795
  14 H :    0.043502
  15 H :    0.038334
  16 S :    0.075812
  17 C :   -0.074915
  18 C :   -0.032250
  19 C :   -0.061253
  20 C :   -0.136733
  21 H :    0.013790
  22 C :    0.109025
  23 H :    0.043459
  24 H :   -0.012113
  25 C :   -0.064124
  26 H :    0.014608
  27 H :    0.010751
  28 C :   -0.041296
  29 H :    0.028558
  30 H :    0.031534
  31 H :    0.031621
  32 H :    0.079396
  33 H :    0.072197
Sum of atomic charges:   -0.0000000

LOEWDIN ATOMIC CHARGES
----------------------
   0 S :    0.371930
   1 C :   -0.199543
   2 C :   -0.063745
   3 C :   -0.069955
   4 C :   -0.168876
   5 H :    0.038570
   6 C :   -0.037837
   7 H :    0.018869
   8 H :    0.033076
   9 C :   -0.045163
  10 H :    0.030914
  11 H :    0.019617
  12 C :   -0.070008
  13 H :    0.038682
  14 H :    0.027756
  15 H :    0.020881
  16 S :    0.361515
  17 C :   -0.177358
  18 C :   -0.068505
  19 C :   -0.050735
  20 C :   -0.171769
  21 H :    0.027192
  22 C :   -0.028768
  23 H :    0.040254
  24 H :    0.018875
  25 C :   -0.033137
  26 H :    0.016649
  27 H :    0.015610
  28 C :   -0.058032
  29 H :    0.024748
  30 H :    0.023560
  31 H :    0.023325
  32 H :    0.050277
  33 H :    0.041132

  Mayer bond orders larger than 0.100000
B(  0-S ,  1-C ) :   1.0989 B(  0-S ,  4-C ) :   1.1419 B(  1-C ,  2-C ) :   1.6477
B(  1-C , 32-H ) :   0.9601 B(  2-C ,  3-C ) :   1.2164 B(  2-C ,  6-C ) :   1.0274
B(  3-C ,  4-C ) :   1.5727 B(  3-C ,  5-H ) :   0.9899 B(  4-C , 20-C ) :   1.0668
B(  6-C ,  7-H ) :   0.9436 B(  6-C ,  8-H ) :   0.9460 B(  6-C ,  9-C ) :   1.0438
B(  9-C , 10-H ) :   0.9591 B(  9-C , 11-H ) :   0.9584 B(  9-C , 12-C ) :   1.0708
B( 12-C , 13-H ) :   0.9752 B( 12-C , 14-H ) :   0.9754 B( 12-C , 15-H ) :   0.9789
B( 16-S , 17-C ) :   1.1259 B( 16-S , 20-C ) :   1.1222 B( 17-C , 18-C ) :   1.6525
B( 17-C , 33-H ) :   0.9566 B( 18-C , 19-C ) :   1.2290 B( 18-C , 21-H ) :   0.9849
B( 19-C , 20-C ) :   1.5876 B( 19-C , 22-C ) :   1.0423 B( 22-C , 23-H ) :   0.9313
B( 22-C , 24-H ) :   0.9269 B( 22-C , 25-C ) :   1.0816 B( 25-C , 26-H ) :   0.9584
B( 25-C , 27-H ) :   0.9511 B( 25-C , 28-C ) :   1.0601 B( 28-C , 29-H ) :   0.9769
B( 28-C , 30-H ) :   0.9775 B( 28-C , 31-H ) :   0.9763

Dispersion correction           -0.014079354
FINAL SINGLE POINT ENERGY     -1339.867999634057

DIPOLE MOMENT
-------------
                                X             Y             Z
Electronic contribution:     17.95519      19.19466       3.65710
Nuclear contribution   :    -18.40083     -19.72859      -4.04713
                        -----------------------------------------
Total Dipole Moment    :     -0.44564      -0.53393      -0.39004
                        -----------------------------------------
Magnitude (a.u.)       :      0.79737
Magnitude (Debye)      :      2.02676

Rotational constants in cm-1:     0.020522     0.007686     0.006460
Rotational constants in MHz :   615.246610   230.424429   193.680780

                             ****ORCA TERMINATED NORMALLY****
TOTAL RUN TIME: 0 days 0 hours 0 minutes 32 seconds 622 msec
