                         Program Version 4.2.1 -  RELEASE  -
|  1> ! wB97X-D3 SP def2-SVP
|  2> %pal
|  3> nprocs 16
|  4> end
|  5>
|  6> * xyz 0 1
|  7> S 	 49.9282 	 5.2078 	 87.6764
|  8> C 	 49.1244 	 4.74949 	 86.1863
|  9> C 	 48.2245 	 3.76159 	 86.3818
| 10> C 	 48.4691 	 3.13573 	 87.6327
| 11> C 	 49.3843 	 3.77224 	 88.4343
| 12> H 	 47.9829 	 2.27775 	 88.0512
| 13> C 	 47.2355 	 3.15039 	 85.4075
| 14> H 	 46.4471 	 3.87631 	 85.4043
| 15> H 	 46.8775 	 2.1946 	 85.8983
| 16> C 	 47.6889 	 2.88534 	 83.9579
| 17> H 	 48.2182 	 3.76597 	 83.6842
| 18> H 	 48.4001 	 2.02477 	 83.8723
| 19> C 	 46.483 	 2.63616 	 82.9899
| 20> H 	 46.0677 	 1.57784 	 82.9866
| 21> H 	 45.7448 	 3.42208 	 83.2075
| 22> H 	 46.8843 	 2.71347 	 81.991
| 23> S 	 49.926 	 4.67116 	 90.867
| 24> C 	 50.4438 	 3.61462 	 92.0877
| 25> C 	 50.179 	 2.30863 	 91.7711
| 26> C 	 49.8929 	 2.16001 	 90.3716
| 27> C 	 49.7791 	 3.36185 	 89.7381
| 28> H 	 50.2783 	 1.48437 	 92.4659
| 29> C 	 49.7754 	 0.864031 	 89.6782
| 30> H 	 48.8485 	 0.834186 	 89.1999
| 31> H 	 49.5878 	 0.251744 	 90.5585
| 32> C 	 51.0115 	 0.549676 	 88.8135
| 33> H 	 51.4044 	 1.4663 	 88.3908
| 34> H 	 50.6515 	 -0.0838605 	 87.9298
| 35> C 	 52.1083 	 -0.092975 	 89.558
| 36> H 	 51.8776 	 -1.05253 	 89.9612
| 37> H 	 52.4719 	 0.452646 	 90.4127
| 38> H 	 53.0413 	 -0.199827 	 88.8643
| 39> H 	 49.3726 	 5.16032 	 85.2095
| 40> H 	 50.7624 	 3.93938 	 93.089
| 41> *
| 42>
| 43>                          ****END OF INPUT****

CARTESIAN COORDINATES (ANGSTROEM)
---------------------------------
  S     49.928200    5.207800   87.676400
  C     49.124400    4.749490   86.186300
  C     48.224500    3.761590   86.381800
  C     48.469100    3.135730   87.632700
  C     49.384300    3.772240   88.434300
  H     47.982900    2.277750   88.051200
  C     47.235500    3.150390   85.407500
  H     46.447100    3.876310   85.404300
  H     46.877500    2.194600   85.898300
  C     47.688900    2.885340   83.957900
  H     48.218200    3.765970   83.684200
  H     48.400100    2.024770   83.872300
  C     46.483000    2.636160   82.989900
  H     46.067700    1.577840   82.986600
  H     45.744800    3.422080   83.207500
  H     46.884300    2.713470   81.991000
  S     49.926000    4.671160   90.867000
  C     50.443800    3.614620   92.087700
  C     50.179000    2.308630   91.771100
  C     49.892900    2.160010   90.371600
  C     49.779100    3.361850   89.738100
  H     50.278300    1.484370   92.465900
  C     49.775400    0.864031   89.678200
  H     48.848500    0.834186   89.199900
  H     49.587800    0.251744   90.558500
  C     51.011500    0.549676   88.813500
  H     51.404400    1.466300   88.390800
  H     50.651500   -0.083861   87.929800
  C     52.108300   -0.092975   89.558000
  H     51.877600   -1.052530   89.961200
  H     52.471900    0.452646   90.412700
  H     53.041300   -0.199827   88.864300
  H     49.372600    5.160320   85.209500
  H     50.762400    3.939380   93.089000

 Total Charge           Charge          ....    0
 Multiplicity           Mult            ....    1
 Number of Electrons    NEL             ....  134
 Basis Dimension        Dim             ....  322

ORBITAL ENERGIES
----------------

  NO   OCC          E(Eh)            E(eV)
   0   2.0000     -88.963696     -2420.8252
   1   2.0000     -88.959536     -2420.7120
   2   2.0000     -10.319652      -280.8120
   3   2.0000     -10.314342      -280.6675
   4   2.0000     -10.311372      -280.5867
   5   2.0000     -10.310069      -280.5512
   6   2.0000     -10.297203      -280.2011
   7   2.0000     -10.295603      -280.1576
   8   2.0000     -10.293077      -280.0889
   9   2.0000     -10.292876      -280.0834
  10   2.0000     -10.291187      -280.0374
  11   2.0000     -10.287952      -279.9494
  12   2.0000     -10.287287      -279.9313
  13   2.0000     -10.285815      -279.8912
  14   2.0000     -10.280915      -279.7579
  15   2.0000     -10.274663      -279.5878
  16   2.0000      -8.079276      -219.8483
  17   2.0000      -8.076125      -219.7625
  18   2.0000      -6.037851      -164.2983
  19   2.0000      -6.034524      -164.2077
  20   2.0000      -6.033738      -164.1864
  21   2.0000      -6.030454      -164.0970
  22   2.0000      -6.029838      -164.0802
  23   2.0000      -6.026816      -163.9980
  24   2.0000      -1.019194       -27.7337
  25   2.0000      -0.993754       -27.0414
  26   2.0000      -0.918153       -24.9842
  27   2.0000      -0.912797       -24.8385
  28   2.0000      -0.874110       -23.7857
  29   2.0000      -0.857291       -23.3281
  30   2.0000      -0.847248       -23.0548
  31   2.0000      -0.813104       -22.1257
  32   2.0000      -0.784634       -21.3510
  33   2.0000      -0.774489       -21.0749
  34   2.0000      -0.711409       -19.3584
  35   2.0000      -0.704643       -19.1743
  36   2.0000      -0.690876       -18.7997
  37   2.0000      -0.669786       -18.2258
  38   2.0000      -0.639251       -17.3949
  39   2.0000      -0.616491       -16.7756
  40   2.0000      -0.596330       -16.2270
  41   2.0000      -0.570564       -15.5258
  42   2.0000      -0.564629       -15.3643
  43   2.0000      -0.550636       -14.9836
  44   2.0000      -0.541737       -14.7414
  45   2.0000      -0.528275       -14.3751
  46   2.0000      -0.526681       -14.3317
  47   2.0000      -0.512274       -13.9397
  48   2.0000      -0.501682       -13.6515
  49   2.0000      -0.500221       -13.6117
  50   2.0000      -0.490193       -13.3388
  51   2.0000      -0.479673       -13.0526
  52   2.0000      -0.475085       -12.9277
  53   2.0000      -0.473583       -12.8869
  54   2.0000      -0.463455       -12.6112
  55   2.0000      -0.449067       -12.2197
  56   2.0000      -0.442322       -12.0362
  57   2.0000      -0.440868       -11.9966
  58   2.0000      -0.430988       -11.7278
  59   2.0000      -0.427015       -11.6197
  60   2.0000      -0.418052       -11.3758
  61   2.0000      -0.415515       -11.3067
  62   2.0000      -0.407867       -11.0986
  63   2.0000      -0.353176        -9.6104
  64   2.0000      -0.331498        -9.0205
  65   2.0000      -0.327893        -8.9224
  66   2.0000      -0.282663        -7.6917
  67   0.0000       0.026778         0.7287
  68   0.0000       0.076797         2.0898
  69   0.0000       0.101225         2.7545
  70   0.0000       0.126002         3.4287
  71   0.0000       0.140456         3.8220

MULLIKEN ATOMIC CHARGES
-----------------------
   0 S :    0.115309
   1 C :   -0.161047
   2 C :   -0.033413
   3 C :   -0.015534
   4 C :   -0.124249
   5 H :   -0.009100
   6 C :    0.076724
   7 H :    0.030559
   8 H :    0.031726
   9 C :   -0.086482
  10 H :    0.019009
  11 H :    0.041788
  12 C :   -0.064314
  13 H :    0.049313
  14 H :    0.040200
  15 H :    0.031577
  16 S :    0.099977
  17 C :   -0.087188
  18 C :   -0.029028
  19 C :   -0.127854
  20 C :   -0.121377
  21 H :    0.013769
  22 C :    0.116417
  23 H :    0.000715
  24 H :    0.002299
  25 C :   -0.032513
  26 H :    0.040447
  27 H :    0.037498
  28 C :   -0.050554
  29 H :    0.017296
  30 H :    0.026580
  31 H :    0.041358
  32 H :    0.050751
  33 H :    0.059343
Sum of atomic charges:   -0.0000000

LOEWDIN ATOMIC CHARGES
----------------------
   0 S :    0.411641
   1 C :   -0.196079
   2 C :   -0.063219
   3 C :   -0.063910
   4 C :   -0.208272
   5 H :    0.023971
   6 C :   -0.030764
   7 H :    0.031419
   8 H :    0.034934
   9 C :   -0.038997
  10 H :    0.016417
  11 H :    0.030239
  12 C :   -0.068873
  13 H :    0.034691
  14 H :    0.027102
  15 H :    0.025224
  16 S :    0.424448
  17 C :   -0.201757
  18 C :   -0.073530
  19 C :   -0.063412
  20 C :   -0.196182
  21 H :    0.029459
  22 C :   -0.031655
  23 H :    0.018686
  24 H :    0.032047
  25 C :   -0.036705
  26 H :    0.029990
  27 H :    0.033221
  28 C :   -0.067841
  29 H :    0.017000
  30 H :    0.023294
  31 H :    0.037829
  32 H :    0.027507
  33 H :    0.032079

  Mayer bond orders larger than 0.100000
B(  0-S ,  1-C ) :   1.1295 B(  0-S ,  4-C ) :   1.1424 B(  1-C ,  2-C ) :   1.6130
B(  1-C , 32-H ) :   0.9691 B(  2-C ,  3-C ) :   1.2288 B(  2-C ,  6-C ) :   1.0067
B(  3-C ,  4-C ) :   1.5725 B(  3-C ,  5-H ) :   0.9988 B(  4-C , 20-C ) :   1.0656
B(  6-C ,  7-H ) :   0.9239 B(  6-C ,  8-H ) :   0.9476 B(  6-C ,  9-C ) :   1.0710
B(  9-C , 10-H ) :   0.9554 B(  9-C , 11-H ) :   0.9574 B(  9-C , 12-C ) :   1.0772
B( 12-C , 13-H ) :   0.9766 B( 12-C , 14-H ) :   0.9763 B( 12-C , 15-H ) :   0.9745
B( 16-S , 17-C ) :   1.1674 B( 16-S , 20-C ) :   1.1409 B( 17-C , 18-C ) :   1.5934
B( 17-C , 33-H ) :   0.9654 B( 18-C , 19-C ) :   1.2484 B( 18-C , 21-H ) :   0.9897
B( 19-C , 20-C ) :   1.6064 B( 19-C , 22-C ) :   1.0370 B( 22-C , 23-H ) :   0.9263
B( 22-C , 24-H ) :   0.9232 B( 22-C , 25-C ) :   1.0421 B( 25-C , 26-H ) :   0.9586
B( 25-C , 27-H ) :   0.9522 B( 25-C , 28-C ) :   1.0898 B( 28-C , 29-H ) :   0.9729
B( 28-C , 30-H ) :   0.9710 B( 28-C , 31-H ) :   0.9693

Dispersion correction           -0.014259090
FINAL SINGLE POINT ENERGY     -1339.863780708731

DIPOLE MOMENT
-------------
                                X             Y             Z
Electronic contribution:      4.34429      21.07401      17.24037
Nuclear contribution   :     -4.57510     -21.63509     -17.52931
                        -----------------------------------------
Total Dipole Moment    :     -0.23081      -0.56107      -0.28894
                        -----------------------------------------
Magnitude (a.u.)       :      0.67199
Magnitude (Debye)      :      1.70805

Rotational constants in cm-1:     0.021778     0.007972     0.006485
Rotational constants in MHz :   652.884146   238.998874   194.413889

                             ****ORCA TERMINATED NORMALLY****
TOTAL RUN TIME: 0 days 0 hours 0 minutes 31 seconds 259 msec
