                         Program Version 4.2.1 -  RELEASE  -
|  1> ! wB97X-D3 SP def2-SVP
|  2> %pal
|  3> nprocs 16
|  4> end
|  5>
|  6> * xyz 0 1
|  7> S 	 -73.5479 	 48.9607 	 137.831
|  8> C 	 -72.8584 	 47.4909 	 138.367
|  9> C 	 -71.9086 	 47.0227 	 137.434
| 10> C 	 -71.9854 	 47.7748 	 136.194
| 11> C 	 -72.6078 	 49.0053 	 136.39
| 12> H 	 -71.5461 	 47.5046 	 135.195
| 13> C 	 -71.1251 	 45.7237 	 137.456
| 14> H 	 -71.0622 	 45.4019 	 138.48
| 15> H 	 -70.0931 	 45.896 	 137.029
| 16> C 	 -71.8958 	 44.6374 	 136.627
| 17> H 	 -73.0061 	 44.642 	 136.677
| 18> H 	 -71.569 	 44.8677 	 135.646
| 19> C 	 -71.4368 	 43.2282 	 136.901
| 20> H 	 -71.5957 	 42.5297 	 136.07
| 21> H 	 -70.3579 	 43.3053 	 137.002
| 22> H 	 -71.9427 	 42.8346 	 137.749
| 23> S 	 -71.3475 	 50.7232 	 134.624
| 24> C 	 -72.2413 	 51.8003 	 133.662
| 25> C 	 -73.6 	 51.6303 	 133.83
| 26> C 	 -73.9259 	 50.7065 	 134.892
| 27> C 	 -72.7945 	 50.0959 	 135.457
| 28> H 	 -74.1756 	 52.352 	 133.212
| 29> C 	 -75.4147 	 50.5705 	 135.278
| 30> H 	 -75.4763 	 49.6132 	 135.741
| 31> H 	 -75.9496 	 50.4018 	 134.323
| 32> C 	 -75.8713 	 51.7862 	 136.132
| 33> H 	 -75.8384 	 52.7693 	 135.559
| 34> H 	 -75.2815 	 51.9252 	 137.11
| 35> C 	 -77.3609 	 51.502 	 136.511
| 36> H 	 -77.8871 	 52.2677 	 137.094
| 37> H 	 -77.5298 	 50.5233 	 136.871
| 38> H 	 -77.9761 	 51.5547 	 135.632
| 39> H 	 -73.0818 	 46.9164 	 139.281
| 40> H 	 -71.8536 	 52.5742 	 133.095
| 41> *
| 42>
| 43>                          ****END OF INPUT****

CARTESIAN COORDINATES (ANGSTROEM)
---------------------------------
  S    -73.547900   48.960700  137.831000
  C    -72.858400   47.490900  138.367000
  C    -71.908600   47.022700  137.434000
  C    -71.985400   47.774800  136.194000
  C    -72.607800   49.005300  136.390000
  H    -71.546100   47.504600  135.195000
  C    -71.125100   45.723700  137.456000
  H    -71.062200   45.401900  138.480000
  H    -70.093100   45.896000  137.029000
  C    -71.895800   44.637400  136.627000
  H    -73.006100   44.642000  136.677000
  H    -71.569000   44.867700  135.646000
  C    -71.436800   43.228200  136.901000
  H    -71.595700   42.529700  136.070000
  H    -70.357900   43.305300  137.002000
  H    -71.942700   42.834600  137.749000
  S    -71.347500   50.723200  134.624000
  C    -72.241300   51.800300  133.662000
  C    -73.600000   51.630300  133.830000
  C    -73.925900   50.706500  134.892000
  C    -72.794500   50.095900  135.457000
  H    -74.175600   52.352000  133.212000
  C    -75.414700   50.570500  135.278000
  H    -75.476300   49.613200  135.741000
  H    -75.949600   50.401800  134.323000
  C    -75.871300   51.786200  136.132000
  H    -75.838400   52.769300  135.559000
  H    -75.281500   51.925200  137.110000
  C    -77.360900   51.502000  136.511000
  H    -77.887100   52.267700  137.094000
  H    -77.529800   50.523300  136.871000
  H    -77.976100   51.554700  135.632000
  H    -73.081800   46.916400  139.281000
  H    -71.853600   52.574200  133.095000

 Total Charge           Charge          ....    0
 Multiplicity           Mult            ....    1
 Number of Electrons    NEL             ....  134
 Basis Dimension        Dim             ....  322

ORBITAL ENERGIES
----------------

  NO   OCC          E(Eh)            E(eV)
   0   2.0000     -88.966505     -2420.9017
   1   2.0000     -88.962019     -2420.7796
   2   2.0000     -10.329010      -281.0667
   3   2.0000     -10.327243      -281.0186
   4   2.0000     -10.314966      -280.6845
   5   2.0000     -10.308715      -280.5144
   6   2.0000     -10.308019      -280.4955
   7   2.0000     -10.304147      -280.3901
   8   2.0000     -10.302551      -280.3467
   9   2.0000     -10.298587      -280.2388
  10   2.0000     -10.296836      -280.1912
  11   2.0000     -10.293951      -280.1126
  12   2.0000     -10.293478      -280.0998
  13   2.0000     -10.283164      -279.8191
  14   2.0000     -10.272351      -279.5249
  15   2.0000     -10.270490      -279.4742
  16   2.0000      -8.081887      -219.9193
  17   2.0000      -8.077243      -219.7930
  18   2.0000      -6.040336      -164.3659
  19   2.0000      -6.036234      -164.2543
  20   2.0000      -6.035701      -164.2398
  21   2.0000      -6.032750      -164.1595
  22   2.0000      -6.031514      -164.1259
  23   2.0000      -6.028202      -164.0357
  24   2.0000      -1.007800       -27.4236
  25   2.0000      -0.985437       -26.8151
  26   2.0000      -0.912746       -24.8371
  27   2.0000      -0.902831       -24.5673
  28   2.0000      -0.870686       -23.6926
  29   2.0000      -0.850161       -23.1340
  30   2.0000      -0.843952       -22.9651
  31   2.0000      -0.811086       -22.0708
  32   2.0000      -0.780650       -21.2426
  33   2.0000      -0.768216       -20.9042
  34   2.0000      -0.706069       -19.2131
  35   2.0000      -0.698996       -19.0207
  36   2.0000      -0.690639       -18.7932
  37   2.0000      -0.659327       -17.9412
  38   2.0000      -0.634327       -17.2609
  39   2.0000      -0.615664       -16.7531
  40   2.0000      -0.590959       -16.0808
  41   2.0000      -0.578206       -15.7338
  42   2.0000      -0.563505       -15.3337
  43   2.0000      -0.554437       -15.0870
  44   2.0000      -0.530729       -14.4419
  45   2.0000      -0.523778       -14.2527
  46   2.0000      -0.512712       -13.9516
  47   2.0000      -0.510902       -13.9024
  48   2.0000      -0.507558       -13.8114
  49   2.0000      -0.498466       -13.5640
  50   2.0000      -0.495552       -13.4847
  51   2.0000      -0.474622       -12.9151
  52   2.0000      -0.467379       -12.7180
  53   2.0000      -0.463862       -12.6223
  54   2.0000      -0.459885       -12.5141
  55   2.0000      -0.447180       -12.1684
  56   2.0000      -0.443607       -12.0712
  57   2.0000      -0.436821       -11.8865
  58   2.0000      -0.431626       -11.7451
  59   2.0000      -0.422074       -11.4852
  60   2.0000      -0.417923       -11.3723
  61   2.0000      -0.413875       -11.2621
  62   2.0000      -0.410083       -11.1589
  63   2.0000      -0.348105        -9.4724
  64   2.0000      -0.328279        -8.9329
  65   2.0000      -0.322194        -8.7673
  66   2.0000      -0.288816        -7.8591
  67   0.0000       0.033188         0.9031
  68   0.0000       0.071175         1.9368
  69   0.0000       0.104684         2.8486
  70   0.0000       0.126258         3.4357
  71   0.0000       0.131526         3.5790

MULLIKEN ATOMIC CHARGES
-----------------------
   0 S :    0.118188
   1 C :   -0.116610
   2 C :   -0.107895
   3 C :   -0.010950
   4 C :   -0.156187
   5 H :    0.043336
   6 C :    0.053337
   7 H :    0.015482
   8 H :    0.049487
   9 C :   -0.086419
  10 H :    0.045278
  11 H :    0.015728
  12 C :   -0.030292
  13 H :    0.032493
  14 H :    0.022669
  15 H :    0.031907
  16 S :    0.105182
  17 C :   -0.069079
  18 C :   -0.057967
  19 C :   -0.043246
  20 C :   -0.151675
  21 H :    0.031987
  22 C :    0.074791
  23 H :    0.012692
  24 H :    0.035898
  25 C :   -0.097753
  26 H :    0.047769
  27 H :    0.057572
  28 C :   -0.015646
  29 H :    0.030428
  30 H :    0.022490
  31 H :    0.006050
  32 H :    0.057962
  33 H :    0.032995
Sum of atomic charges:    0.0000000

LOEWDIN ATOMIC CHARGES
----------------------
   0 S :    0.443268
   1 C :   -0.224661
   2 C :   -0.059721
   3 C :   -0.069686
   4 C :   -0.207672
   5 H :    0.039868
   6 C :   -0.031655
   7 H :    0.021680
   8 H :    0.040817
   9 C :   -0.039217
  10 H :    0.029463
  11 H :    0.017428
  12 C :   -0.063826
  13 H :    0.028165
  14 H :    0.024865
  15 H :    0.019799
  16 S :    0.414456
  17 C :   -0.188906
  18 C :   -0.082515
  19 C :   -0.049059
  20 C :   -0.201902
  21 H :    0.038840
  22 C :   -0.033396
  23 H :    0.017620
  24 H :    0.038363
  25 C :   -0.039178
  26 H :    0.033053
  27 H :    0.035840
  28 C :   -0.071902
  29 H :    0.026057
  30 H :    0.018969
  31 H :    0.021263
  32 H :    0.036187
  33 H :    0.017294

  Mayer bond orders larger than 0.100000
B(  0-S ,  1-C ) :   1.1496 B(  0-S ,  4-C ) :   1.1643 B(  1-C ,  2-C ) :   1.5892
B(  1-C , 32-H ) :   0.9654 B(  2-C ,  3-C ) :   1.2332 B(  2-C ,  6-C ) :   1.0475
B(  3-C ,  4-C ) :   1.5691 B(  3-C ,  5-H ) :   0.9800 B(  4-C , 20-C ) :   1.0425
B(  6-C ,  7-H ) :   0.9462 B(  6-C ,  8-H ) :   0.9352 B(  6-C ,  9-C ) :   1.0441
B(  9-C , 10-H ) :   0.9650 B(  9-C , 11-H ) :   0.9521 B(  9-C , 12-C ) :   1.0918
B( 12-C , 13-H ) :   0.9730 B( 12-C , 14-H ) :   0.9692 B( 12-C , 15-H ) :   0.9783
B( 16-S , 17-C ) :   1.1729 B( 16-S , 20-C ) :   1.1351 B( 17-C , 18-C ) :   1.6144
B( 17-C , 33-H ) :   0.9719 B( 18-C , 19-C ) :   1.2298 B( 18-C , 21-H ) :   0.9859
B( 19-C , 20-C ) :   1.5748 B( 19-C , 22-C ) :   1.0335 B( 22-C , 23-H ) :   0.9312
B( 22-C , 24-H ) :   0.9370 B( 22-C , 25-C ) :   1.0474 B( 25-C , 26-H ) :   0.9579
B( 25-C , 27-H ) :   0.9573 B( 25-C , 28-C ) :   1.0734 B( 28-C , 29-H ) :   0.9740
B( 28-C , 30-H ) :   0.9752 B( 28-C , 31-H ) :   0.9696

Dispersion correction           -0.014016572
FINAL SINGLE POINT ENERGY     -1339.860689569228

DIPOLE MOMENT
-------------
                                X             Y             Z
Electronic contribution:     10.33258      13.28610      -1.60995
Nuclear contribution   :    -10.60792     -13.52572       1.37161
                        -----------------------------------------
Total Dipole Moment    :     -0.27533      -0.23962      -0.23834
                        -----------------------------------------
Magnitude (a.u.)       :      0.43593
Magnitude (Debye)      :      1.10804

Rotational constants in cm-1:     0.020812     0.007610     0.006205
Rotational constants in MHz :   623.917288   228.136598   186.006903

                             ****ORCA TERMINATED NORMALLY****
TOTAL RUN TIME: 0 days 0 hours 0 minutes 33 seconds 182 msec
