                         Program Version 4.2.1 -  RELEASE  -
|  1> ! wB97X-D3 SP def2-SVP
|  2> %pal
|  3> nprocs 16
|  4> end
|  5>
|  6> * xyz 0 1
|  7> S 	 -63.2604 	 49.1863 	 126.451
|  8> C 	 -62.6618 	 47.8419 	 125.601
|  9> C 	 -62.1645 	 48.1631 	 124.354
| 10> C 	 -62.212 	 49.5987 	 124.073
| 11> C 	 -62.644 	 50.3213 	 125.222
| 12> H 	 -61.8376 	 50.1109 	 123.187
| 13> C 	 -61.6869 	 47.1261 	 123.416
| 14> H 	 -61.9703 	 46.1522 	 123.844
| 15> H 	 -60.5498 	 47.1817 	 123.374
| 16> C 	 -62.3302 	 47.2671 	 122.02
| 17> H 	 -63.3826 	 47.4678 	 122.052
| 18> H 	 -61.8172 	 48.1219 	 121.559
| 19> C 	 -62.2174 	 46.0149 	 121.12
| 20> H 	 -62.6774 	 45.1294 	 121.509
| 21> H 	 -62.7872 	 46.3062 	 120.179
| 22> H 	 -61.1626 	 45.7939 	 120.809
| 23> S 	 -64.2874 	 52.5773 	 125.393
| 24> C 	 -63.5298 	 54.1553 	 125.359
| 25> C 	 -62.1821 	 54.0949 	 125.647
| 26> C 	 -61.6546 	 52.7739 	 125.541
| 27> C 	 -62.6702 	 51.815 	 125.453
| 28> H 	 -61.5369 	 54.9881 	 125.776
| 29> C 	 -60.1855 	 52.4457 	 125.705
| 30> H 	 -60.0892 	 51.3548 	 125.773
| 31> H 	 -59.7496 	 52.8637 	 126.604
| 32> C 	 -59.3605 	 52.9777 	 124.5
| 33> H 	 -59.4387 	 54.0746 	 124.373
| 34> H 	 -59.9067 	 52.5349 	 123.625
| 35> C 	 -57.9368 	 52.3973 	 124.43
| 36> H 	 -57.3559 	 52.4766 	 125.414
| 37> H 	 -57.3368 	 52.8823 	 123.712
| 38> H 	 -57.9252 	 51.356 	 124.138
| 39> H 	 -62.6265 	 46.8924 	 126.046
| 40> H 	 -64.0857 	 55.0947 	 125.279
| 41> *
| 42>
| 43>                          ****END OF INPUT****

CARTESIAN COORDINATES (ANGSTROEM)
---------------------------------
  S    -63.260400   49.186300  126.451000
  C    -62.661800   47.841900  125.601000
  C    -62.164500   48.163100  124.354000
  C    -62.212000   49.598700  124.073000
  C    -62.644000   50.321300  125.222000
  H    -61.837600   50.110900  123.187000
  C    -61.686900   47.126100  123.416000
  H    -61.970300   46.152200  123.844000
  H    -60.549800   47.181700  123.374000
  C    -62.330200   47.267100  122.020000
  H    -63.382600   47.467800  122.052000
  H    -61.817200   48.121900  121.559000
  C    -62.217400   46.014900  121.120000
  H    -62.677400   45.129400  121.509000
  H    -62.787200   46.306200  120.179000
  H    -61.162600   45.793900  120.809000
  S    -64.287400   52.577300  125.393000
  C    -63.529800   54.155300  125.359000
  C    -62.182100   54.094900  125.647000
  C    -61.654600   52.773900  125.541000
  C    -62.670200   51.815000  125.453000
  H    -61.536900   54.988100  125.776000
  C    -60.185500   52.445700  125.705000
  H    -60.089200   51.354800  125.773000
  H    -59.749600   52.863700  126.604000
  C    -59.360500   52.977700  124.500000
  H    -59.438700   54.074600  124.373000
  H    -59.906700   52.534900  123.625000
  C    -57.936800   52.397300  124.430000
  H    -57.355900   52.476600  125.414000
  H    -57.336800   52.882300  123.712000
  H    -57.925200   51.356000  124.138000
  H    -62.626500   46.892400  126.046000
  H    -64.085700   55.094700  125.279000

 Total Charge           Charge          ....    0
 Multiplicity           Mult            ....    1
 Number of Electrons    NEL             ....  134
 Basis Dimension        Dim             ....  322

ORBITAL ENERGIES
----------------

  NO   OCC          E(Eh)            E(eV)
   0   2.0000     -88.965093     -2420.8632
   1   2.0000     -88.963347     -2420.8158
   2   2.0000     -10.338676      -281.3297
   3   2.0000     -10.332152      -281.1522
   4   2.0000     -10.320382      -280.8319
   5   2.0000     -10.306125      -280.4439
   6   2.0000     -10.305422      -280.4248
   7   2.0000     -10.304662      -280.4041
   8   2.0000     -10.299952      -280.2759
   9   2.0000     -10.296691      -280.1872
  10   2.0000     -10.294168      -280.1186
  11   2.0000     -10.292065      -280.0613
  12   2.0000     -10.290890      -280.0294
  13   2.0000     -10.287399      -279.9344
  14   2.0000     -10.284828      -279.8644
  15   2.0000     -10.279527      -279.7202
  16   2.0000      -8.079440      -219.8527
  17   2.0000      -8.078654      -219.8313
  18   2.0000      -6.037987      -164.3020
  19   2.0000      -6.037055      -164.2766
  20   2.0000      -6.034121      -164.1968
  21   2.0000      -6.033065      -164.1680
  22   2.0000      -6.030053      -164.0861
  23   2.0000      -6.029522      -164.0716
  24   2.0000      -0.998596       -27.1732
  25   2.0000      -0.981980       -26.7210
  26   2.0000      -0.909941       -24.7608
  27   2.0000      -0.905401       -24.6372
  28   2.0000      -0.862249       -23.4630
  29   2.0000      -0.848132       -23.0788
  30   2.0000      -0.845337       -23.0028
  31   2.0000      -0.813337       -22.1320
  32   2.0000      -0.779626       -21.2147
  33   2.0000      -0.765681       -20.8352
  34   2.0000      -0.705477       -19.1970
  35   2.0000      -0.695275       -18.9194
  36   2.0000      -0.685585       -18.6557
  37   2.0000      -0.655904       -17.8480
  38   2.0000      -0.644959       -17.5502
  39   2.0000      -0.613957       -16.7066
  40   2.0000      -0.595680       -16.2093
  41   2.0000      -0.571622       -15.5546
  42   2.0000      -0.563208       -15.3257
  43   2.0000      -0.555895       -15.1267
  44   2.0000      -0.521731       -14.1970
  45   2.0000      -0.519312       -14.1312
  46   2.0000      -0.515906       -14.0385
  47   2.0000      -0.511420       -13.9164
  48   2.0000      -0.502809       -13.6821
  49   2.0000      -0.498421       -13.5627
  50   2.0000      -0.491692       -13.3796
  51   2.0000      -0.475927       -12.9506
  52   2.0000      -0.471403       -12.8275
  53   2.0000      -0.468257       -12.7419
  54   2.0000      -0.454213       -12.3598
  55   2.0000      -0.450547       -12.2600
  56   2.0000      -0.442696       -12.0464
  57   2.0000      -0.435875       -11.8608
  58   2.0000      -0.432302       -11.7635
  59   2.0000      -0.428574       -11.6621
  60   2.0000      -0.424473       -11.5505
  61   2.0000      -0.413016       -11.2387
  62   2.0000      -0.411364       -11.1938
  63   2.0000      -0.338553        -9.2125
  64   2.0000      -0.328415        -8.9366
  65   2.0000      -0.324544        -8.8313
  66   2.0000      -0.296696        -8.0735
  67   0.0000       0.039943         1.0869
  68   0.0000       0.053202         1.4477
  69   0.0000       0.110782         3.0145
  70   0.0000       0.120412         3.2766
  71   0.0000       0.127003         3.4559

MULLIKEN ATOMIC CHARGES
-----------------------
   0 S :    0.110219
   1 C :   -0.099561
   2 C :   -0.108125
   3 C :    0.049846
   4 C :   -0.180266
   5 H :    0.025728
   6 C :    0.069198
   7 H :    0.010820
   8 H :    0.049762
   9 C :   -0.101190
  10 H :    0.036964
  11 H :    0.034800
  12 C :   -0.062544
  13 H :    0.036017
  14 H :    0.039530
  15 H :    0.036100
  16 S :    0.103477
  17 C :   -0.099798
  18 C :   -0.028806
  19 C :   -0.035552
  20 C :   -0.164688
  21 H :    0.033352
  22 C :    0.080021
  23 H :    0.032053
  24 H :    0.030292
  25 C :   -0.125119
  26 H :    0.040002
  27 H :    0.030780
  28 C :   -0.031137
  29 H :    0.033987
  30 H :    0.022874
  31 H :    0.032127
  32 H :    0.033807
  33 H :    0.065027
Sum of atomic charges:   -0.0000000

LOEWDIN ATOMIC CHARGES
----------------------
   0 S :    0.410899
   1 C :   -0.206601
   2 C :   -0.067268
   3 C :   -0.058448
   4 C :   -0.188624
   5 H :    0.033908
   6 C :   -0.038114
   7 H :    0.026744
   8 H :    0.039426
   9 C :   -0.040954
  10 H :    0.025478
  11 H :    0.025605
  12 C :   -0.068346
  13 H :    0.019759
  14 H :    0.035058
  15 H :    0.026769
  16 S :    0.389968
  17 C :   -0.179869
  18 C :   -0.076058
  19 C :   -0.050250
  20 C :   -0.195130
  21 H :    0.037280
  22 C :   -0.027696
  23 H :    0.033853
  24 H :    0.028682
  25 C :   -0.046289
  26 H :    0.023784
  27 H :    0.028587
  28 C :   -0.069099
  29 H :    0.030680
  30 H :    0.019546
  31 H :    0.026035
  32 H :    0.018573
  33 H :    0.032113

  Mayer bond orders larger than 0.100000
B(  0-S ,  1-C ) :   1.1458 B(  0-S ,  4-C ) :   1.1662 B(  1-C ,  2-C ) :   1.6142
B(  1-C , 32-H ) :   0.9731 B(  2-C ,  3-C ) :   1.2130 B(  2-C ,  6-C ) :   1.0416
B(  3-C ,  4-C ) :   1.5725 B(  3-C ,  5-H ) :   0.9936 B(  4-C , 20-C ) :   0.9903
B(  6-C ,  7-H ) :   0.9445 B(  6-C ,  8-H ) :   0.9287 B(  6-C ,  9-C ) :   1.0544
B(  9-C , 10-H ) :   0.9632 B(  9-C , 11-H ) :   0.9494 B(  9-C , 12-C ) :   1.0912
B( 12-C , 13-H ) :   0.9759 B( 12-C , 14-H ) :   0.9752 B( 12-C , 15-H ) :   0.9742
B( 16-S , 17-C ) :   1.1607 B( 16-S , 20-C ) :   1.1345 B( 17-C , 18-C ) :   1.6129
B( 17-C , 33-H ) :   0.9646 B( 18-C , 19-C ) :   1.2301 B( 18-C , 21-H ) :   0.9801
B( 19-C , 20-C ) :   1.6191 B( 19-C , 22-C ) :   1.0500 B( 22-C , 23-H ) :   0.9388
B( 22-C , 24-H ) :   0.9380 B( 22-C , 25-C ) :   1.0401 B( 25-C , 26-H ) :   0.9624
B( 25-C , 27-H ) :   0.9563 B( 25-C , 28-C ) :   1.0805 B( 28-C , 29-H ) :   0.9730
B( 28-C , 30-H ) :   0.9736 B( 28-C , 31-H ) :   0.9742

Dispersion correction           -0.013824501
FINAL SINGLE POINT ENERGY     -1339.883822440567

DIPOLE MOMENT
-------------
                                X             Y             Z
Electronic contribution:    -20.73975       8.78779      17.35056
Nuclear contribution   :     21.26628      -8.81475     -17.72460
                        -----------------------------------------
Total Dipole Moment    :      0.52653      -0.02696      -0.37404
                        -----------------------------------------
Magnitude (a.u.)       :      0.64643
Magnitude (Debye)      :      1.64309

Rotational constants in cm-1:     0.017035     0.008112     0.006600
Rotational constants in MHz :   510.707367   243.203524   197.851532

                             ****ORCA TERMINATED NORMALLY****
TOTAL RUN TIME: 0 days 0 hours 0 minutes 33 seconds 427 msec
