                         Program Version 4.2.1 -  RELEASE  -
|  1> ! wB97X-D3 SP def2-SVP
|  2> %pal
|  3> nprocs 16
|  4> end
|  5>
|  6> * xyz 0 1
|  7> S 	 38.6591 	 6.89937 	 84.5183
|  8> C 	 39.5948 	 6.93603 	 83.1131
|  9> C 	 40.8135 	 6.27681 	 83.2509
| 10> C 	 40.9636 	 5.66537 	 84.521
| 11> C 	 39.902 	 6.0331 	 85.3675
| 12> H 	 41.7845 	 5.16952 	 84.873
| 13> C 	 41.9115 	 6.17423 	 82.1853
| 14> H 	 41.929 	 7.20402 	 81.8688
| 15> H 	 41.4327 	 5.47614 	 81.4028
| 16> C 	 43.4246 	 5.8814 	 82.623
| 17> H 	 43.418 	 4.91801 	 83.1704
| 18> H 	 44.0255 	 5.63862 	 81.7335
| 19> C 	 44.1184 	 6.96056 	 83.5206
| 20> H 	 43.8041 	 6.75343 	 84.532
| 21> H 	 45.1683 	 6.84543 	 83.5185
| 22> H 	 43.8581 	 7.9818 	 83.3906
| 23> S 	 38.0554 	 4.68706 	 87.0009
| 24> C 	 38.3764 	 4.50793 	 88.7085
| 25> C 	 39.7273 	 4.82167 	 88.9313
| 26> C 	 40.4083 	 5.54339 	 87.8508
| 27> C 	 39.644 	 5.51022 	 86.7125
| 28> H 	 40.0957 	 4.61416 	 89.9417
| 29> C 	 41.745 	 6.28526 	 88.06
| 30> H 	 42.3489 	 6.0627 	 87.1771
| 31> H 	 42.33 	 6.0631 	 88.9344
| 32> C 	 41.5106 	 7.78498 	 88.2512
| 33> H 	 40.9217 	 7.89387 	 89.1873
| 34> H 	 40.7792 	 8.02762 	 87.489
| 35> C 	 42.7572 	 8.6282 	 88.2169
| 36> H 	 43.2989 	 8.54312 	 87.317
| 37> H 	 43.4394 	 8.3434 	 89.1226
| 38> H 	 42.6039 	 9.73178 	 88.4195
| 39> H 	 39.2939 	 7.58395 	 82.2939
| 40> H 	 37.865 	 3.96917 	 89.5259
| 41> *
| 42>
| 43>                          ****END OF INPUT****

CARTESIAN COORDINATES (ANGSTROEM)
---------------------------------
  S     38.659100    6.899370   84.518300
  C     39.594800    6.936030   83.113100
  C     40.813500    6.276810   83.250900
  C     40.963600    5.665370   84.521000
  C     39.902000    6.033100   85.367500
  H     41.784500    5.169520   84.873000
  C     41.911500    6.174230   82.185300
  H     41.929000    7.204020   81.868800
  H     41.432700    5.476140   81.402800
  C     43.424600    5.881400   82.623000
  H     43.418000    4.918010   83.170400
  H     44.025500    5.638620   81.733500
  C     44.118400    6.960560   83.520600
  H     43.804100    6.753430   84.532000
  H     45.168300    6.845430   83.518500
  H     43.858100    7.981800   83.390600
  S     38.055400    4.687060   87.000900
  C     38.376400    4.507930   88.708500
  C     39.727300    4.821670   88.931300
  C     40.408300    5.543390   87.850800
  C     39.644000    5.510220   86.712500
  H     40.095700    4.614160   89.941700
  C     41.745000    6.285260   88.060000
  H     42.348900    6.062700   87.177100
  H     42.330000    6.063100   88.934400
  C     41.510600    7.784980   88.251200
  H     40.921700    7.893870   89.187300
  H     40.779200    8.027620   87.489000
  C     42.757200    8.628200   88.216900
  H     43.298900    8.543120   87.317000
  H     43.439400    8.343400   89.122600
  H     42.603900    9.731780   88.419500
  H     39.293900    7.583950   82.293900
  H     37.865000    3.969170   89.525900

 Total Charge           Charge          ....    0
 Multiplicity           Mult            ....    1
 Number of Electrons    NEL             ....  134
 Basis Dimension        Dim             ....  322

ORBITAL ENERGIES
----------------

  NO   OCC          E(Eh)            E(eV)
   0   2.0000     -88.969490     -2420.9829
   1   2.0000     -88.964616     -2420.8503
   2   2.0000     -10.329934      -281.0918
   3   2.0000     -10.329414      -281.0777
   4   2.0000     -10.318529      -280.7814
   5   2.0000     -10.310194      -280.5546
   6   2.0000     -10.307863      -280.4912
   7   2.0000     -10.302875      -280.3555
   8   2.0000     -10.302734      -280.3516
   9   2.0000     -10.302510      -280.3455
  10   2.0000     -10.296387      -280.1789
  11   2.0000     -10.292218      -280.0655
  12   2.0000     -10.290927      -280.0304
  13   2.0000     -10.285331      -279.8781
  14   2.0000     -10.281299      -279.7684
  15   2.0000     -10.278637      -279.6959
  16   2.0000      -8.085373      -220.0142
  17   2.0000      -8.078221      -219.8196
  18   2.0000      -6.043587      -164.4544
  19   2.0000      -6.039595      -164.3457
  20   2.0000      -6.036983      -164.2747
  21   2.0000      -6.036499      -164.2615
  22   2.0000      -6.032938      -164.1646
  23   2.0000      -6.028697      -164.0492
  24   2.0000      -1.008341       -27.4384
  25   2.0000      -0.979764       -26.6607
  26   2.0000      -0.909790       -24.7566
  27   2.0000      -0.903248       -24.5786
  28   2.0000      -0.867271       -23.5997
  29   2.0000      -0.854086       -23.2409
  30   2.0000      -0.841715       -22.9042
  31   2.0000      -0.813189       -22.1280
  32   2.0000      -0.782500       -21.2929
  33   2.0000      -0.772393       -21.0179
  34   2.0000      -0.714350       -19.4384
  35   2.0000      -0.696480       -18.9522
  36   2.0000      -0.688135       -18.7251
  37   2.0000      -0.658972       -17.9315
  38   2.0000      -0.644568       -17.5396
  39   2.0000      -0.619021       -16.8444
  40   2.0000      -0.589533       -16.0420
  41   2.0000      -0.567152       -15.4330
  42   2.0000      -0.557720       -15.1763
  43   2.0000      -0.553600       -15.0642
  44   2.0000      -0.535906       -14.5828
  45   2.0000      -0.521869       -14.2008
  46   2.0000      -0.515217       -14.0198
  47   2.0000      -0.508568       -13.8388
  48   2.0000      -0.507010       -13.7965
  49   2.0000      -0.502087       -13.6625
  50   2.0000      -0.495702       -13.4887
  51   2.0000      -0.484202       -13.1758
  52   2.0000      -0.473093       -12.8735
  53   2.0000      -0.463888       -12.6230
  54   2.0000      -0.452714       -12.3190
  55   2.0000      -0.451954       -12.2983
  56   2.0000      -0.447622       -12.1804
  57   2.0000      -0.438847       -11.9416
  58   2.0000      -0.430920       -11.7259
  59   2.0000      -0.430037       -11.7019
  60   2.0000      -0.420184       -11.4338
  61   2.0000      -0.409891       -11.1537
  62   2.0000      -0.404231       -10.9997
  63   2.0000      -0.348293        -9.4775
  64   2.0000      -0.333359        -9.0712
  65   2.0000      -0.323160        -8.7936
  66   2.0000      -0.290768        -7.9122
  67   0.0000       0.027944         0.7604
  68   0.0000       0.067073         1.8252
  69   0.0000       0.109052         2.9675
  70   0.0000       0.117513         3.1977
  71   0.0000       0.130095         3.5401

MULLIKEN ATOMIC CHARGES
-----------------------
   0 S :    0.137332
   1 C :   -0.140268
   2 C :   -0.101987
   3 C :    0.076709
   4 C :   -0.181937
   5 H :   -0.021278
   6 C :    0.042564
   7 H :    0.029539
   8 H :    0.071869
   9 C :   -0.102936
  10 H :    0.033818
  11 H :    0.039710
  12 C :   -0.015194
  13 H :    0.017445
  14 H :    0.031784
  15 H :    0.032492
  16 S :    0.101540
  17 C :   -0.102010
  18 C :   -0.064592
  19 C :   -0.038757
  20 C :   -0.152107
  21 H :    0.022234
  22 C :    0.092464
  23 H :    0.016871
  24 H :    0.013357
  25 C :   -0.077787
  26 H :    0.028219
  27 H :    0.026209
  28 C :   -0.047659
  29 H :    0.030970
  30 H :    0.031993
  31 H :    0.044539
  32 H :    0.053288
  33 H :    0.071565
Sum of atomic charges:   -0.0000000

LOEWDIN ATOMIC CHARGES
----------------------
   0 S :    0.451898
   1 C :   -0.225647
   2 C :   -0.064802
   3 C :   -0.046446
   4 C :   -0.201654
   5 H :    0.014326
   6 C :   -0.040090
   7 H :    0.029790
   8 H :    0.050062
   9 C :   -0.041962
  10 H :    0.024027
  11 H :    0.028695
  12 C :   -0.059826
  13 H :    0.024399
  14 H :    0.025413
  15 H :    0.023580
  16 S :    0.376384
  17 C :   -0.204289
  18 C :   -0.072678
  19 C :   -0.055624
  20 C :   -0.180124
  21 H :    0.028161
  22 C :   -0.026120
  23 H :    0.025675
  24 H :    0.026623
  25 C :   -0.046261
  26 H :    0.028937
  27 H :    0.021733
  28 C :   -0.071553
  29 H :    0.018068
  30 H :    0.033596
  31 H :    0.035178
  32 H :    0.027755
  33 H :    0.042772

  Mayer bond orders larger than 0.100000
B(  0-S ,  1-C ) :   1.1695 B(  0-S ,  4-C ) :   1.1860 B(  1-C ,  2-C ) :   1.5691
B(  1-C ,  4-C ) :   0.1017 B(  1-C , 32-H ) :   0.9705 B(  2-C ,  3-C ) :   1.2885
B(  2-C ,  6-C ) :   0.9777 B(  3-C ,  4-C ) :   1.5180 B(  3-C ,  5-H ) :   0.9993
B(  4-C , 20-C ) :   1.0334 B(  6-C ,  7-H ) :   0.9465 B(  6-C ,  8-H ) :   0.9446
B(  6-C ,  9-C ) :   1.0648 B(  9-C , 10-H ) :   0.9561 B(  9-C , 11-H ) :   0.9610
B(  9-C , 12-C ) :   1.0606 B( 12-C , 13-H ) :   0.9746 B( 12-C , 14-H ) :   0.9743
B( 12-C , 15-H ) :   0.9790 B( 16-S , 17-C ) :   1.1294 B( 16-S , 20-C ) :   1.1199
B( 17-C , 18-C ) :   1.6574 B( 17-C , 33-H ) :   0.9594 B( 18-C , 19-C ) :   1.2059
B( 18-C , 21-H ) :   0.9807 B( 19-C , 20-C ) :   1.6375 B( 19-C , 22-C ) :   1.0408
B( 22-C , 23-H ) :   0.9314 B( 22-C , 24-H ) :   0.9397 B( 22-C , 25-C ) :   1.0559
B( 25-C , 26-H ) :   0.9517 B( 25-C , 27-H ) :   0.9574 B( 25-C , 28-C ) :   1.0837
B( 28-C , 29-H ) :   0.9744 B( 28-C , 30-H ) :   0.9686 B( 28-C , 31-H ) :   0.9714

Dispersion correction           -0.014962701
FINAL SINGLE POINT ENERGY     -1339.859465430614

DIPOLE MOMENT
-------------
                                X             Y             Z
Electronic contribution:    -27.87211      -9.48220       0.32176
Nuclear contribution   :     28.57092       9.63289      -0.35142
                        -----------------------------------------
Total Dipole Moment    :      0.69880       0.15069      -0.02966
                        -----------------------------------------
Magnitude (a.u.)       :      0.71548
Magnitude (Debye)      :      1.81861

Rotational constants in cm-1:     0.017030     0.009983     0.007482
Rotational constants in MHz :   510.546781   299.273488   224.311175

                             ****ORCA TERMINATED NORMALLY****
TOTAL RUN TIME: 0 days 0 hours 0 minutes 29 seconds 304 msec
