                         Program Version 4.2.1 -  RELEASE  -
|  1> ! wB97X-D3 SP def2-SVP
|  2> %pal
|  3> nprocs 16
|  4> end
|  5>
|  6> * xyz 0 1
|  7> S 	 -72.6466 	 58.1903 	 123.491
|  8> C 	 -73.1463 	 59.9014 	 123.348
|  9> C 	 -73.4919 	 60.4147 	 124.587
| 10> C 	 -73.5531 	 59.3911 	 125.559
| 11> C 	 -73.2159 	 58.133 	 125.134
| 12> H 	 -73.9604 	 59.5243 	 126.593
| 13> C 	 -73.9267 	 61.8377 	 124.941
| 14> H 	 -73.4937 	 62.4373 	 124.162
| 15> H 	 -73.3746 	 62.0878 	 125.849
| 16> C 	 -75.4496 	 62.0042 	 124.99
| 17> H 	 -75.9117 	 61.8154 	 124.029
| 18> H 	 -76.0127 	 61.2526 	 125.522
| 19> C 	 -75.7707 	 63.406 	 125.59
| 20> H 	 -75.9165 	 63.3012 	 126.649
| 21> H 	 -75.2529 	 64.2161 	 125.171
| 22> H 	 -76.8041 	 63.6521 	 125.258
| 23> S 	 -74.5806 	 56.4034 	 126.853
| 24> C 	 -73.7745 	 55.0307 	 127.572
| 25> C 	 -72.4254 	 55.128 	 127.251
| 26> C 	 -72.0411 	 56.198 	 126.403
| 27> C 	 -73.1037 	 56.9614 	 126.028
| 28> H 	 -71.7356 	 54.3684 	 127.603
| 29> C 	 -70.5033 	 56.3208 	 126.015
| 30> H 	 -69.9055 	 55.8793 	 126.842
| 31> H 	 -70.2853 	 57.3835 	 126.025
| 32> C 	 -69.9285 	 55.7201 	 124.741
| 33> H 	 -70.4776 	 56.2607 	 123.931
| 34> H 	 -70.1521 	 54.6731 	 124.606
| 35> C 	 -68.4657 	 56.1581 	 124.461
| 36> H 	 -68.2337 	 57.2252 	 124.65
| 37> H 	 -68.1583 	 56.091 	 123.425
| 38> H 	 -67.8239 	 55.5281 	 124.985
| 39> H 	 -73.0445 	 60.4775 	 122.426
| 40> H 	 -74.1361 	 54.3739 	 128.339
| 41> *
| 42>
| 43>                          ****END OF INPUT****

CARTESIAN COORDINATES (ANGSTROEM)
---------------------------------
  S    -72.646600   58.190300  123.491000
  C    -73.146300   59.901400  123.348000
  C    -73.491900   60.414700  124.587000
  C    -73.553100   59.391100  125.559000
  C    -73.215900   58.133000  125.134000
  H    -73.960400   59.524300  126.593000
  C    -73.926700   61.837700  124.941000
  H    -73.493700   62.437300  124.162000
  H    -73.374600   62.087800  125.849000
  C    -75.449600   62.004200  124.990000
  H    -75.911700   61.815400  124.029000
  H    -76.012700   61.252600  125.522000
  C    -75.770700   63.406000  125.590000
  H    -75.916500   63.301200  126.649000
  H    -75.252900   64.216100  125.171000
  H    -76.804100   63.652100  125.258000
  S    -74.580600   56.403400  126.853000
  C    -73.774500   55.030700  127.572000
  C    -72.425400   55.128000  127.251000
  C    -72.041100   56.198000  126.403000
  C    -73.103700   56.961400  126.028000
  H    -71.735600   54.368400  127.603000
  C    -70.503300   56.320800  126.015000
  H    -69.905500   55.879300  126.842000
  H    -70.285300   57.383500  126.025000
  C    -69.928500   55.720100  124.741000
  H    -70.477600   56.260700  123.931000
  H    -70.152100   54.673100  124.606000
  C    -68.465700   56.158100  124.461000
  H    -68.233700   57.225200  124.650000
  H    -68.158300   56.091000  123.425000
  H    -67.823900   55.528100  124.985000
  H    -73.044500   60.477500  122.426000
  H    -74.136100   54.373900  128.339000

 Total Charge           Charge          ....    0
 Multiplicity           Mult            ....    1
 Number of Electrons    NEL             ....  134
 Basis Dimension        Dim             ....  322

ORBITAL ENERGIES
----------------

  NO   OCC          E(Eh)            E(eV)
   0   2.0000     -88.968764     -2420.9632
   1   2.0000     -88.964358     -2420.8433
   2   2.0000     -10.329652      -281.0841
   3   2.0000     -10.328302      -281.0474
   4   2.0000     -10.319060      -280.7959
   5   2.0000     -10.315659      -280.7033
   6   2.0000     -10.302962      -280.3579
   7   2.0000     -10.300592      -280.2934
   8   2.0000     -10.295095      -280.1438
   9   2.0000     -10.294032      -280.1148
  10   2.0000     -10.292084      -280.0618
  11   2.0000     -10.290341      -280.0144
  12   2.0000     -10.288179      -279.9556
  13   2.0000     -10.285236      -279.8755
  14   2.0000     -10.276630      -279.6413
  15   2.0000     -10.274017      -279.5702
  16   2.0000      -8.082486      -219.9356
  17   2.0000      -8.078549      -219.8285
  18   2.0000      -6.041040      -164.3851
  19   2.0000      -6.037210      -164.2808
  20   2.0000      -6.037149      -164.2792
  21   2.0000      -6.033181      -164.1712
  22   2.0000      -6.033062      -164.1680
  23   2.0000      -6.029304      -164.0657
  24   2.0000      -1.004761       -27.3409
  25   2.0000      -0.983538       -26.7634
  26   2.0000      -0.911453       -24.8019
  27   2.0000      -0.901163       -24.5219
  28   2.0000      -0.866682       -23.5836
  29   2.0000      -0.848135       -23.0789
  30   2.0000      -0.845628       -23.0107
  31   2.0000      -0.809961       -22.0402
  32   2.0000      -0.783165       -21.3110
  33   2.0000      -0.775424       -21.1004
  34   2.0000      -0.712441       -19.3865
  35   2.0000      -0.702498       -19.1159
  36   2.0000      -0.691724       -18.8228
  37   2.0000      -0.665324       -18.1044
  38   2.0000      -0.634959       -17.2781
  39   2.0000      -0.616941       -16.7878
  40   2.0000      -0.592305       -16.1174
  41   2.0000      -0.566402       -15.4126
  42   2.0000      -0.563766       -15.3409
  43   2.0000      -0.561742       -15.2858
  44   2.0000      -0.531354       -14.4589
  45   2.0000      -0.518630       -14.1126
  46   2.0000      -0.513384       -13.9699
  47   2.0000      -0.509341       -13.8599
  48   2.0000      -0.504533       -13.7291
  49   2.0000      -0.500903       -13.6303
  50   2.0000      -0.488055       -13.2806
  51   2.0000      -0.482753       -13.1364
  52   2.0000      -0.475515       -12.9394
  53   2.0000      -0.469048       -12.7634
  54   2.0000      -0.461531       -12.5589
  55   2.0000      -0.447290       -12.1714
  56   2.0000      -0.438821       -11.9409
  57   2.0000      -0.438794       -11.9402
  58   2.0000      -0.433997       -11.8097
  59   2.0000      -0.421576       -11.4717
  60   2.0000      -0.417285       -11.3549
  61   2.0000      -0.413359       -11.2481
  62   2.0000      -0.397510       -10.8168
  63   2.0000      -0.341996        -9.3062
  64   2.0000      -0.332579        -9.0499
  65   2.0000      -0.329954        -8.9785
  66   2.0000      -0.299620        -8.1531
  67   0.0000       0.034826         0.9477
  68   0.0000       0.065362         1.7786
  69   0.0000       0.102495         2.7890
  70   0.0000       0.120901         3.2899
  71   0.0000       0.135184         3.6786

MULLIKEN ATOMIC CHARGES
-----------------------
   0 S :    0.107816
   1 C :   -0.140269
   2 C :   -0.092841
   3 C :    0.004411
   4 C :   -0.135629
   5 H :    0.028687
   6 C :    0.098538
   7 H :    0.014020
   8 H :    0.036520
   9 C :   -0.069237
  10 H :    0.020142
  11 H :    0.022426
  12 C :   -0.021017
  13 H :    0.042964
  14 H :    0.030570
  15 H :    0.014458
  16 S :    0.096882
  17 C :   -0.080440
  18 C :   -0.057760
  19 C :    0.002023
  20 C :   -0.189290
  21 H :    0.018339
  22 C :    0.050183
  23 H :    0.020742
  24 H :    0.026111
  25 C :   -0.057106
  26 H :    0.020667
  27 H :    0.032190
  28 C :   -0.035923
  29 H :    0.032910
  30 H :    0.026832
  31 H :    0.020182
  32 H :    0.052908
  33 H :    0.058991
Sum of atomic charges:    0.0000000

LOEWDIN ATOMIC CHARGES
----------------------
   0 S :    0.403659
   1 C :   -0.188840
   2 C :   -0.063966
   3 C :   -0.067967
   4 C :   -0.200465
   5 H :    0.037220
   6 C :   -0.025902
   7 H :    0.027915
   8 H :    0.035176
   9 C :   -0.039155
  10 H :    0.025174
  11 H :    0.025030
  12 C :   -0.064326
  13 H :    0.028918
  14 H :    0.019977
  15 H :    0.031099
  16 S :    0.396138
  17 C :   -0.191475
  18 C :   -0.071554
  19 C :   -0.062583
  20 C :   -0.182585
  21 H :    0.028440
  22 C :   -0.029328
  23 H :    0.029289
  24 H :    0.029427
  25 C :   -0.045564
  26 H :    0.019240
  27 H :    0.023197
  28 C :   -0.061507
  29 H :    0.032393
  30 H :    0.027889
  31 H :    0.013373
  32 H :    0.029757
  33 H :    0.031904

  Mayer bond orders larger than 0.100000
B(  0-S ,  1-C ) :   1.1322 B(  0-S ,  4-C ) :   1.1459 B(  1-C ,  2-C ) :   1.6090
B(  1-C , 32-H ) :   0.9687 B(  2-C ,  3-C ) :   1.2485 B(  2-C ,  6-C ) :   1.0158
B(  3-C ,  4-C ) :   1.5892 B(  3-C ,  5-H ) :   0.9830 B(  4-C , 20-C ) :   1.0094
B(  6-C ,  7-H ) :   0.9330 B(  6-C ,  8-H ) :   0.9446 B(  6-C ,  9-C ) :   1.0537
B(  9-C , 10-H ) :   0.9535 B(  9-C , 11-H ) :   0.9602 B(  9-C , 12-C ) :   1.0775
B( 12-C , 13-H ) :   0.9781 B( 12-C , 14-H ) :   0.9755 B( 12-C , 15-H ) :   0.9693
B( 16-S , 17-C ) :   1.1452 B( 16-S , 20-C ) :   1.1414 B( 17-C , 18-C ) :   1.6074
B( 17-C , 33-H ) :   0.9683 B( 18-C , 19-C ) :   1.2542 B( 18-C , 21-H ) :   0.9840
B( 19-C , 20-C ) :   1.6167 B( 19-C , 22-C ) :   1.0165 B( 22-C , 23-H ) :   0.9409
B( 22-C , 24-H ) :   0.9348 B( 22-C , 25-C ) :   1.0729 B( 25-C , 26-H ) :   0.9485
B( 25-C , 27-H ) :   0.9571 B( 25-C , 28-C ) :   1.0702 B( 28-C , 29-H ) :   0.9729
B( 28-C , 30-H ) :   0.9748 B( 28-C , 31-H ) :   0.9792

Dispersion correction           -0.013933427
FINAL SINGLE POINT ENERGY     -1339.867675617916

DIPOLE MOMENT
-------------
                                X             Y             Z
Electronic contribution:     -8.01498     -13.36035       0.92919
Nuclear contribution   :      8.20684      13.75691      -0.81559
                        -----------------------------------------
Total Dipole Moment    :      0.19186       0.39656       0.11360
                        -----------------------------------------
Magnitude (a.u.)       :      0.45495
Magnitude (Debye)      :      1.15639

Rotational constants in cm-1:     0.019420     0.007950     0.006174
Rotational constants in MHz :   582.189294   238.330080   185.086513

                             ****ORCA TERMINATED NORMALLY****
TOTAL RUN TIME: 0 days 0 hours 0 minutes 30 seconds 446 msec
