                         Program Version 4.2.1 -  RELEASE  -
|  1> ! wB97X-D3 SP def2-SVP
|  2> %pal
|  3> nprocs 16
|  4> end
|  5>
|  6> * xyz 0 1
|  7> S 	 71.3548 	 23.2441 	 77.1731
|  8> C 	 72.7573 	 22.8857 	 78.2527
|  9> C 	 73.7573 	 23.7965 	 78.0243
| 10> C 	 73.4128 	 24.7714 	 77.0237
| 11> C 	 72.0955 	 24.7015 	 76.5732
| 12> H 	 74.0482 	 25.5938 	 76.539
| 13> C 	 75.195 	 23.7824 	 78.5479
| 14> H 	 75.8704 	 23.2608 	 77.8467
| 15> H 	 75.134 	 23.1377 	 79.4081
| 16> C 	 75.6141 	 25.2558 	 78.9587
| 17> H 	 76.5947 	 25.1112 	 79.4294
| 18> H 	 75.8884 	 25.7212 	 78.0023
| 19> C 	 74.615 	 26.1296 	 79.7988
| 20> H 	 74.9893 	 27.1928 	 79.9098
| 21> H 	 73.6728 	 26.0066 	 79.3085
| 22> H 	 74.5524 	 25.6403 	 80.8018
| 23> S 	 70.573 	 24.9148 	 74.1842
| 24> C 	 70.2925 	 26.5367 	 73.471
| 25> C 	 70.8543 	 27.5156 	 74.3015
| 26> C 	 71.4823 	 26.9506 	 75.4814
| 27> C 	 71.4286 	 25.5762 	 75.5955
| 28> H 	 70.7557 	 28.5473 	 73.9916
| 29> C 	 72.1788 	 27.8593 	 76.4834
| 30> H 	 73.1962 	 27.9919 	 76.2079
| 31> H 	 72.1095 	 27.3763 	 77.4124
| 32> C 	 71.5182 	 29.2208 	 76.737
| 33> H 	 70.4598 	 29.0326 	 76.9001
| 34> H 	 71.5968 	 29.8452 	 75.764
| 35> C 	 72.2976 	 29.9168 	 77.7957
| 36> H 	 72.1314 	 29.4423 	 78.7228
| 37> H 	 71.9025 	 30.8618 	 77.9027
| 38> H 	 73.3964 	 29.9484 	 77.6208
| 39> H 	 72.925 	 22.0967 	 78.9163
| 40> H 	 69.7784 	 26.675 	 72.529
| 41> *
| 42>
| 43>                          ****END OF INPUT****

CARTESIAN COORDINATES (ANGSTROEM)
---------------------------------
  S     71.354800   23.244100   77.173100
  C     72.757300   22.885700   78.252700
  C     73.757300   23.796500   78.024300
  C     73.412800   24.771400   77.023700
  C     72.095500   24.701500   76.573200
  H     74.048200   25.593800   76.539000
  C     75.195000   23.782400   78.547900
  H     75.870400   23.260800   77.846700
  H     75.134000   23.137700   79.408100
  C     75.614100   25.255800   78.958700
  H     76.594700   25.111200   79.429400
  H     75.888400   25.721200   78.002300
  C     74.615000   26.129600   79.798800
  H     74.989300   27.192800   79.909800
  H     73.672800   26.006600   79.308500
  H     74.552400   25.640300   80.801800
  S     70.573000   24.914800   74.184200
  C     70.292500   26.536700   73.471000
  C     70.854300   27.515600   74.301500
  C     71.482300   26.950600   75.481400
  C     71.428600   25.576200   75.595500
  H     70.755700   28.547300   73.991600
  C     72.178800   27.859300   76.483400
  H     73.196200   27.991900   76.207900
  H     72.109500   27.376300   77.412400
  C     71.518200   29.220800   76.737000
  H     70.459800   29.032600   76.900100
  H     71.596800   29.845200   75.764000
  C     72.297600   29.916800   77.795700
  H     72.131400   29.442300   78.722800
  H     71.902500   30.861800   77.902700
  H     73.396400   29.948400   77.620800
  H     72.925000   22.096700   78.916300
  H     69.778400   26.675000   72.529000

 Total Charge           Charge          ....    0
 Multiplicity           Mult            ....    1
 Number of Electrons    NEL             ....  134
 Basis Dimension        Dim             ....  322

ORBITAL ENERGIES
----------------

  NO   OCC          E(Eh)            E(eV)
   0   2.0000     -88.966953     -2420.9139
   1   2.0000     -88.964010     -2420.8338
   2   2.0000     -10.333921      -281.2003
   3   2.0000     -10.330816      -281.1158
   4   2.0000     -10.326293      -280.9927
   5   2.0000     -10.315600      -280.7017
   6   2.0000     -10.305279      -280.4209
   7   2.0000     -10.302598      -280.3479
   8   2.0000     -10.300656      -280.2951
   9   2.0000     -10.299891      -280.2743
  10   2.0000     -10.298359      -280.2326
  11   2.0000     -10.293662      -280.1048
  12   2.0000     -10.288302      -279.9589
  13   2.0000     -10.287666      -279.9416
  14   2.0000     -10.280211      -279.7388
  15   2.0000     -10.269349      -279.4432
  16   2.0000      -8.080853      -219.8912
  17   2.0000      -8.077757      -219.8069
  18   2.0000      -6.039533      -164.3440
  19   2.0000      -6.036434      -164.2597
  20   2.0000      -6.035536      -164.2353
  21   2.0000      -6.032340      -164.1483
  22   2.0000      -6.031395      -164.1226
  23   2.0000      -6.028447      -164.0424
  24   2.0000      -1.000512       -27.2253
  25   2.0000      -0.977433       -26.5973
  26   2.0000      -0.915979       -24.9251
  27   2.0000      -0.905939       -24.6518
  28   2.0000      -0.866864       -23.5886
  29   2.0000      -0.850388       -23.1402
  30   2.0000      -0.834218       -22.7002
  31   2.0000      -0.814825       -22.1725
  32   2.0000      -0.784073       -21.3357
  33   2.0000      -0.774896       -21.0860
  34   2.0000      -0.707754       -19.2590
  35   2.0000      -0.701244       -19.0818
  36   2.0000      -0.695954       -18.9379
  37   2.0000      -0.653709       -17.7883
  38   2.0000      -0.636980       -17.3331
  39   2.0000      -0.615866       -16.7586
  40   2.0000      -0.597192       -16.2504
  41   2.0000      -0.578509       -15.7420
  42   2.0000      -0.566634       -15.4189
  43   2.0000      -0.550895       -14.9906
  44   2.0000      -0.533513       -14.5176
  45   2.0000      -0.530803       -14.4439
  46   2.0000      -0.515597       -14.0301
  47   2.0000      -0.512822       -13.9546
  48   2.0000      -0.506888       -13.7931
  49   2.0000      -0.496548       -13.5118
  50   2.0000      -0.487371       -13.2620
  51   2.0000      -0.484319       -13.1790
  52   2.0000      -0.476844       -12.9756
  53   2.0000      -0.462310       -12.5801
  54   2.0000      -0.457158       -12.4399
  55   2.0000      -0.447844       -12.1865
  56   2.0000      -0.444992       -12.1089
  57   2.0000      -0.440285       -11.9808
  58   2.0000      -0.434257       -11.8167
  59   2.0000      -0.417688       -11.3659
  60   2.0000      -0.414726       -11.2853
  61   2.0000      -0.411558       -11.1991
  62   2.0000      -0.410162       -11.1611
  63   2.0000      -0.350848        -9.5471
  64   2.0000      -0.329087        -8.9549
  65   2.0000      -0.328479        -8.9384
  66   2.0000      -0.293956        -7.9990
  67   0.0000       0.024863         0.6766
  68   0.0000       0.071517         1.9461
  69   0.0000       0.104454         2.8423
  70   0.0000       0.123372         3.3571
  71   0.0000       0.125749         3.4218

MULLIKEN ATOMIC CHARGES
-----------------------
   0 S :    0.099844
   1 C :   -0.079658
   2 C :   -0.135789
   3 C :   -0.017748
   4 C :   -0.162381
   5 H :    0.049609
   6 C :    0.095657
   7 H :    0.058879
   8 H :    0.003920
   9 C :   -0.128159
  10 H :    0.028434
  11 H :    0.028792
  12 C :   -0.046256
  13 H :    0.058038
  14 H :    0.057159
  15 H :    0.039853
  16 S :    0.084412
  17 C :   -0.105516
  18 C :   -0.024948
  19 C :   -0.061445
  20 C :   -0.108365
  21 H :    0.026014
  22 C :    0.072164
  23 H :    0.029515
  24 H :    0.020079
  25 C :   -0.135421
  26 H :    0.038808
  27 H :    0.033280
  28 C :    0.033854
  29 H :    0.015483
  30 H :    0.012281
  31 H :    0.034414
  32 H :    0.018906
  33 H :    0.066289
Sum of atomic charges:    0.0000000

LOEWDIN ATOMIC CHARGES
----------------------
   0 S :    0.387228
   1 C :   -0.176433
   2 C :   -0.067984
   3 C :   -0.073878
   4 C :   -0.191766
   5 H :    0.045953
   6 C :   -0.028129
   7 H :    0.041468
   8 H :    0.021230
   9 C :   -0.046621
  10 H :    0.022488
  11 H :    0.019161
  12 C :   -0.065698
  13 H :    0.038681
  14 H :    0.023683
  15 H :    0.032377
  16 S :    0.371583
  17 C :   -0.164642
  18 C :   -0.070907
  19 C :   -0.054154
  20 C :   -0.195477
  21 H :    0.033195
  22 C :   -0.029842
  23 H :    0.024650
  24 H :    0.024961
  25 C :   -0.040923
  26 H :    0.026558
  27 H :    0.024542
  28 C :   -0.055090
  29 H :    0.021668
  30 H :    0.017517
  31 H :    0.033514
  32 H :    0.020134
  33 H :    0.030953

  Mayer bond orders larger than 0.100000
B(  0-S ,  1-C ) :   1.1121 B(  0-S ,  4-C ) :   1.1439 B(  1-C ,  2-C ) :   1.6496
B(  1-C , 32-H ) :   0.9718 B(  2-C ,  3-C ) :   1.2015 B(  2-C ,  6-C ) :   1.0116
B(  3-C ,  4-C ) :   1.5918 B(  3-C ,  5-H ) :   0.9760 B(  4-C , 20-C ) :   1.0428
B(  6-C ,  7-H ) :   0.9459 B(  6-C ,  8-H ) :   0.9345 B(  6-C ,  9-C ) :   1.0510
B(  9-C , 10-H ) :   0.9597 B(  9-C , 11-H ) :   0.9557 B(  9-C , 12-C ) :   1.0596
B( 12-C , 13-H ) :   0.9731 B( 12-C , 14-H ) :   0.9674 B( 12-C , 15-H ) :   0.9733
B( 16-S , 17-C ) :   1.1521 B( 16-S , 20-C ) :   1.1137 B( 17-C , 18-C ) :   1.6034
B( 17-C , 33-H ) :   0.9687 B( 18-C , 19-C ) :   1.2195 B( 18-C , 21-H ) :   0.9945
B( 19-C , 20-C ) :   1.6208 B( 19-C , 22-C ) :   1.0329 B( 22-C , 23-H ) :   0.9247
B( 22-C , 24-H ) :   0.9367 B( 22-C , 25-C ) :   1.0769 B( 25-C , 26-H ) :   0.9577
B( 25-C , 27-H ) :   0.9445 B( 25-C , 28-C ) :   1.0906 B( 28-C , 29-H ) :   0.9679
B( 28-C , 30-H ) :   0.9652 B( 28-C , 31-H ) :   0.9680

Dispersion correction           -0.015076554
FINAL SINGLE POINT ENERGY     -1339.867813076699

DIPOLE MOMENT
-------------
                                X             Y             Z
Electronic contribution:    -16.32613     -20.59756     -16.11044
Nuclear contribution   :     16.87856      21.13755      16.30181
                        -----------------------------------------
Total Dipole Moment    :      0.55243       0.53999       0.19136
                        -----------------------------------------
Magnitude (a.u.)       :      0.79586
Magnitude (Debye)      :      2.02291

Rotational constants in cm-1:     0.016149     0.010748     0.007069
Rotational constants in MHz :   484.144781   322.225967   211.911205

                             ****ORCA TERMINATED NORMALLY****
TOTAL RUN TIME: 0 days 0 hours 0 minutes 31 seconds 503 msec
