                         Program Version 4.2.1 -  RELEASE  -
|  1> ! wB97X-D3 SP def2-SVP
|  2> %pal
|  3> nprocs 16
|  4> end
|  5>
|  6> * xyz 0 1
|  7> S 	 -46.4005 	 30.0995 	 92.3327
|  8> C 	 -47.3114 	 28.5863 	 92.3195
|  9> C 	 -48.5247 	 28.7921 	 91.6476
| 10> C 	 -48.6809 	 30.1288 	 91.1641
| 11> C 	 -47.6099 	 31.0307 	 91.4007
| 12> H 	 -49.5311 	 30.5208 	 90.6241
| 13> C 	 -49.5893 	 27.8273 	 91.4762
| 14> H 	 -50.4813 	 28.2728 	 91.8965
| 15> H 	 -49.2384 	 26.952 	 92.1257
| 16> C 	 -49.7108 	 27.3195 	 90.0606
| 17> H 	 -49.8362 	 28.108 	 89.2721
| 18> H 	 -48.7378 	 26.9642 	 89.7997
| 19> C 	 -50.7695 	 26.3411 	 89.809
| 20> H 	 -51.6477 	 26.8808 	 89.884
| 21> H 	 -50.7504 	 26.132 	 88.732
| 22> H 	 -50.9533 	 25.4931 	 90.4419
| 23> S 	 -46.8499 	 33.5563 	 92.3546
| 24> C 	 -47.3622 	 35.0019 	 91.4579
| 25> C 	 -47.725 	 34.6721 	 90.2116
| 26> C 	 -47.8765 	 33.2927 	 90.0071
| 27> C 	 -47.598 	 32.511 	 91.1772
| 28> H 	 -47.8572 	 35.4735 	 89.5101
| 29> C 	 -48.2934 	 32.7571 	 88.5769
| 30> H 	 -48.349 	 31.6942 	 88.4378
| 31> H 	 -47.5288 	 33.2319 	 87.8956
| 32> C 	 -49.6448 	 33.3198 	 88.0738
| 33> H 	 -49.5324 	 34.3915 	 87.9373
| 34> H 	 -50.4151 	 33.0488 	 88.7656
| 35> C 	 -50.1148 	 32.7815 	 86.7726
| 36> H 	 -50.4711 	 31.7328 	 86.7099
| 37> H 	 -49.4237 	 32.8127 	 85.9455
| 38> H 	 -50.9668 	 33.3521 	 86.4916
| 39> H 	 -47.1372 	 27.6054 	 92.7376
| 40> H 	 -47.1825 	 36.0783 	 91.5778
| 41> *
| 42>
| 43>                          ****END OF INPUT****

CARTESIAN COORDINATES (ANGSTROEM)
---------------------------------
  S    -46.400500   30.099500   92.332700
  C    -47.311400   28.586300   92.319500
  C    -48.524700   28.792100   91.647600
  C    -48.680900   30.128800   91.164100
  C    -47.609900   31.030700   91.400700
  H    -49.531100   30.520800   90.624100
  C    -49.589300   27.827300   91.476200
  H    -50.481300   28.272800   91.896500
  H    -49.238400   26.952000   92.125700
  C    -49.710800   27.319500   90.060600
  H    -49.836200   28.108000   89.272100
  H    -48.737800   26.964200   89.799700
  C    -50.769500   26.341100   89.809000
  H    -51.647700   26.880800   89.884000
  H    -50.750400   26.132000   88.732000
  H    -50.953300   25.493100   90.441900
  S    -46.849900   33.556300   92.354600
  C    -47.362200   35.001900   91.457900
  C    -47.725000   34.672100   90.211600
  C    -47.876500   33.292700   90.007100
  C    -47.598000   32.511000   91.177200
  H    -47.857200   35.473500   89.510100
  C    -48.293400   32.757100   88.576900
  H    -48.349000   31.694200   88.437800
  H    -47.528800   33.231900   87.895600
  C    -49.644800   33.319800   88.073800
  H    -49.532400   34.391500   87.937300
  H    -50.415100   33.048800   88.765600
  C    -50.114800   32.781500   86.772600
  H    -50.471100   31.732800   86.709900
  H    -49.423700   32.812700   85.945500
  H    -50.966800   33.352100   86.491600
  H    -47.137200   27.605400   92.737600
  H    -47.182500   36.078300   91.577800

 Total Charge           Charge          ....    0
 Multiplicity           Mult            ....    1
 Number of Electrons    NEL             ....  134
 Basis Dimension        Dim             ....  322

ORBITAL ENERGIES
----------------

  NO   OCC          E(Eh)            E(eV)
   0   2.0000     -88.969957     -2420.9956
   1   2.0000     -88.969172     -2420.9742
   2   2.0000     -10.342179      -281.4250
   3   2.0000     -10.339607      -281.3550
   4   2.0000     -10.318603      -280.7835
   5   2.0000     -10.316502      -280.7263
   6   2.0000     -10.313041      -280.6321
   7   2.0000     -10.298755      -280.2434
   8   2.0000     -10.297576      -280.2113
   9   2.0000     -10.295642      -280.1587
  10   2.0000     -10.290764      -280.0259
  11   2.0000     -10.288953      -279.9766
  12   2.0000     -10.283012      -279.8150
  13   2.0000     -10.282725      -279.8072
  14   2.0000     -10.273077      -279.5446
  15   2.0000     -10.267030      -279.3801
  16   2.0000      -8.084077      -219.9789
  17   2.0000      -8.082389      -219.9330
  18   2.0000      -6.042793      -164.4328
  19   2.0000      -6.041167      -164.3885
  20   2.0000      -6.038783      -164.3236
  21   2.0000      -6.036955      -164.2739
  22   2.0000      -6.034514      -164.2075
  23   2.0000      -6.033071      -164.1682
  24   2.0000      -1.002835       -27.2885
  25   2.0000      -0.983403       -26.7598
  26   2.0000      -0.924874       -25.1671
  27   2.0000      -0.911065       -24.7913
  28   2.0000      -0.875726       -23.8297
  29   2.0000      -0.853842       -23.2342
  30   2.0000      -0.850208       -23.1353
  31   2.0000      -0.819689       -22.3049
  32   2.0000      -0.782062       -21.2810
  33   2.0000      -0.772348       -21.0167
  34   2.0000      -0.711646       -19.3649
  35   2.0000      -0.702509       -19.1162
  36   2.0000      -0.693617       -18.8743
  37   2.0000      -0.655484       -17.8366
  38   2.0000      -0.638461       -17.3734
  39   2.0000      -0.620420       -16.8825
  40   2.0000      -0.593257       -16.1433
  41   2.0000      -0.576938       -15.6993
  42   2.0000      -0.574492       -15.6327
  43   2.0000      -0.567876       -15.4527
  44   2.0000      -0.535828       -14.5806
  45   2.0000      -0.525250       -14.2928
  46   2.0000      -0.519654       -14.1405
  47   2.0000      -0.512671       -13.9505
  48   2.0000      -0.505867       -13.7653
  49   2.0000      -0.501943       -13.6586
  50   2.0000      -0.495508       -13.4835
  51   2.0000      -0.487591       -13.2680
  52   2.0000      -0.471028       -12.8173
  53   2.0000      -0.469430       -12.7738
  54   2.0000      -0.461403       -12.5554
  55   2.0000      -0.449207       -12.2235
  56   2.0000      -0.443024       -12.0553
  57   2.0000      -0.435455       -11.8493
  58   2.0000      -0.431780       -11.7493
  59   2.0000      -0.424437       -11.5495
  60   2.0000      -0.419317       -11.4102
  61   2.0000      -0.412104       -11.2139
  62   2.0000      -0.408575       -11.1179
  63   2.0000      -0.355564        -9.6754
  64   2.0000      -0.332337        -9.0434
  65   2.0000      -0.325208        -8.8494
  66   2.0000      -0.287395        -7.8204
  67   0.0000       0.020001         0.5442
  68   0.0000       0.070595         1.9210
  69   0.0000       0.102916         2.8005
  70   0.0000       0.121018         3.2931
  71   0.0000       0.123869         3.3706

MULLIKEN ATOMIC CHARGES
-----------------------
   0 S :    0.099706
   1 C :   -0.091354
   2 C :   -0.120551
   3 C :    0.017088
   4 C :   -0.129226
   5 H :    0.007578
   6 C :    0.071059
   7 H :    0.034384
   8 H :    0.020492
   9 C :   -0.085325
  10 H :    0.022379
  11 H :    0.009985
  12 C :    0.034663
  13 H :   -0.005610
  14 H :    0.026003
  15 H :    0.029284
  16 S :    0.105610
  17 C :   -0.070914
  18 C :   -0.053130
  19 C :   -0.019507
  20 C :   -0.151826
  21 H :    0.017875
  22 C :    0.055882
  23 H :    0.024484
  24 H :    0.039259
  25 C :   -0.074240
  26 H :    0.029196
  27 H :    0.030314
  28 C :   -0.037777
  29 H :    0.025062
  30 H :    0.015951
  31 H :    0.023410
  32 H :    0.042543
  33 H :    0.057253
Sum of atomic charges:    0.0000000

LOEWDIN ATOMIC CHARGES
----------------------
   0 S :    0.388111
   1 C :   -0.200713
   2 C :   -0.067572
   3 C :   -0.064131
   4 C :   -0.181245
   5 H :    0.026523
   6 C :   -0.035689
   7 H :    0.031985
   8 H :    0.038872
   9 C :   -0.043897
  10 H :    0.029789
  11 H :    0.019000
  12 C :   -0.063518
  13 H :    0.017923
  14 H :    0.034754
  15 H :    0.023761
  16 S :    0.403942
  17 C :   -0.181388
  18 C :   -0.075051
  19 C :   -0.050410
  20 C :   -0.201491
  21 H :    0.032083
  22 C :   -0.027370
  23 H :    0.023285
  24 H :    0.039406
  25 C :   -0.042218
  26 H :    0.023547
  27 H :    0.024466
  28 C :   -0.069002
  29 H :    0.026301
  30 H :    0.019610
  31 H :    0.025727
  32 H :    0.033594
  33 H :    0.041014

  Mayer bond orders larger than 0.100000
B(  0-S ,  1-C ) :   1.1284 B(  0-S ,  4-C ) :   1.1416 B(  1-C ,  2-C ) :   1.5910
B(  1-C , 32-H ) :   0.9629 B(  2-C ,  3-C ) :   1.2537 B(  2-C ,  6-C ) :   1.0462
B(  3-C ,  4-C ) :   1.5531 B(  3-C ,  5-H ) :   0.9914 B(  4-C , 20-C ) :   1.0646
B(  6-C ,  7-H ) :   0.9330 B(  6-C ,  8-H ) :   0.9304 B(  6-C ,  9-C ) :   1.0655
B(  9-C , 10-H ) :   0.9504 B(  9-C , 11-H ) :   0.9480 B(  9-C , 12-C ) :   1.0938
B( 12-C , 13-H ) :   0.9613 B( 12-C , 14-H ) :   0.9644 B( 12-C , 15-H ) :   0.9726
B( 16-S , 17-C ) :   1.1389 B( 16-S , 20-C ) :   1.1390 B( 17-C , 18-C ) :   1.6384
B( 17-C , 33-H ) :   0.9582 B( 18-C , 19-C ) :   1.2575 B( 18-C , 21-H ) :   0.9876
B( 19-C , 20-C ) :   1.5496 B( 19-C , 22-C ) :   1.0308 B( 22-C , 23-H ) :   0.9484
B( 22-C , 24-H ) :   0.9359 B( 22-C , 25-C ) :   1.0680 B( 25-C , 26-H ) :   0.9514
B( 25-C , 27-H ) :   0.9538 B( 25-C , 28-C ) :   1.0996 B( 28-C , 29-H ) :   0.9702
B( 28-C , 30-H ) :   0.9705 B( 28-C , 31-H ) :   0.9702

Dispersion correction           -0.013350525
FINAL SINGLE POINT ENERGY     -1339.843191821116

DIPOLE MOMENT
-------------
                                X             Y             Z
Electronic contribution:     21.00512      11.96520      22.71209
Nuclear contribution   :    -21.55758     -11.96357     -23.35071
                        -----------------------------------------
Total Dipole Moment    :     -0.55246       0.00163      -0.63861
                        -----------------------------------------
Magnitude (a.u.)       :      0.84441
Magnitude (Debye)      :      2.14633

Rotational constants in cm-1:     0.016159     0.009027     0.006073
Rotational constants in MHz :   484.444388   270.629110   182.076670

                             ****ORCA TERMINATED NORMALLY****
TOTAL RUN TIME: 0 days 0 hours 0 minutes 29 seconds 191 msec
