                         Program Version 4.2.1 -  RELEASE  -
|  1> ! wB97X-D3 SP def2-SVP
|  2> %pal
|  3> nprocs 16
|  4> end
|  5>
|  6> * xyz 0 1
|  7> S 	 -15.2171 	 75.329 	 55.9646
|  8> C 	 -16.5536 	 74.4024 	 55.3289
|  9> C 	 -16.1488 	 73.2147 	 54.7465
| 10> C 	 -14.7178 	 73.0398 	 54.8469
| 11> C 	 -14.0308 	 73.9937 	 55.5053
| 12> H 	 -14.1443 	 72.2025 	 54.4693
| 13> C 	 -17.0951 	 72.3327 	 53.9505
| 14> H 	 -18.0569 	 72.2916 	 54.4657
| 15> H 	 -16.784 	 71.2763 	 53.9197
| 16> C 	 -17.302 	 72.6695 	 52.4464
| 17> H 	 -17.5733 	 73.7526 	 52.1697
| 18> H 	 -16.4141 	 72.3748 	 51.9014
| 19> C 	 -18.4155 	 71.8495 	 51.8352
| 20> H 	 -19.4176 	 71.9945 	 52.3248
| 21> H 	 -18.573 	 72.2162 	 50.8665
| 22> H 	 -18.2255 	 70.7508 	 51.6822
| 23> S 	 -12.393 	 74.369 	 57.6759
| 24> C 	 -10.6457 	 74.2318 	 57.472
| 25> C 	 -10.2866 	 74.1315 	 56.1293
| 26> C 	 -11.4243 	 73.8239 	 55.3172
| 27> C 	 -12.6304 	 73.9525 	 55.9526
| 28> H 	 -9.25024 	 74.1649 	 55.8821
| 29> C 	 -11.2711 	 73.6589 	 53.8268
| 30> H 	 -12.2162 	 73.27 	 53.4264
| 31> H 	 -10.5305 	 72.9008 	 53.6027
| 32> C 	 -10.9498 	 74.8392 	 52.9335
| 33> H 	 -11.1723 	 74.6857 	 51.8486
| 34> H 	 -9.86886 	 74.9799 	 53.0005
| 35> C 	 -11.8159 	 76.1346 	 53.1622
| 36> H 	 -11.6648 	 76.5835 	 54.1934
| 37> H 	 -12.9436 	 76.025 	 53.0052
| 38> H 	 -11.5882 	 76.9077 	 52.3711
| 39> H 	 -17.6106 	 74.7679 	 55.298
| 40> H 	 -10.0329 	 74.3151 	 58.3579
| 41> *
| 42>
| 43>                          ****END OF INPUT****

CARTESIAN COORDINATES (ANGSTROEM)
---------------------------------
  S    -15.217100   75.329000   55.964600
  C    -16.553600   74.402400   55.328900
  C    -16.148800   73.214700   54.746500
  C    -14.717800   73.039800   54.846900
  C    -14.030800   73.993700   55.505300
  H    -14.144300   72.202500   54.469300
  C    -17.095100   72.332700   53.950500
  H    -18.056900   72.291600   54.465700
  H    -16.784000   71.276300   53.919700
  C    -17.302000   72.669500   52.446400
  H    -17.573300   73.752600   52.169700
  H    -16.414100   72.374800   51.901400
  C    -18.415500   71.849500   51.835200
  H    -19.417600   71.994500   52.324800
  H    -18.573000   72.216200   50.866500
  H    -18.225500   70.750800   51.682200
  S    -12.393000   74.369000   57.675900
  C    -10.645700   74.231800   57.472000
  C    -10.286600   74.131500   56.129300
  C    -11.424300   73.823900   55.317200
  C    -12.630400   73.952500   55.952600
  H     -9.250240   74.164900   55.882100
  C    -11.271100   73.658900   53.826800
  H    -12.216200   73.270000   53.426400
  H    -10.530500   72.900800   53.602700
  C    -10.949800   74.839200   52.933500
  H    -11.172300   74.685700   51.848600
  H     -9.868860   74.979900   53.000500
  C    -11.815900   76.134600   53.162200
  H    -11.664800   76.583500   54.193400
  H    -12.943600   76.025000   53.005200
  H    -11.588200   76.907700   52.371100
  H    -17.610600   74.767900   55.298000
  H    -10.032900   74.315100   58.357900

 Total Charge           Charge          ....    0
 Multiplicity           Mult            ....    1
 Number of Electrons    NEL             ....  134
 Basis Dimension        Dim             ....  322

ORBITAL ENERGIES
----------------

  NO   OCC          E(Eh)            E(eV)
   0   2.0000     -88.965770     -2420.8817
   1   2.0000     -88.963703     -2420.8254
   2   2.0000     -10.334340      -281.2117
   3   2.0000     -10.331629      -281.1379
   4   2.0000     -10.322528      -280.8903
   5   2.0000     -10.318801      -280.7889
   6   2.0000     -10.306995      -280.4676
   7   2.0000     -10.303507      -280.3727
   8   2.0000     -10.298539      -280.2375
   9   2.0000     -10.295725      -280.1609
  10   2.0000     -10.293376      -280.0970
  11   2.0000     -10.293330      -280.0957
  12   2.0000     -10.290756      -280.0257
  13   2.0000     -10.287860      -279.9469
  14   2.0000     -10.286166      -279.9008
  15   2.0000     -10.278745      -279.6989
  16   2.0000      -8.079170      -219.8454
  17   2.0000      -8.078062      -219.8152
  18   2.0000      -6.037929      -164.3004
  19   2.0000      -6.036524      -164.2622
  20   2.0000      -6.033960      -164.1924
  21   2.0000      -6.032732      -164.1590
  22   2.0000      -6.029629      -164.0746
  23   2.0000      -6.028762      -164.0510
  24   2.0000      -1.001464       -27.2512
  25   2.0000      -0.979519       -26.6541
  26   2.0000      -0.908218       -24.7139
  27   2.0000      -0.905269       -24.6336
  28   2.0000      -0.870700       -23.6930
  29   2.0000      -0.847934       -23.0735
  30   2.0000      -0.841115       -22.8879
  31   2.0000      -0.817522       -22.2459
  32   2.0000      -0.779787       -21.2191
  33   2.0000      -0.768555       -20.9134
  34   2.0000      -0.703118       -19.1328
  35   2.0000      -0.692806       -18.8522
  36   2.0000      -0.689639       -18.7660
  37   2.0000      -0.664278       -18.0759
  38   2.0000      -0.641871       -17.4662
  39   2.0000      -0.617518       -16.8035
  40   2.0000      -0.593828       -16.1589
  41   2.0000      -0.572958       -15.5910
  42   2.0000      -0.560829       -15.2609
  43   2.0000      -0.550849       -14.9894
  44   2.0000      -0.544291       -14.8109
  45   2.0000      -0.520393       -14.1606
  46   2.0000      -0.517864       -14.0918
  47   2.0000      -0.506541       -13.7837
  48   2.0000      -0.500363       -13.6156
  49   2.0000      -0.496521       -13.5110
  50   2.0000      -0.490356       -13.3433
  51   2.0000      -0.469185       -12.7672
  52   2.0000      -0.465611       -12.6699
  53   2.0000      -0.461279       -12.5520
  54   2.0000      -0.457040       -12.4367
  55   2.0000      -0.441964       -12.0265
  56   2.0000      -0.440852       -11.9962
  57   2.0000      -0.436530       -11.8786
  58   2.0000      -0.430979       -11.7275
  59   2.0000      -0.423565       -11.5258
  60   2.0000      -0.420067       -11.4306
  61   2.0000      -0.416167       -11.3245
  62   2.0000      -0.400798       -10.9063
  63   2.0000      -0.354236        -9.6393
  64   2.0000      -0.332955        -9.0602
  65   2.0000      -0.326687        -8.8896
  66   2.0000      -0.292170        -7.9504
  67   0.0000       0.029417         0.8005
  68   0.0000       0.059841         1.6284
  69   0.0000       0.109499         2.9796
  70   0.0000       0.116350         3.1661
  71   0.0000       0.125518         3.4155

MULLIKEN ATOMIC CHARGES
-----------------------
   0 S :    0.096034
   1 C :   -0.136845
   2 C :   -0.057484
   3 C :    0.037789
   4 C :   -0.137404
   5 H :    0.015149
   6 C :    0.051542
   7 H :    0.024004
   8 H :    0.021365
   9 C :   -0.075937
  10 H :    0.042845
  11 H :    0.029020
  12 C :   -0.067529
  13 H :    0.033880
  14 H :    0.017158
  15 H :    0.039181
  16 S :    0.089756
  17 C :   -0.106548
  18 C :   -0.013028
  19 C :   -0.033818
  20 C :   -0.152248
  21 H :    0.019449
  22 C :    0.086803
  23 H :    0.006909
  24 H :    0.025131
  25 C :   -0.075592
  26 H :    0.038034
  27 H :    0.028135
  28 C :   -0.123247
  29 H :    0.056032
  30 H :    0.048996
  31 H :    0.038964
  32 H :    0.069368
  33 H :    0.064135
Sum of atomic charges:    0.0000000

LOEWDIN ATOMIC CHARGES
----------------------
   0 S :    0.361647
   1 C :   -0.194516
   2 C :   -0.069043
   3 C :   -0.060658
   4 C :   -0.165204
   5 H :    0.032268
   6 C :   -0.037396
   7 H :    0.030168
   8 H :    0.033422
   9 C :   -0.042724
  10 H :    0.033085
  11 H :    0.024403
  12 C :   -0.074269
  13 H :    0.027839
  14 H :    0.019103
  15 H :    0.028444
  16 S :    0.383486
  17 C :   -0.166021
  18 C :   -0.065031
  19 C :   -0.055755
  20 C :   -0.178577
  21 H :    0.030864
  22 C :   -0.037769
  23 H :    0.028815
  24 H :    0.031106
  25 C :   -0.044998
  26 H :    0.034206
  27 H :    0.020281
  28 C :   -0.086737
  29 H :    0.029662
  30 H :    0.033950
  31 H :    0.029519
  32 H :    0.040613
  33 H :    0.025818

  Mayer bond orders larger than 0.100000
B(  0-S ,  1-C ) :   1.1307 B(  0-S ,  4-C ) :   1.1008 B(  1-C ,  2-C ) :   1.6320
B(  1-C , 32-H ) :   0.9603 B(  2-C ,  3-C ) :   1.2088 B(  2-C ,  6-C ) :   1.0337
B(  3-C ,  4-C ) :   1.6320 B(  3-C ,  5-H ) :   0.9883 B(  4-C , 20-C ) :   1.0404
B(  6-C ,  7-H ) :   0.9452 B(  6-C ,  8-H ) :   0.9387 B(  6-C ,  9-C ) :   1.0565
B(  9-C , 10-H ) :   0.9591 B(  9-C , 11-H ) :   0.9529 B(  9-C , 12-C ) :   1.0856
B( 12-C , 13-H ) :   0.9728 B( 12-C , 14-H ) :   0.9712 B( 12-C , 15-H ) :   0.9728
B( 16-S , 17-C ) :   1.1616 B( 16-S , 20-C ) :   1.1247 B( 17-C , 18-C ) :   1.6004
B( 17-C , 33-H ) :   0.9711 B( 18-C , 19-C ) :   1.2080 B( 18-C , 21-H ) :   1.0002
B( 19-C , 20-C ) :   1.6150 B( 19-C , 22-C ) :   1.0570 B( 22-C , 23-H ) :   0.9283
B( 22-C , 24-H ) :   0.9305 B( 22-C , 25-C ) :   1.0749 B( 25-C , 26-H ) :   0.9572
B( 25-C , 27-H ) :   0.9565 B( 25-C , 28-C ) :   1.0623 B( 28-C , 29-H ) :   0.9738
B( 28-C , 30-H ) :   0.9733 B( 28-C , 31-H ) :   0.9757

Dispersion correction           -0.014629470
FINAL SINGLE POINT ENERGY     -1339.874208601317

DIPOLE MOMENT
-------------
                                X             Y             Z
Electronic contribution:      6.66446       6.11112      25.75525
Nuclear contribution   :     -6.58093      -6.39340     -26.35337
                        -----------------------------------------
Total Dipole Moment    :      0.08353      -0.28229      -0.59812
                        -----------------------------------------
Magnitude (a.u.)       :      0.66664
Magnitude (Debye)      :      1.69447

Rotational constants in cm-1:     0.021481     0.007857     0.006719
Rotational constants in MHz :   643.996787   235.540680   201.417321

                             ****ORCA TERMINATED NORMALLY****
TOTAL RUN TIME: 0 days 0 hours 0 minutes 31 seconds 494 msec
