                         Program Version 4.2.1 -  RELEASE  -
|  1> ! wB97X-D3 SP def2-SVP
|  2> %pal
|  3> nprocs 16
|  4> end
|  5>
|  6> * xyz 0 1
|  7> S 	 -58.1361 	 41.0472 	 113.069
|  8> C 	 -57.0568 	 42.2444 	 112.21
|  9> C 	 -56.1739 	 41.6199 	 111.382
| 10> C 	 -56.1337 	 40.2181 	 111.6
| 11> C 	 -56.9986 	 39.7781 	 112.562
| 12> H 	 -55.4897 	 39.5547 	 111.153
| 13> C 	 -55.1872 	 42.3472 	 110.472
| 14> H 	 -54.1611 	 42.3873 	 110.93
| 15> H 	 -55.6191 	 43.3656 	 110.465
| 16> C 	 -54.8858 	 41.7182 	 109.071
| 17> H 	 -54.4333 	 40.6918 	 109.194
| 18> H 	 -55.8751 	 41.5936 	 108.56
| 19> C 	 -53.9836 	 42.4378 	 108.087
| 20> H 	 -53.0314 	 42.4575 	 108.453
| 21> H 	 -54.0182 	 41.966 	 107.079
| 22> H 	 -54.2182 	 43.3892 	 107.908
| 23> S 	 -56.8787 	 38.3199 	 114.9
| 24> C 	 -56.7745 	 36.5308 	 114.702
| 25> C 	 -56.7241 	 36.2272 	 113.389
| 26> C 	 -56.8437 	 37.3049 	 112.437
| 27> C 	 -56.9523 	 38.4873 	 113.13
| 28> H 	 -56.7839 	 35.1469 	 113.273
| 29> C 	 -57.1434 	 37.0245 	 110.917
| 30> H 	 -56.3614 	 37.545 	 110.332
| 31> H 	 -57.9835 	 37.6325 	 110.693
| 32> C 	 -57.1865 	 35.5598 	 110.411
| 33> H 	 -57.8974 	 34.8699 	 110.863
| 34> H 	 -56.1708 	 35.1298 	 110.793
| 35> C 	 -57.357 	 35.5382 	 108.921
| 36> H 	 -57.2775 	 34.4538 	 108.675
| 37> H 	 -56.5773 	 36.0173 	 108.346
| 38> H 	 -58.2666 	 36.0368 	 108.658
| 39> H 	 -57.2191 	 43.3353 	 112.307
| 40> H 	 -56.5 	 35.7971 	 115.48
| 41> *
| 42>
| 43>                          ****END OF INPUT****

CARTESIAN COORDINATES (ANGSTROEM)
---------------------------------
  S    -58.136100   41.047200  113.069000
  C    -57.056800   42.244400  112.210000
  C    -56.173900   41.619900  111.382000
  C    -56.133700   40.218100  111.600000
  C    -56.998600   39.778100  112.562000
  H    -55.489700   39.554700  111.153000
  C    -55.187200   42.347200  110.472000
  H    -54.161100   42.387300  110.930000
  H    -55.619100   43.365600  110.465000
  C    -54.885800   41.718200  109.071000
  H    -54.433300   40.691800  109.194000
  H    -55.875100   41.593600  108.560000
  C    -53.983600   42.437800  108.087000
  H    -53.031400   42.457500  108.453000
  H    -54.018200   41.966000  107.079000
  H    -54.218200   43.389200  107.908000
  S    -56.878700   38.319900  114.900000
  C    -56.774500   36.530800  114.702000
  C    -56.724100   36.227200  113.389000
  C    -56.843700   37.304900  112.437000
  C    -56.952300   38.487300  113.130000
  H    -56.783900   35.146900  113.273000
  C    -57.143400   37.024500  110.917000
  H    -56.361400   37.545000  110.332000
  H    -57.983500   37.632500  110.693000
  C    -57.186500   35.559800  110.411000
  H    -57.897400   34.869900  110.863000
  H    -56.170800   35.129800  110.793000
  C    -57.357000   35.538200  108.921000
  H    -57.277500   34.453800  108.675000
  H    -56.577300   36.017300  108.346000
  H    -58.266600   36.036800  108.658000
  H    -57.219100   43.335300  112.307000
  H    -56.500000   35.797100  115.480000

 Total Charge           Charge          ....    0
 Multiplicity           Mult            ....    1
 Number of Electrons    NEL             ....  134
 Basis Dimension        Dim             ....  322

ORBITAL ENERGIES
----------------

  NO   OCC          E(Eh)            E(eV)
   0   2.0000     -88.963781     -2420.8276
   1   2.0000     -88.962682     -2420.7977
   2   2.0000     -10.323809      -280.9251
   3   2.0000     -10.323155      -280.9073
   4   2.0000     -10.318808      -280.7891
   5   2.0000     -10.315953      -280.7113
   6   2.0000     -10.306765      -280.4613
   7   2.0000     -10.301975      -280.3310
   8   2.0000     -10.301518      -280.3186
   9   2.0000     -10.298387      -280.2334
  10   2.0000     -10.298064      -280.2246
  11   2.0000     -10.297072      -280.1976
  12   2.0000     -10.290067      -280.0069
  13   2.0000     -10.285071      -279.8710
  14   2.0000     -10.279904      -279.7304
  15   2.0000     -10.266107      -279.3550
  16   2.0000      -8.077347      -219.7958
  17   2.0000      -8.076357      -219.7688
  18   2.0000      -6.036031      -164.2488
  19   2.0000      -6.035042      -164.2219
  20   2.0000      -6.032341      -164.1483
  21   2.0000      -6.031163      -164.1163
  22   2.0000      -6.027666      -164.0211
  23   2.0000      -6.026826      -163.9983
  24   2.0000      -1.003654       -27.3108
  25   2.0000      -0.976603       -26.5747
  26   2.0000      -0.908844       -24.7309
  27   2.0000      -0.907665       -24.6988
  28   2.0000      -0.876454       -23.8495
  29   2.0000      -0.853509       -23.2252
  30   2.0000      -0.843360       -22.9490
  31   2.0000      -0.817735       -22.2517
  32   2.0000      -0.785949       -21.3867
  33   2.0000      -0.774169       -21.0662
  34   2.0000      -0.713908       -19.4264
  35   2.0000      -0.703196       -19.1349
  36   2.0000      -0.692784       -18.8516
  37   2.0000      -0.649602       -17.6766
  38   2.0000      -0.636880       -17.3304
  39   2.0000      -0.621601       -16.9146
  40   2.0000      -0.592275       -16.1166
  41   2.0000      -0.575420       -15.6580
  42   2.0000      -0.566529       -15.4160
  43   2.0000      -0.554784       -15.0965
  44   2.0000      -0.539094       -14.6695
  45   2.0000      -0.525977       -14.3126
  46   2.0000      -0.517817       -14.0905
  47   2.0000      -0.510308       -13.8862
  48   2.0000      -0.503390       -13.6979
  49   2.0000      -0.498398       -13.5621
  50   2.0000      -0.491710       -13.3801
  51   2.0000      -0.480678       -13.0799
  52   2.0000      -0.475487       -12.9387
  53   2.0000      -0.472486       -12.8570
  54   2.0000      -0.458127       -12.4663
  55   2.0000      -0.448897       -12.2151
  56   2.0000      -0.443844       -12.0776
  57   2.0000      -0.429857       -11.6970
  58   2.0000      -0.428581       -11.6623
  59   2.0000      -0.423498       -11.5240
  60   2.0000      -0.417937       -11.3726
  61   2.0000      -0.417054       -11.3486
  62   2.0000      -0.416167       -11.3245
  63   2.0000      -0.347639        -9.4597
  64   2.0000      -0.331546        -9.0218
  65   2.0000      -0.328602        -8.9417
  66   2.0000      -0.288520        -7.8510
  67   0.0000       0.022711         0.6180
  68   0.0000       0.073658         2.0043
  69   0.0000       0.099395         2.7047
  70   0.0000       0.117201         3.1892
  71   0.0000       0.129029         3.5111

MULLIKEN ATOMIC CHARGES
-----------------------
   0 S :    0.093495
   1 C :   -0.166348
   2 C :   -0.025882
   3 C :    0.043928
   4 C :   -0.149366
   5 H :   -0.023972
   6 C :    0.059380
   7 H :    0.047354
   8 H :    0.023492
   9 C :   -0.148107
  10 H :    0.041565
  11 H :    0.035832
  12 C :    0.041662
  13 H :    0.006648
  14 H :    0.037634
  15 H :   -0.006148
  16 S :    0.095828
  17 C :   -0.109394
  18 C :   -0.056720
  19 C :   -0.010914
  20 C :   -0.157366
  21 H :    0.022781
  22 C :    0.070930
  23 H :    0.020064
  24 H :    0.028042
  25 C :   -0.108329
  26 H :    0.039535
  27 H :    0.038773
  28 C :   -0.013539
  29 H :    0.040029
  30 H :    0.025862
  31 H :    0.034982
  32 H :    0.058922
  33 H :    0.069345
Sum of atomic charges:    0.0000000

LOEWDIN ATOMIC CHARGES
----------------------
   0 S :    0.350754
   1 C :   -0.172829
   2 C :   -0.062159
   3 C :   -0.046346
   4 C :   -0.174415
   5 H :    0.015588
   6 C :   -0.035404
   7 H :    0.037637
   8 H :    0.031850
   9 C :   -0.047540
  10 H :    0.028959
  11 H :    0.026009
  12 C :   -0.050603
  13 H :    0.013881
  14 H :    0.039361
  15 H :    0.007575
  16 S :    0.365495
  17 C :   -0.178979
  18 C :   -0.077676
  19 C :   -0.053720
  20 C :   -0.187053
  21 H :    0.033441
  22 C :   -0.029860
  23 H :    0.033308
  24 H :    0.027677
  25 C :   -0.047961
  26 H :    0.023753
  27 H :    0.033034
  28 C :   -0.060555
  29 H :    0.036028
  30 H :    0.022933
  31 H :    0.025988
  32 H :    0.032048
  33 H :    0.039783

  Mayer bond orders larger than 0.100000
B(  0-S ,  1-C ) :   1.1022 B(  0-S ,  4-C ) :   1.1192 B(  1-C ,  2-C ) :   1.6462
B(  1-C , 32-H ) :   0.9642 B(  2-C ,  3-C ) :   1.1952 B(  2-C ,  6-C ) :   1.0263
B(  3-C ,  4-C ) :   1.6065 B(  3-C ,  5-H ) :   1.0070 B(  4-C , 20-C ) :   1.0841
B(  6-C ,  7-H ) :   0.9391 B(  6-C ,  8-H ) :   0.9398 B(  6-C ,  9-C ) :   1.0514
B(  9-C , 10-H ) :   0.9507 B(  9-C , 11-H ) :   0.9610 B(  9-C , 12-C ) :   1.0936
B( 12-C , 13-H ) :   0.9691 B( 12-C , 14-H ) :   0.9702 B( 12-C , 15-H ) :   0.9686
B( 16-S , 17-C ) :   1.1057 B( 16-S , 20-C ) :   1.1247 B( 17-C , 18-C ) :   1.6907
B( 17-C , 33-H ) :   0.9551 B( 18-C , 19-C ) :   1.1986 B( 18-C , 21-H ) :   0.9755
B( 19-C , 20-C ) :   1.6248 B( 19-C , 22-C ) :   1.0117 B( 22-C , 23-H ) :   0.9285
B( 22-C , 24-H ) :   0.9349 B( 22-C , 25-C ) :   1.0624 B( 25-C , 26-H ) :   0.9539
B( 25-C , 27-H ) :   0.9489 B( 25-C , 28-C ) :   1.0808 B( 28-C , 29-H ) :   0.9711
B( 28-C , 30-H ) :   0.9735 B( 28-C , 31-H ) :   0.9726

Dispersion correction           -0.013486752
FINAL SINGLE POINT ENERGY     -1339.843274119366

DIPOLE MOMENT
-------------
                                X             Y             Z
Electronic contribution:    -10.65791       4.15184      29.48146
Nuclear contribution   :     11.04398      -4.36997     -30.21989
                        -----------------------------------------
Total Dipole Moment    :      0.38607      -0.21813      -0.73842
                        -----------------------------------------
Magnitude (a.u.)       :      0.86134
Magnitude (Debye)      :      2.18935

Rotational constants in cm-1:     0.015286     0.008977     0.006348
Rotational constants in MHz :   458.271145   269.137600   190.298987

                             ****ORCA TERMINATED NORMALLY****
TOTAL RUN TIME: 0 days 0 hours 0 minutes 28 seconds 797 msec
