                         Program Version 4.2.1 -  RELEASE  -
|  1> ! wB97X-D3 SP def2-SVP
|  2> %pal
|  3> nprocs 16
|  4> end
|  5>
|  6> * xyz 0 1
|  7> S 	 -54.0945 	 39.1119 	 83.9481
|  8> C 	 -55.6135 	 40.0262 	 83.9757
|  9> C 	 -55.9195 	 40.477 	 85.2412
| 10> C 	 -54.8699 	 40.2237 	 86.1341
| 11> C 	 -53.8756 	 39.3824 	 85.6871
| 12> H 	 -54.8426 	 40.5748 	 87.134
| 13> C 	 -57.3233 	 41.0122 	 85.5907
| 14> H 	 -57.3109 	 41.4035 	 86.6189
| 15> H 	 -57.9794 	 40.1339 	 85.5139
| 16> C 	 -57.9052 	 42.1533 	 84.6579
| 17> H 	 -58.1775 	 41.7736 	 83.673
| 18> H 	 -58.8134 	 42.5154 	 85.048
| 19> C 	 -56.8321 	 43.1738 	 84.3506
| 20> H 	 -56.0589 	 42.7244 	 83.6574
| 21> H 	 -57.2798 	 43.9413 	 83.77
| 22> H 	 -56.396 	 43.5431 	 85.2749
| 23> S 	 -51.2769 	 40.0713 	 86.5444
| 24> C 	 -50.4814 	 38.966 	 87.5866
| 25> C 	 -51.1564 	 37.7428 	 87.8083
| 26> C 	 -52.3706 	 37.7027 	 87.0077
| 27> C 	 -52.6869 	 38.9371 	 86.4303
| 28> H 	 -50.7091 	 36.9875 	 88.4459
| 29> C 	 -53.2556 	 36.503 	 86.8938
| 30> H 	 -54.306 	 36.7247 	 86.6544
| 31> H 	 -53.2714 	 36.0386 	 87.8998
| 32> C 	 -52.8544 	 35.3922 	 85.9282
| 33> H 	 -51.7564 	 35.3276 	 85.8667
| 34> H 	 -53.2391 	 35.7125 	 84.9393
| 35> C 	 -53.4405 	 34.0559 	 86.2638
| 36> H 	 -53.0796 	 33.2815 	 85.6295
| 37> H 	 -54.5232 	 34.2181 	 86.137
| 38> H 	 -53.1552 	 33.8511 	 87.2599
| 39> H 	 -56.2894 	 40.1301 	 83.1533
| 40> H 	 -49.5091 	 39.2157 	 88.0609
| 41> *
| 42>
| 43>                          ****END OF INPUT****

CARTESIAN COORDINATES (ANGSTROEM)
---------------------------------
  S    -54.094500   39.111900   83.948100
  C    -55.613500   40.026200   83.975700
  C    -55.919500   40.477000   85.241200
  C    -54.869900   40.223700   86.134100
  C    -53.875600   39.382400   85.687100
  H    -54.842600   40.574800   87.134000
  C    -57.323300   41.012200   85.590700
  H    -57.310900   41.403500   86.618900
  H    -57.979400   40.133900   85.513900
  C    -57.905200   42.153300   84.657900
  H    -58.177500   41.773600   83.673000
  H    -58.813400   42.515400   85.048000
  C    -56.832100   43.173800   84.350600
  H    -56.058900   42.724400   83.657400
  H    -57.279800   43.941300   83.770000
  H    -56.396000   43.543100   85.274900
  S    -51.276900   40.071300   86.544400
  C    -50.481400   38.966000   87.586600
  C    -51.156400   37.742800   87.808300
  C    -52.370600   37.702700   87.007700
  C    -52.686900   38.937100   86.430300
  H    -50.709100   36.987500   88.445900
  C    -53.255600   36.503000   86.893800
  H    -54.306000   36.724700   86.654400
  H    -53.271400   36.038600   87.899800
  C    -52.854400   35.392200   85.928200
  H    -51.756400   35.327600   85.866700
  H    -53.239100   35.712500   84.939300
  C    -53.440500   34.055900   86.263800
  H    -53.079600   33.281500   85.629500
  H    -54.523200   34.218100   86.137000
  H    -53.155200   33.851100   87.259900
  H    -56.289400   40.130100   83.153300
  H    -49.509100   39.215700   88.060900

 Total Charge           Charge          ....    0
 Multiplicity           Mult            ....    1
 Number of Electrons    NEL             ....  134
 Basis Dimension        Dim             ....  322

ORBITAL ENERGIES
----------------

  NO   OCC          E(Eh)            E(eV)
   0   2.0000     -88.966029     -2420.8887
   1   2.0000     -88.965912     -2420.8855
   2   2.0000     -10.328861      -281.0626
   3   2.0000     -10.328663      -281.0572
   4   2.0000     -10.322858      -280.8992
   5   2.0000     -10.312181      -280.6087
   6   2.0000     -10.310574      -280.5650
   7   2.0000     -10.300973      -280.3037
   8   2.0000     -10.299732      -280.2700
   9   2.0000     -10.298768      -280.2437
  10   2.0000     -10.289827      -280.0004
  11   2.0000     -10.287853      -279.9467
  12   2.0000     -10.285027      -279.8698
  13   2.0000     -10.279743      -279.7260
  14   2.0000     -10.272907      -279.5400
  15   2.0000     -10.269871      -279.4574
  16   2.0000      -8.080483      -219.8811
  17   2.0000      -8.079690      -219.8595
  18   2.0000      -6.038821      -164.3247
  19   2.0000      -6.038172      -164.3070
  20   2.0000      -6.035119      -164.2239
  21   2.0000      -6.034322      -164.2023
  22   2.0000      -6.031356      -164.1215
  23   2.0000      -6.030531      -164.0991
  24   2.0000      -0.999684       -27.2028
  25   2.0000      -0.979332       -26.6490
  26   2.0000      -0.913704       -24.8631
  27   2.0000      -0.907959       -24.7068
  28   2.0000      -0.863779       -23.5046
  29   2.0000      -0.853816       -23.2335
  30   2.0000      -0.846338       -23.0300
  31   2.0000      -0.809569       -22.0295
  32   2.0000      -0.783095       -21.3091
  33   2.0000      -0.769815       -20.9477
  34   2.0000      -0.701563       -19.0905
  35   2.0000      -0.700129       -19.0515
  36   2.0000      -0.685401       -18.6507
  37   2.0000      -0.657675       -17.8962
  38   2.0000      -0.639234       -17.3944
  39   2.0000      -0.613170       -16.6852
  40   2.0000      -0.596960       -16.2441
  41   2.0000      -0.574439       -15.6313
  42   2.0000      -0.569266       -15.4905
  43   2.0000      -0.555458       -15.1148
  44   2.0000      -0.537231       -14.6188
  45   2.0000      -0.524715       -14.2782
  46   2.0000      -0.516915       -14.0660
  47   2.0000      -0.513347       -13.9689
  48   2.0000      -0.508361       -13.8332
  49   2.0000      -0.492225       -13.3941
  50   2.0000      -0.485260       -13.2046
  51   2.0000      -0.481297       -13.0968
  52   2.0000      -0.467604       -12.7241
  53   2.0000      -0.462917       -12.5966
  54   2.0000      -0.456691       -12.4272
  55   2.0000      -0.453345       -12.3361
  56   2.0000      -0.445292       -12.1170
  57   2.0000      -0.431414       -11.7394
  58   2.0000      -0.428082       -11.6487
  59   2.0000      -0.422513       -11.4972
  60   2.0000      -0.420638       -11.4461
  61   2.0000      -0.416895       -11.3443
  62   2.0000      -0.413200       -11.2437
  63   2.0000      -0.335149        -9.1199
  64   2.0000      -0.327454        -8.9105
  65   2.0000      -0.317953        -8.6519
  66   2.0000      -0.307325        -8.3627
  67   0.0000       0.039176         1.0660
  68   0.0000       0.049420         1.3448
  69   0.0000       0.110267         3.0005
  70   0.0000       0.113768         3.0958
  71   0.0000       0.126430         3.4403

MULLIKEN ATOMIC CHARGES
-----------------------
   0 S :    0.111906
   1 C :   -0.119612
   2 C :   -0.096750
   3 C :    0.049365
   4 C :   -0.173420
   5 H :   -0.002813
   6 C :    0.058958
   7 H :    0.029920
   8 H :    0.052448
   9 C :   -0.069864
  10 H :    0.013731
  11 H :    0.023009
  12 C :   -0.036256
  13 H :    0.045809
  14 H :    0.023510
  15 H :    0.032208
  16 S :    0.118740
  17 C :   -0.109657
  18 C :   -0.034859
  19 C :    0.008780
  20 C :   -0.182874
  21 H :    0.026392
  22 C :    0.031904
  23 H :    0.035162
  24 H :    0.014951
  25 C :   -0.088996
  26 H :    0.025000
  27 H :    0.025251
  28 C :   -0.006285
  29 H :    0.033555
  30 H :    0.033323
  31 H :    0.017315
  32 H :    0.038694
  33 H :    0.071456
Sum of atomic charges:   -0.0000000

LOEWDIN ATOMIC CHARGES
----------------------
   0 S :    0.389377
   1 C :   -0.183978
   2 C :   -0.067199
   3 C :   -0.051890
   4 C :   -0.195961
   5 H :    0.027223
   6 C :   -0.026435
   7 H :    0.029874
   8 H :    0.038357
   9 C :   -0.038263
  10 H :    0.019790
  11 H :    0.017700
  12 C :   -0.063825
  13 H :    0.035732
  14 H :    0.019610
  15 H :    0.022592
  16 S :    0.398436
  17 C :   -0.191947
  18 C :   -0.077569
  19 C :   -0.039509
  20 C :   -0.193679
  21 H :    0.034380
  22 C :   -0.039109
  23 H :    0.033562
  24 H :    0.029414
  25 C :   -0.042277
  26 H :    0.019610
  27 H :    0.022546
  28 C :   -0.054872
  29 H :    0.024925
  30 H :    0.030988
  31 H :    0.017219
  32 H :    0.021355
  33 H :    0.033822

  Mayer bond orders larger than 0.100000
B(  0-S ,  1-C ) :   1.1463 B(  0-S ,  4-C ) :   1.1369 B(  1-C ,  2-C ) :   1.6006
B(  1-C ,  4-C ) :   0.1029 B(  1-C , 32-H ) :   0.9672 B(  2-C ,  3-C ) :   1.2621
B(  2-C ,  6-C ) :   1.0039 B(  3-C ,  4-C ) :   1.5845 B(  3-C ,  5-H ) :   0.9969
B(  4-C , 20-C ) :   1.0310 B(  6-C ,  7-H ) :   0.9460 B(  6-C ,  8-H ) :   0.9438
B(  6-C ,  9-C ) :   1.0648 B(  9-C , 10-H ) :   0.9505 B(  9-C , 11-H ) :   0.9601
B(  9-C , 12-C ) :   1.0913 B( 12-C , 13-H ) :   0.9630 B( 12-C , 14-H ) :   0.9713
B( 12-C , 15-H ) :   0.9787 B( 16-S , 17-C ) :   1.1804 B( 16-S , 20-C ) :   1.1203
B( 17-C , 18-C ) :   1.6043 B( 17-C , 33-H ) :   0.9591 B( 18-C , 19-C ) :   1.2147
B( 18-C , 21-H ) :   0.9925 B( 19-C , 20-C ) :   1.6108 B( 19-C , 22-C ) :   1.0589
B( 22-C , 23-H ) :   0.9303 B( 22-C , 24-H ) :   0.9374 B( 22-C , 25-C ) :   1.0554
B( 25-C , 26-H ) :   0.9591 B( 25-C , 27-H ) :   0.9501 B( 25-C , 28-C ) :   1.0828
B( 28-C , 29-H ) :   0.9713 B( 28-C , 30-H ) :   0.9749 B( 28-C , 31-H ) :   0.9747

Dispersion correction           -0.014319897
FINAL SINGLE POINT ENERGY     -1339.878675638062

DIPOLE MOMENT
-------------
                                X             Y             Z
Electronic contribution:     16.05410       5.64113      -0.57689
Nuclear contribution   :    -16.44588      -5.77734       0.80967
                        -----------------------------------------
Total Dipole Moment    :     -0.39178      -0.13621       0.23278
                        -----------------------------------------
Magnitude (a.u.)       :      0.47564
Magnitude (Debye)      :      1.20899

Rotational constants in cm-1:     0.021150     0.007685     0.006354
Rotational constants in MHz :   634.056008   230.383874   190.495471

                             ****ORCA TERMINATED NORMALLY****
TOTAL RUN TIME: 0 days 0 hours 0 minutes 29 seconds 280 msec
