                         Program Version 4.2.1 -  RELEASE  -
|  1> ! wB97X-D3 SP def2-SVP
|  2> %pal
|  3> nprocs 16
|  4> end
|  5>
|  6> * xyz 0 1
|  7> S 	 -53.3883 	 12.6284 	 89.5285
|  8> C 	 -52.0415 	 13.6545 	 89.459
|  9> C 	 -51.6518 	 14.0064 	 88.1619
| 10> C 	 -52.5273 	 13.4725 	 87.1843
| 11> C 	 -53.641 	 12.7879 	 87.7467
| 12> H 	 -52.4427 	 13.6711 	 86.0954
| 13> C 	 -50.3922 	 14.6278 	 87.8363
| 14> H 	 -49.9471 	 14.2502 	 86.912
| 15> H 	 -49.6563 	 14.5217 	 88.6113
| 16> C 	 -50.5644 	 16.1976 	 87.7798
| 17> H 	 -51.291 	 16.4078 	 86.9994
| 18> H 	 -50.8885 	 16.5629 	 88.7634
| 19> C 	 -49.3054 	 16.9463 	 87.4556
| 20> H 	 -48.6108 	 17.2558 	 88.2694
| 21> H 	 -48.8057 	 16.4462 	 86.6617
| 22> H 	 -49.5419 	 17.9177 	 86.9456
| 23> S 	 -55.6169 	 10.9047 	 87.6386
| 24> C 	 -57.0738 	 11.0597 	 86.71
| 25> C 	 -56.9618 	 12.2075 	 85.9525
| 26> C 	 -55.7189 	 12.9896 	 86.1777
| 27> C 	 -54.8653 	 12.3969 	 87.0837
| 28> H 	 -57.7227 	 12.4403 	 85.2947
| 29> C 	 -55.5081 	 14.2898 	 85.5052
| 30> H 	 -54.5387 	 14.7414 	 85.8244
| 31> H 	 -56.3089 	 15.0352 	 85.8314
| 32> C 	 -55.4892 	 14.1556 	 83.9429
| 33> H 	 -55.5621 	 15.1478 	 83.4441
| 34> H 	 -56.4057 	 13.6465 	 83.6655
| 35> C 	 -54.2474 	 13.3831 	 83.3295
| 36> H 	 -54.1375 	 12.4146 	 83.801
| 37> H 	 -53.3177 	 13.9553 	 83.5078
| 38> H 	 -54.5148 	 13.1317 	 82.2375
| 39> H 	 -51.4103 	 13.7829 	 90.3234
| 40> H 	 -57.8495 	 10.3184 	 86.7083
| 41> *
| 42>
| 43>                          ****END OF INPUT****

CARTESIAN COORDINATES (ANGSTROEM)
---------------------------------
  S    -53.388300   12.628400   89.528500
  C    -52.041500   13.654500   89.459000
  C    -51.651800   14.006400   88.161900
  C    -52.527300   13.472500   87.184300
  C    -53.641000   12.787900   87.746700
  H    -52.442700   13.671100   86.095400
  C    -50.392200   14.627800   87.836300
  H    -49.947100   14.250200   86.912000
  H    -49.656300   14.521700   88.611300
  C    -50.564400   16.197600   87.779800
  H    -51.291000   16.407800   86.999400
  H    -50.888500   16.562900   88.763400
  C    -49.305400   16.946300   87.455600
  H    -48.610800   17.255800   88.269400
  H    -48.805700   16.446200   86.661700
  H    -49.541900   17.917700   86.945600
  S    -55.616900   10.904700   87.638600
  C    -57.073800   11.059700   86.710000
  C    -56.961800   12.207500   85.952500
  C    -55.718900   12.989600   86.177700
  C    -54.865300   12.396900   87.083700
  H    -57.722700   12.440300   85.294700
  C    -55.508100   14.289800   85.505200
  H    -54.538700   14.741400   85.824400
  H    -56.308900   15.035200   85.831400
  C    -55.489200   14.155600   83.942900
  H    -55.562100   15.147800   83.444100
  H    -56.405700   13.646500   83.665500
  C    -54.247400   13.383100   83.329500
  H    -54.137500   12.414600   83.801000
  H    -53.317700   13.955300   83.507800
  H    -54.514800   13.131700   82.237500
  H    -51.410300   13.782900   90.323400
  H    -57.849500   10.318400   86.708300

 Total Charge           Charge          ....    0
 Multiplicity           Mult            ....    1
 Number of Electrons    NEL             ....  134
 Basis Dimension        Dim             ....  322

ORBITAL ENERGIES
----------------

  NO   OCC          E(Eh)            E(eV)
   0   2.0000     -88.970668     -2421.0150
   1   2.0000     -88.956756     -2420.6364
   2   2.0000     -10.337860      -281.3075
   3   2.0000     -10.328785      -281.0605
   4   2.0000     -10.320148      -280.8255
   5   2.0000     -10.312288      -280.6116
   6   2.0000     -10.307432      -280.4795
   7   2.0000     -10.303019      -280.3594
   8   2.0000     -10.297745      -280.2159
   9   2.0000     -10.297482      -280.2087
  10   2.0000     -10.294460      -280.1265
  11   2.0000     -10.293075      -280.0888
  12   2.0000     -10.288333      -279.9598
  13   2.0000     -10.287776      -279.9446
  14   2.0000     -10.287087      -279.9259
  15   2.0000     -10.277373      -279.6615
  16   2.0000      -8.085222      -220.0101
  17   2.0000      -8.072325      -219.6591
  18   2.0000      -6.043649      -164.4561
  19   2.0000      -6.039691      -164.3483
  20   2.0000      -6.036131      -164.2515
  21   2.0000      -6.030992      -164.1116
  22   2.0000      -6.026528      -163.9902
  23   2.0000      -6.023044      -163.8953
  24   2.0000      -1.005318       -27.3561
  25   2.0000      -0.985126       -26.8066
  26   2.0000      -0.916517       -24.9397
  27   2.0000      -0.903350       -24.5814
  28   2.0000      -0.872926       -23.7535
  29   2.0000      -0.857039       -23.3212
  30   2.0000      -0.837483       -22.7891
  31   2.0000      -0.817494       -22.2451
  32   2.0000      -0.777918       -21.1682
  33   2.0000      -0.767997       -20.8982
  34   2.0000      -0.707987       -19.2653
  35   2.0000      -0.698325       -19.0024
  36   2.0000      -0.695896       -18.9363
  37   2.0000      -0.661278       -17.9943
  38   2.0000      -0.642093       -17.4722
  39   2.0000      -0.625240       -17.0136
  40   2.0000      -0.598819       -16.2947
  41   2.0000      -0.575973       -15.6730
  42   2.0000      -0.566061       -15.4033
  43   2.0000      -0.543191       -14.7810
  44   2.0000      -0.537628       -14.6296
  45   2.0000      -0.526405       -14.3242
  46   2.0000      -0.518724       -14.1152
  47   2.0000      -0.514643       -14.0041
  48   2.0000      -0.508103       -13.8262
  49   2.0000      -0.500866       -13.6293
  50   2.0000      -0.489695       -13.3253
  51   2.0000      -0.480554       -13.0766
  52   2.0000      -0.473515       -12.8850
  53   2.0000      -0.466218       -12.6864
  54   2.0000      -0.460425       -12.5288
  55   2.0000      -0.444550       -12.0968
  56   2.0000      -0.441225       -12.0063
  57   2.0000      -0.436422       -11.8756
  58   2.0000      -0.431231       -11.7344
  59   2.0000      -0.429320       -11.6824
  60   2.0000      -0.420603       -11.4452
  61   2.0000      -0.413608       -11.2548
  62   2.0000      -0.407494       -11.0885
  63   2.0000      -0.355465        -9.6727
  64   2.0000      -0.331860        -9.0304
  65   2.0000      -0.322079        -8.7642
  66   2.0000      -0.285871        -7.7789
  67   0.0000       0.021505         0.5852
  68   0.0000       0.071094         1.9346
  69   0.0000       0.107100         2.9143
  70   0.0000       0.121870         3.3162
  71   0.0000       0.124718         3.3937

MULLIKEN ATOMIC CHARGES
-----------------------
   0 S :    0.131420
   1 C :   -0.105913
   2 C :   -0.077328
   3 C :    0.023496
   4 C :   -0.145011
   5 H :    0.023278
   6 C :    0.055564
   7 H :    0.028784
   8 H :    0.014037
   9 C :   -0.085334
  10 H :    0.026321
  11 H :    0.031887
  12 C :   -0.043984
  13 H :    0.047096
  14 H :    0.012222
  15 H :    0.027290
  16 S :    0.066050
  17 C :   -0.074543
  18 C :   -0.014145
  19 C :   -0.041129
  20 C :   -0.135367
  21 H :   -0.003968
  22 C :    0.030709
  23 H :    0.023529
  24 H :    0.052768
  25 C :   -0.091815
  26 H :    0.035533
  27 H :    0.022805
  28 C :   -0.086934
  29 H :    0.043332
  30 H :    0.047180
  31 H :    0.053136
  32 H :    0.048235
  33 H :    0.060799
Sum of atomic charges:    0.0000000

LOEWDIN ATOMIC CHARGES
----------------------
   0 S :    0.421661
   1 C :   -0.207966
   2 C :   -0.069774
   3 C :   -0.056879
   4 C :   -0.182930
   5 H :    0.035865
   6 C :   -0.032536
   7 H :    0.031318
   8 H :    0.027475
   9 C :   -0.034601
  10 H :    0.022175
  11 H :    0.026301
  12 C :   -0.078676
  13 H :    0.030093
  14 H :    0.017862
  15 H :    0.033100
  16 S :    0.390566
  17 C :   -0.175655
  18 C :   -0.064533
  19 C :   -0.057115
  20 C :   -0.194575
  21 H :    0.015921
  22 C :   -0.042292
  23 H :    0.029332
  24 H :    0.043554
  25 C :   -0.041501
  26 H :    0.025654
  27 H :    0.017276
  28 C :   -0.074277
  29 H :    0.023884
  30 H :    0.025023
  31 H :    0.040334
  32 H :    0.025224
  33 H :    0.030692

  Mayer bond orders larger than 0.100000
B(  0-S ,  1-C ) :   1.1675 B(  0-S ,  4-C ) :   1.1535 B(  1-C ,  2-C ) :   1.5601
B(  1-C ,  4-C ) :   0.1069 B(  1-C , 32-H ) :   0.9635 B(  2-C ,  3-C ) :   1.2841
B(  2-C ,  6-C ) :   1.0528 B(  3-C ,  4-C ) :   1.5149 B(  3-C ,  5-H ) :   0.9843
B(  4-C , 20-C ) :   1.0738 B(  6-C ,  7-H ) :   0.9421 B(  6-C ,  8-H ) :   0.9379
B(  6-C ,  9-C ) :   1.0514 B(  9-C , 10-H ) :   0.9596 B(  9-C , 11-H ) :   0.9592
B(  9-C , 12-C ) :   1.0859 B( 12-C , 13-H ) :   0.9751 B( 12-C , 14-H ) :   0.9676
B( 12-C , 15-H ) :   0.9706 B( 16-S , 17-C ) :   1.1517 B( 16-S , 20-C ) :   1.1204
B( 17-C , 18-C ) :   1.6087 B( 17-C , 33-H ) :   0.9741 B( 18-C , 19-C ) :   1.1998
B( 18-C , 21-H ) :   1.0031 B( 19-C , 20-C ) :   1.5949 B( 19-C , 22-C ) :   1.0576
B( 22-C , 23-H ) :   0.9405 B( 22-C , 24-H ) :   0.9319 B( 22-C , 25-C ) :   1.0550
B( 25-C , 26-H ) :   0.9582 B( 25-C , 27-H ) :   0.9610 B( 25-C , 28-C ) :   1.0642
B( 28-C , 29-H ) :   0.9769 B( 28-C , 30-H ) :   0.9729 B( 28-C , 31-H ) :   0.9727

Dispersion correction           -0.014381560
FINAL SINGLE POINT ENERGY     -1339.878296167408

DIPOLE MOMENT
-------------
                                X             Y             Z
Electronic contribution:    -13.79057     -20.79402      17.55811
Nuclear contribution   :     13.92222      21.23850     -17.96631
                        -----------------------------------------
Total Dipole Moment    :      0.13165       0.44448      -0.40820
                        -----------------------------------------
Magnitude (a.u.)       :      0.61768
Magnitude (Debye)      :      1.57001

Rotational constants in cm-1:     0.019634     0.008679     0.006410
Rotational constants in MHz :   588.610010   260.190784   192.162628

                             ****ORCA TERMINATED NORMALLY****
TOTAL RUN TIME: 0 days 0 hours 0 minutes 29 seconds 964 msec
