                         Program Version 4.2.1 -  RELEASE  -
|  1> ! wB97X-D3 SP def2-SVP
|  2> %pal
|  3> nprocs 16
|  4> end
|  5>
|  6> * xyz 0 1
|  7> S 	 -3.68025 	 37.6618 	 33.0924
|  8> C 	 -5.20171 	 36.6829 	 32.8554
|  9> C 	 -6.33499 	 37.3839 	 33.2209
| 10> C 	 -5.97223 	 38.7003 	 33.659
| 11> C 	 -4.6284 	 39.0013 	 33.564
| 12> H 	 -6.72339 	 39.4155 	 34.1215
| 13> C 	 -7.76297 	 36.8386 	 33.1827
| 14> H 	 -7.80996 	 36.0661 	 33.9512
| 15> H 	 -7.89701 	 36.2249 	 32.2607
| 16> C 	 -8.93293 	 37.7951 	 33.5918
| 17> H 	 -8.9224 	 37.9278 	 34.6462
| 18> H 	 -8.73693 	 38.7824 	 33.2362
| 19> C 	 -10.3242 	 37.3336 	 33.2479
| 20> H 	 -11.0441 	 37.9928 	 33.8511
| 21> H 	 -10.5524 	 37.4006 	 32.2073
| 22> H 	 -10.3931 	 36.2476 	 33.5253
| 23> S 	 -2.64973 	 40.4505 	 34.9323
| 24> C 	 -2.83285 	 42.2057 	 35.0052
| 25> C 	 -3.90161 	 42.6251 	 34.2467
| 26> C 	 -4.57039 	 41.5886 	 33.5881
| 27> C 	 -4.01225 	 40.326 	 33.8806
| 28> H 	 -4.17697 	 43.5877 	 34.2617
| 29> C 	 -5.73599 	 41.9485 	 32.6465
| 30> H 	 -6.18139 	 41.0782 	 32.179
| 31> H 	 -5.23876 	 42.5214 	 31.8616
| 32> C 	 -6.87479 	 42.7739 	 33.1378
| 33> H 	 -6.58063 	 43.7519 	 33.4738
| 34> H 	 -7.17303 	 42.4598 	 34.1038
| 35> C 	 -8.01184 	 42.9077 	 32.0649
| 36> H 	 -7.58841 	 43.3336 	 31.1576
| 37> H 	 -8.81081 	 43.4416 	 32.46
| 38> H 	 -8.3815 	 41.9327 	 31.937
| 39> H 	 -5.21982 	 35.6421 	 32.5676
| 40> H 	 -2.31822 	 42.951 	 35.5583
| 41> *
| 42>
| 43>                          ****END OF INPUT****

CARTESIAN COORDINATES (ANGSTROEM)
---------------------------------
  S     -3.680250   37.661800   33.092400
  C     -5.201710   36.682900   32.855400
  C     -6.334990   37.383900   33.220900
  C     -5.972230   38.700300   33.659000
  C     -4.628400   39.001300   33.564000
  H     -6.723390   39.415500   34.121500
  C     -7.762970   36.838600   33.182700
  H     -7.809960   36.066100   33.951200
  H     -7.897010   36.224900   32.260700
  C     -8.932930   37.795100   33.591800
  H     -8.922400   37.927800   34.646200
  H     -8.736930   38.782400   33.236200
  C    -10.324200   37.333600   33.247900
  H    -11.044100   37.992800   33.851100
  H    -10.552400   37.400600   32.207300
  H    -10.393100   36.247600   33.525300
  S     -2.649730   40.450500   34.932300
  C     -2.832850   42.205700   35.005200
  C     -3.901610   42.625100   34.246700
  C     -4.570390   41.588600   33.588100
  C     -4.012250   40.326000   33.880600
  H     -4.176970   43.587700   34.261700
  C     -5.735990   41.948500   32.646500
  H     -6.181390   41.078200   32.179000
  H     -5.238760   42.521400   31.861600
  C     -6.874790   42.773900   33.137800
  H     -6.580630   43.751900   33.473800
  H     -7.173030   42.459800   34.103800
  C     -8.011840   42.907700   32.064900
  H     -7.588410   43.333600   31.157600
  H     -8.810810   43.441600   32.460000
  H     -8.381500   41.932700   31.937000
  H     -5.219820   35.642100   32.567600
  H     -2.318220   42.951000   35.558300

 Total Charge           Charge          ....    0
 Multiplicity           Mult            ....    1
 Number of Electrons    NEL             ....  134
 Basis Dimension        Dim             ....  322

ORBITAL ENERGIES
----------------

  NO   OCC          E(Eh)            E(eV)
   0   2.0000     -88.970867     -2421.0204
   1   2.0000     -88.967134     -2420.9188
   2   2.0000     -10.328736      -281.0592
   3   2.0000     -10.328290      -281.0470
   4   2.0000     -10.315077      -280.6875
   5   2.0000     -10.314474      -280.6711
   6   2.0000     -10.305376      -280.4235
   7   2.0000     -10.301713      -280.3239
   8   2.0000     -10.300966      -280.3035
   9   2.0000     -10.295866      -280.1647
  10   2.0000     -10.287817      -279.9457
  11   2.0000     -10.286438      -279.9082
  12   2.0000     -10.286079      -279.8984
  13   2.0000     -10.280503      -279.7467
  14   2.0000     -10.279320      -279.7145
  15   2.0000     -10.274635      -279.5870
  16   2.0000      -8.085266      -220.0113
  17   2.0000      -8.081480      -219.9083
  18   2.0000      -6.043786      -164.4598
  19   2.0000      -6.040044      -164.3580
  20   2.0000      -6.039777      -164.3507
  21   2.0000      -6.036167      -164.2525
  22   2.0000      -6.036090      -164.2503
  23   2.0000      -6.032094      -164.1416
  24   2.0000      -1.005138       -27.3512
  25   2.0000      -0.982513       -26.7355
  26   2.0000      -0.914056       -24.8727
  27   2.0000      -0.911695       -24.8085
  28   2.0000      -0.871052       -23.7025
  29   2.0000      -0.852965       -23.2104
  30   2.0000      -0.845059       -22.9952
  31   2.0000      -0.812602       -22.1120
  32   2.0000      -0.785437       -21.3728
  33   2.0000      -0.774774       -21.0827
  34   2.0000      -0.714035       -19.4299
  35   2.0000      -0.706308       -19.2196
  36   2.0000      -0.692025       -18.8310
  37   2.0000      -0.662205       -18.0195
  38   2.0000      -0.638490       -17.3742
  39   2.0000      -0.616785       -16.7836
  40   2.0000      -0.600516       -16.3409
  41   2.0000      -0.572531       -15.5794
  42   2.0000      -0.566969       -15.4280
  43   2.0000      -0.562860       -15.3162
  44   2.0000      -0.531498       -14.4628
  45   2.0000      -0.527064       -14.3421
  46   2.0000      -0.516751       -14.0615
  47   2.0000      -0.510094       -13.8804
  48   2.0000      -0.504692       -13.7334
  49   2.0000      -0.491428       -13.3724
  50   2.0000      -0.490503       -13.3473
  51   2.0000      -0.481846       -13.1117
  52   2.0000      -0.471601       -12.8329
  53   2.0000      -0.468650       -12.7526
  54   2.0000      -0.462658       -12.5896
  55   2.0000      -0.455166       -12.3857
  56   2.0000      -0.450766       -12.2660
  57   2.0000      -0.442449       -12.0397
  58   2.0000      -0.433425       -11.7941
  59   2.0000      -0.425936       -11.5903
  60   2.0000      -0.423436       -11.5223
  61   2.0000      -0.420190       -11.4340
  62   2.0000      -0.411432       -11.1956
  63   2.0000      -0.346121        -9.4184
  64   2.0000      -0.331810        -9.0290
  65   2.0000      -0.330589        -8.9958
  66   2.0000      -0.288260        -7.8439
  67   0.0000       0.029738         0.8092
  68   0.0000       0.073773         2.0075
  69   0.0000       0.100882         2.7451
  70   0.0000       0.120511         3.2793
  71   0.0000       0.128935         3.5085

MULLIKEN ATOMIC CHARGES
-----------------------
   0 S :    0.103838
   1 C :   -0.138784
   2 C :   -0.071312
   3 C :   -0.025265
   4 C :   -0.133881
   5 H :    0.038783
   6 C :    0.044889
   7 H :    0.034149
   8 H :    0.040204
   9 C :   -0.070985
  10 H :    0.023148
  11 H :    0.021355
  12 C :   -0.050007
  13 H :    0.047581
  14 H :    0.035133
  15 H :    0.035771
  16 S :    0.120374
  17 C :   -0.068424
  18 C :   -0.007336
  19 C :   -0.023369
  20 C :   -0.139188
  21 H :   -0.031981
  22 C :    0.070212
  23 H :    0.017930
  24 H :    0.031479
  25 C :   -0.076093
  26 H :    0.004049
  27 H :    0.000977
  28 C :    0.010578
  29 H :    0.040012
  30 H :    0.019827
  31 H :    0.018178
  32 H :    0.039065
  33 H :    0.039090
Sum of atomic charges:   -0.0000000

LOEWDIN ATOMIC CHARGES
----------------------
   0 S :    0.394333
   1 C :   -0.181994
   2 C :   -0.056974
   3 C :   -0.080664
   4 C :   -0.200904
   5 H :    0.040783
   6 C :   -0.037353
   7 H :    0.036708
   8 H :    0.037388
   9 C :   -0.044057
  10 H :    0.022900
  11 H :    0.015278
  12 C :   -0.062036
  13 H :    0.038838
  14 H :    0.019574
  15 H :    0.030477
  16 S :    0.416753
  17 C :   -0.176674
  18 C :   -0.055534
  19 C :   -0.050440
  20 C :   -0.211141
  21 H :    0.010717
  22 C :   -0.031747
  23 H :    0.026499
  24 H :    0.035310
  25 C :   -0.044184
  26 H :    0.015326
  27 H :    0.015484
  28 C :   -0.043261
  29 H :    0.030379
  30 H :    0.019832
  31 H :    0.019658
  32 H :    0.024193
  33 H :    0.026535

  Mayer bond orders larger than 0.100000
B(  0-S ,  1-C ) :   1.1148 B(  0-S ,  4-C ) :   1.1637 B(  1-C ,  2-C ) :   1.6346
B(  1-C , 32-H ) :   0.9727 B(  2-C ,  3-C ) :   1.2521 B(  2-C ,  6-C ) :   1.0020
B(  3-C ,  4-C ) :   1.5746 B(  3-C ,  5-H ) :   0.9749 B(  4-C , 20-C ) :   1.0039
B(  6-C ,  7-H ) :   0.9293 B(  6-C ,  8-H ) :   0.9488 B(  6-C ,  9-C ) :   1.0626
B(  9-C , 10-H ) :   0.9490 B(  9-C , 11-H ) :   0.9536 B(  9-C , 12-C ) :   1.0883
B( 12-C , 13-H ) :   0.9717 B( 12-C , 14-H ) :   0.9779 B( 12-C , 15-H ) :   0.9717
B( 16-S , 17-C ) :   1.1495 B( 16-S , 20-C ) :   1.1517 B( 17-C , 18-C ) :   1.6039
B( 17-C , 33-H ) :   0.9679 B( 18-C , 19-C ) :   1.2635 B( 18-C , 21-H ) :   1.0082
B( 19-C , 20-C ) :   1.5713 B( 19-C , 22-C ) :   1.0307 B( 22-C , 23-H ) :   0.9394
B( 22-C , 24-H ) :   0.9300 B( 22-C , 25-C ) :   1.0655 B( 25-C , 26-H ) :   0.9409
B( 25-C , 27-H ) :   0.9510 B( 25-C , 28-C ) :   1.0798 B( 28-C , 29-H ) :   0.9756
B( 28-C , 30-H ) :   0.9716 B( 28-C , 31-H ) :   0.9764

Dispersion correction           -0.013962917
FINAL SINGLE POINT ENERGY     -1339.862472578323

DIPOLE MOMENT
-------------
                                X             Y             Z
Electronic contribution:     33.09611      -6.04179       6.30372
Nuclear contribution   :    -33.90772       6.30602      -6.25202
                        -----------------------------------------
Total Dipole Moment    :     -0.81161       0.26423       0.05169
                        -----------------------------------------
Magnitude (a.u.)       :      0.85510
Magnitude (Debye)      :      2.17349

Rotational constants in cm-1:     0.015739     0.009760     0.006547
Rotational constants in MHz :   471.853782   292.598016   196.268888

                             ****ORCA TERMINATED NORMALLY****
TOTAL RUN TIME: 0 days 0 hours 0 minutes 33 seconds 894 msec
