                         Program Version 4.2.1 -  RELEASE  -
|  1> ! wB97X-D3 SP def2-SVP
|  2> %pal
|  3> nprocs 16
|  4> end
|  5>
|  6> * xyz 0 1
|  7> S 	 46.6658 	 4.17883 	 85.4357
|  8> C 	 46.5936 	 5.41101 	 84.2023
|  9> C 	 46.71 	 6.69824 	 84.6756
| 10> C 	 46.9153 	 6.66112 	 86.1186
| 11> C 	 46.9226 	 5.39791 	 86.707
| 12> H 	 46.8752 	 7.52657 	 86.7591
| 13> C 	 46.6668 	 8.03575 	 83.9757
| 14> H 	 46.0281 	 8.5692 	 84.7233
| 15> H 	 46.1307 	 7.89377 	 82.9878
| 16> C 	 48.0255 	 8.84615 	 83.8591
| 17> H 	 48.7062 	 8.62385 	 84.6076
| 18> H 	 48.5545 	 8.63291 	 82.904
| 19> C 	 47.7138 	 10.3237 	 83.7704
| 20> H 	 47.1291 	 10.5408 	 84.6961
| 21> H 	 48.5728 	 10.9395 	 83.8366
| 22> H 	 47.0524 	 10.5045 	 82.9321
| 23> S 	 46.1865 	 3.63977 	 88.7945
| 24> C 	 46.9003 	 3.79835 	 90.3361
| 25> C 	 47.5531 	 4.96276 	 90.4762
| 26> C 	 47.569 	 5.65189 	 89.2233
| 27> C 	 46.9167 	 5.09005 	 88.1516
| 28> H 	 48.056 	 5.21571 	 91.3689
| 29> C 	 48.2682 	 6.9413 	 89.1421
| 30> H 	 48.5162 	 7.34984 	 90.1005
| 31> H 	 47.648 	 7.763 	 88.878
| 32> C 	 49.5538 	 6.86994 	 88.3185
| 33> H 	 49.5583 	 6.28461 	 87.4004
| 34> H 	 50.2161 	 6.4868 	 89.0764
| 35> C 	 50.1276 	 8.1925 	 87.8469
| 36> H 	 49.4306 	 8.74107 	 87.1915
| 37> H 	 51.087 	 8.00899 	 87.4266
| 38> H 	 50.3407 	 8.9629 	 88.5754
| 39> H 	 46.3809 	 5.14002 	 83.1795
| 40> H 	 46.8182 	 3.01553 	 91.0214
| 41> *
| 42>
| 43>                          ****END OF INPUT****

CARTESIAN COORDINATES (ANGSTROEM)
---------------------------------
  S     46.665800    4.178830   85.435700
  C     46.593600    5.411010   84.202300
  C     46.710000    6.698240   84.675600
  C     46.915300    6.661120   86.118600
  C     46.922600    5.397910   86.707000
  H     46.875200    7.526570   86.759100
  C     46.666800    8.035750   83.975700
  H     46.028100    8.569200   84.723300
  H     46.130700    7.893770   82.987800
  C     48.025500    8.846150   83.859100
  H     48.706200    8.623850   84.607600
  H     48.554500    8.632910   82.904000
  C     47.713800   10.323700   83.770400
  H     47.129100   10.540800   84.696100
  H     48.572800   10.939500   83.836600
  H     47.052400   10.504500   82.932100
  S     46.186500    3.639770   88.794500
  C     46.900300    3.798350   90.336100
  C     47.553100    4.962760   90.476200
  C     47.569000    5.651890   89.223300
  C     46.916700    5.090050   88.151600
  H     48.056000    5.215710   91.368900
  C     48.268200    6.941300   89.142100
  H     48.516200    7.349840   90.100500
  H     47.648000    7.763000   88.878000
  C     49.553800    6.869940   88.318500
  H     49.558300    6.284610   87.400400
  H     50.216100    6.486800   89.076400
  C     50.127600    8.192500   87.846900
  H     49.430600    8.741070   87.191500
  H     51.087000    8.008990   87.426600
  H     50.340700    8.962900   88.575400
  H     46.380900    5.140020   83.179500
  H     46.818200    3.015530   91.021400

 Total Charge           Charge          ....    0
 Multiplicity           Mult            ....    1
 Number of Electrons    NEL             ....  134
 Basis Dimension        Dim             ....  322

ORBITAL ENERGIES
----------------

  NO   OCC          E(Eh)            E(eV)
   0   2.0000     -88.966981     -2420.9146
   1   2.0000     -88.959728     -2420.7173
   2   2.0000     -10.337772      -281.3051
   3   2.0000     -10.326830      -281.0073
   4   2.0000     -10.315317      -280.6940
   5   2.0000     -10.309032      -280.5230
   6   2.0000     -10.306256      -280.4475
   7   2.0000     -10.305167      -280.4178
   8   2.0000     -10.297456      -280.2080
   9   2.0000     -10.295700      -280.1602
  10   2.0000     -10.288261      -279.9578
  11   2.0000     -10.287431      -279.9352
  12   2.0000     -10.278038      -279.6796
  13   2.0000     -10.277736      -279.6714
  14   2.0000     -10.276714      -279.6436
  15   2.0000     -10.270889      -279.4851
  16   2.0000      -8.081303      -219.9034
  17   2.0000      -8.075940      -219.7575
  18   2.0000      -6.040018      -164.3572
  19   2.0000      -6.035846      -164.2437
  20   2.0000      -6.034412      -164.2047
  21   2.0000      -6.031903      -164.1364
  22   2.0000      -6.030126      -164.0881
  23   2.0000      -6.026757      -163.9964
  24   2.0000      -1.011960       -27.5368
  25   2.0000      -0.986560       -26.8457
  26   2.0000      -0.915355       -24.9081
  27   2.0000      -0.911055       -24.7911
  28   2.0000      -0.874451       -23.7950
  29   2.0000      -0.854564       -23.2539
  30   2.0000      -0.849784       -23.1238
  31   2.0000      -0.819836       -22.3089
  32   2.0000      -0.781906       -21.2767
  33   2.0000      -0.771738       -21.0001
  34   2.0000      -0.708450       -19.2779
  35   2.0000      -0.704422       -19.1683
  36   2.0000      -0.693687       -18.8762
  37   2.0000      -0.670942       -18.2573
  38   2.0000      -0.641554       -17.4576
  39   2.0000      -0.623906       -16.9773
  40   2.0000      -0.606870       -16.5138
  41   2.0000      -0.574682       -15.6379
  42   2.0000      -0.566985       -15.4284
  43   2.0000      -0.560674       -15.2567
  44   2.0000      -0.538210       -14.6454
  45   2.0000      -0.535254       -14.5650
  46   2.0000      -0.514255       -13.9936
  47   2.0000      -0.512873       -13.9560
  48   2.0000      -0.505259       -13.7488
  49   2.0000      -0.501215       -13.6387
  50   2.0000      -0.497343       -13.5334
  51   2.0000      -0.490350       -13.3431
  52   2.0000      -0.468492       -12.7483
  53   2.0000      -0.461568       -12.5599
  54   2.0000      -0.455956       -12.4072
  55   2.0000      -0.450537       -12.2597
  56   2.0000      -0.443399       -12.0655
  57   2.0000      -0.438056       -11.9201
  58   2.0000      -0.431676       -11.7465
  59   2.0000      -0.423879       -11.5343
  60   2.0000      -0.419991       -11.4285
  61   2.0000      -0.414155       -11.2697
  62   2.0000      -0.407134       -11.0787
  63   2.0000      -0.359339        -9.7781
  64   2.0000      -0.329650        -8.9702
  65   2.0000      -0.327108        -8.9011
  66   2.0000      -0.288879        -7.8608
  67   0.0000       0.023376         0.6361
  68   0.0000       0.084851         2.3089
  69   0.0000       0.108153         2.9430
  70   0.0000       0.121312         3.3011
  71   0.0000       0.124315         3.3828

MULLIKEN ATOMIC CHARGES
-----------------------
   0 S :    0.102973
   1 C :   -0.129200
   2 C :   -0.054924
   3 C :   -0.010745
   4 C :   -0.122836
   5 H :    0.005210
   6 C :    0.017374
   7 H :    0.039042
   8 H :    0.043106
   9 C :   -0.032955
  10 H :    0.018438
  11 H :    0.032875
  12 C :   -0.046182
  13 H :    0.019175
  14 H :    0.032755
  15 H :    0.037443
  16 S :    0.085038
  17 C :   -0.065630
  18 C :    0.015409
  19 C :   -0.064775
  20 C :   -0.101579
  21 H :    0.005120
  22 C :    0.062947
  23 H :   -0.009250
  24 H :    0.008846
  25 C :   -0.071215
  26 H :    0.059452
  27 H :    0.022097
  28 C :   -0.037815
  29 H :    0.023458
  30 H :    0.028143
  31 H :    0.007618
  32 H :    0.043609
  33 H :    0.036978
Sum of atomic charges:   -0.0000000

LOEWDIN ATOMIC CHARGES
----------------------
   0 S :    0.391612
   1 C :   -0.193372
   2 C :   -0.066304
   3 C :   -0.061754
   4 C :   -0.178672
   5 H :    0.025155
   6 C :   -0.033738
   7 H :    0.038903
   8 H :    0.039018
   9 C :   -0.033255
  10 H :    0.013240
  11 H :    0.029340
  12 C :   -0.060392
  13 H :    0.023906
  14 H :    0.021365
  15 H :    0.026422
  16 S :    0.415904
  17 C :   -0.172925
  18 C :   -0.068864
  19 C :   -0.054169
  20 C :   -0.198649
  21 H :    0.029533
  22 C :   -0.039363
  23 H :    0.026528
  24 H :    0.019266
  25 C :   -0.036104
  26 H :    0.031545
  27 H :    0.025890
  28 C :   -0.068009
  29 H :    0.021619
  30 H :    0.024813
  31 H :    0.018307
  32 H :    0.025340
  33 H :    0.017863

  Mayer bond orders larger than 0.100000
B(  0-S ,  1-C ) :   1.1346 B(  0-S ,  4-C ) :   1.1285 B(  1-C ,  2-C ) :   1.6248
B(  1-C , 32-H ) :   0.9674 B(  2-C ,  3-C ) :   1.2191 B(  2-C ,  6-C ) :   1.0167
B(  3-C ,  4-C ) :   1.5819 B(  3-C ,  5-H ) :   0.9872 B(  4-C , 20-C ) :   1.0765
B(  6-C ,  7-H ) :   0.9470 B(  6-C ,  8-H ) :   0.9395 B(  6-C ,  9-C ) :   1.0444
B(  9-C , 10-H ) :   0.9619 B(  9-C , 11-H ) :   0.9523 B(  9-C , 12-C ) :   1.0798
B( 12-C , 13-H ) :   0.9767 B( 12-C , 14-H ) :   0.9723 B( 12-C , 15-H ) :   0.9759
B( 16-S , 17-C ) :   1.1868 B( 16-S , 20-C ) :   1.1126 B( 17-C , 18-C ) :   1.5682
B( 17-C , 33-H ) :   0.9742 B( 18-C , 19-C ) :   1.2559 B( 18-C , 21-H ) :   1.0072
B( 19-C , 20-C ) :   1.5840 B( 19-C , 22-C ) :   1.0530 B( 22-C , 23-H ) :   0.9234
B( 22-C , 24-H ) :   0.9374 B( 22-C , 25-C ) :   1.0352 B( 25-C , 26-H ) :   0.9638
B( 25-C , 27-H ) :   0.9529 B( 25-C , 28-C ) :   1.0881 B( 28-C , 29-H ) :   0.9711
B( 28-C , 30-H ) :   0.9723 B( 28-C , 31-H ) :   0.9668

Dispersion correction           -0.015014197
FINAL SINGLE POINT ENERGY     -1339.864672664730

DIPOLE MOMENT
-------------
                                X             Y             Z
Electronic contribution:    -13.77743     -29.37561       6.87640
Nuclear contribution   :     14.06332      29.98939      -6.79165
                        -----------------------------------------
Total Dipole Moment    :      0.28589       0.61377       0.08475
                        -----------------------------------------
Magnitude (a.u.)       :      0.68237
Magnitude (Debye)      :      1.73446

Rotational constants in cm-1:     0.020110     0.009284     0.006834
Rotational constants in MHz :   602.894271   278.312479   204.868645

                             ****ORCA TERMINATED NORMALLY****
TOTAL RUN TIME: 0 days 0 hours 0 minutes 32 seconds 19 msec
