                         Program Version 4.2.1 -  RELEASE  -
|  1> ! wB97X-D3 SP def2-SVP
|  2> %pal
|  3> nprocs 16
|  4> end
|  5>
|  6> * xyz 0 1
|  7> S 	 44.3536 	 21.8064 	 46.4121
|  8> C 	 43.0602 	 20.6194 	 46.2424
|  9> C 	 43.5252 	 19.3535 	 45.9186
| 10> C 	 44.9378 	 19.3336 	 45.9571
| 11> C 	 45.5693 	 20.61 	 46.209
| 12> H 	 45.6177 	 18.5547 	 45.7127
| 13> C 	 42.7405 	 18.1073 	 45.7319
| 14> H 	 41.6997 	 18.4391 	 45.6225
| 15> H 	 42.5932 	 17.6052 	 46.6952
| 16> C 	 43.2052 	 17.1567 	 44.6602
| 17> H 	 44.1634 	 16.7667 	 44.9701
| 18> H 	 42.5619 	 16.3385 	 44.512
| 19> C 	 43.2497 	 17.7128 	 43.2448
| 20> H 	 44.1748 	 18.3223 	 43.111
| 21> H 	 43.194 	 16.9528 	 42.5797
| 22> H 	 42.3421 	 18.3773 	 43.1239
| 23> S 	 47.8454 	 20.2499 	 47.7647
| 24> C 	 49.3028 	 20.9554 	 47.2301
| 25> C 	 49.1495 	 21.7302 	 46.0974
| 26> C 	 47.8116 	 21.7149 	 45.5235
| 27> C 	 46.9991 	 20.9287 	 46.3451
| 28> H 	 50.0461 	 21.9814 	 45.6471
| 29> C 	 47.4101 	 22.3387 	 44.2062
| 30> H 	 47.3299 	 23.4178 	 44.26
| 31> H 	 46.3096 	 22.1194 	 43.9773
| 32> C 	 48.2808 	 22.0951 	 42.9366
| 33> H 	 49.2874 	 22.4823 	 43.1282
| 34> H 	 47.7894 	 22.7209 	 42.1639
| 35> C 	 48.3077 	 20.6205 	 42.6116
| 36> H 	 48.8314 	 20.0377 	 43.4307
| 37> H 	 48.9964 	 20.4016 	 41.8009
| 38> H 	 47.3387 	 20.2137 	 42.4975
| 39> H 	 42.0328 	 20.8501 	 46.4004
| 40> H 	 50.2209 	 20.8463 	 47.741
| 41> *
| 42>
| 43>                          ****END OF INPUT****

CARTESIAN COORDINATES (ANGSTROEM)
---------------------------------
  S     44.353600   21.806400   46.412100
  C     43.060200   20.619400   46.242400
  C     43.525200   19.353500   45.918600
  C     44.937800   19.333600   45.957100
  C     45.569300   20.610000   46.209000
  H     45.617700   18.554700   45.712700
  C     42.740500   18.107300   45.731900
  H     41.699700   18.439100   45.622500
  H     42.593200   17.605200   46.695200
  C     43.205200   17.156700   44.660200
  H     44.163400   16.766700   44.970100
  H     42.561900   16.338500   44.512000
  C     43.249700   17.712800   43.244800
  H     44.174800   18.322300   43.111000
  H     43.194000   16.952800   42.579700
  H     42.342100   18.377300   43.123900
  S     47.845400   20.249900   47.764700
  C     49.302800   20.955400   47.230100
  C     49.149500   21.730200   46.097400
  C     47.811600   21.714900   45.523500
  C     46.999100   20.928700   46.345100
  H     50.046100   21.981400   45.647100
  C     47.410100   22.338700   44.206200
  H     47.329900   23.417800   44.260000
  H     46.309600   22.119400   43.977300
  C     48.280800   22.095100   42.936600
  H     49.287400   22.482300   43.128200
  H     47.789400   22.720900   42.163900
  C     48.307700   20.620500   42.611600
  H     48.831400   20.037700   43.430700
  H     48.996400   20.401600   41.800900
  H     47.338700   20.213700   42.497500
  H     42.032800   20.850100   46.400400
  H     50.220900   20.846300   47.741000

 Total Charge           Charge          ....    0
 Multiplicity           Mult            ....    1
 Number of Electrons    NEL             ....  134
 Basis Dimension        Dim             ....  322

ORBITAL ENERGIES
----------------

  NO   OCC          E(Eh)            E(eV)
   0   2.0000     -88.967350     -2420.9247
   1   2.0000     -88.965762     -2420.8815
   2   2.0000     -10.329144      -281.0703
   3   2.0000     -10.328825      -281.0616
   4   2.0000     -10.311911      -280.6014
   5   2.0000     -10.311779      -280.5978
   6   2.0000     -10.310771      -280.5704
   7   2.0000     -10.299843      -280.2730
   8   2.0000     -10.294915      -280.1389
   9   2.0000     -10.292257      -280.0666
  10   2.0000     -10.290612      -280.0218
  11   2.0000     -10.289707      -279.9972
  12   2.0000     -10.288870      -279.9744
  13   2.0000     -10.279070      -279.7077
  14   2.0000     -10.272311      -279.5238
  15   2.0000     -10.272167      -279.5199
  16   2.0000      -8.081922      -219.9203
  17   2.0000      -8.080842      -219.8909
  18   2.0000      -6.040293      -164.3647
  19   2.0000      -6.039260      -164.3366
  20   2.0000      -6.036220      -164.2539
  21   2.0000      -6.035290      -164.2286
  22   2.0000      -6.033087      -164.1687
  23   2.0000      -6.031685      -164.1305
  24   2.0000      -1.002235       -27.2722
  25   2.0000      -0.982594       -26.7377
  26   2.0000      -0.919401       -25.0182
  27   2.0000      -0.908089       -24.7104
  28   2.0000      -0.868880       -23.6434
  29   2.0000      -0.848569       -23.0907
  30   2.0000      -0.846020       -23.0214
  31   2.0000      -0.809836       -22.0368
  32   2.0000      -0.788100       -21.4453
  33   2.0000      -0.776027       -21.1168
  34   2.0000      -0.710074       -19.3221
  35   2.0000      -0.698888       -19.0177
  36   2.0000      -0.689197       -18.7540
  37   2.0000      -0.656758       -17.8713
  38   2.0000      -0.638878       -17.3848
  39   2.0000      -0.620410       -16.8822
  40   2.0000      -0.601644       -16.3716
  41   2.0000      -0.568172       -15.4608
  42   2.0000      -0.559284       -15.2189
  43   2.0000      -0.552148       -15.0247
  44   2.0000      -0.547782       -14.9059
  45   2.0000      -0.537174       -14.6172
  46   2.0000      -0.522705       -14.2235
  47   2.0000      -0.513401       -13.9703
  48   2.0000      -0.494083       -13.4447
  49   2.0000      -0.492317       -13.3966
  50   2.0000      -0.490110       -13.3366
  51   2.0000      -0.476781       -12.9739
  52   2.0000      -0.471235       -12.8229
  53   2.0000      -0.464577       -12.6418
  54   2.0000      -0.459886       -12.5141
  55   2.0000      -0.446905       -12.1609
  56   2.0000      -0.444586       -12.0978
  57   2.0000      -0.433213       -11.7883
  58   2.0000      -0.431011       -11.7284
  59   2.0000      -0.423073       -11.5124
  60   2.0000      -0.419107       -11.4045
  61   2.0000      -0.418283       -11.3821
  62   2.0000      -0.414507       -11.2793
  63   2.0000      -0.333493        -9.0748
  64   2.0000      -0.330804        -9.0016
  65   2.0000      -0.327560        -8.9134
  66   2.0000      -0.296254        -8.0615
  67   0.0000       0.036396         0.9904
  68   0.0000       0.063013         1.7147
  69   0.0000       0.109335         2.9751
  70   0.0000       0.118957         3.2370
  71   0.0000       0.131478         3.5777

MULLIKEN ATOMIC CHARGES
-----------------------
   0 S :    0.130440
   1 C :   -0.129422
   2 C :   -0.063253
   3 C :    0.032494
   4 C :   -0.201994
   5 H :   -0.000255
   6 C :    0.082821
   7 H :   -0.000241
   8 H :    0.042155
   9 C :   -0.060577
  10 H :    0.027154
  11 H :    0.015285
  12 C :   -0.029349
  13 H :    0.042816
  14 H :    0.012930
  15 H :    0.032065
  16 S :    0.124753
  17 C :   -0.090450
  18 C :   -0.010248
  19 C :    0.012489
  20 C :   -0.185819
  21 H :   -0.003206
  22 C :    0.019533
  23 H :    0.032106
  24 H :    0.032961
  25 C :   -0.076007
  26 H :    0.032357
  27 H :    0.038663
  28 C :   -0.031997
  29 H :    0.035028
  30 H :    0.028161
  31 H :    0.029316
  32 H :    0.034262
  33 H :    0.045029
Sum of atomic charges:    0.0000000

LOEWDIN ATOMIC CHARGES
----------------------
   0 S :    0.429011
   1 C :   -0.193143
   2 C :   -0.063566
   3 C :   -0.061259
   4 C :   -0.212586
   5 H :    0.022964
   6 C :   -0.037951
   7 H :    0.028280
   8 H :    0.040510
   9 C :   -0.039209
  10 H :    0.021710
  11 H :    0.022569
  12 C :   -0.053558
  13 H :    0.029577
  14 H :    0.008537
  15 H :    0.033317
  16 S :    0.413065
  17 C :   -0.186904
  18 C :   -0.069175
  19 C :   -0.046559
  20 C :   -0.195919
  21 H :    0.017728
  22 C :   -0.044355
  23 H :    0.032183
  24 H :    0.036026
  25 C :   -0.037751
  26 H :    0.022765
  27 H :    0.030712
  28 C :   -0.068396
  29 H :    0.034815
  30 H :    0.024165
  31 H :    0.020468
  32 H :    0.020056
  33 H :    0.021876

  Mayer bond orders larger than 0.100000
B(  0-S ,  1-C ) :   1.1596 B(  0-S ,  4-C ) :   1.1775 B(  1-C ,  2-C ) :   1.5707
B(  1-C ,  4-C ) :   0.1065 B(  1-C , 32-H ) :   0.9705 B(  2-C ,  3-C ) :   1.2560
B(  2-C ,  6-C ) :   1.0264 B(  3-C ,  4-C ) :   1.5411 B(  3-C ,  5-H ) :   0.9969
B(  4-C , 20-C ) :   1.0207 B(  6-C ,  7-H ) :   0.9266 B(  6-C ,  8-H ) :   0.9316
B(  6-C ,  9-C ) :   1.0833 B(  9-C , 10-H ) :   0.9495 B(  9-C , 11-H ) :   0.9542
B(  9-C , 12-C ) :   1.0786 B( 12-C , 13-H ) :   0.9724 B( 12-C , 14-H ) :   0.9775
B( 12-C , 15-H ) :   0.9743 B( 16-S , 17-C ) :   1.1577 B( 16-S , 20-C ) :   1.1448
B( 17-C , 18-C ) :   1.6360 B( 17-C , 33-H ) :   0.9693 B( 18-C , 19-C ) :   1.2026
B( 18-C , 21-H ) :   0.9913 B( 19-C , 20-C ) :   1.6039 B( 19-C , 22-C ) :   1.0451
B( 22-C , 23-H ) :   0.9314 B( 22-C , 24-H ) :   0.9294 B( 22-C , 25-C ) :   1.0747
B( 25-C , 26-H ) :   0.9529 B( 25-C , 27-H ) :   0.9519 B( 25-C , 28-C ) :   1.0828
B( 28-C , 29-H ) :   0.9681 B( 28-C , 30-H ) :   0.9719 B( 28-C , 31-H ) :   0.9755

Dispersion correction           -0.015049178
FINAL SINGLE POINT ENERGY     -1339.872551820176

DIPOLE MOMENT
-------------
                                X             Y             Z
Electronic contribution:      3.11426       9.94975      22.08645
Nuclear contribution   :     -3.09181     -10.24438     -22.46277
                        -----------------------------------------
Total Dipole Moment    :      0.02245      -0.29464      -0.37632
                        -----------------------------------------
Magnitude (a.u.)       :      0.47847
Magnitude (Debye)      :      1.21617

Rotational constants in cm-1:     0.018440     0.008876     0.007732
Rotational constants in MHz :   552.820860   266.087401   231.787166

                             ****ORCA TERMINATED NORMALLY****
TOTAL RUN TIME: 0 days 0 hours 0 minutes 35 seconds 29 msec
