                         Program Version 4.2.1 -  RELEASE  -
|  1> ! wB97X-D3 SP def2-SVP
|  2> %pal
|  3> nprocs 16
|  4> end
|  5>
|  6> * xyz 0 1
|  7> S 	 -84.8885 	 51.2119 	 136.317
|  8> C 	 -85.8829 	 50.8747 	 137.724
|  9> C 	 -85.2576 	 51.2296 	 138.949
| 10> C 	 -84.0668 	 51.9497 	 138.632
| 11> C 	 -83.6829 	 52.0223 	 137.284
| 12> H 	 -83.4015 	 52.3593 	 139.347
| 13> C 	 -85.8446 	 50.9766 	 140.319
| 14> H 	 -86.5427 	 50.1111 	 140.346
| 15> H 	 -86.4083 	 51.8689 	 140.585
| 16> C 	 -84.7874 	 50.4948 	 141.269
| 17> H 	 -84.0605 	 51.32 	 141.296
| 18> H 	 -85.1772 	 50.4152 	 142.311
| 19> C 	 -83.8636 	 49.2868 	 140.882
| 20> H 	 -84.4823 	 48.4448 	 141.15
| 21> H 	 -83.5092 	 49.1193 	 139.92
| 22> H 	 -82.9091 	 49.2603 	 141.393
| 23> S 	 -81.9077 	 54.0725 	 137.271
| 24> C 	 -80.5206 	 54.1225 	 136.137
| 25> C 	 -80.5383 	 52.9815 	 135.424
| 26> C 	 -81.5259 	 52.0082 	 135.821
| 27> C 	 -82.4469 	 52.4984 	 136.758
| 28> H 	 -79.7266 	 52.8272 	 134.696
| 29> C 	 -81.4854 	 50.6352 	 135.186
| 30> H 	 -80.9549 	 50.6953 	 134.274
| 31> H 	 -82.5223 	 50.4124 	 134.898
| 32> C 	 -80.7228 	 49.4962 	 135.971
| 33> H 	 -79.7127 	 49.8945 	 136.043
| 34> H 	 -80.5913 	 48.6013 	 135.372
| 35> C 	 -81.2264 	 49.2216 	 137.452
| 36> H 	 -80.5421 	 48.5193 	 137.933
| 37> H 	 -82.1937 	 48.7366 	 137.307
| 38> H 	 -81.2112 	 50.1216 	 138.025
| 39> H 	 -86.8861 	 50.4712 	 137.749
| 40> H 	 -79.7843 	 54.9012 	 136.023
| 41> *
| 42>
| 43>                          ****END OF INPUT****

CARTESIAN COORDINATES (ANGSTROEM)
---------------------------------
  S    -84.888500   51.211900  136.317000
  C    -85.882900   50.874700  137.724000
  C    -85.257600   51.229600  138.949000
  C    -84.066800   51.949700  138.632000
  C    -83.682900   52.022300  137.284000
  H    -83.401500   52.359300  139.347000
  C    -85.844600   50.976600  140.319000
  H    -86.542700   50.111100  140.346000
  H    -86.408300   51.868900  140.585000
  C    -84.787400   50.494800  141.269000
  H    -84.060500   51.320000  141.296000
  H    -85.177200   50.415200  142.311000
  C    -83.863600   49.286800  140.882000
  H    -84.482300   48.444800  141.150000
  H    -83.509200   49.119300  139.920000
  H    -82.909100   49.260300  141.393000
  S    -81.907700   54.072500  137.271000
  C    -80.520600   54.122500  136.137000
  C    -80.538300   52.981500  135.424000
  C    -81.525900   52.008200  135.821000
  C    -82.446900   52.498400  136.758000
  H    -79.726600   52.827200  134.696000
  C    -81.485400   50.635200  135.186000
  H    -80.954900   50.695300  134.274000
  H    -82.522300   50.412400  134.898000
  C    -80.722800   49.496200  135.971000
  H    -79.712700   49.894500  136.043000
  H    -80.591300   48.601300  135.372000
  C    -81.226400   49.221600  137.452000
  H    -80.542100   48.519300  137.933000
  H    -82.193700   48.736600  137.307000
  H    -81.211200   50.121600  138.025000
  H    -86.886100   50.471200  137.749000
  H    -79.784300   54.901200  136.023000

 Total Charge           Charge          ....    0
 Multiplicity           Mult            ....    1
 Number of Electrons    NEL             ....  134
 Basis Dimension        Dim             ....  322

ORBITAL ENERGIES
----------------

  NO   OCC          E(Eh)            E(eV)
   0   2.0000     -88.972673     -2421.0695
   1   2.0000     -88.961947     -2420.7776
   2   2.0000     -10.331263      -281.1280
   3   2.0000     -10.329803      -281.0882
   4   2.0000     -10.317867      -280.7634
   5   2.0000     -10.316523      -280.7269
   6   2.0000     -10.306971      -280.4669
   7   2.0000     -10.304408      -280.3972
   8   2.0000     -10.298109      -280.2258
   9   2.0000     -10.295877      -280.1651
  10   2.0000     -10.292664      -280.0776
  11   2.0000     -10.291635      -280.0496
  12   2.0000     -10.287776      -279.9446
  13   2.0000     -10.287067      -279.9253
  14   2.0000     -10.273537      -279.5572
  15   2.0000     -10.271640      -279.5055
  16   2.0000      -8.086499      -220.0448
  17   2.0000      -8.076305      -219.7674
  18   2.0000      -6.045010      -164.4931
  19   2.0000      -6.041007      -164.3842
  20   2.0000      -6.037450      -164.2874
  21   2.0000      -6.035005      -164.2208
  22   2.0000      -6.030731      -164.1045
  23   2.0000      -6.026999      -164.0030
  24   2.0000      -1.006572       -27.3902
  25   2.0000      -0.982044       -26.7228
  26   2.0000      -0.917392       -24.9635
  27   2.0000      -0.896974       -24.4079
  28   2.0000      -0.874617       -23.7995
  29   2.0000      -0.845896       -23.0180
  30   2.0000      -0.835925       -22.7467
  31   2.0000      -0.816513       -22.2185
  32   2.0000      -0.790316       -21.5056
  33   2.0000      -0.773108       -21.0373
  34   2.0000      -0.715267       -19.4634
  35   2.0000      -0.697561       -18.9816
  36   2.0000      -0.688303       -18.7297
  37   2.0000      -0.664728       -18.0882
  38   2.0000      -0.634105       -17.2549
  39   2.0000      -0.623869       -16.9763
  40   2.0000      -0.587705       -15.9923
  41   2.0000      -0.572225       -15.5710
  42   2.0000      -0.562205       -15.2984
  43   2.0000      -0.548525       -14.9261
  44   2.0000      -0.541802       -14.7432
  45   2.0000      -0.540868       -14.7178
  46   2.0000      -0.514502       -14.0003
  47   2.0000      -0.511572       -13.9206
  48   2.0000      -0.505265       -13.7490
  49   2.0000      -0.499174       -13.5832
  50   2.0000      -0.495653       -13.4874
  51   2.0000      -0.475713       -12.9448
  52   2.0000      -0.472275       -12.8513
  53   2.0000      -0.468083       -12.7372
  54   2.0000      -0.458316       -12.4714
  55   2.0000      -0.447941       -12.1891
  56   2.0000      -0.442549       -12.0424
  57   2.0000      -0.440693       -11.9919
  58   2.0000      -0.427934       -11.6447
  59   2.0000      -0.422198       -11.4886
  60   2.0000      -0.413015       -11.2387
  61   2.0000      -0.409477       -11.1424
  62   2.0000      -0.395431       -10.7602
  63   2.0000      -0.354277        -9.6404
  64   2.0000      -0.334072        -9.0906
  65   2.0000      -0.325950        -8.8696
  66   2.0000      -0.286212        -7.7882
  67   0.0000       0.022690         0.6174
  68   0.0000       0.072394         1.9699
  69   0.0000       0.109167         2.9706
  70   0.0000       0.121670         3.3108
  71   0.0000       0.131460         3.5772

MULLIKEN ATOMIC CHARGES
-----------------------
   0 S :    0.128797
   1 C :   -0.118402
   2 C :   -0.106028
   3 C :    0.023754
   4 C :   -0.139848
   5 H :   -0.003573
   6 C :    0.109046
   7 H :    0.023036
   8 H :    0.055454
   9 C :   -0.123077
  10 H :    0.019341
  11 H :    0.041530
  12 C :   -0.025523
  13 H :    0.025754
  14 H :    0.025885
  15 H :    0.031071
  16 S :    0.084790
  17 C :   -0.086238
  18 C :   -0.033894
  19 C :   -0.085024
  20 C :   -0.138625
  21 H :    0.028495
  22 C :    0.095847
  23 H :    0.003100
  24 H :    0.021727
  25 C :   -0.073932
  26 H :    0.013421
  27 H :    0.032511
  28 C :   -0.053652
  29 H :    0.031130
  30 H :    0.047551
  31 H :    0.045144
  32 H :    0.045822
  33 H :    0.054606
Sum of atomic charges:   -0.0000000

LOEWDIN ATOMIC CHARGES
----------------------
   0 S :    0.424995
   1 C :   -0.197000
   2 C :   -0.056497
   3 C :   -0.055738
   4 C :   -0.202796
   5 H :    0.019168
   6 C :   -0.033204
   7 H :    0.032707
   8 H :    0.040115
   9 C :   -0.046547
  10 H :    0.017576
  11 H :    0.030977
  12 C :   -0.062854
  13 H :    0.024477
  14 H :    0.020876
  15 H :    0.032002
  16 S :    0.391440
  17 C :   -0.173420
  18 C :   -0.073742
  19 C :   -0.064867
  20 C :   -0.197876
  21 H :    0.036011
  22 C :   -0.034062
  23 H :    0.025155
  24 H :    0.020320
  25 C :   -0.034474
  26 H :    0.019798
  27 H :    0.022627
  28 C :   -0.063108
  29 H :    0.025588
  30 H :    0.027570
  31 H :    0.023806
  32 H :    0.028125
  33 H :    0.032853

  Mayer bond orders larger than 0.100000
B(  0-S ,  1-C ) :   1.1600 B(  0-S ,  4-C ) :   1.1436 B(  1-C ,  2-C ) :   1.5792
B(  1-C ,  4-C ) :   0.1037 B(  1-C , 32-H ) :   0.9651 B(  2-C ,  3-C ) :   1.2712
B(  2-C ,  6-C ) :   1.0113 B(  3-C ,  4-C ) :   1.5373 B(  3-C ,  5-H ) :   0.9921
B(  4-C , 20-C ) :   1.0809 B(  6-C ,  7-H ) :   0.9444 B(  6-C ,  8-H ) :   0.9379
B(  6-C ,  9-C ) :   1.0620 B(  9-C , 10-H ) :   0.9580 B(  9-C , 11-H ) :   0.9597
B(  9-C , 12-C ) :   1.0595 B( 12-C , 13-H ) :   0.9773 B( 12-C , 14-H ) :   0.9737
B( 12-C , 15-H ) :   0.9744 B( 16-S , 17-C ) :   1.1263 B( 16-S , 20-C ) :   1.1345
B( 17-C , 18-C ) :   1.6385 B( 17-C , 33-H ) :   0.9690 B( 18-C , 19-C ) :   1.2398
B( 18-C , 21-H ) :   0.9799 B( 19-C , 20-C ) :   1.5646 B( 19-C , 22-C ) :   1.0437
B( 22-C , 23-H ) :   0.9269 B( 22-C , 24-H ) :   0.9350 B( 22-C , 25-C ) :   1.0588
B( 25-C , 26-H ) :   0.9523 B( 25-C , 27-H ) :   0.9603 B( 25-C , 28-C ) :   1.0759
B( 28-C , 29-H ) :   0.9749 B( 28-C , 30-H ) :   0.9777 B( 28-C , 31-H ) :   0.9739

Dispersion correction           -0.016299992
FINAL SINGLE POINT ENERGY     -1339.862989494179

DIPOLE MOMENT
-------------
                                X             Y             Z
Electronic contribution:     -4.38614      18.51795     -12.51078
Nuclear contribution   :      4.56469     -18.87255      12.71363
                        -----------------------------------------
Total Dipole Moment    :      0.17855      -0.35459       0.20286
                        -----------------------------------------
Magnitude (a.u.)       :      0.44584
Magnitude (Debye)      :      1.13322

Rotational constants in cm-1:     0.019852     0.009269     0.008543
Rotational constants in MHz :   595.154014   277.873984   256.107997

                             ****ORCA TERMINATED NORMALLY****
TOTAL RUN TIME: 0 days 0 hours 0 minutes 34 seconds 743 msec
