                         Program Version 4.2.1 -  RELEASE  -
|  1> ! wB97X-D3 SP def2-SVP
|  2> %pal
|  3> nprocs 16
|  4> end
|  5>
|  6> * xyz 0 1
|  7> S 	 -46.0183 	 23.4251 	 87.3863
|  8> C 	 -45.3409 	 23.5577 	 88.9694
|  9> C 	 -44.0123 	 23.2912 	 89.0012
| 10> C 	 -43.4732 	 23.0088 	 87.7187
| 11> C 	 -44.4423 	 22.94 	 86.7568
| 12> H 	 -42.4524 	 22.7978 	 87.3929
| 13> C 	 -43.1519 	 23.4509 	 90.2191
| 14> H 	 -42.8433 	 22.4429 	 90.3676
| 15> H 	 -43.6896 	 23.9224 	 91.0283
| 16> C 	 -41.8737 	 24.3059 	 90.0456
| 17> H 	 -41.375 	 24.3654 	 90.9701
| 18> H 	 -41.274 	 23.7493 	 89.3656
| 19> C 	 -42.0235 	 25.7474 	 89.6189
| 20> H 	 -41.0242 	 26.0557 	 89.3846
| 21> H 	 -42.4634 	 25.8442 	 88.6731
| 22> H 	 -42.708 	 26.3978 	 90.2335
| 23> S 	 -44.6451 	 23.5015 	 84.0711
| 24> C 	 -44.2713 	 22.2356 	 82.987
| 25> C 	 -43.9112 	 21.0642 	 83.6162
| 26> C 	 -43.913 	 21.217 	 85.0147
| 27> C 	 -44.2966 	 22.4448 	 85.4355
| 28> H 	 -43.6432 	 20.1791 	 83.0985
| 29> C 	 -43.444 	 20.13 	 85.9408
| 30> H 	 -42.6762 	 20.5299 	 86.5569
| 31> H 	 -42.9246 	 19.3488 	 85.3833
| 32> C 	 -44.5716 	 19.4888 	 86.716
| 33> H 	 -45.2836 	 18.9296 	 86.0528
| 34> H 	 -45.0645 	 20.265 	 87.2909
| 35> C 	 -43.9251 	 18.418 	 87.6431
| 36> H 	 -43.1412 	 18.762 	 88.31
| 37> H 	 -43.3244 	 17.7409 	 87.068
| 38> H 	 -44.6294 	 17.8763 	 88.2822
| 39> H 	 -45.9718 	 23.8455 	 89.7803
| 40> H 	 -44.3968 	 22.3747 	 81.9286
| 41> *
| 42>
| 43>                          ****END OF INPUT****

CARTESIAN COORDINATES (ANGSTROEM)
---------------------------------
  S    -46.018300   23.425100   87.386300
  C    -45.340900   23.557700   88.969400
  C    -44.012300   23.291200   89.001200
  C    -43.473200   23.008800   87.718700
  C    -44.442300   22.940000   86.756800
  H    -42.452400   22.797800   87.392900
  C    -43.151900   23.450900   90.219100
  H    -42.843300   22.442900   90.367600
  H    -43.689600   23.922400   91.028300
  C    -41.873700   24.305900   90.045600
  H    -41.375000   24.365400   90.970100
  H    -41.274000   23.749300   89.365600
  C    -42.023500   25.747400   89.618900
  H    -41.024200   26.055700   89.384600
  H    -42.463400   25.844200   88.673100
  H    -42.708000   26.397800   90.233500
  S    -44.645100   23.501500   84.071100
  C    -44.271300   22.235600   82.987000
  C    -43.911200   21.064200   83.616200
  C    -43.913000   21.217000   85.014700
  C    -44.296600   22.444800   85.435500
  H    -43.643200   20.179100   83.098500
  C    -43.444000   20.130000   85.940800
  H    -42.676200   20.529900   86.556900
  H    -42.924600   19.348800   85.383300
  C    -44.571600   19.488800   86.716000
  H    -45.283600   18.929600   86.052800
  H    -45.064500   20.265000   87.290900
  C    -43.925100   18.418000   87.643100
  H    -43.141200   18.762000   88.310000
  H    -43.324400   17.740900   87.068000
  H    -44.629400   17.876300   88.282200
  H    -45.971800   23.845500   89.780300
  H    -44.396800   22.374700   81.928600

 Total Charge           Charge          ....    0
 Multiplicity           Mult            ....    1
 Number of Electrons    NEL             ....  134
 Basis Dimension        Dim             ....  322

ORBITAL ENERGIES
----------------

  NO   OCC          E(Eh)            E(eV)
   0   2.0000     -88.962824     -2420.8015
   1   2.0000     -88.961836     -2420.7746
   2   2.0000     -10.322359      -280.8857
   3   2.0000     -10.313873      -280.6548
   4   2.0000     -10.313020      -280.6315
   5   2.0000     -10.306307      -280.4489
   6   2.0000     -10.295652      -280.1589
   7   2.0000     -10.293008      -280.0870
   8   2.0000     -10.292725      -280.0793
   9   2.0000     -10.287506      -279.9373
  10   2.0000     -10.285580      -279.8849
  11   2.0000     -10.284639      -279.8592
  12   2.0000     -10.282764      -279.8082
  13   2.0000     -10.278309      -279.6870
  14   2.0000     -10.272116      -279.5185
  15   2.0000     -10.270277      -279.4685
  16   2.0000      -8.078588      -219.8296
  17   2.0000      -8.077089      -219.7888
  18   2.0000      -6.036914      -164.2728
  19   2.0000      -6.035479      -164.2337
  20   2.0000      -6.032983      -164.1658
  21   2.0000      -6.031604      -164.1283
  22   2.0000      -6.029460      -164.0699
  23   2.0000      -6.027867      -164.0266
  24   2.0000      -1.014330       -27.6013
  25   2.0000      -0.990981       -26.9660
  26   2.0000      -0.915640       -24.9158
  27   2.0000      -0.913144       -24.8479
  28   2.0000      -0.875173       -23.8147
  29   2.0000      -0.853508       -23.2251
  30   2.0000      -0.848953       -23.1012
  31   2.0000      -0.816661       -22.2225
  32   2.0000      -0.785655       -21.3788
  33   2.0000      -0.772692       -21.0260
  34   2.0000      -0.711510       -19.3612
  35   2.0000      -0.699565       -19.0361
  36   2.0000      -0.693651       -18.8752
  37   2.0000      -0.668173       -18.1819
  38   2.0000      -0.647116       -17.6089
  39   2.0000      -0.622441       -16.9375
  40   2.0000      -0.601787       -16.3755
  41   2.0000      -0.570209       -15.5162
  42   2.0000      -0.564842       -15.3701
  43   2.0000      -0.555007       -15.1025
  44   2.0000      -0.542925       -14.7737
  45   2.0000      -0.528255       -14.3745
  46   2.0000      -0.522636       -14.2217
  47   2.0000      -0.506796       -13.7906
  48   2.0000      -0.506200       -13.7744
  49   2.0000      -0.502563       -13.6754
  50   2.0000      -0.493110       -13.4182
  51   2.0000      -0.486704       -13.2439
  52   2.0000      -0.472256       -12.8507
  53   2.0000      -0.466422       -12.6920
  54   2.0000      -0.460547       -12.5321
  55   2.0000      -0.448650       -12.2084
  56   2.0000      -0.443175       -12.0594
  57   2.0000      -0.436821       -11.8865
  58   2.0000      -0.432631       -11.7725
  59   2.0000      -0.422460       -11.4957
  60   2.0000      -0.417659       -11.3651
  61   2.0000      -0.415579       -11.3085
  62   2.0000      -0.413163       -11.2427
  63   2.0000      -0.340457        -9.2643
  64   2.0000      -0.334038        -9.0896
  65   2.0000      -0.329777        -8.9737
  66   2.0000      -0.296393        -8.0653
  67   0.0000       0.037195         1.0121
  68   0.0000       0.068979         1.8770
  69   0.0000       0.118897         3.2354
  70   0.0000       0.125425         3.4130
  71   0.0000       0.135331         3.6825

MULLIKEN ATOMIC CHARGES
-----------------------
   0 S :    0.110502
   1 C :   -0.132626
   2 C :   -0.071154
   3 C :    0.025855
   4 C :   -0.177095
   5 H :    0.023429
   6 C :    0.112367
   7 H :    0.027256
   8 H :    0.014509
   9 C :   -0.075002
  10 H :    0.023043
  11 H :    0.012759
  12 C :   -0.016876
  13 H :    0.025562
  14 H :    0.010252
  15 H :    0.040351
  16 S :    0.114010
  17 C :   -0.082045
  18 C :   -0.021803
  19 C :   -0.004674
  20 C :   -0.193231
  21 H :    0.001297
  22 C :    0.080410
  23 H :    0.008411
  24 H :    0.001799
  25 C :   -0.062620
  26 H :    0.041053
  27 H :    0.046986
  28 C :   -0.027004
  29 H :    0.010733
  30 H :    0.005896
  31 H :    0.037138
  32 H :    0.037745
  33 H :    0.052768
Sum of atomic charges:   -0.0000000

LOEWDIN ATOMIC CHARGES
----------------------
   0 S :    0.400692
   1 C :   -0.196941
   2 C :   -0.067137
   3 C :   -0.061910
   4 C :   -0.186586
   5 H :    0.035596
   6 C :   -0.023518
   7 H :    0.032512
   8 H :    0.026158
   9 C :   -0.034573
  10 H :    0.021388
  11 H :    0.016889
  12 C :   -0.067641
  13 H :    0.030256
  14 H :    0.018217
  15 H :    0.034308
  16 S :    0.417511
  17 C :   -0.185164
  18 C :   -0.069898
  19 C :   -0.049616
  20 C :   -0.209286
  21 H :    0.027040
  22 C :   -0.028691
  23 H :    0.023825
  24 H :    0.026417
  25 C :   -0.029446
  26 H :    0.032801
  27 H :    0.024921
  28 C :   -0.070159
  29 H :    0.021584
  30 H :    0.018855
  31 H :    0.025080
  32 H :    0.021981
  33 H :    0.024535

  Mayer bond orders larger than 0.100000
B(  0-S ,  1-C ) :   1.1303 B(  0-S ,  4-C ) :   1.1471 B(  1-C ,  2-C ) :   1.6282
B(  1-C , 32-H ) :   0.9747 B(  2-C ,  3-C ) :   1.1970 B(  2-C ,  6-C ) :   1.0179
B(  3-C ,  4-C ) :   1.6038 B(  3-C ,  5-H ) :   0.9933 B(  4-C , 20-C ) :   1.0401
B(  6-C ,  7-H ) :   0.9255 B(  6-C ,  8-H ) :   0.9465 B(  6-C ,  9-C ) :   1.0862
B(  9-C , 10-H ) :   0.9559 B(  9-C , 11-H ) :   0.9482 B(  9-C , 12-C ) :   1.0859
B( 12-C , 13-H ) :   0.9670 B( 12-C , 14-H ) :   0.9670 B( 12-C , 15-H ) :   0.9725
B( 16-S , 17-C ) :   1.1798 B( 16-S , 20-C ) :   1.1339 B( 17-C , 18-C ) :   1.5741
B( 17-C , 33-H ) :   0.9687 B( 18-C , 19-C ) :   1.2597 B( 18-C , 21-H ) :   1.0015
B( 19-C , 20-C ) :   1.6075 B( 19-C , 22-C ) :   1.0342 B( 22-C , 23-H ) :   0.9320
B( 22-C , 24-H ) :   0.9275 B( 22-C , 25-C ) :   1.0651 B( 25-C , 26-H ) :   0.9530
B( 25-C , 27-H ) :   0.9578 B( 25-C , 28-C ) :   1.0779 B( 28-C , 29-H ) :   0.9717
B( 28-C , 30-H ) :   0.9689 B( 28-C , 31-H ) :   0.9754

Dispersion correction           -0.015341111
FINAL SINGLE POINT ENERGY     -1339.882378655674

DIPOLE MOMENT
-------------
                                X             Y             Z
Electronic contribution:    -14.06953       9.25404     -17.18611
Nuclear contribution   :     14.52722      -9.55282      17.39539
                        -----------------------------------------
Total Dipole Moment    :      0.45769      -0.29878       0.20928
                        -----------------------------------------
Magnitude (a.u.)       :      0.58527
Magnitude (Debye)      :      1.48764

Rotational constants in cm-1:     0.018156     0.009613     0.007950
Rotational constants in MHz :   544.291528   288.185979   238.344002

                             ****ORCA TERMINATED NORMALLY****
TOTAL RUN TIME: 0 days 0 hours 0 minutes 30 seconds 850 msec
