                         Program Version 4.2.1 -  RELEASE  -
|  1> ! wB97X-D3 SP def2-SVP
|  2> %pal
|  3> nprocs 16
|  4> end
|  5>
|  6> * xyz 0 1
|  7> S 	 -7.7991 	 33.3282 	 54.3172
|  8> C 	 -6.14681 	 33.3433 	 54.809
|  9> C 	 -5.35545 	 34.2586 	 54.0908
| 10> C 	 -6.09665 	 34.8726 	 53.0476
| 11> C 	 -7.42387 	 34.6078 	 53.0837
| 12> H 	 -5.6701 	 35.4568 	 52.1968
| 13> C 	 -3.86891 	 34.3958 	 54.3318
| 14> H 	 -3.39129 	 33.9453 	 53.4666
| 15> H 	 -3.60134 	 33.7788 	 55.2764
| 16> C 	 -3.25275 	 35.8155 	 54.4017
| 17> H 	 -2.22603 	 35.7847 	 54.6392
| 18> H 	 -3.36702 	 36.3075 	 53.407
| 19> C 	 -3.77144 	 36.7303 	 55.4894
| 20> H 	 -4.76719 	 36.8903 	 55.061
| 21> H 	 -3.94817 	 36.3727 	 56.5206
| 22> H 	 -3.16129 	 37.5339 	 55.3802
| 23> S 	 -9.67924 	 36.1308 	 52.8957
| 24> C 	 -10.1201 	 36.7574 	 51.2711
| 25> C 	 -9.18431 	 36.4362 	 50.333
| 26> C 	 -8.23388 	 35.4593 	 50.8562
| 27> C 	 -8.36702 	 35.1878 	 52.1726
| 28> H 	 -9.23099 	 36.9732 	 49.4383
| 29> C 	 -7.32823 	 34.7569 	 49.8827
| 30> H 	 -7.83249 	 34.6716 	 48.9826
| 31> H 	 -7.06411 	 33.7425 	 50.2137
| 32> C 	 -6.00899 	 35.3995 	 49.425
| 33> H 	 -5.25067 	 35.7088 	 50.1929
| 34> H 	 -6.3855 	 36.2721 	 48.9856
| 35> C 	 -5.38047 	 34.602 	 48.3157
| 36> H 	 -4.89098 	 33.7535 	 48.742
| 37> H 	 -4.70419 	 35.3744 	 47.9552
| 38> H 	 -5.92953 	 34.2501 	 47.4653
| 39> H 	 -5.80798 	 32.8111 	 55.6588
| 40> H 	 -10.9748 	 37.437 	 51.1496
| 41> *
| 42>
| 43>                          ****END OF INPUT****

CARTESIAN COORDINATES (ANGSTROEM)
---------------------------------
  S     -7.799100   33.328200   54.317200
  C     -6.146810   33.343300   54.809000
  C     -5.355450   34.258600   54.090800
  C     -6.096650   34.872600   53.047600
  C     -7.423870   34.607800   53.083700
  H     -5.670100   35.456800   52.196800
  C     -3.868910   34.395800   54.331800
  H     -3.391290   33.945300   53.466600
  H     -3.601340   33.778800   55.276400
  C     -3.252750   35.815500   54.401700
  H     -2.226030   35.784700   54.639200
  H     -3.367020   36.307500   53.407000
  C     -3.771440   36.730300   55.489400
  H     -4.767190   36.890300   55.061000
  H     -3.948170   36.372700   56.520600
  H     -3.161290   37.533900   55.380200
  S     -9.679240   36.130800   52.895700
  C    -10.120100   36.757400   51.271100
  C     -9.184310   36.436200   50.333000
  C     -8.233880   35.459300   50.856200
  C     -8.367020   35.187800   52.172600
  H     -9.230990   36.973200   49.438300
  C     -7.328230   34.756900   49.882700
  H     -7.832490   34.671600   48.982600
  H     -7.064110   33.742500   50.213700
  C     -6.008990   35.399500   49.425000
  H     -5.250670   35.708800   50.192900
  H     -6.385500   36.272100   48.985600
  C     -5.380470   34.602000   48.315700
  H     -4.890980   33.753500   48.742000
  H     -4.704190   35.374400   47.955200
  H     -5.929530   34.250100   47.465300
  H     -5.807980   32.811100   55.658800
  H    -10.974800   37.437000   51.149600

 Total Charge           Charge          ....    0
 Multiplicity           Mult            ....    1
 Number of Electrons    NEL             ....  134
 Basis Dimension        Dim             ....  322

ORBITAL ENERGIES
----------------

  NO   OCC          E(Eh)            E(eV)
   0   2.0000     -88.967769     -2420.9361
   1   2.0000     -88.958658     -2420.6882
   2   2.0000     -10.327932      -281.0373
   3   2.0000     -10.321073      -280.8507
   4   2.0000     -10.320832      -280.8441
   5   2.0000     -10.312469      -280.6165
   6   2.0000     -10.302266      -280.3389
   7   2.0000     -10.301987      -280.3313
   8   2.0000     -10.298314      -280.2314
   9   2.0000     -10.296013      -280.1688
  10   2.0000     -10.293181      -280.0917
  11   2.0000     -10.285538      -279.8837
  12   2.0000     -10.284103      -279.8447
  13   2.0000     -10.282594      -279.8036
  14   2.0000     -10.274005      -279.5699
  15   2.0000     -10.264733      -279.3176
  16   2.0000      -8.081915      -219.9201
  17   2.0000      -8.073099      -219.6802
  18   2.0000      -6.040381      -164.3671
  19   2.0000      -6.036633      -164.2651
  20   2.0000      -6.032629      -164.1562
  21   2.0000      -6.031723      -164.1315
  22   2.0000      -6.027833      -164.0257
  23   2.0000      -6.023563      -163.9095
  24   2.0000      -1.005275       -27.3549
  25   2.0000      -0.980745       -26.6874
  26   2.0000      -0.918001       -24.9801
  27   2.0000      -0.910818       -24.7846
  28   2.0000      -0.876644       -23.8547
  29   2.0000      -0.855301       -23.2739
  30   2.0000      -0.849920       -23.1275
  31   2.0000      -0.820357       -22.3230
  32   2.0000      -0.783300       -21.3147
  33   2.0000      -0.770951       -20.9786
  34   2.0000      -0.708715       -19.2851
  35   2.0000      -0.696909       -18.9639
  36   2.0000      -0.688904       -18.7460
  37   2.0000      -0.666165       -18.1273
  38   2.0000      -0.639198       -17.3935
  39   2.0000      -0.620252       -16.8779
  40   2.0000      -0.598188       -16.2775
  41   2.0000      -0.579022       -15.7560
  42   2.0000      -0.564413       -15.3585
  43   2.0000      -0.559828       -15.2337
  44   2.0000      -0.547742       -14.9048
  45   2.0000      -0.532346       -14.4859
  46   2.0000      -0.525506       -14.2998
  47   2.0000      -0.513897       -13.9838
  48   2.0000      -0.507038       -13.7972
  49   2.0000      -0.499592       -13.5946
  50   2.0000      -0.493763       -13.4360
  51   2.0000      -0.480739       -13.0816
  52   2.0000      -0.468081       -12.7371
  53   2.0000      -0.464451       -12.6383
  54   2.0000      -0.459184       -12.4950
  55   2.0000      -0.453206       -12.3324
  56   2.0000      -0.443769       -12.0756
  57   2.0000      -0.435090       -11.8394
  58   2.0000      -0.433299       -11.7907
  59   2.0000      -0.426135       -11.5957
  60   2.0000      -0.416650       -11.3376
  61   2.0000      -0.412530       -11.2255
  62   2.0000      -0.399083       -10.8596
  63   2.0000      -0.349700        -9.5158
  64   2.0000      -0.329360        -8.9623
  65   2.0000      -0.323999        -8.8165
  66   2.0000      -0.293601        -7.9893
  67   0.0000       0.030223         0.8224
  68   0.0000       0.067296         1.8312
  69   0.0000       0.106006         2.8846
  70   0.0000       0.111203         3.0260
  71   0.0000       0.126047         3.4299

MULLIKEN ATOMIC CHARGES
-----------------------
   0 S :    0.114869
   1 C :   -0.105814
   2 C :   -0.090488
   3 C :    0.023158
   4 C :   -0.152442
   5 H :    0.011960
   6 C :    0.054925
   7 H :    0.039216
   8 H :    0.033528
   9 C :   -0.101378
  10 H :    0.018544
  11 H :    0.031797
  12 C :   -0.022460
  13 H :    0.031246
  14 H :    0.043215
  15 H :    0.017348
  16 S :    0.074194
  17 C :   -0.102051
  18 C :   -0.011440
  19 C :   -0.024532
  20 C :   -0.114725
  21 H :    0.009239
  22 C :    0.069242
  23 H :   -0.002491
  24 H :    0.026831
  25 C :   -0.082864
  26 H :    0.045155
  27 H :    0.000923
  28 C :   -0.034879
  29 H :    0.032218
  30 H :    0.033472
  31 H :    0.030719
  32 H :    0.037720
  33 H :    0.066047
Sum of atomic charges:   -0.0000000

LOEWDIN ATOMIC CHARGES
----------------------
   0 S :    0.389948
   1 C :   -0.194189
   2 C :   -0.068657
   3 C :   -0.057967
   4 C :   -0.178248
   5 H :    0.039411
   6 C :   -0.036736
   7 H :    0.034457
   8 H :    0.038580
   9 C :   -0.041742
  10 H :    0.016459
  11 H :    0.027284
  12 C :   -0.061946
  13 H :    0.030296
  14 H :    0.030751
  15 H :    0.013125
  16 S :    0.364023
  17 C :   -0.159326
  18 C :   -0.064575
  19 C :   -0.054824
  20 C :   -0.187318
  21 H :    0.026663
  22 C :   -0.030460
  23 H :    0.023551
  24 H :    0.029640
  25 C :   -0.037554
  26 H :    0.026152
  27 H :    0.012845
  28 C :   -0.060793
  29 H :    0.023053
  30 H :    0.033813
  31 H :    0.024263
  32 H :    0.018705
  33 H :    0.031313

  Mayer bond orders larger than 0.100000
B(  0-S ,  1-C ) :   1.1467 B(  0-S ,  4-C ) :   1.1220 B(  1-C ,  2-C ) :   1.6061
B(  1-C , 32-H ) :   0.9678 B(  2-C ,  3-C ) :   1.2248 B(  2-C ,  6-C ) :   1.0256
B(  3-C ,  4-C ) :   1.6123 B(  3-C ,  5-H ) :   0.9801 B(  4-C , 20-C ) :   1.0419
B(  6-C ,  7-H ) :   0.9357 B(  6-C ,  8-H ) :   0.9428 B(  6-C ,  9-C ) :   1.0764
B(  9-C , 10-H ) :   0.9602 B(  9-C , 11-H ) :   0.9537 B(  9-C , 12-C ) :   1.0602
B( 12-C , 13-H ) :   0.9756 B( 12-C , 14-H ) :   0.9776 B( 12-C , 15-H ) :   0.9740
B( 16-S , 17-C ) :   1.1310 B( 16-S , 20-C ) :   1.1068 B( 17-C , 18-C ) :   1.6628
B( 17-C , 33-H ) :   0.9645 B( 18-C , 19-C ) :   1.1644 B( 18-C , 21-H ) :   1.0020
B( 19-C , 20-C ) :   1.6627 B( 19-C , 22-C ) :   1.0452 B( 22-C , 23-H ) :   0.9310
B( 22-C , 24-H ) :   0.9429 B( 22-C , 25-C ) :   1.0576 B( 25-C , 26-H ) :   0.9439
B( 25-C , 27-H ) :   0.9537 B( 25-C , 28-C ) :   1.0826 B( 28-C , 29-H ) :   0.9761
B( 28-C , 30-H ) :   0.9744 B( 28-C , 31-H ) :   0.9734

Dispersion correction           -0.014528796
FINAL SINGLE POINT ENERGY     -1339.841554126656

DIPOLE MOMENT
-------------
                                X             Y             Z
Electronic contribution:    -25.15330      -4.97522      10.40522
Nuclear contribution   :     25.76736       5.21302     -10.95286
                        -----------------------------------------
Total Dipole Moment    :      0.61406       0.23781      -0.54764
                        -----------------------------------------
Magnitude (a.u.)       :      0.85647
Magnitude (Debye)      :      2.17696

Rotational constants in cm-1:     0.015723     0.009716     0.007614
Rotational constants in MHz :   471.359877   291.286726   228.251072

                             ****ORCA TERMINATED NORMALLY****
TOTAL RUN TIME: 0 days 0 hours 0 minutes 34 seconds 303 msec
