                         Program Version 4.2.1 -  RELEASE  -
|  1> ! wB97X-D3 SP def2-SVP
|  2> %pal
|  3> nprocs 16
|  4> end
|  5>
|  6> * xyz 0 1
|  7> S 	 -15.8774 	 34.672 	 37.1798
|  8> C 	 -15.8663 	 35.6603 	 38.6154
|  9> C 	 -14.9465 	 36.6583 	 38.5299
| 10> C 	 -14.1955 	 36.576 	 37.2837
| 11> C 	 -14.7524 	 35.6626 	 36.4145
| 12> H 	 -13.4466 	 37.3011 	 36.845
| 13> C 	 -14.5558 	 37.5664 	 39.6196
| 14> H 	 -13.5083 	 37.4907 	 39.6534
| 15> H 	 -15.0153 	 37.1688 	 40.4817
| 16> C 	 -15.0139 	 39.032 	 39.3992
| 17> H 	 -14.5319 	 39.333 	 38.5091
| 18> H 	 -16.089 	 39.1948 	 39.2258
| 19> C 	 -14.4416 	 40.0342 	 40.4451
| 20> H 	 -14.9921 	 39.9577 	 41.4163
| 21> H 	 -13.3903 	 39.9615 	 40.5609
| 22> H 	 -14.6206 	 41.0979 	 40.173
| 23> S 	 -13.6144 	 33.605 	 35.0352
| 24> C 	 -13.2893 	 33.8773 	 33.4302
| 25> C 	 -13.3353 	 35.1566 	 33.0189
| 26> C 	 -13.9667 	 36.0106 	 33.9893
| 27> C 	 -14.3252 	 35.2679 	 35.1067
| 28> H 	 -13.0156 	 35.3515 	 32.0631
| 29> C 	 -14.1533 	 37.5052 	 33.7916
| 30> H 	 -13.6672 	 37.7894 	 32.854
| 31> H 	 -13.51 	 37.9237 	 34.554
| 32> C 	 -15.6253 	 38.104 	 33.6076
| 33> H 	 -16.2328 	 37.4226 	 34.2101
| 34> H 	 -15.9269 	 37.9254 	 32.5743
| 35> C 	 -15.794 	 39.5464 	 34.0558
| 36> H 	 -15.9279 	 39.5548 	 35.1252
| 37> H 	 -16.5201 	 40.2631 	 33.7105
| 38> H 	 -14.8759 	 40.0728 	 33.857
| 39> H 	 -16.4822 	 35.5877 	 39.5237
| 40> H 	 -12.8088 	 33.2657 	 32.739
| 41> *
| 42>
| 43>                          ****END OF INPUT****

CARTESIAN COORDINATES (ANGSTROEM)
---------------------------------
  S    -15.877400   34.672000   37.179800
  C    -15.866300   35.660300   38.615400
  C    -14.946500   36.658300   38.529900
  C    -14.195500   36.576000   37.283700
  C    -14.752400   35.662600   36.414500
  H    -13.446600   37.301100   36.845000
  C    -14.555800   37.566400   39.619600
  H    -13.508300   37.490700   39.653400
  H    -15.015300   37.168800   40.481700
  C    -15.013900   39.032000   39.399200
  H    -14.531900   39.333000   38.509100
  H    -16.089000   39.194800   39.225800
  C    -14.441600   40.034200   40.445100
  H    -14.992100   39.957700   41.416300
  H    -13.390300   39.961500   40.560900
  H    -14.620600   41.097900   40.173000
  S    -13.614400   33.605000   35.035200
  C    -13.289300   33.877300   33.430200
  C    -13.335300   35.156600   33.018900
  C    -13.966700   36.010600   33.989300
  C    -14.325200   35.267900   35.106700
  H    -13.015600   35.351500   32.063100
  C    -14.153300   37.505200   33.791600
  H    -13.667200   37.789400   32.854000
  H    -13.510000   37.923700   34.554000
  C    -15.625300   38.104000   33.607600
  H    -16.232800   37.422600   34.210100
  H    -15.926900   37.925400   32.574300
  C    -15.794000   39.546400   34.055800
  H    -15.927900   39.554800   35.125200
  H    -16.520100   40.263100   33.710500
  H    -14.875900   40.072800   33.857000
  H    -16.482200   35.587700   39.523700
  H    -12.808800   33.265700   32.739000

 Total Charge           Charge          ....    0
 Multiplicity           Mult            ....    1
 Number of Electrons    NEL             ....  134
 Basis Dimension        Dim             ....  322

ORBITAL ENERGIES
----------------

  NO   OCC          E(Eh)            E(eV)
   0   2.0000     -88.964140     -2420.8373
   1   2.0000     -88.961899     -2420.7763
   2   2.0000     -10.322399      -280.8868
   3   2.0000     -10.318957      -280.7931
   4   2.0000     -10.308448      -280.5071
   5   2.0000     -10.306876      -280.4644
   6   2.0000     -10.299601      -280.2664
   7   2.0000     -10.296304      -280.1767
   8   2.0000     -10.295706      -280.1604
   9   2.0000     -10.295458      -280.1537
  10   2.0000     -10.291955      -280.0583
  11   2.0000     -10.286780      -279.9175
  12   2.0000     -10.283003      -279.8147
  13   2.0000     -10.281035      -279.7612
  14   2.0000     -10.280521      -279.7472
  15   2.0000     -10.273307      -279.5509
  16   2.0000      -8.080068      -219.8698
  17   2.0000      -8.078237      -219.8200
  18   2.0000      -6.038377      -164.3126
  19   2.0000      -6.036646      -164.2655
  20   2.0000      -6.034727      -164.2133
  21   2.0000      -6.032497      -164.1526
  22   2.0000      -6.030616      -164.1014
  23   2.0000      -6.029001      -164.0575
  24   2.0000      -1.016192       -27.6520
  25   2.0000      -0.992071       -26.9956
  26   2.0000      -0.918599       -24.9964
  27   2.0000      -0.904667       -24.6172
  28   2.0000      -0.872825       -23.7508
  29   2.0000      -0.856671       -23.3112
  30   2.0000      -0.844950       -22.9922
  31   2.0000      -0.816547       -22.2194
  32   2.0000      -0.788953       -21.4685
  33   2.0000      -0.775145       -21.0928
  34   2.0000      -0.716314       -19.4919
  35   2.0000      -0.705141       -19.1879
  36   2.0000      -0.695614       -18.9286
  37   2.0000      -0.661255       -17.9937
  38   2.0000      -0.638105       -17.3637
  39   2.0000      -0.616334       -16.7713
  40   2.0000      -0.593590       -16.1524
  41   2.0000      -0.574277       -15.6269
  42   2.0000      -0.565039       -15.3755
  43   2.0000      -0.555655       -15.1201
  44   2.0000      -0.525520       -14.3001
  45   2.0000      -0.522633       -14.2216
  46   2.0000      -0.517963       -14.0945
  47   2.0000      -0.509347       -13.8600
  48   2.0000      -0.508757       -13.8440
  49   2.0000      -0.500567       -13.6211
  50   2.0000      -0.498099       -13.5540
  51   2.0000      -0.486622       -13.2416
  52   2.0000      -0.470148       -12.7934
  53   2.0000      -0.467235       -12.7141
  54   2.0000      -0.462577       -12.5874
  55   2.0000      -0.451679       -12.2908
  56   2.0000      -0.446304       -12.1445
  57   2.0000      -0.440954       -11.9990
  58   2.0000      -0.431217       -11.7340
  59   2.0000      -0.428071       -11.6484
  60   2.0000      -0.423312       -11.5189
  61   2.0000      -0.417264       -11.3543
  62   2.0000      -0.405077       -11.0227
  63   2.0000      -0.342476        -9.3193
  64   2.0000      -0.333492        -9.0748
  65   2.0000      -0.325480        -8.8568
  66   2.0000      -0.295027        -8.0281
  67   0.0000       0.033374         0.9081
  68   0.0000       0.069755         1.8981
  69   0.0000       0.106973         2.9109
  70   0.0000       0.119280         3.2458
  71   0.0000       0.128633         3.5003

MULLIKEN ATOMIC CHARGES
-----------------------
   0 S :    0.113567
   1 C :   -0.114017
   2 C :   -0.128027
   3 C :    0.019813
   4 C :   -0.182637
   5 H :    0.033350
   6 C :    0.143302
   7 H :    0.019143
   8 H :   -0.001372
   9 C :   -0.074610
  10 H :    0.011295
  11 H :    0.038035
  12 C :   -0.057703
  13 H :    0.035209
  14 H :    0.027402
  15 H :    0.031146
  16 S :    0.116372
  17 C :   -0.014715
  18 C :   -0.044606
  19 C :   -0.042110
  20 C :   -0.150270
  21 H :   -0.020944
  22 C :    0.061344
  23 H :    0.015073
  24 H :    0.029417
  25 C :   -0.041130
  26 H :    0.037211
  27 H :    0.032742
  28 C :   -0.038965
  29 H :    0.029290
  30 H :    0.032620
  31 H :    0.018259
  32 H :    0.046022
  33 H :    0.020491
Sum of atomic charges:   -0.0000000

LOEWDIN ATOMIC CHARGES
----------------------
   0 S :    0.434497
   1 C :   -0.209802
   2 C :   -0.060820
   3 C :   -0.074677
   4 C :   -0.220676
   5 H :    0.038253
   6 C :   -0.020442
   7 H :    0.031245
   8 H :    0.022275
   9 C :   -0.035404
  10 H :    0.016588
  11 H :    0.029203
  12 C :   -0.069781
  13 H :    0.026965
  14 H :    0.018525
  15 H :    0.029059
  16 S :    0.418606
  17 C :   -0.197402
  18 C :   -0.066106
  19 C :   -0.043627
  20 C :   -0.190597
  21 H :    0.016604
  22 C :   -0.032970
  23 H :    0.030472
  24 H :    0.029403
  25 C :   -0.030549
  26 H :    0.025243
  27 H :    0.025335
  28 C :   -0.072604
  29 H :    0.028413
  30 H :    0.027994
  31 H :    0.023089
  32 H :    0.034190
  33 H :    0.019499

  Mayer bond orders larger than 0.100000
B(  0-S ,  1-C ) :   1.1224 B(  0-S ,  4-C ) :   1.1709 B(  1-C ,  2-C ) :   1.6450
B(  1-C , 32-H ) :   0.9605 B(  2-C ,  3-C ) :   1.2113 B(  2-C ,  6-C ) :   1.0345
B(  3-C ,  4-C ) :   1.5894 B(  3-C ,  5-H ) :   0.9752 B(  4-C , 20-C ) :   1.0253
B(  6-C ,  7-H ) :   0.9304 B(  6-C ,  8-H ) :   0.9334 B(  6-C ,  9-C ) :   1.0579
B(  9-C , 10-H ) :   0.9565 B(  9-C , 11-H ) :   0.9589 B(  9-C , 12-C ) :   1.0821
B( 12-C , 13-H ) :   0.9766 B( 12-C , 14-H ) :   0.9750 B( 12-C , 15-H ) :   0.9753
B( 16-S , 17-C ) :   1.1567 B( 16-S , 20-C ) :   1.1303 B( 17-C , 18-C ) :   1.6527
B( 17-C , 33-H ) :   0.9590 B( 18-C , 19-C ) :   1.2161 B( 18-C , 21-H ) :   1.0039
B( 19-C , 20-C ) :   1.6191 B( 19-C , 22-C ) :   1.0366 B( 22-C , 23-H ) :   0.9301
B( 22-C , 24-H ) :   0.9365 B( 22-C , 25-C ) :   1.0333 B( 25-C , 26-H ) :   0.9730
B( 25-C , 27-H ) :   0.9593 B( 25-C , 28-C ) :   1.0593 B( 28-C , 29-H ) :   0.9765
B( 28-C , 30-H ) :   0.9764 B( 28-C , 31-H ) :   0.9761

Dispersion correction           -0.014185446
FINAL SINGLE POINT ENERGY     -1339.846410979160

DIPOLE MOMENT
-------------
                                X             Y             Z
Electronic contribution:      1.29865     -30.91053      -5.69125
Nuclear contribution   :     -1.00823      31.56486       5.63132
                        -----------------------------------------
Total Dipole Moment    :      0.29041       0.65433      -0.05993
                        -----------------------------------------
Magnitude (a.u.)       :      0.71839
Magnitude (Debye)      :      1.82600

Rotational constants in cm-1:     0.018232     0.009009     0.006874
Rotational constants in MHz :   546.568774   270.070144   206.079540

                             ****ORCA TERMINATED NORMALLY****
TOTAL RUN TIME: 0 days 0 hours 0 minutes 34 seconds 668 msec
