                         Program Version 4.2.1 -  RELEASE  -
|  1> ! wB97X-D3 SP def2-SVP
|  2> %pal
|  3> nprocs 16
|  4> end
|  5>
|  6> * xyz 0 1
|  7> S 	 -3.81017 	 9.17305 	 84.4671
|  8> C 	 -3.24428 	 7.48705 	 84.3983
|  9> C 	 -3.99386 	 6.83734 	 83.4466
| 10> C 	 -4.50728 	 7.737 	 82.4639
| 11> C 	 -4.42501 	 9.02652 	 82.8778
| 12> H 	 -5.05988 	 7.57708 	 81.5748
| 13> C 	 -4.08007 	 5.30953 	 83.3308
| 14> H 	 -4.77052 	 5.07419 	 82.5592
| 15> H 	 -4.66639 	 5.09938 	 84.2229
| 16> C 	 -2.78028 	 4.51327 	 83.0886
| 17> H 	 -2.26089 	 5.01652 	 82.3307
| 18> H 	 -2.24762 	 4.38855 	 83.9685
| 19> C 	 -3.06084 	 3.07742 	 82.7598
| 20> H 	 -3.50777 	 3.04093 	 81.7416
| 21> H 	 -2.16805 	 2.45932 	 82.763
| 22> H 	 -3.71747 	 2.63729 	 83.5155
| 23> S 	 -6.05302 	 11.1799 	 83.2498
| 24> C 	 -6.44434 	 12.2309 	 81.9231
| 25> C 	 -5.76355 	 11.8165 	 80.8202
| 26> C 	 -5.06079 	 10.6156 	 80.9374
| 27> C 	 -5.04673 	 10.1761 	 82.2437
| 28> H 	 -5.86207 	 12.3754 	 79.9651
| 29> C 	 -4.27966 	 9.93863 	 79.8501
| 30> H 	 -5.00033 	 9.8386 	 79.0968
| 31> H 	 -3.88823 	 8.99546 	 80.1617
| 32> C 	 -3.1032 	 10.7388 	 79.2451
| 33> H 	 -3.58337 	 11.3951 	 78.5178
| 34> H 	 -2.64522 	 10.093 	 78.5884
| 35> C 	 -2.08012 	 11.4624 	 80.0974
| 36> H 	 -1.29304 	 11.9003 	 79.5415
| 37> H 	 -1.69163 	 10.6543 	 80.7654
| 38> H 	 -2.53664 	 12.2088 	 80.7492
| 39> H 	 -2.82219 	 7.03303 	 85.1949
| 40> H 	 -6.97105 	 13.1889 	 82.1042
| 41> *
| 42>
| 43>                          ****END OF INPUT****

CARTESIAN COORDINATES (ANGSTROEM)
---------------------------------
  S     -3.810170    9.173050   84.467100
  C     -3.244280    7.487050   84.398300
  C     -3.993860    6.837340   83.446600
  C     -4.507280    7.737000   82.463900
  C     -4.425010    9.026520   82.877800
  H     -5.059880    7.577080   81.574800
  C     -4.080070    5.309530   83.330800
  H     -4.770520    5.074190   82.559200
  H     -4.666390    5.099380   84.222900
  C     -2.780280    4.513270   83.088600
  H     -2.260890    5.016520   82.330700
  H     -2.247620    4.388550   83.968500
  C     -3.060840    3.077420   82.759800
  H     -3.507770    3.040930   81.741600
  H     -2.168050    2.459320   82.763000
  H     -3.717470    2.637290   83.515500
  S     -6.053020   11.179900   83.249800
  C     -6.444340   12.230900   81.923100
  C     -5.763550   11.816500   80.820200
  C     -5.060790   10.615600   80.937400
  C     -5.046730   10.176100   82.243700
  H     -5.862070   12.375400   79.965100
  C     -4.279660    9.938630   79.850100
  H     -5.000330    9.838600   79.096800
  H     -3.888230    8.995460   80.161700
  C     -3.103200   10.738800   79.245100
  H     -3.583370   11.395100   78.517800
  H     -2.645220   10.093000   78.588400
  C     -2.080120   11.462400   80.097400
  H     -1.293040   11.900300   79.541500
  H     -1.691630   10.654300   80.765400
  H     -2.536640   12.208800   80.749200
  H     -2.822190    7.033030   85.194900
  H     -6.971050   13.188900   82.104200

 Total Charge           Charge          ....    0
 Multiplicity           Mult            ....    1
 Number of Electrons    NEL             ....  134
 Basis Dimension        Dim             ....  322

ORBITAL ENERGIES
----------------

  NO   OCC          E(Eh)            E(eV)
   0   2.0000     -88.961647     -2420.7695
   1   2.0000     -88.959423     -2420.7090
   2   2.0000     -10.321445      -280.8608
   3   2.0000     -10.320327      -280.8304
   4   2.0000     -10.314014      -280.6586
   5   2.0000     -10.303443      -280.3709
   6   2.0000     -10.302866      -280.3552
   7   2.0000     -10.294949      -280.1398
   8   2.0000     -10.288473      -279.9636
   9   2.0000     -10.286573      -279.9119
  10   2.0000     -10.283226      -279.8208
  11   2.0000     -10.283205      -279.8202
  12   2.0000     -10.278551      -279.6936
  13   2.0000     -10.277781      -279.6727
  14   2.0000     -10.274679      -279.5882
  15   2.0000     -10.272089      -279.5177
  16   2.0000      -8.077042      -219.7875
  17   2.0000      -8.075031      -219.7328
  18   2.0000      -6.035500      -164.2343
  19   2.0000      -6.033425      -164.1778
  20   2.0000      -6.031799      -164.1336
  21   2.0000      -6.029369      -164.0675
  22   2.0000      -6.027465      -164.0157
  23   2.0000      -6.025914      -163.9735
  24   2.0000      -1.015209       -27.6253
  25   2.0000      -0.990476       -26.9522
  26   2.0000      -0.917419       -24.9643
  27   2.0000      -0.911647       -24.8072
  28   2.0000      -0.875919       -23.8350
  29   2.0000      -0.854686       -23.2572
  30   2.0000      -0.846661       -23.0388
  31   2.0000      -0.819736       -22.3062
  32   2.0000      -0.788370       -21.4526
  33   2.0000      -0.775999       -21.1160
  34   2.0000      -0.709119       -19.2961
  35   2.0000      -0.706528       -19.2256
  36   2.0000      -0.696278       -18.9467
  37   2.0000      -0.663696       -18.0601
  38   2.0000      -0.648882       -17.6570
  39   2.0000      -0.615053       -16.7364
  40   2.0000      -0.595270       -16.1981
  41   2.0000      -0.583573       -15.8798
  42   2.0000      -0.567848       -15.4519
  43   2.0000      -0.559821       -15.2335
  44   2.0000      -0.545314       -14.8387
  45   2.0000      -0.528344       -14.3770
  46   2.0000      -0.523662       -14.2496
  47   2.0000      -0.514981       -14.0134
  48   2.0000      -0.502151       -13.6642
  49   2.0000      -0.498787       -13.5727
  50   2.0000      -0.496981       -13.5235
  51   2.0000      -0.477952       -13.0057
  52   2.0000      -0.477024       -12.9805
  53   2.0000      -0.470915       -12.8143
  54   2.0000      -0.460677       -12.5357
  55   2.0000      -0.447861       -12.1869
  56   2.0000      -0.444942       -12.1075
  57   2.0000      -0.440128       -11.9765
  58   2.0000      -0.437553       -11.9064
  59   2.0000      -0.423238       -11.5169
  60   2.0000      -0.419931       -11.4269
  61   2.0000      -0.413262       -11.2454
  62   2.0000      -0.405457       -11.0331
  63   2.0000      -0.351401        -9.5621
  64   2.0000      -0.331189        -9.0121
  65   2.0000      -0.326932        -8.8963
  66   2.0000      -0.288127        -7.8403
  67   0.0000       0.029224         0.7952
  68   0.0000       0.068317         1.8590
  69   0.0000       0.108992         2.9658
  70   0.0000       0.130151         3.5416
  71   0.0000       0.135475         3.6865

MULLIKEN ATOMIC CHARGES
-----------------------
   0 S :    0.091257
   1 C :   -0.060825
   2 C :   -0.116056
   3 C :    0.027450
   4 C :   -0.125225
   5 H :    0.003593
   6 C :    0.070632
   7 H :   -0.002771
   8 H :    0.031096
   9 C :    0.003932
  10 H :    0.028373
  11 H :    0.013415
  12 C :   -0.069593
  13 H :    0.033674
  14 H :    0.033247
  15 H :    0.031663
  16 S :    0.089724
  17 C :   -0.107178
  18 C :   -0.009897
  19 C :   -0.048377
  20 C :   -0.160293
  21 H :   -0.018736
  22 C :    0.117649
  23 H :    0.014185
  24 H :    0.012196
  25 C :   -0.063026
  26 H :    0.003477
  27 H :    0.000754
  28 C :   -0.014095
  29 H :    0.033359
  30 H :    0.033393
  31 H :    0.040103
  32 H :    0.007742
  33 H :    0.075158
Sum of atomic charges:    0.0000000

LOEWDIN ATOMIC CHARGES
----------------------
   0 S :    0.403905
   1 C :   -0.175428
   2 C :   -0.046182
   3 C :   -0.070152
   4 C :   -0.193546
   5 H :    0.027463
   6 C :   -0.031143
   7 H :    0.021895
   8 H :    0.035419
   9 C :   -0.028210
  10 H :    0.022286
  11 H :    0.018147
  12 C :   -0.062540
  13 H :    0.025583
  14 H :    0.025240
  15 H :    0.026773
  16 S :    0.403225
  17 C :   -0.192328
  18 C :   -0.064142
  19 C :   -0.063006
  20 C :   -0.193880
  21 H :    0.017632
  22 C :   -0.018388
  23 H :    0.029839
  24 H :    0.024058
  25 C :   -0.039888
  26 H :    0.017247
  27 H :    0.014144
  28 C :   -0.059778
  29 H :    0.023485
  30 H :    0.034059
  31 H :    0.028107
  32 H :    0.001870
  33 H :    0.038236

  Mayer bond orders larger than 0.100000
B(  0-S ,  1-C ) :   1.1128 B(  0-S ,  4-C ) :   1.1609 B(  1-C ,  2-C ) :   1.6209
B(  1-C , 32-H ) :   0.9850 B(  2-C ,  3-C ) :   1.2070 B(  2-C ,  6-C ) :   1.0205
B(  3-C ,  4-C ) :   1.5753 B(  3-C ,  5-H ) :   0.9974 B(  4-C , 20-C ) :   1.0310
B(  6-C ,  7-H ) :   0.9446 B(  6-C ,  8-H ) :   0.9247 B(  6-C ,  9-C ) :   1.0632
B(  9-C , 10-H ) :   0.9594 B(  9-C , 11-H ) :   0.9487 B(  9-C , 12-C ) :   1.0921
B( 12-C , 13-H ) :   0.9750 B( 12-C , 14-H ) :   0.9744 B( 12-C , 15-H ) :   0.9733
B( 16-S , 17-C ) :   1.1524 B( 16-S , 20-C ) :   1.1552 B( 17-C , 18-C ) :   1.5914
B( 17-C , 20-C ) :   0.1021 B( 17-C , 33-H ) :   0.9652 B( 18-C , 19-C ) :   1.2408
B( 18-C , 21-H ) :   1.0083 B( 19-C , 20-C ) :   1.5841 B( 19-C , 22-C ) :   1.0514
B( 22-C , 23-H ) :   0.9188 B( 22-C , 24-H ) :   0.9310 B( 22-C , 25-C ) :   1.0851
B( 25-C , 26-H ) :   0.9464 B( 25-C , 27-H ) :   0.9505 B( 25-C , 28-C ) :   1.0768
B( 28-C , 29-H ) :   0.9720 B( 28-C , 30-H ) :   0.9745 B( 28-C , 31-H ) :   0.9715

Dispersion correction           -0.014175909
FINAL SINGLE POINT ENERGY     -1339.850820296766

DIPOLE MOMENT
-------------
                                X             Y             Z
Electronic contribution:    -11.89316      17.21067      14.77674
Nuclear contribution   :     11.93862     -17.63418     -15.21800
                        -----------------------------------------
Total Dipole Moment    :      0.04546      -0.42351      -0.44126
                        -----------------------------------------
Magnitude (a.u.)       :      0.61330
Magnitude (Debye)      :      1.55889

Rotational constants in cm-1:     0.021480     0.007761     0.006597
Rotational constants in MHz :   643.952324   232.659720   197.779570

                             ****ORCA TERMINATED NORMALLY****
TOTAL RUN TIME: 0 days 0 hours 0 minutes 33 seconds 254 msec
