                         Program Version 4.2.1 -  RELEASE  -
|  1> ! wB97X-D3 SP def2-SVP
|  2> %pal
|  3> nprocs 16
|  4> end
|  5>
|  6> * xyz 0 1
|  7> S 	 -0.648796 	 2.54079 	 81.8471
|  8> C 	 0.796872 	 3.60693 	 81.8864
|  9> C 	 0.786855 	 4.56862 	 80.8413
| 10> C 	 -0.393285 	 4.44895 	 80.0647
| 11> C 	 -1.22611 	 3.45024 	 80.5016
| 12> H 	 -0.658292 	 5.01197 	 79.1731
| 13> C 	 1.90867 	 5.53206 	 80.6949
| 14> H 	 2.80242 	 5.20942 	 81.253
| 15> H 	 1.54188 	 6.40081 	 81.2193
| 16> C 	 2.27833 	 5.9415 	 79.1868
| 17> H 	 2.51843 	 5.06111 	 78.562
| 18> H 	 1.49152 	 6.36393 	 78.6846
| 19> C 	 3.55246 	 6.78748 	 79.1954
| 20> H 	 3.40467 	 7.56365 	 78.4667
| 21> H 	 3.7093 	 7.30922 	 80.1088
| 22> H 	 4.34181 	 6.16453 	 78.9006
| 23> S 	 -2.89446 	 3.03242 	 78.28
| 24> C 	 -4.71394 	 2.98728 	 78.5958
| 25> C 	 -4.96947 	 3.3119 	 79.9166
| 26> C 	 -3.8037 	 3.59523 	 80.6617
| 27> C 	 -2.59891 	 3.30658 	 80.0186
| 28> H 	 -5.93561 	 3.42418 	 80.3224
| 29> C 	 -3.93628 	 4.32988 	 82.024
| 30> H 	 -2.94408 	 4.43011 	 82.547
| 31> H 	 -4.48997 	 3.72067 	 82.7502
| 32> C 	 -4.41691 	 5.75369 	 81.9185
| 33> H 	 -5.45576 	 5.70819 	 81.5123
| 34> H 	 -3.79822 	 6.22283 	 81.2367
| 35> C 	 -4.45058 	 6.55479 	 83.2737
| 36> H 	 -4.55411 	 5.84603 	 84.1196
| 37> H 	 -5.26498 	 7.25787 	 83.4123
| 38> H 	 -3.50763 	 7.18147 	 83.4418
| 39> H 	 1.61036 	 3.4946 	 82.5989
| 40> H 	 -5.5241 	 3.11248 	 77.8738
| 41> *
| 42>
| 43>                          ****END OF INPUT****

CARTESIAN COORDINATES (ANGSTROEM)
---------------------------------
  S     -0.648796    2.540790   81.847100
  C      0.796872    3.606930   81.886400
  C      0.786855    4.568620   80.841300
  C     -0.393285    4.448950   80.064700
  C     -1.226110    3.450240   80.501600
  H     -0.658292    5.011970   79.173100
  C      1.908670    5.532060   80.694900
  H      2.802420    5.209420   81.253000
  H      1.541880    6.400810   81.219300
  C      2.278330    5.941500   79.186800
  H      2.518430    5.061110   78.562000
  H      1.491520    6.363930   78.684600
  C      3.552460    6.787480   79.195400
  H      3.404670    7.563650   78.466700
  H      3.709300    7.309220   80.108800
  H      4.341810    6.164530   78.900600
  S     -2.894460    3.032420   78.280000
  C     -4.713940    2.987280   78.595800
  C     -4.969470    3.311900   79.916600
  C     -3.803700    3.595230   80.661700
  C     -2.598910    3.306580   80.018600
  H     -5.935610    3.424180   80.322400
  C     -3.936280    4.329880   82.024000
  H     -2.944080    4.430110   82.547000
  H     -4.489970    3.720670   82.750200
  C     -4.416910    5.753690   81.918500
  H     -5.455760    5.708190   81.512300
  H     -3.798220    6.222830   81.236700
  C     -4.450580    6.554790   83.273700
  H     -4.554110    5.846030   84.119600
  H     -5.264980    7.257870   83.412300
  H     -3.507630    7.181470   83.441800
  H      1.610360    3.494600   82.598900
  H     -5.524100    3.112480   77.873800

 Total Charge           Charge          ....    0
 Multiplicity           Mult            ....    1
 Number of Electrons    NEL             ....  134
 Basis Dimension        Dim             ....  322

ORBITAL ENERGIES
----------------

  NO   OCC          E(Eh)            E(eV)
   0   2.0000     -88.971260     -2421.0311
   1   2.0000     -88.966656     -2420.9058
   2   2.0000     -10.329601      -281.0827
   3   2.0000     -10.325814      -280.9797
   4   2.0000     -10.323846      -280.9261
   5   2.0000     -10.317266      -280.7471
   6   2.0000     -10.304686      -280.4048
   7   2.0000     -10.302386      -280.3422
   8   2.0000     -10.297033      -280.1965
   9   2.0000     -10.294082      -280.1162
  10   2.0000     -10.292466      -280.0722
  11   2.0000     -10.290619      -280.0220
  12   2.0000     -10.286090      -279.8987
  13   2.0000     -10.285793      -279.8907
  14   2.0000     -10.282881      -279.8114
  15   2.0000     -10.269688      -279.4524
  16   2.0000      -8.085123      -220.0074
  17   2.0000      -8.079184      -219.8458
  18   2.0000      -6.043469      -164.4511
  19   2.0000      -6.039829      -164.3521
  20   2.0000      -6.037938      -164.3006
  21   2.0000      -6.036026      -164.2486
  22   2.0000      -6.034191      -164.1987
  23   2.0000      -6.029617      -164.0742
  24   2.0000      -1.001652       -27.2563
  25   2.0000      -0.974809       -26.5259
  26   2.0000      -0.910908       -24.7871
  27   2.0000      -0.901743       -24.5377
  28   2.0000      -0.869204       -23.6523
  29   2.0000      -0.854357       -23.2482
  30   2.0000      -0.836638       -22.7661
  31   2.0000      -0.815578       -22.1930
  32   2.0000      -0.780236       -21.2313
  33   2.0000      -0.764648       -20.8071
  34   2.0000      -0.715703       -19.4753
  35   2.0000      -0.697432       -18.9781
  36   2.0000      -0.689889       -18.7728
  37   2.0000      -0.666176       -18.1276
  38   2.0000      -0.638011       -17.3612
  39   2.0000      -0.617394       -16.8001
  40   2.0000      -0.590953       -16.0806
  41   2.0000      -0.571669       -15.5559
  42   2.0000      -0.565202       -15.3799
  43   2.0000      -0.559109       -15.2141
  44   2.0000      -0.529914       -14.4197
  45   2.0000      -0.520206       -14.1555
  46   2.0000      -0.512985       -13.9590
  47   2.0000      -0.510107       -13.8807
  48   2.0000      -0.504032       -13.7154
  49   2.0000      -0.497943       -13.5497
  50   2.0000      -0.487848       -13.2750
  51   2.0000      -0.474632       -12.9154
  52   2.0000      -0.470276       -12.7969
  53   2.0000      -0.460720       -12.5368
  54   2.0000      -0.454584       -12.3699
  55   2.0000      -0.453293       -12.3347
  56   2.0000      -0.449855       -12.2412
  57   2.0000      -0.444668       -12.1000
  58   2.0000      -0.434448       -11.8219
  59   2.0000      -0.431121       -11.7314
  60   2.0000      -0.417782       -11.3684
  61   2.0000      -0.411522       -11.1981
  62   2.0000      -0.405529       -11.0350
  63   2.0000      -0.339881        -9.2486
  64   2.0000      -0.335229        -9.1221
  65   2.0000      -0.322960        -8.7882
  66   2.0000      -0.292695        -7.9646
  67   0.0000       0.027986         0.7615
  68   0.0000       0.062057         1.6887
  69   0.0000       0.098284         2.6744
  70   0.0000       0.112773         3.0687
  71   0.0000       0.128565         3.4984

MULLIKEN ATOMIC CHARGES
-----------------------
   0 S :    0.129113
   1 C :   -0.149119
   2 C :   -0.065255
   3 C :    0.017828
   4 C :   -0.145834
   5 H :    0.018302
   6 C :    0.055894
   7 H :    0.030015
   8 H :    0.042431
   9 C :   -0.091295
  10 H :    0.035095
  11 H :    0.015593
  12 C :   -0.000968
  13 H :    0.019421
  14 H :    0.025123
  15 H :    0.033410
  16 S :    0.079482
  17 C :   -0.090342
  18 C :   -0.009689
  19 C :   -0.034264
  20 C :   -0.165898
  21 H :    0.010867
  22 C :    0.026580
  23 H :    0.027371
  24 H :    0.027831
  25 C :   -0.039615
  26 H :    0.026304
  27 H :    0.020682
  28 C :   -0.076705
  29 H :    0.031533
  30 H :    0.034240
  31 H :    0.046446
  32 H :    0.047273
  33 H :    0.068152
Sum of atomic charges:    0.0000000

LOEWDIN ATOMIC CHARGES
----------------------
   0 S :    0.414456
   1 C :   -0.194891
   2 C :   -0.055215
   3 C :   -0.064176
   4 C :   -0.201709
   5 H :    0.032579
   6 C :   -0.030930
   7 H :    0.033510
   8 H :    0.036502
   9 C :   -0.030625
  10 H :    0.030186
  11 H :    0.007763
  12 C :   -0.054602
  13 H :    0.027292
  14 H :    0.021130
  15 H :    0.023101
  16 S :    0.353672
  17 C :   -0.166213
  18 C :   -0.057084
  19 C :   -0.059096
  20 C :   -0.184758
  21 H :    0.026842
  22 C :   -0.039647
  23 H :    0.030042
  24 H :    0.025652
  25 C :   -0.036330
  26 H :    0.023767
  27 H :    0.017035
  28 C :   -0.073976
  29 H :    0.026506
  30 H :    0.024679
  31 H :    0.034772
  32 H :    0.024085
  33 H :    0.035682

  Mayer bond orders larger than 0.100000
B(  0-S ,  1-C ) :   1.1337 B(  0-S ,  4-C ) :   1.1634 B(  1-C ,  2-C ) :   1.5905
B(  1-C , 32-H ) :   0.9700 B(  2-C ,  3-C ) :   1.2473 B(  2-C ,  6-C ) :   1.0255
B(  3-C ,  4-C ) :   1.5700 B(  3-C ,  5-H ) :   0.9890 B(  4-C , 20-C ) :   1.0125
B(  6-C ,  7-H ) :   0.9475 B(  6-C ,  8-H ) :   0.9246 B(  6-C ,  9-C ) :   1.0533
B(  9-C , 10-H ) :   0.9677 B(  9-C , 11-H ) :   0.9600 B(  9-C , 12-C ) :   1.0754
B( 12-C , 13-H ) :   0.9735 B( 12-C , 14-H ) :   0.9759 B( 12-C , 15-H ) :   0.9816
B( 16-S , 17-C ) :   1.1229 B( 16-S , 20-C ) :   1.1186 B( 17-C , 18-C ) :   1.6205
B( 17-C , 20-C ) :   0.1026 B( 17-C , 33-H ) :   0.9600 B( 18-C , 19-C ) :   1.2492
B( 18-C , 21-H ) :   0.9890 B( 19-C , 20-C ) :   1.6072 B( 19-C , 22-C ) :   1.0389
B( 22-C , 23-H ) :   0.9357 B( 22-C , 24-H ) :   0.9352 B( 22-C , 25-C ) :   1.0680
B( 25-C , 26-H ) :   0.9567 B( 25-C , 27-H ) :   0.9571 B( 25-C , 28-C ) :   1.0635
B( 28-C , 29-H ) :   0.9781 B( 28-C , 30-H ) :   0.9783 B( 28-C , 31-H ) :   0.9771

Dispersion correction           -0.014057642
FINAL SINGLE POINT ENERGY     -1339.855183089033

DIPOLE MOMENT
-------------
                                X             Y             Z
Electronic contribution:     -6.70007     -21.86187      -6.54669
Nuclear contribution   :      6.80933      22.62224       6.72161
                        -----------------------------------------
Total Dipole Moment    :      0.10926       0.76037       0.17492
                        -----------------------------------------
Magnitude (a.u.)       :      0.78785
Magnitude (Debye)      :      2.00255

Rotational constants in cm-1:     0.017530     0.007877     0.007017
Rotational constants in MHz :   525.536041   236.148385   210.354965

                             ****ORCA TERMINATED NORMALLY****
TOTAL RUN TIME: 0 days 0 hours 0 minutes 31 seconds 697 msec
