                         Program Version 4.2.1 -  RELEASE  -
|  1> ! wB97X-D3 SP def2-SVP
|  2> %pal
|  3> nprocs 16
|  4> end
|  5>
|  6> * xyz 0 1
|  7> S 	 -66.6493 	 36.1953 	 141.038
|  8> C 	 -67.9038 	 35.1083 	 141.535
|  9> C 	 -68.3579 	 34.3758 	 140.414
| 10> C 	 -67.6492 	 34.7692 	 139.204
| 11> C 	 -66.7409 	 35.7465 	 139.304
| 12> H 	 -67.7692 	 34.2384 	 138.243
| 13> C 	 -69.3128 	 33.1702 	 140.399
| 14> H 	 -69.5118 	 32.8431 	 139.374
| 15> H 	 -70.3607 	 33.5863 	 140.647
| 16> C 	 -68.865 	 32.0381 	 141.308
| 17> H 	 -68.5157 	 32.3194 	 142.316
| 18> H 	 -69.6834 	 31.3721 	 141.578
| 19> C 	 -67.7075 	 31.2683 	 140.653
| 20> H 	 -67.1132 	 30.6479 	 141.298
| 21> H 	 -68.0055 	 30.6104 	 139.954
| 22> H 	 -67.1031 	 31.9977 	 140.084
| 23> S 	 -64.053 	 35.7725 	 138.831
| 24> C 	 -63.4172 	 36.4626 	 137.331
| 25> C 	 -64.4517 	 36.651 	 136.417
| 26> C 	 -65.721 	 36.57 	 137.071
| 27> C 	 -65.6865 	 36.1414 	 138.356
| 28> H 	 -64.2311 	 37.0015 	 135.421
| 29> C 	 -66.9853 	 36.8619 	 136.359
| 30> H 	 -67.6828 	 36.6802 	 137.088
| 31> H 	 -67.1904 	 36.1219 	 135.466
| 32> C 	 -67.1078 	 38.2992 	 135.777
| 33> H 	 -67.988 	 38.3461 	 135.081
| 34> H 	 -66.182 	 38.4236 	 135.112
| 35> C 	 -67.331 	 39.2643 	 136.882
| 36> H 	 -67.774 	 40.2561 	 136.437
| 37> H 	 -66.4039 	 39.3424 	 137.344
| 38> H 	 -68.0135 	 38.9458 	 137.69
| 39> H 	 -68.1126 	 34.8941 	 142.537
| 40> H 	 -62.3569 	 36.5121 	 137.039
| 41> *
| 42>
| 43>                          ****END OF INPUT****

CARTESIAN COORDINATES (ANGSTROEM)
---------------------------------
  S    -66.649300   36.195300  141.038000
  C    -67.903800   35.108300  141.535000
  C    -68.357900   34.375800  140.414000
  C    -67.649200   34.769200  139.204000
  C    -66.740900   35.746500  139.304000
  H    -67.769200   34.238400  138.243000
  C    -69.312800   33.170200  140.399000
  H    -69.511800   32.843100  139.374000
  H    -70.360700   33.586300  140.647000
  C    -68.865000   32.038100  141.308000
  H    -68.515700   32.319400  142.316000
  H    -69.683400   31.372100  141.578000
  C    -67.707500   31.268300  140.653000
  H    -67.113200   30.647900  141.298000
  H    -68.005500   30.610400  139.954000
  H    -67.103100   31.997700  140.084000
  S    -64.053000   35.772500  138.831000
  C    -63.417200   36.462600  137.331000
  C    -64.451700   36.651000  136.417000
  C    -65.721000   36.570000  137.071000
  C    -65.686500   36.141400  138.356000
  H    -64.231100   37.001500  135.421000
  C    -66.985300   36.861900  136.359000
  H    -67.682800   36.680200  137.088000
  H    -67.190400   36.121900  135.466000
  C    -67.107800   38.299200  135.777000
  H    -67.988000   38.346100  135.081000
  H    -66.182000   38.423600  135.112000
  C    -67.331000   39.264300  136.882000
  H    -67.774000   40.256100  136.437000
  H    -66.403900   39.342400  137.344000
  H    -68.013500   38.945800  137.690000
  H    -68.112600   34.894100  142.537000
  H    -62.356900   36.512100  137.039000

 Total Charge           Charge          ....    0
 Multiplicity           Mult            ....    1
 Number of Electrons    NEL             ....  134
 Basis Dimension        Dim             ....  322

ORBITAL ENERGIES
----------------

  NO   OCC          E(Eh)            E(eV)
   0   2.0000     -88.964902     -2420.8580
   1   2.0000     -88.964649     -2420.8512
   2   2.0000     -10.331654      -281.1386
   3   2.0000     -10.325912      -280.9824
   4   2.0000     -10.323800      -280.9249
   5   2.0000     -10.318874      -280.7908
   6   2.0000     -10.310332      -280.5584
   7   2.0000     -10.303494      -280.3723
   8   2.0000     -10.298323      -280.2316
   9   2.0000     -10.297586      -280.2116
  10   2.0000     -10.296370      -280.1785
  11   2.0000     -10.290151      -280.0092
  12   2.0000     -10.289416      -279.9893
  13   2.0000     -10.285192      -279.8743
  14   2.0000     -10.273567      -279.5580
  15   2.0000     -10.265278      -279.3324
  16   2.0000      -8.079662      -219.8588
  17   2.0000      -8.079156      -219.8450
  18   2.0000      -6.038254      -164.3092
  19   2.0000      -6.037793      -164.2967
  20   2.0000      -6.034212      -164.1992
  21   2.0000      -6.033546      -164.1811
  22   2.0000      -6.030254      -164.0916
  23   2.0000      -6.029914      -164.0823
  24   2.0000      -1.009948       -27.4821
  25   2.0000      -0.985520       -26.8174
  26   2.0000      -0.913005       -24.8441
  27   2.0000      -0.911468       -24.8023
  28   2.0000      -0.872854       -23.7516
  29   2.0000      -0.850882       -23.1537
  30   2.0000      -0.843199       -22.9446
  31   2.0000      -0.820208       -22.3190
  32   2.0000      -0.779410       -21.2088
  33   2.0000      -0.768805       -20.9202
  34   2.0000      -0.711740       -19.3674
  35   2.0000      -0.700002       -19.0480
  36   2.0000      -0.696008       -18.9393
  37   2.0000      -0.659229       -17.9385
  38   2.0000      -0.648936       -17.6584
  39   2.0000      -0.614812       -16.7299
  40   2.0000      -0.593120       -16.1396
  41   2.0000      -0.574565       -15.6347
  42   2.0000      -0.560149       -15.2424
  43   2.0000      -0.552750       -15.0411
  44   2.0000      -0.542700       -14.7676
  45   2.0000      -0.531647       -14.4668
  46   2.0000      -0.518289       -14.1034
  47   2.0000      -0.512176       -13.9370
  48   2.0000      -0.506754       -13.7895
  49   2.0000      -0.500422       -13.6172
  50   2.0000      -0.487457       -13.2644
  51   2.0000      -0.475568       -12.9409
  52   2.0000      -0.469566       -12.7775
  53   2.0000      -0.467213       -12.7135
  54   2.0000      -0.461909       -12.5692
  55   2.0000      -0.448321       -12.1994
  56   2.0000      -0.442822       -12.0498
  57   2.0000      -0.433500       -11.7961
  58   2.0000      -0.429558       -11.6889
  59   2.0000      -0.423866       -11.5340
  60   2.0000      -0.416429       -11.3316
  61   2.0000      -0.411756       -11.2045
  62   2.0000      -0.403834       -10.9889
  63   2.0000      -0.352089        -9.5808
  64   2.0000      -0.328541        -8.9400
  65   2.0000      -0.325216        -8.8496
  66   2.0000      -0.300798        -8.1851
  67   0.0000       0.028402         0.7729
  68   0.0000       0.064420         1.7529
  69   0.0000       0.105172         2.8619
  70   0.0000       0.123427         3.3586
  71   0.0000       0.126115         3.4318

MULLIKEN ATOMIC CHARGES
-----------------------
   0 S :    0.094563
   1 C :   -0.088106
   2 C :   -0.118240
   3 C :    0.041797
   4 C :   -0.168415
   5 H :    0.026684
   6 C :    0.035719
   7 H :    0.023564
   8 H :    0.047307
   9 C :   -0.053365
  10 H :    0.027583
  11 H :    0.024468
  12 C :   -0.010259
  13 H :    0.025058
  14 H :   -0.004106
  15 H :    0.033148
  16 S :    0.105266
  17 C :   -0.101368
  18 C :   -0.030471
  19 C :   -0.058934
  20 C :   -0.128736
  21 H :    0.024457
  22 C :    0.054729
  23 H :   -0.009174
  24 H :    0.049075
  25 C :   -0.090084
  26 H :    0.029875
  27 H :    0.039322
  28 C :   -0.046250
  29 H :    0.048957
  30 H :    0.028332
  31 H :    0.039077
  32 H :    0.040648
  33 H :    0.067876
Sum of atomic charges:   -0.0000000

LOEWDIN ATOMIC CHARGES
----------------------
   0 S :    0.395527
   1 C :   -0.184923
   2 C :   -0.063779
   3 C :   -0.064721
   4 C :   -0.191316
   5 H :    0.036626
   6 C :   -0.038368
   7 H :    0.030062
   8 H :    0.042558
   9 C :   -0.042393
  10 H :    0.025460
  11 H :    0.023179
  12 C :   -0.057795
  13 H :    0.024974
  14 H :    0.007758
  15 H :    0.032649
  16 S :    0.402222
  17 C :   -0.174860
  18 C :   -0.067228
  19 C :   -0.064165
  20 C :   -0.201236
  21 H :    0.030957
  22 C :   -0.033545
  23 H :    0.011169
  24 H :    0.042985
  25 C :   -0.048026
  26 H :    0.023588
  27 H :    0.028913
  28 C :   -0.070375
  29 H :    0.038274
  30 H :    0.019739
  31 H :    0.031752
  32 H :    0.019441
  33 H :    0.034900

  Mayer bond orders larger than 0.100000
B(  0-S ,  1-C ) :   1.1570 B(  0-S ,  4-C ) :   1.1316 B(  1-C ,  2-C ) :   1.5869
B(  1-C , 32-H ) :   0.9786 B(  2-C ,  3-C ) :   1.2451 B(  2-C ,  6-C ) :   1.0177
B(  3-C ,  4-C ) :   1.5980 B(  3-C ,  5-H ) :   0.9834 B(  4-C , 20-C ) :   1.0120
B(  6-C ,  7-H ) :   0.9513 B(  6-C ,  8-H ) :   0.9367 B(  6-C ,  9-C ) :   1.0589
B(  9-C , 10-H ) :   0.9642 B(  9-C , 11-H ) :   0.9546 B(  9-C , 12-C ) :   1.0622
B( 12-C , 13-H ) :   0.9727 B( 12-C , 14-H ) :   0.9711 B( 12-C , 15-H ) :   0.9779
B( 16-S , 17-C ) :   1.1526 B( 16-S , 20-C ) :   1.1327 B( 17-C , 18-C ) :   1.6192
B( 17-C , 33-H ) :   0.9640 B( 18-C , 19-C ) :   1.2123 B( 18-C , 21-H ) :   0.9903
B( 19-C , 20-C ) :   1.6279 B( 19-C , 22-C ) :   1.0558 B( 22-C , 23-H ) :   0.9276
B( 22-C , 24-H ) :   0.9329 B( 22-C , 25-C ) :   1.0671 B( 25-C , 26-H ) :   0.9564
B( 25-C , 27-H ) :   0.9571 B( 25-C , 28-C ) :   1.0592 B( 28-C , 29-H ) :   0.9731
B( 28-C , 30-H ) :   0.9756 B( 28-C , 31-H ) :   0.9721

Dispersion correction           -0.014766584
FINAL SINGLE POINT ENERGY     -1339.853999053924

DIPOLE MOMENT
-------------
                                X             Y             Z
Electronic contribution:     14.50350       5.68175       7.79305
Nuclear contribution   :    -14.77760      -6.12379      -8.14032
                        -----------------------------------------
Total Dipole Moment    :     -0.27410      -0.44204      -0.34727
                        -----------------------------------------
Magnitude (a.u.)       :      0.62541
Magnitude (Debye)      :      1.58966

Rotational constants in cm-1:     0.021642     0.008023     0.007320
Rotational constants in MHz :   648.802052   240.510755   219.445797

                             ****ORCA TERMINATED NORMALLY****
TOTAL RUN TIME: 0 days 0 hours 0 minutes 36 seconds 66 msec
