                         Program Version 4.2.1 -  RELEASE  -
|  1> ! wB97X-D3 SP def2-SVP
|  2> %pal
|  3> nprocs 16
|  4> end
|  5>
|  6> * xyz 0 1
|  7> S 	 -34.5171 	 69.2508 	 147.442
|  8> C 	 -32.8968 	 69.0543 	 146.806
|  9> C 	 -31.9531 	 68.927 	 147.811
| 10> C 	 -32.5527 	 68.8206 	 149.11
| 11> C 	 -33.8935 	 68.9969 	 149.118
| 12> H 	 -32.0145 	 68.6716 	 150.023
| 13> C 	 -30.4323 	 68.8079 	 147.513
| 14> H 	 -29.926 	 69.1302 	 148.414
| 15> H 	 -30.2071 	 69.5372 	 146.807
| 16> C 	 -29.8737 	 67.4073 	 147.219
| 17> H 	 -30.4282 	 67.0017 	 146.446
| 18> H 	 -28.8121 	 67.4941 	 146.932
| 19> C 	 -29.7551 	 66.5422 	 148.55
| 20> H 	 -29.3449 	 67.2072 	 149.285
| 21> H 	 -30.7327 	 66.2531 	 148.95
| 22> H 	 -29.0754 	 65.6636 	 148.527
| 23> S 	 -35.5905 	 67.5009 	 150.481
| 24> C 	 -36.2042 	 68.1645 	 152.032
| 25> C 	 -35.5365 	 69.2661 	 152.444
| 26> C 	 -34.7796 	 69.8027 	 151.353
| 27> C 	 -34.8355 	 69.0139 	 150.219
| 28> H 	 -35.695 	 69.7409 	 153.412
| 29> C 	 -33.9047 	 71.0482 	 151.472
| 30> H 	 -32.9103 	 70.7732 	 151.077
| 31> H 	 -33.6983 	 71.2916 	 152.512
| 32> C 	 -34.3238 	 72.4598 	 150.9
| 33> H 	 -34.1128 	 72.5338 	 149.863
| 34> H 	 -33.6857 	 73.1815 	 151.363
| 35> C 	 -35.7677 	 72.8904 	 151.26
| 36> H 	 -36.0232 	 73.8486 	 150.827
| 37> H 	 -35.998 	 72.9033 	 152.314
| 38> H 	 -36.3926 	 72.1234 	 150.795
| 39> H 	 -32.6093 	 69.0549 	 145.761
| 40> H 	 -36.8785 	 67.7401 	 152.695
| 41> *
| 42>
| 43>                          ****END OF INPUT****

CARTESIAN COORDINATES (ANGSTROEM)
---------------------------------
  S    -34.517100   69.250800  147.442000
  C    -32.896800   69.054300  146.806000
  C    -31.953100   68.927000  147.811000
  C    -32.552700   68.820600  149.110000
  C    -33.893500   68.996900  149.118000
  H    -32.014500   68.671600  150.023000
  C    -30.432300   68.807900  147.513000
  H    -29.926000   69.130200  148.414000
  H    -30.207100   69.537200  146.807000
  C    -29.873700   67.407300  147.219000
  H    -30.428200   67.001700  146.446000
  H    -28.812100   67.494100  146.932000
  C    -29.755100   66.542200  148.550000
  H    -29.344900   67.207200  149.285000
  H    -30.732700   66.253100  148.950000
  H    -29.075400   65.663600  148.527000
  S    -35.590500   67.500900  150.481000
  C    -36.204200   68.164500  152.032000
  C    -35.536500   69.266100  152.444000
  C    -34.779600   69.802700  151.353000
  C    -34.835500   69.013900  150.219000
  H    -35.695000   69.740900  153.412000
  C    -33.904700   71.048200  151.472000
  H    -32.910300   70.773200  151.077000
  H    -33.698300   71.291600  152.512000
  C    -34.323800   72.459800  150.900000
  H    -34.112800   72.533800  149.863000
  H    -33.685700   73.181500  151.363000
  C    -35.767700   72.890400  151.260000
  H    -36.023200   73.848600  150.827000
  H    -35.998000   72.903300  152.314000
  H    -36.392600   72.123400  150.795000
  H    -32.609300   69.054900  145.761000
  H    -36.878500   67.740100  152.695000

 Total Charge           Charge          ....    0
 Multiplicity           Mult            ....    1
 Number of Electrons    NEL             ....  134
 Basis Dimension        Dim             ....  322

ORBITAL ENERGIES
----------------

  NO   OCC          E(Eh)            E(eV)
   0   2.0000     -88.967501     -2420.9288
   1   2.0000     -88.962600     -2420.7954
   2   2.0000     -10.326809      -281.0068
   3   2.0000     -10.317899      -280.7643
   4   2.0000     -10.313595      -280.6472
   5   2.0000     -10.313277      -280.6385
   6   2.0000     -10.304817      -280.4083
   7   2.0000     -10.300939      -280.3028
   8   2.0000     -10.294471      -280.1268
   9   2.0000     -10.292935      -280.0850
  10   2.0000     -10.291777      -280.0535
  11   2.0000     -10.288146      -279.9547
  12   2.0000     -10.287434      -279.9353
  13   2.0000     -10.281337      -279.7694
  14   2.0000     -10.281147      -279.7642
  15   2.0000     -10.271706      -279.5073
  16   2.0000      -8.082343      -219.9317
  17   2.0000      -8.076644      -219.7766
  18   2.0000      -6.040858      -164.3801
  19   2.0000      -6.037101      -164.2779
  20   2.0000      -6.035191      -164.2259
  21   2.0000      -6.032779      -164.1603
  22   2.0000      -6.031305      -164.1202
  23   2.0000      -6.027358      -164.0128
  24   2.0000      -1.009387       -27.4668
  25   2.0000      -0.981419       -26.7058
  26   2.0000      -0.906888       -24.6777
  27   2.0000      -0.898728       -24.4556
  28   2.0000      -0.874029       -23.7835
  29   2.0000      -0.847806       -23.0700
  30   2.0000      -0.840739       -22.8777
  31   2.0000      -0.818073       -22.2609
  32   2.0000      -0.781745       -21.2724
  33   2.0000      -0.769646       -20.9431
  34   2.0000      -0.709467       -19.3056
  35   2.0000      -0.705696       -19.2030
  36   2.0000      -0.690571       -18.7914
  37   2.0000      -0.665841       -18.1185
  38   2.0000      -0.643117       -17.5001
  39   2.0000      -0.616894       -16.7865
  40   2.0000      -0.588957       -16.0263
  41   2.0000      -0.574272       -15.6267
  42   2.0000      -0.552724       -15.0404
  43   2.0000      -0.547859       -14.9080
  44   2.0000      -0.543754       -14.7963
  45   2.0000      -0.538934       -14.6651
  46   2.0000      -0.515566       -14.0293
  47   2.0000      -0.504563       -13.7299
  48   2.0000      -0.499712       -13.5979
  49   2.0000      -0.489853       -13.3296
  50   2.0000      -0.483491       -13.1565
  51   2.0000      -0.476501       -12.9662
  52   2.0000      -0.470382       -12.7998
  53   2.0000      -0.466496       -12.6940
  54   2.0000      -0.461394       -12.5552
  55   2.0000      -0.447560       -12.1787
  56   2.0000      -0.445663       -12.1271
  57   2.0000      -0.438840       -11.9415
  58   2.0000      -0.435102       -11.8397
  59   2.0000      -0.425285       -11.5726
  60   2.0000      -0.421269       -11.4633
  61   2.0000      -0.413385       -11.2488
  62   2.0000      -0.411483       -11.1970
  63   2.0000      -0.345811        -9.4100
  64   2.0000      -0.332198        -9.0396
  65   2.0000      -0.318441        -8.6652
  66   2.0000      -0.305434        -8.3113
  67   0.0000       0.034550         0.9401
  68   0.0000       0.059333         1.6145
  69   0.0000       0.099139         2.6977
  70   0.0000       0.112869         3.0713
  71   0.0000       0.135075         3.6756

MULLIKEN ATOMIC CHARGES
-----------------------
   0 S :    0.100929
   1 C :   -0.107639
   2 C :   -0.127572
   3 C :    0.068861
   4 C :   -0.196432
   5 H :    0.008287
   6 C :    0.083316
   7 H :    0.005125
   8 H :    0.016436
   9 C :   -0.022152
  10 H :    0.018341
  11 H :    0.033787
  12 C :   -0.074313
  13 H :    0.012037
  14 H :    0.041573
  15 H :    0.045105
  16 S :    0.119843
  17 C :   -0.048899
  18 C :   -0.031398
  19 C :   -0.057404
  20 C :   -0.122326
  21 H :    0.028098
  22 C :    0.058861
  23 H :    0.022389
  24 H :    0.012017
  25 C :   -0.041190
  26 H :    0.028527
  27 H :    0.016646
  28 C :   -0.056220
  29 H :    0.033885
  30 H :    0.025269
  31 H :    0.039293
  32 H :    0.044976
  33 H :    0.021945
Sum of atomic charges:   -0.0000000

LOEWDIN ATOMIC CHARGES
----------------------
   0 S :    0.376217
   1 C :   -0.192680
   2 C :   -0.064358
   3 C :   -0.057765
   4 C :   -0.180170
   5 H :    0.030304
   6 C :   -0.025267
   7 H :    0.026098
   8 H :    0.022251
   9 C :   -0.025929
  10 H :    0.010975
  11 H :    0.029921
  12 C :   -0.067520
  13 H :    0.018459
  14 H :    0.024941
  15 H :    0.029936
  16 S :    0.414579
  17 C :   -0.153494
  18 C :   -0.063213
  19 C :   -0.051297
  20 C :   -0.224198
  21 H :    0.036990
  22 C :   -0.036347
  23 H :    0.032667
  24 H :    0.027990
  25 C :   -0.029469
  26 H :    0.019217
  27 H :    0.019565
  28 C :   -0.065005
  29 H :    0.025494
  30 H :    0.020564
  31 H :    0.028019
  32 H :    0.028263
  33 H :    0.014261

  Mayer bond orders larger than 0.100000
B(  0-S ,  1-C ) :   1.1367 B(  0-S ,  4-C ) :   1.1246 B(  1-C ,  2-C ) :   1.6389
B(  1-C , 32-H ) :   0.9677 B(  2-C ,  3-C ) :   1.2175 B(  2-C ,  6-C ) :   1.0133
B(  3-C ,  4-C ) :   1.6278 B(  3-C ,  5-H ) :   0.9925 B(  4-C , 20-C ) :   0.9927
B(  6-C ,  7-H ) :   0.9394 B(  6-C ,  8-H ) :   0.9402 B(  6-C ,  9-C ) :   1.0706
B(  9-C , 10-H ) :   0.9621 B(  9-C , 11-H ) :   0.9544 B(  9-C , 12-C ) :   1.0604
B( 12-C , 13-H ) :   0.9744 B( 12-C , 14-H ) :   0.9786 B( 12-C , 15-H ) :   0.9784
B( 16-S , 17-C ) :   1.1401 B( 16-S , 20-C ) :   1.1525 B( 17-C , 18-C ) :   1.6406
B( 17-C , 33-H ) :   0.9729 B( 18-C , 19-C ) :   1.2295 B( 18-C , 21-H ) :   0.9877
B( 19-C , 20-C ) :   1.6004 B( 19-C , 22-C ) :   1.0440 B( 22-C , 23-H ) :   0.9275
B( 22-C , 24-H ) :   0.9409 B( 22-C , 25-C ) :   1.0700 B( 25-C , 26-H ) :   0.9592
B( 25-C , 27-H ) :   0.9554 B( 25-C , 28-C ) :   1.0764 B( 28-C , 29-H ) :   0.9746
B( 28-C , 30-H ) :   0.9774 B( 28-C , 31-H ) :   0.9744

Dispersion correction           -0.014940624
FINAL SINGLE POINT ENERGY     -1339.863384331913

DIPOLE MOMENT
-------------
                                X             Y             Z
Electronic contribution:    -16.94491      -8.89853      -4.04964
Nuclear contribution   :     17.51890       9.10261       4.44065
                        -----------------------------------------
Total Dipole Moment    :      0.57399       0.20408       0.39101
                        -----------------------------------------
Magnitude (a.u.)       :      0.72388
Magnitude (Debye)      :      1.83996

Rotational constants in cm-1:     0.019787     0.008294     0.007520
Rotational constants in MHz :   593.187897   248.633363   225.442099

                             ****ORCA TERMINATED NORMALLY****
TOTAL RUN TIME: 0 days 0 hours 0 minutes 35 seconds 115 msec
