                         Program Version 4.2.1 -  RELEASE  -
|  1> ! wB97X-D3 SP def2-SVP
|  2> %pal
|  3> nprocs 16
|  4> end
|  5>
|  6> * xyz 0 1
|  7> S 	 -39.1929 	 54.1941 	 108.966
|  8> C 	 -39.6832 	 55.0877 	 110.42
|  9> C 	 -39.8482 	 54.1228 	 111.43
| 10> C 	 -39.2615 	 52.8349 	 111.157
| 11> C 	 -38.7588 	 52.778 	 109.825
| 12> H 	 -39.2514 	 51.9711 	 111.768
| 13> C 	 -40.4098 	 54.3219 	 112.79
| 14> H 	 -40.3854 	 55.3891 	 113.063
| 15> H 	 -39.6408 	 53.8482 	 113.422
| 16> C 	 -41.8694 	 53.8268 	 113.08
| 17> H 	 -41.9026 	 52.8006 	 113.01
| 18> H 	 -42.3121 	 54.0699 	 114.076
| 19> C 	 -42.9664 	 54.4012 	 112.133
| 20> H 	 -43.0639 	 55.473 	 112.33
| 21> H 	 -42.7978 	 54.2216 	 111.066
| 22> H 	 -43.8516 	 53.8413 	 112.18
| 23> S 	 -36.4576 	 51.581 	 108.875
| 24> C 	 -36.4383 	 49.8147 	 108.656
| 25> C 	 -37.7197 	 49.3333 	 108.801
| 26> C 	 -38.7247 	 50.303 	 109.051
| 27> C 	 -38.2351 	 51.5533 	 109.233
| 28> H 	 -37.8506 	 48.2285 	 108.654
| 29> C 	 -40.1373 	 49.7474 	 109.194
| 30> H 	 -40.5533 	 49.2739 	 108.248
| 31> H 	 -40.7856 	 50.5727 	 109.411
| 32> C 	 -40.3495 	 48.9142 	 110.473
| 33> H 	 -40.2148 	 49.476 	 111.378
| 34> H 	 -39.7753 	 48.015 	 110.375
| 35> C 	 -41.7856 	 48.4329 	 110.48
| 36> H 	 -42.1283 	 48.0099 	 109.55
| 37> H 	 -42.4407 	 49.2875 	 110.698
| 38> H 	 -41.7757 	 47.7063 	 111.304
| 39> H 	 -39.985 	 56.0975 	 110.479
| 40> H 	 -35.6029 	 49.1808 	 108.517
| 41> *
| 42>
| 43>                          ****END OF INPUT****

CARTESIAN COORDINATES (ANGSTROEM)
---------------------------------
  S    -39.192900   54.194100  108.966000
  C    -39.683200   55.087700  110.420000
  C    -39.848200   54.122800  111.430000
  C    -39.261500   52.834900  111.157000
  C    -38.758800   52.778000  109.825000
  H    -39.251400   51.971100  111.768000
  C    -40.409800   54.321900  112.790000
  H    -40.385400   55.389100  113.063000
  H    -39.640800   53.848200  113.422000
  C    -41.869400   53.826800  113.080000
  H    -41.902600   52.800600  113.010000
  H    -42.312100   54.069900  114.076000
  C    -42.966400   54.401200  112.133000
  H    -43.063900   55.473000  112.330000
  H    -42.797800   54.221600  111.066000
  H    -43.851600   53.841300  112.180000
  S    -36.457600   51.581000  108.875000
  C    -36.438300   49.814700  108.656000
  C    -37.719700   49.333300  108.801000
  C    -38.724700   50.303000  109.051000
  C    -38.235100   51.553300  109.233000
  H    -37.850600   48.228500  108.654000
  C    -40.137300   49.747400  109.194000
  H    -40.553300   49.273900  108.248000
  H    -40.785600   50.572700  109.411000
  C    -40.349500   48.914200  110.473000
  H    -40.214800   49.476000  111.378000
  H    -39.775300   48.015000  110.375000
  C    -41.785600   48.432900  110.480000
  H    -42.128300   48.009900  109.550000
  H    -42.440700   49.287500  110.698000
  H    -41.775700   47.706300  111.304000
  H    -39.985000   56.097500  110.479000
  H    -35.602900   49.180800  108.517000

 Total Charge           Charge          ....    0
 Multiplicity           Mult            ....    1
 Number of Electrons    NEL             ....  134
 Basis Dimension        Dim             ....  322

ORBITAL ENERGIES
----------------

  NO   OCC          E(Eh)            E(eV)
   0   2.0000     -88.968393     -2420.9530
   1   2.0000     -88.960811     -2420.7467
   2   2.0000     -10.331997      -281.1479
   3   2.0000     -10.330092      -281.0961
   4   2.0000     -10.318015      -280.7675
   5   2.0000     -10.317775      -280.7609
   6   2.0000     -10.305309      -280.4217
   7   2.0000     -10.303185      -280.3639
   8   2.0000     -10.296122      -280.1717
   9   2.0000     -10.293855      -280.1100
  10   2.0000     -10.293566      -280.1022
  11   2.0000     -10.293549      -280.1017
  12   2.0000     -10.289153      -279.9821
  13   2.0000     -10.284114      -279.8450
  14   2.0000     -10.277381      -279.6617
  15   2.0000     -10.273451      -279.5548
  16   2.0000      -8.082986      -219.9492
  17   2.0000      -8.074551      -219.7197
  18   2.0000      -6.041488      -164.3972
  19   2.0000      -6.037492      -164.2885
  20   2.0000      -6.033766      -164.1871
  21   2.0000      -6.033259      -164.1733
  22   2.0000      -6.029254      -164.0643
  23   2.0000      -6.025086      -163.9509
  24   2.0000      -1.003544       -27.3078
  25   2.0000      -0.981239       -26.7009
  26   2.0000      -0.915524       -24.9127
  27   2.0000      -0.908691       -24.7267
  28   2.0000      -0.867836       -23.6150
  29   2.0000      -0.852145       -23.1881
  30   2.0000      -0.847268       -23.0553
  31   2.0000      -0.810899       -22.0657
  32   2.0000      -0.780492       -21.2383
  33   2.0000      -0.773054       -21.0359
  34   2.0000      -0.709301       -19.3011
  35   2.0000      -0.704044       -19.1580
  36   2.0000      -0.695411       -18.9231
  37   2.0000      -0.661007       -17.9869
  38   2.0000      -0.644058       -17.5257
  39   2.0000      -0.615996       -16.7621
  40   2.0000      -0.598376       -16.2826
  41   2.0000      -0.578751       -15.7486
  42   2.0000      -0.566447       -15.4138
  43   2.0000      -0.554614       -15.0918
  44   2.0000      -0.544377       -14.8132
  45   2.0000      -0.532530       -14.4909
  46   2.0000      -0.522591       -14.2204
  47   2.0000      -0.515730       -14.0337
  48   2.0000      -0.512187       -13.9373
  49   2.0000      -0.496145       -13.5008
  50   2.0000      -0.489935       -13.3318
  51   2.0000      -0.475425       -12.9370
  52   2.0000      -0.468293       -12.7429
  53   2.0000      -0.460542       -12.5320
  54   2.0000      -0.457156       -12.4399
  55   2.0000      -0.447673       -12.1818
  56   2.0000      -0.440253       -11.9799
  57   2.0000      -0.437485       -11.9046
  58   2.0000      -0.434255       -11.8167
  59   2.0000      -0.423629       -11.5275
  60   2.0000      -0.417964       -11.3734
  61   2.0000      -0.413774       -11.2594
  62   2.0000      -0.411285       -11.1916
  63   2.0000      -0.332782        -9.0555
  64   2.0000      -0.329197        -8.9579
  65   2.0000      -0.324224        -8.8226
  66   2.0000      -0.305999        -8.3266
  67   0.0000       0.031409         0.8547
  68   0.0000       0.056322         1.5326
  69   0.0000       0.106815         2.9066
  70   0.0000       0.112636         3.0650
  71   0.0000       0.124922         3.3993

MULLIKEN ATOMIC CHARGES
-----------------------
   0 S :    0.122018
   1 C :   -0.093633
   2 C :   -0.096351
   3 C :    0.038255
   4 C :   -0.139947
   5 H :    0.003091
   6 C :    0.046115
   7 H :    0.018182
   8 H :    0.039018
   9 C :   -0.040167
  10 H :    0.002552
  11 H :    0.038839
  12 C :   -0.061679
  13 H :    0.039148
  14 H :    0.028575
  15 H :    0.018466
  16 S :    0.083964
  17 C :   -0.069874
  18 C :   -0.070687
  19 C :    0.029013
  20 C :   -0.184407
  21 H :    0.038653
  22 C :    0.028888
  23 H :    0.052224
  24 H :    0.004529
  25 C :   -0.069330
  26 H :    0.035591
  27 H :    0.024150
  28 C :   -0.039966
  29 H :    0.026455
  30 H :    0.028106
  31 H :    0.036392
  32 H :    0.039030
  33 H :    0.044785
Sum of atomic charges:    0.0000000

LOEWDIN ATOMIC CHARGES
----------------------
   0 S :    0.424379
   1 C :   -0.190034
   2 C :   -0.058488
   3 C :   -0.056912
   4 C :   -0.210002
   5 H :    0.024601
   6 C :   -0.038968
   7 H :    0.028882
   8 H :    0.037058
   9 C :   -0.033064
  10 H :    0.007529
  11 H :    0.033164
  12 C :   -0.068537
  13 H :    0.025781
  14 H :    0.026238
  15 H :    0.021183
  16 S :    0.364207
  17 C :   -0.164758
  18 C :   -0.078526
  19 C :   -0.056766
  20 C :   -0.179594
  21 H :    0.038660
  22 C :   -0.035063
  23 H :    0.041867
  24 H :    0.023464
  25 C :   -0.030781
  26 H :    0.025485
  27 H :    0.017312
  28 C :   -0.059752
  29 H :    0.020103
  30 H :    0.023623
  31 H :    0.028875
  32 H :    0.023594
  33 H :    0.025243

  Mayer bond orders larger than 0.100000
B(  0-S ,  1-C ) :   1.1332 B(  0-S ,  4-C ) :   1.1897 B(  1-C ,  2-C ) :   1.5617
B(  1-C ,  4-C ) :   0.1034 B(  1-C , 32-H ) :   0.9802 B(  2-C ,  3-C ) :   1.2496
B(  2-C ,  6-C ) :   1.0307 B(  3-C ,  4-C ) :   1.5178 B(  3-C ,  5-H ) :   1.0047
B(  4-C , 20-C ) :   1.0176 B(  6-C ,  7-H ) :   0.9454 B(  6-C ,  8-H ) :   0.9463
B(  6-C ,  9-C ) :   1.0539 B(  9-C , 10-H ) :   0.9575 B(  9-C , 11-H ) :   0.9613
B(  9-C , 12-C ) :   1.0782 B( 12-C , 13-H ) :   0.9799 B( 12-C , 14-H ) :   0.9709
B( 12-C , 15-H ) :   0.9710 B( 16-S , 17-C ) :   1.1380 B( 16-S , 20-C ) :   1.1094
B( 17-C , 18-C ) :   1.6523 B( 17-C , 33-H ) :   0.9706 B( 18-C , 19-C ) :   1.1950
B( 18-C , 21-H ) :   0.9786 B( 19-C , 20-C ) :   1.6518 B( 19-C , 22-C ) :   1.0392
B( 22-C , 23-H ) :   0.9431 B( 22-C , 24-H ) :   0.9295 B( 22-C , 25-C ) :   1.0699
B( 25-C , 26-H ) :   0.9528 B( 25-C , 27-H ) :   0.9562 B( 25-C , 28-C ) :   1.0872
B( 28-C , 29-H ) :   0.9732 B( 28-C , 30-H ) :   0.9742 B( 28-C , 31-H ) :   0.9753

Dispersion correction           -0.014619646
FINAL SINGLE POINT ENERGY     -1339.850809077315

DIPOLE MOMENT
-------------
                                X             Y             Z
Electronic contribution:     24.48297       8.78017     -15.85951
Nuclear contribution   :    -25.03741      -9.26646      16.28617
                        -----------------------------------------
Total Dipole Moment    :     -0.55444      -0.48629       0.42667
                        -----------------------------------------
Magnitude (a.u.)       :      0.85201
Magnitude (Debye)      :      2.16565

Rotational constants in cm-1:     0.017344     0.009633     0.006944
Rotational constants in MHz :   519.962631   288.789522   208.188959

                             ****ORCA TERMINATED NORMALLY****
TOTAL RUN TIME: 0 days 0 hours 0 minutes 30 seconds 745 msec
