                         Program Version 4.2.1 -  RELEASE  -
|  1> ! wB97X-D3 SP def2-SVP
|  2> %pal
|  3> nprocs 16
|  4> end
|  5>
|  6> * xyz 0 1
|  7> S 	 18.5919 	 19.3144 	 39.4605
|  8> C 	 19.1735 	 19.1908 	 37.8033
|  9> C 	 18.1409 	 19.3731 	 36.9504
| 10> C 	 16.8684 	 19.1541 	 37.5759
| 11> C 	 16.9546 	 19.2328 	 38.9525
| 12> H 	 15.8615 	 19.0977 	 37.087
| 13> C 	 18.2706 	 19.4533 	 35.4013
| 14> H 	 18.6255 	 18.4177 	 35.1594
| 15> H 	 19.0289 	 20.1404 	 35.2078
| 16> C 	 16.9856 	 19.9014 	 34.6091
| 17> H 	 17.1852 	 19.9212 	 33.5344
| 18> H 	 16.2854 	 19.1143 	 34.9066
| 19> C 	 16.3096 	 21.2277 	 34.9342
| 20> H 	 17.0686 	 21.96 	 34.7809
| 21> H 	 15.5129 	 21.3655 	 34.1839
| 22> H 	 15.9851 	 21.292 	 35.956
| 23> S 	 15.8902 	 17.1885 	 40.6404
| 24> C 	 14.3736 	 17.5454 	 41.5081
| 25> C 	 13.879 	 18.7743 	 41.0885
| 26> C 	 14.6815 	 19.4599 	 40.1422
| 27> C 	 15.8895 	 18.8044 	 39.8514
| 28> H 	 12.8755 	 19.1433 	 41.2976
| 29> C 	 14.1939 	 20.5894 	 39.3399
| 30> H 	 13.3368 	 20.2808 	 38.8315
| 31> H 	 14.8628 	 20.8659 	 38.6121
| 32> C 	 13.7844 	 21.8398 	 40.1551
| 33> H 	 13.0147 	 21.5011 	 40.8726
| 34> H 	 13.2019 	 22.493 	 39.5135
| 35> C 	 14.8853 	 22.4937 	 40.9236
| 36> H 	 15.5355 	 23.0865 	 40.2333
| 37> H 	 15.5176 	 21.7415 	 41.4698
| 38> H 	 14.3576 	 23.2353 	 41.4866
| 39> H 	 20.1612 	 19.3997 	 37.4894
| 40> H 	 13.8933 	 17.0318 	 42.2011
| 41> *
| 42>
| 43>                          ****END OF INPUT****

CARTESIAN COORDINATES (ANGSTROEM)
---------------------------------
  S     18.591900   19.314400   39.460500
  C     19.173500   19.190800   37.803300
  C     18.140900   19.373100   36.950400
  C     16.868400   19.154100   37.575900
  C     16.954600   19.232800   38.952500
  H     15.861500   19.097700   37.087000
  C     18.270600   19.453300   35.401300
  H     18.625500   18.417700   35.159400
  H     19.028900   20.140400   35.207800
  C     16.985600   19.901400   34.609100
  H     17.185200   19.921200   33.534400
  H     16.285400   19.114300   34.906600
  C     16.309600   21.227700   34.934200
  H     17.068600   21.960000   34.780900
  H     15.512900   21.365500   34.183900
  H     15.985100   21.292000   35.956000
  S     15.890200   17.188500   40.640400
  C     14.373600   17.545400   41.508100
  C     13.879000   18.774300   41.088500
  C     14.681500   19.459900   40.142200
  C     15.889500   18.804400   39.851400
  H     12.875500   19.143300   41.297600
  C     14.193900   20.589400   39.339900
  H     13.336800   20.280800   38.831500
  H     14.862800   20.865900   38.612100
  C     13.784400   21.839800   40.155100
  H     13.014700   21.501100   40.872600
  H     13.201900   22.493000   39.513500
  C     14.885300   22.493700   40.923600
  H     15.535500   23.086500   40.233300
  H     15.517600   21.741500   41.469800
  H     14.357600   23.235300   41.486600
  H     20.161200   19.399700   37.489400
  H     13.893300   17.031800   42.201100

 Total Charge           Charge          ....    0
 Multiplicity           Mult            ....    1
 Number of Electrons    NEL             ....  134
 Basis Dimension        Dim             ....  322

ORBITAL ENERGIES
----------------

  NO   OCC          E(Eh)            E(eV)
   0   2.0000     -88.966812     -2420.9100
   1   2.0000     -88.966011     -2420.8882
   2   2.0000     -10.327643      -281.0294
   3   2.0000     -10.325953      -280.9835
   4   2.0000     -10.313021      -280.6316
   5   2.0000     -10.308701      -280.5140
   6   2.0000     -10.302551      -280.3467
   7   2.0000     -10.298855      -280.2461
   8   2.0000     -10.296501      -280.1820
   9   2.0000     -10.296395      -280.1791
  10   2.0000     -10.291695      -280.0512
  11   2.0000     -10.291582      -280.0482
  12   2.0000     -10.280397      -279.7438
  13   2.0000     -10.277833      -279.6741
  14   2.0000     -10.274458      -279.5822
  15   2.0000     -10.272942      -279.5410
  16   2.0000      -8.081175      -219.9000
  17   2.0000      -8.079851      -219.8639
  18   2.0000      -6.039747      -164.3499
  19   2.0000      -6.038534      -164.3169
  20   2.0000      -6.035619      -164.2376
  21   2.0000      -6.034628      -164.2106
  22   2.0000      -6.031819      -164.1341
  23   2.0000      -6.030484      -164.0978
  24   2.0000      -1.008815       -27.4512
  25   2.0000      -0.981296       -26.7024
  26   2.0000      -0.913200       -24.8494
  27   2.0000      -0.909738       -24.7552
  28   2.0000      -0.873619       -23.7724
  29   2.0000      -0.850091       -23.1321
  30   2.0000      -0.843838       -22.9620
  31   2.0000      -0.817362       -22.2416
  32   2.0000      -0.788659       -21.4605
  33   2.0000      -0.776848       -21.1391
  34   2.0000      -0.713003       -19.4018
  35   2.0000      -0.697978       -18.9930
  36   2.0000      -0.692331       -18.8393
  37   2.0000      -0.654840       -17.8191
  38   2.0000      -0.639568       -17.4035
  39   2.0000      -0.619401       -16.8548
  40   2.0000      -0.603608       -16.4250
  41   2.0000      -0.570032       -15.5114
  42   2.0000      -0.559945       -15.2369
  43   2.0000      -0.551674       -15.0118
  44   2.0000      -0.547969       -14.9110
  45   2.0000      -0.538573       -14.6553
  46   2.0000      -0.522937       -14.2298
  47   2.0000      -0.514965       -14.0129
  48   2.0000      -0.506489       -13.7823
  49   2.0000      -0.496315       -13.5054
  50   2.0000      -0.494275       -13.4499
  51   2.0000      -0.484068       -13.1722
  52   2.0000      -0.472213       -12.8496
  53   2.0000      -0.463343       -12.6082
  54   2.0000      -0.461796       -12.5661
  55   2.0000      -0.450813       -12.2672
  56   2.0000      -0.445693       -12.1279
  57   2.0000      -0.437344       -11.9007
  58   2.0000      -0.430393       -11.7116
  59   2.0000      -0.420120       -11.4321
  60   2.0000      -0.418063       -11.3761
  61   2.0000      -0.411823       -11.2063
  62   2.0000      -0.408416       -11.1136
  63   2.0000      -0.340264        -9.2591
  64   2.0000      -0.328507        -8.9391
  65   2.0000      -0.324388        -8.8271
  66   2.0000      -0.300553        -8.1785
  67   0.0000       0.030110         0.8193
  68   0.0000       0.059177         1.6103
  69   0.0000       0.107981         2.9383
  70   0.0000       0.113103         3.0777
  71   0.0000       0.132296         3.6000

MULLIKEN ATOMIC CHARGES
-----------------------
   0 S :    0.115251
   1 C :   -0.102467
   2 C :   -0.116098
   3 C :   -0.003335
   4 C :   -0.169702
   5 H :    0.042939
   6 C :    0.075507
   7 H :    0.061439
   8 H :    0.010905
   9 C :   -0.115657
  10 H :    0.040179
  11 H :    0.032041
  12 C :   -0.027256
  13 H :    0.020913
  14 H :    0.045187
  15 H :    0.035939
  16 S :    0.112114
  17 C :   -0.023506
  18 C :   -0.032650
  19 C :   -0.059966
  20 C :   -0.161863
  21 H :    0.020725
  22 C :    0.145899
  23 H :    0.014804
  24 H :   -0.009880
  25 C :   -0.109750
  26 H :    0.014259
  27 H :    0.017763
  28 C :   -0.030080
  29 H :    0.028259
  30 H :    0.060298
  31 H :    0.029514
  32 H :    0.039388
  33 H :   -0.001114
Sum of atomic charges:    0.0000000

LOEWDIN ATOMIC CHARGES
----------------------
   0 S :    0.420826
   1 C :   -0.191736
   2 C :   -0.061762
   3 C :   -0.063417
   4 C :   -0.212138
   5 H :    0.040180
   6 C :   -0.028092
   7 H :    0.046656
   8 H :    0.015674
   9 C :   -0.044853
  10 H :    0.029414
  11 H :    0.020899
  12 C :   -0.059527
  13 H :    0.021211
  14 H :    0.034389
  15 H :    0.020631
  16 S :    0.381326
  17 C :   -0.151607
  18 C :   -0.066414
  19 C :   -0.055634
  20 C :   -0.190405
  21 H :    0.030553
  22 C :   -0.024680
  23 H :    0.029207
  24 H :    0.015196
  25 C :   -0.042594
  26 H :    0.018838
  27 H :    0.020903
  28 C :   -0.066934
  29 H :    0.027542
  30 H :    0.037166
  31 H :    0.026021
  32 H :    0.021798
  33 H :    0.001366

  Mayer bond orders larger than 0.100000
B(  0-S ,  1-C ) :   1.1332 B(  0-S ,  4-C ) :   1.1646 B(  1-C ,  2-C ) :   1.6422
B(  1-C , 32-H ) :   0.9662 B(  2-C ,  3-C ) :   1.2246 B(  2-C ,  6-C ) :   0.9927
B(  3-C ,  4-C ) :   1.5806 B(  3-C ,  5-H ) :   0.9737 B(  4-C , 20-C ) :   1.0259
B(  6-C ,  7-H ) :   0.9475 B(  6-C ,  8-H ) :   0.9393 B(  6-C ,  9-C ) :   1.0695
B(  9-C , 10-H ) :   0.9576 B(  9-C , 11-H ) :   0.9510 B(  9-C , 12-C ) :   1.0824
B( 12-C , 13-H ) :   0.9731 B( 12-C , 14-H ) :   0.9719 B( 12-C , 15-H ) :   0.9719
B( 16-S , 17-C ) :   1.1438 B( 16-S , 20-C ) :   1.1277 B( 17-C , 18-C ) :   1.6029
B( 17-C , 20-C ) :   0.1027 B( 17-C , 33-H ) :   0.9826 B( 18-C , 19-C ) :   1.2610
B( 18-C , 21-H ) :   0.9782 B( 19-C , 20-C ) :   1.5735 B( 19-C , 22-C ) :   1.0615
B( 22-C , 23-H ) :   0.9227 B( 22-C , 24-H ) :   0.9190 B( 22-C , 25-C ) :   1.0754
B( 25-C , 26-H ) :   0.9561 B( 25-C , 27-H ) :   0.9511 B( 25-C , 28-C ) :   1.0760
B( 28-C , 29-H ) :   0.9726 B( 28-C , 30-H ) :   0.9698 B( 28-C , 31-H ) :   0.9712

Dispersion correction           -0.015089010
FINAL SINGLE POINT ENERGY     -1339.848624705208

DIPOLE MOMENT
-------------
                                X             Y             Z
Electronic contribution:     10.31152     -18.45087      15.16421
Nuclear contribution   :    -10.68765      18.80593     -15.81899
                        -----------------------------------------
Total Dipole Moment    :     -0.37613       0.35506      -0.65478
                        -----------------------------------------
Magnitude (a.u.)       :      0.83443
Magnitude (Debye)      :      2.12096

Rotational constants in cm-1:     0.017804     0.009573     0.007788
Rotational constants in MHz :   533.736737   287.002012   233.491626

                             ****ORCA TERMINATED NORMALLY****
TOTAL RUN TIME: 0 days 0 hours 0 minutes 35 seconds 11 msec
