                         Program Version 4.2.1 -  RELEASE  -
|  1> ! wB97X-D3 SP def2-SVP
|  2> %pal
|  3> nprocs 16
|  4> end
|  5>
|  6> * xyz 0 1
|  7> S 	 -11.893 	 -11.8138 	 89.2187
|  8> C 	 -12.7075 	 -10.8283 	 88.0673
|  9> C 	 -13.8507 	 -10.3076 	 88.5517
| 10> C 	 -14.0478 	 -10.6966 	 89.9259
| 11> C 	 -13.1057 	 -11.5631 	 90.4781
| 12> H 	 -14.9335 	 -10.5898 	 90.5064
| 13> C 	 -14.8273 	 -9.44953 	 87.7765
| 14> H 	 -15.8467 	 -9.59129 	 88.1132
| 15> H 	 -14.9096 	 -9.67385 	 86.7492
| 16> C 	 -14.4397 	 -7.94478 	 87.7872
| 17> H 	 -14.2019 	 -7.59021 	 88.8825
| 18> H 	 -13.4881 	 -7.88776 	 87.2726
| 19> C 	 -15.4139 	 -7.11218 	 87.0795
| 20> H 	 -16.2505 	 -6.97107 	 87.7704
| 21> H 	 -14.8887 	 -6.16862 	 86.8356
| 22> H 	 -15.8211 	 -7.60674 	 86.1803
| 23> S 	 -11.6597 	 -11.9014 	 92.7866
| 24> C 	 -12.2882 	 -13.0362 	 93.944
| 25> C 	 -13.4728 	 -13.6129 	 93.5848
| 26> C 	 -13.9625 	 -13.1046 	 92.3552
| 27> C 	 -13.0672 	 -12.2086 	 91.7751
| 28> H 	 -13.9675 	 -14.403 	 94.1627
| 29> C 	 -15.1711 	 -13.5725 	 91.6361
| 30> H 	 -15.6553 	 -12.8087 	 91.0078
| 31> H 	 -16.0153 	 -13.7622 	 92.3525
| 32> C 	 -14.9515 	 -14.7093 	 90.6478
| 33> H 	 -14.2319 	 -14.3943 	 89.871
| 34> H 	 -15.8567 	 -14.9507 	 90.1764
| 35> C 	 -14.4726 	 -15.8988 	 91.4199
| 36> H 	 -13.5123 	 -15.5759 	 91.8671
| 37> H 	 -14.2302 	 -16.7898 	 90.816
| 38> H 	 -15.1333 	 -16.1952 	 92.2562
| 39> H 	 -12.4052 	 -10.7107 	 87.0146
| 40> H 	 -11.7774 	 -13.3264 	 94.8502
| 41> *
| 42>
| 43>                          ****END OF INPUT****

CARTESIAN COORDINATES (ANGSTROEM)
---------------------------------
  S    -11.893000  -11.813800   89.218700
  C    -12.707500  -10.828300   88.067300
  C    -13.850700  -10.307600   88.551700
  C    -14.047800  -10.696600   89.925900
  C    -13.105700  -11.563100   90.478100
  H    -14.933500  -10.589800   90.506400
  C    -14.827300   -9.449530   87.776500
  H    -15.846700   -9.591290   88.113200
  H    -14.909600   -9.673850   86.749200
  C    -14.439700   -7.944780   87.787200
  H    -14.201900   -7.590210   88.882500
  H    -13.488100   -7.887760   87.272600
  C    -15.413900   -7.112180   87.079500
  H    -16.250500   -6.971070   87.770400
  H    -14.888700   -6.168620   86.835600
  H    -15.821100   -7.606740   86.180300
  S    -11.659700  -11.901400   92.786600
  C    -12.288200  -13.036200   93.944000
  C    -13.472800  -13.612900   93.584800
  C    -13.962500  -13.104600   92.355200
  C    -13.067200  -12.208600   91.775100
  H    -13.967500  -14.403000   94.162700
  C    -15.171100  -13.572500   91.636100
  H    -15.655300  -12.808700   91.007800
  H    -16.015300  -13.762200   92.352500
  C    -14.951500  -14.709300   90.647800
  H    -14.231900  -14.394300   89.871000
  H    -15.856700  -14.950700   90.176400
  C    -14.472600  -15.898800   91.419900
  H    -13.512300  -15.575900   91.867100
  H    -14.230200  -16.789800   90.816000
  H    -15.133300  -16.195200   92.256200
  H    -12.405200  -10.710700   87.014600
  H    -11.777400  -13.326400   94.850200

 Total Charge           Charge          ....    0
 Multiplicity           Mult            ....    1
 Number of Electrons    NEL             ....  134
 Basis Dimension        Dim             ....  322

ORBITAL ENERGIES
----------------

  NO   OCC          E(Eh)            E(eV)
   0   2.0000     -88.969561     -2420.9848
   1   2.0000     -88.962622     -2420.7960
   2   2.0000     -10.329229      -281.0726
   3   2.0000     -10.326629      -281.0019
   4   2.0000     -10.316113      -280.7157
   5   2.0000     -10.311061      -280.5782
   6   2.0000     -10.303107      -280.3618
   7   2.0000     -10.298824      -280.2453
   8   2.0000     -10.295127      -280.1446
   9   2.0000     -10.292207      -280.0652
  10   2.0000     -10.289278      -279.9855
  11   2.0000     -10.288288      -279.9585
  12   2.0000     -10.286876      -279.9201
  13   2.0000     -10.278270      -279.6859
  14   2.0000     -10.276861      -279.6476
  15   2.0000     -10.271326      -279.4970
  16   2.0000      -8.084314      -219.9854
  17   2.0000      -8.077684      -219.8049
  18   2.0000      -6.042691      -164.4300
  19   2.0000      -6.038912      -164.3271
  20   2.0000      -6.036270      -164.2553
  21   2.0000      -6.035125      -164.2241
  22   2.0000      -6.031951      -164.1377
  23   2.0000      -6.028521      -164.0444
  24   2.0000      -1.009350       -27.4658
  25   2.0000      -0.988954       -26.9108
  26   2.0000      -0.917607       -24.9694
  27   2.0000      -0.917099       -24.9555
  28   2.0000      -0.875522       -23.8242
  29   2.0000      -0.851626       -23.1739
  30   2.0000      -0.847562       -23.0633
  31   2.0000      -0.816145       -22.2084
  32   2.0000      -0.783328       -21.3154
  33   2.0000      -0.770712       -20.9721
  34   2.0000      -0.709504       -19.3066
  35   2.0000      -0.690664       -18.7939
  36   2.0000      -0.688210       -18.7272
  37   2.0000      -0.664198       -18.0738
  38   2.0000      -0.646050       -17.5799
  39   2.0000      -0.618558       -16.8318
  40   2.0000      -0.600965       -16.3531
  41   2.0000      -0.573259       -15.5992
  42   2.0000      -0.562910       -15.3176
  43   2.0000      -0.554483       -15.0883
  44   2.0000      -0.546643       -14.8749
  45   2.0000      -0.529091       -14.3973
  46   2.0000      -0.517566       -14.0837
  47   2.0000      -0.513313       -13.9680
  48   2.0000      -0.504363       -13.7244
  49   2.0000      -0.499115       -13.5816
  50   2.0000      -0.486141       -13.2286
  51   2.0000      -0.480204       -13.0670
  52   2.0000      -0.474447       -12.9104
  53   2.0000      -0.464465       -12.6387
  54   2.0000      -0.462530       -12.5861
  55   2.0000      -0.449564       -12.2333
  56   2.0000      -0.444404       -12.0928
  57   2.0000      -0.434016       -11.8102
  58   2.0000      -0.431688       -11.7468
  59   2.0000      -0.421314       -11.4645
  60   2.0000      -0.418867       -11.3979
  61   2.0000      -0.413021       -11.2389
  62   2.0000      -0.409332       -11.1385
  63   2.0000      -0.343001        -9.3335
  64   2.0000      -0.335868        -9.1394
  65   2.0000      -0.327327        -8.9070
  66   2.0000      -0.297199        -8.0872
  67   0.0000       0.033848         0.9210
  68   0.0000       0.065570         1.7843
  69   0.0000       0.116018         3.1570
  70   0.0000       0.120735         3.2854
  71   0.0000       0.129995         3.5374

MULLIKEN ATOMIC CHARGES
-----------------------
   0 S :    0.106982
   1 C :   -0.125110
   2 C :   -0.072678
   3 C :    0.063017
   4 C :   -0.181793
   5 H :    0.000243
   6 C :    0.084468
   7 H :    0.012983
   8 H :    0.002226
   9 C :   -0.124983
  10 H :    0.046008
  11 H :    0.017837
  12 C :   -0.012390
  13 H :    0.032662
  14 H :    0.044643
  15 H :    0.028612
  16 S :    0.127662
  17 C :   -0.079790
  18 C :   -0.039812
  19 C :   -0.011396
  20 C :   -0.184985
  21 H :    0.026159
  22 C :    0.023525
  23 H :    0.016216
  24 H :    0.027918
  25 C :   -0.011305
  26 H :    0.040740
  27 H :    0.013614
  28 C :   -0.080894
  29 H :    0.040325
  30 H :    0.034673
  31 H :    0.026816
  32 H :    0.055593
  33 H :    0.052212
Sum of atomic charges:    0.0000000

LOEWDIN ATOMIC CHARGES
----------------------
   0 S :    0.404689
   1 C :   -0.202758
   2 C :   -0.067997
   3 C :   -0.057686
   4 C :   -0.196218
   5 H :    0.023125
   6 C :   -0.028891
   7 H :    0.026036
   8 H :    0.021896
   9 C :   -0.048177
  10 H :    0.033836
  11 H :    0.017470
  12 C :   -0.067886
  13 H :    0.027861
  14 H :    0.034388
  15 H :    0.026485
  16 S :    0.415061
  17 C :   -0.183997
  18 C :   -0.071460
  19 C :   -0.052389
  20 C :   -0.198787
  21 H :    0.037417
  22 C :   -0.041361
  23 H :    0.032182
  24 H :    0.033699
  25 C :   -0.031424
  26 H :    0.031552
  27 H :    0.015602
  28 C :   -0.073386
  29 H :    0.029133
  30 H :    0.024395
  31 H :    0.023057
  32 H :    0.036434
  33 H :    0.028099

  Mayer bond orders larger than 0.100000
B(  0-S ,  1-C ) :   1.1435 B(  0-S ,  4-C ) :   1.1397 B(  1-C ,  2-C ) :   1.6245
B(  1-C , 32-H ) :   0.9617 B(  2-C ,  3-C ) :   1.2328 B(  2-C ,  6-C ) :   1.0264
B(  3-C ,  4-C ) :   1.5892 B(  3-C ,  5-H ) :   0.9939 B(  4-C , 20-C ) :   1.0414
B(  6-C ,  7-H ) :   0.9433 B(  6-C ,  8-H ) :   0.9357 B(  6-C ,  9-C ) :   1.0553
B(  9-C , 10-H ) :   0.9545 B(  9-C , 11-H ) :   0.9561 B(  9-C , 12-C ) :   1.0847
B( 12-C , 13-H ) :   0.9724 B( 12-C , 14-H ) :   0.9706 B( 12-C , 15-H ) :   0.9671
B( 16-S , 17-C ) :   1.1548 B( 16-S , 20-C ) :   1.1501 B( 17-C , 18-C ) :   1.6105
B( 17-C , 33-H ) :   0.9647 B( 18-C , 19-C ) :   1.2447 B( 18-C , 21-H ) :   0.9874
B( 19-C , 20-C ) :   1.5829 B( 19-C , 22-C ) :   1.0592 B( 22-C , 23-H ) :   0.9244
B( 22-C , 24-H ) :   0.9311 B( 22-C , 25-C ) :   1.0773 B( 25-C , 26-H ) :   0.9504
B( 25-C , 27-H ) :   0.9497 B( 25-C , 28-C ) :   1.0819 B( 28-C , 29-H ) :   0.9702
B( 28-C , 30-H ) :   0.9706 B( 28-C , 31-H ) :   0.9720

Dispersion correction           -0.014813300
FINAL SINGLE POINT ENERGY     -1339.887404426507

DIPOLE MOMENT
-------------
                                X             Y             Z
Electronic contribution:     19.00844      -2.33631      11.13105
Nuclear contribution   :    -19.57337       2.28197     -11.32386
                        -----------------------------------------
Total Dipole Moment    :     -0.56493      -0.05433      -0.19281
                        -----------------------------------------
Magnitude (a.u.)       :      0.59940
Magnitude (Debye)      :      1.52354

Rotational constants in cm-1:     0.023270     0.007437     0.006745
Rotational constants in MHz :   697.610062   222.952076   202.223417

                             ****ORCA TERMINATED NORMALLY****
TOTAL RUN TIME: 0 days 0 hours 0 minutes 34 seconds 398 msec
