                         Program Version 4.2.1 -  RELEASE  -
|  1> ! wB97X-D3 SP def2-SVP
|  2> %pal
|  3> nprocs 16
|  4> end
|  5>
|  6> * xyz 0 1
|  7> S 	 3.23599 	 27.3256 	 67.1843
|  8> C 	 2.55813 	 25.8828 	 66.5978
|  9> C 	 3.02065 	 25.4433 	 65.3928
| 10> C 	 4.04388 	 26.2915 	 64.9233
| 11> C 	 4.41534 	 27.2564 	 65.824
| 12> H 	 4.64287 	 26.1814 	 64.0648
| 13> C 	 2.65293 	 24.0831 	 64.7684
| 14> H 	 2.17725 	 23.5111 	 65.4988
| 15> H 	 3.55387 	 23.5286 	 64.5895
| 16> C 	 1.90072 	 24.112 	 63.4241
| 17> H 	 1.06496 	 24.7733 	 63.5083
| 18> H 	 2.635 	 24.5087 	 62.6724
| 19> C 	 1.32424 	 22.7921 	 62.8934
| 20> H 	 2.08884 	 21.9922 	 62.8453
| 21> H 	 0.48804 	 22.5783 	 63.4638
| 22> H 	 0.842173 	 22.9016 	 61.9643
| 23> S 	 4.52069 	 29.6888 	 64.5861
| 24> C 	 5.95655 	 30.6959 	 64.494
| 25> C 	 7.02683 	 29.8235 	 64.8812
| 26> C 	 6.63333 	 28.5293 	 65.3817
| 27> C 	 5.27431 	 28.3477 	 65.4454
| 28> H 	 7.97603 	 30.2855 	 64.8552
| 29> C 	 7.67097 	 27.4829 	 65.7774
| 30> H 	 7.26369 	 26.9038 	 66.6764
| 31> H 	 8.62096 	 27.9184 	 66.023
| 32> C 	 8.01078 	 26.4045 	 64.7456
| 33> H 	 8.51544 	 26.9405 	 63.9622
| 34> H 	 7.14374 	 25.9936 	 64.2995
| 35> C 	 8.95239 	 25.3506 	 65.2723
| 36> H 	 8.50218 	 24.797 	 66.1845
| 37> H 	 10.0084 	 25.7023 	 65.5323
| 38> H 	 9.12313 	 24.6463 	 64.5475
| 39> H 	 1.7896 	 25.4414 	 67.1631
| 40> H 	 6.0877 	 31.6386 	 64.0219
| 41> *
| 42>
| 43>                          ****END OF INPUT****

CARTESIAN COORDINATES (ANGSTROEM)
---------------------------------
  S      3.235990   27.325600   67.184300
  C      2.558130   25.882800   66.597800
  C      3.020650   25.443300   65.392800
  C      4.043880   26.291500   64.923300
  C      4.415340   27.256400   65.824000
  H      4.642870   26.181400   64.064800
  C      2.652930   24.083100   64.768400
  H      2.177250   23.511100   65.498800
  H      3.553870   23.528600   64.589500
  C      1.900720   24.112000   63.424100
  H      1.064960   24.773300   63.508300
  H      2.635000   24.508700   62.672400
  C      1.324240   22.792100   62.893400
  H      2.088840   21.992200   62.845300
  H      0.488040   22.578300   63.463800
  H      0.842173   22.901600   61.964300
  S      4.520690   29.688800   64.586100
  C      5.956550   30.695900   64.494000
  C      7.026830   29.823500   64.881200
  C      6.633330   28.529300   65.381700
  C      5.274310   28.347700   65.445400
  H      7.976030   30.285500   64.855200
  C      7.670970   27.482900   65.777400
  H      7.263690   26.903800   66.676400
  H      8.620960   27.918400   66.023000
  C      8.010780   26.404500   64.745600
  H      8.515440   26.940500   63.962200
  H      7.143740   25.993600   64.299500
  C      8.952390   25.350600   65.272300
  H      8.502180   24.797000   66.184500
  H     10.008400   25.702300   65.532300
  H      9.123130   24.646300   64.547500
  H      1.789600   25.441400   67.163100
  H      6.087700   31.638600   64.021900

 Total Charge           Charge          ....    0
 Multiplicity           Mult            ....    1
 Number of Electrons    NEL             ....  134
 Basis Dimension        Dim             ....  322

ORBITAL ENERGIES
----------------

  NO   OCC          E(Eh)            E(eV)
   0   2.0000     -88.967773     -2420.9362
   1   2.0000     -88.958314     -2420.6788
   2   2.0000     -10.327122      -281.0153
   3   2.0000     -10.322603      -280.8923
   4   2.0000     -10.319578      -280.8100
   5   2.0000     -10.310445      -280.5615
   6   2.0000     -10.304168      -280.3907
   7   2.0000     -10.300223      -280.2833
   8   2.0000     -10.294339      -280.1232
   9   2.0000     -10.293084      -280.0891
  10   2.0000     -10.289837      -280.0007
  11   2.0000     -10.288790      -279.9722
  12   2.0000     -10.287456      -279.9359
  13   2.0000     -10.280996      -279.7601
  14   2.0000     -10.277475      -279.6643
  15   2.0000     -10.272436      -279.5272
  16   2.0000      -8.083006      -219.9498
  17   2.0000      -8.072809      -219.6723
  18   2.0000      -6.041306      -164.3923
  19   2.0000      -6.037554      -164.2902
  20   2.0000      -6.033831      -164.1889
  21   2.0000      -6.031369      -164.1219
  22   2.0000      -6.027197      -164.0084
  23   2.0000      -6.023633      -163.9114
  24   2.0000      -1.009634       -27.4735
  25   2.0000      -0.983330       -26.7578
  26   2.0000      -0.909909       -24.7599
  27   2.0000      -0.908607       -24.7245
  28   2.0000      -0.874988       -23.8096
  29   2.0000      -0.857305       -23.3285
  30   2.0000      -0.845813       -23.0157
  31   2.0000      -0.815606       -22.1938
  32   2.0000      -0.784297       -21.3418
  33   2.0000      -0.772189       -21.0123
  34   2.0000      -0.709257       -19.2999
  35   2.0000      -0.697485       -18.9795
  36   2.0000      -0.691866       -18.8266
  37   2.0000      -0.663703       -18.0603
  38   2.0000      -0.657688       -17.8966
  39   2.0000      -0.620548       -16.8860
  40   2.0000      -0.590415       -16.0660
  41   2.0000      -0.578125       -15.7316
  42   2.0000      -0.570082       -15.5127
  43   2.0000      -0.561019       -15.2661
  44   2.0000      -0.525094       -14.2885
  45   2.0000      -0.522032       -14.2052
  46   2.0000      -0.518948       -14.1213
  47   2.0000      -0.514207       -13.9923
  48   2.0000      -0.510629       -13.8949
  49   2.0000      -0.501948       -13.6587
  50   2.0000      -0.493797       -13.4369
  51   2.0000      -0.480896       -13.0858
  52   2.0000      -0.477180       -12.9847
  53   2.0000      -0.468186       -12.7400
  54   2.0000      -0.461613       -12.5611
  55   2.0000      -0.450262       -12.2523
  56   2.0000      -0.440026       -11.9737
  57   2.0000      -0.433924       -11.8077
  58   2.0000      -0.429984       -11.7004
  59   2.0000      -0.426145       -11.5960
  60   2.0000      -0.419821       -11.4239
  61   2.0000      -0.414950       -11.2914
  62   2.0000      -0.408727       -11.1220
  63   2.0000      -0.344057        -9.3623
  64   2.0000      -0.320916        -8.7326
  65   2.0000      -0.318350        -8.6627
  66   2.0000      -0.311587        -8.4787
  67   0.0000       0.037210         1.0125
  68   0.0000       0.049126         1.3368
  69   0.0000       0.113459         3.0874
  70   0.0000       0.121058         3.2942
  71   0.0000       0.125792         3.4230

MULLIKEN ATOMIC CHARGES
-----------------------
   0 S :    0.121103
   1 C :   -0.109117
   2 C :   -0.040756
   3 C :    0.041723
   4 C :   -0.175187
   5 H :    0.008129
   6 C :    0.110864
   7 H :   -0.006732
   8 H :    0.019827
   9 C :   -0.105278
  10 H :    0.024643
  11 H :    0.034810
  12 C :    0.002586
  13 H :    0.037423
  14 H :    0.009015
  15 H :    0.018838
  16 S :    0.097891
  17 C :   -0.093159
  18 C :   -0.048458
  19 C :    0.004828
  20 C :   -0.171182
  21 H :    0.007443
  22 C :    0.045002
  23 H :    0.035498
  24 H :    0.009993
  25 C :   -0.034264
  26 H :    0.012540
  27 H :    0.009551
  28 C :   -0.049990
  29 H :    0.041180
  30 H :    0.037460
  31 H :    0.014993
  32 H :    0.031369
  33 H :    0.057413
Sum of atomic charges:    0.0000000

LOEWDIN ATOMIC CHARGES
----------------------
   0 S :    0.411536
   1 C :   -0.185080
   2 C :   -0.065906
   3 C :   -0.034075
   4 C :   -0.194028
   5 H :    0.026096
   6 C :   -0.023024
   7 H :    0.018445
   8 H :    0.029370
   9 C :   -0.038787
  10 H :    0.020151
  11 H :    0.026167
  12 C :   -0.059287
  13 H :    0.028180
  14 H :    0.017566
  15 H :    0.025134
  16 S :    0.401387
  17 C :   -0.185216
  18 C :   -0.071081
  19 C :   -0.058823
  20 C :   -0.197896
  21 H :    0.021560
  22 C :   -0.030568
  23 H :    0.036862
  24 H :    0.024260
  25 C :   -0.038594
  26 H :    0.021772
  27 H :    0.015183
  28 C :   -0.066299
  29 H :    0.034249
  30 H :    0.032905
  31 H :    0.013333
  32 H :    0.016347
  33 H :    0.028161

  Mayer bond orders larger than 0.100000
B(  0-S ,  1-C ) :   1.1711 B(  0-S ,  4-C ) :   1.1279 B(  1-C ,  2-C ) :   1.6031
B(  1-C , 32-H ) :   0.9695 B(  2-C ,  3-C ) :   1.2282 B(  2-C ,  6-C ) :   1.0217
B(  3-C ,  4-C ) :   1.5957 B(  3-C ,  5-H ) :   0.9991 B(  4-C , 20-C ) :   1.0333
B(  6-C ,  7-H ) :   0.9406 B(  6-C ,  8-H ) :   0.9388 B(  6-C ,  9-C ) :   1.0516
B(  9-C , 10-H ) :   0.9596 B(  9-C , 11-H ) :   0.9582 B(  9-C , 12-C ) :   1.0952
B( 12-C , 13-H ) :   0.9745 B( 12-C , 14-H ) :   0.9703 B( 12-C , 15-H ) :   0.9680
B( 16-S , 17-C ) :   1.1638 B( 16-S , 20-C ) :   1.1444 B( 17-C , 18-C ) :   1.5805
B( 17-C , 20-C ) :   0.1103 B( 17-C , 33-H ) :   0.9736 B( 18-C , 19-C ) :   1.2429
B( 18-C , 21-H ) :   0.9980 B( 19-C , 20-C ) :   1.5865 B( 19-C , 22-C ) :   1.0522
B( 22-C , 23-H ) :   0.9346 B( 22-C , 24-H ) :   0.9373 B( 22-C , 25-C ) :   1.0706
B( 25-C , 26-H ) :   0.9455 B( 25-C , 27-H ) :   0.9507 B( 25-C , 28-C ) :   1.0954
B( 28-C , 29-H ) :   0.9713 B( 28-C , 30-H ) :   0.9711 B( 28-C , 31-H ) :   0.9697

Dispersion correction           -0.013812207
FINAL SINGLE POINT ENERGY     -1339.854683223824

DIPOLE MOMENT
-------------
                                X             Y             Z
Electronic contribution:     -7.39764      24.01763      10.44489
Nuclear contribution   :      7.54641     -24.55903     -10.79575
                        -----------------------------------------
Total Dipole Moment    :      0.14877      -0.54140      -0.35086
                        -----------------------------------------
Magnitude (a.u.)       :      0.66208
Magnitude (Debye)      :      1.68286

Rotational constants in cm-1:     0.016985     0.008172     0.006880
Rotational constants in MHz :   509.186438   244.979160   206.267897

                             ****ORCA TERMINATED NORMALLY****
TOTAL RUN TIME: 0 days 0 hours 0 minutes 32 seconds 431 msec
