                         Program Version 4.2.1 -  RELEASE  -
|  1> ! wB97X-D3 SP def2-SVP
|  2> %pal
|  3> nprocs 16
|  4> end
|  5>
|  6> * xyz 0 1
|  7> S 	 69.0109 	 19.2479 	 77.6989
|  8> C 	 67.7865 	 17.987 	 77.6439
|  9> C 	 66.6406 	 18.3458 	 76.9562
| 10> C 	 66.7536 	 19.7204 	 76.5221
| 11> C 	 67.964 	 20.3061 	 76.8126
| 12> H 	 66.0754 	 20.2867 	 75.8928
| 13> C 	 65.4418 	 17.4872 	 76.5815
| 14> H 	 65.5878 	 16.4226 	 76.5588
| 15> H 	 65.1749 	 17.6794 	 75.5778
| 16> C 	 64.2192 	 17.8324 	 77.5501
| 17> H 	 64.4878 	 17.4117 	 78.6086
| 18> H 	 64.0881 	 18.9105 	 77.5871
| 19> C 	 62.9213 	 17.2255 	 76.9843
| 20> H 	 62.8511 	 17.6312 	 76.008
| 21> H 	 63.0376 	 16.1665 	 76.9554
| 22> H 	 61.994 	 17.4375 	 77.5597
| 23> S 	 67.3309 	 22.8793 	 77.008
| 24> C 	 68.2371 	 24.0472 	 76.1489
| 25> C 	 69.4383 	 23.625 	 75.6437
| 26> C 	 69.557 	 22.1883 	 75.849
| 27> C 	 68.3925 	 21.6297 	 76.4043
| 28> H 	 70.0874 	 24.2894 	 75.1007
| 29> C 	 70.7428 	 21.448 	 75.2584
| 30> H 	 70.9141 	 20.713 	 76.0165
| 31> H 	 71.6555 	 22.1265 	 75.3087
| 32> C 	 70.4137 	 20.8922 	 73.9251
| 33> H 	 69.5748 	 20.2013 	 74.0666
| 34> H 	 71.273 	 20.4742 	 73.4175
| 35> C 	 69.8568 	 21.8786 	 72.8025
| 36> H 	 70.4247 	 22.7513 	 72.8433
| 37> H 	 68.847 	 22.192 	 73.0972
| 38> H 	 69.871 	 21.2723 	 71.8271
| 39> H 	 67.8839 	 16.9769 	 78.1654
| 40> H 	 67.9304 	 25.0423 	 76.036
| 41> *
| 42>
| 43>                          ****END OF INPUT****

CARTESIAN COORDINATES (ANGSTROEM)
---------------------------------
  S     69.010900   19.247900   77.698900
  C     67.786500   17.987000   77.643900
  C     66.640600   18.345800   76.956200
  C     66.753600   19.720400   76.522100
  C     67.964000   20.306100   76.812600
  H     66.075400   20.286700   75.892800
  C     65.441800   17.487200   76.581500
  H     65.587800   16.422600   76.558800
  H     65.174900   17.679400   75.577800
  C     64.219200   17.832400   77.550100
  H     64.487800   17.411700   78.608600
  H     64.088100   18.910500   77.587100
  C     62.921300   17.225500   76.984300
  H     62.851100   17.631200   76.008000
  H     63.037600   16.166500   76.955400
  H     61.994000   17.437500   77.559700
  S     67.330900   22.879300   77.008000
  C     68.237100   24.047200   76.148900
  C     69.438300   23.625000   75.643700
  C     69.557000   22.188300   75.849000
  C     68.392500   21.629700   76.404300
  H     70.087400   24.289400   75.100700
  C     70.742800   21.448000   75.258400
  H     70.914100   20.713000   76.016500
  H     71.655500   22.126500   75.308700
  C     70.413700   20.892200   73.925100
  H     69.574800   20.201300   74.066600
  H     71.273000   20.474200   73.417500
  C     69.856800   21.878600   72.802500
  H     70.424700   22.751300   72.843300
  H     68.847000   22.192000   73.097200
  H     69.871000   21.272300   71.827100
  H     67.883900   16.976900   78.165400
  H     67.930400   25.042300   76.036000

 Total Charge           Charge          ....    0
 Multiplicity           Mult            ....    1
 Number of Electrons    NEL             ....  134
 Basis Dimension        Dim             ....  322

ORBITAL ENERGIES
----------------

  NO   OCC          E(Eh)            E(eV)
   0   2.0000     -88.967861     -2420.9386
   1   2.0000     -88.964605     -2420.8500
   2   2.0000     -10.326884      -281.0088
   3   2.0000     -10.324691      -280.9491
   4   2.0000     -10.319991      -280.8212
   5   2.0000     -10.307282      -280.4754
   6   2.0000     -10.306613      -280.4572
   7   2.0000     -10.306163      -280.4449
   8   2.0000     -10.297405      -280.2066
   9   2.0000     -10.295076      -280.1432
  10   2.0000     -10.294595      -280.1302
  11   2.0000     -10.292783      -280.0809
  12   2.0000     -10.288898      -279.9751
  13   2.0000     -10.281125      -279.7636
  14   2.0000     -10.276798      -279.6459
  15   2.0000     -10.275841      -279.6199
  16   2.0000      -8.082547      -219.9373
  17   2.0000      -8.080209      -219.8737
  18   2.0000      -6.041058      -164.3855
  19   2.0000      -6.038665      -164.3204
  20   2.0000      -6.037074      -164.2771
  21   2.0000      -6.034659      -164.2114
  22   2.0000      -6.033317      -164.1749
  23   2.0000      -6.030919      -164.1097
  24   2.0000      -1.009776       -27.4774
  25   2.0000      -0.985273       -26.8106
  26   2.0000      -0.911843       -24.8125
  27   2.0000      -0.908447       -24.7201
  28   2.0000      -0.870585       -23.6898
  29   2.0000      -0.850609       -23.1462
  30   2.0000      -0.839618       -22.8472
  31   2.0000      -0.812897       -22.1200
  32   2.0000      -0.785378       -21.3712
  33   2.0000      -0.771493       -20.9934
  34   2.0000      -0.704177       -19.1616
  35   2.0000      -0.695859       -18.9353
  36   2.0000      -0.682822       -18.5805
  37   2.0000      -0.667193       -18.1552
  38   2.0000      -0.639677       -17.4065
  39   2.0000      -0.618935       -16.8421
  40   2.0000      -0.590034       -16.0556
  41   2.0000      -0.569119       -15.4865
  42   2.0000      -0.563120       -15.3233
  43   2.0000      -0.554528       -15.0895
  44   2.0000      -0.549782       -14.9603
  45   2.0000      -0.521129       -14.1806
  46   2.0000      -0.518712       -14.1149
  47   2.0000      -0.509145       -13.8546
  48   2.0000      -0.505504       -13.7555
  49   2.0000      -0.497484       -13.5372
  50   2.0000      -0.482257       -13.1229
  51   2.0000      -0.472242       -12.8503
  52   2.0000      -0.467594       -12.7239
  53   2.0000      -0.466426       -12.6921
  54   2.0000      -0.461542       -12.5592
  55   2.0000      -0.451073       -12.2743
  56   2.0000      -0.447900       -12.1880
  57   2.0000      -0.441238       -12.0067
  58   2.0000      -0.433010       -11.7828
  59   2.0000      -0.427722       -11.6389
  60   2.0000      -0.425350       -11.5744
  61   2.0000      -0.417197       -11.3525
  62   2.0000      -0.394377       -10.7315
  63   2.0000      -0.343493        -9.3469
  64   2.0000      -0.333769        -9.0823
  65   2.0000      -0.328760        -8.9460
  66   2.0000      -0.292442        -7.9578
  67   0.0000       0.031474         0.8564
  68   0.0000       0.077451         2.1075
  69   0.0000       0.104670         2.8482
  70   0.0000       0.108352         2.9484
  71   0.0000       0.128714         3.5025

MULLIKEN ATOMIC CHARGES
-----------------------
   0 S :    0.120865
   1 C :   -0.153837
   2 C :   -0.050958
   3 C :    0.010543
   4 C :   -0.140643
   5 H :    0.012580
   6 C :    0.073850
   7 H :    0.018843
   8 H :    0.012895
   9 C :   -0.126218
  10 H :    0.047269
  11 H :    0.038720
  12 C :   -0.019140
  13 H :    0.021930
  14 H :    0.023307
  15 H :    0.045392
  16 S :    0.119503
  17 C :   -0.058438
  18 C :   -0.040155
  19 C :   -0.082518
  20 C :   -0.181022
  21 H :    0.017918
  22 C :    0.099606
  23 H :    0.013133
  24 H :    0.030252
  25 C :   -0.066185
  26 H :    0.038663
  27 H :    0.032336
  28 C :   -0.069143
  29 H :    0.013780
  30 H :    0.041348
  31 H :    0.057051
  32 H :    0.068806
  33 H :    0.029666
Sum of atomic charges:   -0.0000000

LOEWDIN ATOMIC CHARGES
----------------------
   0 S :    0.410813
   1 C :   -0.206118
   2 C :   -0.058621
   3 C :   -0.064538
   4 C :   -0.207839
   5 H :    0.029538
   6 C :   -0.025845
   7 H :    0.027427
   8 H :    0.023917
   9 C :   -0.036496
  10 H :    0.032326
  11 H :    0.021123
  12 C :   -0.065058
  13 H :    0.020221
  14 H :    0.019772
  15 H :    0.031279
  16 S :    0.429903
  17 C :   -0.185072
  18 C :   -0.068814
  19 C :   -0.049449
  20 C :   -0.206415
  21 H :    0.031479
  22 C :   -0.040257
  23 H :    0.022030
  24 H :    0.035730
  25 C :   -0.039602
  26 H :    0.030515
  27 H :    0.022285
  28 C :   -0.064200
  29 H :    0.008808
  30 H :    0.024989
  31 H :    0.039636
  32 H :    0.041715
  33 H :    0.014817

  Mayer bond orders larger than 0.100000
B(  0-S ,  1-C ) :   1.1329 B(  0-S ,  4-C ) :   1.1392 B(  1-C ,  2-C ) :   1.6401
B(  1-C , 32-H ) :   0.9558 B(  2-C ,  3-C ) :   1.2118 B(  2-C ,  6-C ) :   1.0247
B(  3-C ,  4-C ) :   1.5893 B(  3-C ,  5-H ) :   0.9904 B(  4-C , 20-C ) :   1.0448
B(  6-C ,  7-H ) :   0.9461 B(  6-C ,  8-H ) :   0.9433 B(  6-C ,  9-C ) :   1.0412
B(  9-C , 10-H ) :   0.9570 B(  9-C , 11-H ) :   0.9652 B(  9-C , 12-C ) :   1.0698
B( 12-C , 13-H ) :   0.9753 B( 12-C , 14-H ) :   0.9748 B( 12-C , 15-H ) :   0.9742
B( 16-S , 17-C ) :   1.1612 B( 16-S , 20-C ) :   1.1488 B( 17-C , 18-C ) :   1.6244
B( 17-C , 33-H ) :   0.9699 B( 18-C , 19-C ) :   1.2142 B( 18-C , 21-H ) :   0.9956
B( 19-C , 20-C ) :   1.5889 B( 19-C , 22-C ) :   1.0295 B( 22-C , 23-H ) :   0.9244
B( 22-C , 24-H ) :   0.9326 B( 22-C , 25-C ) :   1.0842 B( 25-C , 26-H ) :   0.9535
B( 25-C , 27-H ) :   0.9597 B( 25-C , 28-C ) :   1.0710 B( 28-C , 29-H ) :   0.9764
B( 28-C , 30-H ) :   0.9718 B( 28-C , 31-H ) :   0.9757

Dispersion correction           -0.014822184
FINAL SINGLE POINT ENERGY     -1339.868674133292

DIPOLE MOMENT
-------------
                                X             Y             Z
Electronic contribution:      8.30818       9.97328      12.85857
Nuclear contribution   :     -8.46775     -10.12239     -13.20201
                        -----------------------------------------
Total Dipole Moment    :     -0.15958      -0.14911      -0.34344
                        -----------------------------------------
Magnitude (a.u.)       :      0.40700
Magnitude (Debye)      :      1.03452

Rotational constants in cm-1:     0.022021     0.007582     0.006968
Rotational constants in MHz :   660.161049   227.312386   208.905374

                             ****ORCA TERMINATED NORMALLY****
TOTAL RUN TIME: 0 days 0 hours 0 minutes 32 seconds 330 msec
