                         Program Version 4.2.1 -  RELEASE  -
|  1> ! wB97X-D3 SP def2-SVP
|  2> %pal
|  3> nprocs 16
|  4> end
|  5>
|  6> * xyz 0 1
|  7> S 	 3.65702 	 8.98567 	 81.6447
|  8> C 	 4.67493 	 8.03828 	 80.6013
|  9> C 	 6.08546 	 8.18081 	 80.8873
| 10> C 	 6.20919 	 9.0604 	 81.9896
| 11> C 	 5.01121 	 9.43085 	 82.5785
| 12> H 	 7.21525 	 9.31475 	 82.4226
| 13> C 	 7.20926 	 7.79141 	 79.9949
| 14> H 	 7.64998 	 8.63271 	 79.4799
| 15> H 	 6.78391 	 7.29316 	 79.1888
| 16> C 	 8.34429 	 6.94391 	 80.6735
| 17> H 	 9.03484 	 7.61535 	 81.0807
| 18> H 	 7.84984 	 6.3786 	 81.4825
| 19> C 	 9.19145 	 6.16518 	 79.6264
| 20> H 	 9.57445 	 6.75027 	 78.7793
| 21> H 	 10.0567 	 5.69091 	 80.0395
| 22> H 	 8.62681 	 5.35283 	 79.0934
| 23> S 	 4.41079 	 12.0054 	 83.3119
| 24> C 	 4.70551 	 12.5304 	 84.9776
| 25> C 	 5.1134 	 11.497 	 85.762
| 26> C 	 5.32318 	 10.2915 	 84.9901
| 27> C 	 4.89489 	 10.3078 	 83.6622
| 28> H 	 5.25176 	 11.6757 	 86.8315
| 29> C 	 5.91669 	 9.05142 	 85.6631
| 30> H 	 6.05764 	 8.33791 	 84.8964
| 31> H 	 5.18299 	 8.71078 	 86.4271
| 32> C 	 7.17071 	 9.27251 	 86.4847
| 33> H 	 7.35304 	 8.36673 	 87.0342
| 34> H 	 6.94425 	 9.99997 	 87.2759
| 35> C 	 8.4463 	 9.68913 	 85.667
| 36> H 	 8.60679 	 9.12184 	 84.7769
| 37> H 	 9.31737 	 9.67614 	 86.2966
| 38> H 	 8.2359 	 10.7218 	 85.2931
| 39> H 	 4.48309 	 7.57831 	 79.6618
| 40> H 	 4.29349 	 13.4727 	 85.3778
| 41> *
| 42>
| 43>                          ****END OF INPUT****

CARTESIAN COORDINATES (ANGSTROEM)
---------------------------------
  S      3.657020    8.985670   81.644700
  C      4.674930    8.038280   80.601300
  C      6.085460    8.180810   80.887300
  C      6.209190    9.060400   81.989600
  C      5.011210    9.430850   82.578500
  H      7.215250    9.314750   82.422600
  C      7.209260    7.791410   79.994900
  H      7.649980    8.632710   79.479900
  H      6.783910    7.293160   79.188800
  C      8.344290    6.943910   80.673500
  H      9.034840    7.615350   81.080700
  H      7.849840    6.378600   81.482500
  C      9.191450    6.165180   79.626400
  H      9.574450    6.750270   78.779300
  H     10.056700    5.690910   80.039500
  H      8.626810    5.352830   79.093400
  S      4.410790   12.005400   83.311900
  C      4.705510   12.530400   84.977600
  C      5.113400   11.497000   85.762000
  C      5.323180   10.291500   84.990100
  C      4.894890   10.307800   83.662200
  H      5.251760   11.675700   86.831500
  C      5.916690    9.051420   85.663100
  H      6.057640    8.337910   84.896400
  H      5.182990    8.710780   86.427100
  C      7.170710    9.272510   86.484700
  H      7.353040    8.366730   87.034200
  H      6.944250    9.999970   87.275900
  C      8.446300    9.689130   85.667000
  H      8.606790    9.121840   84.776900
  H      9.317370    9.676140   86.296600
  H      8.235900   10.721800   85.293100
  H      4.483090    7.578310   79.661800
  H      4.293490   13.472700   85.377800

 Total Charge           Charge          ....    0
 Multiplicity           Mult            ....    1
 Number of Electrons    NEL             ....  134
 Basis Dimension        Dim             ....  322

ORBITAL ENERGIES
----------------

  NO   OCC          E(Eh)            E(eV)
   0   2.0000     -88.976139     -2421.1638
   1   2.0000     -88.956918     -2420.6408
   2   2.0000     -10.324092      -280.9328
   3   2.0000     -10.321726      -280.8684
   4   2.0000     -10.318924      -280.7922
   5   2.0000     -10.317237      -280.7463
   6   2.0000     -10.305895      -280.4377
   7   2.0000     -10.302903      -280.3562
   8   2.0000     -10.296832      -280.1911
   9   2.0000     -10.295324      -280.1500
  10   2.0000     -10.291370      -280.0424
  11   2.0000     -10.287368      -279.9335
  12   2.0000     -10.284976      -279.8684
  13   2.0000     -10.284578      -279.8576
  14   2.0000     -10.284459      -279.8544
  15   2.0000     -10.276426      -279.6358
  16   2.0000      -8.091174      -220.1720
  17   2.0000      -8.071199      -219.6285
  18   2.0000      -6.049498      -164.6152
  19   2.0000      -6.045605      -164.5093
  20   2.0000      -6.042141      -164.4150
  21   2.0000      -6.029935      -164.0829
  22   2.0000      -6.025748      -163.9689
  23   2.0000      -6.021755      -163.8603
  24   2.0000      -1.010789       -27.5050
  25   2.0000      -0.979928       -26.6652
  26   2.0000      -0.915104       -24.9012
  27   2.0000      -0.904689       -24.6178
  28   2.0000      -0.873908       -23.7802
  29   2.0000      -0.853716       -23.2308
  30   2.0000      -0.836249       -22.7555
  31   2.0000      -0.813870       -22.1465
  32   2.0000      -0.785263       -21.3681
  33   2.0000      -0.772335       -21.0163
  34   2.0000      -0.719251       -19.5718
  35   2.0000      -0.702562       -19.1177
  36   2.0000      -0.694421       -18.8962
  37   2.0000      -0.651776       -17.7357
  38   2.0000      -0.642504       -17.4834
  39   2.0000      -0.620256       -16.8780
  40   2.0000      -0.591887       -16.1061
  41   2.0000      -0.575127       -15.6500
  42   2.0000      -0.562585       -15.3087
  43   2.0000      -0.549687       -14.9577
  44   2.0000      -0.536258       -14.5923
  45   2.0000      -0.523953       -14.2575
  46   2.0000      -0.519542       -14.1374
  47   2.0000      -0.513205       -13.9650
  48   2.0000      -0.504373       -13.7247
  49   2.0000      -0.502007       -13.6603
  50   2.0000      -0.495058       -13.4712
  51   2.0000      -0.477201       -12.9853
  52   2.0000      -0.463102       -12.6016
  53   2.0000      -0.462496       -12.5852
  54   2.0000      -0.459605       -12.5065
  55   2.0000      -0.448669       -12.2089
  56   2.0000      -0.445418       -12.1204
  57   2.0000      -0.443398       -12.0655
  58   2.0000      -0.431582       -11.7439
  59   2.0000      -0.430054       -11.7024
  60   2.0000      -0.425491       -11.5782
  61   2.0000      -0.421110       -11.4590
  62   2.0000      -0.403215       -10.9720
  63   2.0000      -0.341331        -9.2881
  64   2.0000      -0.331884        -9.0310
  65   2.0000      -0.321003        -8.7349
  66   2.0000      -0.298056        -8.1105
  67   0.0000       0.029813         0.8112
  68   0.0000       0.059958         1.6315
  69   0.0000       0.107072         2.9136
  70   0.0000       0.120213         3.2712
  71   0.0000       0.124179         3.3791

MULLIKEN ATOMIC CHARGES
-----------------------
   0 S :    0.152054
   1 C :   -0.079159
   2 C :   -0.146363
   3 C :    0.036539
   4 C :   -0.193335
   5 H :    0.028681
   6 C :    0.100845
   7 H :    0.034817
   8 H :   -0.014942
   9 C :   -0.056641
  10 H :    0.023997
  11 H :    0.048140
  12 C :   -0.072002
  13 H :    0.030355
  14 H :    0.031836
  15 H :    0.033820
  16 S :    0.070812
  17 C :   -0.095770
  18 C :   -0.038951
  19 C :   -0.057872
  20 C :   -0.128858
  21 H :    0.033641
  22 C :    0.087069
  23 H :    0.013317
  24 H :    0.039446
  25 C :   -0.085592
  26 H :    0.022422
  27 H :    0.022335
  28 C :   -0.044603
  29 H :    0.024707
  30 H :    0.037143
  31 H :    0.040875
  32 H :    0.031681
  33 H :    0.069559
Sum of atomic charges:   -0.0000000

LOEWDIN ATOMIC CHARGES
----------------------
   0 S :    0.456006
   1 C :   -0.203731
   2 C :   -0.060765
   3 C :   -0.053390
   4 C :   -0.229687
   5 H :    0.037853
   6 C :   -0.030768
   7 H :    0.036330
   8 H :    0.018605
   9 C :   -0.031250
  10 H :    0.017697
  11 H :    0.031195
  12 C :   -0.071508
  13 H :    0.028308
  14 H :    0.022509
  15 H :    0.028066
  16 S :    0.362069
  17 C :   -0.174657
  18 C :   -0.078773
  19 C :   -0.049447
  20 C :   -0.192507
  21 H :    0.037245
  22 C :   -0.028984
  23 H :    0.020446
  24 H :    0.040925
  25 C :   -0.040359
  26 H :    0.020562
  27 H :    0.021619
  28 C :   -0.064378
  29 H :    0.017731
  30 H :    0.024210
  31 H :    0.032756
  32 H :    0.020502
  33 H :    0.035573

  Mayer bond orders larger than 0.100000
B(  0-S ,  1-C ) :   1.1657 B(  0-S ,  4-C ) :   1.1646 B(  1-C ,  2-C ) :   1.5618
B(  1-C ,  4-C ) :   0.1028 B(  1-C , 32-H ) :   0.9615 B(  2-C ,  3-C ) :   1.2874
B(  2-C ,  6-C ) :   1.0487 B(  3-C ,  4-C ) :   1.5308 B(  3-C ,  5-H ) :   0.9847
B(  4-C , 20-C ) :   1.0541 B(  6-C ,  7-H ) :   0.9326 B(  6-C ,  8-H ) :   0.9312
B(  6-C ,  9-C ) :   1.0369 B(  9-C , 10-H ) :   0.9533 B(  9-C , 11-H ) :   0.9669
B(  9-C , 12-C ) :   1.0758 B( 12-C , 13-H ) :   0.9732 B( 12-C , 14-H ) :   0.9772
B( 12-C , 15-H ) :   0.9774 B( 16-S , 17-C ) :   1.1488 B( 16-S , 20-C ) :   1.1028
B( 17-C , 18-C ) :   1.6460 B( 17-C , 33-H ) :   0.9562 B( 18-C , 19-C ) :   1.1947
B( 18-C , 21-H ) :   0.9877 B( 19-C , 20-C ) :   1.6258 B( 19-C , 22-C ) :   1.0478
B( 22-C , 23-H ) :   0.9367 B( 22-C , 24-H ) :   0.9318 B( 22-C , 25-C ) :   1.0836
B( 25-C , 26-H ) :   0.9548 B( 25-C , 27-H ) :   0.9513 B( 25-C , 28-C ) :   1.0657
B( 28-C , 29-H ) :   0.9764 B( 28-C , 30-H ) :   0.9754 B( 28-C , 31-H ) :   0.9747

Dispersion correction           -0.014542466
FINAL SINGLE POINT ENERGY     -1339.865195330996

DIPOLE MOMENT
-------------
                                X             Y             Z
Electronic contribution:    -25.90199      14.49412      -2.17920
Nuclear contribution   :     26.45936     -14.71025       2.27221
                        -----------------------------------------
Total Dipole Moment    :      0.55737      -0.21613       0.09301
                        -----------------------------------------
Magnitude (a.u.)       :      0.60500
Magnitude (Debye)      :      1.53779

Rotational constants in cm-1:     0.018316     0.008838     0.006683
Rotational constants in MHz :   549.097170   264.946335   200.342800

                             ****ORCA TERMINATED NORMALLY****
TOTAL RUN TIME: 0 days 0 hours 0 minutes 34 seconds 931 msec
