                         Program Version 4.2.1 -  RELEASE  -
|  1> ! wB97X-D3 SP def2-SVP
|  2> %pal
|  3> nprocs 16
|  4> end
|  5>
|  6> * xyz 0 1
|  7> S 	 45.4831 	 19.303 	 87.353
|  8> C 	 44.8767 	 20.9606 	 87.3518
|  9> C 	 45.0705 	 21.5731 	 86.0777
| 10> C 	 45.5405 	 20.5912 	 85.1386
| 11> C 	 45.9193 	 19.3964 	 85.7278
| 12> H 	 45.583 	 20.7979 	 84.0781
| 13> C 	 44.654 	 22.951 	 85.5668
| 14> H 	 45.4494 	 23.4788 	 85.0671
| 15> H 	 44.4186 	 23.5514 	 86.4967
| 16> C 	 43.5642 	 22.9427 	 84.5841
| 17> H 	 43.9818 	 22.8728 	 83.5346
| 18> H 	 42.8411 	 22.1283 	 84.867
| 19> C 	 42.7898 	 24.277 	 84.6383
| 20> H 	 42.0886 	 24.2615 	 85.5186
| 21> H 	 43.4632 	 25.1336 	 84.7555
| 22> H 	 42.1326 	 24.4989 	 83.7678
| 23> S 	 47.8901 	 17.5931 	 85.254
| 24> C 	 47.7178 	 16.3283 	 84.0203
| 25> C 	 46.5341 	 16.4114 	 83.3926
| 26> C 	 45.731 	 17.5291 	 83.8864
| 27> C 	 46.2742 	 18.1652 	 84.9849
| 28> H 	 46.2606 	 15.6969 	 82.6451
| 29> C 	 44.3738 	 17.9003 	 83.249
| 30> H 	 44.2063 	 17.3021 	 82.3635
| 31> H 	 44.5188 	 18.8935 	 82.9886
| 32> C 	 43.2051 	 17.9062 	 84.3265
| 33> H 	 43.4968 	 18.4299 	 85.2539
| 34> H 	 43.0968 	 16.8612 	 84.6014
| 35> C 	 41.8072 	 18.5141 	 83.8125
| 36> H 	 41.9574 	 19.532 	 83.473
| 37> H 	 41.078 	 18.6423 	 84.6023
| 38> H 	 41.4619 	 17.9222 	 82.9886
| 39> H 	 44.4052 	 21.421 	 88.219
| 40> H 	 48.5057 	 15.6537 	 83.753
| 41> *
| 42>
| 43>                          ****END OF INPUT****

CARTESIAN COORDINATES (ANGSTROEM)
---------------------------------
  S     45.483100   19.303000   87.353000
  C     44.876700   20.960600   87.351800
  C     45.070500   21.573100   86.077700
  C     45.540500   20.591200   85.138600
  C     45.919300   19.396400   85.727800
  H     45.583000   20.797900   84.078100
  C     44.654000   22.951000   85.566800
  H     45.449400   23.478800   85.067100
  H     44.418600   23.551400   86.496700
  C     43.564200   22.942700   84.584100
  H     43.981800   22.872800   83.534600
  H     42.841100   22.128300   84.867000
  C     42.789800   24.277000   84.638300
  H     42.088600   24.261500   85.518600
  H     43.463200   25.133600   84.755500
  H     42.132600   24.498900   83.767800
  S     47.890100   17.593100   85.254000
  C     47.717800   16.328300   84.020300
  C     46.534100   16.411400   83.392600
  C     45.731000   17.529100   83.886400
  C     46.274200   18.165200   84.984900
  H     46.260600   15.696900   82.645100
  C     44.373800   17.900300   83.249000
  H     44.206300   17.302100   82.363500
  H     44.518800   18.893500   82.988600
  C     43.205100   17.906200   84.326500
  H     43.496800   18.429900   85.253900
  H     43.096800   16.861200   84.601400
  C     41.807200   18.514100   83.812500
  H     41.957400   19.532000   83.473000
  H     41.078000   18.642300   84.602300
  H     41.461900   17.922200   82.988600
  H     44.405200   21.421000   88.219000
  H     48.505700   15.653700   83.753000

 Total Charge           Charge          ....    0
 Multiplicity           Mult            ....    1
 Number of Electrons    NEL             ....  134
 Basis Dimension        Dim             ....  322

ORBITAL ENERGIES
----------------

  NO   OCC          E(Eh)            E(eV)
   0   2.0000     -88.972331     -2421.0602
   1   2.0000     -88.957851     -2420.6662
   2   2.0000     -10.326800      -281.0065
   3   2.0000     -10.323841      -280.9260
   4   2.0000     -10.322539      -280.8906
   5   2.0000     -10.312878      -280.6277
   6   2.0000     -10.309832      -280.5448
   7   2.0000     -10.304857      -280.4094
   8   2.0000     -10.295162      -280.1456
   9   2.0000     -10.294888      -280.1382
  10   2.0000     -10.294566      -280.1294
  11   2.0000     -10.291585      -280.0483
  12   2.0000     -10.288192      -279.9559
  13   2.0000     -10.287804      -279.9454
  14   2.0000     -10.287506      -279.9373
  15   2.0000     -10.276085      -279.6265
  16   2.0000      -8.087366      -220.0684
  17   2.0000      -8.072958      -219.6763
  18   2.0000      -6.045790      -164.5143
  19   2.0000      -6.041698      -164.4030
  20   2.0000      -6.038309      -164.3108
  21   2.0000      -6.031572      -164.1274
  22   2.0000      -6.027365      -164.0129
  23   2.0000      -6.023638      -163.9115
  24   2.0000      -1.009270       -27.4636
  25   2.0000      -0.984052       -26.7774
  26   2.0000      -0.924299       -25.1515
  27   2.0000      -0.893482       -24.3129
  28   2.0000      -0.869226       -23.6528
  29   2.0000      -0.850135       -23.1334
  30   2.0000      -0.836363       -22.7586
  31   2.0000      -0.813610       -22.1394
  32   2.0000      -0.782553       -21.2943
  33   2.0000      -0.769517       -20.9396
  34   2.0000      -0.706121       -19.2145
  35   2.0000      -0.695371       -18.9220
  36   2.0000      -0.687451       -18.7065
  37   2.0000      -0.662020       -18.0145
  38   2.0000      -0.643507       -17.5107
  39   2.0000      -0.624631       -16.9971
  40   2.0000      -0.589220       -16.0335
  41   2.0000      -0.584314       -15.9000
  42   2.0000      -0.565316       -15.3830
  43   2.0000      -0.557562       -15.1720
  44   2.0000      -0.526409       -14.3243
  45   2.0000      -0.519512       -14.1367
  46   2.0000      -0.513567       -13.9749
  47   2.0000      -0.506572       -13.7845
  48   2.0000      -0.501957       -13.6589
  49   2.0000      -0.497766       -13.5449
  50   2.0000      -0.492602       -13.4044
  51   2.0000      -0.486353       -13.2343
  52   2.0000      -0.472513       -12.8577
  53   2.0000      -0.467838       -12.7305
  54   2.0000      -0.458818       -12.4851
  55   2.0000      -0.445962       -12.1352
  56   2.0000      -0.440425       -11.9846
  57   2.0000      -0.435713       -11.8563
  58   2.0000      -0.432507       -11.7691
  59   2.0000      -0.425135       -11.5685
  60   2.0000      -0.419976       -11.4281
  61   2.0000      -0.417442       -11.3592
  62   2.0000      -0.409530       -11.1439
  63   2.0000      -0.343256        -9.3405
  64   2.0000      -0.334833        -9.1113
  65   2.0000      -0.320394        -8.7184
  66   2.0000      -0.300952        -8.1893
  67   0.0000       0.039000         1.0612
  68   0.0000       0.065507         1.7825
  69   0.0000       0.111914         3.0453
  70   0.0000       0.118237         3.2174
  71   0.0000       0.125605         3.4179

MULLIKEN ATOMIC CHARGES
-----------------------
   0 S :    0.132626
   1 C :   -0.147489
   2 C :   -0.077858
   3 C :    0.004230
   4 C :   -0.135379
   5 H :    0.018235
   6 C :    0.061097
   7 H :    0.031894
   8 H :    0.029982
   9 C :   -0.100831
  10 H :    0.045907
  11 H :    0.053583
  12 C :   -0.084625
  13 H :    0.037641
  14 H :    0.033603
  15 H :    0.040632
  16 S :    0.085776
  17 C :   -0.081447
  18 C :   -0.015474
  19 C :   -0.083610
  20 C :   -0.149456
  21 H :    0.013626
  22 C :    0.145683
  23 H :    0.015576
  24 H :   -0.002697
  25 C :   -0.109585
  26 H :    0.048269
  27 H :    0.030445
  28 C :   -0.035954
  29 H :    0.021555
  30 H :    0.035471
  31 H :    0.031576
  32 H :    0.056123
  33 H :    0.050876
Sum of atomic charges:    0.0000000

LOEWDIN ATOMIC CHARGES
----------------------
   0 S :    0.445457
   1 C :   -0.202518
   2 C :   -0.054336
   3 C :   -0.059721
   4 C :   -0.224948
   5 H :    0.029712
   6 C :   -0.041015
   7 H :    0.033669
   8 H :    0.034807
   9 C :   -0.051181
  10 H :    0.031812
  11 H :    0.032631
  12 C :   -0.071299
  13 H :    0.029266
  14 H :    0.022901
  15 H :    0.027618
  16 S :    0.392770
  17 C :   -0.168728
  18 C :   -0.071989
  19 C :   -0.050040
  20 C :   -0.210145
  21 H :    0.031288
  22 C :   -0.021970
  23 H :    0.026763
  24 H :    0.017696
  25 C :   -0.033423
  26 H :    0.025262
  27 H :    0.020562
  28 C :   -0.064962
  29 H :    0.021512
  30 H :    0.026496
  31 H :    0.021201
  32 H :    0.028121
  33 H :    0.026727

  Mayer bond orders larger than 0.100000
B(  0-S ,  1-C ) :   1.1552 B(  0-S ,  4-C ) :   1.1817 B(  1-C ,  2-C ) :   1.5706
B(  1-C , 32-H ) :   0.9701 B(  2-C ,  3-C ) :   1.2525 B(  2-C ,  6-C ) :   1.0366
B(  3-C ,  4-C ) :   1.5600 B(  3-C ,  5-H ) :   1.0008 B(  4-C , 20-C ) :   0.9670
B(  6-C ,  7-H ) :   0.9270 B(  6-C ,  8-H ) :   0.9478 B(  6-C ,  9-C ) :   1.0569
B(  9-C , 10-H ) :   0.9472 B(  9-C , 11-H ) :   0.9611 B(  9-C , 12-C ) :   1.0770
B( 12-C , 13-H ) :   0.9767 B( 12-C , 14-H ) :   0.9734 B( 12-C , 15-H ) :   0.9759
B( 16-S , 17-C ) :   1.1438 B( 16-S , 20-C ) :   1.1364 B( 17-C , 18-C ) :   1.6391
B( 17-C , 33-H ) :   0.9683 B( 18-C , 19-C ) :   1.2101 B( 18-C , 21-H ) :   0.9969
B( 19-C , 20-C ) :   1.6400 B( 19-C , 22-C ) :   1.0331 B( 22-C , 23-H ) :   0.9385
B( 22-C , 24-H ) :   0.9243 B( 22-C , 25-C ) :   1.0496 B( 25-C , 26-H ) :   0.9591
B( 25-C , 27-H ) :   0.9612 B( 25-C , 28-C ) :   1.0724 B( 28-C , 29-H ) :   0.9758
B( 28-C , 30-H ) :   0.9773 B( 28-C , 31-H ) :   0.9777

Dispersion correction           -0.015388967
FINAL SINGLE POINT ENERGY     -1339.874039694763

DIPOLE MOMENT
-------------
                                X             Y             Z
Electronic contribution:     23.64731     -16.24416      12.18626
Nuclear contribution   :    -24.12437      16.61389     -12.67256
                        -----------------------------------------
Total Dipole Moment    :     -0.47707       0.36973      -0.48629
                        -----------------------------------------
Magnitude (a.u.)       :      0.77509
Magnitude (Debye)      :      1.97013

Rotational constants in cm-1:     0.020022     0.008908     0.007401
Rotational constants in MHz :   600.238267   267.069843   221.881824

                             ****ORCA TERMINATED NORMALLY****
TOTAL RUN TIME: 0 days 0 hours 0 minutes 31 seconds 981 msec
