                         Program Version 4.2.1 -  RELEASE  -
|  1> ! wB97X-D3 SP def2-SVP
|  2> %pal
|  3> nprocs 16
|  4> end
|  5>
|  6> * xyz 0 1
|  7> S 	 -45.3252 	 29.2566 	 76.0721
|  8> C 	 -44.2074 	 29.431 	 74.7699
|  9> C 	 -43.1901 	 30.2374 	 75.1222
| 10> C 	 -43.1413 	 30.5124 	 76.5321
| 11> C 	 -44.2311 	 29.9122 	 77.2197
| 12> H 	 -42.3101 	 30.9703 	 77.0923
| 13> C 	 -42.073 	 30.5354 	 74.1115
| 14> H 	 -42.0287 	 29.856 	 73.3231
| 15> H 	 -41.1518 	 30.6164 	 74.6686
| 16> C 	 -42.2332 	 31.952 	 73.4843
| 17> H 	 -41.5006 	 32.1916 	 72.7798
| 18> H 	 -43.1624 	 32.0302 	 72.8597
| 19> C 	 -42.2439 	 33.1861 	 74.4215
| 20> H 	 -43.1252 	 33.2135 	 75.1007
| 21> H 	 -41.2598 	 33.2282 	 74.8642
| 22> H 	 -42.265 	 34.0675 	 73.8326
| 23> S 	 -43.0672 	 29.5615 	 79.634
| 24> C 	 -44.0339 	 29.5902 	 81.0786
| 25> C 	 -45.2964 	 30.0528 	 80.8006
| 26> C 	 -45.5945 	 30.2138 	 79.4263
| 27> C 	 -44.4919 	 29.8816 	 78.6485
| 28> H 	 -45.9888 	 30.1824 	 81.6085
| 29> C 	 -46.9526 	 30.7577 	 78.8668
| 30> H 	 -46.6908 	 31.3943 	 78.0152
| 31> H 	 -47.2608 	 31.4755 	 79.6401
| 32> C 	 -48.1007 	 29.7839 	 78.4551
| 33> H 	 -48.2458 	 29.1402 	 79.3745
| 34> H 	 -47.842 	 29.1451 	 77.5929
| 35> C 	 -49.4269 	 30.3883 	 78.2638
| 36> H 	 -49.8438 	 30.8416 	 79.2046
| 37> H 	 -50.13 	 29.561 	 78.0982
| 38> H 	 -49.4492 	 31.0592 	 77.3604
| 39> H 	 -44.3797 	 29.2162 	 73.7141
| 40> H 	 -43.7659 	 29.2685 	 82.0347
| 41> *
| 42>
| 43>                          ****END OF INPUT****

CARTESIAN COORDINATES (ANGSTROEM)
---------------------------------
  S    -45.325200   29.256600   76.072100
  C    -44.207400   29.431000   74.769900
  C    -43.190100   30.237400   75.122200
  C    -43.141300   30.512400   76.532100
  C    -44.231100   29.912200   77.219700
  H    -42.310100   30.970300   77.092300
  C    -42.073000   30.535400   74.111500
  H    -42.028700   29.856000   73.323100
  H    -41.151800   30.616400   74.668600
  C    -42.233200   31.952000   73.484300
  H    -41.500600   32.191600   72.779800
  H    -43.162400   32.030200   72.859700
  C    -42.243900   33.186100   74.421500
  H    -43.125200   33.213500   75.100700
  H    -41.259800   33.228200   74.864200
  H    -42.265000   34.067500   73.832600
  S    -43.067200   29.561500   79.634000
  C    -44.033900   29.590200   81.078600
  C    -45.296400   30.052800   80.800600
  C    -45.594500   30.213800   79.426300
  C    -44.491900   29.881600   78.648500
  H    -45.988800   30.182400   81.608500
  C    -46.952600   30.757700   78.866800
  H    -46.690800   31.394300   78.015200
  H    -47.260800   31.475500   79.640100
  C    -48.100700   29.783900   78.455100
  H    -48.245800   29.140200   79.374500
  H    -47.842000   29.145100   77.592900
  C    -49.426900   30.388300   78.263800
  H    -49.843800   30.841600   79.204600
  H    -50.130000   29.561000   78.098200
  H    -49.449200   31.059200   77.360400
  H    -44.379700   29.216200   73.714100
  H    -43.765900   29.268500   82.034700

 Total Charge           Charge          ....    0
 Multiplicity           Mult            ....    1
 Number of Electrons    NEL             ....  134
 Basis Dimension        Dim             ....  322

ORBITAL ENERGIES
----------------

  NO   OCC          E(Eh)            E(eV)
   0   2.0000     -88.966369     -2420.8980
   1   2.0000     -88.965892     -2420.8850
   2   2.0000     -10.331393      -281.1315
   3   2.0000     -10.327626      -281.0290
   4   2.0000     -10.311979      -280.6032
   5   2.0000     -10.306204      -280.4461
   6   2.0000     -10.305867      -280.4369
   7   2.0000     -10.299342      -280.2593
   8   2.0000     -10.297748      -280.2160
   9   2.0000     -10.297040      -280.1967
  10   2.0000     -10.290886      -280.0292
  11   2.0000     -10.290013      -280.0055
  12   2.0000     -10.288801      -279.9725
  13   2.0000     -10.281866      -279.7838
  14   2.0000     -10.281704      -279.7794
  15   2.0000     -10.273066      -279.5443
  16   2.0000      -8.081217      -219.9011
  17   2.0000      -8.081097      -219.8978
  18   2.0000      -6.039724      -164.3493
  19   2.0000      -6.039615      -164.3463
  20   2.0000      -6.035690      -164.2395
  21   2.0000      -6.035587      -164.2367
  22   2.0000      -6.032016      -164.1395
  23   2.0000      -6.031773      -164.1329
  24   2.0000      -1.011057       -27.5123
  25   2.0000      -0.989158       -26.9164
  26   2.0000      -0.909688       -24.7539
  27   2.0000      -0.905417       -24.6377
  28   2.0000      -0.871619       -23.7180
  29   2.0000      -0.856304       -23.3012
  30   2.0000      -0.843891       -22.9634
  31   2.0000      -0.813767       -22.1437
  32   2.0000      -0.786882       -21.4121
  33   2.0000      -0.774038       -21.0626
  34   2.0000      -0.706641       -19.2287
  35   2.0000      -0.694813       -18.9068
  36   2.0000      -0.685802       -18.6616
  37   2.0000      -0.666353       -18.1324
  38   2.0000      -0.635662       -17.2972
  39   2.0000      -0.610623       -16.6159
  40   2.0000      -0.594025       -16.1642
  41   2.0000      -0.575545       -15.6614
  42   2.0000      -0.567241       -15.4354
  43   2.0000      -0.550951       -14.9921
  44   2.0000      -0.546549       -14.8724
  45   2.0000      -0.526425       -14.3247
  46   2.0000      -0.518881       -14.1195
  47   2.0000      -0.510397       -13.8886
  48   2.0000      -0.505082       -13.7440
  49   2.0000      -0.495911       -13.4944
  50   2.0000      -0.489610       -13.3230
  51   2.0000      -0.484877       -13.1942
  52   2.0000      -0.469527       -12.7765
  53   2.0000      -0.467220       -12.7137
  54   2.0000      -0.462947       -12.5974
  55   2.0000      -0.451234       -12.2787
  56   2.0000      -0.443454       -12.0670
  57   2.0000      -0.432989       -11.7822
  58   2.0000      -0.427158       -11.6236
  59   2.0000      -0.421037       -11.4570
  60   2.0000      -0.418420       -11.3858
  61   2.0000      -0.411874       -11.2077
  62   2.0000      -0.408214       -11.1081
  63   2.0000      -0.351997        -9.5783
  64   2.0000      -0.333611        -9.0780
  65   2.0000      -0.329365        -8.9625
  66   2.0000      -0.288287        -7.8447
  67   0.0000       0.028160         0.7663
  68   0.0000       0.069842         1.9005
  69   0.0000       0.101025         2.7490
  70   0.0000       0.130061         3.5391
  71   0.0000       0.138187         3.7603

MULLIKEN ATOMIC CHARGES
-----------------------
   0 S :    0.110995
   1 C :   -0.106229
   2 C :   -0.098853
   3 C :    0.016553
   4 C :   -0.165794
   5 H :    0.026016
   6 C :    0.133381
   7 H :    0.014037
   8 H :    0.018792
   9 C :   -0.105059
  10 H :    0.012057
  11 H :    0.018973
  12 C :   -0.047281
  13 H :    0.056174
  14 H :    0.021460
  15 H :    0.018738
  16 S :    0.106328
  17 C :   -0.057841
  18 C :   -0.042501
  19 C :   -0.018301
  20 C :   -0.157831
  21 H :    0.008613
  22 C :    0.053930
  23 H :    0.028933
  24 H :    0.020369
  25 C :   -0.069807
  26 H :    0.026990
  27 H :    0.043139
  28 C :   -0.060930
  29 H :    0.036005
  30 H :    0.033557
  31 H :    0.043742
  32 H :    0.049499
  33 H :    0.032146
Sum of atomic charges:    0.0000000

LOEWDIN ATOMIC CHARGES
----------------------
   0 S :    0.437939
   1 C :   -0.209510
   2 C :   -0.063013
   3 C :   -0.075307
   4 C :   -0.201998
   5 H :    0.031988
   6 C :   -0.013510
   7 H :    0.023287
   8 H :    0.029488
   9 C :   -0.042824
  10 H :    0.013188
  11 H :    0.021635
  12 C :   -0.065291
  13 H :    0.031192
  14 H :    0.021801
  15 H :    0.022086
  16 S :    0.412641
  17 C :   -0.179308
  18 C :   -0.067680
  19 C :   -0.058144
  20 C :   -0.190265
  21 H :    0.027658
  22 C :   -0.036119
  23 H :    0.027851
  24 H :    0.033073
  25 C :   -0.051913
  26 H :    0.030553
  27 H :    0.021694
  28 C :   -0.073403
  29 H :    0.029922
  30 H :    0.030714
  31 H :    0.028740
  32 H :    0.033193
  33 H :    0.019643

  Mayer bond orders larger than 0.100000
B(  0-S ,  1-C ) :   1.1287 B(  0-S ,  4-C ) :   1.1781 B(  1-C ,  2-C ) :   1.6355
B(  1-C , 32-H ) :   0.9604 B(  2-C ,  3-C ) :   1.2441 B(  2-C ,  6-C ) :   1.0205
B(  3-C ,  4-C ) :   1.5362 B(  3-C ,  5-H ) :   0.9855 B(  4-C , 20-C ) :   1.0462
B(  6-C ,  7-H ) :   0.9455 B(  6-C ,  8-H ) :   0.9419 B(  6-C ,  9-C ) :   1.0612
B(  9-C , 10-H ) :   0.9585 B(  9-C , 11-H ) :   0.9558 B(  9-C , 12-C ) :   1.0861
B( 12-C , 13-H ) :   0.9737 B( 12-C , 14-H ) :   0.9745 B( 12-C , 15-H ) :   0.9711
B( 16-S , 17-C ) :   1.1471 B( 16-S , 20-C ) :   1.1486 B( 17-C , 18-C ) :   1.6097
B( 17-C , 20-C ) :   0.1005 B( 17-C , 33-H ) :   0.9754 B( 18-C , 19-C ) :   1.2496
B( 18-C , 21-H ) :   0.9914 B( 19-C , 20-C ) :   1.5769 B( 19-C , 22-C ) :   1.0266
B( 22-C , 23-H ) :   0.9311 B( 22-C , 24-H ) :   0.9376 B( 22-C , 25-C ) :   1.0588
B( 25-C , 26-H ) :   0.9528 B( 25-C , 27-H ) :   0.9474 B( 25-C , 28-C ) :   1.1008
B( 28-C , 29-H ) :   0.9708 B( 28-C , 30-H ) :   0.9686 B( 28-C , 31-H ) :   0.9707

Dispersion correction           -0.014255290
FINAL SINGLE POINT ENERGY     -1339.872193155424

DIPOLE MOMENT
-------------
                                X             Y             Z
Electronic contribution:      7.63045     -12.34281      10.41658
Nuclear contribution   :     -7.71967      12.58235     -10.51833
                        -----------------------------------------
Total Dipole Moment    :     -0.08922       0.23954      -0.10175
                        -----------------------------------------
Magnitude (a.u.)       :      0.27512
Magnitude (Debye)      :      0.69930

Rotational constants in cm-1:     0.018711     0.008573     0.006811
Rotational constants in MHz :   560.944628   257.000880   204.185618

                             ****ORCA TERMINATED NORMALLY****
TOTAL RUN TIME: 0 days 0 hours 0 minutes 29 seconds 602 msec
