                         Program Version 4.2.1 -  RELEASE  -
|  1> ! wB97X-D3 SP def2-SVP
|  2> %pal
|  3> nprocs 16
|  4> end
|  5>
|  6> * xyz 0 1
|  7> S 	 21.7399 	 -8.50346 	 81.2887
|  8> C 	 20.8903 	 -7.02196 	 81.7906
|  9> C 	 19.5279 	 -7.03608 	 81.4925
| 10> C 	 19.1713 	 -8.30614 	 80.961
| 11> C 	 20.216 	 -9.17154 	 80.7183
| 12> H 	 18.1737 	 -8.63172 	 80.7824
| 13> C 	 18.4936 	 -6.04687 	 81.9017
| 14> H 	 19.0678 	 -5.17592 	 82.1703
| 15> H 	 17.9898 	 -6.52121 	 82.7611
| 16> C 	 17.4513 	 -5.72954 	 80.8613
| 17> H 	 18.0336 	 -5.29216 	 80.029
| 18> H 	 17.0116 	 -6.62398 	 80.4967
| 19> C 	 16.4305 	 -4.78596 	 81.3815
| 20> H 	 15.8234 	 -4.44609 	 80.526
| 21> H 	 15.8559 	 -5.24693 	 82.1261
| 22> H 	 16.7807 	 -3.85096 	 81.818
| 23> S 	 20.1994 	 -11.8178 	 81.5586
| 24> C 	 19.8077 	 -13.0202 	 80.4141
| 25> C 	 19.7416 	 -12.5807 	 79.1377
| 26> C 	 19.8726 	 -11.1317 	 78.9991
| 27> C 	 20.0562 	 -10.5692 	 80.2745
| 28> H 	 19.7712 	 -13.214 	 78.261
| 29> C 	 19.9147 	 -10.4582 	 77.6321
| 30> H 	 20.1907 	 -11.3011 	 76.9899
| 31> H 	 20.7799 	 -9.77772 	 77.5726
| 32> C 	 18.611 	 -9.86781 	 77.2023
| 33> H 	 18.7083 	 -9.35515 	 76.2474
| 34> H 	 18.4768 	 -9.10462 	 77.9451
| 35> C 	 17.3686 	 -10.8347 	 77.2736
| 36> H 	 17.234 	 -11.2813 	 78.1987
| 37> H 	 17.4903 	 -11.5997 	 76.498
| 38> H 	 16.4058 	 -10.4443 	 76.9525
| 39> H 	 21.4335 	 -6.17201 	 82.3206
| 40> H 	 19.9036 	 -14.0384 	 80.6291
| 41> *
| 42>
| 43>                          ****END OF INPUT****

CARTESIAN COORDINATES (ANGSTROEM)
---------------------------------
  S     21.739900   -8.503460   81.288700
  C     20.890300   -7.021960   81.790600
  C     19.527900   -7.036080   81.492500
  C     19.171300   -8.306140   80.961000
  C     20.216000   -9.171540   80.718300
  H     18.173700   -8.631720   80.782400
  C     18.493600   -6.046870   81.901700
  H     19.067800   -5.175920   82.170300
  H     17.989800   -6.521210   82.761100
  C     17.451300   -5.729540   80.861300
  H     18.033600   -5.292160   80.029000
  H     17.011600   -6.623980   80.496700
  C     16.430500   -4.785960   81.381500
  H     15.823400   -4.446090   80.526000
  H     15.855900   -5.246930   82.126100
  H     16.780700   -3.850960   81.818000
  S     20.199400  -11.817800   81.558600
  C     19.807700  -13.020200   80.414100
  C     19.741600  -12.580700   79.137700
  C     19.872600  -11.131700   78.999100
  C     20.056200  -10.569200   80.274500
  H     19.771200  -13.214000   78.261000
  C     19.914700  -10.458200   77.632100
  H     20.190700  -11.301100   76.989900
  H     20.779900   -9.777720   77.572600
  C     18.611000   -9.867810   77.202300
  H     18.708300   -9.355150   76.247400
  H     18.476800   -9.104620   77.945100
  C     17.368600  -10.834700   77.273600
  H     17.234000  -11.281300   78.198700
  H     17.490300  -11.599700   76.498000
  H     16.405800  -10.444300   76.952500
  H     21.433500   -6.172010   82.320600
  H     19.903600  -14.038400   80.629100

 Total Charge           Charge          ....    0
 Multiplicity           Mult            ....    1
 Number of Electrons    NEL             ....  134
 Basis Dimension        Dim             ....  322

ORBITAL ENERGIES
----------------

  NO   OCC          E(Eh)            E(eV)
   0   2.0000     -88.966582     -2420.9038
   1   2.0000     -88.962982     -2420.8058
   2   2.0000     -10.328785      -281.0605
   3   2.0000     -10.326400      -280.9956
   4   2.0000     -10.321449      -280.8609
   5   2.0000     -10.307097      -280.4704
   6   2.0000     -10.307038      -280.4688
   7   2.0000     -10.298599      -280.2391
   8   2.0000     -10.292548      -280.0745
   9   2.0000     -10.290283      -280.0128
  10   2.0000     -10.288630      -279.9679
  11   2.0000     -10.287825      -279.9460
  12   2.0000     -10.284085      -279.8442
  13   2.0000     -10.281101      -279.7630
  14   2.0000     -10.273137      -279.5463
  15   2.0000     -10.272990      -279.5423
  16   2.0000      -8.080634      -219.8852
  17   2.0000      -8.078205      -219.8191
  18   2.0000      -6.039132      -164.3331
  19   2.0000      -6.036693      -164.2668
  20   2.0000      -6.035322      -164.2295
  21   2.0000      -6.032767      -164.1599
  22   2.0000      -6.031374      -164.1220
  23   2.0000      -6.028830      -164.0528
  24   2.0000      -1.000906       -27.2360
  25   2.0000      -0.981454       -26.7067
  26   2.0000      -0.923151       -25.1202
  27   2.0000      -0.912159       -24.8211
  28   2.0000      -0.868100       -23.6222
  29   2.0000      -0.849602       -23.1189
  30   2.0000      -0.842863       -22.9355
  31   2.0000      -0.812020       -22.0962
  32   2.0000      -0.788316       -21.4512
  33   2.0000      -0.773795       -21.0560
  34   2.0000      -0.713849       -19.4248
  35   2.0000      -0.701986       -19.1020
  36   2.0000      -0.684985       -18.6394
  37   2.0000      -0.658662       -17.9231
  38   2.0000      -0.638361       -17.3707
  39   2.0000      -0.620180       -16.8760
  40   2.0000      -0.593923       -16.1615
  41   2.0000      -0.581508       -15.8236
  42   2.0000      -0.559615       -15.2279
  43   2.0000      -0.557120       -15.1600
  44   2.0000      -0.546607       -14.8739
  45   2.0000      -0.525079       -14.2881
  46   2.0000      -0.511639       -13.9224
  47   2.0000      -0.510202       -13.8833
  48   2.0000      -0.497207       -13.5297
  49   2.0000      -0.493755       -13.4357
  50   2.0000      -0.489273       -13.3138
  51   2.0000      -0.483541       -13.1578
  52   2.0000      -0.473307       -12.8793
  53   2.0000      -0.460221       -12.5233
  54   2.0000      -0.459471       -12.5028
  55   2.0000      -0.452680       -12.3180
  56   2.0000      -0.448031       -12.1915
  57   2.0000      -0.442772       -12.0484
  58   2.0000      -0.432193       -11.7606
  59   2.0000      -0.426316       -11.6007
  60   2.0000      -0.422429       -11.4949
  61   2.0000      -0.422029       -11.4840
  62   2.0000      -0.406660       -11.0658
  63   2.0000      -0.335853        -9.1390
  64   2.0000      -0.326922        -8.8960
  65   2.0000      -0.323473        -8.8021
  66   2.0000      -0.305217        -8.3054
  67   0.0000       0.040049         1.0898
  68   0.0000       0.059134         1.6091
  69   0.0000       0.110857         3.0166
  70   0.0000       0.118244         3.2176
  71   0.0000       0.124435         3.3860

MULLIKEN ATOMIC CHARGES
-----------------------
   0 S :    0.109659
   1 C :   -0.168706
   2 C :   -0.065742
   3 C :    0.041575
   4 C :   -0.163676
   5 H :    0.006099
   6 C :    0.075443
   7 H :    0.011778
   8 H :    0.042037
   9 C :   -0.083325
  10 H :    0.028552
  11 H :    0.022539
  12 C :   -0.002975
  13 H :    0.034914
  14 H :    0.018097
  15 H :    0.021131
  16 S :    0.110562
  17 C :   -0.049329
  18 C :   -0.035131
  19 C :   -0.067374
  20 C :   -0.207477
  21 H :    0.017122
  22 C :    0.092359
  23 H :    0.008574
  24 H :    0.043644
  25 C :   -0.036140
  26 H :    0.031878
  27 H :    0.016667
  28 C :   -0.039201
  29 H :    0.036744
  30 H :    0.016096
  31 H :    0.025515
  32 H :    0.070690
  33 H :    0.037398
Sum of atomic charges:   -0.0000000

LOEWDIN ATOMIC CHARGES
----------------------
   0 S :    0.387828
   1 C :   -0.200014
   2 C :   -0.066055
   3 C :   -0.054582
   4 C :   -0.201177
   5 H :    0.025060
   6 C :   -0.029705
   7 H :    0.028098
   8 H :    0.037855
   9 C :   -0.040447
  10 H :    0.029262
  11 H :    0.019066
  12 C :   -0.059371
  13 H :    0.032600
  14 H :    0.018268
  15 H :    0.025596
  16 S :    0.403502
  17 C :   -0.188925
  18 C :   -0.073140
  19 C :   -0.044444
  20 C :   -0.191009
  21 H :    0.029221
  22 C :   -0.029745
  23 H :    0.026679
  24 H :    0.038788
  25 C :   -0.035847
  26 H :    0.025946
  27 H :    0.020710
  28 C :   -0.061199
  29 H :    0.017166
  30 H :    0.024562
  31 H :    0.027554
  32 H :    0.039104
  33 H :    0.018792

  Mayer bond orders larger than 0.100000
B(  0-S ,  1-C ) :   1.1345 B(  0-S ,  4-C ) :   1.1446 B(  1-C ,  2-C ) :   1.6115
B(  1-C , 32-H ) :   0.9557 B(  2-C ,  3-C ) :   1.2260 B(  2-C ,  6-C ) :   1.0297
B(  3-C ,  4-C ) :   1.6067 B(  3-C ,  5-H ) :   0.9888 B(  4-C , 20-C ) :   1.0163
B(  6-C ,  7-H ) :   0.9341 B(  6-C ,  8-H ) :   0.9343 B(  6-C ,  9-C ) :   1.0732
B(  9-C , 10-H ) :   0.9524 B(  9-C , 11-H ) :   0.9501 B(  9-C , 12-C ) :   1.0966
B( 12-C , 13-H ) :   0.9703 B( 12-C , 14-H ) :   0.9711 B( 12-C , 15-H ) :   0.9704
B( 16-S , 17-C ) :   1.1527 B( 16-S , 20-C ) :   1.1418 B( 17-C , 18-C ) :   1.6361
B( 17-C , 33-H ) :   0.9658 B( 18-C , 19-C ) :   1.2305 B( 18-C , 21-H ) :   0.9800
B( 19-C , 20-C ) :   1.6228 B( 19-C , 22-C ) :   1.0196 B( 22-C , 23-H ) :   0.9305
B( 22-C , 24-H ) :   0.9376 B( 22-C , 25-C ) :   1.0670 B( 25-C , 26-H ) :   0.9557
B( 25-C , 27-H ) :   0.9550 B( 25-C , 28-C ) :   1.0676 B( 28-C , 29-H ) :   0.9744
B( 28-C , 30-H ) :   0.9750 B( 28-C , 31-H ) :   0.9749

Dispersion correction           -0.014543523
FINAL SINGLE POINT ENERGY     -1339.877839308284

DIPOLE MOMENT
-------------
                                X             Y             Z
Electronic contribution:     20.68778     -13.94915      12.66957
Nuclear contribution   :    -21.05737      14.15814     -12.93072
                        -----------------------------------------
Total Dipole Moment    :     -0.36960       0.20899      -0.26115
                        -----------------------------------------
Magnitude (a.u.)       :      0.49848
Magnitude (Debye)      :      1.26702

Rotational constants in cm-1:     0.017871     0.008860     0.007019
Rotational constants in MHz :   535.763802   265.620067   210.410988

                             ****ORCA TERMINATED NORMALLY****
TOTAL RUN TIME: 0 days 0 hours 0 minutes 31 seconds 140 msec
