                         Program Version 4.2.1 -  RELEASE  -
|  1> ! wB97X-D3 SP def2-SVP
|  2> %pal
|  3> nprocs 16
|  4> end
|  5>
|  6> * xyz 0 1
|  7> S 	 -10.8654 	 60.3914 	 58.9831
|  8> C 	 -10.8701 	 58.7737 	 59.7188
|  9> C 	 -11.9498 	 58.7373 	 60.5806
| 10> C 	 -12.7404 	 59.9258 	 60.6682
| 11> C 	 -12.2245 	 60.9557 	 59.9013
| 12> H 	 -13.6737 	 60.1824 	 61.2169
| 13> C 	 -12.3723 	 57.5065 	 61.3753
| 14> H 	 -11.8097 	 56.6559 	 60.8681
| 15> H 	 -13.4147 	 57.2722 	 61.2732
| 16> C 	 -11.8615 	 57.6627 	 62.8072
| 17> H 	 -12.317 	 56.8838 	 63.499
| 18> H 	 -10.7368 	 57.4455 	 62.7943
| 19> C 	 -12.0283 	 59.0946 	 63.3539
| 20> H 	 -11.182 	 59.6923 	 63.0591
| 21> H 	 -12.9737 	 59.6182 	 63.0888
| 22> H 	 -11.8182 	 58.9935 	 64.4124
| 23> S 	 -13.8218 	 62.8786 	 61.2082
| 24> C 	 -14.0741 	 64.4397 	 60.5099
| 25> C 	 -13.4105 	 64.6204 	 59.2828
| 26> C 	 -12.5453 	 63.4569 	 59.0088
| 27> C 	 -12.7818 	 62.3501 	 59.8264
| 28> H 	 -13.5224 	 65.5172 	 58.6823
| 29> C 	 -11.8065 	 63.5018 	 57.6811
| 30> H 	 -12.5427 	 63.7409 	 56.9273
| 31> H 	 -11.5447 	 62.4351 	 57.4724
| 32> C 	 -10.6686 	 64.4701 	 57.4781
| 33> H 	 -10.8791 	 65.4177 	 58.026
| 34> H 	 -10.7031 	 64.7856 	 56.4312
| 35> C 	 -9.22905 	 63.8567 	 57.7516
| 36> H 	 -9.25467 	 63.4358 	 58.741
| 37> H 	 -8.4862 	 64.6491 	 57.6801
| 38> H 	 -9.06646 	 63.1066 	 57.0654
| 39> H 	 -10.186 	 57.9627 	 59.4907
| 40> H 	 -14.7223 	 65.1995 	 60.9542
| 41> *
| 42>
| 43>                          ****END OF INPUT****

CARTESIAN COORDINATES (ANGSTROEM)
---------------------------------
  S    -10.865400   60.391400   58.983100
  C    -10.870100   58.773700   59.718800
  C    -11.949800   58.737300   60.580600
  C    -12.740400   59.925800   60.668200
  C    -12.224500   60.955700   59.901300
  H    -13.673700   60.182400   61.216900
  C    -12.372300   57.506500   61.375300
  H    -11.809700   56.655900   60.868100
  H    -13.414700   57.272200   61.273200
  C    -11.861500   57.662700   62.807200
  H    -12.317000   56.883800   63.499000
  H    -10.736800   57.445500   62.794300
  C    -12.028300   59.094600   63.353900
  H    -11.182000   59.692300   63.059100
  H    -12.973700   59.618200   63.088800
  H    -11.818200   58.993500   64.412400
  S    -13.821800   62.878600   61.208200
  C    -14.074100   64.439700   60.509900
  C    -13.410500   64.620400   59.282800
  C    -12.545300   63.456900   59.008800
  C    -12.781800   62.350100   59.826400
  H    -13.522400   65.517200   58.682300
  C    -11.806500   63.501800   57.681100
  H    -12.542700   63.740900   56.927300
  H    -11.544700   62.435100   57.472400
  C    -10.668600   64.470100   57.478100
  H    -10.879100   65.417700   58.026000
  H    -10.703100   64.785600   56.431200
  C     -9.229050   63.856700   57.751600
  H     -9.254670   63.435800   58.741000
  H     -8.486200   64.649100   57.680100
  H     -9.066460   63.106600   57.065400
  H    -10.186000   57.962700   59.490700
  H    -14.722300   65.199500   60.954200

 Total Charge           Charge          ....    0
 Multiplicity           Mult            ....    1
 Number of Electrons    NEL             ....  134
 Basis Dimension        Dim             ....  322

ORBITAL ENERGIES
----------------

  NO   OCC          E(Eh)            E(eV)
   0   2.0000     -88.969333     -2420.9786
   1   2.0000     -88.967558     -2420.9303
   2   2.0000     -10.340327      -281.3746
   3   2.0000     -10.336629      -281.2740
   4   2.0000     -10.324671      -280.9486
   5   2.0000     -10.319291      -280.8022
   6   2.0000     -10.311807      -280.5985
   7   2.0000     -10.304522      -280.4003
   8   2.0000     -10.302466      -280.3443
   9   2.0000     -10.296228      -280.1746
  10   2.0000     -10.294125      -280.1174
  11   2.0000     -10.291618      -280.0492
  12   2.0000     -10.288931      -279.9761
  13   2.0000     -10.287868      -279.9471
  14   2.0000     -10.271612      -279.5048
  15   2.0000     -10.269473      -279.4466
  16   2.0000      -8.083367      -219.9596
  17   2.0000      -8.081506      -219.9090
  18   2.0000      -6.042055      -164.4127
  19   2.0000      -6.040194      -164.3620
  20   2.0000      -6.038023      -164.3030
  21   2.0000      -6.036041      -164.2490
  22   2.0000      -6.033963      -164.1925
  23   2.0000      -6.032189      -164.1442
  24   2.0000      -1.003434       -27.3048
  25   2.0000      -0.981362       -26.7042
  26   2.0000      -0.910885       -24.7865
  27   2.0000      -0.906604       -24.6699
  28   2.0000      -0.865239       -23.5443
  29   2.0000      -0.846952       -23.0467
  30   2.0000      -0.836076       -22.7508
  31   2.0000      -0.813891       -22.1471
  32   2.0000      -0.785022       -21.3615
  33   2.0000      -0.773873       -21.0582
  34   2.0000      -0.707328       -19.2474
  35   2.0000      -0.689916       -18.7736
  36   2.0000      -0.688970       -18.7478
  37   2.0000      -0.665159       -18.0999
  38   2.0000      -0.636620       -17.3233
  39   2.0000      -0.609646       -16.5893
  40   2.0000      -0.592882       -16.1331
  41   2.0000      -0.572196       -15.5702
  42   2.0000      -0.552586       -15.0366
  43   2.0000      -0.547761       -14.9053
  44   2.0000      -0.542368       -14.7586
  45   2.0000      -0.533103       -14.5065
  46   2.0000      -0.522440       -14.2163
  47   2.0000      -0.520339       -14.1591
  48   2.0000      -0.500228       -13.6119
  49   2.0000      -0.496627       -13.5139
  50   2.0000      -0.488205       -13.2847
  51   2.0000      -0.473932       -12.8964
  52   2.0000      -0.469041       -12.7632
  53   2.0000      -0.468770       -12.7559
  54   2.0000      -0.462658       -12.5896
  55   2.0000      -0.447844       -12.1864
  56   2.0000      -0.444583       -12.0977
  57   2.0000      -0.437244       -11.8980
  58   2.0000      -0.426383       -11.6025
  59   2.0000      -0.416713       -11.3393
  60   2.0000      -0.411127       -11.1873
  61   2.0000      -0.408960       -11.1284
  62   2.0000      -0.399897       -10.8817
  63   2.0000      -0.361596        -9.8395
  64   2.0000      -0.331671        -9.0252
  65   2.0000      -0.327813        -8.9202
  66   2.0000      -0.287365        -7.8196
  67   0.0000       0.020500         0.5578
  68   0.0000       0.080079         2.1791
  69   0.0000       0.101965         2.7746
  70   0.0000       0.110546         3.0081
  71   0.0000       0.126342         3.4379

MULLIKEN ATOMIC CHARGES
-----------------------
   0 S :    0.083343
   1 C :   -0.113971
   2 C :   -0.108674
   3 C :   -0.035265
   4 C :   -0.088803
   5 H :    0.043163
   6 C :    0.072149
   7 H :    0.021803
   8 H :    0.037021
   9 C :   -0.115223
  10 H :    0.042762
  11 H :    0.034630
  12 C :   -0.031461
  13 H :    0.037581
  14 H :    0.043438
  15 H :    0.026758
  16 S :    0.076256
  17 C :   -0.082881
  18 C :   -0.037544
  19 C :   -0.065946
  20 C :   -0.112367
  21 H :    0.032520
  22 C :    0.014245
  23 H :    0.032435
  24 H :    0.021070
  25 C :   -0.082041
  26 H :    0.028631
  27 H :    0.022026
  28 C :   -0.007803
  29 H :    0.033690
  30 H :    0.035447
  31 H :    0.020243
  32 H :    0.055740
  33 H :    0.067027
Sum of atomic charges:   -0.0000000

LOEWDIN ATOMIC CHARGES
----------------------
   0 S :    0.406126
   1 C :   -0.197038
   2 C :   -0.057099
   3 C :   -0.081347
   4 C :   -0.185829
   5 H :    0.032991
   6 C :   -0.036037
   7 H :    0.033701
   8 H :    0.027132
   9 C :   -0.048063
  10 H :    0.025739
  11 H :    0.032343
  12 C :   -0.073445
  13 H :    0.029707
  14 H :    0.027949
  15 H :    0.026475
  16 S :    0.389085
  17 C :   -0.185287
  18 C :   -0.070187
  19 C :   -0.054275
  20 C :   -0.177214
  21 H :    0.033806
  22 C :   -0.044274
  23 H :    0.036168
  24 H :    0.019986
  25 C :   -0.042464
  26 H :    0.025153
  27 H :    0.023264
  28 C :   -0.049431
  29 H :    0.023873
  30 H :    0.026596
  31 H :    0.013915
  32 H :    0.035132
  33 H :    0.032847

  Mayer bond orders larger than 0.100000
B(  0-S ,  1-C ) :   1.1121 B(  0-S ,  4-C ) :   1.1539 B(  1-C ,  2-C ) :   1.6207
B(  1-C , 32-H ) :   0.9722 B(  2-C ,  3-C ) :   1.2211 B(  2-C ,  6-C ) :   1.0195
B(  3-C ,  4-C ) :   1.5708 B(  3-C ,  5-H ) :   0.9762 B(  4-C , 20-C ) :   1.0607
B(  6-C ,  7-H ) :   0.9463 B(  6-C ,  8-H ) :   0.9472 B(  6-C ,  9-C ) :   1.0601
B(  9-C , 10-H ) :   0.9628 B(  9-C , 11-H ) :   0.9523 B(  9-C , 12-C ) :   1.0894
B( 12-C , 13-H ) :   0.9615 B( 12-C , 14-H ) :   0.9679 B( 12-C , 15-H ) :   0.9667
B( 16-S , 17-C ) :   1.1587 B( 16-S , 20-C ) :   1.1068 B( 17-C , 18-C ) :   1.6215
B( 17-C , 33-H ) :   0.9641 B( 18-C , 19-C ) :   1.2017 B( 18-C , 21-H ) :   0.9877
B( 19-C , 20-C ) :   1.6155 B( 19-C , 22-C ) :   1.0419 B( 22-C , 23-H ) :   0.9386
B( 22-C , 24-H ) :   0.9408 B( 22-C , 25-C ) :   1.0562 B( 25-C , 26-H ) :   0.9577
B( 25-C , 27-H ) :   0.9558 B( 25-C , 28-C ) :   1.0702 B( 28-C , 29-H ) :   0.9802
B( 28-C , 30-H ) :   0.9759 B( 28-C , 31-H ) :   0.9772

Dispersion correction           -0.015036802
FINAL SINGLE POINT ENERGY     -1339.868338126773

DIPOLE MOMENT
-------------
                                X             Y             Z
Electronic contribution:     -8.25228       2.79075      -1.18688
Nuclear contribution   :      8.19280      -2.74625       1.09191
                        -----------------------------------------
Total Dipole Moment    :     -0.05948       0.04450      -0.09497
                        -----------------------------------------
Magnitude (a.u.)       :      0.12057
Magnitude (Debye)      :      0.30648

Rotational constants in cm-1:     0.021188     0.009146     0.006916
Rotational constants in MHz :   635.209738   274.176880   207.350874

                             ****ORCA TERMINATED NORMALLY****
TOTAL RUN TIME: 0 days 0 hours 0 minutes 33 seconds 832 msec
