                         Program Version 4.2.1 -  RELEASE  -
|  1> ! wB97X-D3 SP def2-SVP
|  2> %pal
|  3> nprocs 16
|  4> end
|  5>
|  6> * xyz 0 1
|  7> S 	 -36.5856 	 49.5066 	 104.444
|  8> C 	 -36.0102 	 49.832 	 106.024
|  9> C 	 -36.3484 	 51.0756 	 106.493
| 10> C 	 -37.2036 	 51.7436 	 105.55
| 11> C 	 -37.5697 	 50.9791 	 104.455
| 12> H 	 -37.5517 	 52.7379 	 105.535
| 13> C 	 -35.7078 	 51.757 	 107.678
| 14> H 	 -34.7725 	 51.3086 	 107.882
| 15> H 	 -36.3011 	 51.5443 	 108.54
| 16> C 	 -35.5552 	 53.3003 	 107.632
| 17> H 	 -36.4688 	 53.7896 	 107.704
| 18> H 	 -35.037 	 53.4828 	 108.569
| 19> C 	 -34.8537 	 53.8053 	 106.339
| 20> H 	 -35.5327 	 53.5849 	 105.506
| 21> H 	 -34.8107 	 54.8606 	 106.347
| 22> H 	 -33.8104 	 53.3802 	 106.178
| 23> S 	 -37.4153 	 51.8921 	 101.845
| 24> C 	 -38.8947 	 52.2841 	 100.932
| 25> C 	 -40.0298 	 52.23 	 101.756
| 26> C 	 -39.697 	 51.8068 	 103.124
| 27> C 	 -38.3533 	 51.4419 	 103.283
| 28> H 	 -40.9894 	 52.4546 	 101.259
| 29> C 	 -40.8024 	 51.6275 	 104.145
| 30> H 	 -41.4809 	 52.5142 	 104.191
| 31> H 	 -40.4087 	 51.7112 	 105.154
| 32> C 	 -41.6023 	 50.3427 	 103.906
| 33> H 	 -41.0115 	 49.4788 	 104.156
| 34> H 	 -41.822 	 50.252 	 102.834
| 35> C 	 -42.8918 	 50.1968 	 104.787
| 36> H 	 -43.6804 	 49.6963 	 104.236
| 37> H 	 -43.442 	 51.0415 	 104.964
| 38> H 	 -42.7247 	 49.7265 	 105.767
| 39> H 	 -35.3425 	 49.1668 	 106.526
| 40> H 	 -39.0376 	 52.8583 	 99.9587
| 41> *
| 42>
| 43>                          ****END OF INPUT****

CARTESIAN COORDINATES (ANGSTROEM)
---------------------------------
  S    -36.585600   49.506600  104.444000
  C    -36.010200   49.832000  106.024000
  C    -36.348400   51.075600  106.493000
  C    -37.203600   51.743600  105.550000
  C    -37.569700   50.979100  104.455000
  H    -37.551700   52.737900  105.535000
  C    -35.707800   51.757000  107.678000
  H    -34.772500   51.308600  107.882000
  H    -36.301100   51.544300  108.540000
  C    -35.555200   53.300300  107.632000
  H    -36.468800   53.789600  107.704000
  H    -35.037000   53.482800  108.569000
  C    -34.853700   53.805300  106.339000
  H    -35.532700   53.584900  105.506000
  H    -34.810700   54.860600  106.347000
  H    -33.810400   53.380200  106.178000
  S    -37.415300   51.892100  101.845000
  C    -38.894700   52.284100  100.932000
  C    -40.029800   52.230000  101.756000
  C    -39.697000   51.806800  103.124000
  C    -38.353300   51.441900  103.283000
  H    -40.989400   52.454600  101.259000
  C    -40.802400   51.627500  104.145000
  H    -41.480900   52.514200  104.191000
  H    -40.408700   51.711200  105.154000
  C    -41.602300   50.342700  103.906000
  H    -41.011500   49.478800  104.156000
  H    -41.822000   50.252000  102.834000
  C    -42.891800   50.196800  104.787000
  H    -43.680400   49.696300  104.236000
  H    -43.442000   51.041500  104.964000
  H    -42.724700   49.726500  105.767000
  H    -35.342500   49.166800  106.526000
  H    -39.037600   52.858300   99.958700

 Total Charge           Charge          ....    0
 Multiplicity           Mult            ....    1
 Number of Electrons    NEL             ....  134
 Basis Dimension        Dim             ....  322

ORBITAL ENERGIES
----------------

  NO   OCC          E(Eh)            E(eV)
   0   2.0000     -88.966250     -2420.8947
   1   2.0000     -88.965115     -2420.8638
   2   2.0000     -10.333519      -281.1893
   3   2.0000     -10.330776      -281.1147
   4   2.0000     -10.324954      -280.9563
   5   2.0000     -10.312130      -280.6073
   6   2.0000     -10.309798      -280.5439
   7   2.0000     -10.301791      -280.3260
   8   2.0000     -10.299970      -280.2764
   9   2.0000     -10.293874      -280.1106
  10   2.0000     -10.290605      -280.0216
  11   2.0000     -10.286324      -279.9051
  12   2.0000     -10.285416      -279.8804
  13   2.0000     -10.285160      -279.8734
  14   2.0000     -10.278330      -279.6876
  15   2.0000     -10.269569      -279.4492
  16   2.0000      -8.080235      -219.8744
  17   2.0000      -8.079863      -219.8642
  18   2.0000      -6.038676      -164.3207
  19   2.0000      -6.038596      -164.3185
  20   2.0000      -6.034715      -164.2129
  21   2.0000      -6.034527      -164.2078
  22   2.0000      -6.031020      -164.1124
  23   2.0000      -6.030437      -164.0965
  24   2.0000      -1.002943       -27.2915
  25   2.0000      -0.977853       -26.6087
  26   2.0000      -0.911053       -24.7910
  27   2.0000      -0.901567       -24.5329
  28   2.0000      -0.867517       -23.6063
  29   2.0000      -0.844544       -22.9812
  30   2.0000      -0.840911       -22.8823
  31   2.0000      -0.817373       -22.2419
  32   2.0000      -0.785185       -21.3660
  33   2.0000      -0.771502       -20.9936
  34   2.0000      -0.710568       -19.3355
  35   2.0000      -0.701267       -19.0824
  36   2.0000      -0.690532       -18.7903
  37   2.0000      -0.652630       -17.7590
  38   2.0000      -0.648357       -17.6427
  39   2.0000      -0.623301       -16.9609
  40   2.0000      -0.589344       -16.0369
  41   2.0000      -0.567294       -15.4369
  42   2.0000      -0.557564       -15.1721
  43   2.0000      -0.552902       -15.0452
  44   2.0000      -0.530153       -14.4262
  45   2.0000      -0.521800       -14.1989
  46   2.0000      -0.514228       -13.9928
  47   2.0000      -0.512167       -13.9368
  48   2.0000      -0.502619       -13.6770
  49   2.0000      -0.497420       -13.5355
  50   2.0000      -0.488863       -13.3026
  51   2.0000      -0.481027       -13.0894
  52   2.0000      -0.470797       -12.8110
  53   2.0000      -0.463685       -12.6175
  54   2.0000      -0.456615       -12.4251
  55   2.0000      -0.443306       -12.0630
  56   2.0000      -0.437191       -11.8966
  57   2.0000      -0.435597       -11.8532
  58   2.0000      -0.432076       -11.7574
  59   2.0000      -0.431479       -11.7411
  60   2.0000      -0.420948       -11.4546
  61   2.0000      -0.419404       -11.4126
  62   2.0000      -0.411737       -11.2039
  63   2.0000      -0.340997        -9.2790
  64   2.0000      -0.326721        -8.8905
  65   2.0000      -0.325194        -8.8490
  66   2.0000      -0.300327        -8.1723
  67   0.0000       0.036299         0.9877
  68   0.0000       0.057050         1.5524
  69   0.0000       0.108301         2.9470
  70   0.0000       0.116282         3.1642
  71   0.0000       0.131287         3.5725

MULLIKEN ATOMIC CHARGES
-----------------------
   0 S :    0.115313
   1 C :   -0.115916
   2 C :   -0.080287
   3 C :    0.047415
   4 C :   -0.182755
   5 H :    0.005446
   6 C :    0.103009
   7 H :    0.009532
   8 H :    0.026649
   9 C :   -0.065726
  10 H :    0.016493
  11 H :    0.027702
  12 C :   -0.047070
  13 H :    0.032483
  14 H :    0.023343
  15 H :    0.048564
  16 S :    0.103213
  17 C :   -0.117225
  18 C :   -0.065708
  19 C :   -0.035001
  20 C :   -0.158304
  21 H :    0.039457
  22 C :    0.070062
  23 H :    0.023562
  24 H :    0.013985
  25 C :   -0.061340
  26 H :    0.033600
  27 H :    0.030602
  28 C :   -0.023181
  29 H :    0.019794
  30 H :   -0.003296
  31 H :    0.043298
  32 H :    0.038404
  33 H :    0.083881
Sum of atomic charges:   -0.0000000

LOEWDIN ATOMIC CHARGES
----------------------
   0 S :    0.413526
   1 C :   -0.195981
   2 C :   -0.065850
   3 C :   -0.052185
   4 C :   -0.199063
   5 H :    0.024143
   6 C :   -0.026221
   7 H :    0.023872
   8 H :    0.032048
   9 C :   -0.032658
  10 H :    0.014518
  11 H :    0.027673
  12 C :   -0.065633
  13 H :    0.029598
  14 H :    0.018842
  15 H :    0.034688
  16 S :    0.384294
  17 C :   -0.199288
  18 C :   -0.076024
  19 C :   -0.050391
  20 C :   -0.193826
  21 H :    0.038497
  22 C :   -0.040160
  23 H :    0.032810
  24 H :    0.027335
  25 C :   -0.033406
  26 H :    0.028381
  27 H :    0.025952
  28 C :   -0.069963
  29 H :    0.030684
  30 H :    0.010491
  31 H :    0.030750
  32 H :    0.022791
  33 H :    0.049753

  Mayer bond orders larger than 0.100000
B(  0-S ,  1-C ) :   1.1588 B(  0-S ,  4-C ) :   1.1497 B(  1-C ,  2-C ) :   1.6088
B(  1-C , 32-H ) :   0.9708 B(  2-C ,  3-C ) :   1.2330 B(  2-C ,  6-C ) :   1.0110
B(  3-C ,  4-C ) :   1.5849 B(  3-C ,  5-H ) :   0.9913 B(  4-C , 20-C ) :   1.0181
B(  6-C ,  7-H ) :   0.9438 B(  6-C ,  8-H ) :   0.9235 B(  6-C ,  9-C ) :   1.0903
B(  9-C , 10-H ) :   0.9463 B(  9-C , 11-H ) :   0.9535 B(  9-C , 12-C ) :   1.0829
B( 12-C , 13-H ) :   0.9680 B( 12-C , 14-H ) :   0.9721 B( 12-C , 15-H ) :   0.9760
B( 16-S , 17-C ) :   1.1360 B( 16-S , 20-C ) :   1.1328 B( 17-C , 18-C ) :   1.6541
B( 17-C , 33-H ) :   0.9523 B( 18-C , 19-C ) :   1.2033 B( 18-C , 21-H ) :   0.9821
B( 19-C , 20-C ) :   1.6229 B( 19-C , 22-C ) :   1.0583 B( 22-C , 23-H ) :   0.9371
B( 22-C , 24-H ) :   0.9282 B( 22-C , 25-C ) :   1.0568 B( 25-C , 26-H ) :   0.9559
B( 25-C , 27-H ) :   0.9640 B( 25-C , 28-C ) :   1.0674 B( 28-C , 29-H ) :   0.9711
B( 28-C , 30-H ) :   0.9726 B( 28-C , 31-H ) :   0.9789

Dispersion correction           -0.014326787
FINAL SINGLE POINT ENERGY     -1339.861301110551

DIPOLE MOMENT
-------------
                                X             Y             Z
Electronic contribution:     10.18446      -7.65123     -15.41774
Nuclear contribution   :    -10.42369       8.08347      15.86706
                        -----------------------------------------
Total Dipole Moment    :     -0.23923       0.43224       0.44932
                        -----------------------------------------
Magnitude (a.u.)       :      0.66780
Magnitude (Debye)      :      1.69741

Rotational constants in cm-1:     0.017744     0.008436     0.007389
Rotational constants in MHz :   531.964327   252.919387   221.528731

                             ****ORCA TERMINATED NORMALLY****
TOTAL RUN TIME: 0 days 0 hours 0 minutes 30 seconds 884 msec
