                         Program Version 4.2.1 -  RELEASE  -
|  1> ! wB97X-D3 SP def2-SVP
|  2> %pal
|  3> nprocs 16
|  4> end
|  5>
|  6> * xyz 0 1
|  7> S 	 -78.3514 	 44.1293 	 141.58
|  8> C 	 -78.9392 	 42.5613 	 141.916
|  9> C 	 -78.7926 	 41.6447 	 140.868
| 10> C 	 -78.4254 	 42.3604 	 139.645
| 11> C 	 -78.1679 	 43.7078 	 139.867
| 12> H 	 -78.3258 	 41.8465 	 138.711
| 13> C 	 -79.129 	 40.1512 	 140.923
| 14> H 	 -79.7044 	 40.0195 	 139.991
| 15> H 	 -79.7777 	 39.978 	 141.857
| 16> C 	 -77.9912 	 39.1474 	 141.046
| 17> H 	 -77.3105 	 39.4219 	 141.826
| 18> H 	 -78.4303 	 38.1729 	 141.129
| 19> C 	 -77.2365 	 39.1286 	 139.679
| 20> H 	 -76.708 	 38.1641 	 139.525
| 21> H 	 -77.8805 	 39.1674 	 138.792
| 22> H 	 -76.5139 	 39.9552 	 139.594
| 23> S 	 -78.9039 	 45.7647 	 138.199
| 24> C 	 -77.5954 	 46.7316 	 137.57
| 25> C 	 -76.4231 	 46.1278 	 137.704
| 26> C 	 -76.3946 	 44.9992 	 138.538
| 27> C 	 -77.711 	 44.6666 	 138.918
| 28> H 	 -75.6273 	 46.4342 	 137.032
| 29> C 	 -75.1577 	 44.3962 	 139.052
| 30> H 	 -75.4166 	 44.0813 	 140.044
| 31> H 	 -74.3276 	 45.0718 	 139.186
| 32> C 	 -74.6288 	 43.1944 	 138.213
| 33> H 	 -75.4559 	 42.5555 	 137.998
| 34> H 	 -73.9917 	 42.669 	 138.874
| 35> C 	 -73.8374 	 43.5798 	 137.007
| 36> H 	 -73.5283 	 42.6861 	 136.48
| 37> H 	 -72.9654 	 44.2011 	 137.314
| 38> H 	 -74.3212 	 44.159 	 136.278
| 39> H 	 -79.114 	 42.2325 	 142.94
| 40> H 	 -77.7951 	 47.4845 	 136.833
| 41> *
| 42>
| 43>                          ****END OF INPUT****

CARTESIAN COORDINATES (ANGSTROEM)
---------------------------------
  S    -78.351400   44.129300  141.580000
  C    -78.939200   42.561300  141.916000
  C    -78.792600   41.644700  140.868000
  C    -78.425400   42.360400  139.645000
  C    -78.167900   43.707800  139.867000
  H    -78.325800   41.846500  138.711000
  C    -79.129000   40.151200  140.923000
  H    -79.704400   40.019500  139.991000
  H    -79.777700   39.978000  141.857000
  C    -77.991200   39.147400  141.046000
  H    -77.310500   39.421900  141.826000
  H    -78.430300   38.172900  141.129000
  C    -77.236500   39.128600  139.679000
  H    -76.708000   38.164100  139.525000
  H    -77.880500   39.167400  138.792000
  H    -76.513900   39.955200  139.594000
  S    -78.903900   45.764700  138.199000
  C    -77.595400   46.731600  137.570000
  C    -76.423100   46.127800  137.704000
  C    -76.394600   44.999200  138.538000
  C    -77.711000   44.666600  138.918000
  H    -75.627300   46.434200  137.032000
  C    -75.157700   44.396200  139.052000
  H    -75.416600   44.081300  140.044000
  H    -74.327600   45.071800  139.186000
  C    -74.628800   43.194400  138.213000
  H    -75.455900   42.555500  137.998000
  H    -73.991700   42.669000  138.874000
  C    -73.837400   43.579800  137.007000
  H    -73.528300   42.686100  136.480000
  H    -72.965400   44.201100  137.314000
  H    -74.321200   44.159000  136.278000
  H    -79.114000   42.232500  142.940000
  H    -77.795100   47.484500  136.833000

 Total Charge           Charge          ....    0
 Multiplicity           Mult            ....    1
 Number of Electrons    NEL             ....  134
 Basis Dimension        Dim             ....  322

ORBITAL ENERGIES
----------------

  NO   OCC          E(Eh)            E(eV)
   0   2.0000     -88.966168     -2420.8925
   1   2.0000     -88.960434     -2420.7365
   2   2.0000     -10.325689      -280.9763
   3   2.0000     -10.321491      -280.8621
   4   2.0000     -10.311900      -280.6011
   5   2.0000     -10.306036      -280.4415
   6   2.0000     -10.303647      -280.3765
   7   2.0000     -10.299660      -280.2680
   8   2.0000     -10.298761      -280.2435
   9   2.0000     -10.297706      -280.2148
  10   2.0000     -10.287986      -279.9503
  11   2.0000     -10.282600      -279.8038
  12   2.0000     -10.281839      -279.7831
  13   2.0000     -10.281430      -279.7719
  14   2.0000     -10.277844      -279.6744
  15   2.0000     -10.272774      -279.5364
  16   2.0000      -8.081167      -219.8997
  17   2.0000      -8.075327      -219.7408
  18   2.0000      -6.039505      -164.3433
  19   2.0000      -6.035738      -164.2408
  20   2.0000      -6.033734      -164.1862
  21   2.0000      -6.031983      -164.1386
  22   2.0000      -6.029984      -164.0842
  23   2.0000      -6.026012      -163.9761
  24   2.0000      -1.006085       -27.3770
  25   2.0000      -0.983539       -26.7635
  26   2.0000      -0.914337       -24.8804
  27   2.0000      -0.911890       -24.8138
  28   2.0000      -0.872261       -23.7354
  29   2.0000      -0.853673       -23.2296
  30   2.0000      -0.845349       -23.0031
  31   2.0000      -0.813735       -22.1428
  32   2.0000      -0.784444       -21.3458
  33   2.0000      -0.768002       -20.8984
  34   2.0000      -0.710739       -19.3402
  35   2.0000      -0.703350       -19.1391
  36   2.0000      -0.693885       -18.8816
  37   2.0000      -0.655606       -17.8399
  38   2.0000      -0.641867       -17.4661
  39   2.0000      -0.614274       -16.7152
  40   2.0000      -0.601151       -16.3582
  41   2.0000      -0.576442       -15.6858
  42   2.0000      -0.557806       -15.1787
  43   2.0000      -0.548617       -14.9286
  44   2.0000      -0.544843       -14.8259
  45   2.0000      -0.538709       -14.6590
  46   2.0000      -0.518070       -14.0974
  47   2.0000      -0.513002       -13.9595
  48   2.0000      -0.495246       -13.4763
  49   2.0000      -0.491055       -13.3623
  50   2.0000      -0.488294       -13.2872
  51   2.0000      -0.483962       -13.1693
  52   2.0000      -0.475632       -12.9426
  53   2.0000      -0.464502       -12.6398
  54   2.0000      -0.459654       -12.5078
  55   2.0000      -0.449170       -12.2225
  56   2.0000      -0.442213       -12.0332
  57   2.0000      -0.436537       -11.8788
  58   2.0000      -0.434003       -11.8098
  59   2.0000      -0.429213       -11.6795
  60   2.0000      -0.423659       -11.5284
  61   2.0000      -0.419245       -11.4082
  62   2.0000      -0.411860       -11.2073
  63   2.0000      -0.334462        -9.1012
  64   2.0000      -0.329382        -8.9629
  65   2.0000      -0.314079        -8.5465
  66   2.0000      -0.308228        -8.3873
  67   0.0000       0.043042         1.1712
  68   0.0000       0.051371         1.3979
  69   0.0000       0.110690         3.0120
  70   0.0000       0.121019         3.2931
  71   0.0000       0.121739         3.3127

MULLIKEN ATOMIC CHARGES
-----------------------
   0 S :    0.130506
   1 C :   -0.112914
   2 C :   -0.110934
   3 C :    0.060665
   4 C :   -0.179447
   5 H :    0.006995
   6 C :   -0.003016
   7 H :    0.040004
   8 H :    0.036878
   9 C :    0.002421
  10 H :    0.035979
  11 H :    0.033315
  12 C :   -0.106965
  13 H :    0.033502
  14 H :    0.023752
  15 H :    0.047557
  16 S :    0.103867
  17 C :   -0.076309
  18 C :   -0.042701
  19 C :    0.003143
  20 C :   -0.203896
  21 H :    0.020536
  22 C :    0.076446
  23 H :    0.013303
  24 H :    0.016203
  25 C :   -0.028479
  26 H :    0.016870
  27 H :    0.016734
  28 C :   -0.026575
  29 H :    0.032259
  30 H :    0.025738
  31 H :    0.015872
  32 H :    0.048943
  33 H :    0.049746
Sum of atomic charges:    0.0000000

LOEWDIN ATOMIC CHARGES
----------------------
   0 S :    0.417374
   1 C :   -0.210694
   2 C :   -0.066397
   3 C :   -0.049349
   4 C :   -0.199967
   5 H :    0.027632
   6 C :   -0.037980
   7 H :    0.033770
   8 H :    0.037323
   9 C :   -0.030770
  10 H :    0.026963
  11 H :    0.026167
  12 C :   -0.074931
  13 H :    0.026878
  14 H :    0.020429
  15 H :    0.025916
  16 S :    0.395075
  17 C :   -0.179474
  18 C :   -0.077418
  19 C :   -0.045887
  20 C :   -0.200560
  21 H :    0.033294
  22 C :   -0.028185
  23 H :    0.029449
  24 H :    0.028385
  25 C :   -0.027716
  26 H :    0.018967
  27 H :    0.021059
  28 C :   -0.062752
  29 H :    0.028981
  30 H :    0.029282
  31 H :    0.015030
  32 H :    0.025645
  33 H :    0.024461

  Mayer bond orders larger than 0.100000
B(  0-S ,  1-C ) :   1.1566 B(  0-S ,  4-C ) :   1.1387 B(  1-C ,  2-C ) :   1.6242
B(  1-C , 32-H ) :   0.9587 B(  2-C ,  3-C ) :   1.2330 B(  2-C ,  6-C ) :   1.0082
B(  3-C ,  4-C ) :   1.5876 B(  3-C ,  5-H ) :   0.9920 B(  4-C , 20-C ) :   1.0410
B(  6-C ,  7-H ) :   0.9472 B(  6-C ,  8-H ) :   0.9449 B(  6-C ,  9-C ) :   1.0783
B(  9-C , 10-H ) :   0.9531 B(  9-C , 11-H ) :   0.9550 B(  9-C , 12-C ) :   1.0705
B( 12-C , 13-H ) :   0.9748 B( 12-C , 14-H ) :   0.9755 B( 12-C , 15-H ) :   0.9760
B( 16-S , 17-C ) :   1.1424 B( 16-S , 20-C ) :   1.1495 B( 17-C , 18-C ) :   1.6500
B( 17-C , 33-H ) :   0.9600 B( 18-C , 19-C ) :   1.2320 B( 18-C , 21-H ) :   0.9803
B( 19-C , 20-C ) :   1.5829 B( 19-C , 22-C ) :   1.0569 B( 22-C , 23-H ) :   0.9110
B( 22-C , 24-H ) :   0.9395 B( 22-C , 25-C ) :   1.0771 B( 25-C , 26-H ) :   0.9518
B( 25-C , 27-H ) :   0.9513 B( 25-C , 28-C ) :   1.0872 B( 28-C , 29-H ) :   0.9686
B( 28-C , 30-H ) :   0.9706 B( 28-C , 31-H ) :   0.9742

Dispersion correction           -0.015241152
FINAL SINGLE POINT ENERGY     -1339.875354464219

DIPOLE MOMENT
-------------
                                X             Y             Z
Electronic contribution:    -16.28139      21.91925       5.62512
Nuclear contribution   :     16.73425     -22.48851      -5.78437
                        -----------------------------------------
Total Dipole Moment    :      0.45286      -0.56927      -0.15925
                        -----------------------------------------
Magnitude (a.u.)       :      0.74465
Magnitude (Debye)      :      1.89276

Rotational constants in cm-1:     0.018212     0.009554     0.007271
Rotational constants in MHz :   545.974381   286.428339   217.989339

                             ****ORCA TERMINATED NORMALLY****
TOTAL RUN TIME: 0 days 0 hours 0 minutes 36 seconds 765 msec
