                         Program Version 4.2.1 -  RELEASE  -
|  1> ! wB97X-D3 SP def2-SVP
|  2> %pal
|  3> nprocs 16
|  4> end
|  5>
|  6> * xyz 0 1
|  7> S 	 -63.5458 	 52.7621 	 121.502
|  8> C 	 -65.2247 	 52.5273 	 122.131
|  9> C 	 -65.6033 	 51.2184 	 121.9
| 10> C 	 -64.691 	 50.4905 	 121.018
| 11> C 	 -63.4952 	 51.1207 	 120.814
| 12> H 	 -64.8213 	 49.4973 	 120.555
| 13> C 	 -66.9767 	 50.6786 	 122.328
| 14> H 	 -67.4819 	 50.4898 	 121.452
| 15> H 	 -67.5947 	 51.4439 	 122.861
| 16> C 	 -66.9614 	 49.4403 	 123.229
| 17> H 	 -66.7201 	 48.4742 	 122.754
| 18> H 	 -66.1752 	 49.5431 	 124.012
| 19> C 	 -68.2639 	 49.266 	 123.888
| 20> H 	 -68.3547 	 48.3871 	 124.569
| 21> H 	 -68.3139 	 50.0927 	 124.624
| 22> H 	 -69.1118 	 49.3339 	 123.213
| 23> S 	 -61.1009 	 49.8065 	 120.824
| 24> C 	 -60.1518 	 49.7359 	 119.41
| 25> C 	 -60.8261 	 50.2134 	 118.312
| 26> C 	 -62.1204 	 50.6972 	 118.647
| 27> C 	 -62.4132 	 50.5715 	 119.993
| 28> H 	 -60.516 	 50.0573 	 117.29
| 29> C 	 -62.8987 	 51.6349 	 117.703
| 30> H 	 -62.1635 	 52.3598 	 117.315
| 31> H 	 -63.6665 	 52.0856 	 118.306
| 32> C 	 -63.6708 	 50.9122 	 116.543
| 33> H 	 -64.2888 	 50.1262 	 116.921
| 34> H 	 -63.0195 	 50.4816 	 115.838
| 35> C 	 -64.5776 	 51.8308 	 115.769
| 36> H 	 -65.0379 	 51.3033 	 114.885
| 37> H 	 -64.1133 	 52.6749 	 115.285
| 38> H 	 -65.3816 	 52.1618 	 116.394
| 39> H 	 -65.9024 	 53.2921 	 122.62
| 40> H 	 -59.1102 	 49.4925 	 119.298
| 41> *
| 42>
| 43>                          ****END OF INPUT****

CARTESIAN COORDINATES (ANGSTROEM)
---------------------------------
  S    -63.545800   52.762100  121.502000
  C    -65.224700   52.527300  122.131000
  C    -65.603300   51.218400  121.900000
  C    -64.691000   50.490500  121.018000
  C    -63.495200   51.120700  120.814000
  H    -64.821300   49.497300  120.555000
  C    -66.976700   50.678600  122.328000
  H    -67.481900   50.489800  121.452000
  H    -67.594700   51.443900  122.861000
  C    -66.961400   49.440300  123.229000
  H    -66.720100   48.474200  122.754000
  H    -66.175200   49.543100  124.012000
  C    -68.263900   49.266000  123.888000
  H    -68.354700   48.387100  124.569000
  H    -68.313900   50.092700  124.624000
  H    -69.111800   49.333900  123.213000
  S    -61.100900   49.806500  120.824000
  C    -60.151800   49.735900  119.410000
  C    -60.826100   50.213400  118.312000
  C    -62.120400   50.697200  118.647000
  C    -62.413200   50.571500  119.993000
  H    -60.516000   50.057300  117.290000
  C    -62.898700   51.634900  117.703000
  H    -62.163500   52.359800  117.315000
  H    -63.666500   52.085600  118.306000
  C    -63.670800   50.912200  116.543000
  H    -64.288800   50.126200  116.921000
  H    -63.019500   50.481600  115.838000
  C    -64.577600   51.830800  115.769000
  H    -65.037900   51.303300  114.885000
  H    -64.113300   52.674900  115.285000
  H    -65.381600   52.161800  116.394000
  H    -65.902400   53.292100  122.620000
  H    -59.110200   49.492500  119.298000

 Total Charge           Charge          ....    0
 Multiplicity           Mult            ....    1
 Number of Electrons    NEL             ....  134
 Basis Dimension        Dim             ....  322

ORBITAL ENERGIES
----------------

  NO   OCC          E(Eh)            E(eV)
   0   2.0000     -88.965353     -2420.8703
   1   2.0000     -88.964990     -2420.8604
   2   2.0000     -10.330673      -281.1119
   3   2.0000     -10.325506      -280.9713
   4   2.0000     -10.321638      -280.8661
   5   2.0000     -10.313602      -280.6474
   6   2.0000     -10.307667      -280.4859
   7   2.0000     -10.299765      -280.2709
   8   2.0000     -10.299375      -280.2603
   9   2.0000     -10.291770      -280.0533
  10   2.0000     -10.290828      -280.0277
  11   2.0000     -10.288751      -279.9711
  12   2.0000     -10.284797      -279.8635
  13   2.0000     -10.277694      -279.6703
  14   2.0000     -10.277464      -279.6640
  15   2.0000     -10.272341      -279.5246
  16   2.0000      -8.081245      -219.9018
  17   2.0000      -8.078167      -219.8181
  18   2.0000      -6.039629      -164.3467
  19   2.0000      -6.036948      -164.2737
  20   2.0000      -6.035482      -164.2338
  21   2.0000      -6.032929      -164.1644
  22   2.0000      -6.032156      -164.1433
  23   2.0000      -6.028655      -164.0480
  24   2.0000      -1.008495       -27.4425
  25   2.0000      -0.980475       -26.6801
  26   2.0000      -0.916915       -24.9505
  27   2.0000      -0.905513       -24.6403
  28   2.0000      -0.872586       -23.7443
  29   2.0000      -0.853922       -23.2364
  30   2.0000      -0.843360       -22.9490
  31   2.0000      -0.816441       -22.2165
  32   2.0000      -0.778645       -21.1880
  33   2.0000      -0.768392       -20.9090
  34   2.0000      -0.704385       -19.1673
  35   2.0000      -0.697565       -18.9817
  36   2.0000      -0.691006       -18.8032
  37   2.0000      -0.660908       -17.9842
  38   2.0000      -0.639907       -17.4128
  39   2.0000      -0.613488       -16.6938
  40   2.0000      -0.592470       -16.1219
  41   2.0000      -0.574478       -15.6324
  42   2.0000      -0.571783       -15.5590
  43   2.0000      -0.564323       -15.3560
  44   2.0000      -0.530234       -14.4284
  45   2.0000      -0.519537       -14.1373
  46   2.0000      -0.517423       -14.0798
  47   2.0000      -0.510120       -13.8811
  48   2.0000      -0.508491       -13.8367
  49   2.0000      -0.500593       -13.6218
  50   2.0000      -0.495698       -13.4886
  51   2.0000      -0.477189       -12.9850
  52   2.0000      -0.466857       -12.7038
  53   2.0000      -0.461786       -12.5658
  54   2.0000      -0.457828       -12.4581
  55   2.0000      -0.449858       -12.2413
  56   2.0000      -0.446328       -12.1452
  57   2.0000      -0.435734       -11.8569
  58   2.0000      -0.428564       -11.6618
  59   2.0000      -0.422501       -11.4968
  60   2.0000      -0.418847       -11.3974
  61   2.0000      -0.416846       -11.3430
  62   2.0000      -0.408765       -11.1231
  63   2.0000      -0.332655        -9.0520
  64   2.0000      -0.329023        -8.9532
  65   2.0000      -0.321179        -8.7397
  66   2.0000      -0.316186        -8.6038
  67   0.0000       0.048619         1.3230
  68   0.0000       0.050834         1.3833
  69   0.0000       0.113352         3.0845
  70   0.0000       0.121948         3.3184
  71   0.0000       0.127480         3.4689

MULLIKEN ATOMIC CHARGES
-----------------------
   0 S :    0.100303
   1 C :   -0.151770
   2 C :   -0.071296
   3 C :    0.034507
   4 C :   -0.154766
   5 H :    0.030825
   6 C :    0.077302
   7 H :    0.018081
   8 H :    0.016463
   9 C :   -0.070453
  10 H :    0.029132
  11 H :    0.032965
  12 C :   -0.068050
  13 H :    0.037724
  14 H :    0.023095
  15 H :    0.034228
  16 S :    0.129658
  17 C :   -0.078747
  18 C :   -0.042403
  19 C :   -0.013461
  20 C :   -0.210245
  21 H :    0.022953
  22 C :    0.057851
  23 H :    0.044181
  24 H :    0.023232
  25 C :   -0.047518
  26 H :    0.021558
  27 H :    0.011371
  28 C :   -0.053881
  29 H :    0.029955
  30 H :    0.023795
  31 H :    0.028970
  32 H :    0.079100
  33 H :    0.055342
Sum of atomic charges:   -0.0000000

LOEWDIN ATOMIC CHARGES
----------------------
   0 S :    0.363629
   1 C :   -0.189971
   2 C :   -0.060687
   3 C :   -0.059357
   4 C :   -0.191699
   5 H :    0.039271
   6 C :   -0.025125
   7 H :    0.021724
   8 H :    0.033175
   9 C :   -0.049801
  10 H :    0.023076
  11 H :    0.029465
  12 C :   -0.070666
  13 H :    0.030663
  14 H :    0.025488
  15 H :    0.022665
  16 S :    0.439568
  17 C :   -0.194812
  18 C :   -0.076507
  19 C :   -0.052867
  20 C :   -0.217241
  21 H :    0.031335
  22 C :   -0.020642
  23 H :    0.036492
  24 H :    0.026372
  25 C :   -0.036569
  26 H :    0.023605
  27 H :    0.013598
  28 C :   -0.066644
  29 H :    0.031676
  30 H :    0.020449
  31 H :    0.020630
  32 H :    0.047681
  33 H :    0.032027

  Mayer bond orders larger than 0.100000
B(  0-S ,  1-C ) :   1.1106 B(  0-S ,  4-C ) :   1.1108 B(  1-C ,  2-C ) :   1.6558
B(  1-C , 32-H ) :   0.9597 B(  2-C ,  3-C ) :   1.1789 B(  2-C ,  6-C ) :   1.0271
B(  3-C ,  4-C ) :   1.6446 B(  3-C ,  5-H ) :   0.9847 B(  4-C , 20-C ) :   1.0094
B(  6-C ,  7-H ) :   0.9308 B(  6-C ,  8-H ) :   0.9501 B(  6-C ,  9-C ) :   1.0490
B(  9-C , 10-H ) :   0.9502 B(  9-C , 11-H ) :   0.9582 B(  9-C , 12-C ) :   1.0944
B( 12-C , 13-H ) :   0.9712 B( 12-C , 14-H ) :   0.9729 B( 12-C , 15-H ) :   0.9720
B( 16-S , 17-C ) :   1.1757 B( 16-S , 20-C ) :   1.1534 B( 17-C , 18-C ) :   1.6000
B( 17-C , 33-H ) :   0.9649 B( 18-C , 19-C ) :   1.2642 B( 18-C , 21-H ) :   0.9853
B( 19-C , 20-C ) :   1.5972 B( 19-C , 22-C ) :   1.0389 B( 22-C , 23-H ) :   0.9455
B( 22-C , 24-H ) :   0.9343 B( 22-C , 25-C ) :   1.0591 B( 25-C , 26-H ) :   0.9538
B( 25-C , 27-H ) :   0.9565 B( 25-C , 28-C ) :   1.0973 B( 28-C , 29-H ) :   0.9721
B( 28-C , 30-H ) :   0.9731 B( 28-C , 31-H ) :   0.9753

Dispersion correction           -0.013655230
FINAL SINGLE POINT ENERGY     -1339.872674260351

DIPOLE MOMENT
-------------
                                X             Y             Z
Electronic contribution:     22.61288       3.96504       7.69388
Nuclear contribution   :    -23.02006      -4.11979      -8.01277
                        -----------------------------------------
Total Dipole Moment    :     -0.40719      -0.15475      -0.31889
                        -----------------------------------------
Magnitude (a.u.)       :      0.53985
Magnitude (Debye)      :      1.37219

Rotational constants in cm-1:     0.017875     0.007694     0.006605
Rotational constants in MHz :   535.878788   230.661073   198.016866

                             ****ORCA TERMINATED NORMALLY****
TOTAL RUN TIME: 0 days 0 hours 0 minutes 32 seconds 235 msec
