                         Program Version 4.2.1 -  RELEASE  -
|  1> ! wB97X-D3 SP def2-SVP
|  2> %pal
|  3> nprocs 16
|  4> end
|  5>
|  6> * xyz 0 1
|  7> S 	 1.62144 	 -15.8343 	 83.6074
|  8> C 	 0.853074 	 -17.2127 	 84.2024
|  9> C 	 -0.516669 	 -17.0889 	 84.0827
| 10> C 	 -0.99869 	 -15.8255 	 83.6569
| 11> C 	 0.0964267 	 -15.0666 	 83.2723
| 12> H 	 -1.99778 	 -15.5035 	 83.4807
| 13> C 	 -1.49522 	 -18.2122 	 84.4564
| 14> H 	 -2.41497 	 -17.7717 	 84.9356
| 15> H 	 -0.925885 	 -18.7748 	 85.2172
| 16> C 	 -1.85388 	 -19.2114 	 83.4229
| 17> H 	 -0.930568 	 -19.607 	 83.095
| 18> H 	 -2.16595 	 -20.1358 	 83.887
| 19> C 	 -2.80731 	 -18.7208 	 82.3298
| 20> H 	 -2.92109 	 -19.4484 	 81.5549
| 21> H 	 -3.77164 	 -18.3426 	 82.5833
| 22> H 	 -2.39381 	 -17.8695 	 81.7555
| 23> S 	 1.54594 	 -13.2058 	 81.8108
| 24> C 	 0.839641 	 -11.6544 	 81.4108
| 25> C 	 -0.440224 	 -11.6288 	 81.8595
| 26> C 	 -0.888202 	 -12.7142 	 82.5667
| 27> C 	 0.0394187 	 -13.7393 	 82.6451
| 28> H 	 -1.05765 	 -10.7698 	 81.6874
| 29> C 	 -2.3898 	 -12.7237 	 82.9772
| 30> H 	 -2.59091 	 -11.7472 	 83.1814
| 31> H 	 -2.60332 	 -13.3102 	 83.9153
| 32> C 	 -3.35641 	 -13.2812 	 81.8914
| 33> H 	 -3.15999 	 -14.3595 	 81.8773
| 34> H 	 -3.02955 	 -12.9049 	 80.9425
| 35> C 	 -4.82635 	 -12.969 	 82.1116
| 36> H 	 -4.95094 	 -12.122 	 82.865
| 37> H 	 -5.35963 	 -13.7989 	 82.5498
| 38> H 	 -5.32102 	 -12.8431 	 81.0868
| 39> H 	 1.31551 	 -18.107 	 84.536
| 40> H 	 1.24071 	 -10.7468 	 80.8371
| 41> *
| 42>
| 43>                          ****END OF INPUT****

CARTESIAN COORDINATES (ANGSTROEM)
---------------------------------
  S      1.621440  -15.834300   83.607400
  C      0.853074  -17.212700   84.202400
  C     -0.516669  -17.088900   84.082700
  C     -0.998690  -15.825500   83.656900
  C      0.096427  -15.066600   83.272300
  H     -1.997780  -15.503500   83.480700
  C     -1.495220  -18.212200   84.456400
  H     -2.414970  -17.771700   84.935600
  H     -0.925885  -18.774800   85.217200
  C     -1.853880  -19.211400   83.422900
  H     -0.930568  -19.607000   83.095000
  H     -2.165950  -20.135800   83.887000
  C     -2.807310  -18.720800   82.329800
  H     -2.921090  -19.448400   81.554900
  H     -3.771640  -18.342600   82.583300
  H     -2.393810  -17.869500   81.755500
  S      1.545940  -13.205800   81.810800
  C      0.839641  -11.654400   81.410800
  C     -0.440224  -11.628800   81.859500
  C     -0.888202  -12.714200   82.566700
  C      0.039419  -13.739300   82.645100
  H     -1.057650  -10.769800   81.687400
  C     -2.389800  -12.723700   82.977200
  H     -2.590910  -11.747200   83.181400
  H     -2.603320  -13.310200   83.915300
  C     -3.356410  -13.281200   81.891400
  H     -3.159990  -14.359500   81.877300
  H     -3.029550  -12.904900   80.942500
  C     -4.826350  -12.969000   82.111600
  H     -4.950940  -12.122000   82.865000
  H     -5.359630  -13.798900   82.549800
  H     -5.321020  -12.843100   81.086800
  H      1.315510  -18.107000   84.536000
  H      1.240710  -10.746800   80.837100

 Total Charge           Charge          ....    0
 Multiplicity           Mult            ....    1
 Number of Electrons    NEL             ....  134
 Basis Dimension        Dim             ....  322

ORBITAL ENERGIES
----------------

  NO   OCC          E(Eh)            E(eV)
   0   2.0000     -88.970352     -2421.0063
   1   2.0000     -88.965799     -2420.8825
   2   2.0000     -10.332885      -281.1721
   3   2.0000     -10.331951      -281.1467
   4   2.0000     -10.319525      -280.8086
   5   2.0000     -10.306488      -280.4538
   6   2.0000     -10.299455      -280.2624
   7   2.0000     -10.298457      -280.2353
   8   2.0000     -10.293107      -280.0897
   9   2.0000     -10.292654      -280.0773
  10   2.0000     -10.289761      -279.9986
  11   2.0000     -10.289723      -279.9976
  12   2.0000     -10.286767      -279.9172
  13   2.0000     -10.282538      -279.8021
  14   2.0000     -10.279356      -279.7155
  15   2.0000     -10.274214      -279.5756
  16   2.0000      -8.086088      -220.0336
  17   2.0000      -8.079669      -219.8590
  18   2.0000      -6.044487      -164.4788
  19   2.0000      -6.040464      -164.3694
  20   2.0000      -6.038286      -164.3101
  21   2.0000      -6.036899      -164.2724
  22   2.0000      -6.034303      -164.2017
  23   2.0000      -6.030363      -164.0945
  24   2.0000      -1.013622       -27.5821
  25   2.0000      -0.991220       -26.9725
  26   2.0000      -0.915775       -24.9195
  27   2.0000      -0.908477       -24.7209
  28   2.0000      -0.871797       -23.7228
  29   2.0000      -0.857655       -23.3380
  30   2.0000      -0.848395       -23.0860
  31   2.0000      -0.815677       -22.1957
  32   2.0000      -0.784814       -21.3559
  33   2.0000      -0.775465       -21.1015
  34   2.0000      -0.708908       -19.2904
  35   2.0000      -0.707371       -19.2485
  36   2.0000      -0.695313       -18.9204
  37   2.0000      -0.667443       -18.1620
  38   2.0000      -0.643648       -17.5145
  39   2.0000      -0.616225       -16.7683
  40   2.0000      -0.591828       -16.1045
  41   2.0000      -0.571863       -15.5612
  42   2.0000      -0.565392       -15.3851
  43   2.0000      -0.551074       -14.9955
  44   2.0000      -0.539689       -14.6857
  45   2.0000      -0.524574       -14.2744
  46   2.0000      -0.517933       -14.0937
  47   2.0000      -0.513447       -13.9716
  48   2.0000      -0.509894       -13.8749
  49   2.0000      -0.504178       -13.7194
  50   2.0000      -0.491956       -13.3868
  51   2.0000      -0.488647       -13.2968
  52   2.0000      -0.475572       -12.9410
  53   2.0000      -0.469475       -12.7751
  54   2.0000      -0.458088       -12.4652
  55   2.0000      -0.451545       -12.2872
  56   2.0000      -0.442029       -12.0282
  57   2.0000      -0.439180       -11.9507
  58   2.0000      -0.433526       -11.7968
  59   2.0000      -0.431261       -11.7352
  60   2.0000      -0.418533       -11.3889
  61   2.0000      -0.411616       -11.2007
  62   2.0000      -0.401588       -10.9278
  63   2.0000      -0.364082        -9.9072
  64   2.0000      -0.338482        -9.2106
  65   2.0000      -0.331619        -9.0238
  66   2.0000      -0.280730        -7.6390
  67   0.0000       0.019474         0.5299
  68   0.0000       0.084337         2.2949
  69   0.0000       0.103036         2.8038
  70   0.0000       0.120898         3.2898
  71   0.0000       0.127772         3.4768

MULLIKEN ATOMIC CHARGES
-----------------------
   0 S :    0.128695
   1 C :   -0.094580
   2 C :   -0.087128
   3 C :    0.012477
   4 C :   -0.099578
   5 H :   -0.010823
   6 C :    0.026525
   7 H :    0.030383
   8 H :    0.013973
   9 C :    0.014976
  10 H :   -0.008829
  11 H :    0.013422
  12 C :   -0.034865
  13 H :    0.024592
  14 H :    0.021499
  15 H :    0.027475
  16 S :    0.080768
  17 C :   -0.096103
  18 C :   -0.043834
  19 C :   -0.037558
  20 C :   -0.141307
  21 H :    0.005468
  22 C :    0.053774
  23 H :   -0.008027
  24 H :    0.034247
  25 C :   -0.044784
  26 H :    0.023261
  27 H :    0.019634
  28 C :   -0.067561
  29 H :    0.046866
  30 H :    0.030057
  31 H :    0.053249
  32 H :    0.032140
  33 H :    0.081496
Sum of atomic charges:   -0.0000000

LOEWDIN ATOMIC CHARGES
----------------------
   0 S :    0.440875
   1 C :   -0.220771
   2 C :   -0.057902
   3 C :   -0.061723
   4 C :   -0.184507
   5 H :    0.026580
   6 C :   -0.034705
   7 H :    0.030526
   8 H :    0.031786
   9 C :   -0.044212
  10 H :    0.021400
  11 H :    0.025963
  12 C :   -0.068016
  13 H :    0.025295
  14 H :    0.020587
  15 H :    0.030860
  16 S :    0.379201
  17 C :   -0.199028
  18 C :   -0.079923
  19 C :   -0.063791
  20 C :   -0.168691
  21 H :    0.028234
  22 C :   -0.021429
  23 H :    0.010649
  24 H :    0.031444
  25 C :   -0.042019
  26 H :    0.022831
  27 H :    0.019988
  28 C :   -0.077087
  29 H :    0.034809
  30 H :    0.023029
  31 H :    0.041337
  32 H :    0.023981
  33 H :    0.054433

  Mayer bond orders larger than 0.100000
B(  0-S ,  1-C ) :   1.1359 B(  0-S ,  4-C ) :   1.1733 B(  1-C ,  2-C ) :   1.6017
B(  1-C , 32-H ) :   0.9698 B(  2-C ,  3-C ) :   1.2514 B(  2-C ,  6-C ) :   1.0182
B(  3-C ,  4-C ) :   1.5288 B(  3-C ,  5-H ) :   1.0028 B(  4-C , 20-C ) :   1.0769
B(  6-C ,  7-H ) :   0.9461 B(  6-C ,  8-H ) :   0.9337 B(  6-C ,  9-C ) :   1.0955
B(  9-C , 10-H ) :   0.9362 B(  9-C , 11-H ) :   0.9459 B(  9-C , 12-C ) :   1.0701
B( 12-C , 13-H ) :   0.9715 B( 12-C , 14-H ) :   0.9771 B( 12-C , 15-H ) :   0.9717
B( 16-S , 17-C ) :   1.1409 B( 16-S , 20-C ) :   1.1303 B( 17-C , 18-C ) :   1.6069
B( 17-C , 20-C ) :   0.1056 B( 17-C , 33-H ) :   0.9544 B( 18-C , 19-C ) :   1.2824
B( 18-C , 21-H ) :   0.9831 B( 19-C , 20-C ) :   1.5757 B( 19-C , 22-C ) :   1.0411
B( 22-C , 23-H ) :   0.9244 B( 22-C , 24-H ) :   0.9367 B( 22-C , 25-C ) :   1.0687
B( 25-C , 26-H ) :   0.9521 B( 25-C , 27-H ) :   0.9576 B( 25-C , 28-C ) :   1.0632
B( 28-C , 29-H ) :   0.9766 B( 28-C , 30-H ) :   0.9749 B( 28-C , 31-H ) :   0.9755

Dispersion correction           -0.014325211
FINAL SINGLE POINT ENERGY     -1339.864246759062

DIPOLE MOMENT
-------------
                                X             Y             Z
Electronic contribution:     29.40800       9.06035       1.25127
Nuclear contribution   :    -30.05519      -9.16176      -1.32252
                        -----------------------------------------
Total Dipole Moment    :     -0.64720      -0.10140      -0.07125
                        -----------------------------------------
Magnitude (a.u.)       :      0.65896
Magnitude (Debye)      :      1.67494

Rotational constants in cm-1:     0.016501     0.010127     0.006788
Rotational constants in MHz :   494.682802   303.598270   203.512282

                             ****ORCA TERMINATED NORMALLY****
TOTAL RUN TIME: 0 days 0 hours 0 minutes 32 seconds 806 msec
