                         Program Version 4.2.1 -  RELEASE  -
|  1> ! wB97X-D3 SP def2-SVP
|  2> %pal
|  3> nprocs 16
|  4> end
|  5>
|  6> * xyz 0 1
|  7> S 	 8.74554 	 -15.9129 	 56.914
|  8> C 	 7.91363 	 -14.9468 	 58.1713
|  9> C 	 6.59461 	 -14.6747 	 57.9751
| 10> C 	 6.17531 	 -15.3892 	 56.7804
| 11> C 	 7.16413 	 -16.0693 	 56.1362
| 12> H 	 5.22804 	 -15.389 	 56.3123
| 13> C 	 5.73429 	 -13.6701 	 58.7962
| 14> H 	 5.79531 	 -12.6365 	 58.4215
| 15> H 	 6.15123 	 -13.6943 	 59.8242
| 16> C 	 4.13493 	 -13.9866 	 58.8788
| 17> H 	 3.5658 	 -13.1905 	 59.2995
| 18> H 	 3.76889 	 -14.0232 	 57.7928
| 19> C 	 3.68107 	 -15.257 	 59.5467
| 20> H 	 3.8946 	 -16.1392 	 59.0208
| 21> H 	 4.10979 	 -15.336 	 60.5698
| 22> H 	 2.64774 	 -15.212 	 59.7337
| 23> S 	 6.79723 	 -15.9685 	 53.349
| 24> C 	 6.29176 	 -17.3785 	 52.5053
| 25> C 	 6.34546 	 -18.5092 	 53.3206
| 26> C 	 6.66877 	 -18.1652 	 54.6873
| 27> C 	 6.97024 	 -16.8127 	 54.9098
| 28> H 	 6.19588 	 -19.4083 	 52.8245
| 29> C 	 6.93769 	 -19.2041 	 55.7767
| 30> H 	 6.37142 	 -18.8868 	 56.6621
| 31> H 	 7.9836 	 -19.0985 	 56.0464
| 32> C 	 6.66464 	 -20.6785 	 55.3215
| 33> H 	 7.33296 	 -20.9718 	 54.5153
| 34> H 	 5.64149 	 -20.701 	 55.0555
| 35> C 	 6.85299 	 -21.6879 	 56.3931
| 36> H 	 6.19463 	 -21.515 	 57.2175
| 37> H 	 7.85078 	 -21.6337 	 56.704
| 38> H 	 6.66419 	 -22.6348 	 55.9039
| 39> H 	 8.37986 	 -14.4505 	 59.0087
| 40> H 	 6.09548 	 -17.3983 	 51.424
| 41> *
| 42>
| 43>                          ****END OF INPUT****

CARTESIAN COORDINATES (ANGSTROEM)
---------------------------------
  S      8.745540  -15.912900   56.914000
  C      7.913630  -14.946800   58.171300
  C      6.594610  -14.674700   57.975100
  C      6.175310  -15.389200   56.780400
  C      7.164130  -16.069300   56.136200
  H      5.228040  -15.389000   56.312300
  C      5.734290  -13.670100   58.796200
  H      5.795310  -12.636500   58.421500
  H      6.151230  -13.694300   59.824200
  C      4.134930  -13.986600   58.878800
  H      3.565800  -13.190500   59.299500
  H      3.768890  -14.023200   57.792800
  C      3.681070  -15.257000   59.546700
  H      3.894600  -16.139200   59.020800
  H      4.109790  -15.336000   60.569800
  H      2.647740  -15.212000   59.733700
  S      6.797230  -15.968500   53.349000
  C      6.291760  -17.378500   52.505300
  C      6.345460  -18.509200   53.320600
  C      6.668770  -18.165200   54.687300
  C      6.970240  -16.812700   54.909800
  H      6.195880  -19.408300   52.824500
  C      6.937690  -19.204100   55.776700
  H      6.371420  -18.886800   56.662100
  H      7.983600  -19.098500   56.046400
  C      6.664640  -20.678500   55.321500
  H      7.332960  -20.971800   54.515300
  H      5.641490  -20.701000   55.055500
  C      6.852990  -21.687900   56.393100
  H      6.194630  -21.515000   57.217500
  H      7.850780  -21.633700   56.704000
  H      6.664190  -22.634800   55.903900
  H      8.379860  -14.450500   59.008700
  H      6.095480  -17.398300   51.424000

 Total Charge           Charge          ....    0
 Multiplicity           Mult            ....    1
 Number of Electrons    NEL             ....  134
 Basis Dimension        Dim             ....  322

ORBITAL ENERGIES
----------------

  NO   OCC          E(Eh)            E(eV)
   0   2.0000     -88.969899     -2420.9940
   1   2.0000     -88.961099     -2420.7546
   2   2.0000     -10.326353      -280.9944
   3   2.0000     -10.321589      -280.8647
   4   2.0000     -10.317035      -280.7408
   5   2.0000     -10.314607      -280.6747
   6   2.0000     -10.310024      -280.5500
   7   2.0000     -10.306501      -280.4542
   8   2.0000     -10.305769      -280.4342
   9   2.0000     -10.296001      -280.1684
  10   2.0000     -10.292412      -280.0708
  11   2.0000     -10.289987      -280.0048
  12   2.0000     -10.286868      -279.9199
  13   2.0000     -10.277350      -279.6609
  14   2.0000     -10.269702      -279.4528
  15   2.0000     -10.264174      -279.3024
  16   2.0000      -8.083546      -219.9645
  17   2.0000      -8.075849      -219.7550
  18   2.0000      -6.042132      -164.4148
  19   2.0000      -6.038480      -164.3154
  20   2.0000      -6.034293      -164.2015
  21   2.0000      -6.034011      -164.1938
  22   2.0000      -6.030149      -164.0887
  23   2.0000      -6.026891      -164.0000
  24   2.0000      -1.000883       -27.2354
  25   2.0000      -0.978526       -26.6271
  26   2.0000      -0.909416       -24.7465
  27   2.0000      -0.900826       -24.5127
  28   2.0000      -0.871669       -23.7193
  29   2.0000      -0.851060       -23.1585
  30   2.0000      -0.847315       -23.0566
  31   2.0000      -0.815396       -22.1880
  32   2.0000      -0.784920       -21.3588
  33   2.0000      -0.768740       -20.9185
  34   2.0000      -0.706244       -19.2179
  35   2.0000      -0.698990       -19.0205
  36   2.0000      -0.691263       -18.8102
  37   2.0000      -0.646886       -17.6027
  38   2.0000      -0.639385       -17.3985
  39   2.0000      -0.618368       -16.8267
  40   2.0000      -0.589619       -16.0444
  41   2.0000      -0.579225       -15.7615
  42   2.0000      -0.566496       -15.4151
  43   2.0000      -0.547853       -14.9078
  44   2.0000      -0.546326       -14.8663
  45   2.0000      -0.532273       -14.4839
  46   2.0000      -0.512450       -13.9445
  47   2.0000      -0.509728       -13.8704
  48   2.0000      -0.505805       -13.7637
  49   2.0000      -0.492983       -13.4148
  50   2.0000      -0.485957       -13.2236
  51   2.0000      -0.476579       -12.9684
  52   2.0000      -0.471935       -12.8420
  53   2.0000      -0.465257       -12.6603
  54   2.0000      -0.454834       -12.3767
  55   2.0000      -0.449817       -12.2401
  56   2.0000      -0.445670       -12.1273
  57   2.0000      -0.443985       -12.0814
  58   2.0000      -0.434136       -11.8134
  59   2.0000      -0.429491       -11.6870
  60   2.0000      -0.420151       -11.4329
  61   2.0000      -0.409975       -11.1560
  62   2.0000      -0.408308       -11.1106
  63   2.0000      -0.335702        -9.1349
  64   2.0000      -0.326363        -8.8808
  65   2.0000      -0.321101        -8.7376
  66   2.0000      -0.309080        -8.4105
  67   0.0000       0.043773         1.1911
  68   0.0000       0.053738         1.4623
  69   0.0000       0.103853         2.8260
  70   0.0000       0.122673         3.3381
  71   0.0000       0.125225         3.4076

MULLIKEN ATOMIC CHARGES
-----------------------
   0 S :    0.116495
   1 C :   -0.106721
   2 C :   -0.067615
   3 C :    0.047120
   4 C :   -0.181516
   5 H :   -0.000703
   6 C :    0.055530
   7 H :    0.059433
   8 H :    0.031376
   9 C :   -0.118649
  10 H :    0.026488
  11 H :    0.036421
  12 C :   -0.010495
  13 H :    0.029672
  14 H :    0.024206
  15 H :    0.020341
  16 S :    0.107769
  17 C :   -0.106088
  18 C :   -0.028483
  19 C :   -0.023131
  20 C :   -0.173392
  21 H :   -0.001882
  22 C :    0.054982
  23 H :    0.035086
  24 H :    0.027754
  25 C :   -0.104249
  26 H :    0.033531
  27 H :    0.023245
  28 C :    0.030953
  29 H :    0.023076
  30 H :    0.013225
  31 H :    0.026929
  32 H :    0.031691
  33 H :    0.067602
Sum of atomic charges:   -0.0000000

LOEWDIN ATOMIC CHARGES
----------------------
   0 S :    0.379080
   1 C :   -0.176007
   2 C :   -0.063737
   3 C :   -0.045623
   4 C :   -0.193024
   5 H :    0.026008
   6 C :   -0.027165
   7 H :    0.039232
   8 H :    0.031448
   9 C :   -0.044935
  10 H :    0.021473
  11 H :    0.029355
  12 C :   -0.062516
  13 H :    0.018766
  14 H :    0.029152
  15 H :    0.023214
  16 S :    0.407509
  17 C :   -0.192772
  18 C :   -0.077578
  19 C :   -0.044445
  20 C :   -0.210193
  21 H :    0.021834
  22 C :   -0.033673
  23 H :    0.034646
  24 H :    0.029082
  25 C :   -0.038523
  26 H :    0.026007
  27 H :    0.018239
  28 C :   -0.050002
  29 H :    0.021351
  30 H :    0.016921
  31 H :    0.028340
  32 H :    0.023676
  33 H :    0.034859

  Mayer bond orders larger than 0.100000
B(  0-S ,  1-C ) :   1.1220 B(  0-S ,  4-C ) :   1.1069 B(  1-C ,  2-C ) :   1.6943
B(  1-C , 32-H ) :   0.9580 B(  2-C ,  3-C ) :   1.1740 B(  2-C ,  6-C ) :   1.0006
B(  3-C ,  4-C ) :   1.6614 B(  3-C ,  5-H ) :   0.9965 B(  4-C , 20-C ) :   1.0214
B(  6-C ,  7-H ) :   0.9457 B(  6-C ,  8-H ) :   0.9444 B(  6-C ,  9-C ) :   1.0606
B(  9-C , 10-H ) :   0.9605 B(  9-C , 11-H ) :   0.9525 B(  9-C , 12-C ) :   1.0868
B( 12-C , 13-H ) :   0.9756 B( 12-C , 14-H ) :   0.9706 B( 12-C , 15-H ) :   0.9708
B( 16-S , 17-C ) :   1.1915 B( 16-S , 20-C ) :   1.1327 B( 17-C , 18-C ) :   1.5724
B( 17-C , 20-C ) :   0.1035 B( 17-C , 33-H ) :   0.9591 B( 18-C , 19-C ) :   1.2433
B( 18-C , 21-H ) :   1.0056 B( 19-C , 20-C ) :   1.5866 B( 19-C , 22-C ) :   1.0272
B( 22-C , 23-H ) :   0.9251 B( 22-C , 24-H ) :   0.9378 B( 22-C , 25-C ) :   1.0906
B( 25-C , 26-H ) :   0.9481 B( 25-C , 27-H ) :   0.9523 B( 25-C , 28-C ) :   1.0965
B( 28-C , 29-H ) :   0.9731 B( 28-C , 30-H ) :   0.9709 B( 28-C , 31-H ) :   0.9698

Dispersion correction           -0.013950033
FINAL SINGLE POINT ENERGY     -1339.867977931228

DIPOLE MOMENT
-------------
                                X             Y             Z
Electronic contribution:     14.24755      11.26622     -15.32324
Nuclear contribution   :    -14.66251     -11.39411      15.55690
                        -----------------------------------------
Total Dipole Moment    :     -0.41496      -0.12790       0.23366
                        -----------------------------------------
Magnitude (a.u.)       :      0.49310
Magnitude (Debye)      :      1.25336

Rotational constants in cm-1:     0.016666     0.008058     0.007152
Rotational constants in MHz :   499.620955   241.580571   214.421280

                             ****ORCA TERMINATED NORMALLY****
TOTAL RUN TIME: 0 days 0 hours 0 minutes 28 seconds 914 msec
