                         Program Version 4.2.1 -  RELEASE  -
|  1> ! wB97X-D3 SP def2-SVP
|  2> %pal
|  3> nprocs 16
|  4> end
|  5>
|  6> * xyz 0 1
|  7> S 	 -78.862 	 45.9719 	 136.413
|  8> C 	 -78.4739 	 45.0224 	 137.821
|  9> C 	 -79.1679 	 45.5066 	 138.958
| 10> C 	 -80.1915 	 46.4384 	 138.578
| 11> C 	 -80.2142 	 46.6932 	 137.224
| 12> H 	 -80.9465 	 46.9498 	 139.178
| 13> C 	 -79.1029 	 44.767 	 140.293
| 14> H 	 -78.1177 	 44.3237 	 140.323
| 15> H 	 -79.904 	 43.9598 	 140.384
| 16> C 	 -79.2796 	 45.6551 	 141.576
| 17> H 	 -80.2715 	 46.0994 	 141.593
| 18> H 	 -79.2548 	 45.055 	 142.472
| 19> C 	 -78.1186 	 46.7552 	 141.811
| 20> H 	 -78.3749 	 47.2084 	 142.74
| 21> H 	 -77.1022 	 46.2868 	 141.945
| 22> H 	 -78.1741 	 47.5408 	 141.106
| 23> S 	 -81.6573 	 46.9272 	 134.947
| 24> C 	 -82.8699 	 48.2295 	 134.694
| 25> C 	 -82.803 	 49.0802 	 135.742
| 26> C 	 -81.9917 	 48.6131 	 136.863
| 27> C 	 -81.1407 	 47.5683 	 136.528
| 28> H 	 -83.3933 	 49.9436 	 135.757
| 29> C 	 -81.9692 	 49.4202 	 138.094
| 30> H 	 -81.9806 	 48.7436 	 138.966
| 31> H 	 -82.8927 	 50.0049 	 138.039
| 32> C 	 -80.8498 	 50.383 	 138.367
| 33> H 	 -79.9003 	 49.879 	 138.605
| 34> H 	 -81.075 	 51.1657 	 139.135
| 35> C 	 -80.6054 	 51.2514 	 137.106
| 36> H 	 -81.5174 	 51.7758 	 136.876
| 37> H 	 -80.4025 	 50.7293 	 136.17
| 38> H 	 -79.8343 	 52.0341 	 137.257
| 39> H 	 -77.7625 	 44.2605 	 137.94
| 40> H 	 -83.5647 	 48.4129 	 133.861
| 41> *
| 42>
| 43>                          ****END OF INPUT****

CARTESIAN COORDINATES (ANGSTROEM)
---------------------------------
  S    -78.862000   45.971900  136.413000
  C    -78.473900   45.022400  137.821000
  C    -79.167900   45.506600  138.958000
  C    -80.191500   46.438400  138.578000
  C    -80.214200   46.693200  137.224000
  H    -80.946500   46.949800  139.178000
  C    -79.102900   44.767000  140.293000
  H    -78.117700   44.323700  140.323000
  H    -79.904000   43.959800  140.384000
  C    -79.279600   45.655100  141.576000
  H    -80.271500   46.099400  141.593000
  H    -79.254800   45.055000  142.472000
  C    -78.118600   46.755200  141.811000
  H    -78.374900   47.208400  142.740000
  H    -77.102200   46.286800  141.945000
  H    -78.174100   47.540800  141.106000
  S    -81.657300   46.927200  134.947000
  C    -82.869900   48.229500  134.694000
  C    -82.803000   49.080200  135.742000
  C    -81.991700   48.613100  136.863000
  C    -81.140700   47.568300  136.528000
  H    -83.393300   49.943600  135.757000
  C    -81.969200   49.420200  138.094000
  H    -81.980600   48.743600  138.966000
  H    -82.892700   50.004900  138.039000
  C    -80.849800   50.383000  138.367000
  H    -79.900300   49.879000  138.605000
  H    -81.075000   51.165700  139.135000
  C    -80.605400   51.251400  137.106000
  H    -81.517400   51.775800  136.876000
  H    -80.402500   50.729300  136.170000
  H    -79.834300   52.034100  137.257000
  H    -77.762500   44.260500  137.940000
  H    -83.564700   48.412900  133.861000

 Total Charge           Charge          ....    0
 Multiplicity           Mult            ....    1
 Number of Electrons    NEL             ....  134
 Basis Dimension        Dim             ....  322

ORBITAL ENERGIES
----------------

  NO   OCC          E(Eh)            E(eV)
   0   2.0000     -88.971136     -2421.0277
   1   2.0000     -88.961996     -2420.7790
   2   2.0000     -10.332344      -281.1574
   3   2.0000     -10.330479      -281.1066
   4   2.0000     -10.321734      -280.8687
   5   2.0000     -10.314068      -280.6601
   6   2.0000     -10.307176      -280.4725
   7   2.0000     -10.305860      -280.4367
   8   2.0000     -10.300060      -280.2789
   9   2.0000     -10.296800      -280.1902
  10   2.0000     -10.292680      -280.0781
  11   2.0000     -10.291685      -280.0510
  12   2.0000     -10.290302      -280.0134
  13   2.0000     -10.289380      -279.9883
  14   2.0000     -10.279534      -279.7203
  15   2.0000     -10.271146      -279.4921
  16   2.0000      -8.085893      -220.0283
  17   2.0000      -8.075753      -219.7524
  18   2.0000      -6.044362      -164.4754
  19   2.0000      -6.040426      -164.3684
  20   2.0000      -6.036644      -164.2654
  21   2.0000      -6.034572      -164.2091
  22   2.0000      -6.030315      -164.0932
  23   2.0000      -6.026271      -163.9832
  24   2.0000      -1.008325       -27.4379
  25   2.0000      -0.982654       -26.7394
  26   2.0000      -0.915397       -24.9092
  27   2.0000      -0.902408       -24.5558
  28   2.0000      -0.871728       -23.7209
  29   2.0000      -0.847332       -23.0571
  30   2.0000      -0.838476       -22.8161
  31   2.0000      -0.819915       -22.3110
  32   2.0000      -0.781269       -21.2594
  33   2.0000      -0.772838       -21.0300
  34   2.0000      -0.716341       -19.4926
  35   2.0000      -0.700126       -19.0514
  36   2.0000      -0.687258       -18.7012
  37   2.0000      -0.666679       -18.1412
  38   2.0000      -0.640878       -17.4392
  39   2.0000      -0.619724       -16.8635
  40   2.0000      -0.586180       -15.9508
  41   2.0000      -0.568550       -15.4710
  42   2.0000      -0.562811       -15.3149
  43   2.0000      -0.549162       -14.9434
  44   2.0000      -0.546420       -14.8689
  45   2.0000      -0.537144       -14.6164
  46   2.0000      -0.520645       -14.1675
  47   2.0000      -0.511639       -13.9224
  48   2.0000      -0.503923       -13.7125
  49   2.0000      -0.495645       -13.4872
  50   2.0000      -0.486154       -13.2289
  51   2.0000      -0.483929       -13.1684
  52   2.0000      -0.470488       -12.8026
  53   2.0000      -0.464851       -12.6492
  54   2.0000      -0.459202       -12.4955
  55   2.0000      -0.447736       -12.1835
  56   2.0000      -0.441937       -12.0257
  57   2.0000      -0.432722       -11.7750
  58   2.0000      -0.431663       -11.7461
  59   2.0000      -0.421441       -11.4680
  60   2.0000      -0.420294       -11.4368
  61   2.0000      -0.417406       -11.3582
  62   2.0000      -0.408076       -11.1043
  63   2.0000      -0.357923        -9.7396
  64   2.0000      -0.332350        -9.0437
  65   2.0000      -0.325656        -8.8616
  66   2.0000      -0.288282        -7.8446
  67   0.0000       0.019604         0.5335
  68   0.0000       0.073193         1.9917
  69   0.0000       0.103362         2.8126
  70   0.0000       0.111287         3.0283
  71   0.0000       0.125523         3.4157

MULLIKEN ATOMIC CHARGES
-----------------------
   0 S :    0.132548
   1 C :   -0.086355
   2 C :   -0.078631
   3 C :    0.002535
   4 C :   -0.124290
   5 H :    0.004957
   6 C :    0.042387
   7 H :    0.017020
   8 H :    0.062624
   9 C :   -0.101671
  10 H :    0.028335
  11 H :    0.026223
  12 C :   -0.048716
  13 H :    0.020972
  14 H :    0.046300
  15 H :    0.035163
  16 S :    0.068499
  17 C :   -0.077529
  18 C :   -0.017306
  19 C :   -0.089777
  20 C :   -0.096659
  21 H :    0.000075
  22 C :    0.052333
  23 H :    0.031879
  24 H :    0.018095
  25 C :   -0.047679
  26 H :    0.040244
  27 H :    0.041731
  28 C :   -0.087925
  29 H :    0.006598
  30 H :    0.048656
  31 H :    0.036325
  32 H :    0.027155
  33 H :    0.065882
Sum of atomic charges:    0.0000000

LOEWDIN ATOMIC CHARGES
----------------------
   0 S :    0.422950
   1 C :   -0.192248
   2 C :   -0.059572
   3 C :   -0.066707
   4 C :   -0.198513
   5 H :    0.031072
   6 C :   -0.034941
   7 H :    0.025623
   8 H :    0.043572
   9 C :   -0.040244
  10 H :    0.019871
  11 H :    0.022330
  12 C :   -0.062677
  13 H :    0.021589
  14 H :    0.033285
  15 H :    0.017973
  16 S :    0.368303
  17 C :   -0.170527
  18 C :   -0.065557
  19 C :   -0.058001
  20 C :   -0.178475
  21 H :    0.021400
  22 C :   -0.041373
  23 H :    0.031245
  24 H :    0.033600
  25 C :   -0.038520
  26 H :    0.025456
  27 H :    0.034544
  28 C :   -0.073763
  29 H :    0.015521
  30 H :    0.025959
  31 H :    0.026701
  32 H :    0.018600
  33 H :    0.041526

  Mayer bond orders larger than 0.100000
B(  0-S ,  1-C ) :   1.1405 B(  0-S ,  4-C ) :   1.1513 B(  1-C ,  2-C ) :   1.5926
B(  1-C , 32-H ) :   0.9748 B(  2-C ,  3-C ) :   1.2234 B(  2-C ,  6-C ) :   1.0300
B(  3-C ,  4-C ) :   1.5891 B(  3-C ,  5-H ) :   0.9916 B(  4-C , 20-C ) :   1.0440
B(  6-C ,  7-H ) :   0.9393 B(  6-C ,  8-H ) :   0.9453 B(  6-C ,  9-C ) :   1.0680
B(  9-C , 10-H ) :   0.9568 B(  9-C , 11-H ) :   0.9603 B(  9-C , 12-C ) :   1.0676
B( 12-C , 13-H ) :   0.9754 B( 12-C , 14-H ) :   0.9770 B( 12-C , 15-H ) :   0.9792
B( 16-S , 17-C ) :   1.1256 B( 16-S , 20-C ) :   1.1117 B( 17-C , 18-C ) :   1.6557
B( 17-C , 33-H ) :   0.9623 B( 18-C , 19-C ) :   1.2026 B( 18-C , 21-H ) :   0.9903
B( 19-C , 20-C ) :   1.6036 B( 19-C , 22-C ) :   1.0670 B( 22-C , 23-H ) :   0.9274
B( 22-C , 24-H ) :   0.9238 B( 22-C , 25-C ) :   1.0827 B( 25-C , 26-H ) :   0.9520
B( 25-C , 27-H ) :   0.9554 B( 25-C , 28-C ) :   1.0702 B( 28-C , 29-H ) :   0.9743
B( 28-C , 30-H ) :   0.9714 B( 28-C , 31-H ) :   0.9754

Dispersion correction           -0.014863484
FINAL SINGLE POINT ENERGY     -1339.865268900284

DIPOLE MOMENT
-------------
                                X             Y             Z
Electronic contribution:     -2.94007     -12.16306     -24.14455
Nuclear contribution   :      2.71536      12.43641      24.76554
                        -----------------------------------------
Total Dipole Moment    :     -0.22472       0.27335       0.62099
                        -----------------------------------------
Magnitude (a.u.)       :      0.71473
Magnitude (Debye)      :      1.81671

Rotational constants in cm-1:     0.019589     0.009221     0.007144
Rotational constants in MHz :   587.275844   276.431473   214.174032

                             ****ORCA TERMINATED NORMALLY****
TOTAL RUN TIME: 0 days 0 hours 0 minutes 36 seconds 946 msec
