                         Program Version 4.2.1 -  RELEASE  -
|  1> ! wB97X-D3 SP def2-SVP
|  2> %pal
|  3> nprocs 16
|  4> end
|  5>
|  6> * xyz 0 1
|  7> S 	 -30.9621 	 28.2967 	 48.9765
|  8> C 	 -30.8906 	 28.5093 	 50.7268
|  9> C 	 -32.1141 	 28.9008 	 51.2589
| 10> C 	 -33.0441 	 29.1587 	 50.2249
| 11> C 	 -32.6814 	 28.6646 	 48.9562
| 12> H 	 -34.0898 	 29.5686 	 50.2822
| 13> C 	 -32.304 	 29.6118 	 52.578
| 14> H 	 -31.4369 	 29.751 	 53.0792
| 15> H 	 -32.7534 	 28.8132 	 53.1599
| 16> C 	 -33.2383 	 30.9121 	 52.5582
| 17> H 	 -34.1744 	 30.8347 	 52.1315
| 18> H 	 -33.5641 	 31.2359 	 53.6105
| 19> C 	 -32.4425 	 32.0904 	 51.9752
| 20> H 	 -32.5596 	 32.0529 	 50.8589
| 21> H 	 -32.9105 	 32.9992 	 52.2346
| 22> H 	 -31.4042 	 32.0926 	 52.3543
| 23> S 	 -32.9973 	 29.8122 	 46.4787
| 24> C 	 -34.2749 	 29.3756 	 45.4027
| 25> C 	 -35.1511 	 28.5444 	 46.0419
| 26> C 	 -34.6329 	 27.9967 	 47.3207
| 27> C 	 -33.5286 	 28.7267 	 47.7405
| 28> H 	 -36.0609 	 28.2539 	 45.5802
| 29> C 	 -35.4374 	 27.0235 	 48.1364
| 30> H 	 -36.4936 	 27.3269 	 48.1305
| 31> H 	 -35.2633 	 27.307 	 49.162
| 32> C 	 -35.0661 	 25.5729 	 47.8784
| 33> H 	 -34.033 	 25.4237 	 48.1767
| 34> H 	 -35.064 	 25.3957 	 46.7859
| 35> C 	 -35.9688 	 24.4935 	 48.5147
| 36> H 	 -37.0177 	 24.7261 	 48.2784
| 37> H 	 -35.872 	 24.5423 	 49.5813
| 38> H 	 -35.8195 	 23.4323 	 48.1729
| 39> H 	 -30.0585 	 28.6352 	 51.3148
| 40> H 	 -34.3505 	 29.7707 	 44.3868
| 41> *
| 42>
| 43>                          ****END OF INPUT****

CARTESIAN COORDINATES (ANGSTROEM)
---------------------------------
  S    -30.962100   28.296700   48.976500
  C    -30.890600   28.509300   50.726800
  C    -32.114100   28.900800   51.258900
  C    -33.044100   29.158700   50.224900
  C    -32.681400   28.664600   48.956200
  H    -34.089800   29.568600   50.282200
  C    -32.304000   29.611800   52.578000
  H    -31.436900   29.751000   53.079200
  H    -32.753400   28.813200   53.159900
  C    -33.238300   30.912100   52.558200
  H    -34.174400   30.834700   52.131500
  H    -33.564100   31.235900   53.610500
  C    -32.442500   32.090400   51.975200
  H    -32.559600   32.052900   50.858900
  H    -32.910500   32.999200   52.234600
  H    -31.404200   32.092600   52.354300
  S    -32.997300   29.812200   46.478700
  C    -34.274900   29.375600   45.402700
  C    -35.151100   28.544400   46.041900
  C    -34.632900   27.996700   47.320700
  C    -33.528600   28.726700   47.740500
  H    -36.060900   28.253900   45.580200
  C    -35.437400   27.023500   48.136400
  H    -36.493600   27.326900   48.130500
  H    -35.263300   27.307000   49.162000
  C    -35.066100   25.572900   47.878400
  H    -34.033000   25.423700   48.176700
  H    -35.064000   25.395700   46.785900
  C    -35.968800   24.493500   48.514700
  H    -37.017700   24.726100   48.278400
  H    -35.872000   24.542300   49.581300
  H    -35.819500   23.432300   48.172900
  H    -30.058500   28.635200   51.314800
  H    -34.350500   29.770700   44.386800

 Total Charge           Charge          ....    0
 Multiplicity           Mult            ....    1
 Number of Electrons    NEL             ....  134
 Basis Dimension        Dim             ....  322

ORBITAL ENERGIES
----------------

  NO   OCC          E(Eh)            E(eV)
   0   2.0000     -88.970090     -2420.9992
   1   2.0000     -88.960286     -2420.7324
   2   2.0000     -10.332196      -281.1533
   3   2.0000     -10.328785      -281.0605
   4   2.0000     -10.317099      -280.7425
   5   2.0000     -10.311168      -280.5812
   6   2.0000     -10.308429      -280.5066
   7   2.0000     -10.300556      -280.2924
   8   2.0000     -10.298123      -280.2262
   9   2.0000     -10.293859      -280.1101
  10   2.0000     -10.293614      -280.1035
  11   2.0000     -10.289867      -280.0015
  12   2.0000     -10.288476      -279.9637
  13   2.0000     -10.285396      -279.8798
  14   2.0000     -10.279084      -279.7081
  15   2.0000     -10.276517      -279.6382
  16   2.0000      -8.083883      -219.9736
  17   2.0000      -8.075969      -219.7583
  18   2.0000      -6.042416      -164.4225
  19   2.0000      -6.038544      -164.3171
  20   2.0000      -6.034639      -164.2109
  21   2.0000      -6.034489      -164.2068
  22   2.0000      -6.030273      -164.0921
  23   2.0000      -6.026714      -163.9952
  24   2.0000      -1.004038       -27.3213
  25   2.0000      -0.984068       -26.7778
  26   2.0000      -0.908670       -24.7262
  27   2.0000      -0.908473       -24.7208
  28   2.0000      -0.867859       -23.6156
  29   2.0000      -0.847676       -23.0664
  30   2.0000      -0.842991       -22.9390
  31   2.0000      -0.815653       -22.1950
  32   2.0000      -0.783352       -21.3161
  33   2.0000      -0.773175       -21.0392
  34   2.0000      -0.711527       -19.3616
  35   2.0000      -0.701477       -19.0882
  36   2.0000      -0.694616       -18.9015
  37   2.0000      -0.660614       -17.9762
  38   2.0000      -0.640123       -17.4186
  39   2.0000      -0.619439       -16.8558
  40   2.0000      -0.597379       -16.2555
  41   2.0000      -0.569460       -15.4958
  42   2.0000      -0.557911       -15.1815
  43   2.0000      -0.553014       -15.0483
  44   2.0000      -0.528409       -14.3788
  45   2.0000      -0.524091       -14.2613
  46   2.0000      -0.518957       -14.1215
  47   2.0000      -0.514824       -14.0091
  48   2.0000      -0.509045       -13.8518
  49   2.0000      -0.502883       -13.6841
  50   2.0000      -0.487775       -13.2730
  51   2.0000      -0.479784       -13.0556
  52   2.0000      -0.464404       -12.6371
  53   2.0000      -0.462452       -12.5840
  54   2.0000      -0.455047       -12.3825
  55   2.0000      -0.450422       -12.2566
  56   2.0000      -0.444839       -12.1047
  57   2.0000      -0.439191       -11.9510
  58   2.0000      -0.433617       -11.7993
  59   2.0000      -0.429179       -11.6786
  60   2.0000      -0.417545       -11.3620
  61   2.0000      -0.408916       -11.1272
  62   2.0000      -0.407895       -11.0994
  63   2.0000      -0.334245        -9.0953
  64   2.0000      -0.329071        -8.9545
  65   2.0000      -0.325183        -8.8487
  66   2.0000      -0.303676        -8.2634
  67   0.0000       0.031363         0.8534
  68   0.0000       0.065220         1.7747
  69   0.0000       0.109985         2.9929
  70   0.0000       0.117139         3.1875
  71   0.0000       0.133443         3.6312

MULLIKEN ATOMIC CHARGES
-----------------------
   0 S :    0.127303
   1 C :   -0.082132
   2 C :   -0.074511
   3 C :   -0.003508
   4 C :   -0.163301
   5 H :    0.037081
   6 C :    0.101994
   7 H :   -0.011386
   8 H :    0.030030
   9 C :   -0.074896
  10 H :    0.010822
  11 H :    0.029354
  12 C :   -0.041138
  13 H :    0.046209
  14 H :    0.018698
  15 H :    0.041169
  16 S :    0.097075
  17 C :   -0.094433
  18 C :   -0.014073
  19 C :   -0.062514
  20 C :   -0.168619
  21 H :    0.009413
  22 C :    0.075959
  23 H :    0.021802
  24 H :    0.002354
  25 C :   -0.065322
  26 H :    0.034253
  27 H :    0.028542
  28 C :   -0.043562
  29 H :    0.023911
  30 H :    0.028162
  31 H :    0.046568
  32 H :    0.019198
  33 H :    0.069500
Sum of atomic charges:    0.0000000

LOEWDIN ATOMIC CHARGES
----------------------
   0 S :    0.407960
   1 C :   -0.182110
   2 C :   -0.065048
   3 C :   -0.063139
   4 C :   -0.204126
   5 H :    0.038499
   6 C :   -0.019745
   7 H :    0.012106
   8 H :    0.037601
   9 C :   -0.034861
  10 H :    0.010504
  11 H :    0.031735
  12 C :   -0.064362
  13 H :    0.033795
  14 H :    0.017349
  15 H :    0.029360
  16 S :    0.408175
  17 C :   -0.189865
  18 C :   -0.068522
  19 C :   -0.045987
  20 C :   -0.203770
  21 H :    0.023610
  22 C :   -0.040786
  23 H :    0.033855
  24 H :    0.027833
  25 C :   -0.039831
  26 H :    0.027947
  27 H :    0.025405
  28 C :   -0.069267
  29 H :    0.024012
  30 H :    0.020513
  31 H :    0.033820
  32 H :    0.011964
  33 H :    0.035375

  Mayer bond orders larger than 0.100000
B(  0-S ,  1-C ) :   1.1515 B(  0-S ,  4-C ) :   1.1497 B(  1-C ,  2-C ) :   1.5844
B(  1-C ,  4-C ) :   0.1035 B(  1-C , 32-H ) :   0.9717 B(  2-C ,  3-C ) :   1.2694
B(  2-C ,  6-C ) :   1.0103 B(  3-C ,  4-C ) :   1.5706 B(  3-C ,  5-H ) :   0.9707
B(  4-C , 20-C ) :   1.0244 B(  6-C ,  7-H ) :   0.9506 B(  6-C ,  8-H ) :   0.9185
B(  6-C ,  9-C ) :   1.0752 B(  9-C , 10-H ) :   0.9517 B(  9-C , 11-H ) :   0.9570
B(  9-C , 12-C ) :   1.0733 B( 12-C , 13-H ) :   0.9742 B( 12-C , 14-H ) :   0.9737
B( 12-C , 15-H ) :   0.9783 B( 16-S , 17-C ) :   1.1526 B( 16-S , 20-C ) :   1.1443
B( 17-C , 18-C ) :   1.6188 B( 17-C , 33-H ) :   0.9676 B( 18-C , 19-C ) :   1.2127
B( 18-C , 21-H ) :   0.9931 B( 19-C , 20-C ) :   1.6179 B( 19-C , 22-C ) :   1.0451
B( 22-C , 23-H ) :   0.9405 B( 22-C , 24-H ) :   0.9263 B( 22-C , 25-C ) :   1.0413
B( 25-C , 26-H ) :   0.9531 B( 25-C , 27-H ) :   0.9628 B( 25-C , 28-C ) :   1.0772
B( 28-C , 29-H ) :   0.9745 B( 28-C , 30-H ) :   0.9754 B( 28-C , 31-H ) :   0.9760

Dispersion correction           -0.014361192
FINAL SINGLE POINT ENERGY     -1339.848728489200

DIPOLE MOMENT
-------------
                                X             Y             Z
Electronic contribution:     13.36392       3.78017     -15.82583
Nuclear contribution   :    -13.84648      -3.61981      16.18277
                        -----------------------------------------
Total Dipole Moment    :     -0.48256       0.16036       0.35694
                        -----------------------------------------
Magnitude (a.u.)       :      0.62128
Magnitude (Debye)      :      1.57916

Rotational constants in cm-1:     0.017315     0.008652     0.007418
Rotational constants in MHz :   519.092437   259.379354   222.385829

                             ****ORCA TERMINATED NORMALLY****
TOTAL RUN TIME: 0 days 0 hours 0 minutes 33 seconds 458 msec
