                         Program Version 4.2.1 -  RELEASE  -
|  1> ! wB97X-D3 SP def2-SVP
|  2> %pal
|  3> nprocs 16
|  4> end
|  5>
|  6> * xyz 0 1
|  7> S 	 -23.6958 	 44.7019 	 58.8147
|  8> C 	 -25.1531 	 44.4661 	 59.8223
|  9> C 	 -25.6625 	 45.6392 	 60.2991
| 10> C 	 -24.8225 	 46.7594 	 59.9473
| 11> C 	 -23.7614 	 46.4914 	 59.0791
| 12> H 	 -24.8489 	 47.8068 	 60.2336
| 13> C 	 -26.9355 	 45.7353 	 61.0899
| 14> H 	 -26.6666 	 45.6386 	 62.1487
| 15> H 	 -27.5646 	 44.8877 	 60.8359
| 16> C 	 -27.7855 	 46.9546 	 60.9719
| 17> H 	 -28.754 	 46.771 	 61.3839
| 18> H 	 -27.2769 	 47.8259 	 61.4941
| 19> C 	 -28.0565 	 47.4692 	 59.5939
| 20> H 	 -27.1432 	 47.7836 	 59.0107
| 21> H 	 -28.6123 	 46.6394 	 59.1352
| 22> H 	 -28.8091 	 48.347 	 59.6095
| 23> S 	 -21.3639 	 48.0272 	 59.4347
| 24> C 	 -21.0776 	 49.3258 	 58.3159
| 25> C 	 -22.0406 	 49.3339 	 57.2929
| 26> C 	 -23.062 	 48.3303 	 57.4271
| 27> C 	 -22.8378 	 47.5383 	 58.5444
| 28> H 	 -22.02 	 50.0628 	 56.4272
| 29> C 	 -24.1903 	 48.1375 	 56.3602
| 30> H 	 -24.3874 	 49.1651 	 56.0022
| 31> H 	 -25.1247 	 47.883 	 56.81
| 32> C 	 -23.9191 	 47.0028 	 55.3811
| 33> H 	 -24.8377 	 46.6577 	 54.9775
| 34> H 	 -23.6836 	 46.0722 	 56.0668
| 35> C 	 -22.7594 	 47.134 	 54.3678
| 36> H 	 -22.6494 	 46.1812 	 53.8595
| 37> H 	 -21.8175 	 47.3758 	 54.906
| 38> H 	 -22.895 	 48.0613 	 53.754
| 39> H 	 -25.5963 	 43.4427 	 59.9279
| 40> H 	 -20.2252 	 50.0383 	 58.2997
| 41> *
| 42>
| 43>                          ****END OF INPUT****

CARTESIAN COORDINATES (ANGSTROEM)
---------------------------------
  S    -23.695800   44.701900   58.814700
  C    -25.153100   44.466100   59.822300
  C    -25.662500   45.639200   60.299100
  C    -24.822500   46.759400   59.947300
  C    -23.761400   46.491400   59.079100
  H    -24.848900   47.806800   60.233600
  C    -26.935500   45.735300   61.089900
  H    -26.666600   45.638600   62.148700
  H    -27.564600   44.887700   60.835900
  C    -27.785500   46.954600   60.971900
  H    -28.754000   46.771000   61.383900
  H    -27.276900   47.825900   61.494100
  C    -28.056500   47.469200   59.593900
  H    -27.143200   47.783600   59.010700
  H    -28.612300   46.639400   59.135200
  H    -28.809100   48.347000   59.609500
  S    -21.363900   48.027200   59.434700
  C    -21.077600   49.325800   58.315900
  C    -22.040600   49.333900   57.292900
  C    -23.062000   48.330300   57.427100
  C    -22.837800   47.538300   58.544400
  H    -22.020000   50.062800   56.427200
  C    -24.190300   48.137500   56.360200
  H    -24.387400   49.165100   56.002200
  H    -25.124700   47.883000   56.810000
  C    -23.919100   47.002800   55.381100
  H    -24.837700   46.657700   54.977500
  H    -23.683600   46.072200   56.066800
  C    -22.759400   47.134000   54.367800
  H    -22.649400   46.181200   53.859500
  H    -21.817500   47.375800   54.906000
  H    -22.895000   48.061300   53.754000
  H    -25.596300   43.442700   59.927900
  H    -20.225200   50.038300   58.299700

 Total Charge           Charge          ....    0
 Multiplicity           Mult            ....    1
 Number of Electrons    NEL             ....  134
 Basis Dimension        Dim             ....  322

ORBITAL ENERGIES
----------------

  NO   OCC          E(Eh)            E(eV)
   0   2.0000     -88.970938     -2421.0223
   1   2.0000     -88.965820     -2420.8830
   2   2.0000     -10.335967      -281.2560
   3   2.0000     -10.331360      -281.1306
   4   2.0000     -10.325388      -280.9681
   5   2.0000     -10.321671      -280.8669
   6   2.0000     -10.307450      -280.4800
   7   2.0000     -10.305699      -280.4323
   8   2.0000     -10.301937      -280.3300
   9   2.0000     -10.299146      -280.2540
  10   2.0000     -10.294517      -280.1280
  11   2.0000     -10.291314      -280.0409
  12   2.0000     -10.288389      -279.9613
  13   2.0000     -10.284502      -279.8555
  14   2.0000     -10.283408      -279.8257
  15   2.0000     -10.279967      -279.7321
  16   2.0000      -8.084901      -220.0013
  17   2.0000      -8.078721      -219.8332
  18   2.0000      -6.043432      -164.4502
  19   2.0000      -6.039474      -164.3424
  20   2.0000      -6.037378      -164.2854
  21   2.0000      -6.035718      -164.2402
  22   2.0000      -6.033490      -164.1796
  23   2.0000      -6.029416      -164.0687
  24   2.0000      -0.996264       -27.1097
  25   2.0000      -0.978218       -26.6187
  26   2.0000      -0.919222       -25.0133
  27   2.0000      -0.902914       -24.5696
  28   2.0000      -0.865735       -23.5579
  29   2.0000      -0.843785       -22.9606
  30   2.0000      -0.841009       -22.8850
  31   2.0000      -0.810946       -22.0670
  32   2.0000      -0.786418       -21.3995
  33   2.0000      -0.774760       -21.0823
  34   2.0000      -0.704515       -19.1708
  35   2.0000      -0.687361       -18.7040
  36   2.0000      -0.683385       -18.5959
  37   2.0000      -0.654765       -17.8171
  38   2.0000      -0.638725       -17.3806
  39   2.0000      -0.615341       -16.7443
  40   2.0000      -0.590133       -16.0583
  41   2.0000      -0.567164       -15.4333
  42   2.0000      -0.556013       -15.1299
  43   2.0000      -0.548418       -14.9232
  44   2.0000      -0.545299       -14.8384
  45   2.0000      -0.536316       -14.5939
  46   2.0000      -0.516541       -14.0558
  47   2.0000      -0.512567       -13.9476
  48   2.0000      -0.498467       -13.5640
  49   2.0000      -0.491074       -13.3628
  50   2.0000      -0.487617       -13.2687
  51   2.0000      -0.473536       -12.8856
  52   2.0000      -0.468749       -12.7553
  53   2.0000      -0.467171       -12.7124
  54   2.0000      -0.457826       -12.4581
  55   2.0000      -0.444772       -12.1029
  56   2.0000      -0.437050       -11.8927
  57   2.0000      -0.435113       -11.8400
  58   2.0000      -0.434609       -11.8263
  59   2.0000      -0.426992       -11.6190
  60   2.0000      -0.420497       -11.4423
  61   2.0000      -0.407179       -11.0799
  62   2.0000      -0.396950       -10.8016
  63   2.0000      -0.336133        -9.1467
  64   2.0000      -0.328743        -8.9455
  65   2.0000      -0.318071        -8.6552
  66   2.0000      -0.316134        -8.6025
  67   0.0000       0.042727         1.1627
  68   0.0000       0.046077         1.2538
  69   0.0000       0.113684         3.0935
  70   0.0000       0.116975         3.1831
  71   0.0000       0.128074         3.4851

MULLIKEN ATOMIC CHARGES
-----------------------
   0 S :    0.090273
   1 C :   -0.156369
   2 C :   -0.064521
   3 C :    0.036412
   4 C :   -0.183497
   5 H :    0.021956
   6 C :    0.103831
   7 H :    0.048594
   8 H :    0.015564
   9 C :   -0.086417
  10 H :    0.029033
  11 H :    0.032053
  12 C :   -0.098501
  13 H :    0.060143
  14 H :    0.024282
  15 H :    0.043113
  16 S :    0.126223
  17 C :   -0.109051
  18 C :   -0.059808
  19 C :   -0.040361
  20 C :   -0.200040
  21 H :    0.037948
  22 C :    0.108551
  23 H :    0.022147
  24 H :    0.017537
  25 C :   -0.087474
  26 H :    0.019172
  27 H :    0.026646
  28 C :   -0.038735
  29 H :    0.047922
  30 H :    0.036644
  31 H :    0.032550
  32 H :    0.070140
  33 H :    0.074043
Sum of atomic charges:   -0.0000000

LOEWDIN ATOMIC CHARGES
----------------------
   0 S :    0.361695
   1 C :   -0.183174
   2 C :   -0.067379
   3 C :   -0.056729
   4 C :   -0.180882
   5 H :    0.034547
   6 C :   -0.034140
   7 H :    0.042628
   8 H :    0.030087
   9 C :   -0.052089
  10 H :    0.027165
  11 H :    0.026390
  12 C :   -0.076770
  13 H :    0.029667
  14 H :    0.022777
  15 H :    0.034260
  16 S :    0.404748
  17 C :   -0.198934
  18 C :   -0.084472
  19 C :   -0.048371
  20 C :   -0.199895
  21 H :    0.038357
  22 C :   -0.029027
  23 H :    0.029343
  24 H :    0.031271
  25 C :   -0.046808
  26 H :    0.017127
  27 H :    0.032323
  28 C :   -0.071183
  29 H :    0.030268
  30 H :    0.030077
  31 H :    0.027359
  32 H :    0.038776
  33 H :    0.040989

  Mayer bond orders larger than 0.100000
B(  0-S ,  1-C ) :   1.1328 B(  0-S ,  4-C ) :   1.1165 B(  1-C ,  2-C ) :   1.6408
B(  1-C , 32-H ) :   0.9613 B(  2-C ,  3-C ) :   1.1874 B(  2-C ,  6-C ) :   1.0173
B(  3-C ,  4-C ) :   1.6329 B(  3-C ,  5-H ) :   0.9843 B(  4-C , 20-C ) :   1.0170
B(  6-C ,  7-H ) :   0.9279 B(  6-C ,  8-H ) :   0.9373 B(  6-C ,  9-C ) :   1.0938
B(  9-C , 10-H ) :   0.9532 B(  9-C , 11-H ) :   0.9425 B(  9-C , 12-C ) :   1.0893
B( 12-C , 13-H ) :   0.9649 B( 12-C , 14-H ) :   0.9737 B( 12-C , 15-H ) :   0.9712
B( 16-S , 17-C ) :   1.1636 B( 16-S , 20-C ) :   1.1362 B( 17-C , 18-C ) :   1.5999
B( 17-C , 33-H ) :   0.9617 B( 18-C , 19-C ) :   1.2608 B( 18-C , 21-H ) :   0.9747
B( 19-C , 20-C ) :   1.6058 B( 19-C , 22-C ) :   1.0290 B( 22-C , 23-H ) :   0.9385
B( 22-C , 24-H ) :   0.9230 B( 22-C , 25-C ) :   1.0762 B( 25-C , 26-H ) :   0.9570
B( 25-C , 27-H ) :   0.9436 B( 25-C , 28-C ) :   1.0679 B( 28-C , 29-H ) :   0.9731
B( 28-C , 30-H ) :   0.9727 B( 28-C , 31-H ) :   0.9745

Dispersion correction           -0.015664836
FINAL SINGLE POINT ENERGY     -1339.874363858285

DIPOLE MOMENT
-------------
                                X             Y             Z
Electronic contribution:     19.17206      -4.71613       9.35413
Nuclear contribution   :    -19.72843       4.94303      -9.38461
                        -----------------------------------------
Total Dipole Moment    :     -0.55637       0.22690      -0.03048
                        -----------------------------------------
Magnitude (a.u.)       :      0.60163
Magnitude (Debye)      :      1.52923

Rotational constants in cm-1:     0.018558     0.008652     0.008108
Rotational constants in MHz :   556.369516   259.380283   243.064259

                             ****ORCA TERMINATED NORMALLY****
TOTAL RUN TIME: 0 days 0 hours 0 minutes 36 seconds 68 msec
