                         Program Version 4.2.1 -  RELEASE  -
|  1> ! wB97X-D3 SP def2-SVP
|  2> %pal
|  3> nprocs 16
|  4> end
|  5>
|  6> * xyz 0 1
|  7> S 	 3.28223 	 -4.13524 	 91.0555
|  8> C 	 3.44175 	 -2.72715 	 92.0538
|  9> C 	 2.30176 	 -2.45028 	 92.6841
| 10> C 	 1.35572 	 -3.52711 	 92.5714
| 11> C 	 1.623 	 -4.47316 	 91.6575
| 12> H 	 0.357853 	 -3.64905 	 93.0656
| 13> C 	 2.06058 	 -1.37494 	 93.6262
| 14> H 	 1.00434 	 -1.23567 	 93.6058
| 15> H 	 2.42906 	 -0.433275 	 93.2463
| 16> C 	 2.48116 	 -1.60172 	 95.0598
| 17> H 	 2.19264 	 -0.726958 	 95.6746
| 18> H 	 2.04672 	 -2.51145 	 95.4201
| 19> C 	 3.94643 	 -1.97905 	 95.2119
| 20> H 	 4.60775 	 -1.23985 	 94.7233
| 21> H 	 4.2236 	 -1.87592 	 96.2992
| 22> H 	 4.23719 	 -3.0747 	 94.8682
| 23> S 	 1.22319 	 -6.29402 	 89.6611
| 24> C 	 -0.134761 	 -7.35723 	 89.6746
| 25> C 	 -0.869328 	 -7.19809 	 90.8437
| 26> C 	 -0.341256 	 -6.10797 	 91.7242
| 27> C 	 0.819824 	 -5.5805 	 91.1655
| 28> H 	 -1.79827 	 -7.71351 	 91.1059
| 29> C 	 -1.21035 	 -5.7498 	 92.9142
| 30> H 	 -0.604426 	 -5.34116 	 93.7584
| 31> H 	 -1.68528 	 -6.67496 	 93.163
| 32> C 	 -2.3365 	 -4.73948 	 92.4129
| 33> H 	 -2.89033 	 -5.24499 	 91.701
| 34> H 	 -1.81384 	 -3.82889 	 91.9599
| 35> C 	 -3.40198 	 -4.14378 	 93.2927
| 36> H 	 -4.06884 	 -3.45514 	 92.7774
| 37> H 	 -2.85101 	 -3.59978 	 94.0825
| 38> H 	 -4.03419 	 -4.82628 	 93.8853
| 39> H 	 4.27355 	 -2.14112 	 91.9767
| 40> H 	 -0.345428 	 -8.21924 	 88.9567
| 41> *
| 42>
| 43>                          ****END OF INPUT****

CARTESIAN COORDINATES (ANGSTROEM)
---------------------------------
  S      3.282230   -4.135240   91.055500
  C      3.441750   -2.727150   92.053800
  C      2.301760   -2.450280   92.684100
  C      1.355720   -3.527110   92.571400
  C      1.623000   -4.473160   91.657500
  H      0.357853   -3.649050   93.065600
  C      2.060580   -1.374940   93.626200
  H      1.004340   -1.235670   93.605800
  H      2.429060   -0.433275   93.246300
  C      2.481160   -1.601720   95.059800
  H      2.192640   -0.726958   95.674600
  H      2.046720   -2.511450   95.420100
  C      3.946430   -1.979050   95.211900
  H      4.607750   -1.239850   94.723300
  H      4.223600   -1.875920   96.299200
  H      4.237190   -3.074700   94.868200
  S      1.223190   -6.294020   89.661100
  C     -0.134761   -7.357230   89.674600
  C     -0.869328   -7.198090   90.843700
  C     -0.341256   -6.107970   91.724200
  C      0.819824   -5.580500   91.165500
  H     -1.798270   -7.713510   91.105900
  C     -1.210350   -5.749800   92.914200
  H     -0.604426   -5.341160   93.758400
  H     -1.685280   -6.674960   93.163000
  C     -2.336500   -4.739480   92.412900
  H     -2.890330   -5.244990   91.701000
  H     -1.813840   -3.828890   91.959900
  C     -3.401980   -4.143780   93.292700
  H     -4.068840   -3.455140   92.777400
  H     -2.851010   -3.599780   94.082500
  H     -4.034190   -4.826280   93.885300
  H      4.273550   -2.141120   91.976700
  H     -0.345428   -8.219240   88.956700

 Total Charge           Charge          ....    0
 Multiplicity           Mult            ....    1
 Number of Electrons    NEL             ....  134
 Basis Dimension        Dim             ....  322

ORBITAL ENERGIES
----------------

  NO   OCC          E(Eh)            E(eV)
   0   2.0000     -88.969237     -2420.9760
   1   2.0000     -88.957147     -2420.6470
   2   2.0000     -10.330019      -281.0941
   3   2.0000     -10.328632      -281.0564
   4   2.0000     -10.325152      -280.9617
   5   2.0000     -10.309911      -280.5469
   6   2.0000     -10.305485      -280.4265
   7   2.0000     -10.303038      -280.3599
   8   2.0000     -10.301676      -280.3228
   9   2.0000     -10.292108      -280.0625
  10   2.0000     -10.291246      -280.0391
  11   2.0000     -10.290604      -280.0216
  12   2.0000     -10.287311      -279.9320
  13   2.0000     -10.285206      -279.8747
  14   2.0000     -10.281333      -279.7693
  15   2.0000     -10.279520      -279.7200
  16   2.0000      -8.084868      -220.0004
  17   2.0000      -8.072168      -219.6549
  18   2.0000      -6.043529      -164.4528
  19   2.0000      -6.039133      -164.3332
  20   2.0000      -6.035528      -164.2351
  21   2.0000      -6.030853      -164.1079
  22   2.0000      -6.026694      -163.9947
  23   2.0000      -6.022680      -163.8855
  24   2.0000      -1.012200       -27.5434
  25   2.0000      -0.990633       -26.9565
  26   2.0000      -0.920454       -25.0468
  27   2.0000      -0.911126       -24.7930
  28   2.0000      -0.874650       -23.8004
  29   2.0000      -0.856506       -23.3067
  30   2.0000      -0.844167       -22.9709
  31   2.0000      -0.819157       -22.2904
  32   2.0000      -0.784021       -21.3343
  33   2.0000      -0.776920       -21.1411
  34   2.0000      -0.705692       -19.2028
  35   2.0000      -0.695572       -18.9275
  36   2.0000      -0.693364       -18.8674
  37   2.0000      -0.669043       -18.2056
  38   2.0000      -0.645207       -17.5570
  39   2.0000      -0.622789       -16.9470
  40   2.0000      -0.593773       -16.1574
  41   2.0000      -0.573103       -15.5949
  42   2.0000      -0.570494       -15.5239
  43   2.0000      -0.546263       -14.8646
  44   2.0000      -0.539995       -14.6940
  45   2.0000      -0.527746       -14.3607
  46   2.0000      -0.523528       -14.2459
  47   2.0000      -0.521200       -14.1826
  48   2.0000      -0.510071       -13.8798
  49   2.0000      -0.504209       -13.7202
  50   2.0000      -0.495805       -13.4915
  51   2.0000      -0.480859       -13.0848
  52   2.0000      -0.475493       -12.9388
  53   2.0000      -0.461971       -12.5709
  54   2.0000      -0.459475       -12.5029
  55   2.0000      -0.455388       -12.3917
  56   2.0000      -0.437440       -11.9033
  57   2.0000      -0.433672       -11.8008
  58   2.0000      -0.429769       -11.6946
  59   2.0000      -0.421747       -11.4763
  60   2.0000      -0.417899       -11.3716
  61   2.0000      -0.413420       -11.2497
  62   2.0000      -0.407506       -11.0888
  63   2.0000      -0.368298       -10.0219
  64   2.0000      -0.331553        -9.0220
  65   2.0000      -0.323730        -8.8091
  66   2.0000      -0.288904        -7.8615
  67   0.0000       0.026091         0.7100
  68   0.0000       0.085215         2.3188
  69   0.0000       0.104613         2.8467
  70   0.0000       0.117014         3.1841
  71   0.0000       0.126350         3.4382

MULLIKEN ATOMIC CHARGES
-----------------------
   0 S :    0.068733
   1 C :   -0.072962
   2 C :   -0.075695
   3 C :   -0.050742
   4 C :   -0.091686
   5 H :    0.005289
   6 C :    0.101741
   7 H :    0.005762
   8 H :    0.014096
   9 C :   -0.027619
  10 H :    0.043214
  11 H :    0.018395
  12 C :   -0.125279
  13 H :    0.023040
  14 H :    0.038575
  15 H :    0.071735
  16 S :    0.120832
  17 C :   -0.104897
  18 C :   -0.044524
  19 C :   -0.102026
  20 C :   -0.104058
  21 H :    0.025482
  22 C :    0.069510
  23 H :    0.044867
  24 H :    0.018826
  25 C :   -0.083271
  26 H :    0.010524
  27 H :    0.045992
  28 C :   -0.032466
  29 H :    0.043934
  30 H :    0.017095
  31 H :    0.025400
  32 H :    0.013761
  33 H :    0.088422
Sum of atomic charges:   -0.0000000

LOEWDIN ATOMIC CHARGES
----------------------
   0 S :    0.367320
   1 C :   -0.166439
   2 C :   -0.068328
   3 C :   -0.074765
   4 C :   -0.166133
   5 H :    0.035496
   6 C :   -0.036121
   7 H :    0.028833
   8 H :    0.028264
   9 C :   -0.039827
  10 H :    0.031573
  11 H :    0.024610
  12 C :   -0.082983
  13 H :    0.016847
  14 H :    0.030640
  15 H :    0.042982
  16 S :    0.433804
  17 C :   -0.211217
  18 C :   -0.070934
  19 C :   -0.052021
  20 C :   -0.209236
  21 H :    0.030092
  22 C :   -0.028323
  23 H :    0.031194
  24 H :    0.028801
  25 C :   -0.041410
  26 H :    0.013050
  27 H :    0.036044
  28 C :   -0.070809
  29 H :    0.031028
  30 H :    0.023287
  31 H :    0.022698
  32 H :    0.011054
  33 H :    0.050931

  Mayer bond orders larger than 0.100000
B(  0-S ,  1-C ) :   1.1248 B(  0-S ,  4-C ) :   1.1038 B(  1-C ,  2-C ) :   1.6369
B(  1-C , 32-H ) :   0.9820 B(  2-C ,  3-C ) :   1.1886 B(  2-C ,  6-C ) :   1.0494
B(  3-C ,  4-C ) :   1.6534 B(  3-C ,  5-H ) :   0.9730 B(  4-C , 20-C ) :   1.0679
B(  6-C ,  7-H ) :   0.9214 B(  6-C ,  8-H ) :   0.9300 B(  6-C ,  9-C ) :   1.0839
B(  9-C , 10-H ) :   0.9536 B(  9-C , 11-H ) :   0.9479 B(  9-C , 12-C ) :   1.0763
B( 12-C , 13-H ) :   0.9739 B( 12-C , 14-H ) :   0.9712 B( 12-C , 15-H ) :   0.9678
B( 16-S , 17-C ) :   1.1482 B( 16-S , 20-C ) :   1.1417 B( 17-C , 18-C ) :   1.6170
B( 17-C , 33-H ) :   0.9567 B( 18-C , 19-C ) :   1.2380 B( 18-C , 21-H ) :   0.9784
B( 19-C , 20-C ) :   1.5942 B( 19-C , 22-C ) :   1.0548 B( 22-C , 23-H ) :   0.9347
B( 22-C , 24-H ) :   0.9223 B( 22-C , 25-C ) :   1.0518 B( 25-C , 26-H ) :   0.9553
B( 25-C , 27-H ) :   0.9557 B( 25-C , 28-C ) :   1.0861 B( 28-C , 29-H ) :   0.9717
B( 28-C , 30-H ) :   0.9726 B( 28-C , 31-H ) :   0.9719

Dispersion correction           -0.014512142
FINAL SINGLE POINT ENERGY     -1339.861910645909

DIPOLE MOMENT
-------------
                                X             Y             Z
Electronic contribution:     12.50365     -12.95384     -22.26923
Nuclear contribution   :    -13.09980      13.13794      22.73116
                        -----------------------------------------
Total Dipole Moment    :     -0.59614       0.18411       0.46193
                        -----------------------------------------
Magnitude (a.u.)       :      0.77631
Magnitude (Debye)      :      1.97323

Rotational constants in cm-1:     0.018324     0.009414     0.006644
Rotational constants in MHz :   549.335617   282.225674   199.174969

                             ****ORCA TERMINATED NORMALLY****
TOTAL RUN TIME: 0 days 0 hours 0 minutes 34 seconds 515 msec
