                         Program Version 4.2.1 -  RELEASE  -
|  1> ! wB97X-D3 SP def2-SVP
|  2> %pal
|  3> nprocs 16
|  4> end
|  5>
|  6> * xyz 0 1
|  7> S 	 42.4934 	 12.6299 	 88.7757
|  8> C 	 42.9784 	 11.3075 	 87.7004
|  9> C 	 41.9513 	 10.3559 	 87.5724
| 10> C 	 40.7851 	 10.6913 	 88.4127
| 11> C 	 40.8975 	 11.9229 	 89.088
| 12> H 	 39.9906 	 10.032 	 88.5675
| 13> C 	 41.9286 	 9.16494 	 86.6912
| 14> H 	 42.9563 	 8.8596 	 86.5249
| 15> H 	 41.5526 	 9.53212 	 85.7216
| 16> C 	 41.3883 	 7.82188 	 87.1854
| 17> H 	 40.3599 	 7.87535 	 87.5921
| 18> H 	 41.3689 	 7.24479 	 86.2838
| 19> C 	 42.3457 	 7.33592 	 88.3308
| 20> H 	 43.2969 	 7.10195 	 87.8754
| 21> H 	 42.5356 	 8.00181 	 89.2266
| 22> H 	 41.9772 	 6.49692 	 88.8561
| 23> S 	 39.7243 	 14.2877 	 89.745
| 24> C 	 38.5375 	 14.3427 	 90.9964
| 25> C 	 38.3362 	 13.1296 	 91.5373
| 26> C 	 39.0304 	 12.0302 	 90.9051
| 27> C 	 39.9566 	 12.5791 	 89.9851
| 28> H 	 37.501 	 13.0477 	 92.2286
| 29> C 	 38.8353 	 10.6032 	 91.3823
| 30> H 	 38.8499 	 10.5796 	 92.3761
| 31> H 	 39.6704 	 10.0896 	 91.1137
| 32> C 	 37.6837 	 9.83452 	 90.8136
| 33> H 	 37.7561 	 9.67541 	 89.6973
| 34> H 	 36.7771 	 10.3646 	 91.0772
| 35> C 	 37.4242 	 8.3996 	 91.3724
| 36> H 	 38.2514 	 7.6801 	 91.1604
| 37> H 	 36.5004 	 7.95538 	 91.0569
| 38> H 	 37.2754 	 8.27833 	 92.4635
| 39> H 	 43.8867 	 11.3307 	 87.1303
| 40> H 	 38.0759 	 15.2784 	 91.3186
| 41> *
| 42>
| 43>                          ****END OF INPUT****

CARTESIAN COORDINATES (ANGSTROEM)
---------------------------------
  S     42.493400   12.629900   88.775700
  C     42.978400   11.307500   87.700400
  C     41.951300   10.355900   87.572400
  C     40.785100   10.691300   88.412700
  C     40.897500   11.922900   89.088000
  H     39.990600   10.032000   88.567500
  C     41.928600    9.164940   86.691200
  H     42.956300    8.859600   86.524900
  H     41.552600    9.532120   85.721600
  C     41.388300    7.821880   87.185400
  H     40.359900    7.875350   87.592100
  H     41.368900    7.244790   86.283800
  C     42.345700    7.335920   88.330800
  H     43.296900    7.101950   87.875400
  H     42.535600    8.001810   89.226600
  H     41.977200    6.496920   88.856100
  S     39.724300   14.287700   89.745000
  C     38.537500   14.342700   90.996400
  C     38.336200   13.129600   91.537300
  C     39.030400   12.030200   90.905100
  C     39.956600   12.579100   89.985100
  H     37.501000   13.047700   92.228600
  C     38.835300   10.603200   91.382300
  H     38.849900   10.579600   92.376100
  H     39.670400   10.089600   91.113700
  C     37.683700    9.834520   90.813600
  H     37.756100    9.675410   89.697300
  H     36.777100   10.364600   91.077200
  C     37.424200    8.399600   91.372400
  H     38.251400    7.680100   91.160400
  H     36.500400    7.955380   91.056900
  H     37.275400    8.278330   92.463500
  H     43.886700   11.330700   87.130300
  H     38.075900   15.278400   91.318600

 Total Charge           Charge          ....    0
 Multiplicity           Mult            ....    1
 Number of Electrons    NEL             ....  134
 Basis Dimension        Dim             ....  322

ORBITAL ENERGIES
----------------

  NO   OCC          E(Eh)            E(eV)
   0   2.0000     -88.964461     -2420.8461
   1   2.0000     -88.963950     -2420.8321
   2   2.0000     -10.333908      -281.1999
   3   2.0000     -10.330496      -281.1071
   4   2.0000     -10.315462      -280.6980
   5   2.0000     -10.312257      -280.6108
   6   2.0000     -10.309300      -280.5303
   7   2.0000     -10.305435      -280.4251
   8   2.0000     -10.295301      -280.1494
   9   2.0000     -10.294565      -280.1293
  10   2.0000     -10.293866      -280.1103
  11   2.0000     -10.289892      -280.0022
  12   2.0000     -10.289557      -279.9931
  13   2.0000     -10.283891      -279.8389
  14   2.0000     -10.280615      -279.7497
  15   2.0000     -10.276252      -279.6310
  16   2.0000      -8.080083      -219.8702
  17   2.0000      -8.077882      -219.8103
  18   2.0000      -6.038515      -164.3164
  19   2.0000      -6.036548      -164.2628
  20   2.0000      -6.034440      -164.2055
  21   2.0000      -6.032430      -164.1508
  22   2.0000      -6.030896      -164.1090
  23   2.0000      -6.028601      -164.0466
  24   2.0000      -1.005073       -27.3494
  25   2.0000      -0.976350       -26.5678
  26   2.0000      -0.917836       -24.9756
  27   2.0000      -0.915406       -24.9095
  28   2.0000      -0.868468       -23.6322
  29   2.0000      -0.850803       -23.1515
  30   2.0000      -0.838510       -22.8170
  31   2.0000      -0.814638       -22.1674
  32   2.0000      -0.789533       -21.4843
  33   2.0000      -0.774794       -21.0832
  34   2.0000      -0.714746       -19.4492
  35   2.0000      -0.704956       -19.1828
  36   2.0000      -0.693719       -18.8771
  37   2.0000      -0.658694       -17.9240
  38   2.0000      -0.635618       -17.2960
  39   2.0000      -0.626275       -17.0418
  40   2.0000      -0.603970       -16.4348
  41   2.0000      -0.574619       -15.6362
  42   2.0000      -0.566631       -15.4188
  43   2.0000      -0.559223       -15.2172
  44   2.0000      -0.533532       -14.5182
  45   2.0000      -0.525923       -14.3111
  46   2.0000      -0.522422       -14.2158
  47   2.0000      -0.511856       -13.9283
  48   2.0000      -0.501345       -13.6423
  49   2.0000      -0.498722       -13.5709
  50   2.0000      -0.496662       -13.5149
  51   2.0000      -0.476420       -12.9640
  52   2.0000      -0.471745       -12.8368
  53   2.0000      -0.463809       -12.6209
  54   2.0000      -0.460840       -12.5401
  55   2.0000      -0.450255       -12.2521
  56   2.0000      -0.446695       -12.1552
  57   2.0000      -0.435272       -11.8443
  58   2.0000      -0.429069       -11.6756
  59   2.0000      -0.428212       -11.6522
  60   2.0000      -0.420094       -11.4313
  61   2.0000      -0.417439       -11.3591
  62   2.0000      -0.415942       -11.3183
  63   2.0000      -0.351460        -9.5637
  64   2.0000      -0.331765        -9.0278
  65   2.0000      -0.324054        -8.8180
  66   2.0000      -0.288018        -7.8374
  67   0.0000       0.026394         0.7182
  68   0.0000       0.077280         2.1029
  69   0.0000       0.114755         3.1226
  70   0.0000       0.117857         3.2070
  71   0.0000       0.121962         3.3188

MULLIKEN ATOMIC CHARGES
-----------------------
   0 S :    0.094796
   1 C :   -0.117709
   2 C :   -0.101177
   3 C :    0.054402
   4 C :   -0.136233
   5 H :   -0.032865
   6 C :    0.043537
   7 H :    0.007874
   8 H :    0.051029
   9 C :   -0.049759
  10 H :    0.034595
  11 H :    0.035922
  12 C :   -0.070209
  13 H :    0.030974
  14 H :    0.054025
  15 H :    0.021384
  16 S :    0.109479
  17 C :   -0.093029
  18 C :   -0.026616
  19 C :   -0.061546
  20 C :   -0.143264
  21 H :    0.018632
  22 C :    0.204138
  23 H :   -0.014007
  24 H :   -0.020296
  25 C :   -0.085614
  26 H :    0.048782
  27 H :    0.025047
  28 C :   -0.074449
  29 H :    0.032501
  30 H :    0.029384
  31 H :    0.023130
  32 H :    0.045922
  33 H :    0.061221
Sum of atomic charges:    0.0000000

LOEWDIN ATOMIC CHARGES
----------------------
   0 S :    0.385166
   1 C :   -0.195918
   2 C :   -0.055553
   3 C :   -0.059524
   4 C :   -0.182603
   5 H :    0.014523
   6 C :   -0.043056
   7 H :    0.030153
   8 H :    0.037867
   9 C :   -0.032585
  10 H :    0.020800
  11 H :    0.028925
  12 C :   -0.068618
  13 H :    0.023344
  14 H :    0.040370
  15 H :    0.018349
  16 S :    0.418688
  17 C :   -0.191905
  18 C :   -0.075359
  19 C :   -0.041464
  20 C :   -0.200227
  21 H :    0.031451
  22 C :   -0.018595
  23 H :    0.018524
  24 H :    0.020302
  25 C :   -0.034723
  26 H :    0.032288
  27 H :    0.023037
  28 C :   -0.077232
  29 H :    0.025272
  30 H :    0.024945
  31 H :    0.025236
  32 H :    0.025142
  33 H :    0.032982

  Mayer bond orders larger than 0.100000
B(  0-S ,  1-C ) :   1.1236 B(  0-S ,  4-C ) :   1.1503 B(  1-C ,  2-C ) :   1.6104
B(  1-C , 32-H ) :   0.9718 B(  2-C ,  3-C ) :   1.2278 B(  2-C ,  6-C ) :   1.0280
B(  3-C ,  4-C ) :   1.5675 B(  3-C ,  5-H ) :   0.9985 B(  4-C , 20-C ) :   1.0432
B(  6-C ,  7-H ) :   0.9403 B(  6-C ,  8-H ) :   0.9313 B(  6-C ,  9-C ) :   1.0633
B(  9-C , 10-H ) :   0.9566 B(  9-C , 11-H ) :   0.9557 B(  9-C , 12-C ) :   1.0613
B( 12-C , 13-H ) :   0.9755 B( 12-C , 14-H ) :   0.9751 B( 12-C , 15-H ) :   0.9759
B( 16-S , 17-C ) :   1.1438 B( 16-S , 20-C ) :   1.1612 B( 17-C , 18-C ) :   1.6353
B( 17-C , 33-H ) :   0.9646 B( 18-C , 19-C ) :   1.2271 B( 18-C , 21-H ) :   0.9838
B( 19-C , 20-C ) :   1.5745 B( 19-C , 22-C ) :   1.0472 B( 22-C , 23-H ) :   0.9214
B( 22-C , 24-H ) :   0.9094 B( 22-C , 25-C ) :   1.0674 B( 25-C , 26-H ) :   0.9513
B( 25-C , 27-H ) :   0.9546 B( 25-C , 28-C ) :   1.0783 B( 28-C , 29-H ) :   0.9760
B( 28-C , 30-H ) :   0.9752 B( 28-C , 31-H ) :   0.9726

Dispersion correction           -0.014377081
FINAL SINGLE POINT ENERGY     -1339.860915442315

DIPOLE MOMENT
-------------
                                X             Y             Z
Electronic contribution:      7.40739      31.31997      -1.19243
Nuclear contribution   :     -7.75444     -31.99412       1.24058
                        -----------------------------------------
Total Dipole Moment    :     -0.34705      -0.67415       0.04815
                        -----------------------------------------
Magnitude (a.u.)       :      0.75976
Magnitude (Debye)      :      1.93115

Rotational constants in cm-1:     0.016207     0.010312     0.006699
Rotational constants in MHz :   485.875241   309.142060   200.816371

                             ****ORCA TERMINATED NORMALLY****
TOTAL RUN TIME: 0 days 0 hours 0 minutes 30 seconds 340 msec
