                         Program Version 4.2.1 -  RELEASE  -
|  1> ! wB97X-D3 SP def2-SVP
|  2> %pal
|  3> nprocs 16
|  4> end
|  5>
|  6> * xyz 0 1
|  7> S 	 2.70894 	 -22.3998 	 63.062
|  8> C 	 1.09493 	 -22.5703 	 63.6621
|  9> C 	 0.39833 	 -23.3784 	 62.8186
| 10> C 	 1.07648 	 -23.7942 	 61.5935
| 11> C 	 2.30027 	 -23.1535 	 61.4983
| 12> H 	 0.711891 	 -24.4597 	 60.7946
| 13> C 	 -0.975335 	 -23.9576 	 63.1837
| 14> H 	 -1.34997 	 -23.5463 	 64.1231
| 15> H 	 -0.756581 	 -25.0451 	 63.3197
| 16> C 	 -2.16864 	 -23.8209 	 62.2546
| 17> H 	 -1.84282 	 -24.1647 	 61.2549
| 18> H 	 -3.09653 	 -24.3581 	 62.6283
| 19> C 	 -2.66896 	 -22.4003 	 61.9566
| 20> H 	 -3.0487 	 -21.916 	 62.9035
| 21> H 	 -1.80707 	 -21.754 	 61.6855
| 22> H 	 -3.45487 	 -22.4558 	 61.2138
| 23> S 	 4.66022 	 -24.3729 	 61.0232
| 24> C 	 5.22733 	 -24.4947 	 59.3714
| 25> C 	 4.49106 	 -23.7335 	 58.5219
| 26> C 	 3.3377 	 -23.1537 	 59.1397
| 27> C 	 3.30383 	 -23.4239 	 60.5223
| 28> H 	 4.75701 	 -23.7577 	 57.5017
| 29> C 	 2.25826 	 -22.2891 	 58.412
| 30> H 	 2.27378 	 -21.2617 	 58.8289
| 31> H 	 1.36308 	 -22.7951 	 58.5736
| 32> C 	 2.47882 	 -22.0467 	 56.873
| 33> H 	 1.50007 	 -21.8394 	 56.4283
| 34> H 	 2.90487 	 -22.9871 	 56.5439
| 35> C 	 3.49935 	 -20.9093 	 56.4462
| 36> H 	 3.15398 	 -19.9807 	 56.8696
| 37> H 	 3.58129 	 -20.8255 	 55.3586
| 38> H 	 4.5024 	 -21.1128 	 56.8468
| 39> H 	 0.736713 	 -22.3722 	 64.6939
| 40> H 	 6.22967 	 -24.856 	 59.1063
| 41> *
| 42>
| 43>                          ****END OF INPUT****

CARTESIAN COORDINATES (ANGSTROEM)
---------------------------------
  S      2.708940  -22.399800   63.062000
  C      1.094930  -22.570300   63.662100
  C      0.398330  -23.378400   62.818600
  C      1.076480  -23.794200   61.593500
  C      2.300270  -23.153500   61.498300
  H      0.711891  -24.459700   60.794600
  C     -0.975335  -23.957600   63.183700
  H     -1.349970  -23.546300   64.123100
  H     -0.756581  -25.045100   63.319700
  C     -2.168640  -23.820900   62.254600
  H     -1.842820  -24.164700   61.254900
  H     -3.096530  -24.358100   62.628300
  C     -2.668960  -22.400300   61.956600
  H     -3.048700  -21.916000   62.903500
  H     -1.807070  -21.754000   61.685500
  H     -3.454870  -22.455800   61.213800
  S      4.660220  -24.372900   61.023200
  C      5.227330  -24.494700   59.371400
  C      4.491060  -23.733500   58.521900
  C      3.337700  -23.153700   59.139700
  C      3.303830  -23.423900   60.522300
  H      4.757010  -23.757700   57.501700
  C      2.258260  -22.289100   58.412000
  H      2.273780  -21.261700   58.828900
  H      1.363080  -22.795100   58.573600
  C      2.478820  -22.046700   56.873000
  H      1.500070  -21.839400   56.428300
  H      2.904870  -22.987100   56.543900
  C      3.499350  -20.909300   56.446200
  H      3.153980  -19.980700   56.869600
  H      3.581290  -20.825500   55.358600
  H      4.502400  -21.112800   56.846800
  H      0.736713  -22.372200   64.693900
  H      6.229670  -24.856000   59.106300

 Total Charge           Charge          ....    0
 Multiplicity           Mult            ....    1
 Number of Electrons    NEL             ....  134
 Basis Dimension        Dim             ....  322

ORBITAL ENERGIES
----------------

  NO   OCC          E(Eh)            E(eV)
   0   2.0000     -88.965882     -2420.8847
   1   2.0000     -88.964400     -2420.8444
   2   2.0000     -10.331455      -281.1332
   3   2.0000     -10.322887      -280.9000
   4   2.0000     -10.315176      -280.6902
   5   2.0000     -10.315142      -280.6893
   6   2.0000     -10.309046      -280.5234
   7   2.0000     -10.305027      -280.4140
   8   2.0000     -10.303390      -280.3695
   9   2.0000     -10.293720      -280.1064
  10   2.0000     -10.293583      -280.1026
  11   2.0000     -10.291624      -280.0493
  12   2.0000     -10.291301      -280.0405
  13   2.0000     -10.290308      -280.0135
  14   2.0000     -10.282171      -279.7921
  15   2.0000     -10.279066      -279.7076
  16   2.0000      -8.081054      -219.8966
  17   2.0000      -8.079180      -219.8457
  18   2.0000      -6.039468      -164.3423
  19   2.0000      -6.037843      -164.2981
  20   2.0000      -6.035483      -164.2338
  21   2.0000      -6.033778      -164.1874
  22   2.0000      -6.031888      -164.1360
  23   2.0000      -6.029659      -164.0754
  24   2.0000      -1.010031       -27.4843
  25   2.0000      -0.985783       -26.8245
  26   2.0000      -0.909219       -24.7411
  27   2.0000      -0.899717       -24.4825
  28   2.0000      -0.878118       -23.8948
  29   2.0000      -0.845921       -23.0187
  30   2.0000      -0.840933       -22.8830
  31   2.0000      -0.819304       -22.2944
  32   2.0000      -0.783161       -21.3109
  33   2.0000      -0.771534       -20.9945
  34   2.0000      -0.710449       -19.3323
  35   2.0000      -0.696171       -18.9438
  36   2.0000      -0.682538       -18.5728
  37   2.0000      -0.653426       -17.7806
  38   2.0000      -0.638960       -17.3870
  39   2.0000      -0.620583       -16.8869
  40   2.0000      -0.597922       -16.2703
  41   2.0000      -0.567008       -15.4291
  42   2.0000      -0.556224       -15.1356
  43   2.0000      -0.552593       -15.0368
  44   2.0000      -0.542812       -14.7707
  45   2.0000      -0.537382       -14.6229
  46   2.0000      -0.514727       -14.0064
  47   2.0000      -0.513721       -13.9791
  48   2.0000      -0.506004       -13.7691
  49   2.0000      -0.499272       -13.5859
  50   2.0000      -0.492056       -13.3895
  51   2.0000      -0.480998       -13.0886
  52   2.0000      -0.472905       -12.8684
  53   2.0000      -0.465112       -12.6564
  54   2.0000      -0.456882       -12.4324
  55   2.0000      -0.450513       -12.2591
  56   2.0000      -0.442452       -12.0397
  57   2.0000      -0.439206       -11.9514
  58   2.0000      -0.435265       -11.8442
  59   2.0000      -0.422114       -11.4863
  60   2.0000      -0.412151       -11.2152
  61   2.0000      -0.410024       -11.1573
  62   2.0000      -0.406302       -11.0560
  63   2.0000      -0.348073        -9.4715
  64   2.0000      -0.331905        -9.0316
  65   2.0000      -0.323782        -8.8106
  66   2.0000      -0.300269        -8.1707
  67   0.0000       0.030226         0.8225
  68   0.0000       0.061639         1.6773
  69   0.0000       0.109910         2.9908
  70   0.0000       0.126051         3.4300
  71   0.0000       0.129924         3.5354

MULLIKEN ATOMIC CHARGES
-----------------------
   0 S :    0.093226
   1 C :   -0.106704
   2 C :   -0.114389
   3 C :    0.037050
   4 C :   -0.164374
   5 H :    0.041471
   6 C :    0.065467
   7 H :    0.008028
   8 H :    0.049815
   9 C :   -0.100567
  10 H :    0.022351
  11 H :    0.045684
  12 C :   -0.073630
  13 H :    0.024459
  14 H :    0.043100
  15 H :    0.042084
  16 S :    0.119719
  17 C :   -0.095020
  18 C :   -0.040294
  19 C :   -0.056088
  20 C :   -0.171410
  21 H :    0.008449
  22 C :    0.111057
  23 H :    0.046001
  24 H :    0.020034
  25 C :   -0.096832
  26 H :    0.038268
  27 H :    0.022192
  28 C :   -0.055944
  29 H :    0.029369
  30 H :    0.044023
  31 H :    0.034301
  32 H :    0.066200
  33 H :    0.062906
Sum of atomic charges:   -0.0000000

LOEWDIN ATOMIC CHARGES
----------------------
   0 S :    0.392652
   1 C :   -0.210252
   2 C :   -0.067156
   3 C :   -0.055087
   4 C :   -0.183066
   5 H :    0.040388
   6 C :   -0.038532
   7 H :    0.024143
   8 H :    0.041998
   9 C :   -0.052803
  10 H :    0.019666
  11 H :    0.034252
  12 C :   -0.071270
  13 H :    0.023401
  14 H :    0.028489
  15 H :    0.025056
  16 S :    0.419312
  17 C :   -0.188032
  18 C :   -0.074775
  19 C :   -0.050350
  20 C :   -0.215343
  21 H :    0.026383
  22 C :   -0.023542
  23 H :    0.038724
  24 H :    0.023316
  25 C :   -0.038947
  26 H :    0.027261
  27 H :    0.016938
  28 C :   -0.064196
  29 H :    0.020964
  30 H :    0.028982
  31 H :    0.025465
  32 H :    0.042552
  33 H :    0.033411

  Mayer bond orders larger than 0.100000
B(  0-S ,  1-C ) :   1.1166 B(  0-S ,  4-C ) :   1.1404 B(  1-C ,  2-C ) :   1.6486
B(  1-C , 32-H ) :   0.9599 B(  2-C ,  3-C ) :   1.2021 B(  2-C ,  6-C ) :   1.0207
B(  3-C ,  4-C ) :   1.5894 B(  3-C ,  5-H ) :   0.9862 B(  4-C , 20-C ) :   1.0521
B(  6-C ,  7-H ) :   0.9440 B(  6-C ,  8-H ) :   0.9362 B(  6-C ,  9-C ) :   1.0734
B(  9-C , 10-H ) :   0.9546 B(  9-C , 11-H ) :   0.9548 B(  9-C , 12-C ) :   1.0757
B( 12-C , 13-H ) :   0.9732 B( 12-C , 14-H ) :   0.9742 B( 12-C , 15-H ) :   0.9757
B( 16-S , 17-C ) :   1.1561 B( 16-S , 20-C ) :   1.1616 B( 17-C , 18-C ) :   1.6258
B( 17-C , 20-C ) :   0.1006 B( 17-C , 33-H ) :   0.9553 B( 18-C , 19-C ) :   1.2461
B( 18-C , 21-H ) :   0.9900 B( 19-C , 20-C ) :   1.5886 B( 19-C , 22-C ) :   1.0127
B( 22-C , 23-H ) :   0.9408 B( 22-C , 24-H ) :   0.9291 B( 22-C , 25-C ) :   1.0754
B( 25-C , 26-H ) :   0.9581 B( 25-C , 27-H ) :   0.9555 B( 25-C , 28-C ) :   1.0735
B( 28-C , 29-H ) :   0.9754 B( 28-C , 30-H ) :   0.9766 B( 28-C , 31-H ) :   0.9777

Dispersion correction           -0.013941888
FINAL SINGLE POINT ENERGY     -1339.872175063190

DIPOLE MOMENT
-------------
                                X             Y             Z
Electronic contribution:     20.57016      -6.66802      14.76427
Nuclear contribution   :    -20.94501       6.52369     -15.12162
                        -----------------------------------------
Total Dipole Moment    :     -0.37486      -0.14434      -0.35735
                        -----------------------------------------
Magnitude (a.u.)       :      0.53764
Magnitude (Debye)      :      1.36656

Rotational constants in cm-1:     0.018415     0.008326     0.006541
Rotational constants in MHz :   552.076841   249.616617   196.087326

                             ****ORCA TERMINATED NORMALLY****
TOTAL RUN TIME: 0 days 0 hours 0 minutes 34 seconds 175 msec
