                         Program Version 4.2.1 -  RELEASE  -
|  1> ! wB97X-D3 SP def2-SVP
|  2> %pal
|  3> nprocs 16
|  4> end
|  5>
|  6> * xyz 0 1
|  7> S 	 33.9387 	 2.33351 	 67.1923
|  8> C 	 34.2743 	 3.75888 	 66.2559
|  9> C 	 33.177 	 4.09405 	 65.5571
| 10> C 	 32.1596 	 3.12456 	 65.5569
| 11> C 	 32.4297 	 2.05445 	 66.3909
| 12> H 	 31.2088 	 3.15319 	 65.058
| 13> C 	 33.0672 	 5.30056 	 64.6075
| 14> H 	 34.0432 	 5.5639 	 64.2555
| 15> H 	 32.7499 	 6.19651 	 65.1854
| 16> C 	 32.1254 	 5.17211 	 63.4109
| 17> H 	 31.1414 	 4.83811 	 63.7435
| 18> H 	 31.9982 	 6.11038 	 62.9971
| 19> C 	 32.6968 	 4.31508 	 62.248
| 20> H 	 32.9501 	 3.29794 	 62.4993
| 21> H 	 32.0142 	 4.3036 	 61.4207
| 22> H 	 33.6485 	 4.55283 	 61.8469
| 23> S 	 30.973 	 0.479939 	 68.1154
| 24> C 	 30.2455 	 -1.06563 	 67.5361
| 25> C 	 30.5166 	 -1.23822 	 66.199
| 26> C 	 31.2675 	 -0.135646 	 65.6007
| 27> C 	 31.6435 	 0.86979 	 66.5542
| 28> H 	 30.1966 	 -2.17151 	 65.8659
| 29> C 	 31.617 	 -0.0722994 	 64.0745
| 30> H 	 32.6899 	 -0.146712 	 63.7601
| 31> H 	 31.3752 	 0.939584 	 63.8477
| 32> C 	 30.853 	 -0.911319 	 63.0559
| 33> H 	 29.807 	 -0.832874 	 63.3725
| 34> H 	 31.1522 	 -1.96893 	 63.1019
| 35> C 	 31.1138 	 -0.37539 	 61.6366
| 36> H 	 32.1061 	 -0.666694 	 61.2371
| 37> H 	 31.0847 	 0.702252 	 61.5805
| 38> H 	 30.3961 	 -0.728609 	 60.8285
| 39> H 	 35.1583 	 4.33097 	 66.3286
| 40> H 	 29.786 	 -1.79134 	 68.1776
| 41> *
| 42>
| 43>                          ****END OF INPUT****

CARTESIAN COORDINATES (ANGSTROEM)
---------------------------------
  S     33.938700    2.333510   67.192300
  C     34.274300    3.758880   66.255900
  C     33.177000    4.094050   65.557100
  C     32.159600    3.124560   65.556900
  C     32.429700    2.054450   66.390900
  H     31.208800    3.153190   65.058000
  C     33.067200    5.300560   64.607500
  H     34.043200    5.563900   64.255500
  H     32.749900    6.196510   65.185400
  C     32.125400    5.172110   63.410900
  H     31.141400    4.838110   63.743500
  H     31.998200    6.110380   62.997100
  C     32.696800    4.315080   62.248000
  H     32.950100    3.297940   62.499300
  H     32.014200    4.303600   61.420700
  H     33.648500    4.552830   61.846900
  S     30.973000    0.479939   68.115400
  C     30.245500   -1.065630   67.536100
  C     30.516600   -1.238220   66.199000
  C     31.267500   -0.135646   65.600700
  C     31.643500    0.869790   66.554200
  H     30.196600   -2.171510   65.865900
  C     31.617000   -0.072299   64.074500
  H     32.689900   -0.146712   63.760100
  H     31.375200    0.939584   63.847700
  C     30.853000   -0.911319   63.055900
  H     29.807000   -0.832874   63.372500
  H     31.152200   -1.968930   63.101900
  C     31.113800   -0.375390   61.636600
  H     32.106100   -0.666694   61.237100
  H     31.084700    0.702252   61.580500
  H     30.396100   -0.728609   60.828500
  H     35.158300    4.330970   66.328600
  H     29.786000   -1.791340   68.177600

 Total Charge           Charge          ....    0
 Multiplicity           Mult            ....    1
 Number of Electrons    NEL             ....  134
 Basis Dimension        Dim             ....  322

ORBITAL ENERGIES
----------------

  NO   OCC          E(Eh)            E(eV)
   0   2.0000     -88.964455     -2420.8459
   1   2.0000     -88.964160     -2420.8379
   2   2.0000     -10.331142      -281.1247
   3   2.0000     -10.325884      -280.9816
   4   2.0000     -10.319653      -280.8120
   5   2.0000     -10.318790      -280.7885
   6   2.0000     -10.308175      -280.4997
   7   2.0000     -10.296245      -280.1751
   8   2.0000     -10.295852      -280.1644
   9   2.0000     -10.291634      -280.0496
  10   2.0000     -10.290911      -280.0299
  11   2.0000     -10.289986      -280.0048
  12   2.0000     -10.289219      -279.9839
  13   2.0000     -10.285940      -279.8946
  14   2.0000     -10.285297      -279.8772
  15   2.0000     -10.271787      -279.5095
  16   2.0000      -8.079879      -219.8647
  17   2.0000      -8.078201      -219.8190
  18   2.0000      -6.038318      -164.3110
  19   2.0000      -6.036773      -164.2689
  20   2.0000      -6.034227      -164.1997
  21   2.0000      -6.032656      -164.1569
  22   2.0000      -6.030713      -164.1040
  23   2.0000      -6.029078      -164.0596
  24   2.0000      -1.010927       -27.5087
  25   2.0000      -0.980052       -26.6686
  26   2.0000      -0.912194       -24.8220
  27   2.0000      -0.905670       -24.6445
  28   2.0000      -0.877264       -23.8716
  29   2.0000      -0.846709       -23.0401
  30   2.0000      -0.839846       -22.8534
  31   2.0000      -0.820015       -22.3137
  32   2.0000      -0.787007       -21.4155
  33   2.0000      -0.769203       -20.9311
  34   2.0000      -0.718805       -19.5597
  35   2.0000      -0.701489       -19.0885
  36   2.0000      -0.699488       -19.0340
  37   2.0000      -0.651809       -17.7366
  38   2.0000      -0.645435       -17.5632
  39   2.0000      -0.628822       -17.1111
  40   2.0000      -0.594697       -16.1825
  41   2.0000      -0.573235       -15.5985
  42   2.0000      -0.567659       -15.4468
  43   2.0000      -0.551004       -14.9936
  44   2.0000      -0.535636       -14.5754
  45   2.0000      -0.526588       -14.3292
  46   2.0000      -0.518399       -14.1064
  47   2.0000      -0.514791       -14.0082
  48   2.0000      -0.505877       -13.7656
  49   2.0000      -0.498765       -13.5721
  50   2.0000      -0.493254       -13.4221
  51   2.0000      -0.480667       -13.0796
  52   2.0000      -0.476151       -12.9567
  53   2.0000      -0.466222       -12.6865
  54   2.0000      -0.452469       -12.3123
  55   2.0000      -0.446418       -12.1477
  56   2.0000      -0.444883       -12.1059
  57   2.0000      -0.437378       -11.9017
  58   2.0000      -0.430566       -11.7163
  59   2.0000      -0.427934       -11.6447
  60   2.0000      -0.421342       -11.4653
  61   2.0000      -0.415488       -11.3060
  62   2.0000      -0.411388       -11.1944
  63   2.0000      -0.345096        -9.3905
  64   2.0000      -0.331797        -9.0286
  65   2.0000      -0.327494        -8.9116
  66   2.0000      -0.295456        -8.0398
  67   0.0000       0.030819         0.8386
  68   0.0000       0.062944         1.7128
  69   0.0000       0.120421         3.2768
  70   0.0000       0.125585         3.4173
  71   0.0000       0.127825         3.4783

MULLIKEN ATOMIC CHARGES
-----------------------
   0 S :    0.122285
   1 C :   -0.125619
   2 C :   -0.045147
   3 C :    0.022473
   4 C :   -0.161412
   5 H :    0.013136
   6 C :    0.065270
   7 H :    0.007581
   8 H :    0.039944
   9 C :   -0.031793
  10 H :    0.027220
  11 H :    0.011486
  12 C :   -0.037307
  13 H :    0.019936
  14 H :    0.029246
  15 H :    0.010736
  16 S :    0.095289
  17 C :   -0.103726
  18 C :   -0.016452
  19 C :   -0.005387
  20 C :   -0.158738
  21 H :    0.001251
  22 C :    0.048262
  23 H :    0.042997
  24 H :    0.003055
  25 C :   -0.061795
  26 H :    0.030891
  27 H :    0.038787
  28 C :   -0.076238
  29 H :    0.033991
  30 H :    0.026456
  31 H :    0.043385
  32 H :    0.033080
  33 H :    0.056856
Sum of atomic charges:    0.0000000

LOEWDIN ATOMIC CHARGES
----------------------
   0 S :    0.423628
   1 C :   -0.189660
   2 C :   -0.068224
   3 C :   -0.059599
   4 C :   -0.202501
   5 H :    0.030194
   6 C :   -0.027899
   7 H :    0.023437
   8 H :    0.037430
   9 C :   -0.030522
  10 H :    0.023774
  11 H :    0.018980
  12 C :   -0.066851
  13 H :    0.022942
  14 H :    0.023753
  15 H :    0.021820
  16 S :    0.388252
  17 C :   -0.167154
  18 C :   -0.066926
  19 C :   -0.044794
  20 C :   -0.205812
  21 H :    0.025441
  22 C :   -0.040118
  23 H :    0.037017
  24 H :    0.023726
  25 C :   -0.044322
  26 H :    0.024588
  27 H :    0.025389
  28 C :   -0.071328
  29 H :    0.028112
  30 H :    0.020952
  31 H :    0.034642
  32 H :    0.023671
  33 H :    0.027960

  Mayer bond orders larger than 0.100000
B(  0-S ,  1-C ) :   1.1416 B(  0-S ,  4-C ) :   1.1630 B(  1-C ,  2-C ) :   1.6075
B(  1-C , 32-H ) :   0.9797 B(  2-C ,  3-C ) :   1.2516 B(  2-C ,  6-C ) :   1.0014
B(  3-C ,  4-C ) :   1.5623 B(  3-C ,  5-H ) :   0.9919 B(  4-C , 20-C ) :   1.0537
B(  6-C ,  7-H ) :   0.9464 B(  6-C ,  8-H ) :   0.9295 B(  6-C ,  9-C ) :   1.0985
B(  9-C , 10-H ) :   0.9466 B(  9-C , 11-H ) :   0.9473 B(  9-C , 12-C ) :   1.0730
B( 12-C , 13-H ) :   0.9738 B( 12-C , 14-H ) :   0.9768 B( 12-C , 15-H ) :   0.9696
B( 16-S , 17-C ) :   1.1392 B( 16-S , 20-C ) :   1.1512 B( 17-C , 18-C ) :   1.6295
B( 17-C , 20-C ) :   0.1027 B( 17-C , 33-H ) :   0.9668 B( 18-C , 19-C ) :   1.2124
B( 18-C , 21-H ) :   1.0010 B( 19-C , 20-C ) :   1.5780 B( 19-C , 22-C ) :   1.0131
B( 22-C , 23-H ) :   0.9373 B( 22-C , 24-H ) :   0.9342 B( 22-C , 25-C ) :   1.0782
B( 25-C , 26-H ) :   0.9536 B( 25-C , 27-H ) :   0.9502 B( 25-C , 28-C ) :   1.0749
B( 28-C , 29-H ) :   0.9748 B( 28-C , 30-H ) :   0.9769 B( 28-C , 31-H ) :   0.9737

Dispersion correction           -0.014570966
FINAL SINGLE POINT ENERGY     -1339.867806110634

DIPOLE MOMENT
-------------
                                X             Y             Z
Electronic contribution:      3.43590      -4.67664      31.51077
Nuclear contribution   :     -3.50491       4.82419     -32.19532
                        -----------------------------------------
Total Dipole Moment    :     -0.06901       0.14755      -0.68455
                        -----------------------------------------
Magnitude (a.u.)       :      0.70366
Magnitude (Debye)      :      1.78856

Rotational constants in cm-1:     0.015495     0.010598     0.007005
Rotational constants in MHz :   464.542612   317.731805   210.010315

                             ****ORCA TERMINATED NORMALLY****
TOTAL RUN TIME: 0 days 0 hours 0 minutes 30 seconds 946 msec
