                         Program Version 4.2.1 -  RELEASE  -
|  1> ! wB97X-D3 SP def2-SVP
|  2> %pal
|  3> nprocs 16
|  4> end
|  5>
|  6> * xyz 0 1
|  7> S 	 -52.8139 	 29.3409 	 93.9213
|  8> C 	 -51.1351 	 28.7369 	 94.14
|  9> C 	 -50.7105 	 28.0816 	 92.9793
| 10> C 	 -51.7152 	 27.9509 	 92.0093
| 11> C 	 -52.9321 	 28.4909 	 92.4394
| 12> H 	 -51.5033 	 27.4498 	 91.0368
| 13> C 	 -49.3247 	 27.5087 	 92.7729
| 14> H 	 -48.64 	 27.9606 	 93.5121
| 15> H 	 -48.8694 	 27.8098 	 91.8183
| 16> C 	 -49.1798 	 25.9455 	 92.6546
| 17> H 	 -49.7616 	 25.5836 	 91.7945
| 18> H 	 -48.1542 	 25.7056 	 92.5179
| 19> C 	 -49.7406 	 25.2874 	 93.8513
| 20> H 	 -49.4252 	 24.2309 	 93.8879
| 21> H 	 -49.3589 	 25.7507 	 94.7816
| 22> H 	 -50.764 	 25.4425 	 93.9851
| 23> S 	 -55.1499 	 29.8344 	 91.5733
| 24> C 	 -56.2386 	 29.0524 	 90.5129
| 25> C 	 -55.8754 	 27.7278 	 90.2356
| 26> C 	 -54.6319 	 27.297 	 90.9161
| 27> C 	 -54.1524 	 28.33 	 91.7499
| 28> H 	 -56.493 	 27.1199 	 89.5172
| 29> C 	 -54.0946 	 25.871 	 90.7636
| 30> H 	 -53.256 	 25.8911 	 90.0886
| 31> H 	 -54.8061 	 25.1744 	 90.3287
| 32> C 	 -53.7074 	 25.2091 	 92.0824
| 33> H 	 -54.444 	 25.5147 	 92.8025
| 34> H 	 -52.8124 	 25.6975 	 92.4084
| 35> C 	 -53.5522 	 23.6937 	 92.1097
| 36> H 	 -52.5597 	 23.4771 	 91.7125
| 37> H 	 -54.2769 	 23.1826 	 91.4688
| 38> H 	 -53.6478 	 23.338 	 93.1508
| 39> H 	 -50.4769 	 28.8317 	 94.9083
| 40> H 	 -57.068 	 29.5288 	 89.9824
| 41> *
| 42>
| 43>                          ****END OF INPUT****

CARTESIAN COORDINATES (ANGSTROEM)
---------------------------------
  S    -52.813900   29.340900   93.921300
  C    -51.135100   28.736900   94.140000
  C    -50.710500   28.081600   92.979300
  C    -51.715200   27.950900   92.009300
  C    -52.932100   28.490900   92.439400
  H    -51.503300   27.449800   91.036800
  C    -49.324700   27.508700   92.772900
  H    -48.640000   27.960600   93.512100
  H    -48.869400   27.809800   91.818300
  C    -49.179800   25.945500   92.654600
  H    -49.761600   25.583600   91.794500
  H    -48.154200   25.705600   92.517900
  C    -49.740600   25.287400   93.851300
  H    -49.425200   24.230900   93.887900
  H    -49.358900   25.750700   94.781600
  H    -50.764000   25.442500   93.985100
  S    -55.149900   29.834400   91.573300
  C    -56.238600   29.052400   90.512900
  C    -55.875400   27.727800   90.235600
  C    -54.631900   27.297000   90.916100
  C    -54.152400   28.330000   91.749900
  H    -56.493000   27.119900   89.517200
  C    -54.094600   25.871000   90.763600
  H    -53.256000   25.891100   90.088600
  H    -54.806100   25.174400   90.328700
  C    -53.707400   25.209100   92.082400
  H    -54.444000   25.514700   92.802500
  H    -52.812400   25.697500   92.408400
  C    -53.552200   23.693700   92.109700
  H    -52.559700   23.477100   91.712500
  H    -54.276900   23.182600   91.468800
  H    -53.647800   23.338000   93.150800
  H    -50.476900   28.831700   94.908300
  H    -57.068000   29.528800   89.982400

 Total Charge           Charge          ....    0
 Multiplicity           Mult            ....    1
 Number of Electrons    NEL             ....  134
 Basis Dimension        Dim             ....  322

ORBITAL ENERGIES
----------------

  NO   OCC          E(Eh)            E(eV)
   0   2.0000     -88.973582     -2421.0942
   1   2.0000     -88.966863     -2420.9114
   2   2.0000     -10.330960      -281.1197
   3   2.0000     -10.328571      -281.0547
   4   2.0000     -10.319708      -280.8135
   5   2.0000     -10.316903      -280.7372
   6   2.0000     -10.311321      -280.5853
   7   2.0000     -10.303977      -280.3855
   8   2.0000     -10.300555      -280.2923
   9   2.0000     -10.295288      -280.1490
  10   2.0000     -10.294915      -280.1389
  11   2.0000     -10.292870      -280.0832
  12   2.0000     -10.285686      -279.8877
  13   2.0000     -10.278700      -279.6976
  14   2.0000     -10.272664      -279.5334
  15   2.0000     -10.267347      -279.3887
  16   2.0000      -8.087855      -220.0817
  17   2.0000      -8.081531      -219.9096
  18   2.0000      -6.046422      -164.5315
  19   2.0000      -6.042497      -164.4247
  20   2.0000      -6.040116      -164.3599
  21   2.0000      -6.038503      -164.3160
  22   2.0000      -6.036029      -164.2487
  23   2.0000      -6.032244      -164.1457
  24   2.0000      -1.007993       -27.4289
  25   2.0000      -0.978263       -26.6199
  26   2.0000      -0.916132       -24.9292
  27   2.0000      -0.911268       -24.7969
  28   2.0000      -0.872722       -23.7480
  29   2.0000      -0.854369       -23.2486
  30   2.0000      -0.844073       -22.9684
  31   2.0000      -0.808781       -22.0081
  32   2.0000      -0.785830       -21.3835
  33   2.0000      -0.775968       -21.1152
  34   2.0000      -0.714006       -19.4291
  35   2.0000      -0.701165       -19.0797
  36   2.0000      -0.691788       -18.8245
  37   2.0000      -0.656749       -17.8710
  38   2.0000      -0.632862       -17.2210
  39   2.0000      -0.624266       -16.9871
  40   2.0000      -0.594696       -16.1825
  41   2.0000      -0.570355       -15.5202
  42   2.0000      -0.566427       -15.4133
  43   2.0000      -0.552380       -15.0310
  44   2.0000      -0.542706       -14.7678
  45   2.0000      -0.523554       -14.2466
  46   2.0000      -0.521376       -14.1874
  47   2.0000      -0.515770       -14.0348
  48   2.0000      -0.507335       -13.8053
  49   2.0000      -0.494983       -13.4692
  50   2.0000      -0.492212       -13.3938
  51   2.0000      -0.487746       -13.2723
  52   2.0000      -0.471722       -12.8362
  53   2.0000      -0.463068       -12.6007
  54   2.0000      -0.457693       -12.4545
  55   2.0000      -0.452429       -12.3112
  56   2.0000      -0.449091       -12.2204
  57   2.0000      -0.434329       -11.8187
  58   2.0000      -0.429737       -11.6937
  59   2.0000      -0.425470       -11.5776
  60   2.0000      -0.420679       -11.4473
  61   2.0000      -0.414922       -11.2906
  62   2.0000      -0.411215       -11.1897
  63   2.0000      -0.350847        -9.5470
  64   2.0000      -0.334668        -9.1068
  65   2.0000      -0.330151        -8.9839
  66   2.0000      -0.281800        -7.6682
  67   0.0000       0.018217         0.4957
  68   0.0000       0.069619         1.8944
  69   0.0000       0.097759         2.6602
  70   0.0000       0.117531         3.1982
  71   0.0000       0.122472         3.3326

MULLIKEN ATOMIC CHARGES
-----------------------
   0 S :    0.126533
   1 C :   -0.066990
   2 C :   -0.095983
   3 C :   -0.004702
   4 C :   -0.133658
   5 H :    0.028829
   6 C :    0.029193
   7 H :    0.023028
   8 H :    0.030605
   9 C :   -0.048219
  10 H :    0.025394
  11 H :    0.025409
  12 C :   -0.035823
  13 H :    0.036297
  14 H :    0.008152
  15 H :    0.033728
  16 S :    0.094712
  17 C :   -0.084170
  18 C :   -0.065720
  19 C :   -0.045927
  20 C :   -0.134008
  21 H :    0.038441
  22 C :    0.084910
  23 H :    0.027214
  24 H :    0.010910
  25 C :   -0.094909
  26 H :    0.027470
  27 H :    0.027393
  28 C :   -0.027349
  29 H :    0.025853
  30 H :    0.026541
  31 H :    0.045584
  32 H :   -0.004889
  33 H :    0.066150
Sum of atomic charges:   -0.0000000

LOEWDIN ATOMIC CHARGES
----------------------
   0 S :    0.415145
   1 C :   -0.178670
   2 C :   -0.058639
   3 C :   -0.068501
   4 C :   -0.203987
   5 H :    0.039178
   6 C :   -0.034897
   7 H :    0.029410
   8 H :    0.033658
   9 C :   -0.034808
  10 H :    0.023456
  11 H :    0.022223
  12 C :   -0.067878
  13 H :    0.028892
  14 H :    0.024345
  15 H :    0.017802
  16 S :    0.393754
  17 C :   -0.201077
  18 C :   -0.079715
  19 C :   -0.040622
  20 C :   -0.182680
  21 H :    0.038824
  22 C :   -0.028735
  23 H :    0.026995
  24 H :    0.028506
  25 C :   -0.046042
  26 H :    0.023564
  27 H :    0.018714
  28 C :   -0.061387
  29 H :    0.024245
  30 H :    0.022149
  31 H :    0.034520
  32 H :    0.006724
  33 H :    0.035534

  Mayer bond orders larger than 0.100000
B(  0-S ,  1-C ) :   1.1146 B(  0-S ,  4-C ) :   1.1656 B(  1-C ,  2-C ) :   1.5950
B(  1-C ,  4-C ) :   0.1019 B(  1-C , 32-H ) :   0.9764 B(  2-C ,  3-C ) :   1.2689
B(  2-C ,  6-C ) :   1.0331 B(  3-C ,  4-C ) :   1.5109 B(  3-C ,  5-H ) :   0.9901
B(  4-C , 20-C ) :   1.0816 B(  6-C ,  7-H ) :   0.9423 B(  6-C ,  8-H ) :   0.9416
B(  6-C ,  9-C ) :   1.0676 B(  9-C , 10-H ) :   0.9521 B(  9-C , 11-H ) :   0.9529
B(  9-C , 12-C ) :   1.0880 B( 12-C , 13-H ) :   0.9706 B( 12-C , 14-H ) :   0.9675
B( 12-C , 15-H ) :   0.9671 B( 16-S , 17-C ) :   1.1597 B( 16-S , 20-C ) :   1.1132
B( 17-C , 18-C ) :   1.6215 B( 17-C , 33-H ) :   0.9629 B( 18-C , 19-C ) :   1.2256
B( 18-C , 21-H ) :   0.9800 B( 19-C , 20-C ) :   1.5900 B( 19-C , 22-C ) :   1.0408
B( 22-C , 23-H ) :   0.9231 B( 22-C , 24-H ) :   0.9382 B( 22-C , 25-C ) :   1.0656
B( 25-C , 26-H ) :   0.9561 B( 25-C , 27-H ) :   0.9423 B( 25-C , 28-C ) :   1.0924
B( 28-C , 29-H ) :   0.9745 B( 28-C , 30-H ) :   0.9746 B( 28-C , 31-H ) :   0.9741

Dispersion correction           -0.016241748
FINAL SINGLE POINT ENERGY     -1339.872278044746

DIPOLE MOMENT
-------------
                                X             Y             Z
Electronic contribution:    -15.31462      27.64127       0.68607
Nuclear contribution   :     15.63591     -28.19353      -1.02317
                        -----------------------------------------
Total Dipole Moment    :      0.32129      -0.55226      -0.33710
                        -----------------------------------------
Magnitude (a.u.)       :      0.72239
Magnitude (Debye)      :      1.83618

Rotational constants in cm-1:     0.019257     0.010408     0.007542
Rotational constants in MHz :   577.301074   312.029847   226.115681

                             ****ORCA TERMINATED NORMALLY****
TOTAL RUN TIME: 0 days 0 hours 0 minutes 31 seconds 50 msec
