                         Program Version 4.2.1 -  RELEASE  -
|  1> ! wB97X-D3 SP def2-SVP
|  2> %pal
|  3> nprocs 16
|  4> end
|  5>
|  6> * xyz 0 1
|  7> S 	 55.4859 	 23.7366 	 44.2934
|  8> C 	 57.0613 	 24.0147 	 43.567
|  9> C 	 57.9165 	 22.889 	 43.6525
| 10> C 	 57.2048 	 21.7436 	 44.1406
| 11> C 	 55.9594 	 22.0403 	 44.5162
| 12> H 	 57.4976 	 20.697 	 44.2319
| 13> C 	 59.3483 	 22.8298 	 43.1905
| 14> H 	 59.4621 	 23.512 	 42.3178
| 15> H 	 59.632 	 21.8386 	 42.6609
| 16> C 	 60.3621 	 23.2138 	 44.2241
| 17> H 	 61.4045 	 23.157 	 43.8157
| 18> H 	 60.4067 	 24.2715 	 44.4876
| 19> C 	 60.4663 	 22.3231 	 45.4421
| 20> H 	 59.5677 	 22.2788 	 46.0056
| 21> H 	 60.6616 	 21.3302 	 45.1626
| 22> H 	 61.1825 	 22.6413 	 46.1704
| 23> S 	 55.1736 	 20.158 	 46.5048
| 24> C 	 53.876 	 19.1233 	 46.1333
| 25> C 	 53.2356 	 19.4477 	 44.9214
| 26> C 	 53.9785 	 20.4885 	 44.1991
| 27> C 	 54.9794 	 21.041 	 44.9536
| 28> H 	 52.4406 	 18.8027 	 44.5099
| 29> C 	 53.6418 	 20.8251 	 42.7073
| 30> H 	 54.5923 	 20.9061 	 42.1434
| 31> H 	 53.3442 	 21.8776 	 42.7627
| 32> C 	 52.598 	 20.1498 	 41.8824
| 33> H 	 51.6317 	 20.6533 	 42.0934
| 34> H 	 52.5667 	 19.0595 	 42.0384
| 35> C 	 52.8543 	 20.5851 	 40.3944
| 36> H 	 52.1077 	 20.1429 	 39.7418
| 37> H 	 53.801 	 20.3235 	 40.07
| 38> H 	 52.8061 	 21.6894 	 40.3309
| 39> H 	 57.4202 	 24.9251 	 43.1819
| 40> H 	 53.462 	 18.3953 	 46.9355
| 41> *
| 42>
| 43>                          ****END OF INPUT****

CARTESIAN COORDINATES (ANGSTROEM)
---------------------------------
  S     55.485900   23.736600   44.293400
  C     57.061300   24.014700   43.567000
  C     57.916500   22.889000   43.652500
  C     57.204800   21.743600   44.140600
  C     55.959400   22.040300   44.516200
  H     57.497600   20.697000   44.231900
  C     59.348300   22.829800   43.190500
  H     59.462100   23.512000   42.317800
  H     59.632000   21.838600   42.660900
  C     60.362100   23.213800   44.224100
  H     61.404500   23.157000   43.815700
  H     60.406700   24.271500   44.487600
  C     60.466300   22.323100   45.442100
  H     59.567700   22.278800   46.005600
  H     60.661600   21.330200   45.162600
  H     61.182500   22.641300   46.170400
  S     55.173600   20.158000   46.504800
  C     53.876000   19.123300   46.133300
  C     53.235600   19.447700   44.921400
  C     53.978500   20.488500   44.199100
  C     54.979400   21.041000   44.953600
  H     52.440600   18.802700   44.509900
  C     53.641800   20.825100   42.707300
  H     54.592300   20.906100   42.143400
  H     53.344200   21.877600   42.762700
  C     52.598000   20.149800   41.882400
  H     51.631700   20.653300   42.093400
  H     52.566700   19.059500   42.038400
  C     52.854300   20.585100   40.394400
  H     52.107700   20.142900   39.741800
  H     53.801000   20.323500   40.070000
  H     52.806100   21.689400   40.330900
  H     57.420200   24.925100   43.181900
  H     53.462000   18.395300   46.935500

 Total Charge           Charge          ....    0
 Multiplicity           Mult            ....    1
 Number of Electrons    NEL             ....  134
 Basis Dimension        Dim             ....  322

ORBITAL ENERGIES
----------------

  NO   OCC          E(Eh)            E(eV)
   0   2.0000     -88.969699     -2420.9886
   1   2.0000     -88.964837     -2420.8563
   2   2.0000     -10.324050      -280.9317
   3   2.0000     -10.322352      -280.8855
   4   2.0000     -10.321090      -280.8511
   5   2.0000     -10.315766      -280.7063
   6   2.0000     -10.308227      -280.5011
   7   2.0000     -10.305699      -280.4323
   8   2.0000     -10.300434      -280.2891
   9   2.0000     -10.298883      -280.2469
  10   2.0000     -10.291459      -280.0448
  11   2.0000     -10.290433      -280.0169
  12   2.0000     -10.290401      -280.0160
  13   2.0000     -10.284436      -279.8537
  14   2.0000     -10.276806      -279.6461
  15   2.0000     -10.262297      -279.2513
  16   2.0000      -8.083599      -219.9659
  17   2.0000      -8.079759      -219.8614
  18   2.0000      -6.042044      -164.4124
  19   2.0000      -6.038418      -164.3137
  20   2.0000      -6.038163      -164.3068
  21   2.0000      -6.034280      -164.2011
  22   2.0000      -6.034263      -164.2006
  23   2.0000      -6.030605      -164.1011
  24   2.0000      -1.002804       -27.2877
  25   2.0000      -0.979651       -26.6577
  26   2.0000      -0.913390       -24.8546
  27   2.0000      -0.910346       -24.7718
  28   2.0000      -0.867182       -23.5972
  29   2.0000      -0.851115       -23.1600
  30   2.0000      -0.845151       -22.9977
  31   2.0000      -0.810973       -22.0677
  32   2.0000      -0.783000       -21.3065
  33   2.0000      -0.771074       -20.9820
  34   2.0000      -0.703800       -19.1514
  35   2.0000      -0.701716       -19.0947
  36   2.0000      -0.688968       -18.7478
  37   2.0000      -0.651452       -17.7269
  38   2.0000      -0.639111       -17.3911
  39   2.0000      -0.611536       -16.6408
  40   2.0000      -0.595275       -16.1983
  41   2.0000      -0.572102       -15.5677
  42   2.0000      -0.566572       -15.4172
  43   2.0000      -0.554713       -15.0945
  44   2.0000      -0.540181       -14.6991
  45   2.0000      -0.521318       -14.1858
  46   2.0000      -0.511969       -13.9314
  47   2.0000      -0.509347       -13.8600
  48   2.0000      -0.502306       -13.6684
  49   2.0000      -0.490249       -13.3404
  50   2.0000      -0.484083       -13.1726
  51   2.0000      -0.476064       -12.9544
  52   2.0000      -0.467407       -12.7188
  53   2.0000      -0.464874       -12.6499
  54   2.0000      -0.459290       -12.4979
  55   2.0000      -0.451957       -12.2984
  56   2.0000      -0.447476       -12.1764
  57   2.0000      -0.442942       -12.0531
  58   2.0000      -0.434752       -11.8302
  59   2.0000      -0.423208       -11.5161
  60   2.0000      -0.419950       -11.4274
  61   2.0000      -0.412067       -11.2129
  62   2.0000      -0.403980       -10.9929
  63   2.0000      -0.342233        -9.3126
  64   2.0000      -0.327122        -8.9015
  65   2.0000      -0.323385        -8.7998
  66   2.0000      -0.302437        -8.2297
  67   0.0000       0.039209         1.0669
  68   0.0000       0.062597         1.7033
  69   0.0000       0.108408         2.9499
  70   0.0000       0.111170         3.0251
  71   0.0000       0.133483         3.6323

MULLIKEN ATOMIC CHARGES
-----------------------
   0 S :    0.119972
   1 C :   -0.090394
   2 C :   -0.070334
   3 C :    0.041042
   4 C :   -0.184349
   5 H :    0.021921
   6 C :    0.030961
   7 H :    0.025945
   8 H :    0.044153
   9 C :   -0.069518
  10 H :    0.020101
  11 H :    0.022357
  12 C :   -0.009791
  13 H :    0.021983
  14 H :    0.009768
  15 H :    0.024519
  16 S :    0.113606
  17 C :   -0.133544
  18 C :   -0.046326
  19 C :   -0.021705
  20 C :   -0.184465
  21 H :    0.036124
  22 C :    0.033092
  23 H :    0.034266
  24 H :    0.025405
  25 C :   -0.063404
  26 H :    0.038452
  27 H :    0.044209
  28 C :   -0.033472
  29 H :    0.034261
  30 H :    0.015955
  31 H :    0.032132
  32 H :    0.023338
  33 H :    0.093739
Sum of atomic charges:   -0.0000000

LOEWDIN ATOMIC CHARGES
----------------------
   0 S :    0.394890
   1 C :   -0.184450
   2 C :   -0.057039
   3 C :   -0.057905
   4 C :   -0.184346
   5 H :    0.039833
   6 C :   -0.044771
   7 H :    0.036199
   8 H :    0.041798
   9 C :   -0.049970
  10 H :    0.029343
  11 H :    0.024040
  12 C :   -0.060042
  13 H :    0.019848
  14 H :    0.017148
  15 H :    0.026698
  16 S :    0.405790
  17 C :   -0.212731
  18 C :   -0.087584
  19 C :   -0.042936
  20 C :   -0.206801
  21 H :    0.034824
  22 C :   -0.045243
  23 H :    0.034965
  24 H :    0.035022
  25 C :   -0.042987
  26 H :    0.032200
  27 H :    0.023685
  28 C :   -0.050912
  29 H :    0.025748
  30 H :    0.010846
  31 H :    0.030510
  32 H :    0.015907
  33 H :    0.048422

  Mayer bond orders larger than 0.100000
B(  0-S ,  1-C ) :   1.1356 B(  0-S ,  4-C ) :   1.1262 B(  1-C ,  2-C ) :   1.6331
B(  1-C , 32-H ) :   0.9702 B(  2-C ,  3-C ) :   1.1885 B(  2-C ,  6-C ) :   1.0171
B(  3-C ,  4-C ) :   1.6456 B(  3-C ,  5-H ) :   0.9920 B(  4-C , 20-C ) :   1.0069
B(  6-C ,  7-H ) :   0.9339 B(  6-C ,  8-H ) :   0.9475 B(  6-C ,  9-C ) :   1.0832
B(  9-C , 10-H ) :   0.9484 B(  9-C , 11-H ) :   0.9535 B(  9-C , 12-C ) :   1.0828
B( 12-C , 13-H ) :   0.9721 B( 12-C , 14-H ) :   0.9717 B( 12-C , 15-H ) :   0.9698
B( 16-S , 17-C ) :   1.1848 B( 16-S , 20-C ) :   1.1180 B( 17-C , 18-C ) :   1.5997
B( 17-C , 33-H ) :   0.9494 B( 18-C , 19-C ) :   1.2372 B( 18-C , 21-H ) :   0.9811
B( 19-C , 20-C ) :   1.6339 B( 19-C , 22-C ) :   1.0084 B( 22-C , 23-H ) :   0.9401
B( 22-C , 24-H ) :   0.9234 B( 22-C , 25-C ) :   1.0713 B( 25-C , 26-H ) :   0.9515
B( 25-C , 27-H ) :   0.9545 B( 25-C , 28-C ) :   1.0745 B( 28-C , 29-H ) :   0.9730
B( 28-C , 30-H ) :   0.9788 B( 28-C , 31-H ) :   0.9748

Dispersion correction           -0.014383704
FINAL SINGLE POINT ENERGY     -1339.866294012843

DIPOLE MOMENT
-------------
                                X             Y             Z
Electronic contribution:     -8.38518       2.00182      15.56451
Nuclear contribution   :      8.55637      -2.15683     -16.04587
                        -----------------------------------------
Total Dipole Moment    :      0.17119      -0.15501      -0.48136
                        -----------------------------------------
Magnitude (a.u.)       :      0.53390
Magnitude (Debye)      :      1.35705

Rotational constants in cm-1:     0.018566     0.008411     0.006779
Rotational constants in MHz :   556.607233   252.142026   203.222483

                             ****ORCA TERMINATED NORMALLY****
TOTAL RUN TIME: 0 days 0 hours 0 minutes 29 seconds 564 msec
