                         Program Version 4.2.1 -  RELEASE  -
|  1> ! wB97X-D3 SP def2-SVP
|  2> %pal
|  3> nprocs 16
|  4> end
|  5>
|  6> * xyz 0 1
|  7> S 	 -30.1905 	 66.5607 	 109.618
|  8> C 	 -30.2519 	 66.9415 	 107.888
|  9> C 	 -29.5739 	 66.0434 	 107.147
| 10> C 	 -29.2305 	 64.8846 	 107.889
| 11> C 	 -29.6196 	 64.9486 	 109.217
| 12> H 	 -28.8342 	 63.9384 	 107.59
| 13> C 	 -29.2773 	 66.0976 	 105.613
| 14> H 	 -28.3671 	 66.5788 	 105.523
| 15> H 	 -30.0076 	 66.7824 	 105.269
| 16> C 	 -29.4258 	 64.8277 	 104.727
| 17> H 	 -29.1081 	 64.9986 	 103.665
| 18> H 	 -28.7186 	 64.0173 	 105.146
| 19> C 	 -30.8686 	 64.3202 	 104.494
| 20> H 	 -31.4027 	 64.1531 	 105.461
| 21> H 	 -31.4161 	 65.1153 	 103.942
| 22> H 	 -30.8086 	 63.3219 	 104.023
| 23> S 	 -28.2684 	 64.3211 	 111.548
| 24> C 	 -28.0363 	 62.5995 	 111.913
| 25> C 	 -28.8309 	 61.8193 	 111.092
| 26> C 	 -29.6111 	 62.5851 	 110.158
| 27> C 	 -29.3213 	 63.921 	 110.185
| 28> H 	 -28.8104 	 60.7538 	 111.189
| 29> C 	 -30.3894 	 61.8358 	 109.131
| 30> H 	 -30.6232 	 62.5668 	 108.372
| 31> H 	 -31.4336 	 61.4258 	 109.457
| 32> C 	 -29.7127 	 60.6365 	 108.473
| 33> H 	 -30.3375 	 60.206 	 107.717
| 34> H 	 -29.6325 	 59.8817 	 109.195
| 35> C 	 -28.3258 	 60.8221 	 107.777
| 36> H 	 -28.4816 	 61.5676 	 107.037
| 37> H 	 -27.9742 	 59.8863 	 107.464
| 38> H 	 -27.5317 	 61.1575 	 108.52
| 39> H 	 -30.6623 	 67.8642 	 107.549
| 40> H 	 -27.3709 	 62.3004 	 112.733
| 41> *
| 42>
| 43>                          ****END OF INPUT****

CARTESIAN COORDINATES (ANGSTROEM)
---------------------------------
  S    -30.190500   66.560700  109.618000
  C    -30.251900   66.941500  107.888000
  C    -29.573900   66.043400  107.147000
  C    -29.230500   64.884600  107.889000
  C    -29.619600   64.948600  109.217000
  H    -28.834200   63.938400  107.590000
  C    -29.277300   66.097600  105.613000
  H    -28.367100   66.578800  105.523000
  H    -30.007600   66.782400  105.269000
  C    -29.425800   64.827700  104.727000
  H    -29.108100   64.998600  103.665000
  H    -28.718600   64.017300  105.146000
  C    -30.868600   64.320200  104.494000
  H    -31.402700   64.153100  105.461000
  H    -31.416100   65.115300  103.942000
  H    -30.808600   63.321900  104.023000
  S    -28.268400   64.321100  111.548000
  C    -28.036300   62.599500  111.913000
  C    -28.830900   61.819300  111.092000
  C    -29.611100   62.585100  110.158000
  C    -29.321300   63.921000  110.185000
  H    -28.810400   60.753800  111.189000
  C    -30.389400   61.835800  109.131000
  H    -30.623200   62.566800  108.372000
  H    -31.433600   61.425800  109.457000
  C    -29.712700   60.636500  108.473000
  H    -30.337500   60.206000  107.717000
  H    -29.632500   59.881700  109.195000
  C    -28.325800   60.822100  107.777000
  H    -28.481600   61.567600  107.037000
  H    -27.974200   59.886300  107.464000
  H    -27.531700   61.157500  108.520000
  H    -30.662300   67.864200  107.549000
  H    -27.370900   62.300400  112.733000

 Total Charge           Charge          ....    0
 Multiplicity           Mult            ....    1
 Number of Electrons    NEL             ....  134
 Basis Dimension        Dim             ....  322

ORBITAL ENERGIES
----------------

  NO   OCC          E(Eh)            E(eV)
   0   2.0000     -88.965491     -2420.8741
   1   2.0000     -88.962125     -2420.7825
   2   2.0000     -10.327160      -281.0163
   3   2.0000     -10.325498      -280.9711
   4   2.0000     -10.322337      -280.8851
   5   2.0000     -10.312891      -280.6280
   6   2.0000     -10.303151      -280.3630
   7   2.0000     -10.302176      -280.3365
   8   2.0000     -10.300602      -280.2936
   9   2.0000     -10.294301      -280.1222
  10   2.0000     -10.293356      -280.0965
  11   2.0000     -10.290801      -280.0269
  12   2.0000     -10.290389      -280.0157
  13   2.0000     -10.287583      -279.9394
  14   2.0000     -10.280605      -279.7495
  15   2.0000     -10.276960      -279.6503
  16   2.0000      -8.080058      -219.8696
  17   2.0000      -8.076729      -219.7790
  18   2.0000      -6.038597      -164.3186
  19   2.0000      -6.035284      -164.2284
  20   2.0000      -6.034812      -164.2156
  21   2.0000      -6.031359      -164.1216
  22   2.0000      -6.030585      -164.1006
  23   2.0000      -6.027336      -164.0121
  24   2.0000      -1.007788       -27.4233
  25   2.0000      -0.983889       -26.7730
  26   2.0000      -0.909785       -24.7565
  27   2.0000      -0.906077       -24.6556
  28   2.0000      -0.872529       -23.7427
  29   2.0000      -0.849712       -23.1218
  30   2.0000      -0.843095       -22.9418
  31   2.0000      -0.815645       -22.1948
  32   2.0000      -0.786847       -21.4112
  33   2.0000      -0.777525       -21.1575
  34   2.0000      -0.710856       -19.3434
  35   2.0000      -0.697894       -18.9907
  36   2.0000      -0.691641       -18.8205
  37   2.0000      -0.659578       -17.9480
  38   2.0000      -0.645939       -17.5769
  39   2.0000      -0.619185       -16.8489
  40   2.0000      -0.598951       -16.2983
  41   2.0000      -0.561583       -15.2814
  42   2.0000      -0.559317       -15.2198
  43   2.0000      -0.554530       -15.0895
  44   2.0000      -0.542095       -14.7512
  45   2.0000      -0.537771       -14.6335
  46   2.0000      -0.526049       -14.3145
  47   2.0000      -0.515066       -14.0157
  48   2.0000      -0.506038       -13.7700
  49   2.0000      -0.498408       -13.5624
  50   2.0000      -0.488875       -13.3030
  51   2.0000      -0.485842       -13.2204
  52   2.0000      -0.475349       -12.9349
  53   2.0000      -0.458527       -12.4772
  54   2.0000      -0.452114       -12.3026
  55   2.0000      -0.444228       -12.0881
  56   2.0000      -0.442733       -12.0474
  57   2.0000      -0.439962       -11.9720
  58   2.0000      -0.436229       -11.8704
  59   2.0000      -0.424857       -11.5610
  60   2.0000      -0.417124       -11.3505
  61   2.0000      -0.414988       -11.2924
  62   2.0000      -0.410550       -11.1716
  63   2.0000      -0.347229        -9.4486
  64   2.0000      -0.333753        -9.0819
  65   2.0000      -0.328998        -8.9525
  66   2.0000      -0.293295        -7.9810
  67   0.0000       0.031709         0.8628
  68   0.0000       0.064080         1.7437
  69   0.0000       0.105016         2.8576
  70   0.0000       0.119366         3.2481
  71   0.0000       0.124125         3.3776

MULLIKEN ATOMIC CHARGES
-----------------------
   0 S :    0.100397
   1 C :   -0.126490
   2 C :   -0.063015
   3 C :    0.041133
   4 C :   -0.168236
   5 H :   -0.017196
   6 C :    0.144665
   7 H :    0.030364
   8 H :   -0.002558
   9 C :   -0.133815
  10 H :    0.041532
  11 H :    0.046469
  12 C :   -0.075554
  13 H :    0.042297
  14 H :    0.045414
  15 H :    0.047935
  16 S :    0.091795
  17 C :   -0.106826
  18 C :   -0.023001
  19 C :   -0.023633
  20 C :   -0.143041
  21 H :    0.015958
  22 C :    0.053629
  23 H :    0.013209
  24 H :    0.052440
  25 C :   -0.083065
  26 H :    0.021908
  27 H :    0.008125
  28 C :   -0.036408
  29 H :    0.035603
  30 H :    0.024786
  31 H :    0.041814
  32 H :    0.034171
  33 H :    0.069195
Sum of atomic charges:    0.0000000

LOEWDIN ATOMIC CHARGES
----------------------
   0 S :    0.386215
   1 C :   -0.179018
   2 C :   -0.058680
   3 C :   -0.056770
   4 C :   -0.185529
   5 H :    0.024873
   6 C :   -0.021387
   7 H :    0.026619
   8 H :    0.024352
   9 C :   -0.052304
  10 H :    0.033079
  11 H :    0.026662
  12 C :   -0.072839
  13 H :    0.026348
  14 H :    0.030355
  15 H :    0.032672
  16 S :    0.378715
  17 C :   -0.172075
  18 C :   -0.064645
  19 C :   -0.061837
  20 C :   -0.187591
  21 H :    0.028787
  22 C :   -0.039727
  23 H :    0.023654
  24 H :    0.047946
  25 C :   -0.037905
  26 H :    0.024497
  27 H :    0.009990
  28 C :   -0.059519
  29 H :    0.016884
  30 H :    0.020218
  31 H :    0.034004
  32 H :    0.021156
  33 H :    0.032800

  Mayer bond orders larger than 0.100000
B(  0-S ,  1-C ) :   1.1226 B(  0-S ,  4-C ) :   1.1385 B(  1-C ,  2-C ) :   1.6453
B(  1-C , 32-H ) :   0.9739 B(  2-C ,  3-C ) :   1.2068 B(  2-C ,  6-C ) :   0.9890
B(  3-C ,  4-C ) :   1.5895 B(  3-C ,  5-H ) :   0.9969 B(  4-C , 20-C ) :   1.0440
B(  6-C ,  7-H ) :   0.9327 B(  6-C ,  8-H ) :   0.9382 B(  6-C ,  9-C ) :   1.0705
B(  9-C , 10-H ) :   0.9547 B(  9-C , 11-H ) :   0.9525 B(  9-C , 12-C ) :   1.0678
B( 12-C , 13-H ) :   0.9780 B( 12-C , 14-H ) :   0.9726 B( 12-C , 15-H ) :   0.9730
B( 16-S , 17-C ) :   1.1409 B( 16-S , 20-C ) :   1.1261 B( 17-C , 18-C ) :   1.6200
B( 17-C , 33-H ) :   0.9683 B( 18-C , 19-C ) :   1.2033 B( 18-C , 21-H ) :   0.9963
B( 19-C , 20-C ) :   1.6207 B( 19-C , 22-C ) :   1.0553 B( 22-C , 23-H ) :   0.9306
B( 22-C , 24-H ) :   0.9253 B( 22-C , 25-C ) :   1.0783 B( 25-C , 26-H ) :   0.9514
B( 25-C , 27-H ) :   0.9483 B( 25-C , 28-C ) :   1.0797 B( 28-C , 29-H ) :   0.9733
B( 28-C , 30-H ) :   0.9702 B( 28-C , 31-H ) :   0.9718

Dispersion correction           -0.015620782
FINAL SINGLE POINT ENERGY     -1339.867458968509

DIPOLE MOMENT
-------------
                                X             Y             Z
Electronic contribution:      2.12803      16.31284      25.95914
Nuclear contribution   :     -2.05862     -16.76997     -26.58489
                        -----------------------------------------
Total Dipole Moment    :      0.06941      -0.45713      -0.62575
                        -----------------------------------------
Magnitude (a.u.)       :      0.77804
Magnitude (Debye)      :      1.97761

Rotational constants in cm-1:     0.017544     0.010656     0.007345
Rotational constants in MHz :   525.955638   319.465808   220.197750

                             ****ORCA TERMINATED NORMALLY****
TOTAL RUN TIME: 0 days 0 hours 0 minutes 29 seconds 692 msec
