                         Program Version 4.2.1 -  RELEASE  -
|  1> ! wB97X-D3 SP def2-SVP
|  2> %pal
|  3> nprocs 16
|  4> end
|  5>
|  6> * xyz 0 1
|  7> S 	 9.70446 	 -28.1399 	 82.2909
|  8> C 	 8.59177 	 -28.1049 	 83.6944
|  9> C 	 7.72323 	 -26.9673 	 83.6311
| 10> C 	 8.10077 	 -26.1686 	 82.5068
| 11> C 	 9.20222 	 -26.6302 	 81.746
| 12> H 	 7.80929 	 -25.1439 	 82.146
| 13> C 	 6.67703 	 -26.5035 	 84.6696
| 14> H 	 6.40166 	 -27.3434 	 85.3798
| 15> H 	 5.75352 	 -26.1324 	 84.0888
| 16> C 	 7.17905 	 -25.3398 	 85.479
| 17> H 	 8.11274 	 -25.5967 	 86.0405
| 18> H 	 7.34593 	 -24.5202 	 84.7878
| 19> C 	 6.15265 	 -24.8239 	 86.5055
| 20> H 	 5.17225 	 -24.5447 	 86.0014
| 21> H 	 5.94556 	 -25.7187 	 87.1353
| 22> H 	 6.51544 	 -23.9569 	 87.0655
| 23> S 	 9.64655 	 -27.1128 	 79.1386
| 24> C 	 10.1865 	 -25.8377 	 78.0083
| 25> C 	 10.2539 	 -24.6654 	 78.7068
| 26> C 	 9.96037 	 -24.8268 	 80.1236
| 27> C 	 9.71442 	 -26.1013 	 80.5253
| 28> H 	 10.5224 	 -23.8136 	 78.1542
| 29> C 	 9.87066 	 -23.6071 	 81.0251
| 30> H 	 10.9285 	 -23.3549 	 81.2535
| 31> H 	 9.47713 	 -23.9673 	 81.9865
| 32> C 	 9.0692 	 -22.3113 	 80.6282
| 33> H 	 7.98536 	 -22.4996 	 80.5789
| 34> H 	 9.38623 	 -21.8849 	 79.8049
| 35> C 	 9.1035 	 -21.2073 	 81.7896
| 36> H 	 8.51388 	 -20.3155 	 81.6341
| 37> H 	 10.1118 	 -20.9588 	 82.0339
| 38> H 	 8.78762 	 -21.5901 	 82.8159
| 39> H 	 8.50916 	 -28.8386 	 84.4193
| 40> H 	 10.3395 	 -25.9924 	 76.9205
| 41> *
| 42>
| 43>                          ****END OF INPUT****

CARTESIAN COORDINATES (ANGSTROEM)
---------------------------------
  S      9.704460  -28.139900   82.290900
  C      8.591770  -28.104900   83.694400
  C      7.723230  -26.967300   83.631100
  C      8.100770  -26.168600   82.506800
  C      9.202220  -26.630200   81.746000
  H      7.809290  -25.143900   82.146000
  C      6.677030  -26.503500   84.669600
  H      6.401660  -27.343400   85.379800
  H      5.753520  -26.132400   84.088800
  C      7.179050  -25.339800   85.479000
  H      8.112740  -25.596700   86.040500
  H      7.345930  -24.520200   84.787800
  C      6.152650  -24.823900   86.505500
  H      5.172250  -24.544700   86.001400
  H      5.945560  -25.718700   87.135300
  H      6.515440  -23.956900   87.065500
  S      9.646550  -27.112800   79.138600
  C     10.186500  -25.837700   78.008300
  C     10.253900  -24.665400   78.706800
  C      9.960370  -24.826800   80.123600
  C      9.714420  -26.101300   80.525300
  H     10.522400  -23.813600   78.154200
  C      9.870660  -23.607100   81.025100
  H     10.928500  -23.354900   81.253500
  H      9.477130  -23.967300   81.986500
  C      9.069200  -22.311300   80.628200
  H      7.985360  -22.499600   80.578900
  H      9.386230  -21.884900   79.804900
  C      9.103500  -21.207300   81.789600
  H      8.513880  -20.315500   81.634100
  H     10.111800  -20.958800   82.033900
  H      8.787620  -21.590100   82.815900
  H      8.509160  -28.838600   84.419300
  H     10.339500  -25.992400   76.920500

 Total Charge           Charge          ....    0
 Multiplicity           Mult            ....    1
 Number of Electrons    NEL             ....  134
 Basis Dimension        Dim             ....  322

ORBITAL ENERGIES
----------------

  NO   OCC          E(Eh)            E(eV)
   0   2.0000     -88.970384     -2421.0072
   1   2.0000     -88.959378     -2420.7077
   2   2.0000     -10.326358      -280.9945
   3   2.0000     -10.323004      -280.9032
   4   2.0000     -10.321549      -280.8636
   5   2.0000     -10.319499      -280.8078
   6   2.0000     -10.315661      -280.7034
   7   2.0000     -10.308677      -280.5134
   8   2.0000     -10.304116      -280.3892
   9   2.0000     -10.300927      -280.3025
  10   2.0000     -10.296025      -280.1691
  11   2.0000     -10.293832      -280.1094
  12   2.0000     -10.289921      -280.0030
  13   2.0000     -10.288208      -279.9564
  14   2.0000     -10.287230      -279.9298
  15   2.0000     -10.284140      -279.8457
  16   2.0000      -8.085368      -220.0140
  17   2.0000      -8.074679      -219.7232
  18   2.0000      -6.043705      -164.4576
  19   2.0000      -6.039609      -164.3461
  20   2.0000      -6.036516      -164.2619
  21   2.0000      -6.033393      -164.1770
  22   2.0000      -6.029066      -164.0592
  23   2.0000      -6.025177      -163.9534
  24   2.0000      -1.014085       -27.5947
  25   2.0000      -0.983321       -26.7575
  26   2.0000      -0.917153       -24.9570
  27   2.0000      -0.899997       -24.4902
  28   2.0000      -0.876198       -23.8426
  29   2.0000      -0.850391       -23.1403
  30   2.0000      -0.842165       -22.9165
  31   2.0000      -0.813437       -22.1348
  32   2.0000      -0.780679       -21.2434
  33   2.0000      -0.769951       -20.9514
  34   2.0000      -0.716023       -19.4840
  35   2.0000      -0.703670       -19.1478
  36   2.0000      -0.690808       -18.7978
  37   2.0000      -0.663554       -18.0562
  38   2.0000      -0.645660       -17.5693
  39   2.0000      -0.615323       -16.7438
  40   2.0000      -0.592633       -16.1264
  41   2.0000      -0.572462       -15.5775
  42   2.0000      -0.571840       -15.5606
  43   2.0000      -0.563619       -15.3369
  44   2.0000      -0.530577       -14.4377
  45   2.0000      -0.528728       -14.3874
  46   2.0000      -0.518849       -14.1186
  47   2.0000      -0.516017       -14.0415
  48   2.0000      -0.500981       -13.6324
  49   2.0000      -0.497904       -13.5487
  50   2.0000      -0.495162       -13.4740
  51   2.0000      -0.479157       -13.0385
  52   2.0000      -0.466744       -12.7007
  53   2.0000      -0.462161       -12.5760
  54   2.0000      -0.461057       -12.5460
  55   2.0000      -0.449064       -12.2196
  56   2.0000      -0.441524       -12.0145
  57   2.0000      -0.437914       -11.9162
  58   2.0000      -0.430369       -11.7109
  59   2.0000      -0.427440       -11.6312
  60   2.0000      -0.422461       -11.4958
  61   2.0000      -0.419465       -11.4142
  62   2.0000      -0.410098       -11.1593
  63   2.0000      -0.351621        -9.5681
  64   2.0000      -0.334026        -9.0893
  65   2.0000      -0.323202        -8.7948
  66   2.0000      -0.293066        -7.9747
  67   0.0000       0.028529         0.7763
  68   0.0000       0.071120         1.9353
  69   0.0000       0.107705         2.9308
  70   0.0000       0.116995         3.1836
  71   0.0000       0.120585         3.2813

MULLIKEN ATOMIC CHARGES
-----------------------
   0 S :    0.122847
   1 C :   -0.091654
   2 C :   -0.055949
   3 C :    0.027322
   4 C :   -0.206847
   5 H :    0.024095
   6 C :    0.021654
   7 H :    0.033966
   8 H :    0.049633
   9 C :   -0.094737
  10 H :    0.043557
  11 H :    0.028649
  12 C :   -0.061754
  13 H :    0.033917
  14 H :    0.032547
  15 H :    0.049490
  16 S :    0.081650
  17 C :   -0.113907
  18 C :   -0.004959
  19 C :   -0.054490
  20 C :   -0.086853
  21 H :    0.004764
  22 C :    0.024864
  23 H :    0.039660
  24 H :    0.010240
  25 C :    0.006450
  26 H :    0.038114
  27 H :    0.001715
  28 C :   -0.085000
  29 H :    0.042252
  30 H :    0.017934
  31 H :    0.024551
  32 H :    0.019661
  33 H :    0.076617
Sum of atomic charges:    0.0000000

LOEWDIN ATOMIC CHARGES
----------------------
   0 S :    0.436527
   1 C :   -0.181823
   2 C :   -0.051873
   3 C :   -0.071730
   4 C :   -0.222106
   5 H :    0.036228
   6 C :   -0.036890
   7 H :    0.033304
   8 H :    0.043616
   9 C :   -0.049038
  10 H :    0.030894
  11 H :    0.020599
  12 C :   -0.070930
  13 H :    0.028409
  14 H :    0.026299
  15 H :    0.028330
  16 S :    0.395181
  17 C :   -0.172324
  18 C :   -0.066126
  19 C :   -0.060794
  20 C :   -0.213396
  21 H :    0.025344
  22 C :   -0.037073
  23 H :    0.037571
  24 H :    0.026590
  25 C :   -0.016389
  26 H :    0.030500
  27 H :   -0.001719
  28 C :   -0.069399
  29 H :    0.025097
  30 H :    0.016701
  31 H :    0.029305
  32 H :    0.010581
  33 H :    0.040532

  Mayer bond orders larger than 0.100000
B(  0-S ,  1-C ) :   1.1532 B(  0-S ,  4-C ) :   1.1776 B(  1-C ,  2-C ) :   1.5657
B(  1-C ,  4-C ) :   0.1135 B(  1-C , 32-H ) :   0.9816 B(  2-C ,  3-C ) :   1.2566
B(  2-C ,  6-C ) :   1.0271 B(  3-C ,  4-C ) :   1.5387 B(  3-C ,  5-H ) :   0.9749
B(  4-C , 20-C ) :   1.0319 B(  6-C ,  7-H ) :   0.9415 B(  6-C ,  8-H ) :   0.9373
B(  6-C ,  9-C ) :   1.0709 B(  9-C , 10-H ) :   0.9529 B(  9-C , 11-H ) :   0.9524
B(  9-C , 12-C ) :   1.0822 B( 12-C , 13-H ) :   0.9725 B( 12-C , 14-H ) :   0.9742
B( 12-C , 15-H ) :   0.9745 B( 16-S , 17-C ) :   1.1411 B( 16-S , 20-C ) :   1.1296
B( 17-C , 18-C ) :   1.6243 B( 17-C , 33-H ) :   0.9655 B( 18-C , 19-C ) :   1.1992
B( 18-C , 21-H ) :   1.0057 B( 19-C , 20-C ) :   1.6297 B( 19-C , 22-C ) :   1.0466
B( 22-C , 23-H ) :   0.9304 B( 22-C , 24-H ) :   0.9373 B( 22-C , 25-C ) :   1.0548
B( 25-C , 26-H ) :   0.9608 B( 25-C , 27-H ) :   0.9556 B( 25-C , 28-C ) :   1.0684
B( 28-C , 29-H ) :   0.9782 B( 28-C , 30-H ) :   0.9770 B( 28-C , 31-H ) :   0.9765

Dispersion correction           -0.013748230
FINAL SINGLE POINT ENERGY     -1339.853014258459

DIPOLE MOMENT
-------------
                                X             Y             Z
Electronic contribution:     11.82608     -25.33931     -18.72256
Nuclear contribution   :    -12.06647      26.00364      18.91562
                        -----------------------------------------
Total Dipole Moment    :     -0.24039       0.66432       0.19306
                        -----------------------------------------
Magnitude (a.u.)       :      0.73238
Magnitude (Debye)      :      1.86157

Rotational constants in cm-1:     0.016416     0.009475     0.006347
Rotational constants in MHz :   492.129642   284.059227   190.267572

                             ****ORCA TERMINATED NORMALLY****
TOTAL RUN TIME: 0 days 0 hours 0 minutes 33 seconds 939 msec
