                         Program Version 4.2.1 -  RELEASE  -
|  1> ! wB97X-D3 SP def2-SVP
|  2> %pal
|  3> nprocs 16
|  4> end
|  5>
|  6> * xyz 0 1
|  7> S 	 1.83791 	 17.2449 	 86.6451
|  8> C 	 2.57364 	 18.6388 	 85.882
|  9> C 	 3.96039 	 18.5306 	 85.7856
| 10> C 	 4.49769 	 17.2883 	 86.3551
| 11> C 	 3.45207 	 16.5304 	 86.855
| 12> H 	 5.51805 	 16.8383 	 86.3449
| 13> C 	 4.88787 	 19.3728 	 84.9285
| 14> H 	 5.92667 	 19.2951 	 85.3214
| 15> H 	 4.41513 	 20.3137 	 85.0774
| 16> C 	 4.96349 	 19.1125 	 83.4667
| 17> H 	 5.41268 	 18.1774 	 83.1398
| 18> H 	 3.95157 	 19.0002 	 83.0164
| 19> C 	 5.55398 	 20.3735 	 82.8197
| 20> H 	 4.88178 	 21.2405 	 83.0137
| 21> H 	 6.63065 	 20.4888 	 83.1082
| 22> H 	 5.48566 	 20.2427 	 81.7761
| 23> S 	 3.00226 	 13.9474 	 86.2746
| 24> C 	 3.59457 	 12.6889 	 87.2763
| 25> C 	 4.12195 	 13.2737 	 88.4214
| 26> C 	 4.03928 	 14.6481 	 88.5524
| 27> C 	 3.49088 	 15.1763 	 87.3585
| 28> H 	 4.4545 	 12.5287 	 89.1834
| 29> C 	 4.54235 	 15.332 	 89.7303
| 30> H 	 4.16279 	 16.3173 	 89.6041
| 31> H 	 5.61969 	 15.2923 	 89.5962
| 32> C 	 4.17066 	 14.6317 	 91.0404
| 33> H 	 4.67647 	 15.2168 	 91.8024
| 34> H 	 4.62483 	 13.6413 	 91.0915
| 35> C 	 2.73444 	 14.4361 	 91.4656
| 36> H 	 2.31695 	 15.4637 	 91.5152
| 37> H 	 2.71643 	 13.9319 	 92.4464
| 38> H 	 2.10918 	 13.7892 	 90.8615
| 39> H 	 2.0869 	 19.4715 	 85.3656
| 40> H 	 3.64862 	 11.6636 	 87.0853
| 41> *
| 42>
| 43>                          ****END OF INPUT****

CARTESIAN COORDINATES (ANGSTROEM)
---------------------------------
  S      1.837910   17.244900   86.645100
  C      2.573640   18.638800   85.882000
  C      3.960390   18.530600   85.785600
  C      4.497690   17.288300   86.355100
  C      3.452070   16.530400   86.855000
  H      5.518050   16.838300   86.344900
  C      4.887870   19.372800   84.928500
  H      5.926670   19.295100   85.321400
  H      4.415130   20.313700   85.077400
  C      4.963490   19.112500   83.466700
  H      5.412680   18.177400   83.139800
  H      3.951570   19.000200   83.016400
  C      5.553980   20.373500   82.819700
  H      4.881780   21.240500   83.013700
  H      6.630650   20.488800   83.108200
  H      5.485660   20.242700   81.776100
  S      3.002260   13.947400   86.274600
  C      3.594570   12.688900   87.276300
  C      4.121950   13.273700   88.421400
  C      4.039280   14.648100   88.552400
  C      3.490880   15.176300   87.358500
  H      4.454500   12.528700   89.183400
  C      4.542350   15.332000   89.730300
  H      4.162790   16.317300   89.604100
  H      5.619690   15.292300   89.596200
  C      4.170660   14.631700   91.040400
  H      4.676470   15.216800   91.802400
  H      4.624830   13.641300   91.091500
  C      2.734440   14.436100   91.465600
  H      2.316950   15.463700   91.515200
  H      2.716430   13.931900   92.446400
  H      2.109180   13.789200   90.861500
  H      2.086900   19.471500   85.365600
  H      3.648620   11.663600   87.085300

 Total Charge           Charge          ....    0
 Multiplicity           Mult            ....    1
 Number of Electrons    NEL             ....  134
 Basis Dimension        Dim             ....  322

ORBITAL ENERGIES
----------------

  NO   OCC          E(Eh)            E(eV)
   0   2.0000     -88.966692     -2420.9068
   1   2.0000     -88.963557     -2420.8215
   2   2.0000     -10.327086      -281.0143
   3   2.0000     -10.316989      -280.7395
   4   2.0000     -10.314669      -280.6764
   5   2.0000     -10.307062      -280.4694
   6   2.0000     -10.302458      -280.3441
   7   2.0000     -10.300394      -280.2880
   8   2.0000     -10.293473      -280.0997
   9   2.0000     -10.286587      -279.9123
  10   2.0000     -10.284839      -279.8647
  11   2.0000     -10.283745      -279.8349
  12   2.0000     -10.283549      -279.8296
  13   2.0000     -10.283383      -279.8251
  14   2.0000     -10.279715      -279.7253
  15   2.0000     -10.276416      -279.6355
  16   2.0000      -8.080853      -219.8912
  17   2.0000      -8.079388      -219.8513
  18   2.0000      -6.039411      -164.3407
  19   2.0000      -6.037718      -164.2947
  20   2.0000      -6.035535      -164.2353
  21   2.0000      -6.033489      -164.1796
  22   2.0000      -6.031498      -164.1254
  23   2.0000      -6.030521      -164.0988
  24   2.0000      -1.010170       -27.4881
  25   2.0000      -0.980987       -26.6940
  26   2.0000      -0.919931       -25.0326
  27   2.0000      -0.916952       -24.9515
  28   2.0000      -0.868273       -23.6269
  29   2.0000      -0.853858       -23.2347
  30   2.0000      -0.846550       -23.0358
  31   2.0000      -0.812323       -22.1044
  32   2.0000      -0.785117       -21.3641
  33   2.0000      -0.768591       -20.9144
  34   2.0000      -0.705550       -19.1990
  35   2.0000      -0.699933       -19.0462
  36   2.0000      -0.697365       -18.9763
  37   2.0000      -0.650723       -17.7071
  38   2.0000      -0.639626       -17.4051
  39   2.0000      -0.612941       -16.6790
  40   2.0000      -0.597406       -16.2562
  41   2.0000      -0.577828       -15.7235
  42   2.0000      -0.561423       -15.2771
  43   2.0000      -0.557661       -15.1747
  44   2.0000      -0.535720       -14.5777
  45   2.0000      -0.532332       -14.4855
  46   2.0000      -0.518635       -14.1128
  47   2.0000      -0.509700       -13.8696
  48   2.0000      -0.503814       -13.7095
  49   2.0000      -0.501749       -13.6533
  50   2.0000      -0.489212       -13.3121
  51   2.0000      -0.480431       -13.0732
  52   2.0000      -0.469051       -12.7635
  53   2.0000      -0.467106       -12.7106
  54   2.0000      -0.458214       -12.4686
  55   2.0000      -0.445775       -12.1302
  56   2.0000      -0.443152       -12.0588
  57   2.0000      -0.440151       -11.9771
  58   2.0000      -0.432482       -11.7684
  59   2.0000      -0.418310       -11.3828
  60   2.0000      -0.417020       -11.3477
  61   2.0000      -0.412742       -11.2313
  62   2.0000      -0.409055       -11.1309
  63   2.0000      -0.339952        -9.2506
  64   2.0000      -0.326039        -8.8720
  65   2.0000      -0.320074        -8.7097
  66   2.0000      -0.297981        -8.1085
  67   0.0000       0.040952         1.1144
  68   0.0000       0.060199         1.6381
  69   0.0000       0.113430         3.0866
  70   0.0000       0.123044         3.3482
  71   0.0000       0.131873         3.5884

MULLIKEN ATOMIC CHARGES
-----------------------
   0 S :    0.114089
   1 C :   -0.112410
   2 C :   -0.098830
   3 C :    0.038111
   4 C :   -0.194208
   5 H :    0.039947
   6 C :    0.068561
   7 H :    0.032437
   8 H :    0.011279
   9 C :   -0.067929
  10 H :    0.026857
  11 H :    0.016388
  12 C :   -0.047812
  13 H :    0.038133
  14 H :    0.044237
  15 H :    0.019553
  16 S :    0.135837
  17 C :   -0.075366
  18 C :   -0.092218
  19 C :   -0.020216
  20 C :   -0.203424
  21 H :    0.026476
  22 C :    0.152290
  23 H :    0.016931
  24 H :    0.038839
  25 C :   -0.104611
  26 H :    0.025835
  27 H :    0.021458
  28 C :   -0.037843
  29 H :    0.037514
  30 H :    0.034605
  31 H :    0.036440
  32 H :    0.047099
  33 H :    0.031947
Sum of atomic charges:   -0.0000000

LOEWDIN ATOMIC CHARGES
----------------------
   0 S :    0.394386
   1 C :   -0.209863
   2 C :   -0.058596
   3 C :   -0.061589
   4 C :   -0.188988
   5 H :    0.045564
   6 C :   -0.036459
   7 H :    0.035900
   8 H :    0.027784
   9 C :   -0.045527
  10 H :    0.022731
  11 H :    0.025317
  12 C :   -0.061679
  13 H :    0.030920
  14 H :    0.030215
  15 H :    0.017837
  16 S :    0.450765
  17 C :   -0.198529
  18 C :   -0.081516
  19 C :   -0.059455
  20 C :   -0.233940
  21 H :    0.033431
  22 C :   -0.027572
  23 H :    0.029504
  24 H :    0.043841
  25 C :   -0.043073
  26 H :    0.026659
  27 H :    0.020671
  28 C :   -0.065509
  29 H :    0.030125
  30 H :    0.032013
  31 H :    0.023603
  32 H :    0.031066
  33 H :    0.019964

  Mayer bond orders larger than 0.100000
B(  0-S ,  1-C ) :   1.1168 B(  0-S ,  4-C ) :   1.1460 B(  1-C ,  2-C ) :   1.6535
B(  1-C , 32-H ) :   0.9622 B(  2-C ,  3-C ) :   1.1837 B(  2-C ,  6-C ) :   1.0240
B(  3-C ,  4-C ) :   1.6295 B(  3-C ,  5-H ) :   0.9844 B(  4-C , 20-C ) :   1.0007
B(  6-C ,  7-H ) :   0.9383 B(  6-C ,  8-H ) :   0.9347 B(  6-C ,  9-C ) :   1.0751
B(  9-C , 10-H ) :   0.9521 B(  9-C , 11-H ) :   0.9495 B(  9-C , 12-C ) :   1.0804
B( 12-C , 13-H ) :   0.9751 B( 12-C , 14-H ) :   0.9746 B( 12-C , 15-H ) :   0.9724
B( 16-S , 17-C ) :   1.1752 B( 16-S , 20-C ) :   1.1910 B( 17-C , 18-C ) :   1.5717
B( 17-C , 20-C ) :   0.1125 B( 17-C , 33-H ) :   0.9760 B( 18-C , 19-C ) :   1.2806
B( 18-C , 21-H ) :   0.9797 B( 19-C , 20-C ) :   1.5088 B( 19-C , 22-C ) :   1.0424
B( 22-C , 23-H ) :   0.9223 B( 22-C , 24-H ) :   0.9175 B( 22-C , 25-C ) :   1.0824
B( 25-C , 26-H ) :   0.9513 B( 25-C , 27-H ) :   0.9476 B( 25-C , 28-C ) :   1.0852
B( 28-C , 29-H ) :   0.9745 B( 28-C , 30-H ) :   0.9692 B( 28-C , 31-H ) :   0.9722

Dispersion correction           -0.013923989
FINAL SINGLE POINT ENERGY     -1339.861809452495

DIPOLE MOMENT
-------------
                                X             Y             Z
Electronic contribution:    -11.71023      -9.89789      -3.71858
Nuclear contribution   :     12.20721       9.87404       3.71045
                        -----------------------------------------
Total Dipole Moment    :      0.49698      -0.02385      -0.00814
                        -----------------------------------------
Magnitude (a.u.)       :      0.49761
Magnitude (Debye)      :      1.26484

Rotational constants in cm-1:     0.025172     0.006807     0.006435
Rotational constants in MHz :   754.650099   204.063472   192.919221

                             ****ORCA TERMINATED NORMALLY****
TOTAL RUN TIME: 0 days 0 hours 0 minutes 35 seconds 353 msec
