                         Program Version 4.2.1 -  RELEASE  -
|  1> ! wB97X-D3 SP def2-SVP
|  2> %pal
|  3> nprocs 16
|  4> end
|  5>
|  6> * xyz 0 1
|  7> S 	 22.3438 	 -13.0768 	 78.9976
|  8> C 	 22.7387 	 -13.3494 	 80.6034
|  9> C 	 22.5014 	 -12.2058 	 81.3753
| 10> C 	 21.9942 	 -11.136 	 80.5701
| 11> C 	 21.8484 	 -11.3915 	 79.2769
| 12> H 	 21.6015 	 -10.1666 	 80.9064
| 13> C 	 22.6351 	 -12.067 	 82.8925
| 14> H 	 22.7202 	 -11.0939 	 83.2682
| 15> H 	 23.5511 	 -12.5524 	 83.1271
| 16> C 	 21.3667 	 -12.7049 	 83.5911
| 17> H 	 20.4877 	 -12.037 	 83.5436
| 18> H 	 21.1323 	 -13.5379 	 82.9923
| 19> C 	 21.5133 	 -13.1136 	 85.0426
| 20> H 	 21.4797 	 -12.3444 	 85.7514
| 21> H 	 20.6793 	 -13.7856 	 85.2342
| 22> H 	 22.325 	 -13.8251 	 85.0873
| 23> S 	 19.707 	 -10.7469 	 77.7393
| 24> C 	 19.5939 	 -9.40491 	 76.6769
| 25> C 	 20.8069 	 -8.79923 	 76.6101
| 26> C 	 21.7522 	 -9.35189 	 77.6023
| 27> C 	 21.3027 	 -10.5049 	 78.2277
| 28> H 	 20.8448 	 -7.98662 	 76.0154
| 29> C 	 23.126 	 -8.6739 	 77.8376
| 30> H 	 23.3536 	 -8.1138 	 77.0027
| 31> H 	 23.9335 	 -9.4291 	 77.8765
| 32> C 	 23.1402 	 -7.70258 	 79.0153
| 33> H 	 23.2424 	 -8.29881 	 79.8862
| 34> H 	 22.2255 	 -7.07812 	 79.0552
| 35> C 	 24.3117 	 -6.81311 	 79.0149
| 36> H 	 24.6177 	 -6.50465 	 78.0809
| 37> H 	 25.155 	 -7.36102 	 79.343
| 38> H 	 24.2516 	 -5.90982 	 79.6361
| 39> H 	 23.1517 	 -14.3043 	 80.9117
| 40> H 	 18.662 	 -9.14606 	 76.1783
| 41> *
| 42>
| 43>                          ****END OF INPUT****

CARTESIAN COORDINATES (ANGSTROEM)
---------------------------------
  S     22.343800  -13.076800   78.997600
  C     22.738700  -13.349400   80.603400
  C     22.501400  -12.205800   81.375300
  C     21.994200  -11.136000   80.570100
  C     21.848400  -11.391500   79.276900
  H     21.601500  -10.166600   80.906400
  C     22.635100  -12.067000   82.892500
  H     22.720200  -11.093900   83.268200
  H     23.551100  -12.552400   83.127100
  C     21.366700  -12.704900   83.591100
  H     20.487700  -12.037000   83.543600
  H     21.132300  -13.537900   82.992300
  C     21.513300  -13.113600   85.042600
  H     21.479700  -12.344400   85.751400
  H     20.679300  -13.785600   85.234200
  H     22.325000  -13.825100   85.087300
  S     19.707000  -10.746900   77.739300
  C     19.593900   -9.404910   76.676900
  C     20.806900   -8.799230   76.610100
  C     21.752200   -9.351890   77.602300
  C     21.302700  -10.504900   78.227700
  H     20.844800   -7.986620   76.015400
  C     23.126000   -8.673900   77.837600
  H     23.353600   -8.113800   77.002700
  H     23.933500   -9.429100   77.876500
  C     23.140200   -7.702580   79.015300
  H     23.242400   -8.298810   79.886200
  H     22.225500   -7.078120   79.055200
  C     24.311700   -6.813110   79.014900
  H     24.617700   -6.504650   78.080900
  H     25.155000   -7.361020   79.343000
  H     24.251600   -5.909820   79.636100
  H     23.151700  -14.304300   80.911700
  H     18.662000   -9.146060   76.178300

 Total Charge           Charge          ....    0
 Multiplicity           Mult            ....    1
 Number of Electrons    NEL             ....  134
 Basis Dimension        Dim             ....  322

ORBITAL ENERGIES
----------------

  NO   OCC          E(Eh)            E(eV)
   0   2.0000     -88.962123     -2420.7824
   1   2.0000     -88.955530     -2420.6030
   2   2.0000     -10.325896      -280.9819
   3   2.0000     -10.323248      -280.9098
   4   2.0000     -10.315559      -280.7006
   5   2.0000     -10.313663      -280.6490
   6   2.0000     -10.308967      -280.5213
   7   2.0000     -10.303397      -280.3697
   8   2.0000     -10.289603      -279.9943
   9   2.0000     -10.288056      -279.9522
  10   2.0000     -10.285869      -279.8927
  11   2.0000     -10.283689      -279.8334
  12   2.0000     -10.281510      -279.7741
  13   2.0000     -10.275561      -279.6122
  14   2.0000     -10.270640      -279.4783
  15   2.0000     -10.260333      -279.1979
  16   2.0000      -8.078144      -219.8175
  17   2.0000      -8.072677      -219.6687
  18   2.0000      -6.036515      -164.2619
  19   2.0000      -6.032359      -164.1488
  20   2.0000      -6.031068      -164.1137
  21   2.0000      -6.029067      -164.0593
  22   2.0000      -6.026521      -163.9900
  23   2.0000      -6.023718      -163.9137
  24   2.0000      -1.014434       -27.6041
  25   2.0000      -0.994615       -27.0649
  26   2.0000      -0.914686       -24.8899
  27   2.0000      -0.907372       -24.6909
  28   2.0000      -0.878193       -23.8968
  29   2.0000      -0.852464       -23.1967
  30   2.0000      -0.848182       -23.0802
  31   2.0000      -0.827336       -22.5129
  32   2.0000      -0.781827       -21.2746
  33   2.0000      -0.771130       -20.9835
  34   2.0000      -0.703841       -19.1525
  35   2.0000      -0.699957       -19.0468
  36   2.0000      -0.692623       -18.8472
  37   2.0000      -0.666723       -18.1425
  38   2.0000      -0.653832       -17.7917
  39   2.0000      -0.619749       -16.8642
  40   2.0000      -0.594696       -16.1825
  41   2.0000      -0.580658       -15.8005
  42   2.0000      -0.572328       -15.5738
  43   2.0000      -0.562506       -15.3066
  44   2.0000      -0.527064       -14.3421
  45   2.0000      -0.522864       -14.2278
  46   2.0000      -0.522246       -14.2110
  47   2.0000      -0.517169       -14.0729
  48   2.0000      -0.512288       -13.9401
  49   2.0000      -0.510411       -13.8890
  50   2.0000      -0.500819       -13.6280
  51   2.0000      -0.482702       -13.1350
  52   2.0000      -0.475062       -12.9271
  53   2.0000      -0.466003       -12.6806
  54   2.0000      -0.460646       -12.5348
  55   2.0000      -0.448127       -12.1942
  56   2.0000      -0.445850       -12.1322
  57   2.0000      -0.430888       -11.7251
  58   2.0000      -0.426057       -11.5936
  59   2.0000      -0.422575       -11.4988
  60   2.0000      -0.414902       -11.2901
  61   2.0000      -0.413266       -11.2455
  62   2.0000      -0.409228       -11.1357
  63   2.0000      -0.349079        -9.4989
  64   2.0000      -0.329449        -8.9648
  65   2.0000      -0.320076        -8.7097
  66   2.0000      -0.307201        -8.3594
  67   0.0000       0.049955         1.3593
  68   0.0000       0.063604         1.7308
  69   0.0000       0.123812         3.3691
  70   0.0000       0.130737         3.5575
  71   0.0000       0.134908         3.6710

MULLIKEN ATOMIC CHARGES
-----------------------
   0 S :    0.115640
   1 C :   -0.124783
   2 C :   -0.111971
   3 C :    0.049504
   4 C :   -0.166056
   5 H :    0.023208
   6 C :    0.125260
   7 H :    0.006992
   8 H :    0.012609
   9 C :   -0.094504
  10 H :    0.028680
  11 H :    0.015080
  12 C :    0.003115
  13 H :    0.032977
  14 H :    0.020197
  15 H :    0.017370
  16 S :    0.098188
  17 C :   -0.103451
  18 C :    0.020049
  19 C :   -0.072277
  20 C :   -0.144410
  21 H :   -0.023331
  22 C :    0.098063
  23 H :   -0.017047
  24 H :    0.034372
  25 C :   -0.055507
  26 H :    0.018861
  27 H :    0.032270
  28 C :    0.006901
  29 H :   -0.006711
  30 H :    0.005570
  31 H :    0.032788
  32 H :    0.055903
  33 H :    0.066450
Sum of atomic charges:   -0.0000000

LOEWDIN ATOMIC CHARGES
----------------------
   0 S :    0.423366
   1 C :   -0.212989
   2 C :   -0.064682
   3 C :   -0.061195
   4 C :   -0.194932
   5 H :    0.038104
   6 C :   -0.022837
   7 H :    0.020971
   8 H :    0.025135
   9 C :   -0.034342
  10 H :    0.026271
  11 H :    0.015598
  12 C :   -0.060450
  13 H :    0.017424
  14 H :    0.031459
  15 H :    0.023814
  16 S :    0.441165
  17 C :   -0.188279
  18 C :   -0.065747
  19 C :   -0.046409
  20 C :   -0.225883
  21 H :    0.012711
  22 C :   -0.023920
  23 H :    0.014217
  24 H :    0.034791
  25 C :   -0.038934
  26 H :    0.020467
  27 H :    0.027886
  28 C :   -0.060540
  29 H :    0.010320
  30 H :    0.022420
  31 H :    0.030394
  32 H :    0.030487
  33 H :    0.034135

  Mayer bond orders larger than 0.100000
B(  0-S ,  1-C ) :   1.1757 B(  0-S ,  4-C ) :   1.1418 B(  1-C ,  2-C ) :   1.5712
B(  1-C , 32-H ) :   0.9730 B(  2-C ,  3-C ) :   1.2420 B(  2-C ,  6-C ) :   1.0324
B(  3-C ,  4-C ) :   1.6295 B(  3-C ,  5-H ) :   0.9870 B(  4-C , 20-C ) :   0.9823
B(  6-C ,  7-H ) :   0.9425 B(  6-C ,  8-H ) :   0.9391 B(  6-C ,  9-C ) :   1.0501
B(  9-C , 10-H ) :   0.9551 B(  9-C , 11-H ) :   0.9620 B(  9-C , 12-C ) :   1.0935
B( 12-C , 13-H ) :   0.9768 B( 12-C , 14-H ) :   0.9674 B( 12-C , 15-H ) :   0.9720
B( 16-S , 17-C ) :   1.1811 B( 16-S , 20-C ) :   1.1659 B( 17-C , 18-C ) :   1.5880
B( 17-C , 33-H ) :   0.9689 B( 18-C , 19-C ) :   1.2314 B( 18-C , 21-H ) :   1.0131
B( 19-C , 20-C ) :   1.6012 B( 19-C , 22-C ) :   1.0465 B( 22-C , 23-H ) :   0.9296
B( 22-C , 24-H ) :   0.9359 B( 22-C , 25-C ) :   1.0668 B( 25-C , 26-H ) :   0.9502
B( 25-C , 27-H ) :   0.9583 B( 25-C , 28-C ) :   1.0950 B( 28-C , 29-H ) :   0.9688
B( 28-C , 30-H ) :   0.9666 B( 28-C , 31-H ) :   0.9714

Dispersion correction           -0.013863818
FINAL SINGLE POINT ENERGY     -1339.856759456580

DIPOLE MOMENT
-------------
                                X             Y             Z
Electronic contribution:    -10.08581     -10.79022     -20.19247
Nuclear contribution   :     10.20040      11.15117      20.56368
                        -----------------------------------------
Total Dipole Moment    :      0.11459       0.36095       0.37122
                        -----------------------------------------
Magnitude (a.u.)       :      0.53030
Magnitude (Debye)      :      1.34791

Rotational constants in cm-1:     0.018534     0.007848     0.006594
Rotational constants in MHz :   555.634928   235.270660   197.693382

                             ****ORCA TERMINATED NORMALLY****
TOTAL RUN TIME: 0 days 0 hours 0 minutes 29 seconds 352 msec
