                         Program Version 4.2.1 -  RELEASE  -
|  1> ! wB97X-D3 SP def2-SVP
|  2> %pal
|  3> nprocs 16
|  4> end
|  5>
|  6> * xyz 0 1
|  7> S 	 -43.3843 	 25.3958 	 88.205
|  8> C 	 -44.8485 	 25.1409 	 89.0537
|  9> C 	 -45.4735 	 23.9227 	 88.7883
| 10> C 	 -44.7063 	 23.0632 	 88.0287
| 11> C 	 -43.453 	 23.6869 	 87.7794
| 12> H 	 -44.949 	 22.0038 	 87.7429
| 13> C 	 -46.8816 	 23.462 	 89.2312
| 14> H 	 -47.4184 	 22.8236 	 88.5206
| 15> H 	 -47.5152 	 24.3374 	 89.37
| 16> C 	 -46.9113 	 22.7237 	 90.5406
| 17> H 	 -47.8528 	 22.1141 	 90.6369
| 18> H 	 -46.0351 	 22.0773 	 90.3309
| 19> C 	 -46.5741 	 23.5037 	 91.8047
| 20> H 	 -46.3481 	 22.8853 	 92.6637
| 21> H 	 -45.6896 	 24.1546 	 91.6175
| 22> H 	 -47.4833 	 24.0101 	 92.0487
| 23> S 	 -41.5935 	 23.466 	 85.8328
| 24> C 	 -40.5849 	 22.0159 	 85.7343
| 25> C 	 -40.9527 	 21.0908 	 86.7146
| 26> C 	 -41.9892 	 21.6171 	 87.5514
| 27> C 	 -42.3285 	 22.902 	 87.2331
| 28> H 	 -40.4109 	 20.1098 	 86.8648
| 29> C 	 -42.5623 	 20.6773 	 88.6108
| 30> H 	 -43.0601 	 21.3245 	 89.3027
| 31> H 	 -41.792 	 20.1246 	 89.1773
| 32> C 	 -43.3913 	 19.4784 	 88.0329
| 33> H 	 -42.6932 	 18.7253 	 87.6813
| 34> H 	 -44.113 	 19.8157 	 87.3205
| 35> C 	 -44.1775 	 18.7639 	 89.1036
| 36> H 	 -44.8904 	 18.0436 	 88.6027
| 37> H 	 -44.6198 	 19.6573 	 89.6555
| 38> H 	 -43.56 	 18.1227 	 89.7628
| 39> H 	 -45.4222 	 25.8452 	 89.5891
| 40> H 	 -39.8891 	 21.9239 	 84.9499
| 41> *
| 42>
| 43>                          ****END OF INPUT****

CARTESIAN COORDINATES (ANGSTROEM)
---------------------------------
  S    -43.384300   25.395800   88.205000
  C    -44.848500   25.140900   89.053700
  C    -45.473500   23.922700   88.788300
  C    -44.706300   23.063200   88.028700
  C    -43.453000   23.686900   87.779400
  H    -44.949000   22.003800   87.742900
  C    -46.881600   23.462000   89.231200
  H    -47.418400   22.823600   88.520600
  H    -47.515200   24.337400   89.370000
  C    -46.911300   22.723700   90.540600
  H    -47.852800   22.114100   90.636900
  H    -46.035100   22.077300   90.330900
  C    -46.574100   23.503700   91.804700
  H    -46.348100   22.885300   92.663700
  H    -45.689600   24.154600   91.617500
  H    -47.483300   24.010100   92.048700
  S    -41.593500   23.466000   85.832800
  C    -40.584900   22.015900   85.734300
  C    -40.952700   21.090800   86.714600
  C    -41.989200   21.617100   87.551400
  C    -42.328500   22.902000   87.233100
  H    -40.410900   20.109800   86.864800
  C    -42.562300   20.677300   88.610800
  H    -43.060100   21.324500   89.302700
  H    -41.792000   20.124600   89.177300
  C    -43.391300   19.478400   88.032900
  H    -42.693200   18.725300   87.681300
  H    -44.113000   19.815700   87.320500
  C    -44.177500   18.763900   89.103600
  H    -44.890400   18.043600   88.602700
  H    -44.619800   19.657300   89.655500
  H    -43.560000   18.122700   89.762800
  H    -45.422200   25.845200   89.589100
  H    -39.889100   21.923900   84.949900

 Total Charge           Charge          ....    0
 Multiplicity           Mult            ....    1
 Number of Electrons    NEL             ....  134
 Basis Dimension        Dim             ....  322

ORBITAL ENERGIES
----------------

  NO   OCC          E(Eh)            E(eV)
   0   2.0000     -88.979788     -2421.2631
   1   2.0000     -88.962546     -2420.7939
   2   2.0000     -10.332827      -281.1705
   3   2.0000     -10.318998      -280.7942
   4   2.0000     -10.316292      -280.7206
   5   2.0000     -10.309793      -280.5437
   6   2.0000     -10.299966      -280.2763
   7   2.0000     -10.299330      -280.2590
   8   2.0000     -10.298714      -280.2423
   9   2.0000     -10.298293      -280.2308
  10   2.0000     -10.291209      -280.0380
  11   2.0000     -10.291106      -280.0352
  12   2.0000     -10.287479      -279.9365
  13   2.0000     -10.285591      -279.8852
  14   2.0000     -10.285226      -279.8752
  15   2.0000     -10.274465      -279.5824
  16   2.0000      -8.094297      -220.2570
  17   2.0000      -8.078807      -219.8355
  18   2.0000      -6.052567      -164.6987
  19   2.0000      -6.049115      -164.6048
  20   2.0000      -6.045064      -164.4946
  21   2.0000      -6.037193      -164.2804
  22   2.0000      -6.033101      -164.1690
  23   2.0000      -6.029617      -164.0742
  24   2.0000      -1.013391       -27.5758
  25   2.0000      -0.990753       -26.9598
  26   2.0000      -0.916227       -24.9318
  27   2.0000      -0.911236       -24.7960
  28   2.0000      -0.866044       -23.5663
  29   2.0000      -0.859926       -23.3998
  30   2.0000      -0.851983       -23.1836
  31   2.0000      -0.807656       -21.9774
  32   2.0000      -0.785243       -21.3676
  33   2.0000      -0.770728       -20.9726
  34   2.0000      -0.700209       -19.0537
  35   2.0000      -0.692540       -18.8450
  36   2.0000      -0.685854       -18.6630
  37   2.0000      -0.665911       -18.1204
  38   2.0000      -0.636431       -17.3182
  39   2.0000      -0.622401       -16.9364
  40   2.0000      -0.597932       -16.2706
  41   2.0000      -0.580085       -15.7849
  42   2.0000      -0.572747       -15.5852
  43   2.0000      -0.548115       -14.9150
  44   2.0000      -0.544110       -14.8060
  45   2.0000      -0.530191       -14.4272
  46   2.0000      -0.517239       -14.0748
  47   2.0000      -0.511194       -13.9103
  48   2.0000      -0.503991       -13.7143
  49   2.0000      -0.493035       -13.4162
  50   2.0000      -0.490340       -13.3428
  51   2.0000      -0.477571       -12.9954
  52   2.0000      -0.470119       -12.7926
  53   2.0000      -0.467909       -12.7324
  54   2.0000      -0.461777       -12.5656
  55   2.0000      -0.457566       -12.4510
  56   2.0000      -0.444762       -12.1026
  57   2.0000      -0.435632       -11.8542
  58   2.0000      -0.431289       -11.7360
  59   2.0000      -0.425997       -11.5920
  60   2.0000      -0.424113       -11.5407
  61   2.0000      -0.414257       -11.2725
  62   2.0000      -0.398327       -10.8390
  63   2.0000      -0.347628        -9.4594
  64   2.0000      -0.341807        -9.3011
  65   2.0000      -0.326337        -8.8801
  66   2.0000      -0.287193        -7.8149
  67   0.0000       0.025997         0.7074
  68   0.0000       0.069265         1.8848
  69   0.0000       0.101429         2.7600
  70   0.0000       0.115551         3.1443
  71   0.0000       0.129757         3.5309

MULLIKEN ATOMIC CHARGES
-----------------------
   0 S :    0.154467
   1 C :   -0.078819
   2 C :   -0.111554
   3 C :    0.005568
   4 C :   -0.171686
   5 H :    0.032385
   6 C :    0.080711
   7 H :    0.032049
   8 H :    0.006579
   9 C :   -0.109909
  10 H :    0.041792
  11 H :    0.019375
  12 C :   -0.036111
  13 H :    0.034103
  14 H :    0.041839
  15 H :    0.023454
  16 S :    0.096063
  17 C :   -0.090919
  18 C :   -0.038032
  19 C :   -0.053053
  20 C :   -0.119167
  21 H :    0.046238
  22 C :    0.042166
  23 H :    0.025576
  24 H :    0.024182
  25 C :   -0.066529
  26 H :    0.028798
  27 H :    0.034232
  28 C :   -0.086147
  29 H :    0.047866
  30 H :    0.044812
  31 H :    0.035412
  32 H :    0.022442
  33 H :    0.041817
Sum of atomic charges:   -0.0000000

LOEWDIN ATOMIC CHARGES
----------------------
   0 S :    0.434819
   1 C :   -0.211809
   2 C :   -0.064344
   3 C :   -0.058629
   4 C :   -0.188310
   5 H :    0.044199
   6 C :   -0.030852
   7 H :    0.035469
   8 H :    0.020455
   9 C :   -0.051932
  10 H :    0.028627
  11 H :    0.021082
  12 C :   -0.067029
  13 H :    0.027040
  14 H :    0.032138
  15 H :    0.020467
  16 S :    0.421304
  17 C :   -0.172147
  18 C :   -0.067878
  19 C :   -0.064306
  20 C :   -0.224060
  21 H :    0.043965
  22 C :   -0.033164
  23 H :    0.021441
  24 H :    0.033414
  25 C :   -0.039186
  26 H :    0.024023
  27 H :    0.017100
  28 C :   -0.073417
  29 H :    0.033559
  30 H :    0.032685
  31 H :    0.023063
  32 H :    0.017134
  33 H :    0.015079

  Mayer bond orders larger than 0.100000
B(  0-S ,  1-C ) :   1.1453 B(  0-S ,  4-C ) :   1.1777 B(  1-C ,  2-C ) :   1.5970
B(  1-C ,  4-C ) :   0.1074 B(  1-C , 32-H ) :   0.9594 B(  2-C ,  3-C ) :   1.2785
B(  2-C ,  6-C ) :   1.0235 B(  3-C ,  4-C ) :   1.5144 B(  3-C ,  5-H ) :   0.9861
B(  4-C , 20-C ) :   1.0074 B(  6-C ,  7-H ) :   0.9457 B(  6-C ,  8-H ) :   0.9352
B(  6-C ,  9-C ) :   1.0591 B(  9-C , 10-H ) :   0.9568 B(  9-C , 11-H ) :   0.9525
B(  9-C , 12-C ) :   1.0824 B( 12-C , 13-H ) :   0.9729 B( 12-C , 14-H ) :   0.9686
B( 12-C , 15-H ) :   0.9748 B( 16-S , 17-C ) :   1.1579 B( 16-S , 20-C ) :   1.1566
B( 17-C , 18-C ) :   1.5873 B( 17-C , 33-H ) :   0.9800 B( 18-C , 19-C ) :   1.2366
B( 18-C , 21-H ) :   0.9835 B( 19-C , 20-C ) :   1.6142 B( 19-C , 22-C ) :   1.0513
B( 22-C , 23-H ) :   0.9348 B( 22-C , 24-H ) :   0.9351 B( 22-C , 25-C ) :   1.0598
B( 25-C , 26-H ) :   0.9499 B( 25-C , 27-H ) :   0.9559 B( 25-C , 28-C ) :   1.0808
B( 28-C , 29-H ) :   0.9732 B( 28-C , 30-H ) :   0.9742 B( 28-C , 31-H ) :   0.9747

Dispersion correction           -0.015314554
FINAL SINGLE POINT ENERGY     -1339.854307112181

DIPOLE MOMENT
-------------
                                X             Y             Z
Electronic contribution:     17.48343      20.20862     -18.12004
Nuclear contribution   :    -17.76051     -20.76131      18.28238
                        -----------------------------------------
Total Dipole Moment    :     -0.27708      -0.55269       0.16235
                        -----------------------------------------
Magnitude (a.u.)       :      0.63922
Magnitude (Debye)      :      1.62476

Rotational constants in cm-1:     0.017836     0.010380     0.007048
Rotational constants in MHz :   534.704942   311.194735   211.288086

                             ****ORCA TERMINATED NORMALLY****
TOTAL RUN TIME: 0 days 0 hours 0 minutes 32 seconds 237 msec
