                         Program Version 4.2.1 -  RELEASE  -
|  1> ! wB97X-D3 SP def2-SVP
|  2> %pal
|  3> nprocs 16
|  4> end
|  5>
|  6> * xyz 0 1
|  7> S 	 -0.719652 	 -14.3041 	 79.6749
|  8> C 	 -2.32122 	 -14.7829 	 79.3618
|  9> C 	 -3.20792 	 -13.8611 	 79.9156
| 10> C 	 -2.57523 	 -12.7829 	 80.6518
| 11> C 	 -1.22654 	 -12.8777 	 80.5944
| 12> H 	 -2.93172 	 -11.9899 	 81.3013
| 13> C 	 -4.7426 	 -13.9365 	 79.8658
| 14> H 	 -4.95931 	 -14.6422 	 79.0452
| 15> H 	 -5.11159 	 -13.0932 	 79.3224
| 16> C 	 -5.57321 	 -14.1994 	 81.1096
| 17> H 	 -4.97673 	 -14.8674 	 81.7606
| 18> H 	 -5.59267 	 -13.2126 	 81.5573
| 19> C 	 -6.99301 	 -14.7801 	 80.9508
| 20> H 	 -7.70231 	 -14.6195 	 81.8215
| 21> H 	 -7.42949 	 -14.2036 	 80.1505
| 22> H 	 -7.06944 	 -15.862 	 80.6857
| 23> S 	 0.461764 	 -13.0722 	 82.7809
| 24> C 	 0.97246 	 -11.5427 	 83.577
| 25> C 	 0.507507 	 -10.4258 	 82.8546
| 26> C 	 -0.408242 	 -10.7239 	 81.7917
| 27> C 	 -0.479692 	 -12.1223 	 81.5503
| 28> H 	 0.851505 	 -9.49501 	 83.2525
| 29> C 	 -1.00965 	 -9.60492 	 80.9406
| 30> H 	 -1.67504 	 -10.1607 	 80.2411
| 31> H 	 -0.251932 	 -9.05284 	 80.3443
| 32> C 	 -1.83856 	 -8.58618 	 81.6373
| 33> H 	 -2.44305 	 -9.11159 	 82.4104
| 34> H 	 -2.48723 	 -8.09181 	 80.9485
| 35> C 	 -1.07047 	 -7.46254 	 82.3982
| 36> H 	 -1.22561 	 -7.44893 	 83.4525
| 37> H 	 -1.58743 	 -6.50938 	 81.9997
| 38> H 	 0.0200345 	 -7.39142 	 82.2441
| 39> H 	 -2.66656 	 -15.672 	 78.826
| 40> H 	 1.7276 	 -11.3764 	 84.3479
| 41> *
| 42>
| 43>                          ****END OF INPUT****

CARTESIAN COORDINATES (ANGSTROEM)
---------------------------------
  S     -0.719652  -14.304100   79.674900
  C     -2.321220  -14.782900   79.361800
  C     -3.207920  -13.861100   79.915600
  C     -2.575230  -12.782900   80.651800
  C     -1.226540  -12.877700   80.594400
  H     -2.931720  -11.989900   81.301300
  C     -4.742600  -13.936500   79.865800
  H     -4.959310  -14.642200   79.045200
  H     -5.111590  -13.093200   79.322400
  C     -5.573210  -14.199400   81.109600
  H     -4.976730  -14.867400   81.760600
  H     -5.592670  -13.212600   81.557300
  C     -6.993010  -14.780100   80.950800
  H     -7.702310  -14.619500   81.821500
  H     -7.429490  -14.203600   80.150500
  H     -7.069440  -15.862000   80.685700
  S      0.461764  -13.072200   82.780900
  C      0.972460  -11.542700   83.577000
  C      0.507507  -10.425800   82.854600
  C     -0.408242  -10.723900   81.791700
  C     -0.479692  -12.122300   81.550300
  H      0.851505   -9.495010   83.252500
  C     -1.009650   -9.604920   80.940600
  H     -1.675040  -10.160700   80.241100
  H     -0.251932   -9.052840   80.344300
  C     -1.838560   -8.586180   81.637300
  H     -2.443050   -9.111590   82.410400
  H     -2.487230   -8.091810   80.948500
  C     -1.070470   -7.462540   82.398200
  H     -1.225610   -7.448930   83.452500
  H     -1.587430   -6.509380   81.999700
  H      0.020035   -7.391420   82.244100
  H     -2.666560  -15.672000   78.826000
  H      1.727600  -11.376400   84.347900

 Total Charge           Charge          ....    0
 Multiplicity           Mult            ....    1
 Number of Electrons    NEL             ....  134
 Basis Dimension        Dim             ....  322

ORBITAL ENERGIES
----------------

  NO   OCC          E(Eh)            E(eV)
   0   2.0000     -88.970961     -2421.0229
   1   2.0000     -88.967527     -2420.9295
   2   2.0000     -10.335719      -281.2492
   3   2.0000     -10.324456      -280.9427
   4   2.0000     -10.320685      -280.8401
   5   2.0000     -10.320160      -280.8258
   6   2.0000     -10.309888      -280.5463
   7   2.0000     -10.308504      -280.5087
   8   2.0000     -10.294569      -280.1295
   9   2.0000     -10.294541      -280.1287
  10   2.0000     -10.293825      -280.1092
  11   2.0000     -10.289032      -279.9788
  12   2.0000     -10.288254      -279.9576
  13   2.0000     -10.287606      -279.9400
  14   2.0000     -10.285961      -279.8952
  15   2.0000     -10.283531      -279.8291
  16   2.0000      -8.085995      -220.0311
  17   2.0000      -8.080234      -219.8743
  18   2.0000      -6.044566      -164.4810
  19   2.0000      -6.040393      -164.3675
  20   2.0000      -6.038948      -164.3281
  21   2.0000      -6.036707      -164.2672
  22   2.0000      -6.035067      -164.2225
  23   2.0000      -6.030844      -164.1076
  24   2.0000      -1.008783       -27.4504
  25   2.0000      -0.973743       -26.4969
  26   2.0000      -0.910662       -24.7804
  27   2.0000      -0.907492       -24.6941
  28   2.0000      -0.879645       -23.9363
  29   2.0000      -0.849701       -23.1215
  30   2.0000      -0.840945       -22.8833
  31   2.0000      -0.813342       -22.1322
  32   2.0000      -0.783065       -21.3083
  33   2.0000      -0.771774       -21.0010
  34   2.0000      -0.710424       -19.3316
  35   2.0000      -0.699663       -19.0388
  36   2.0000      -0.688318       -18.7301
  37   2.0000      -0.659515       -17.9463
  38   2.0000      -0.646185       -17.5836
  39   2.0000      -0.614507       -16.7216
  40   2.0000      -0.592183       -16.1141
  41   2.0000      -0.571956       -15.5637
  42   2.0000      -0.557704       -15.1759
  43   2.0000      -0.547874       -14.9084
  44   2.0000      -0.546485       -14.8706
  45   2.0000      -0.520403       -14.1609
  46   2.0000      -0.516679       -14.0595
  47   2.0000      -0.511444       -13.9171
  48   2.0000      -0.507133       -13.7998
  49   2.0000      -0.501392       -13.6436
  50   2.0000      -0.492666       -13.4061
  51   2.0000      -0.482154       -13.1201
  52   2.0000      -0.477169       -12.9844
  53   2.0000      -0.466129       -12.6840
  54   2.0000      -0.460448       -12.5294
  55   2.0000      -0.444048       -12.0832
  56   2.0000      -0.436162       -11.8686
  57   2.0000      -0.432759       -11.7760
  58   2.0000      -0.430185       -11.7059
  59   2.0000      -0.419310       -11.4100
  60   2.0000      -0.415930       -11.3180
  61   2.0000      -0.412314       -11.2196
  62   2.0000      -0.408441       -11.1142
  63   2.0000      -0.354065        -9.6346
  64   2.0000      -0.331802        -9.0288
  65   2.0000      -0.326543        -8.8857
  66   2.0000      -0.290727        -7.9111
  67   0.0000       0.025578         0.6960
  68   0.0000       0.065145         1.7727
  69   0.0000       0.113893         3.0992
  70   0.0000       0.114537         3.1167
  71   0.0000       0.120773         3.2864

MULLIKEN ATOMIC CHARGES
-----------------------
   0 S :    0.121388
   1 C :   -0.102658
   2 C :   -0.107357
   3 C :    0.026867
   4 C :   -0.153317
   5 H :    0.033194
   6 C :    0.055888
   7 H :   -0.005997
   8 H :    0.018434
   9 C :   -0.042915
  10 H :    0.037392
  11 H :    0.029899
  12 C :   -0.074677
  13 H :    0.047019
  14 H :    0.023029
  15 H :    0.046925
  16 S :    0.100389
  17 C :   -0.103290
  18 C :   -0.038616
  19 C :   -0.028534
  20 C :   -0.162245
  21 H :    0.011866
  22 C :    0.052972
  23 H :    0.020659
  24 H :    0.047479
  25 C :   -0.061881
  26 H :    0.031544
  27 H :    0.032693
  28 C :   -0.090088
  29 H :    0.034315
  30 H :    0.037980
  31 H :    0.041798
  32 H :    0.059565
  33 H :    0.060281
Sum of atomic charges:   -0.0000000

LOEWDIN ATOMIC CHARGES
----------------------
   0 S :    0.418172
   1 C :   -0.209444
   2 C :   -0.060900
   3 C :   -0.049967
   4 C :   -0.201792
   5 H :    0.038545
   6 C :   -0.046273
   7 H :    0.025110
   8 H :    0.026768
   9 C :   -0.044283
  10 H :    0.027363
  11 H :    0.026243
  12 C :   -0.072939
  13 H :    0.036391
  14 H :    0.021583
  15 H :    0.031239
  16 S :    0.363057
  17 C :   -0.182863
  18 C :   -0.065964
  19 C :   -0.059010
  20 C :   -0.166103
  21 H :    0.027608
  22 C :   -0.037063
  23 H :    0.032736
  24 H :    0.036272
  25 C :   -0.044544
  26 H :    0.029362
  27 H :    0.023545
  28 C :   -0.077560
  29 H :    0.020418
  30 H :    0.038487
  31 H :    0.023224
  32 H :    0.039305
  33 H :    0.033277

  Mayer bond orders larger than 0.100000
B(  0-S ,  1-C ) :   1.1363 B(  0-S ,  4-C ) :   1.1346 B(  1-C ,  2-C ) :   1.6213
B(  1-C , 32-H ) :   0.9644 B(  2-C ,  3-C ) :   1.2137 B(  2-C ,  6-C ) :   1.0325
B(  3-C ,  4-C ) :   1.5767 B(  3-C ,  5-H ) :   0.9916 B(  4-C , 20-C ) :   1.0694
B(  6-C ,  7-H ) :   0.9350 B(  6-C ,  8-H ) :   0.9329 B(  6-C ,  9-C ) :   1.0413
B(  9-C , 10-H ) :   0.9627 B(  9-C , 11-H ) :   0.9518 B(  9-C , 12-C ) :   1.0791
B( 12-C , 13-H ) :   0.9751 B( 12-C , 14-H ) :   0.9756 B( 12-C , 15-H ) :   0.9750
B( 16-S , 17-C ) :   1.1269 B( 16-S , 20-C ) :   1.1258 B( 17-C , 18-C ) :   1.6544
B( 17-C , 20-C ) :   0.1040 B( 17-C , 33-H ) :   0.9601 B( 18-C , 19-C ) :   1.2111
B( 18-C , 21-H ) :   0.9857 B( 19-C , 20-C ) :   1.5927 B( 19-C , 22-C ) :   1.0441
B( 22-C , 23-H ) :   0.9244 B( 22-C , 24-H ) :   0.9406 B( 22-C , 25-C ) :   1.0796
B( 25-C , 26-H ) :   0.9542 B( 25-C , 27-H ) :   0.9673 B( 25-C , 28-C ) :   1.0482
B( 28-C , 29-H ) :   0.9812 B( 28-C , 30-H ) :   0.9795 B( 28-C , 31-H ) :   0.9768

Dispersion correction           -0.013870969
FINAL SINGLE POINT ENERGY     -1339.851084095378

DIPOLE MOMENT
-------------
                                X             Y             Z
Electronic contribution:     23.02797     -14.74956      -1.40613
Nuclear contribution   :    -23.56679      15.12875       1.39361
                        -----------------------------------------
Total Dipole Moment    :     -0.53882       0.37919      -0.01253
                        -----------------------------------------
Magnitude (a.u.)       :      0.65899
Magnitude (Debye)      :      1.67502

Rotational constants in cm-1:     0.017535     0.008014     0.006486
Rotational constants in MHz :   525.681611   240.260456   194.442320

                             ****ORCA TERMINATED NORMALLY****
TOTAL RUN TIME: 0 days 0 hours 0 minutes 32 seconds 651 msec
