                         Program Version 4.2.1 -  RELEASE  -
|  1> ! wB97X-D3 SP def2-SVP
|  2> %pal
|  3> nprocs 16
|  4> end
|  5>
|  6> * xyz 0 1
|  7> S 	 15.3397 	 36.7809 	 64.5673
|  8> C 	 16.8047 	 37.7139 	 64.5149
|  9> C 	 17.8866 	 36.9947 	 64.0782
| 10> C 	 17.541 	 35.6418 	 63.7395
| 11> C 	 16.1975 	 35.3377 	 64.0415
| 12> H 	 18.1315 	 34.9017 	 63.3741
| 13> C 	 19.2799 	 37.5722 	 63.8303
| 14> H 	 19.8768 	 36.7402 	 63.6269
| 15> H 	 19.5942 	 38.1075 	 64.7312
| 16> C 	 19.3635 	 38.4768 	 62.5979
| 17> H 	 18.5765 	 39.2073 	 62.459
| 18> H 	 20.2609 	 39.136 	 62.4533
| 19> C 	 19.3133 	 37.741 	 61.245
| 20> H 	 18.545 	 36.8672 	 61.3536
| 21> H 	 18.8868 	 38.3952 	 60.4696
| 22> H 	 20.2624 	 37.2929 	 61.0546
| 23> S 	 14.0916 	 33.946 	 62.6697
| 24> C 	 14.0242 	 32.1609 	 62.8248
| 25> C 	 14.8471 	 31.8111 	 63.8533
| 26> C 	 15.7897 	 32.8166 	 64.2916
| 27> C 	 15.503 	 34.091 	 63.7573
| 28> H 	 14.8738 	 30.7999 	 64.2135
| 29> C 	 16.9132 	 32.4414 	 65.2633
| 30> H 	 17.6993 	 33.2428 	 65.2337
| 31> H 	 17.3998 	 31.5049 	 64.8671
| 32> C 	 16.49 	 32.2234 	 66.6834
| 33> H 	 17.3699 	 31.8665 	 67.195
| 34> H 	 15.8109 	 31.2434 	 66.6854
| 35> C 	 15.7409 	 33.4222 	 67.2648
| 36> H 	 15.6371 	 33.4064 	 68.3097
| 37> H 	 14.6508 	 33.4758 	 66.9563
| 38> H 	 16.0737 	 34.4066 	 66.9038
| 39> H 	 16.8988 	 38.7649 	 64.6245
| 40> H 	 13.2266 	 31.5622 	 62.4107
| 41> *
| 42>
| 43>                          ****END OF INPUT****

CARTESIAN COORDINATES (ANGSTROEM)
---------------------------------
  S     15.339700   36.780900   64.567300
  C     16.804700   37.713900   64.514900
  C     17.886600   36.994700   64.078200
  C     17.541000   35.641800   63.739500
  C     16.197500   35.337700   64.041500
  H     18.131500   34.901700   63.374100
  C     19.279900   37.572200   63.830300
  H     19.876800   36.740200   63.626900
  H     19.594200   38.107500   64.731200
  C     19.363500   38.476800   62.597900
  H     18.576500   39.207300   62.459000
  H     20.260900   39.136000   62.453300
  C     19.313300   37.741000   61.245000
  H     18.545000   36.867200   61.353600
  H     18.886800   38.395200   60.469600
  H     20.262400   37.292900   61.054600
  S     14.091600   33.946000   62.669700
  C     14.024200   32.160900   62.824800
  C     14.847100   31.811100   63.853300
  C     15.789700   32.816600   64.291600
  C     15.503000   34.091000   63.757300
  H     14.873800   30.799900   64.213500
  C     16.913200   32.441400   65.263300
  H     17.699300   33.242800   65.233700
  H     17.399800   31.504900   64.867100
  C     16.490000   32.223400   66.683400
  H     17.369900   31.866500   67.195000
  H     15.810900   31.243400   66.685400
  C     15.740900   33.422200   67.264800
  H     15.637100   33.406400   68.309700
  H     14.650800   33.475800   66.956300
  H     16.073700   34.406600   66.903800
  H     16.898800   38.764900   64.624500
  H     13.226600   31.562200   62.410700

 Total Charge           Charge          ....    0
 Multiplicity           Mult            ....    1
 Number of Electrons    NEL             ....  134
 Basis Dimension        Dim             ....  322

ORBITAL ENERGIES
----------------

  NO   OCC          E(Eh)            E(eV)
   0   2.0000     -88.971726     -2421.0438
   1   2.0000     -88.963555     -2420.8214
   2   2.0000     -10.334320      -281.2111
   3   2.0000     -10.333292      -281.1832
   4   2.0000     -10.321803      -280.8705
   5   2.0000     -10.310809      -280.5714
   6   2.0000     -10.307202      -280.4732
   7   2.0000     -10.302382      -280.3421
   8   2.0000     -10.296349      -280.1779
   9   2.0000     -10.294597      -280.1302
  10   2.0000     -10.294383      -280.1244
  11   2.0000     -10.294309      -280.1224
  12   2.0000     -10.293692      -280.1056
  13   2.0000     -10.286691      -279.9151
  14   2.0000     -10.279530      -279.7202
  15   2.0000     -10.273639      -279.5599
  16   2.0000      -8.086101      -220.0340
  17   2.0000      -8.077149      -219.7904
  18   2.0000      -6.044574      -164.4812
  19   2.0000      -6.040620      -164.3736
  20   2.0000      -6.036954      -164.2739
  21   2.0000      -6.035909      -164.2454
  22   2.0000      -6.031842      -164.1348
  23   2.0000      -6.027659      -164.0210
  24   2.0000      -1.002765       -27.2866
  25   2.0000      -0.980112       -26.6702
  26   2.0000      -0.913343       -24.8533
  27   2.0000      -0.908538       -24.7226
  28   2.0000      -0.870127       -23.6774
  29   2.0000      -0.850369       -23.1397
  30   2.0000      -0.836748       -22.7691
  31   2.0000      -0.815382       -22.1877
  32   2.0000      -0.784111       -21.3367
  33   2.0000      -0.774312       -21.0701
  34   2.0000      -0.710130       -19.3236
  35   2.0000      -0.696833       -18.9618
  36   2.0000      -0.690212       -18.7816
  37   2.0000      -0.658132       -17.9087
  38   2.0000      -0.646635       -17.5958
  39   2.0000      -0.612832       -16.6760
  40   2.0000      -0.593277       -16.1439
  41   2.0000      -0.575989       -15.6735
  42   2.0000      -0.557337       -15.1659
  43   2.0000      -0.554618       -15.0919
  44   2.0000      -0.542615       -14.7653
  45   2.0000      -0.530422       -14.4335
  46   2.0000      -0.523930       -14.2568
  47   2.0000      -0.514127       -13.9901
  48   2.0000      -0.502791       -13.6816
  49   2.0000      -0.498934       -13.5767
  50   2.0000      -0.487830       -13.2745
  51   2.0000      -0.478553       -13.0221
  52   2.0000      -0.467273       -12.7152
  53   2.0000      -0.463456       -12.6113
  54   2.0000      -0.455173       -12.3859
  55   2.0000      -0.442253       -12.0343
  56   2.0000      -0.441354       -12.0099
  57   2.0000      -0.440710       -11.9923
  58   2.0000      -0.436971       -11.8906
  59   2.0000      -0.421752       -11.4764
  60   2.0000      -0.416526       -11.3342
  61   2.0000      -0.409954       -11.1554
  62   2.0000      -0.399296       -10.8654
  63   2.0000      -0.346082        -9.4174
  64   2.0000      -0.334609        -9.1052
  65   2.0000      -0.326227        -8.8771
  66   2.0000      -0.295674        -8.0457
  67   0.0000       0.026382         0.7179
  68   0.0000       0.061516         1.6739
  69   0.0000       0.112724         3.0674
  70   0.0000       0.122446         3.3319
  71   0.0000       0.123362         3.3568

MULLIKEN ATOMIC CHARGES
-----------------------
   0 S :    0.124789
   1 C :   -0.093838
   2 C :   -0.127050
   3 C :    0.088490
   4 C :   -0.202479
   5 H :   -0.021499
   6 C :    0.145131
   7 H :    0.006171
   8 H :    0.042301
   9 C :   -0.085600
  10 H :    0.017550
  11 H :    0.031485
  12 C :   -0.099760
  13 H :    0.038450
  14 H :    0.044924
  15 H :    0.033659
  16 S :    0.086035
  17 C :   -0.092093
  18 C :   -0.015843
  19 C :   -0.051523
  20 C :   -0.137936
  21 H :    0.017383
  22 C :    0.026951
  23 H :    0.030723
  24 H :    0.037491
  25 C :   -0.069509
  26 H :    0.031341
  27 H :    0.030110
  28 C :   -0.035126
  29 H :    0.024949
  30 H :    0.037702
  31 H :    0.035991
  32 H :    0.032831
  33 H :    0.067800
Sum of atomic charges:    0.0000000

LOEWDIN ATOMIC CHARGES
----------------------
   0 S :    0.416824
   1 C :   -0.195029
   2 C :   -0.060482
   3 C :   -0.045019
   4 C :   -0.189367
   5 H :    0.013391
   6 C :   -0.020696
   7 H :    0.023639
   8 H :    0.038099
   9 C :   -0.052669
  10 H :    0.019343
  11 H :    0.028247
  12 C :   -0.070450
  13 H :    0.032707
  14 H :    0.030410
  15 H :    0.015938
  16 S :    0.366044
  17 C :   -0.168232
  18 C :   -0.066229
  19 C :   -0.051239
  20 C :   -0.196123
  21 H :    0.027647
  22 C :   -0.040994
  23 H :    0.031049
  24 H :    0.036225
  25 C :   -0.046514
  26 H :    0.023008
  27 H :    0.030424
  28 C :   -0.072728
  29 H :    0.018867
  30 H :    0.039032
  31 H :    0.028141
  32 H :    0.023664
  33 H :    0.033072

  Mayer bond orders larger than 0.100000
B(  0-S ,  1-C ) :   1.1424 B(  0-S ,  4-C ) :   1.1523 B(  1-C ,  2-C ) :   1.6184
B(  1-C , 32-H ) :   0.9667 B(  2-C ,  3-C ) :   1.2411 B(  2-C ,  6-C ) :   1.0185
B(  3-C ,  4-C ) :   1.5579 B(  3-C ,  5-H ) :   1.0003 B(  4-C , 20-C ) :   1.0628
B(  6-C ,  7-H ) :   0.9405 B(  6-C ,  8-H ) :   0.9376 B(  6-C ,  9-C ) :   1.0541
B(  9-C , 10-H ) :   0.9667 B(  9-C , 11-H ) :   0.9591 B(  9-C , 12-C ) :   1.0643
B( 12-C , 13-H ) :   0.9770 B( 12-C , 14-H ) :   0.9761 B( 12-C , 15-H ) :   0.9784
B( 16-S , 17-C ) :   1.1308 B( 16-S , 20-C ) :   1.1231 B( 17-C , 18-C ) :   1.6306
B( 17-C , 33-H ) :   0.9673 B( 18-C , 19-C ) :   1.2332 B( 18-C , 21-H ) :   0.9844
B( 19-C , 20-C ) :   1.5839 B( 19-C , 22-C ) :   1.0370 B( 22-C , 23-H ) :   0.9309
B( 22-C , 24-H ) :   0.9360 B( 22-C , 25-C ) :   1.0893 B( 25-C , 26-H ) :   0.9558
B( 25-C , 27-H ) :   0.9500 B( 25-C , 28-C ) :   1.0559 B( 28-C , 29-H ) :   0.9746
B( 28-C , 30-H ) :   0.9649 B( 28-C , 31-H ) :   0.9768

Dispersion correction           -0.015554963
FINAL SINGLE POINT ENERGY     -1339.866106972267

DIPOLE MOMENT
-------------
                                X             Y             Z
Electronic contribution:    -18.13878      -0.63812      -4.20424
Nuclear contribution   :     18.60427       0.47024       4.34738
                        -----------------------------------------
Total Dipole Moment    :      0.46548      -0.16789       0.14314
                        -----------------------------------------
Magnitude (a.u.)       :      0.51512
Magnitude (Debye)      :      1.30934

Rotational constants in cm-1:     0.020927     0.008302     0.007517
Rotational constants in MHz :   627.379099   248.901466   225.367631

                             ****ORCA TERMINATED NORMALLY****
TOTAL RUN TIME: 0 days 0 hours 0 minutes 36 seconds 255 msec
