                         Program Version 4.2.1 -  RELEASE  -
|  1> ! wB97X-D3 SP def2-SVP
|  2> %pal
|  3> nprocs 16
|  4> end
|  5>
|  6> * xyz 0 1
|  7> S 	 -83.2615 	 49.8473 	 136.843
|  8> C 	 -83.7823 	 48.4259 	 137.659
|  9> C 	 -83.1527 	 48.2409 	 138.85
| 10> C 	 -82.102 	 49.1978 	 139.127
| 11> C 	 -82.1039 	 50.1896 	 138.129
| 12> H 	 -81.5489 	 49.3044 	 140.032
| 13> C 	 -83.3637 	 47.0908 	 139.851
| 14> H 	 -82.3657 	 46.9112 	 140.274
| 15> H 	 -83.6434 	 46.146 	 139.283
| 16> C 	 -84.5403 	 47.3747 	 140.832
| 17> H 	 -85.4278 	 47.2201 	 140.213
| 18> H 	 -84.4528 	 46.5547 	 141.577
| 19> C 	 -84.486 	 48.5475 	 141.729
| 20> H 	 -84.0649 	 49.4608 	 141.221
| 21> H 	 -85.4104 	 48.6877 	 142.214
| 22> H 	 -83.7363 	 48.322 	 142.541
| 23> S 	 -82.0021 	 52.7864 	 138.932
| 24> C 	 -80.5194 	 53.721 	 138.673
| 25> C 	 -79.4707 	 52.9504 	 138.156
| 26> C 	 -79.9217 	 51.6107 	 137.935
| 27> C 	 -81.2531 	 51.3415 	 138.244
| 28> H 	 -78.4954 	 53.3163 	 138.009
| 29> C 	 -78.9599 	 50.4281 	 137.55
| 30> H 	 -78.7661 	 50.3313 	 136.471
| 31> H 	 -79.4097 	 49.4901 	 137.753
| 32> C 	 -77.5551 	 50.5118 	 138.186
| 33> H 	 -77.0813 	 51.344 	 137.632
| 34> H 	 -76.9625 	 49.582 	 138.019
| 35> C 	 -77.5139 	 50.7784 	 139.651
| 36> H 	 -78.2453 	 50.3088 	 140.288
| 37> H 	 -77.5454 	 51.8261 	 139.829
| 38> H 	 -76.5467 	 50.3779 	 139.98
| 39> H 	 -84.5384 	 47.6813 	 137.447
| 40> H 	 -80.3237 	 54.7523 	 138.933
| 41> *
| 42>
| 43>                          ****END OF INPUT****

CARTESIAN COORDINATES (ANGSTROEM)
---------------------------------
  S    -83.261500   49.847300  136.843000
  C    -83.782300   48.425900  137.659000
  C    -83.152700   48.240900  138.850000
  C    -82.102000   49.197800  139.127000
  C    -82.103900   50.189600  138.129000
  H    -81.548900   49.304400  140.032000
  C    -83.363700   47.090800  139.851000
  H    -82.365700   46.911200  140.274000
  H    -83.643400   46.146000  139.283000
  C    -84.540300   47.374700  140.832000
  H    -85.427800   47.220100  140.213000
  H    -84.452800   46.554700  141.577000
  C    -84.486000   48.547500  141.729000
  H    -84.064900   49.460800  141.221000
  H    -85.410400   48.687700  142.214000
  H    -83.736300   48.322000  142.541000
  S    -82.002100   52.786400  138.932000
  C    -80.519400   53.721000  138.673000
  C    -79.470700   52.950400  138.156000
  C    -79.921700   51.610700  137.935000
  C    -81.253100   51.341500  138.244000
  H    -78.495400   53.316300  138.009000
  C    -78.959900   50.428100  137.550000
  H    -78.766100   50.331300  136.471000
  H    -79.409700   49.490100  137.753000
  C    -77.555100   50.511800  138.186000
  H    -77.081300   51.344000  137.632000
  H    -76.962500   49.582000  138.019000
  C    -77.513900   50.778400  139.651000
  H    -78.245300   50.308800  140.288000
  H    -77.545400   51.826100  139.829000
  H    -76.546700   50.377900  139.980000
  H    -84.538400   47.681300  137.447000
  H    -80.323700   54.752300  138.933000

 Total Charge           Charge          ....    0
 Multiplicity           Mult            ....    1
 Number of Electrons    NEL             ....  134
 Basis Dimension        Dim             ....  322

ORBITAL ENERGIES
----------------

  NO   OCC          E(Eh)            E(eV)
   0   2.0000     -88.972875     -2421.0750
   1   2.0000     -88.966267     -2420.8952
   2   2.0000     -10.330265      -281.1008
   3   2.0000     -10.324107      -280.9332
   4   2.0000     -10.322023      -280.8765
   5   2.0000     -10.309232      -280.5285
   6   2.0000     -10.307524      -280.4820
   7   2.0000     -10.298498      -280.2364
   8   2.0000     -10.296175      -280.1732
   9   2.0000     -10.295925      -280.1664
  10   2.0000     -10.295908      -280.1659
  11   2.0000     -10.286964      -279.9225
  12   2.0000     -10.285127      -279.8725
  13   2.0000     -10.285062      -279.8708
  14   2.0000     -10.277126      -279.6548
  15   2.0000     -10.266250      -279.3589
  16   2.0000      -8.087277      -220.0660
  17   2.0000      -8.080323      -219.8768
  18   2.0000      -6.045815      -164.5150
  19   2.0000      -6.041855      -164.4072
  20   2.0000      -6.038861      -164.3258
  21   2.0000      -6.037982      -164.3019
  22   2.0000      -6.034901      -164.2180
  23   2.0000      -6.031105      -164.1147
  24   2.0000      -1.004484       -27.3334
  25   2.0000      -0.980788       -26.6886
  26   2.0000      -0.910821       -24.7847
  27   2.0000      -0.905070       -24.6282
  28   2.0000      -0.873624       -23.7725
  29   2.0000      -0.851590       -23.1729
  30   2.0000      -0.843283       -22.9469
  31   2.0000      -0.814480       -22.1631
  32   2.0000      -0.784234       -21.3401
  33   2.0000      -0.773051       -21.0358
  34   2.0000      -0.707809       -19.2605
  35   2.0000      -0.692128       -18.8337
  36   2.0000      -0.687798       -18.7159
  37   2.0000      -0.659386       -17.9428
  38   2.0000      -0.640923       -17.4404
  39   2.0000      -0.606583       -16.5060
  40   2.0000      -0.592337       -16.1183
  41   2.0000      -0.576178       -15.6786
  42   2.0000      -0.554525       -15.0894
  43   2.0000      -0.550111       -14.9693
  44   2.0000      -0.548158       -14.9162
  45   2.0000      -0.539431       -14.6787
  46   2.0000      -0.519899       -14.1472
  47   2.0000      -0.513526       -13.9738
  48   2.0000      -0.501717       -13.6524
  49   2.0000      -0.495590       -13.4857
  50   2.0000      -0.488665       -13.2972
  51   2.0000      -0.479333       -13.0433
  52   2.0000      -0.471275       -12.8240
  53   2.0000      -0.466189       -12.6857
  54   2.0000      -0.461280       -12.5521
  55   2.0000      -0.446607       -12.1528
  56   2.0000      -0.443109       -12.0576
  57   2.0000      -0.435331       -11.8460
  58   2.0000      -0.426439       -11.6040
  59   2.0000      -0.425113       -11.5679
  60   2.0000      -0.412483       -11.2242
  61   2.0000      -0.411805       -11.2058
  62   2.0000      -0.400567       -10.9000
  63   2.0000      -0.338284        -9.2052
  64   2.0000      -0.330058        -8.9813
  65   2.0000      -0.319813        -8.7026
  66   2.0000      -0.307669        -8.3721
  67   0.0000       0.041913         1.1405
  68   0.0000       0.049912         1.3582
  69   0.0000       0.113779         3.0961
  70   0.0000       0.117773         3.2048
  71   0.0000       0.126131         3.4322

MULLIKEN ATOMIC CHARGES
-----------------------
   0 S :    0.147215
   1 C :   -0.091636
   2 C :   -0.115654
   3 C :    0.044588
   4 C :   -0.168658
   5 H :    0.018311
   6 C :    0.029816
   7 H :    0.027632
   8 H :    0.033582
   9 C :   -0.068212
  10 H :    0.031237
  11 H :    0.029404
  12 C :   -0.038781
  13 H :    0.045829
  14 H :    0.035087
  15 H :    0.025769
  16 S :    0.112836
  17 C :   -0.085864
  18 C :   -0.028955
  19 C :   -0.010521
  20 C :   -0.206584
  21 H :    0.008124
  22 C :    0.103514
  23 H :    0.030580
  24 H :    0.010404
  25 C :   -0.139896
  26 H :    0.031081
  27 H :    0.037900
  28 C :   -0.004809
  29 H :    0.026722
  30 H :    0.018982
  31 H :    0.023243
  32 H :    0.033248
  33 H :    0.054464
Sum of atomic charges:    0.0000000

LOEWDIN ATOMIC CHARGES
----------------------
   0 S :    0.424501
   1 C :   -0.214527
   2 C :   -0.069785
   3 C :   -0.048668
   4 C :   -0.201481
   5 H :    0.029698
   6 C :   -0.034827
   7 H :    0.027497
   8 H :    0.036196
   9 C :   -0.047581
  10 H :    0.023193
  11 H :    0.030153
  12 C :   -0.068192
  13 H :    0.029762
  14 H :    0.024259
  15 H :    0.031008
  16 S :    0.397691
  17 C :   -0.174669
  18 C :   -0.066898
  19 C :   -0.046389
  20 C :   -0.202166
  21 H :    0.025525
  22 C :   -0.030591
  23 H :    0.033200
  24 H :    0.019519
  25 C :   -0.049052
  26 H :    0.024058
  27 H :    0.030158
  28 C :   -0.066132
  29 H :    0.023621
  30 H :    0.019547
  31 H :    0.028756
  32 H :    0.033501
  33 H :    0.029115

  Mayer bond orders larger than 0.100000
B(  0-S ,  1-C ) :   1.1262 B(  0-S ,  4-C ) :   1.1494 B(  1-C ,  2-C ) :   1.6550
B(  1-C , 32-H ) :   0.9562 B(  2-C ,  3-C ) :   1.2266 B(  2-C ,  6-C ) :   1.0063
B(  3-C ,  4-C ) :   1.5651 B(  3-C ,  5-H ) :   0.9931 B(  4-C , 20-C ) :   1.0489
B(  6-C ,  7-H ) :   0.9481 B(  6-C ,  8-H ) :   0.9452 B(  6-C ,  9-C ) :   1.0631
B(  9-C , 10-H ) :   0.9589 B(  9-C , 11-H ) :   0.9568 B(  9-C , 12-C ) :   1.0756
B( 12-C , 13-H ) :   0.9711 B( 12-C , 14-H ) :   0.9697 B( 12-C , 15-H ) :   0.9751
B( 16-S , 17-C ) :   1.1623 B( 16-S , 20-C ) :   1.1309 B( 17-C , 18-C ) :   1.6031
B( 17-C , 20-C ) :   0.1042 B( 17-C , 33-H ) :   0.9638 B( 18-C , 19-C ) :   1.2412
B( 18-C , 21-H ) :   0.9938 B( 19-C , 20-C ) :   1.6141 B( 19-C , 22-C ) :   1.0196
B( 22-C , 23-H ) :   0.9373 B( 22-C , 24-H ) :   0.9403 B( 22-C , 25-C ) :   1.0701
B( 25-C , 26-H ) :   0.9532 B( 25-C , 27-H ) :   0.9620 B( 25-C , 28-C ) :   1.0820
B( 28-C , 29-H ) :   0.9751 B( 28-C , 30-H ) :   0.9684 B( 28-C , 31-H ) :   0.9740

Dispersion correction           -0.015129802
FINAL SINGLE POINT ENERGY     -1339.864432664835

DIPOLE MOMENT
-------------
                                X             Y             Z
Electronic contribution:    -10.15378      13.01340     -14.11098
Nuclear contribution   :     10.44840     -13.37784      14.46817
                        -----------------------------------------
Total Dipole Moment    :      0.29463      -0.36444       0.35719
                        -----------------------------------------
Magnitude (a.u.)       :      0.58925
Magnitude (Debye)      :      1.49774

Rotational constants in cm-1:     0.019930     0.008178     0.007672
Rotational constants in MHz :   597.475067   245.162650   230.006490

                             ****ORCA TERMINATED NORMALLY****
TOTAL RUN TIME: 0 days 0 hours 0 minutes 35 seconds 172 msec
