                         Program Version 4.2.1 -  RELEASE  -
|  1> ! wB97X-D3 SP def2-SVP
|  2> %pal
|  3> nprocs 16
|  4> end
|  5>
|  6> * xyz 0 1
|  7> S 	 -10.9219 	 -5.3776 	 84.5709
|  8> C 	 -10.2299 	 -5.55309 	 86.1509
|  9> C 	 -11.0678 	 -6.22578 	 87.0037
| 10> C 	 -12.3313 	 -6.50418 	 86.4128
| 11> C 	 -12.3935 	 -6.23786 	 85.0602
| 12> H 	 -13.1483 	 -6.98137 	 86.8554
| 13> C 	 -10.7869 	 -6.46343 	 88.4428
| 14> H 	 -9.6615 	 -6.31489 	 88.5126
| 15> H 	 -11.1178 	 -7.51204 	 88.6015
| 16> C 	 -11.3183 	 -5.45561 	 89.4618
| 17> H 	 -10.8558 	 -4.47165 	 89.3798
| 18> H 	 -12.4478 	 -5.28234 	 89.5107
| 19> C 	 -10.8824 	 -5.99566 	 90.8787
| 20> H 	 -9.80696 	 -5.87675 	 91.1232
| 21> H 	 -11.4937 	 -5.4587 	 91.6038
| 22> H 	 -11.0735 	 -7.04696 	 91.0173
| 23> S 	 -14.0022 	 -5.09754 	 83.1059
| 24> C 	 -15.4217 	 -6.01477 	 82.6611
| 25> C 	 -15.4547 	 -7.27293 	 83.1429
| 26> C 	 -14.3714 	 -7.51473 	 84.062
| 27> C 	 -13.5434 	 -6.42842 	 84.2189
| 28> H 	 -16.2619 	 -7.92008 	 82.7986
| 29> C 	 -14.1733 	 -8.86396 	 84.7179
| 30> H 	 -13.9161 	 -8.68241 	 85.7864
| 31> H 	 -13.289 	 -9.38373 	 84.32
| 32> C 	 -15.2313 	 -9.95305 	 84.5341
| 33> H 	 -15.43 	 -10.1814 	 83.5476
| 34> H 	 -16.2411 	 -9.74696 	 84.8985
| 35> C 	 -14.8011 	 -11.3612 	 85.1031
| 36> H 	 -15.537 	 -12.138 	 85.0747
| 37> H 	 -14.674 	 -11.3765 	 86.1932
| 38> H 	 -13.8407 	 -11.6268 	 84.5727
| 39> H 	 -9.27362 	 -5.08653 	 86.4197
| 40> H 	 -16.1968 	 -5.66685 	 81.9866
| 41> *
| 42>
| 43>                          ****END OF INPUT****

CARTESIAN COORDINATES (ANGSTROEM)
---------------------------------
  S    -10.921900   -5.377600   84.570900
  C    -10.229900   -5.553090   86.150900
  C    -11.067800   -6.225780   87.003700
  C    -12.331300   -6.504180   86.412800
  C    -12.393500   -6.237860   85.060200
  H    -13.148300   -6.981370   86.855400
  C    -10.786900   -6.463430   88.442800
  H     -9.661500   -6.314890   88.512600
  H    -11.117800   -7.512040   88.601500
  C    -11.318300   -5.455610   89.461800
  H    -10.855800   -4.471650   89.379800
  H    -12.447800   -5.282340   89.510700
  C    -10.882400   -5.995660   90.878700
  H     -9.806960   -5.876750   91.123200
  H    -11.493700   -5.458700   91.603800
  H    -11.073500   -7.046960   91.017300
  S    -14.002200   -5.097540   83.105900
  C    -15.421700   -6.014770   82.661100
  C    -15.454700   -7.272930   83.142900
  C    -14.371400   -7.514730   84.062000
  C    -13.543400   -6.428420   84.218900
  H    -16.261900   -7.920080   82.798600
  C    -14.173300   -8.863960   84.717900
  H    -13.916100   -8.682410   85.786400
  H    -13.289000   -9.383730   84.320000
  C    -15.231300   -9.953050   84.534100
  H    -15.430000  -10.181400   83.547600
  H    -16.241100   -9.746960   84.898500
  C    -14.801100  -11.361200   85.103100
  H    -15.537000  -12.138000   85.074700
  H    -14.674000  -11.376500   86.193200
  H    -13.840700  -11.626800   84.572700
  H     -9.273620   -5.086530   86.419700
  H    -16.196800   -5.666850   81.986600

 Total Charge           Charge          ....    0
 Multiplicity           Mult            ....    1
 Number of Electrons    NEL             ....  134
 Basis Dimension        Dim             ....  322

ORBITAL ENERGIES
----------------

  NO   OCC          E(Eh)            E(eV)
   0   2.0000     -88.964684     -2420.8521
   1   2.0000     -88.963791     -2420.8278
   2   2.0000     -10.327478      -281.0250
   3   2.0000     -10.326142      -280.9886
   4   2.0000     -10.313637      -280.6483
   5   2.0000     -10.311811      -280.5986
   6   2.0000     -10.307033      -280.4686
   7   2.0000     -10.297328      -280.2045
   8   2.0000     -10.297217      -280.2015
   9   2.0000     -10.296636      -280.1857
  10   2.0000     -10.294607      -280.1305
  11   2.0000     -10.292138      -280.0633
  12   2.0000     -10.286817      -279.9185
  13   2.0000     -10.286034      -279.8972
  14   2.0000     -10.284885      -279.8659
  15   2.0000     -10.278884      -279.7027
  16   2.0000      -8.079108      -219.8437
  17   2.0000      -8.078543      -219.8283
  18   2.0000      -6.037670      -164.2934
  19   2.0000      -6.037097      -164.2778
  20   2.0000      -6.033891      -164.1905
  21   2.0000      -6.033055      -164.1678
  22   2.0000      -6.029597      -164.0737
  23   2.0000      -6.029269      -164.0648
  24   2.0000      -1.006663       -27.3927
  25   2.0000      -0.984919       -26.8010
  26   2.0000      -0.911253       -24.7965
  27   2.0000      -0.908019       -24.7084
  28   2.0000      -0.873349       -23.7650
  29   2.0000      -0.852420       -23.1955
  30   2.0000      -0.844713       -22.9858
  31   2.0000      -0.817474       -22.2446
  32   2.0000      -0.780886       -21.2490
  33   2.0000      -0.767021       -20.8717
  34   2.0000      -0.712508       -19.3883
  35   2.0000      -0.702853       -19.1256
  36   2.0000      -0.698986       -19.0204
  37   2.0000      -0.656140       -17.8545
  38   2.0000      -0.641585       -17.4584
  39   2.0000      -0.621194       -16.9035
  40   2.0000      -0.601388       -16.3646
  41   2.0000      -0.569642       -15.5007
  42   2.0000      -0.567884       -15.4529
  43   2.0000      -0.559499       -15.2248
  44   2.0000      -0.530010       -14.4223
  45   2.0000      -0.520617       -14.1667
  46   2.0000      -0.515480       -14.0269
  47   2.0000      -0.507118       -13.7994
  48   2.0000      -0.505640       -13.7592
  49   2.0000      -0.498695       -13.5702
  50   2.0000      -0.494612       -13.4591
  51   2.0000      -0.470293       -12.7973
  52   2.0000      -0.467964       -12.7339
  53   2.0000      -0.463653       -12.6166
  54   2.0000      -0.458873       -12.4866
  55   2.0000      -0.456636       -12.4257
  56   2.0000      -0.444356       -12.0915
  57   2.0000      -0.441615       -12.0169
  58   2.0000      -0.430890       -11.7251
  59   2.0000      -0.423992       -11.5374
  60   2.0000      -0.423499       -11.5240
  61   2.0000      -0.418494       -11.3878
  62   2.0000      -0.411315       -11.1924
  63   2.0000      -0.353863        -9.6291
  64   2.0000      -0.332932        -9.0595
  65   2.0000      -0.327457        -8.9106
  66   2.0000      -0.286690        -7.8012
  67   0.0000       0.026778         0.7287
  68   0.0000       0.073397         1.9972
  69   0.0000       0.107067         2.9134
  70   0.0000       0.123978         3.3736
  71   0.0000       0.135841         3.6964

MULLIKEN ATOMIC CHARGES
-----------------------
   0 S :    0.102713
   1 C :   -0.135489
   2 C :   -0.055705
   3 C :    0.027241
   4 C :   -0.146915
   5 H :   -0.007046
   6 C :    0.031219
   7 H :    0.031314
   8 H :    0.040699
   9 C :   -0.082432
  10 H :    0.035463
  11 H :    0.046441
  12 C :   -0.057327
  13 H :    0.037569
  14 H :    0.030889
  15 H :    0.022680
  16 S :    0.101668
  17 C :   -0.071283
  18 C :   -0.053842
  19 C :   -0.018227
  20 C :   -0.147938
  21 H :    0.026257
  22 C :    0.074678
  23 H :    0.025208
  24 H :    0.034717
  25 C :   -0.061048
  26 H :    0.015327
  27 H :    0.021779
  28 C :   -0.069707
  29 H :    0.025688
  30 H :    0.025585
  31 H :    0.045199
  32 H :    0.055468
  33 H :    0.049157
Sum of atomic charges:   -0.0000000

LOEWDIN ATOMIC CHARGES
----------------------
   0 S :    0.394747
   1 C :   -0.202962
   2 C :   -0.072240
   3 C :   -0.054725
   4 C :   -0.182129
   5 H :    0.019911
   6 C :   -0.040274
   7 H :    0.041663
   8 H :    0.036530
   9 C :   -0.039983
  10 H :    0.027194
  11 H :    0.030579
  12 C :   -0.068344
  13 H :    0.026592
  14 H :    0.024610
  15 H :    0.019194
  16 S :    0.380671
  17 C :   -0.175044
  18 C :   -0.077191
  19 C :   -0.049193
  20 C :   -0.184578
  21 H :    0.038028
  22 C :   -0.035256
  23 H :    0.034462
  24 H :    0.040664
  25 C :   -0.041098
  26 H :    0.014361
  27 H :    0.021139
  28 C :   -0.067686
  29 H :    0.023514
  30 H :    0.023872
  31 H :    0.031461
  32 H :    0.031910
  33 H :    0.029601

  Mayer bond orders larger than 0.100000
B(  0-S ,  1-C ) :   1.1352 B(  0-S ,  4-C ) :   1.1371 B(  1-C ,  2-C ) :   1.6056
B(  1-C , 32-H ) :   0.9643 B(  2-C ,  3-C ) :   1.2376 B(  2-C ,  6-C ) :   1.0312
B(  3-C ,  4-C ) :   1.5724 B(  3-C ,  5-H ) :   0.9976 B(  4-C , 20-C ) :   1.0855
B(  6-C ,  7-H ) :   0.9404 B(  6-C ,  8-H ) :   0.9357 B(  6-C ,  9-C ) :   1.0684
B(  9-C , 10-H ) :   0.9542 B(  9-C , 11-H ) :   0.9599 B(  9-C , 12-C ) :   1.0654
B( 12-C , 13-H ) :   0.9777 B( 12-C , 14-H ) :   0.9764 B( 12-C , 15-H ) :   0.9771
B( 16-S , 17-C ) :   1.1405 B( 16-S , 20-C ) :   1.1075 B( 17-C , 18-C ) :   1.6605
B( 17-C , 33-H ) :   0.9569 B( 18-C , 19-C ) :   1.2020 B( 18-C , 21-H ) :   0.9878
B( 19-C , 20-C ) :   1.6328 B( 19-C , 22-C ) :   1.0357 B( 22-C , 23-H ) :   0.9292
B( 22-C , 24-H ) :   0.9241 B( 22-C , 25-C ) :   1.0742 B( 25-C , 26-H ) :   0.9447
B( 25-C , 27-H ) :   0.9516 B( 25-C , 28-C ) :   1.0808 B( 28-C , 29-H ) :   0.9732
B( 28-C , 30-H ) :   0.9760 B( 28-C , 31-H ) :   0.9751

Dispersion correction           -0.013202903
FINAL SINGLE POINT ENERGY     -1339.873368409904

DIPOLE MOMENT
-------------
                                X             Y             Z
Electronic contribution:      2.31330      18.60069     -23.10879
Nuclear contribution   :     -2.57478     -19.04999      23.53676
                        -----------------------------------------
Total Dipole Moment    :     -0.26148      -0.44930       0.42797
                        -----------------------------------------
Magnitude (a.u.)       :      0.67335
Magnitude (Debye)      :      1.71151

Rotational constants in cm-1:     0.016686     0.008107     0.006143
Rotational constants in MHz :   500.233201   243.041237   184.162227

                             ****ORCA TERMINATED NORMALLY****
TOTAL RUN TIME: 0 days 0 hours 0 minutes 32 seconds 426 msec
