                         Program Version 4.2.1 -  RELEASE  -
|  1> ! wB97X-D3 SP def2-SVP
|  2> %pal
|  3> nprocs 16
|  4> end
|  5>
|  6> * xyz 0 1
|  7> S 	 43.4643 	 23.3921 	 84.5015
|  8> C 	 42.8946 	 22.9799 	 86.1276
|  9> C 	 43.1271 	 24.0014 	 87.0004
| 10> C 	 43.5655 	 25.1855 	 86.313
| 11> C 	 43.5599 	 25.094 	 84.9394
| 12> H 	 43.7642 	 26.0653 	 86.7596
| 13> C 	 43.0946 	 24.0091 	 88.5226
| 14> H 	 44.1152 	 24.2818 	 88.8727
| 15> H 	 42.8016 	 22.9968 	 88.9052
| 16> C 	 42.2076 	 25.0722 	 89.2018
| 17> H 	 42.4779 	 26.0549 	 88.8185
| 18> H 	 41.1565 	 24.9008 	 88.9857
| 19> C 	 42.4548 	 25.1388 	 90.6819
| 20> H 	 41.7414 	 25.8159 	 91.1722
| 21> H 	 42.3921 	 24.1699 	 91.197
| 22> H 	 43.4952 	 25.5655 	 90.9294
| 23> S 	 45.2484 	 26.1218 	 82.9953
| 24> C 	 44.7801 	 27.6295 	 82.2469
| 25> C 	 43.6545 	 28.1679 	 82.7467
| 26> C 	 43.1587 	 27.372 	 83.7978
| 27> C 	 43.7303 	 26.1421 	 83.9491
| 28> H 	 43.2295 	 29.1487 	 82.4815
| 29> C 	 41.8401 	 27.7931 	 84.4399
| 30> H 	 41.9588 	 28.8437 	 84.6786
| 31> H 	 41.7735 	 27.1868 	 85.2946
| 32> C 	 40.5742 	 27.5178 	 83.6392
| 33> H 	 40.7025 	 26.4903 	 83.1653
| 34> H 	 40.3936 	 28.111 	 82.7699
| 35> C 	 39.2816 	 27.4825 	 84.3606
| 36> H 	 38.5789 	 26.9417 	 83.7653
| 37> H 	 39.0474 	 28.5548 	 84.5737
| 38> H 	 39.4161 	 27.0113 	 85.3091
| 39> H 	 42.6338 	 21.9587 	 86.3752
| 40> H 	 45.3591 	 28.0501 	 81.4075
| 41> *
| 42>
| 43>                          ****END OF INPUT****

CARTESIAN COORDINATES (ANGSTROEM)
---------------------------------
  S     43.464300   23.392100   84.501500
  C     42.894600   22.979900   86.127600
  C     43.127100   24.001400   87.000400
  C     43.565500   25.185500   86.313000
  C     43.559900   25.094000   84.939400
  H     43.764200   26.065300   86.759600
  C     43.094600   24.009100   88.522600
  H     44.115200   24.281800   88.872700
  H     42.801600   22.996800   88.905200
  C     42.207600   25.072200   89.201800
  H     42.477900   26.054900   88.818500
  H     41.156500   24.900800   88.985700
  C     42.454800   25.138800   90.681900
  H     41.741400   25.815900   91.172200
  H     42.392100   24.169900   91.197000
  H     43.495200   25.565500   90.929400
  S     45.248400   26.121800   82.995300
  C     44.780100   27.629500   82.246900
  C     43.654500   28.167900   82.746700
  C     43.158700   27.372000   83.797800
  C     43.730300   26.142100   83.949100
  H     43.229500   29.148700   82.481500
  C     41.840100   27.793100   84.439900
  H     41.958800   28.843700   84.678600
  H     41.773500   27.186800   85.294600
  C     40.574200   27.517800   83.639200
  H     40.702500   26.490300   83.165300
  H     40.393600   28.111000   82.769900
  C     39.281600   27.482500   84.360600
  H     38.578900   26.941700   83.765300
  H     39.047400   28.554800   84.573700
  H     39.416100   27.011300   85.309100
  H     42.633800   21.958700   86.375200
  H     45.359100   28.050100   81.407500

 Total Charge           Charge          ....    0
 Multiplicity           Mult            ....    1
 Number of Electrons    NEL             ....  134
 Basis Dimension        Dim             ....  322

ORBITAL ENERGIES
----------------

  NO   OCC          E(Eh)            E(eV)
   0   2.0000     -88.961881     -2420.7758
   1   2.0000     -88.961362     -2420.7617
   2   2.0000     -10.329888      -281.0905
   3   2.0000     -10.325382      -280.9679
   4   2.0000     -10.317746      -280.7601
   5   2.0000     -10.315669      -280.7036
   6   2.0000     -10.302639      -280.3490
   7   2.0000     -10.301322      -280.3132
   8   2.0000     -10.298648      -280.2404
   9   2.0000     -10.290313      -280.0136
  10   2.0000     -10.287487      -279.9368
  11   2.0000     -10.286715      -279.9157
  12   2.0000     -10.286035      -279.8972
  13   2.0000     -10.283551      -279.8297
  14   2.0000     -10.277324      -279.6602
  15   2.0000     -10.269681      -279.4522
  16   2.0000      -8.076668      -219.7773
  17   2.0000      -8.076159      -219.7635
  18   2.0000      -6.035224      -164.2268
  19   2.0000      -6.034727      -164.2133
  20   2.0000      -6.031302      -164.1201
  21   2.0000      -6.030914      -164.1095
  22   2.0000      -6.027231      -164.0093
  23   2.0000      -6.026588      -163.9918
  24   2.0000      -1.008380       -27.4394
  25   2.0000      -0.987241       -26.8642
  26   2.0000      -0.914376       -24.8814
  27   2.0000      -0.912784       -24.8381
  28   2.0000      -0.874596       -23.7990
  29   2.0000      -0.856636       -23.3102
  30   2.0000      -0.847211       -23.0538
  31   2.0000      -0.817185       -22.2367
  32   2.0000      -0.782065       -21.2811
  33   2.0000      -0.771619       -20.9968
  34   2.0000      -0.706050       -19.2126
  35   2.0000      -0.694681       -18.9032
  36   2.0000      -0.690002       -18.7759
  37   2.0000      -0.664212       -18.0741
  38   2.0000      -0.648171       -17.6376
  39   2.0000      -0.624633       -16.9971
  40   2.0000      -0.598820       -16.2947
  41   2.0000      -0.574642       -15.6368
  42   2.0000      -0.569213       -15.4891
  43   2.0000      -0.561346       -15.2750
  44   2.0000      -0.535873       -14.5818
  45   2.0000      -0.528062       -14.3693
  46   2.0000      -0.517147       -14.0723
  47   2.0000      -0.512824       -13.9547
  48   2.0000      -0.501753       -13.6534
  49   2.0000      -0.497901       -13.5486
  50   2.0000      -0.494501       -13.4560
  51   2.0000      -0.484323       -13.1791
  52   2.0000      -0.470439       -12.8013
  53   2.0000      -0.468625       -12.7519
  54   2.0000      -0.458059       -12.4644
  55   2.0000      -0.449013       -12.2183
  56   2.0000      -0.446865       -12.1598
  57   2.0000      -0.435468       -11.8497
  58   2.0000      -0.431795       -11.7497
  59   2.0000      -0.424892       -11.5619
  60   2.0000      -0.422471       -11.4960
  61   2.0000      -0.417510       -11.3610
  62   2.0000      -0.400396       -10.8953
  63   2.0000      -0.344358        -9.3705
  64   2.0000      -0.331929        -9.0323
  65   2.0000      -0.326463        -8.8835
  66   2.0000      -0.298544        -8.1238
  67   0.0000       0.030065         0.8181
  68   0.0000       0.063933         1.7397
  69   0.0000       0.104935         2.8554
  70   0.0000       0.114440         3.1141
  71   0.0000       0.134353         3.6559

MULLIKEN ATOMIC CHARGES
-----------------------
   0 S :    0.092869
   1 C :   -0.128479
   2 C :   -0.044753
   3 C :    0.085322
   4 C :   -0.174779
   5 H :   -0.035632
   6 C :    0.043397
   7 H :    0.037252
   8 H :    0.026267
   9 C :   -0.067322
  10 H :    0.025098
  11 H :    0.034233
  12 C :   -0.076585
  13 H :    0.038655
  14 H :    0.032726
  15 H :    0.036958
  16 S :    0.085900
  17 C :   -0.082063
  18 C :   -0.016491
  19 C :   -0.082389
  20 C :   -0.124648
  21 H :    0.027571
  22 C :    0.128588
  23 H :    0.020365
  24 H :   -0.004635
  25 C :   -0.102970
  26 H :    0.027607
  27 H :    0.012906
  28 C :   -0.007257
  29 H :    0.037499
  30 H :    0.027705
  31 H :    0.017388
  32 H :    0.045479
  33 H :    0.064216
Sum of atomic charges:    0.0000000

LOEWDIN ATOMIC CHARGES
----------------------
   0 S :    0.382566
   1 C :   -0.181990
   2 C :   -0.064067
   3 C :   -0.043739
   4 C :   -0.185436
   5 H :    0.008574
   6 C :   -0.030997
   7 H :    0.038269
   8 H :    0.031096
   9 C :   -0.044318
  10 H :    0.022779
  11 H :    0.024361
  12 C :   -0.072190
  13 H :    0.028458
  14 H :    0.023499
  15 H :    0.031645
  16 S :    0.380292
  17 C :   -0.170460
  18 C :   -0.076837
  19 C :   -0.051319
  20 C :   -0.189823
  21 H :    0.039992
  22 C :   -0.023755
  23 H :    0.027885
  24 H :    0.021102
  25 C :   -0.049467
  26 H :    0.030601
  27 H :    0.016078
  28 C :   -0.056796
  29 H :    0.028022
  30 H :    0.028309
  31 H :    0.018646
  32 H :    0.026188
  33 H :    0.032833

  Mayer bond orders larger than 0.100000
B(  0-S ,  1-C ) :   1.1234 B(  0-S ,  4-C ) :   1.1390 B(  1-C ,  2-C ) :   1.6331
B(  1-C , 32-H ) :   0.9724 B(  2-C ,  3-C ) :   1.2015 B(  2-C ,  6-C ) :   1.0257
B(  3-C ,  4-C ) :   1.5908 B(  3-C ,  5-H ) :   1.0151 B(  4-C , 20-C ) :   1.0237
B(  6-C ,  7-H ) :   0.9412 B(  6-C ,  8-H ) :   0.9437 B(  6-C ,  9-C ) :   1.0603
B(  9-C , 10-H ) :   0.9523 B(  9-C , 11-H ) :   0.9540 B(  9-C , 12-C ) :   1.0912
B( 12-C , 13-H ) :   0.9725 B( 12-C , 14-H ) :   0.9733 B( 12-C , 15-H ) :   0.9715
B( 16-S , 17-C ) :   1.1563 B( 16-S , 20-C ) :   1.1124 B( 17-C , 18-C ) :   1.6204
B( 17-C , 33-H ) :   0.9598 B( 18-C , 19-C ) :   1.2164 B( 18-C , 21-H ) :   0.9912
B( 19-C , 20-C ) :   1.6414 B( 19-C , 22-C ) :   1.0615 B( 22-C , 23-H ) :   0.9243
B( 22-C , 24-H ) :   0.9229 B( 22-C , 25-C ) :   1.0658 B( 25-C , 26-H ) :   0.9530
B( 25-C , 27-H ) :   0.9508 B( 25-C , 28-C ) :   1.0964 B( 28-C , 29-H ) :   0.9714
B( 28-C , 30-H ) :   0.9730 B( 28-C , 31-H ) :   0.9733

Dispersion correction           -0.013851371
FINAL SINGLE POINT ENERGY     -1339.870108172788

DIPOLE MOMENT
-------------
                                X             Y             Z
Electronic contribution:     18.84862      -8.94863     -20.72118
Nuclear contribution   :    -19.13860       9.37338      21.19709
                        -----------------------------------------
Total Dipole Moment    :     -0.28998       0.42475       0.47591
                        -----------------------------------------
Magnitude (a.u.)       :      0.70071
Magnitude (Debye)      :      1.78107

Rotational constants in cm-1:     0.016966     0.008681     0.007066
Rotational constants in MHz :   508.636130   260.255306   211.832101

                             ****ORCA TERMINATED NORMALLY****
TOTAL RUN TIME: 0 days 0 hours 0 minutes 30 seconds 351 msec
