                         Program Version 4.2.1 -  RELEASE  -
|  1> ! wB97X-D3 SP def2-SVP
|  2> %pal
|  3> nprocs 16
|  4> end
|  5>
|  6> * xyz 0 1
|  7> S 	 11.8163 	 -13.7556 	 75.8045
|  8> C 	 11.1282 	 -12.3213 	 76.4921
|  9> C 	 11.2188 	 -12.2412 	 77.8899
| 10> C 	 12.0544 	 -13.2933 	 78.3699
| 11> C 	 12.4074 	 -14.1921 	 77.4038
| 12> H 	 12.3062 	 -13.5131 	 79.3204
| 13> C 	 10.8491 	 -10.9778 	 78.6547
| 14> H 	 9.75872 	 -10.8503 	 78.5955
| 15> H 	 11.2304 	 -10.1099 	 78.142
| 16> C 	 11.1972 	 -10.9221 	 80.0967
| 17> H 	 10.9137 	 -11.9566 	 80.549
| 18> H 	 12.2043 	 -10.6912 	 80.1735
| 19> C 	 10.2825 	 -9.89727 	 80.7904
| 20> H 	 10.6059 	 -8.93445 	 80.5435
| 21> H 	 9.17612 	 -10.0374 	 80.7431
| 22> H 	 10.464 	 -9.89964 	 81.8398
| 23> S 	 12.2982 	 -16.8647 	 77.2802
| 24> C 	 13.5939 	 -17.9192 	 77.9855
| 25> C 	 14.504 	 -17.0997 	 78.6512
| 26> C 	 14.2652 	 -15.6754 	 78.4356
| 27> C 	 13.1441 	 -15.3773 	 77.6343
| 28> H 	 15.2317 	 -17.5108 	 79.2722
| 29> C 	 15.2913 	 -14.6438 	 79.0358
| 30> H 	 16.0047 	 -15.2351 	 79.5402
| 31> H 	 14.8192 	 -13.9134 	 79.7082
| 32> C 	 16.1616 	 -13.8829 	 78.0065
| 33> H 	 15.4725 	 -13.4656 	 77.1785
| 34> H 	 16.7824 	 -14.6388 	 77.4886
| 35> C 	 17.0897 	 -12.8409 	 78.6269
| 36> H 	 16.4256 	 -12.0887 	 79.1503
| 37> H 	 17.7978 	 -12.3088 	 77.9993
| 38> H 	 17.7427 	 -13.2583 	 79.4228
| 39> H 	 10.6641 	 -11.5457 	 75.9547
| 40> H 	 13.4309 	 -18.9912 	 78.0298
| 41> *
| 42>
| 43>                          ****END OF INPUT****

CARTESIAN COORDINATES (ANGSTROEM)
---------------------------------
  S     11.816300  -13.755600   75.804500
  C     11.128200  -12.321300   76.492100
  C     11.218800  -12.241200   77.889900
  C     12.054400  -13.293300   78.369900
  C     12.407400  -14.192100   77.403800
  H     12.306200  -13.513100   79.320400
  C     10.849100  -10.977800   78.654700
  H      9.758720  -10.850300   78.595500
  H     11.230400  -10.109900   78.142000
  C     11.197200  -10.922100   80.096700
  H     10.913700  -11.956600   80.549000
  H     12.204300  -10.691200   80.173500
  C     10.282500   -9.897270   80.790400
  H     10.605900   -8.934450   80.543500
  H      9.176120  -10.037400   80.743100
  H     10.464000   -9.899640   81.839800
  S     12.298200  -16.864700   77.280200
  C     13.593900  -17.919200   77.985500
  C     14.504000  -17.099700   78.651200
  C     14.265200  -15.675400   78.435600
  C     13.144100  -15.377300   77.634300
  H     15.231700  -17.510800   79.272200
  C     15.291300  -14.643800   79.035800
  H     16.004700  -15.235100   79.540200
  H     14.819200  -13.913400   79.708200
  C     16.161600  -13.882900   78.006500
  H     15.472500  -13.465600   77.178500
  H     16.782400  -14.638800   77.488600
  C     17.089700  -12.840900   78.626900
  H     16.425600  -12.088700   79.150300
  H     17.797800  -12.308800   77.999300
  H     17.742700  -13.258300   79.422800
  H     10.664100  -11.545700   75.954700
  H     13.430900  -18.991200   78.029800

 Total Charge           Charge          ....    0
 Multiplicity           Mult            ....    1
 Number of Electrons    NEL             ....  134
 Basis Dimension        Dim             ....  322

ORBITAL ENERGIES
----------------

  NO   OCC          E(Eh)            E(eV)
   0   2.0000     -88.970654     -2421.0146
   1   2.0000     -88.960203     -2420.7302
   2   2.0000     -10.325992      -280.9845
   3   2.0000     -10.324362      -280.9402
   4   2.0000     -10.323443      -280.9152
   5   2.0000     -10.311159      -280.5809
   6   2.0000     -10.310053      -280.5508
   7   2.0000     -10.301799      -280.3262
   8   2.0000     -10.298685      -280.2415
   9   2.0000     -10.292687      -280.0782
  10   2.0000     -10.290210      -280.0108
  11   2.0000     -10.288723      -279.9704
  12   2.0000     -10.287246      -279.9302
  13   2.0000     -10.286176      -279.9011
  14   2.0000     -10.283084      -279.8169
  15   2.0000     -10.275952      -279.6229
  16   2.0000      -8.085286      -220.0118
  17   2.0000      -8.074449      -219.7169
  18   2.0000      -6.043608      -164.4549
  19   2.0000      -6.039872      -164.3533
  20   2.0000      -6.036190      -164.2531
  21   2.0000      -6.033067      -164.1681
  22   2.0000      -6.028944      -164.0559
  23   2.0000      -6.025187      -163.9537
  24   2.0000      -1.007049       -27.4032
  25   2.0000      -0.976186       -26.5634
  26   2.0000      -0.921109       -25.0647
  27   2.0000      -0.899883       -24.4870
  28   2.0000      -0.875613       -23.8266
  29   2.0000      -0.854730       -23.2584
  30   2.0000      -0.839236       -22.8368
  31   2.0000      -0.816274       -22.2119
  32   2.0000      -0.782722       -21.2990
  33   2.0000      -0.768880       -20.9223
  34   2.0000      -0.714984       -19.4557
  35   2.0000      -0.693246       -18.8642
  36   2.0000      -0.683999       -18.6126
  37   2.0000      -0.668086       -18.1795
  38   2.0000      -0.649231       -17.6665
  39   2.0000      -0.625652       -17.0248
  40   2.0000      -0.591145       -16.0859
  41   2.0000      -0.584248       -15.8982
  42   2.0000      -0.568426       -15.4677
  43   2.0000      -0.560170       -15.2430
  44   2.0000      -0.524126       -14.2622
  45   2.0000      -0.518780       -14.1167
  46   2.0000      -0.517185       -14.0733
  47   2.0000      -0.509257       -13.8576
  48   2.0000      -0.503008       -13.6875
  49   2.0000      -0.498026       -13.5520
  50   2.0000      -0.494928       -13.4677
  51   2.0000      -0.483363       -13.1530
  52   2.0000      -0.473467       -12.8837
  53   2.0000      -0.467609       -12.7243
  54   2.0000      -0.460061       -12.5189
  55   2.0000      -0.448944       -12.2164
  56   2.0000      -0.446823       -12.1587
  57   2.0000      -0.440266       -11.9802
  58   2.0000      -0.425094       -11.5674
  59   2.0000      -0.423367       -11.5204
  60   2.0000      -0.420331       -11.4378
  61   2.0000      -0.413010       -11.2386
  62   2.0000      -0.408123       -11.1056
  63   2.0000      -0.349332        -9.5058
  64   2.0000      -0.332194        -9.0394
  65   2.0000      -0.324524        -8.8308
  66   2.0000      -0.289339        -7.8733
  67   0.0000       0.027066         0.7365
  68   0.0000       0.061212         1.6657
  69   0.0000       0.105830         2.8798
  70   0.0000       0.118797         3.2326
  71   0.0000       0.137538         3.7426

MULLIKEN ATOMIC CHARGES
-----------------------
   0 S :    0.136070
   1 C :   -0.100368
   2 C :   -0.058786
   3 C :    0.054676
   4 C :   -0.156292
   5 H :   -0.034165
   6 C :    0.050707
   7 H :    0.023996
   8 H :    0.029344
   9 C :   -0.087999
  10 H :    0.047956
  11 H :    0.024109
  12 C :   -0.022968
  13 H :    0.013489
  14 H :    0.047446
  15 H :    0.013767
  16 S :    0.073741
  17 C :   -0.103454
  18 C :   -0.000555
  19 C :   -0.064249
  20 C :   -0.124091
  21 H :    0.005230
  22 C :    0.086568
  23 H :    0.000067
  24 H :    0.031161
  25 C :   -0.100513
  26 H :    0.051125
  27 H :    0.027806
  28 C :   -0.059962
  29 H :    0.031666
  30 H :    0.040970
  31 H :    0.027250
  32 H :    0.025634
  33 H :    0.070627
Sum of atomic charges:    0.0000000

LOEWDIN ATOMIC CHARGES
----------------------
   0 S :    0.417766
   1 C :   -0.189803
   2 C :   -0.057024
   3 C :   -0.042253
   4 C :   -0.198154
   5 H :    0.012245
   6 C :   -0.038499
   7 H :    0.033200
   8 H :    0.030445
   9 C :   -0.037026
  10 H :    0.035889
  11 H :    0.017203
  12 C :   -0.062323
  13 H :    0.017296
  14 H :    0.034608
  15 H :    0.022733
  16 S :    0.382062
  17 C :   -0.166930
  18 C :   -0.060097
  19 C :   -0.055803
  20 C :   -0.199358
  21 H :    0.022444
  22 C :   -0.026448
  23 H :    0.021257
  24 H :    0.026500
  25 C :   -0.049330
  26 H :    0.032366
  27 H :    0.023477
  28 C :   -0.075472
  29 H :    0.028959
  30 H :    0.026875
  31 H :    0.026466
  32 H :    0.016431
  33 H :    0.030296

  Mayer bond orders larger than 0.100000
B(  0-S ,  1-C ) :   1.1514 B(  0-S ,  4-C ) :   1.1348 B(  1-C ,  2-C ) :   1.6070
B(  1-C ,  4-C ) :   0.1008 B(  1-C , 32-H ) :   0.9749 B(  2-C ,  3-C ) :   1.2379
B(  2-C ,  6-C ) :   1.0088 B(  3-C ,  4-C ) :   1.5802 B(  3-C ,  5-H ) :   1.0083
B(  4-C , 20-C ) :   1.0485 B(  6-C ,  7-H ) :   0.9336 B(  6-C ,  8-H ) :   0.9392
B(  6-C ,  9-C ) :   1.0872 B(  9-C , 10-H ) :   0.9531 B(  9-C , 11-H ) :   0.9481
B(  9-C , 12-C ) :   1.0907 B( 12-C , 13-H ) :   0.9702 B( 12-C , 14-H ) :   0.9741
B( 12-C , 15-H ) :   0.9685 B( 16-S , 17-C ) :   1.1443 B( 16-S , 20-C ) :   1.1483
B( 17-C , 18-C ) :   1.5889 B( 17-C , 20-C ) :   0.1032 B( 17-C , 33-H ) :   0.9709
B( 18-C , 19-C ) :   1.2520 B( 18-C , 21-H ) :   0.9978 B( 19-C , 20-C ) :   1.5748
B( 19-C , 22-C ) :   1.0354 B( 22-C , 23-H ) :   0.9336 B( 22-C , 24-H ) :   0.9421
B( 22-C , 25-C ) :   1.0558 B( 25-C , 26-H ) :   0.9594 B( 25-C , 27-H ) :   0.9544
B( 25-C , 28-C ) :   1.0722 B( 28-C , 29-H ) :   0.9743 B( 28-C , 30-H ) :   0.9751
B( 28-C , 31-H ) :   0.9728

Dispersion correction           -0.013866527
FINAL SINGLE POINT ENERGY     -1339.856333833819

DIPOLE MOMENT
-------------
                                X             Y             Z
Electronic contribution:     -9.09258     -21.51983     -17.95409
Nuclear contribution   :      9.27856      21.97938      18.56856
                        -----------------------------------------
Total Dipole Moment    :      0.18598       0.45954       0.61447
                        -----------------------------------------
Magnitude (a.u.)       :      0.78952
Magnitude (Debye)      :      2.00680

Rotational constants in cm-1:     0.016368     0.008780     0.007148
Rotational constants in MHz :   490.686755   263.227708   214.277710

                             ****ORCA TERMINATED NORMALLY****
TOTAL RUN TIME: 0 days 0 hours 0 minutes 28 seconds 333 msec
