                         Program Version 4.2.1 -  RELEASE  -
|  1> ! wB97X-D3 SP def2-SVP
|  2> %pal
|  3> nprocs 16
|  4> end
|  5>
|  6> * xyz 0 1
|  7> S 	 11.978 	 -7.95329 	 87.5987
|  8> C 	 12.4966 	 -7.83332 	 89.2845
|  9> C 	 11.3799 	 -8.01086 	 90.1865
| 10> C 	 10.1716 	 -8.22983 	 89.4494
| 11> C 	 10.3408 	 -8.17023 	 88.0896
| 12> H 	 9.24571 	 -8.44998 	 89.8964
| 13> C 	 11.5355 	 -8.01646 	 91.7069
| 14> H 	 12.1346 	 -8.86959 	 91.9343
| 15> H 	 10.5481 	 -8.28489 	 92.0421
| 16> C 	 12.0096 	 -6.73373 	 92.3973
| 17> H 	 12.9314 	 -6.42121 	 91.9896
| 18> H 	 11.2455 	 -6.04769 	 92.2024
| 19> C 	 12.1764 	 -6.57802 	 93.9532
| 20> H 	 12.9626 	 -5.85819 	 94.2659
| 21> H 	 11.2449 	 -6.36689 	 94.4643
| 22> H 	 12.3966 	 -7.54696 	 94.3598
| 23> S 	 9.45146 	 -9.8148 	 86.0574
| 24> C 	 7.90631 	 -9.517 	 85.2814
| 25> C 	 7.38109 	 -8.31643 	 85.7379
| 26> C 	 8.16576 	 -7.66147 	 86.7429
| 27> C 	 9.27137 	 -8.40926 	 87.0888
| 28> H 	 6.49653 	 -7.94586 	 85.3121
| 29> C 	 7.70579 	 -6.37692 	 87.3766
| 30> H 	 7.39418 	 -5.71412 	 86.568
| 31> H 	 8.50116 	 -5.84358 	 87.9153
| 32> C 	 6.55946 	 -6.68033 	 88.3777
| 33> H 	 6.86261 	 -7.3395 	 89.1914
| 34> H 	 5.76352 	 -7.2052 	 87.9079
| 35> C 	 5.86771 	 -5.41801 	 89.0053
| 36> H 	 5.40527 	 -4.82423 	 88.2254
| 37> H 	 6.6022 	 -4.78826 	 89.6606
| 38> H 	 5.11804 	 -5.77086 	 89.8069
| 39> H 	 13.5417 	 -7.81792 	 89.6421
| 40> H 	 7.43679 	 -10.0475 	 84.4216
| 41> *
| 42>
| 43>                          ****END OF INPUT****

CARTESIAN COORDINATES (ANGSTROEM)
---------------------------------
  S     11.978000   -7.953290   87.598700
  C     12.496600   -7.833320   89.284500
  C     11.379900   -8.010860   90.186500
  C     10.171600   -8.229830   89.449400
  C     10.340800   -8.170230   88.089600
  H      9.245710   -8.449980   89.896400
  C     11.535500   -8.016460   91.706900
  H     12.134600   -8.869590   91.934300
  H     10.548100   -8.284890   92.042100
  C     12.009600   -6.733730   92.397300
  H     12.931400   -6.421210   91.989600
  H     11.245500   -6.047690   92.202400
  C     12.176400   -6.578020   93.953200
  H     12.962600   -5.858190   94.265900
  H     11.244900   -6.366890   94.464300
  H     12.396600   -7.546960   94.359800
  S      9.451460   -9.814800   86.057400
  C      7.906310   -9.517000   85.281400
  C      7.381090   -8.316430   85.737900
  C      8.165760   -7.661470   86.742900
  C      9.271370   -8.409260   87.088800
  H      6.496530   -7.945860   85.312100
  C      7.705790   -6.376920   87.376600
  H      7.394180   -5.714120   86.568000
  H      8.501160   -5.843580   87.915300
  C      6.559460   -6.680330   88.377700
  H      6.862610   -7.339500   89.191400
  H      5.763520   -7.205200   87.907900
  C      5.867710   -5.418010   89.005300
  H      5.405270   -4.824230   88.225400
  H      6.602200   -4.788260   89.660600
  H      5.118040   -5.770860   89.806900
  H     13.541700   -7.817920   89.642100
  H      7.436790  -10.047500   84.421600

 Total Charge           Charge          ....    0
 Multiplicity           Mult            ....    1
 Number of Electrons    NEL             ....  134
 Basis Dimension        Dim             ....  322

ORBITAL ENERGIES
----------------

  NO   OCC          E(Eh)            E(eV)
   0   2.0000     -88.971730     -2421.0438
   1   2.0000     -88.964764     -2420.8543
   2   2.0000     -10.327465      -281.0246
   3   2.0000     -10.325180      -280.9624
   4   2.0000     -10.320521      -280.8356
   5   2.0000     -10.320034      -280.8224
   6   2.0000     -10.309059      -280.5238
   7   2.0000     -10.301818      -280.3267
   8   2.0000     -10.293416      -280.0981
   9   2.0000     -10.292544      -280.0744
  10   2.0000     -10.292420      -280.0710
  11   2.0000     -10.291795      -280.0540
  12   2.0000     -10.289715      -279.9974
  13   2.0000     -10.286477      -279.9093
  14   2.0000     -10.280982      -279.7598
  15   2.0000     -10.280870      -279.7567
  16   2.0000      -8.086095      -220.0338
  17   2.0000      -8.079291      -219.8487
  18   2.0000      -6.044507      -164.4794
  19   2.0000      -6.040589      -164.3728
  20   2.0000      -6.037836      -164.2979
  21   2.0000      -6.037052      -164.2765
  22   2.0000      -6.033791      -164.1878
  23   2.0000      -6.030060      -164.0863
  24   2.0000      -1.004927       -27.3454
  25   2.0000      -0.981071       -26.6963
  26   2.0000      -0.909317       -24.7438
  27   2.0000      -0.905025       -24.6270
  28   2.0000      -0.862233       -23.4625
  29   2.0000      -0.851731       -23.1768
  30   2.0000      -0.844302       -22.9746
  31   2.0000      -0.814648       -22.1677
  32   2.0000      -0.782423       -21.2908
  33   2.0000      -0.767387       -20.8817
  34   2.0000      -0.708888       -19.2898
  35   2.0000      -0.698549       -19.0085
  36   2.0000      -0.691475       -18.8160
  37   2.0000      -0.662006       -18.0141
  38   2.0000      -0.641401       -17.4534
  39   2.0000      -0.619546       -16.8587
  40   2.0000      -0.592807       -16.1311
  41   2.0000      -0.573712       -15.6115
  42   2.0000      -0.563838       -15.3428
  43   2.0000      -0.556415       -15.1408
  44   2.0000      -0.524163       -14.2632
  45   2.0000      -0.522404       -14.2153
  46   2.0000      -0.517958       -14.0943
  47   2.0000      -0.507880       -13.8201
  48   2.0000      -0.503807       -13.7093
  49   2.0000      -0.502238       -13.6666
  50   2.0000      -0.490998       -13.3607
  51   2.0000      -0.477181       -12.9847
  52   2.0000      -0.468946       -12.7607
  53   2.0000      -0.464439       -12.6380
  54   2.0000      -0.456354       -12.4180
  55   2.0000      -0.452535       -12.3141
  56   2.0000      -0.444372       -12.0920
  57   2.0000      -0.440449       -11.9852
  58   2.0000      -0.437268       -11.8987
  59   2.0000      -0.423381       -11.5208
  60   2.0000      -0.421916       -11.4809
  61   2.0000      -0.416516       -11.3340
  62   2.0000      -0.410875       -11.1805
  63   2.0000      -0.340507        -9.2657
  64   2.0000      -0.329359        -8.9623
  65   2.0000      -0.327092        -8.9006
  66   2.0000      -0.299091        -8.1387
  67   0.0000       0.036220         0.9856
  68   0.0000       0.062092         1.6896
  69   0.0000       0.112781         3.0689
  70   0.0000       0.125629         3.4185
  71   0.0000       0.128460         3.4956

MULLIKEN ATOMIC CHARGES
-----------------------
   0 S :    0.133880
   1 C :   -0.138226
   2 C :   -0.134698
   3 C :    0.058152
   4 C :   -0.154378
   5 H :   -0.005784
   6 C :    0.116661
   7 H :    0.028133
   8 H :   -0.001110
   9 C :   -0.046189
  10 H :    0.020220
  11 H :    0.021217
  12 C :   -0.052931
  13 H :    0.050463
  14 H :    0.026659
  15 H :    0.012312
  16 S :    0.109486
  17 C :   -0.099682
  18 C :   -0.031681
  19 C :   -0.014640
  20 C :   -0.191055
  21 H :   -0.002720
  22 C :    0.095001
  23 H :    0.025453
  24 H :    0.033374
  25 C :   -0.074540
  26 H :    0.025898
  27 H :    0.019095
  28 C :   -0.094561
  29 H :    0.043273
  30 H :    0.041809
  31 H :    0.045819
  32 H :    0.063166
  33 H :    0.072125
Sum of atomic charges:   -0.0000000

LOEWDIN ATOMIC CHARGES
----------------------
   0 S :    0.424776
   1 C :   -0.207530
   2 C :   -0.052082
   3 C :   -0.058247
   4 C :   -0.205512
   5 H :    0.024411
   6 C :   -0.029211
   7 H :    0.028375
   8 H :    0.025516
   9 C :   -0.034435
  10 H :    0.018325
  11 H :    0.021977
  12 C :   -0.066597
  13 H :    0.035308
  14 H :    0.023363
  15 H :    0.019518
  16 S :    0.402386
  17 C :   -0.193256
  18 C :   -0.066808
  19 C :   -0.054487
  20 C :   -0.201253
  21 H :    0.020688
  22 C :   -0.028324
  23 H :    0.032581
  24 H :    0.033784
  25 C :   -0.038867
  26 H :    0.023777
  27 H :    0.018421
  28 C :   -0.078498
  29 H :    0.021414
  30 H :    0.030786
  31 H :    0.034853
  32 H :    0.032624
  33 H :    0.042227

  Mayer bond orders larger than 0.100000
B(  0-S ,  1-C ) :   1.1524 B(  0-S ,  4-C ) :   1.1733 B(  1-C ,  2-C ) :   1.5690
B(  1-C ,  4-C ) :   0.1032 B(  1-C , 32-H ) :   0.9661 B(  2-C ,  3-C ) :   1.2740
B(  2-C ,  6-C ) :   1.0167 B(  3-C ,  4-C ) :   1.5584 B(  3-C ,  5-H ) :   0.9993
B(  4-C , 20-C ) :   0.9994 B(  6-C ,  7-H ) :   0.9296 B(  6-C ,  8-H ) :   0.9358
B(  6-C ,  9-C ) :   1.0646 B(  9-C , 10-H ) :   0.9624 B(  9-C , 11-H ) :   0.9603
B(  9-C , 12-C ) :   1.0718 B( 12-C , 13-H ) :   0.9771 B( 12-C , 14-H ) :   0.9779
B( 12-C , 15-H ) :   0.9756 B( 16-S , 17-C ) :   1.1466 B( 16-S , 20-C ) :   1.1461
B( 17-C , 18-C ) :   1.6188 B( 17-C , 33-H ) :   0.9616 B( 18-C , 19-C ) :   1.2300
B( 18-C , 21-H ) :   0.9943 B( 19-C , 20-C ) :   1.6098 B( 19-C , 22-C ) :   1.0574
B( 22-C , 23-H ) :   0.9307 B( 22-C , 24-H ) :   0.9313 B( 22-C , 25-C ) :   1.0563
B( 25-C , 26-H ) :   0.9543 B( 25-C , 27-H ) :   0.9575 B( 25-C , 28-C ) :   1.0778
B( 28-C , 29-H ) :   0.9761 B( 28-C , 30-H ) :   0.9750 B( 28-C , 31-H ) :   0.9740

Dispersion correction           -0.013758675
FINAL SINGLE POINT ENERGY     -1339.874210106079

DIPOLE MOMENT
-------------
                                X             Y             Z
Electronic contribution:      9.44393     -15.18975     -25.64943
Nuclear contribution   :     -9.77780      15.39293      26.05120
                        -----------------------------------------
Total Dipole Moment    :     -0.33387       0.20318       0.40177
                        -----------------------------------------
Magnitude (a.u.)       :      0.56051
Magnitude (Debye)      :      1.42470

Rotational constants in cm-1:     0.018212     0.008081     0.006063
Rotational constants in MHz :   545.977246   242.265434   181.763928

                             ****ORCA TERMINATED NORMALLY****
TOTAL RUN TIME: 0 days 0 hours 0 minutes 30 seconds 480 msec
