                         Program Version 4.2.1 -  RELEASE  -
|  1> ! wB97X-D3 SP def2-SVP
|  2> %pal
|  3> nprocs 16
|  4> end
|  5>
|  6> * xyz 0 1
|  7> S 	 -104.486 	 44.1518 	 130.161
|  8> C 	 -103.904 	 45.2413 	 131.394
|  9> C 	 -104.967 	 45.8488 	 132.027
| 10> C 	 -106.233 	 45.3978 	 131.628
| 11> C 	 -106.211 	 44.479 	 130.648
| 12> H 	 -107.203 	 45.6964 	 132.066
| 13> C 	 -104.691 	 46.8511 	 133.167
| 14> H 	 -104.517 	 47.8405 	 132.832
| 15> H 	 -103.667 	 46.5858 	 133.53
| 16> C 	 -105.732 	 46.9778 	 134.22
| 17> H 	 -105.635 	 47.8157 	 134.931
| 18> H 	 -106.706 	 47.1687 	 133.901
| 19> C 	 -105.918 	 45.6779 	 135.085
| 20> H 	 -106.84 	 45.6505 	 135.744
| 21> H 	 -105.954 	 44.8654 	 134.366
| 22> H 	 -105.072 	 45.3371 	 135.659
| 23> S 	 -107.201 	 43.2844 	 128.391
| 24> C 	 -108.87 	 42.7797 	 128.305
| 25> C 	 -109.517 	 43.0698 	 129.446
| 26> C 	 -108.675 	 43.608 	 130.454
| 27> C 	 -107.355 	 43.7962 	 130.049
| 28> H 	 -110.537 	 42.6559 	 129.558
| 29> C 	 -109.289 	 44.0604 	 131.819
| 30> H 	 -108.544 	 44.0167 	 132.631
| 31> H 	 -109.948 	 43.2512 	 132.114
| 32> C 	 -110.024 	 45.4044 	 131.682
| 33> H 	 -110.86 	 45.2281 	 131.028
| 34> H 	 -109.463 	 46.0786 	 131.047
| 35> C 	 -110.465 	 46.07 	 132.929
| 36> H 	 -110.75 	 47.1423 	 132.609
| 37> H 	 -109.625 	 46.0555 	 133.599
| 38> H 	 -111.342 	 45.6035 	 133.507
| 39> H 	 -102.93 	 45.5634 	 131.623
| 40> H 	 -109.246 	 42.3195 	 127.453
| 41> *
| 42>
| 43>                          ****END OF INPUT****

CARTESIAN COORDINATES (ANGSTROEM)
---------------------------------
  S    -104.486000   44.151800  130.161000
  C    -103.904000   45.241300  131.394000
  C    -104.967000   45.848800  132.027000
  C    -106.233000   45.397800  131.628000
  C    -106.211000   44.479000  130.648000
  H    -107.203000   45.696400  132.066000
  C    -104.691000   46.851100  133.167000
  H    -104.517000   47.840500  132.832000
  H    -103.667000   46.585800  133.530000
  C    -105.732000   46.977800  134.220000
  H    -105.635000   47.815700  134.931000
  H    -106.706000   47.168700  133.901000
  C    -105.918000   45.677900  135.085000
  H    -106.840000   45.650500  135.744000
  H    -105.954000   44.865400  134.366000
  H    -105.072000   45.337100  135.659000
  S    -107.201000   43.284400  128.391000
  C    -108.870000   42.779700  128.305000
  C    -109.517000   43.069800  129.446000
  C    -108.675000   43.608000  130.454000
  C    -107.355000   43.796200  130.049000
  H    -110.537000   42.655900  129.558000
  C    -109.289000   44.060400  131.819000
  H    -108.544000   44.016700  132.631000
  H    -109.948000   43.251200  132.114000
  C    -110.024000   45.404400  131.682000
  H    -110.860000   45.228100  131.028000
  H    -109.463000   46.078600  131.047000
  C    -110.465000   46.070000  132.929000
  H    -110.750000   47.142300  132.609000
  H    -109.625000   46.055500  133.599000
  H    -111.342000   45.603500  133.507000
  H    -102.930000   45.563400  131.623000
  H    -109.246000   42.319500  127.453000

 Total Charge           Charge          ....    0
 Multiplicity           Mult            ....    1
 Number of Electrons    NEL             ....  134
 Basis Dimension        Dim             ....  322

ORBITAL ENERGIES
----------------

  NO   OCC          E(Eh)            E(eV)
   0   2.0000     -88.968681     -2420.9609
   1   2.0000     -88.962955     -2420.8051
   2   2.0000     -10.334583      -281.2183
   3   2.0000     -10.330334      -281.1027
   4   2.0000     -10.311615      -280.5933
   5   2.0000     -10.311119      -280.5798
   6   2.0000     -10.307691      -280.4865
   7   2.0000     -10.299985      -280.2768
   8   2.0000     -10.296434      -280.1802
   9   2.0000     -10.293942      -280.1124
  10   2.0000     -10.293660      -280.1047
  11   2.0000     -10.292753      -280.0801
  12   2.0000     -10.289585      -279.9938
  13   2.0000     -10.285253      -279.8760
  14   2.0000     -10.283709      -279.8340
  15   2.0000     -10.276515      -279.6382
  16   2.0000      -8.082179      -219.9273
  17   2.0000      -8.078374      -219.8237
  18   2.0000      -6.040943      -164.3824
  19   2.0000      -6.036928      -164.2732
  20   2.0000      -6.036859      -164.2713
  21   2.0000      -6.032774      -164.1601
  22   2.0000      -6.032664      -164.1571
  23   2.0000      -6.029144      -164.0614
  24   2.0000      -1.010383       -27.4939
  25   2.0000      -0.989218       -26.9180
  26   2.0000      -0.913991       -24.8710
  27   2.0000      -0.912734       -24.8368
  28   2.0000      -0.876735       -23.8572
  29   2.0000      -0.854486       -23.2517
  30   2.0000      -0.841768       -22.9057
  31   2.0000      -0.824516       -22.4362
  32   2.0000      -0.783389       -21.3171
  33   2.0000      -0.773764       -21.0552
  34   2.0000      -0.716528       -19.4977
  35   2.0000      -0.701001       -19.0752
  36   2.0000      -0.698978       -19.0202
  37   2.0000      -0.664447       -18.0805
  38   2.0000      -0.643553       -17.5120
  39   2.0000      -0.627315       -17.0701
  40   2.0000      -0.600579       -16.3426
  41   2.0000      -0.568916       -15.4810
  42   2.0000      -0.561460       -15.2781
  43   2.0000      -0.554012       -15.0754
  44   2.0000      -0.536036       -14.5863
  45   2.0000      -0.529703       -14.4140
  46   2.0000      -0.522995       -14.2314
  47   2.0000      -0.520129       -14.1534
  48   2.0000      -0.507363       -13.8061
  49   2.0000      -0.501183       -13.6379
  50   2.0000      -0.493065       -13.4170
  51   2.0000      -0.484709       -13.1896
  52   2.0000      -0.472205       -12.8493
  53   2.0000      -0.465507       -12.6671
  54   2.0000      -0.458115       -12.4659
  55   2.0000      -0.449895       -12.2423
  56   2.0000      -0.447536       -12.1781
  57   2.0000      -0.440715       -11.9925
  58   2.0000      -0.433326       -11.7914
  59   2.0000      -0.424450       -11.5499
  60   2.0000      -0.416773       -11.3410
  61   2.0000      -0.410327       -11.1656
  62   2.0000      -0.407333       -11.0841
  63   2.0000      -0.365614        -9.9489
  64   2.0000      -0.338033        -9.1983
  65   2.0000      -0.329077        -8.9546
  66   2.0000      -0.286956        -7.8085
  67   0.0000       0.021667         0.5896
  68   0.0000       0.081193         2.2094
  69   0.0000       0.102546         2.7904
  70   0.0000       0.117867         3.2073
  71   0.0000       0.126924         3.4538

MULLIKEN ATOMIC CHARGES
-----------------------
   0 S :    0.105850
   1 C :   -0.087773
   2 C :   -0.102123
   3 C :   -0.012336
   4 C :   -0.088595
   5 H :    0.008129
   6 C :    0.115879
   7 H :    0.027689
   8 H :    0.019229
   9 C :   -0.054334
  10 H :    0.025653
  11 H :    0.009355
  12 C :   -0.089100
  13 H :    0.045501
  14 H :    0.023800
  15 H :    0.023451
  16 S :    0.082894
  17 C :   -0.069161
  18 C :   -0.029528
  19 C :   -0.090311
  20 C :   -0.112335
  21 H :    0.036109
  22 C :    0.049419
  23 H :    0.024068
  24 H :    0.019650
  25 C :   -0.060476
  26 H :    0.014986
  27 H :    0.029022
  28 C :   -0.047836
  29 H :    0.050420
  30 H :    0.022781
  31 H :    0.048275
  32 H :    0.025910
  33 H :    0.035840
Sum of atomic charges:   -0.0000000

LOEWDIN ATOMIC CHARGES
----------------------
   0 S :    0.376092
   1 C :   -0.188737
   2 C :   -0.062099
   3 C :   -0.069285
   4 C :   -0.160582
   5 H :    0.038948
   6 C :   -0.029434
   7 H :    0.030357
   8 H :    0.035849
   9 C :   -0.043700
  10 H :    0.029852
  11 H :    0.016667
  12 C :   -0.076869
  13 H :    0.030927
  14 H :    0.022017
  15 H :    0.020574
  16 S :    0.404161
  17 C :   -0.166855
  18 C :   -0.079368
  19 C :   -0.056793
  20 C :   -0.193882
  21 H :    0.041905
  22 C :   -0.033105
  23 H :    0.025462
  24 H :    0.028698
  25 C :   -0.053366
  26 H :    0.024760
  27 H :    0.026278
  28 C :   -0.071374
  29 H :    0.041304
  30 H :    0.017549
  31 H :    0.034550
  32 H :    0.022503
  33 H :    0.016997

  Mayer bond orders larger than 0.100000
B(  0-S ,  1-C ) :   1.1258 B(  0-S ,  4-C ) :   1.1185 B(  1-C ,  2-C ) :   1.6349
B(  1-C , 32-H ) :   0.9686 B(  2-C ,  3-C ) :   1.2345 B(  2-C ,  6-C ) :   0.9996
B(  3-C ,  4-C ) :   1.6064 B(  3-C ,  5-H ) :   0.9854 B(  4-C , 20-C ) :   1.0604
B(  6-C ,  7-H ) :   0.9289 B(  6-C ,  8-H ) :   0.9439 B(  6-C ,  9-C ) :   1.0806
B(  9-C , 10-H ) :   0.9503 B(  9-C , 11-H ) :   0.9471 B(  9-C , 12-C ) :   1.0641
B( 12-C , 13-H ) :   0.9772 B( 12-C , 14-H ) :   0.9744 B( 12-C , 15-H ) :   0.9740
B( 16-S , 17-C ) :   1.1561 B( 16-S , 20-C ) :   1.1384 B( 17-C , 18-C ) :   1.6106
B( 17-C , 33-H ) :   0.9774 B( 18-C , 19-C ) :   1.2488 B( 18-C , 21-H ) :   0.9835
B( 19-C , 20-C ) :   1.5979 B( 19-C , 22-C ) :   1.0361 B( 22-C , 23-H ) :   0.9446
B( 22-C , 24-H ) :   0.9297 B( 22-C , 25-C ) :   1.0480 B( 25-C , 26-H ) :   0.9413
B( 25-C , 27-H ) :   0.9548 B( 25-C , 28-C ) :   1.0833 B( 28-C , 29-H ) :   0.9704
B( 28-C , 30-H ) :   0.9728 B( 28-C , 31-H ) :   0.9714

Dispersion correction           -0.015297671
FINAL SINGLE POINT ENERGY     -1339.870391453833

DIPOLE MOMENT
-------------
                                X             Y             Z
Electronic contribution:     12.63966     -13.60597     -26.26297
Nuclear contribution   :    -13.11750      13.91862      26.66808
                        -----------------------------------------
Total Dipole Moment    :     -0.47785       0.31265       0.40511
                        -----------------------------------------
Magnitude (a.u.)       :      0.70014
Magnitude (Debye)      :      1.77963

Rotational constants in cm-1:     0.016922     0.011032     0.007067
Rotational constants in MHz :   507.321455   330.745379   211.860618

                             ****ORCA TERMINATED NORMALLY****
TOTAL RUN TIME: 0 days 0 hours 0 minutes 33 seconds 883 msec
