                         Program Version 4.2.1 -  RELEASE  -
|  1> ! wB97X-D3 SP def2-SVP
|  2> %pal
|  3> nprocs 16
|  4> end
|  5>
|  6> * xyz 0 1
|  7> S 	 51.4514 	 22.8509 	 87.1142
|  8> C 	 49.7278 	 22.9809 	 86.7199
|  9> C 	 49.047 	 21.9018 	 87.2311
| 10> C 	 49.8706 	 20.9147 	 87.8602
| 11> C 	 51.2196 	 21.3093 	 87.904
| 12> H 	 49.526 	 19.9713 	 88.2946
| 13> C 	 47.6179 	 21.4744 	 87.0072
| 14> H 	 47.2668 	 21.3183 	 88.0481
| 15> H 	 47.537 	 20.5572 	 86.3761
| 16> C 	 46.7841 	 22.606 	 86.3541
| 17> H 	 46.9534 	 23.5987 	 86.7816
| 18> H 	 47.0063 	 22.7316 	 85.2922
| 19> C 	 45.284 	 22.4659 	 86.6589
| 20> H 	 44.7762 	 23.3694 	 86.2213
| 21> H 	 44.7908 	 21.555 	 86.1856
| 22> H 	 45.0755 	 22.5394 	 87.7468
| 23> S 	 53.48 	 21.6626 	 89.589
| 24> C 	 54.3802 	 20.2449 	 89.9668
| 25> C 	 53.9497 	 19.1011 	 89.3575
| 26> C 	 52.8155 	 19.3253 	 88.4651
| 27> C 	 52.4263 	 20.7214 	 88.5704
| 28> H 	 54.5306 	 18.1843 	 89.6741
| 29> C 	 52.2516 	 18.2262 	 87.6887
| 30> H 	 53.1347 	 17.7363 	 87.2201
| 31> H 	 51.6588 	 18.6084 	 86.883
| 32> C 	 51.4876 	 17.1242 	 88.4602
| 33> H 	 50.4627 	 17.4592 	 88.8466
| 34> H 	 52.0655 	 16.7817 	 89.346
| 35> C 	 51.3333 	 15.8705 	 87.5196
| 36> H 	 51.9781 	 15.0627 	 87.8944
| 37> H 	 51.4818 	 16.1415 	 86.5004
| 38> H 	 50.3218 	 15.5775 	 87.5592
| 39> H 	 49.2665 	 23.7631 	 86.0883
| 40> H 	 55.3395 	 20.2851 	 90.4111
| 41> *
| 42>
| 43>                          ****END OF INPUT****

CARTESIAN COORDINATES (ANGSTROEM)
---------------------------------
  S     51.451400   22.850900   87.114200
  C     49.727800   22.980900   86.719900
  C     49.047000   21.901800   87.231100
  C     49.870600   20.914700   87.860200
  C     51.219600   21.309300   87.904000
  H     49.526000   19.971300   88.294600
  C     47.617900   21.474400   87.007200
  H     47.266800   21.318300   88.048100
  H     47.537000   20.557200   86.376100
  C     46.784100   22.606000   86.354100
  H     46.953400   23.598700   86.781600
  H     47.006300   22.731600   85.292200
  C     45.284000   22.465900   86.658900
  H     44.776200   23.369400   86.221300
  H     44.790800   21.555000   86.185600
  H     45.075500   22.539400   87.746800
  S     53.480000   21.662600   89.589000
  C     54.380200   20.244900   89.966800
  C     53.949700   19.101100   89.357500
  C     52.815500   19.325300   88.465100
  C     52.426300   20.721400   88.570400
  H     54.530600   18.184300   89.674100
  C     52.251600   18.226200   87.688700
  H     53.134700   17.736300   87.220100
  H     51.658800   18.608400   86.883000
  C     51.487600   17.124200   88.460200
  H     50.462700   17.459200   88.846600
  H     52.065500   16.781700   89.346000
  C     51.333300   15.870500   87.519600
  H     51.978100   15.062700   87.894400
  H     51.481800   16.141500   86.500400
  H     50.321800   15.577500   87.559200
  H     49.266500   23.763100   86.088300
  H     55.339500   20.285100   90.411100

 Total Charge           Charge          ....    0
 Multiplicity           Mult            ....    1
 Number of Electrons    NEL             ....  134
 Basis Dimension        Dim             ....  322

ORBITAL ENERGIES
----------------

  NO   OCC          E(Eh)            E(eV)
   0   2.0000     -88.969036     -2420.9705
   1   2.0000     -88.963446     -2420.8184
   2   2.0000     -10.334042      -281.2036
   3   2.0000     -10.333399      -281.1861
   4   2.0000     -10.315711      -280.7048
   5   2.0000     -10.309424      -280.5337
   6   2.0000     -10.307422      -280.4792
   7   2.0000     -10.298354      -280.2324
   8   2.0000     -10.297778      -280.2168
   9   2.0000     -10.297746      -280.2159
  10   2.0000     -10.296931      -280.1937
  11   2.0000     -10.296042      -280.1696
  12   2.0000     -10.290316      -280.0137
  13   2.0000     -10.287926      -279.9487
  14   2.0000     -10.287865      -279.9470
  15   2.0000     -10.274891      -279.5940
  16   2.0000      -8.084125      -219.9802
  17   2.0000      -8.077951      -219.8122
  18   2.0000      -6.042575      -164.4268
  19   2.0000      -6.038579      -164.3181
  20   2.0000      -6.036498      -164.2615
  21   2.0000      -6.034944      -164.2192
  22   2.0000      -6.032476      -164.1520
  23   2.0000      -6.028707      -164.0494
  24   2.0000      -1.001078       -27.2407
  25   2.0000      -0.981333       -26.7034
  26   2.0000      -0.911685       -24.8082
  27   2.0000      -0.909748       -24.7555
  28   2.0000      -0.862172       -23.4609
  29   2.0000      -0.851664       -23.1750
  30   2.0000      -0.844971       -22.9928
  31   2.0000      -0.811819       -22.0907
  32   2.0000      -0.779935       -21.2231
  33   2.0000      -0.765822       -20.8391
  34   2.0000      -0.708138       -19.2694
  35   2.0000      -0.700592       -19.0641
  36   2.0000      -0.685494       -18.6532
  37   2.0000      -0.651344       -17.7240
  38   2.0000      -0.630827       -17.1657
  39   2.0000      -0.614958       -16.7339
  40   2.0000      -0.597770       -16.2661
  41   2.0000      -0.573198       -15.5975
  42   2.0000      -0.564030       -15.3480
  43   2.0000      -0.558855       -15.2072
  44   2.0000      -0.527247       -14.3471
  45   2.0000      -0.518027       -14.0962
  46   2.0000      -0.516626       -14.0581
  47   2.0000      -0.511210       -13.9107
  48   2.0000      -0.501948       -13.6587
  49   2.0000      -0.494486       -13.4557
  50   2.0000      -0.493406       -13.4263
  51   2.0000      -0.480604       -13.0779
  52   2.0000      -0.470121       -12.7927
  53   2.0000      -0.460293       -12.5252
  54   2.0000      -0.454122       -12.3573
  55   2.0000      -0.451330       -12.2813
  56   2.0000      -0.443547       -12.0695
  57   2.0000      -0.441656       -12.0181
  58   2.0000      -0.429064       -11.6754
  59   2.0000      -0.424747       -11.5580
  60   2.0000      -0.422521       -11.4974
  61   2.0000      -0.418291       -11.3823
  62   2.0000      -0.410302       -11.1649
  63   2.0000      -0.343933        -9.3589
  64   2.0000      -0.328875        -8.9491
  65   2.0000      -0.327779        -8.9193
  66   2.0000      -0.289055        -7.8656
  67   0.0000       0.030261         0.8235
  68   0.0000       0.076071         2.0700
  69   0.0000       0.109919         2.9911
  70   0.0000       0.120240         3.2719
  71   0.0000       0.124755         3.3948

MULLIKEN ATOMIC CHARGES
-----------------------
   0 S :    0.094037
   1 C :   -0.135112
   2 C :   -0.094805
   3 C :    0.021211
   4 C :   -0.154774
   5 H :    0.013744
   6 C :    0.049483
   7 H :    0.038956
   8 H :    0.059699
   9 C :   -0.101770
  10 H :    0.029561
  11 H :    0.037038
  12 C :   -0.087336
  13 H :    0.034237
  14 H :    0.043352
  15 H :    0.043391
  16 S :    0.129078
  17 C :   -0.092578
  18 C :   -0.060673
  19 C :   -0.027406
  20 C :   -0.140996
  21 H :    0.042585
  22 C :    0.057270
  23 H :    0.036928
  24 H :    0.025680
  25 C :   -0.120423
  26 H :    0.043271
  27 H :    0.036060
  28 C :   -0.021101
  29 H :    0.046591
  30 H :    0.028438
  31 H :    0.019062
  32 H :    0.061279
  33 H :    0.046024
Sum of atomic charges:   -0.0000000

LOEWDIN ATOMIC CHARGES
----------------------
   0 S :    0.395037
   1 C :   -0.204061
   2 C :   -0.069931
   3 C :   -0.068049
   4 C :   -0.182191
   5 H :    0.033168
   6 C :   -0.032703
   7 H :    0.038848
   8 H :    0.041766
   9 C :   -0.052398
  10 H :    0.026232
  11 H :    0.023711
  12 C :   -0.074374
  13 H :    0.028944
  14 H :    0.026754
  15 H :    0.027540
  16 S :    0.422708
  17 C :   -0.197862
  18 C :   -0.077195
  19 C :   -0.047400
  20 C :   -0.214967
  21 H :    0.044662
  22 C :   -0.044223
  23 H :    0.042299
  24 H :    0.028601
  25 C :   -0.038258
  26 H :    0.026547
  27 H :    0.025463
  28 C :   -0.061341
  29 H :    0.031985
  30 H :    0.021318
  31 H :    0.021313
  32 H :    0.036017
  33 H :    0.022041

  Mayer bond orders larger than 0.100000
B(  0-S ,  1-C ) :   1.1131 B(  0-S ,  4-C ) :   1.1651 B(  1-C ,  2-C ) :   1.6325
B(  1-C , 32-H ) :   0.9616 B(  2-C ,  3-C ) :   1.2340 B(  2-C ,  6-C ) :   1.0038
B(  3-C ,  4-C ) :   1.5674 B(  3-C ,  5-H ) :   0.9964 B(  4-C , 20-C ) :   1.0226
B(  6-C ,  7-H ) :   0.9389 B(  6-C ,  8-H ) :   0.9439 B(  6-C ,  9-C ) :   1.0758
B(  9-C , 10-H ) :   0.9560 B(  9-C , 11-H ) :   0.9513 B(  9-C , 12-C ) :   1.0790
B( 12-C , 13-H ) :   0.9747 B( 12-C , 14-H ) :   0.9743 B( 12-C , 15-H ) :   0.9767
B( 16-S , 17-C ) :   1.1519 B( 16-S , 20-C ) :   1.1538 B( 17-C , 18-C ) :   1.6466
B( 17-C , 33-H ) :   0.9624 B( 18-C , 19-C ) :   1.2218 B( 18-C , 21-H ) :   0.9764
B( 19-C , 20-C ) :   1.5491 B( 19-C , 22-C ) :   1.0741 B( 22-C , 23-H ) :   0.9306
B( 22-C , 24-H ) :   0.9168 B( 22-C , 25-C ) :   1.0594 B( 25-C , 26-H ) :   0.9600
B( 25-C , 27-H ) :   0.9637 B( 25-C , 28-C ) :   1.0552 B( 28-C , 29-H ) :   0.9797
B( 28-C , 30-H ) :   0.9772 B( 28-C , 31-H ) :   0.9762

Dispersion correction           -0.013454029
FINAL SINGLE POINT ENERGY     -1339.872331099679

DIPOLE MOMENT
-------------
                                X             Y             Z
Electronic contribution:     23.01376      16.87351       7.11474
Nuclear contribution   :    -23.32633     -17.44202      -7.24261
                        -----------------------------------------
Total Dipole Moment    :     -0.31257      -0.56851      -0.12786
                        -----------------------------------------
Magnitude (a.u.)       :      0.66125
Magnitude (Debye)      :      1.68076

Rotational constants in cm-1:     0.018591     0.007835     0.005873
Rotational constants in MHz :   557.342861   234.887286   176.065617

                             ****ORCA TERMINATED NORMALLY****
TOTAL RUN TIME: 0 days 0 hours 0 minutes 29 seconds 359 msec
