                         Program Version 4.2.1 -  RELEASE  -
|  1> ! wB97X-D3 SP def2-SVP
|  2> %pal
|  3> nprocs 16
|  4> end
|  5>
|  6> * xyz 0 1
|  7> S 	 49.1715 	 29.3649 	 41.1684
|  8> C 	 50.8138 	 29.9242 	 41.3046
|  9> C 	 51.5775 	 29.2274 	 42.184
| 10> C 	 50.7495 	 28.203 	 42.8072
| 11> C 	 49.536 	 28.0017 	 42.1369
| 12> H 	 50.992 	 27.4763 	 43.5728
| 13> C 	 53.0088 	 29.3959 	 42.4343
| 14> H 	 53.5088 	 29.641 	 41.5153
| 15> H 	 53.457 	 28.4495 	 42.7471
| 16> C 	 53.5141 	 30.4031 	 43.442
| 17> H 	 53.244 	 31.3966 	 43.1766
| 18> H 	 53.1426 	 30.0393 	 44.4306
| 19> C 	 55.0307 	 30.4504 	 43.604
| 20> H 	 55.3935 	 29.4663 	 43.777
| 21> H 	 55.5039 	 30.9173 	 42.6995
| 22> H 	 55.3932 	 30.8251 	 44.5815
| 23> S 	 46.9406 	 27.4407 	 42.9366
| 24> C 	 46.4549 	 25.7842 	 42.9145
| 25> C 	 47.4676 	 24.9117 	 42.5194
| 26> C 	 48.6609 	 25.6024 	 42.1414
| 27> C 	 48.5589 	 26.9134 	 42.358
| 28> H 	 47.2581 	 23.8621 	 42.5426
| 29> C 	 49.9146 	 24.9108 	 41.673
| 30> H 	 50.5385 	 25.4536 	 40.9253
| 31> H 	 49.537 	 24.0308 	 41.1618
| 32> C 	 50.8481 	 24.4079 	 42.7784
| 33> H 	 50.7053 	 23.3251 	 43.1082
| 34> H 	 50.6602 	 24.9678 	 43.7085
| 35> C 	 52.3734 	 24.4629 	 42.3625
| 36> H 	 52.5842 	 23.6643 	 41.6204
| 37> H 	 53.007 	 24.4365 	 43.2752
| 38> H 	 52.561 	 25.4277 	 41.8176
| 39> H 	 51.3197 	 30.8315 	 40.9157
| 40> H 	 45.4753 	 25.4179 	 42.9101
| 41> *
| 42>
| 43>                          ****END OF INPUT****

CARTESIAN COORDINATES (ANGSTROEM)
---------------------------------
  S     49.171500   29.364900   41.168400
  C     50.813800   29.924200   41.304600
  C     51.577500   29.227400   42.184000
  C     50.749500   28.203000   42.807200
  C     49.536000   28.001700   42.136900
  H     50.992000   27.476300   43.572800
  C     53.008800   29.395900   42.434300
  H     53.508800   29.641000   41.515300
  H     53.457000   28.449500   42.747100
  C     53.514100   30.403100   43.442000
  H     53.244000   31.396600   43.176600
  H     53.142600   30.039300   44.430600
  C     55.030700   30.450400   43.604000
  H     55.393500   29.466300   43.777000
  H     55.503900   30.917300   42.699500
  H     55.393200   30.825100   44.581500
  S     46.940600   27.440700   42.936600
  C     46.454900   25.784200   42.914500
  C     47.467600   24.911700   42.519400
  C     48.660900   25.602400   42.141400
  C     48.558900   26.913400   42.358000
  H     47.258100   23.862100   42.542600
  C     49.914600   24.910800   41.673000
  H     50.538500   25.453600   40.925300
  H     49.537000   24.030800   41.161800
  C     50.848100   24.407900   42.778400
  H     50.705300   23.325100   43.108200
  H     50.660200   24.967800   43.708500
  C     52.373400   24.462900   42.362500
  H     52.584200   23.664300   41.620400
  H     53.007000   24.436500   43.275200
  H     52.561000   25.427700   41.817600
  H     51.319700   30.831500   40.915700
  H     45.475300   25.417900   42.910100

 Total Charge           Charge          ....    0
 Multiplicity           Mult            ....    1
 Number of Electrons    NEL             ....  134
 Basis Dimension        Dim             ....  322

ORBITAL ENERGIES
----------------

  NO   OCC          E(Eh)            E(eV)
   0   2.0000     -88.967517     -2420.9292
   1   2.0000     -88.965724     -2420.8804
   2   2.0000     -10.325950      -280.9834
   3   2.0000     -10.323774      -280.9242
   4   2.0000     -10.312206      -280.6094
   5   2.0000     -10.310526      -280.5637
   6   2.0000     -10.300725      -280.2970
   7   2.0000     -10.298448      -280.2350
   8   2.0000     -10.295700      -280.1602
   9   2.0000     -10.293758      -280.1074
  10   2.0000     -10.293644      -280.1043
  11   2.0000     -10.292855      -280.0828
  12   2.0000     -10.288827      -279.9732
  13   2.0000     -10.286956      -279.9223
  14   2.0000     -10.285480      -279.8821
  15   2.0000     -10.280902      -279.7576
  16   2.0000      -8.082866      -219.9460
  17   2.0000      -8.080360      -219.8778
  18   2.0000      -6.041370      -164.3940
  19   2.0000      -6.038838      -164.3251
  20   2.0000      -6.037400      -164.2860
  21   2.0000      -6.035028      -164.2215
  22   2.0000      -6.033464      -164.1789
  23   2.0000      -6.031015      -164.1123
  24   2.0000      -1.010159       -27.4878
  25   2.0000      -0.988577       -26.9006
  26   2.0000      -0.921804       -25.0836
  27   2.0000      -0.906998       -24.6807
  28   2.0000      -0.870881       -23.6979
  29   2.0000      -0.852102       -23.1869
  30   2.0000      -0.846208       -23.0265
  31   2.0000      -0.812850       -22.1188
  32   2.0000      -0.785190       -21.3661
  33   2.0000      -0.775399       -21.0997
  34   2.0000      -0.702865       -19.1259
  35   2.0000      -0.699870       -19.0444
  36   2.0000      -0.692060       -18.8319
  37   2.0000      -0.666647       -18.1404
  38   2.0000      -0.638689       -17.3796
  39   2.0000      -0.616046       -16.7635
  40   2.0000      -0.599048       -16.3009
  41   2.0000      -0.583999       -15.8914
  42   2.0000      -0.570304       -15.5187
  43   2.0000      -0.555742       -15.1225
  44   2.0000      -0.527897       -14.3648
  45   2.0000      -0.520824       -14.1723
  46   2.0000      -0.514857       -14.0100
  47   2.0000      -0.513012       -13.9598
  48   2.0000      -0.507942       -13.8218
  49   2.0000      -0.499292       -13.5864
  50   2.0000      -0.487617       -13.2687
  51   2.0000      -0.475096       -12.9280
  52   2.0000      -0.472539       -12.8584
  53   2.0000      -0.463502       -12.6125
  54   2.0000      -0.460106       -12.5201
  55   2.0000      -0.452904       -12.3242
  56   2.0000      -0.442885       -12.0515
  57   2.0000      -0.442221       -12.0335
  58   2.0000      -0.432027       -11.7561
  59   2.0000      -0.428537       -11.6611
  60   2.0000      -0.423738       -11.5305
  61   2.0000      -0.413520       -11.2524
  62   2.0000      -0.407135       -11.0787
  63   2.0000      -0.337435        -9.1821
  64   2.0000      -0.332823        -9.0566
  65   2.0000      -0.326813        -8.8930
  66   2.0000      -0.301409        -8.2018
  67   0.0000       0.034035         0.9261
  68   0.0000       0.065951         1.7946
  69   0.0000       0.107963         2.9378
  70   0.0000       0.117013         3.1841
  71   0.0000       0.128275         3.4905

MULLIKEN ATOMIC CHARGES
-----------------------
   0 S :    0.131738
   1 C :   -0.100462
   2 C :   -0.076114
   3 C :    0.045496
   4 C :   -0.179494
   5 H :    0.006681
   6 C :    0.063304
   7 H :    0.011926
   8 H :    0.012447
   9 C :   -0.052148
  10 H :    0.021921
  11 H :    0.026547
  12 C :   -0.051181
  13 H :    0.004450
  14 H :    0.046030
  15 H :    0.034962
  16 S :    0.106142
  17 C :   -0.062451
  18 C :   -0.054836
  19 C :   -0.016449
  20 C :   -0.181794
  21 H :    0.013684
  22 C :    0.097352
  23 H :    0.043969
  24 H :    0.018641
  25 C :   -0.105066
  26 H :    0.037854
  27 H :    0.036547
  28 C :   -0.098792
  29 H :    0.047360
  30 H :    0.048305
  31 H :    0.038977
  32 H :    0.044009
  33 H :    0.040444
Sum of atomic charges:   -0.0000000

LOEWDIN ATOMIC CHARGES
----------------------
   0 S :    0.425246
   1 C :   -0.204840
   2 C :   -0.065644
   3 C :   -0.055773
   4 C :   -0.208821
   5 H :    0.027269
   6 C :   -0.038805
   7 H :    0.029345
   8 H :    0.032060
   9 C :   -0.035380
  10 H :    0.016958
  11 H :    0.028431
  12 C :   -0.072971
  13 H :    0.017254
  14 H :    0.030607
  15 H :    0.034270
  16 S :    0.388541
  17 C :   -0.181423
  18 C :   -0.065065
  19 C :   -0.055972
  20 C :   -0.181080
  21 H :    0.029264
  22 C :   -0.033219
  23 H :    0.038258
  24 H :    0.033044
  25 C :   -0.048577
  26 H :    0.029675
  27 H :    0.019905
  28 C :   -0.073934
  29 H :    0.028828
  30 H :    0.030701
  31 H :    0.024675
  32 H :    0.037158
  33 H :    0.020016

  Mayer bond orders larger than 0.100000
B(  0-S ,  1-C ) :   1.1271 B(  0-S ,  4-C ) :   1.1561 B(  1-C ,  2-C ) :   1.6477
B(  1-C , 32-H ) :   0.9548 B(  2-C ,  3-C ) :   1.2091 B(  2-C ,  6-C ) :   1.0371
B(  3-C ,  4-C ) :   1.5886 B(  3-C ,  5-H ) :   0.9907 B(  4-C , 20-C ) :   1.0142
B(  6-C ,  7-H ) :   0.9338 B(  6-C ,  8-H ) :   0.9318 B(  6-C ,  9-C ) :   1.0741
B(  9-C , 10-H ) :   0.9575 B(  9-C , 11-H ) :   0.9518 B(  9-C , 12-C ) :   1.0895
B( 12-C , 13-H ) :   0.9663 B( 12-C , 14-H ) :   0.9740 B( 12-C , 15-H ) :   0.9708
B( 16-S , 17-C ) :   1.1505 B( 16-S , 20-C ) :   1.1174 B( 17-C , 18-C ) :   1.6453
B( 17-C , 33-H ) :   0.9665 B( 18-C , 19-C ) :   1.1984 B( 18-C , 21-H ) :   0.9929
B( 19-C , 20-C ) :   1.6709 B( 19-C , 22-C ) :   1.0572 B( 22-C , 23-H ) :   0.9427
B( 22-C , 24-H ) :   0.9185 B( 22-C , 25-C ) :   1.0370 B( 25-C , 26-H ) :   0.9532
B( 25-C , 27-H ) :   0.9659 B( 25-C , 28-C ) :   1.0700 B( 28-C , 29-H ) :   0.9769
B( 28-C , 30-H ) :   0.9755 B( 28-C , 31-H ) :   0.9774

Dispersion correction           -0.014527350
FINAL SINGLE POINT ENERGY     -1339.859840609994

DIPOLE MOMENT
-------------
                                X             Y             Z
Electronic contribution:    -30.90556       6.29349      -5.17913
Nuclear contribution   :     31.46070      -6.67987       5.26271
                        -----------------------------------------
Total Dipole Moment    :      0.55514      -0.38638       0.08358
                        -----------------------------------------
Magnitude (a.u.)       :      0.68151
Magnitude (Debye)      :      1.73226

Rotational constants in cm-1:     0.019739     0.008493     0.006546
Rotational constants in MHz :   591.768995   254.608814   196.241297

                             ****ORCA TERMINATED NORMALLY****
TOTAL RUN TIME: 0 days 0 hours 0 minutes 34 seconds 406 msec
