                         Program Version 4.2.1 -  RELEASE  -
|  1> ! wB97X-D3 SP def2-SVP
|  2> %pal
|  3> nprocs 16
|  4> end
|  5>
|  6> * xyz 0 1
|  7> S 	 38.0369 	 23.7665 	 96.7899
|  8> C 	 38.9344 	 25.0889 	 96.0935
|  9> C 	 39.9452 	 24.5801 	 95.2702
| 10> C 	 40.1558 	 23.1578 	 95.4026
| 11> C 	 39.2377 	 22.577 	 96.3252
| 12> H 	 41.0354 	 22.6495 	 95.0321
| 13> C 	 40.9728 	 25.3823 	 94.6003
| 14> H 	 41.9787 	 24.9232 	 94.7088
| 15> H 	 41.2128 	 26.1798 	 95.3221
| 16> C 	 40.6569 	 25.7338 	 93.1719
| 17> H 	 39.7545 	 26.328 	 93.2104
| 18> H 	 41.3171 	 26.4703 	 92.7202
| 19> C 	 40.3399 	 24.5464 	 92.1832
| 20> H 	 41.2098 	 23.9957 	 91.7212
| 21> H 	 39.621 	 23.8427 	 92.5289
| 22> H 	 40.1108 	 25.0536 	 91.2462
| 23> S 	 39.5545 	 21.2019 	 98.7352
| 24> C 	 39.6193 	 19.4788 	 98.7609
| 25> C 	 39.4859 	 18.9941 	 97.4714
| 26> C 	 39.1771 	 19.9514 	 96.441
| 27> C 	 39.2978 	 21.2763 	 96.9576
| 28> H 	 39.7108 	 17.9337 	 97.2867
| 29> C 	 38.9811 	 19.6069 	 94.9625
| 30> H 	 39.0381 	 20.5442 	 94.4619
| 31> H 	 37.9761 	 19.1837 	 94.8974
| 32> C 	 39.9564 	 18.5496 	 94.3315
| 33> H 	 39.6756 	 18.1527 	 93.418
| 34> H 	 40.112 	 17.6904 	 94.9592
| 35> C 	 41.2772 	 19.1037 	 94.2059
| 36> H 	 41.1841 	 19.7045 	 93.2532
| 37> H 	 42.1025 	 18.4665 	 94.1826
| 38> H 	 41.5786 	 19.7912 	 95.0053
| 39> H 	 38.4794 	 26.017 	 95.9277
| 40> H 	 39.9006 	 18.8083 	 99.5167
| 41> *
| 42>
| 43>                          ****END OF INPUT****

CARTESIAN COORDINATES (ANGSTROEM)
---------------------------------
  S     38.036900   23.766500   96.789900
  C     38.934400   25.088900   96.093500
  C     39.945200   24.580100   95.270200
  C     40.155800   23.157800   95.402600
  C     39.237700   22.577000   96.325200
  H     41.035400   22.649500   95.032100
  C     40.972800   25.382300   94.600300
  H     41.978700   24.923200   94.708800
  H     41.212800   26.179800   95.322100
  C     40.656900   25.733800   93.171900
  H     39.754500   26.328000   93.210400
  H     41.317100   26.470300   92.720200
  C     40.339900   24.546400   92.183200
  H     41.209800   23.995700   91.721200
  H     39.621000   23.842700   92.528900
  H     40.110800   25.053600   91.246200
  S     39.554500   21.201900   98.735200
  C     39.619300   19.478800   98.760900
  C     39.485900   18.994100   97.471400
  C     39.177100   19.951400   96.441000
  C     39.297800   21.276300   96.957600
  H     39.710800   17.933700   97.286700
  C     38.981100   19.606900   94.962500
  H     39.038100   20.544200   94.461900
  H     37.976100   19.183700   94.897400
  C     39.956400   18.549600   94.331500
  H     39.675600   18.152700   93.418000
  H     40.112000   17.690400   94.959200
  C     41.277200   19.103700   94.205900
  H     41.184100   19.704500   93.253200
  H     42.102500   18.466500   94.182600
  H     41.578600   19.791200   95.005300
  H     38.479400   26.017000   95.927700
  H     39.900600   18.808300   99.516700

 Total Charge           Charge          ....    0
 Multiplicity           Mult            ....    1
 Number of Electrons    NEL             ....  134
 Basis Dimension        Dim             ....  322

ORBITAL ENERGIES
----------------

  NO   OCC          E(Eh)            E(eV)
   0   2.0000     -88.966519     -2420.9021
   1   2.0000     -88.966315     -2420.8965
   2   2.0000     -10.335554      -281.2447
   3   2.0000     -10.333283      -281.1829
   4   2.0000     -10.313851      -280.6542
   5   2.0000     -10.311640      -280.5940
   6   2.0000     -10.311395      -280.5873
   7   2.0000     -10.301461      -280.3170
   8   2.0000     -10.300738      -280.2973
   9   2.0000     -10.293882      -280.1108
  10   2.0000     -10.293760      -280.1075
  11   2.0000     -10.289175      -279.9827
  12   2.0000     -10.286893      -279.9206
  13   2.0000     -10.281771      -279.7812
  14   2.0000     -10.276345      -279.6336
  15   2.0000     -10.266430      -279.3638
  16   2.0000      -8.081141      -219.8990
  17   2.0000      -8.080666      -219.8861
  18   2.0000      -6.039581      -164.3453
  19   2.0000      -6.039257      -164.3365
  20   2.0000      -6.035502      -164.2344
  21   2.0000      -6.035161      -164.2251
  22   2.0000      -6.032084      -164.1413
  23   2.0000      -6.031443      -164.1239
  24   2.0000      -1.001596       -27.2548
  25   2.0000      -0.980806       -26.6891
  26   2.0000      -0.918981       -25.0068
  27   2.0000      -0.914716       -24.8907
  28   2.0000      -0.868664       -23.6375
  29   2.0000      -0.853085       -23.2136
  30   2.0000      -0.844313       -22.9749
  31   2.0000      -0.813277       -22.1304
  32   2.0000      -0.784795       -21.3554
  33   2.0000      -0.772449       -21.0194
  34   2.0000      -0.709899       -19.3173
  35   2.0000      -0.708487       -19.2789
  36   2.0000      -0.702163       -19.1068
  37   2.0000      -0.650819       -17.7097
  38   2.0000      -0.642012       -17.4700
  39   2.0000      -0.614697       -16.7268
  40   2.0000      -0.596909       -16.2427
  41   2.0000      -0.577828       -15.7235
  42   2.0000      -0.562114       -15.2959
  43   2.0000      -0.555459       -15.1148
  44   2.0000      -0.552182       -15.0256
  45   2.0000      -0.535420       -14.5695
  46   2.0000      -0.526506       -14.3270
  47   2.0000      -0.509109       -13.8535
  48   2.0000      -0.502732       -13.6800
  49   2.0000      -0.500289       -13.6135
  50   2.0000      -0.489549       -13.3213
  51   2.0000      -0.481518       -13.1028
  52   2.0000      -0.475917       -12.9504
  53   2.0000      -0.460864       -12.5407
  54   2.0000      -0.457925       -12.4608
  55   2.0000      -0.452752       -12.3200
  56   2.0000      -0.447493       -12.1769
  57   2.0000      -0.428196       -11.6518
  58   2.0000      -0.423556       -11.5256
  59   2.0000      -0.422096       -11.4858
  60   2.0000      -0.417466       -11.3598
  61   2.0000      -0.408754       -11.1228
  62   2.0000      -0.402537       -10.9536
  63   2.0000      -0.340928        -9.2771
  64   2.0000      -0.331043        -9.0081
  65   2.0000      -0.324763        -8.8372
  66   2.0000      -0.295901        -8.0519
  67   0.0000       0.024528         0.6674
  68   0.0000       0.057014         1.5514
  69   0.0000       0.108453         2.9512
  70   0.0000       0.120842         3.2883
  71   0.0000       0.128334         3.4921

MULLIKEN ATOMIC CHARGES
-----------------------
   0 S :    0.116450
   1 C :   -0.081154
   2 C :   -0.133226
   3 C :    0.059220
   4 C :   -0.189916
   5 H :    0.022725
   6 C :    0.038137
   7 H :    0.020322
   8 H :    0.028103
   9 C :   -0.034981
  10 H :    0.014308
  11 H :    0.022961
  12 C :   -0.063161
  13 H :    0.027414
  14 H :    0.054164
  15 H :    0.025662
  16 S :    0.118070
  17 C :   -0.055793
  18 C :   -0.075179
  19 C :   -0.045352
  20 C :   -0.172757
  21 H :    0.027360
  22 C :    0.112083
  23 H :    0.016522
  24 H :    0.040393
  25 C :   -0.010924
  26 H :    0.011486
  27 H :    0.010071
  28 C :   -0.064373
  29 H :    0.024623
  30 H :    0.016962
  31 H :    0.033284
  32 H :    0.045871
  33 H :    0.040626
Sum of atomic charges:   -0.0000000

LOEWDIN ATOMIC CHARGES
----------------------
   0 S :    0.417333
   1 C :   -0.197235
   2 C :   -0.061687
   3 C :   -0.053154
   4 C :   -0.198883
   5 H :    0.032272
   6 C :   -0.051905
   7 H :    0.032439
   8 H :    0.039471
   9 C :   -0.039989
  10 H :    0.023351
  11 H :    0.025674
  12 C :   -0.072497
  13 H :    0.030277
  14 H :    0.022821
  15 H :    0.031277
  16 S :    0.406939
  17 C :   -0.190569
  18 C :   -0.079313
  19 C :   -0.046603
  20 C :   -0.197634
  21 H :    0.030827
  22 C :   -0.017236
  23 H :    0.025730
  24 H :    0.037752
  25 C :   -0.037552
  26 H :    0.017682
  27 H :    0.019997
  28 C :   -0.066493
  29 H :    0.030280
  30 H :    0.015429
  31 H :    0.025980
  32 H :    0.019156
  33 H :    0.026063

  Mayer bond orders larger than 0.100000
B(  0-S ,  1-C ) :   1.1439 B(  0-S ,  4-C ) :   1.1818 B(  1-C ,  2-C ) :   1.5911
B(  1-C ,  4-C ) :   0.1047 B(  1-C , 32-H ) :   0.9645 B(  2-C ,  3-C ) :   1.2616
B(  2-C ,  6-C ) :   1.0206 B(  3-C ,  4-C ) :   1.5184 B(  3-C ,  5-H ) :   0.9918
B(  4-C , 20-C ) :   1.0536 B(  6-C ,  7-H ) :   0.9458 B(  6-C ,  8-H ) :   0.9449
B(  6-C ,  9-C ) :   1.0559 B(  9-C , 10-H ) :   0.9551 B(  9-C , 11-H ) :   0.9542
B(  9-C , 12-C ) :   1.0740 B( 12-C , 13-H ) :   0.9732 B( 12-C , 14-H ) :   0.9741
B( 12-C , 15-H ) :   0.9695 B( 16-S , 17-C ) :   1.1536 B( 16-S , 20-C ) :   1.1425
B( 17-C , 18-C ) :   1.6213 B( 17-C , 20-C ) :   0.1021 B( 17-C , 33-H ) :   0.9680
B( 18-C , 19-C ) :   1.2422 B( 18-C , 21-H ) :   0.9786 B( 19-C , 20-C ) :   1.5545
B( 19-C , 22-C ) :   1.0431 B( 22-C , 23-H ) :   0.9365 B( 22-C , 24-H ) :   0.9229
B( 22-C , 25-C ) :   1.0667 B( 25-C , 26-H ) :   0.9554 B( 25-C , 27-H ) :   0.9529
B( 25-C , 28-C ) :   1.0725 B( 28-C , 29-H ) :   0.9765 B( 28-C , 30-H ) :   0.9714
B( 28-C , 31-H ) :   0.9737

Dispersion correction           -0.014940818
FINAL SINGLE POINT ENERGY     -1339.839952989925

DIPOLE MOMENT
-------------
                                X             Y             Z
Electronic contribution:    -11.65620       2.20342      25.72279
Nuclear contribution   :     12.06416      -2.36707     -26.27867
                        -----------------------------------------
Total Dipole Moment    :      0.40796      -0.16365      -0.55588
                        -----------------------------------------
Magnitude (a.u.)       :      0.70867
Magnitude (Debye)      :      1.80131

Rotational constants in cm-1:     0.018751     0.009353     0.006941
Rotational constants in MHz :   562.129574   280.394963   208.092110

                             ****ORCA TERMINATED NORMALLY****
TOTAL RUN TIME: 0 days 0 hours 0 minutes 31 seconds 15 msec
