                         Program Version 4.2.1 -  RELEASE  -
|  1> ! wB97X-D3 SP def2-SVP
|  2> %pal
|  3> nprocs 16
|  4> end
|  5>
|  6> * xyz 0 1
|  7> S 	 -92.9548 	 56.0993 	 128.267
|  8> C 	 -92.7218 	 54.5707 	 128.964
|  9> C 	 -91.6291 	 53.9665 	 128.328
| 10> C 	 -91.5172 	 54.5381 	 127.007
| 11> C 	 -92.168 	 55.685 	 126.77
| 12> H 	 -90.796 	 54.1133 	 126.259
| 13> C 	 -91.0319 	 52.6444 	 128.868
| 14> H 	 -90.2022 	 52.9276 	 129.508
| 15> H 	 -90.5564 	 52.2257 	 128.034
| 16> C 	 -92.062 	 51.7319 	 129.542
| 17> H 	 -92.2197 	 51.9532 	 130.637
| 18> H 	 -93.0191 	 51.7972 	 128.986
| 19> C 	 -91.6559 	 50.2442 	 129.501
| 20> H 	 -92.4157 	 49.5489 	 129.882
| 21> H 	 -91.4098 	 49.9685 	 128.533
| 22> H 	 -90.6963 	 50.0404 	 129.975
| 23> S 	 -91.8476 	 58.3321 	 126.113
| 24> C 	 -91.9069 	 58.7185 	 124.394
| 25> C 	 -92.1711 	 57.6949 	 123.548
| 26> C 	 -92.3361 	 56.4773 	 124.294
| 27> C 	 -92.0869 	 56.6025 	 125.663
| 28> H 	 -92.3856 	 58.0048 	 122.521
| 29> C 	 -92.655 	 55.1862 	 123.583
| 30> H 	 -93.6061 	 54.8802 	 123.763
| 31> H 	 -92.0177 	 54.4232 	 124.04
| 32> C 	 -92.475 	 55.0666 	 122.036
| 33> H 	 -93.0934 	 55.7394 	 121.44
| 34> H 	 -92.7633 	 54.0765 	 121.749
| 35> C 	 -91.0662 	 55.2142 	 121.653
| 36> H 	 -90.9088 	 55.1858 	 120.606
| 37> H 	 -90.4376 	 54.411 	 122.015
| 38> H 	 -90.6034 	 56.1888 	 122
| 39> H 	 -93.1834 	 54.2512 	 129.951
| 40> H 	 -91.677 	 59.7112 	 124.05
| 41> *
| 42>
| 43>                          ****END OF INPUT****

CARTESIAN COORDINATES (ANGSTROEM)
---------------------------------
  S    -92.954800   56.099300  128.267000
  C    -92.721800   54.570700  128.964000
  C    -91.629100   53.966500  128.328000
  C    -91.517200   54.538100  127.007000
  C    -92.168000   55.685000  126.770000
  H    -90.796000   54.113300  126.259000
  C    -91.031900   52.644400  128.868000
  H    -90.202200   52.927600  129.508000
  H    -90.556400   52.225700  128.034000
  C    -92.062000   51.731900  129.542000
  H    -92.219700   51.953200  130.637000
  H    -93.019100   51.797200  128.986000
  C    -91.655900   50.244200  129.501000
  H    -92.415700   49.548900  129.882000
  H    -91.409800   49.968500  128.533000
  H    -90.696300   50.040400  129.975000
  S    -91.847600   58.332100  126.113000
  C    -91.906900   58.718500  124.394000
  C    -92.171100   57.694900  123.548000
  C    -92.336100   56.477300  124.294000
  C    -92.086900   56.602500  125.663000
  H    -92.385600   58.004800  122.521000
  C    -92.655000   55.186200  123.583000
  H    -93.606100   54.880200  123.763000
  H    -92.017700   54.423200  124.040000
  C    -92.475000   55.066600  122.036000
  H    -93.093400   55.739400  121.440000
  H    -92.763300   54.076500  121.749000
  C    -91.066200   55.214200  121.653000
  H    -90.908800   55.185800  120.606000
  H    -90.437600   54.411000  122.015000
  H    -90.603400   56.188800  122.000000
  H    -93.183400   54.251200  129.951000
  H    -91.677000   59.711200  124.050000

 Total Charge           Charge          ....    0
 Multiplicity           Mult            ....    1
 Number of Electrons    NEL             ....  134
 Basis Dimension        Dim             ....  322

ORBITAL ENERGIES
----------------

  NO   OCC          E(Eh)            E(eV)
   0   2.0000     -88.964340     -2420.8428
   1   2.0000     -88.957791     -2420.6646
   2   2.0000     -10.329500      -281.0800
   3   2.0000     -10.322105      -280.8788
   4   2.0000     -10.314628      -280.6753
   5   2.0000     -10.313271      -280.6384
   6   2.0000     -10.308157      -280.4992
   7   2.0000     -10.303291      -280.3668
   8   2.0000     -10.296836      -280.1911
   9   2.0000     -10.294711      -280.1333
  10   2.0000     -10.293371      -280.0969
  11   2.0000     -10.292249      -280.0663
  12   2.0000     -10.283127      -279.8181
  13   2.0000     -10.282442      -279.7995
  14   2.0000     -10.274030      -279.5706
  15   2.0000     -10.268543      -279.4213
  16   2.0000      -8.078415      -219.8248
  17   2.0000      -8.074116      -219.7079
  18   2.0000      -6.036961      -164.2740
  19   2.0000      -6.033289      -164.1741
  20   2.0000      -6.032613      -164.1557
  21   2.0000      -6.028906      -164.0549
  22   2.0000      -6.028526      -164.0445
  23   2.0000      -6.024640      -163.9388
  24   2.0000      -1.012014       -27.5383
  25   2.0000      -0.984455       -26.7884
  26   2.0000      -0.914207       -24.8768
  27   2.0000      -0.911452       -24.8019
  28   2.0000      -0.873121       -23.7588
  29   2.0000      -0.852610       -23.2007
  30   2.0000      -0.843930       -22.9645
  31   2.0000      -0.820720       -22.3329
  32   2.0000      -0.786268       -21.3954
  33   2.0000      -0.770556       -20.9679
  34   2.0000      -0.710655       -19.3379
  35   2.0000      -0.704096       -19.1594
  36   2.0000      -0.691931       -18.8284
  37   2.0000      -0.656446       -17.8628
  38   2.0000      -0.637167       -17.3382
  39   2.0000      -0.615801       -16.7568
  40   2.0000      -0.598769       -16.2933
  41   2.0000      -0.569074       -15.4853
  42   2.0000      -0.566257       -15.4086
  43   2.0000      -0.561450       -15.2778
  44   2.0000      -0.540175       -14.6989
  45   2.0000      -0.529293       -14.4028
  46   2.0000      -0.524337       -14.2679
  47   2.0000      -0.513802       -13.9813
  48   2.0000      -0.505201       -13.7472
  49   2.0000      -0.500385       -13.6162
  50   2.0000      -0.486674       -13.2431
  51   2.0000      -0.471887       -12.8407
  52   2.0000      -0.469793       -12.7837
  53   2.0000      -0.466065       -12.6823
  54   2.0000      -0.457555       -12.4507
  55   2.0000      -0.446154       -12.1405
  56   2.0000      -0.441665       -12.0183
  57   2.0000      -0.440933       -11.9984
  58   2.0000      -0.436573       -11.8798
  59   2.0000      -0.425080       -11.5670
  60   2.0000      -0.420323       -11.4376
  61   2.0000      -0.416703       -11.3391
  62   2.0000      -0.411864       -11.2074
  63   2.0000      -0.354795        -9.6545
  64   2.0000      -0.332575        -9.0498
  65   2.0000      -0.321043        -8.7360
  66   2.0000      -0.284137        -7.7318
  67   0.0000       0.032138         0.8745
  68   0.0000       0.058619         1.5951
  69   0.0000       0.108559         2.9540
  70   0.0000       0.122172         3.3245
  71   0.0000       0.135546         3.6884

MULLIKEN ATOMIC CHARGES
-----------------------
   0 S :    0.107192
   1 C :   -0.140740
   2 C :   -0.142040
   3 C :   -0.016052
   4 C :   -0.116015
   5 H :    0.028920
   6 C :    0.128881
   7 H :    0.038997
   8 H :   -0.004589
   9 C :   -0.120081
  10 H :    0.047358
  11 H :    0.052109
  12 C :   -0.026386
  13 H :    0.042649
  14 H :    0.004276
  15 H :    0.019643
  16 S :    0.087355
  17 C :   -0.081273
  18 C :   -0.038887
  19 C :   -0.044797
  20 C :   -0.147815
  21 H :    0.036077
  22 C :    0.117484
  23 H :    0.010973
  24 H :    0.014612
  25 C :   -0.044946
  26 H :    0.025045
  27 H :    0.016752
  28 C :   -0.057470
  29 H :    0.017279
  30 H :    0.020107
  31 H :    0.039235
  32 H :    0.081007
  33 H :    0.045143
Sum of atomic charges:    0.0000000

LOEWDIN ATOMIC CHARGES
----------------------
   0 S :    0.419500
   1 C :   -0.216680
   2 C :   -0.065556
   3 C :   -0.075275
   4 C :   -0.204449
   5 H :    0.034989
   6 C :   -0.027623
   7 H :    0.037674
   8 H :    0.020083
   9 C :   -0.044008
  10 H :    0.031510
  11 H :    0.032353
  12 C :   -0.065114
  13 H :    0.030145
  14 H :    0.012493
  15 H :    0.024640
  16 S :    0.370636
  17 C :   -0.166060
  18 C :   -0.079766
  19 C :   -0.045376
  20 C :   -0.177619
  21 H :    0.043176
  22 C :   -0.022598
  23 H :    0.020807
  24 H :    0.034290
  25 C :   -0.037330
  26 H :    0.022227
  27 H :    0.026314
  28 C :   -0.070281
  29 H :    0.018602
  30 H :    0.022767
  31 H :    0.030506
  32 H :    0.042982
  33 H :    0.022038

  Mayer bond orders larger than 0.100000
B(  0-S ,  1-C ) :   1.1651 B(  0-S ,  4-C ) :   1.1313 B(  1-C ,  2-C ) :   1.5722
B(  1-C , 32-H ) :   0.9590 B(  2-C ,  3-C ) :   1.2533 B(  2-C ,  6-C ) :   1.0231
B(  3-C ,  4-C ) :   1.5895 B(  3-C ,  5-H ) :   0.9786 B(  4-C , 20-C ) :   1.0674
B(  6-C ,  7-H ) :   0.9188 B(  6-C ,  8-H ) :   0.9471 B(  6-C ,  9-C ) :   1.0658
B(  9-C , 10-H ) :   0.9487 B(  9-C , 11-H ) :   0.9607 B(  9-C , 12-C ) :   1.0854
B( 12-C , 13-H ) :   0.9750 B( 12-C , 14-H ) :   0.9733 B( 12-C , 15-H ) :   0.9713
B( 16-S , 17-C ) :   1.1451 B( 16-S , 20-C ) :   1.1098 B( 17-C , 18-C ) :   1.6662
B( 17-C , 33-H ) :   0.9584 B( 18-C , 19-C ) :   1.1938 B( 18-C , 21-H ) :   0.9823
B( 19-C , 20-C ) :   1.6376 B( 19-C , 22-C ) :   1.0254 B( 22-C , 23-H ) :   0.9148
B( 22-C , 24-H ) :   0.9331 B( 22-C , 25-C ) :   1.0953 B( 25-C , 26-H ) :   0.9472
B( 25-C , 27-H ) :   0.9456 B( 25-C , 28-C ) :   1.0928 B( 28-C , 29-H ) :   0.9696
B( 28-C , 30-H ) :   0.9697 B( 28-C , 31-H ) :   0.9714

Dispersion correction           -0.013568636
FINAL SINGLE POINT ENERGY     -1339.849887464288

DIPOLE MOMENT
-------------
                                X             Y             Z
Electronic contribution:     -4.67809      25.60923       8.53485
Nuclear contribution   :      4.82396     -26.22709      -8.84482
                        -----------------------------------------
Total Dipole Moment    :      0.14587      -0.61786      -0.30997
                        -----------------------------------------
Magnitude (a.u.)       :      0.70648
Magnitude (Debye)      :      1.79572

Rotational constants in cm-1:     0.021100     0.007441     0.005823
Rotational constants in MHz :   632.562618   223.078433   174.576099

                             ****ORCA TERMINATED NORMALLY****
TOTAL RUN TIME: 0 days 0 hours 0 minutes 34 seconds 95 msec
