                         Program Version 4.2.1 -  RELEASE  -
|  1> ! wB97X-D3 SP def2-SVP
|  2> %pal
|  3> nprocs 16
|  4> end
|  5>
|  6> * xyz 0 1
|  7> S 	 -38.8449 	 -0.455732 	 99.3505
|  8> C 	 -39.6642 	 -2.02261 	 99.2762
|  9> C 	 -38.7813 	 -3.01921 	 98.9524
| 10> C 	 -37.5215 	 -2.53527 	 98.5863
| 11> C 	 -37.3884 	 -1.15434 	 98.6827
| 12> H 	 -36.727 	 -3.04073 	 98.1439
| 13> C 	 -39.0668 	 -4.4652 	 98.6646
| 14> H 	 -39.9726 	 -4.68095 	 99.2944
| 15> H 	 -38.3678 	 -5.09256 	 99.1075
| 16> C 	 -39.4481 	 -4.8177 	 97.2148
| 17> H 	 -38.6536 	 -4.52175 	 96.6131
| 18> H 	 -39.6139 	 -5.92625 	 97.1771
| 19> C 	 -40.8012 	 -4.32407 	 96.7323
| 20> H 	 -40.8187 	 -3.26331 	 96.591
| 21> H 	 -40.9306 	 -4.72449 	 95.7022
| 22> H 	 -41.5675 	 -4.70536 	 97.4414
| 23> S 	 -35.6944 	 0.868956 	 99.3329
| 24> C 	 -34.8377 	 1.64259 	 98.0212
| 25> C 	 -34.9938 	 0.95068 	 96.8477
| 26> C 	 -35.9595 	 -0.0759126 	 96.928
| 27> C 	 -36.3804 	 -0.303619 	 98.2621
| 28> H 	 -34.4827 	 1.24248 	 95.9462
| 29> C 	 -36.2015 	 -0.926792 	 95.7784
| 30> H 	 -36.9448 	 -1.7792 	 95.9544
| 31> H 	 -35.2502 	 -1.49327 	 95.593
| 32> C 	 -36.5868 	 -0.309337 	 94.4192
| 33> H 	 -35.7331 	 0.268746 	 94.1204
| 34> H 	 -37.2952 	 0.567586 	 94.4182
| 35> C 	 -36.9842 	 -1.3617 	 93.3645
| 36> H 	 -37.2787 	 -0.809403 	 92.4745
| 37> H 	 -37.8447 	 -1.93043 	 93.6182
| 38> H 	 -36.1 	 -2.01273 	 92.947
| 39> H 	 -40.7458 	 -2.16313 	 99.4316
| 40> H 	 -34.2262 	 2.52792 	 98.1096
| 41> *
| 42>
| 43>                          ****END OF INPUT****

CARTESIAN COORDINATES (ANGSTROEM)
---------------------------------
  S    -38.844900   -0.455732   99.350500
  C    -39.664200   -2.022610   99.276200
  C    -38.781300   -3.019210   98.952400
  C    -37.521500   -2.535270   98.586300
  C    -37.388400   -1.154340   98.682700
  H    -36.727000   -3.040730   98.143900
  C    -39.066800   -4.465200   98.664600
  H    -39.972600   -4.680950   99.294400
  H    -38.367800   -5.092560   99.107500
  C    -39.448100   -4.817700   97.214800
  H    -38.653600   -4.521750   96.613100
  H    -39.613900   -5.926250   97.177100
  C    -40.801200   -4.324070   96.732300
  H    -40.818700   -3.263310   96.591000
  H    -40.930600   -4.724490   95.702200
  H    -41.567500   -4.705360   97.441400
  S    -35.694400    0.868956   99.332900
  C    -34.837700    1.642590   98.021200
  C    -34.993800    0.950680   96.847700
  C    -35.959500   -0.075913   96.928000
  C    -36.380400   -0.303619   98.262100
  H    -34.482700    1.242480   95.946200
  C    -36.201500   -0.926792   95.778400
  H    -36.944800   -1.779200   95.954400
  H    -35.250200   -1.493270   95.593000
  C    -36.586800   -0.309337   94.419200
  H    -35.733100    0.268746   94.120400
  H    -37.295200    0.567586   94.418200
  C    -36.984200   -1.361700   93.364500
  H    -37.278700   -0.809403   92.474500
  H    -37.844700   -1.930430   93.618200
  H    -36.100000   -2.012730   92.947000
  H    -40.745800   -2.163130   99.431600
  H    -34.226200    2.527920   98.109600

 Total Charge           Charge          ....    0
 Multiplicity           Mult            ....    1
 Number of Electrons    NEL             ....  134
 Basis Dimension        Dim             ....  322

ORBITAL ENERGIES
----------------

  NO   OCC          E(Eh)            E(eV)
   0   2.0000     -88.967085     -2420.9175
   1   2.0000     -88.961872     -2420.7756
   2   2.0000     -10.319960      -280.8204
   3   2.0000     -10.318910      -280.7918
   4   2.0000     -10.316148      -280.7167
   5   2.0000     -10.315078      -280.6875
   6   2.0000     -10.299596      -280.2662
   7   2.0000     -10.294441      -280.1260
   8   2.0000     -10.294002      -280.1140
   9   2.0000     -10.290759      -280.0258
  10   2.0000     -10.290094      -280.0077
  11   2.0000     -10.286867      -279.9199
  12   2.0000     -10.285754      -279.8896
  13   2.0000     -10.284850      -279.8650
  14   2.0000     -10.284381      -279.8522
  15   2.0000     -10.279773      -279.7268
  16   2.0000      -8.082168      -219.9270
  17   2.0000      -8.076706      -219.7783
  18   2.0000      -6.040586      -164.3727
  19   2.0000      -6.036577      -164.2636
  20   2.0000      -6.035154      -164.2249
  21   2.0000      -6.033054      -164.1677
  22   2.0000      -6.031227      -164.1180
  23   2.0000      -6.027465      -164.0156
  24   2.0000      -1.012533       -27.5524
  25   2.0000      -0.985920       -26.8283
  26   2.0000      -0.915794       -24.9200
  27   2.0000      -0.910489       -24.7757
  28   2.0000      -0.876217       -23.8431
  29   2.0000      -0.854849       -23.2616
  30   2.0000      -0.848489       -23.0886
  31   2.0000      -0.813736       -22.1429
  32   2.0000      -0.785731       -21.3808
  33   2.0000      -0.770090       -20.9552
  34   2.0000      -0.713571       -19.4173
  35   2.0000      -0.701043       -19.0764
  36   2.0000      -0.695612       -18.9286
  37   2.0000      -0.658333       -17.9141
  38   2.0000      -0.644641       -17.5416
  39   2.0000      -0.623023       -16.9533
  40   2.0000      -0.604571       -16.4512
  41   2.0000      -0.572561       -15.5802
  42   2.0000      -0.556792       -15.1511
  43   2.0000      -0.555435       -15.1141
  44   2.0000      -0.545553       -14.8452
  45   2.0000      -0.523464       -14.2442
  46   2.0000      -0.517725       -14.0880
  47   2.0000      -0.516189       -14.0462
  48   2.0000      -0.503755       -13.7079
  49   2.0000      -0.501527       -13.6472
  50   2.0000      -0.490039       -13.3346
  51   2.0000      -0.480300       -13.0696
  52   2.0000      -0.472201       -12.8492
  53   2.0000      -0.466174       -12.6852
  54   2.0000      -0.460296       -12.5253
  55   2.0000      -0.449318       -12.2266
  56   2.0000      -0.443606       -12.0711
  57   2.0000      -0.437621       -11.9083
  58   2.0000      -0.434442       -11.8218
  59   2.0000      -0.425142       -11.5687
  60   2.0000      -0.421912       -11.4808
  61   2.0000      -0.412852       -11.2343
  62   2.0000      -0.404415       -11.0047
  63   2.0000      -0.340315        -9.2604
  64   2.0000      -0.333617        -9.0782
  65   2.0000      -0.328373        -8.9355
  66   2.0000      -0.288287        -7.8447
  67   0.0000       0.031164         0.8480
  68   0.0000       0.063179         1.7192
  69   0.0000       0.113191         3.0801
  70   0.0000       0.117855         3.2070
  71   0.0000       0.131511         3.5786

MULLIKEN ATOMIC CHARGES
-----------------------
   0 S :    0.111811
   1 C :   -0.143564
   2 C :   -0.063791
   3 C :    0.048758
   4 C :   -0.159956
   5 H :   -0.013603
   6 C :    0.078576
   7 H :    0.004840
   8 H :    0.015314
   9 C :   -0.051889
  10 H :    0.014742
  11 H :    0.035820
  12 C :   -0.057419
  13 H :    0.035093
  14 H :    0.036841
  15 H :    0.038604
  16 S :    0.117701
  17 C :   -0.090696
  18 C :   -0.027158
  19 C :    0.032092
  20 C :   -0.173807
  21 H :    0.018102
  22 C :   -0.008090
  23 H :    0.032395
  24 H :    0.045385
  25 C :   -0.088543
  26 H :    0.010203
  27 H :    0.035609
  28 C :   -0.055974
  29 H :    0.026007
  30 H :    0.037807
  31 H :    0.048135
  32 H :    0.055715
  33 H :    0.054941
Sum of atomic charges:   -0.0000000

LOEWDIN ATOMIC CHARGES
----------------------
   0 S :    0.400019
   1 C :   -0.190807
   2 C :   -0.069983
   3 C :   -0.052486
   4 C :   -0.189985
   5 H :    0.020806
   6 C :   -0.032387
   7 H :    0.030467
   8 H :    0.022567
   9 C :   -0.034390
  10 H :    0.011107
  11 H :    0.033032
  12 C :   -0.064011
  13 H :    0.019097
  14 H :    0.032794
  15 H :    0.029549
  16 S :    0.420521
  17 C :   -0.182469
  18 C :   -0.068145
  19 C :   -0.052601
  20 C :   -0.220050
  21 H :    0.030200
  22 C :   -0.048341
  23 H :    0.033523
  24 H :    0.043166
  25 C :   -0.050147
  26 H :    0.016930
  27 H :    0.031846
  28 C :   -0.070784
  29 H :    0.028282
  30 H :    0.020984
  31 H :    0.039002
  32 H :    0.033318
  33 H :    0.029375

  Mayer bond orders larger than 0.100000
B(  0-S ,  1-C ) :   1.1390 B(  0-S ,  4-C ) :   1.1448 B(  1-C ,  2-C ) :   1.6070
B(  1-C ,  4-C ) :   0.1030 B(  1-C , 32-H ) :   0.9670 B(  2-C ,  3-C ) :   1.2205
B(  2-C ,  6-C ) :   1.0339 B(  3-C ,  4-C ) :   1.5641 B(  3-C ,  5-H ) :   1.0132
B(  4-C , 20-C ) :   1.0890 B(  6-C ,  7-H ) :   0.9318 B(  6-C ,  8-H ) :   0.9366
B(  6-C ,  9-C ) :   1.0664 B(  9-C , 10-H ) :   0.9563 B(  9-C , 11-H ) :   0.9550
B(  9-C , 12-C ) :   1.0826 B( 12-C , 13-H ) :   0.9748 B( 12-C , 14-H ) :   0.9715
B( 12-C , 15-H ) :   0.9736 B( 16-S , 17-C ) :   1.1576 B( 16-S , 20-C ) :   1.1433
B( 17-C , 18-C ) :   1.5937 B( 17-C , 33-H ) :   0.9683 B( 18-C , 19-C ) :   1.2527
B( 18-C , 21-H ) :   0.9907 B( 19-C , 20-C ) :   1.5311 B( 19-C , 22-C ) :   1.0679
B( 22-C , 23-H ) :   0.9384 B( 22-C , 24-H ) :   0.9296 B( 22-C , 25-C ) :   1.0402
B( 25-C , 26-H ) :   0.9465 B( 25-C , 27-H ) :   0.9582 B( 25-C , 28-C ) :   1.0902
B( 28-C , 29-H ) :   0.9706 B( 28-C , 30-H ) :   0.9748 B( 28-C , 31-H ) :   0.9722

Dispersion correction           -0.014578177
FINAL SINGLE POINT ENERGY     -1339.863725655497

DIPOLE MOMENT
-------------
                                X             Y             Z
Electronic contribution:      7.94231      18.39195      24.10748
Nuclear contribution   :     -7.89088     -18.71585     -24.82849
                        -----------------------------------------
Total Dipole Moment    :      0.05143      -0.32390      -0.72100
                        -----------------------------------------
Magnitude (a.u.)       :      0.79209
Magnitude (Debye)      :      2.01332

Rotational constants in cm-1:     0.017533     0.009999     0.007064
Rotational constants in MHz :   525.617583   299.755261   211.768486

                             ****ORCA TERMINATED NORMALLY****
TOTAL RUN TIME: 0 days 0 hours 0 minutes 31 seconds 38 msec
