                         Program Version 4.2.1 -  RELEASE  -
|  1> ! wB97X-D3 SP def2-SVP
|  2> %pal
|  3> nprocs 16
|  4> end
|  5>
|  6> * xyz 0 1
|  7> S 	 -20.0482 	 -4.26909 	 79.3241
|  8> C 	 -20.27 	 -5.48346 	 78.1292
|  9> C 	 -21.0518 	 -6.55605 	 78.5872
| 10> C 	 -21.2847 	 -6.44452 	 79.9669
| 11> C 	 -20.8232 	 -5.24054 	 80.54
| 12> H 	 -21.7837 	 -7.20647 	 80.6438
| 13> C 	 -21.5241 	 -7.69823 	 77.7635
| 14> H 	 -22.093 	 -8.44558 	 78.3475
| 15> H 	 -20.6904 	 -8.1879 	 77.2838
| 16> C 	 -22.4745 	 -7.33653 	 76.5895
| 17> H 	 -21.9914 	 -6.72137 	 75.8368
| 18> H 	 -22.7924 	 -8.15421 	 76.0108
| 19> C 	 -23.7669 	 -6.58351 	 76.985
| 20> H 	 -24.1982 	 -6.95532 	 77.8933
| 21> H 	 -23.7301 	 -5.46947 	 77.1289
| 22> H 	 -24.5277 	 -6.64305 	 76.181
| 23> S 	 -22.5333 	 -4.46011 	 82.5913
| 24> C 	 -21.9439 	 -4.23748 	 84.181
| 25> C 	 -20.5308 	 -4.26674 	 84.2037
| 26> C 	 -19.9631 	 -4.62674 	 82.9408
| 27> C 	 -20.9224 	 -4.90525 	 81.9653
| 28> H 	 -20.0343 	 -4.11845 	 85.2016
| 29> C 	 -18.4213 	 -4.71716 	 82.9225
| 30> H 	 -18.3169 	 -5.57474 	 82.2121
| 31> H 	 -18.0348 	 -5.1632 	 83.8828
| 32> C 	 -17.52 	 -3.4321 	 82.6665
| 33> H 	 -17.9313 	 -2.82547 	 83.3859
| 34> H 	 -17.6415 	 -3.16174 	 81.6731
| 35> C 	 -16.0937 	 -3.60529 	 83.1265
| 36> H 	 -16.1313 	 -3.4099 	 84.1666
| 37> H 	 -15.2777 	 -2.99858 	 82.6589
| 38> H 	 -15.7969 	 -4.64968 	 83.0374
| 39> H 	 -19.79 	 -5.46509 	 77.1859
| 40> H 	 -22.5434 	 -4.04036 	 85.045
| 41> *
| 42>
| 43>                          ****END OF INPUT****

CARTESIAN COORDINATES (ANGSTROEM)
---------------------------------
  S    -20.048200   -4.269090   79.324100
  C    -20.270000   -5.483460   78.129200
  C    -21.051800   -6.556050   78.587200
  C    -21.284700   -6.444520   79.966900
  C    -20.823200   -5.240540   80.540000
  H    -21.783700   -7.206470   80.643800
  C    -21.524100   -7.698230   77.763500
  H    -22.093000   -8.445580   78.347500
  H    -20.690400   -8.187900   77.283800
  C    -22.474500   -7.336530   76.589500
  H    -21.991400   -6.721370   75.836800
  H    -22.792400   -8.154210   76.010800
  C    -23.766900   -6.583510   76.985000
  H    -24.198200   -6.955320   77.893300
  H    -23.730100   -5.469470   77.128900
  H    -24.527700   -6.643050   76.181000
  S    -22.533300   -4.460110   82.591300
  C    -21.943900   -4.237480   84.181000
  C    -20.530800   -4.266740   84.203700
  C    -19.963100   -4.626740   82.940800
  C    -20.922400   -4.905250   81.965300
  H    -20.034300   -4.118450   85.201600
  C    -18.421300   -4.717160   82.922500
  H    -18.316900   -5.574740   82.212100
  H    -18.034800   -5.163200   83.882800
  C    -17.520000   -3.432100   82.666500
  H    -17.931300   -2.825470   83.385900
  H    -17.641500   -3.161740   81.673100
  C    -16.093700   -3.605290   83.126500
  H    -16.131300   -3.409900   84.166600
  H    -15.277700   -2.998580   82.658900
  H    -15.796900   -4.649680   83.037400
  H    -19.790000   -5.465090   77.185900
  H    -22.543400   -4.040360   85.045000

 Total Charge           Charge          ....    0
 Multiplicity           Mult            ....    1
 Number of Electrons    NEL             ....  134
 Basis Dimension        Dim             ....  322

ORBITAL ENERGIES
----------------

  NO   OCC          E(Eh)            E(eV)
   0   2.0000     -88.971861     -2421.0474
   1   2.0000     -88.965382     -2420.8711
   2   2.0000     -10.330411      -281.1048
   3   2.0000     -10.328544      -281.0540
   4   2.0000     -10.315978      -280.7120
   5   2.0000     -10.312918      -280.6288
   6   2.0000     -10.308443      -280.5070
   7   2.0000     -10.301207      -280.3101
   8   2.0000     -10.298985      -280.2496
   9   2.0000     -10.297447      -280.2078
  10   2.0000     -10.296511      -280.1823
  11   2.0000     -10.293862      -280.1102
  12   2.0000     -10.283365      -279.8246
  13   2.0000     -10.275936      -279.6224
  14   2.0000     -10.274958      -279.5958
  15   2.0000     -10.274539      -279.5844
  16   2.0000      -8.086649      -220.0489
  17   2.0000      -8.080160      -219.8723
  18   2.0000      -6.044944      -164.4913
  19   2.0000      -6.040949      -164.3826
  20   2.0000      -6.038555      -164.3174
  21   2.0000      -6.037849      -164.2982
  22   2.0000      -6.034598      -164.2098
  23   2.0000      -6.031097      -164.1145
  24   2.0000      -1.005261       -27.3546
  25   2.0000      -0.984684       -26.7946
  26   2.0000      -0.910691       -24.7812
  27   2.0000      -0.905652       -24.6440
  28   2.0000      -0.863760       -23.5041
  29   2.0000      -0.853513       -23.2253
  30   2.0000      -0.849897       -23.1269
  31   2.0000      -0.806491       -21.9457
  32   2.0000      -0.780741       -21.2450
  33   2.0000      -0.769193       -20.9308
  34   2.0000      -0.706440       -19.2232
  35   2.0000      -0.705131       -19.1876
  36   2.0000      -0.692827       -18.8528
  37   2.0000      -0.658922       -17.9302
  38   2.0000      -0.640388       -17.4258
  39   2.0000      -0.609176       -16.5765
  40   2.0000      -0.587857       -15.9964
  41   2.0000      -0.577103       -15.7038
  42   2.0000      -0.571810       -15.5597
  43   2.0000      -0.551835       -15.0162
  44   2.0000      -0.543129       -14.7793
  45   2.0000      -0.519846       -14.1457
  46   2.0000      -0.511872       -13.9287
  47   2.0000      -0.507800       -13.8179
  48   2.0000      -0.503718       -13.7069
  49   2.0000      -0.497352       -13.5336
  50   2.0000      -0.485372       -13.2076
  51   2.0000      -0.478282       -13.0147
  52   2.0000      -0.470069       -12.7912
  53   2.0000      -0.464977       -12.6527
  54   2.0000      -0.463884       -12.6229
  55   2.0000      -0.446041       -12.1374
  56   2.0000      -0.439544       -11.9606
  57   2.0000      -0.435567       -11.8524
  58   2.0000      -0.430974       -11.7274
  59   2.0000      -0.424094       -11.5402
  60   2.0000      -0.417485       -11.3603
  61   2.0000      -0.413162       -11.2427
  62   2.0000      -0.410232       -11.1630
  63   2.0000      -0.338660        -9.2154
  64   2.0000      -0.328347        -8.9348
  65   2.0000      -0.324530        -8.8309
  66   2.0000      -0.300271        -8.1708
  67   0.0000       0.028519         0.7761
  68   0.0000       0.062536         1.7017
  69   0.0000       0.108733         2.9588
  70   0.0000       0.117710         3.2031
  71   0.0000       0.129540         3.5250

MULLIKEN ATOMIC CHARGES
-----------------------
   0 S :    0.148025
   1 C :   -0.123639
   2 C :   -0.051283
   3 C :   -0.001960
   4 C :   -0.180005
   5 H :    0.039891
   6 C :    0.079061
   7 H :    0.029164
   8 H :    0.033118
   9 C :   -0.054003
  10 H :    0.017494
  11 H :    0.018204
  12 C :   -0.080778
  13 H :    0.021375
  14 H :    0.040526
  15 H :    0.028447
  16 S :    0.118214
  17 C :   -0.091173
  18 C :   -0.071115
  19 C :   -0.001708
  20 C :   -0.185460
  21 H :    0.040636
  22 C :   -0.033458
  23 H :    0.034867
  24 H :    0.023155
  25 C :    0.048815
  26 H :    0.004796
  27 H :    0.022152
  28 C :   -0.061584
  29 H :    0.018197
  30 H :    0.048881
  31 H :    0.028341
  32 H :    0.039402
  33 H :    0.053406
Sum of atomic charges:   -0.0000000

LOEWDIN ATOMIC CHARGES
----------------------
   0 S :    0.442299
   1 C :   -0.198953
   2 C :   -0.066258
   3 C :   -0.061515
   4 C :   -0.219449
   5 H :    0.044236
   6 C :   -0.029510
   7 H :    0.033817
   8 H :    0.034636
   9 C :   -0.038284
  10 H :    0.020975
  11 H :    0.019601
  12 C :   -0.075256
  13 H :    0.017647
  14 H :    0.031104
  15 H :    0.027505
  16 S :    0.417869
  17 C :   -0.195228
  18 C :   -0.084239
  19 C :   -0.055331
  20 C :   -0.199948
  21 H :    0.039580
  22 C :   -0.038553
  23 H :    0.031263
  24 H :    0.030584
  25 C :   -0.020959
  26 H :    0.017004
  27 H :    0.013755
  28 C :   -0.065897
  29 H :    0.021456
  30 H :    0.035267
  31 H :    0.024151
  32 H :    0.020671
  33 H :    0.025960

  Mayer bond orders larger than 0.100000
B(  0-S ,  1-C ) :   1.1794 B(  0-S ,  4-C ) :   1.1652 B(  1-C ,  2-C ) :   1.5343
B(  1-C ,  4-C ) :   0.1080 B(  1-C , 32-H ) :   0.9744 B(  2-C ,  3-C ) :   1.2968
B(  2-C ,  6-C ) :   1.0309 B(  3-C ,  4-C ) :   1.5283 B(  3-C ,  5-H ) :   0.9833
B(  4-C , 20-C ) :   1.0395 B(  6-C ,  7-H ) :   0.9472 B(  6-C ,  8-H ) :   0.9321
B(  6-C ,  9-C ) :   1.0770 B(  9-C , 10-H ) :   0.9534 B(  9-C , 11-H ) :   0.9593
B(  9-C , 12-C ) :   1.0654 B( 12-C , 13-H ) :   0.9796 B( 12-C , 14-H ) :   0.9749
B( 12-C , 15-H ) :   0.9764 B( 16-S , 17-C ) :   1.1820 B( 16-S , 20-C ) :   1.1442
B( 17-C , 18-C ) :   1.5803 B( 17-C , 20-C ) :   0.1054 B( 17-C , 33-H ) :   0.9696
B( 18-C , 19-C ) :   1.2508 B( 18-C , 21-H ) :   0.9832 B( 19-C , 20-C ) :   1.5800
B( 19-C , 22-C ) :   1.0260 B( 22-C , 23-H ) :   0.9329 B( 22-C , 24-H ) :   0.9499
B( 22-C , 25-C ) :   1.0402 B( 25-C , 26-H ) :   0.9604 B( 25-C , 27-H ) :   0.9582
B( 25-C , 28-C ) :   1.0751 B( 28-C , 29-H ) :   0.9781 B( 28-C , 30-H ) :   0.9743
B( 28-C , 31-H ) :   0.9769

Dispersion correction           -0.014136689
FINAL SINGLE POINT ENERGY     -1339.859626727383

DIPOLE MOMENT
-------------
                                X             Y             Z
Electronic contribution:     -7.86374       6.37335       5.92227
Nuclear contribution   :      8.07975      -6.63081      -5.94467
                        -----------------------------------------
Total Dipole Moment    :      0.21601      -0.25745      -0.02239
                        -----------------------------------------
Magnitude (a.u.)       :      0.33682
Magnitude (Debye)      :      0.85612

Rotational constants in cm-1:     0.021679     0.007738     0.006197
Rotational constants in MHz :   649.914432   231.980391   185.778800

                             ****ORCA TERMINATED NORMALLY****
TOTAL RUN TIME: 0 days 0 hours 0 minutes 32 seconds 176 msec
