                         Program Version 4.2.1 -  RELEASE  -
|  1> ! wB97X-D3 SP def2-SVP
|  2> %pal
|  3> nprocs 16
|  4> end
|  5>
|  6> * xyz 0 1
|  7> S 	 15.2818 	 20.4108 	 41.222
|  8> C 	 15.7781 	 18.8096 	 40.7129
|  9> C 	 14.7272 	 18.1621 	 40.1479
| 10> C 	 13.512 	 18.8255 	 40.0988
| 11> C 	 13.6621 	 20.0792 	 40.6735
| 12> H 	 12.6013 	 18.5271 	 39.6061
| 13> C 	 14.9556 	 16.8044 	 39.4087
| 14> H 	 14.1247 	 16.1288 	 39.6069
| 15> H 	 15.7017 	 16.1968 	 39.9576
| 16> C 	 15.1669 	 16.7455 	 37.8334
| 17> H 	 15.0464 	 15.6987 	 37.4864
| 18> H 	 14.5359 	 17.4267 	 37.3771
| 19> C 	 16.518 	 17.3033 	 37.4968
| 20> H 	 16.7544 	 17.3311 	 36.3823
| 21> H 	 16.5306 	 18.4265 	 37.5869
| 22> H 	 17.3403 	 16.7815 	 38.0523
| 23> S 	 13.4521 	 22.719 	 39.9885
| 24> C 	 11.8695 	 23.3274 	 39.7275
| 25> C 	 10.8767 	 22.5536 	 40.2312
| 26> C 	 11.4069 	 21.3282 	 40.849
| 27> C 	 12.7641 	 21.1853 	 40.5381
| 28> H 	 9.84681 	 22.777 	 40.1663
| 29> C 	 10.6441 	 20.2065 	 41.4837
| 30> H 	 11.2012 	 19.2791 	 41.4255
| 31> H 	 9.77485 	 19.9405 	 40.888
| 32> C 	 10.1906 	 20.5052 	 42.9422
| 33> H 	 11.0925 	 20.508 	 43.5048
| 34> H 	 9.58934 	 19.6488 	 43.3631
| 35> C 	 9.47267 	 21.7989 	 43.2139
| 36> H 	 9.97128 	 22.6644 	 42.8377
| 37> H 	 9.2691 	 22.0484 	 44.2851
| 38> H 	 8.51364 	 21.7902 	 42.7212
| 39> H 	 16.7427 	 18.3307 	 40.8065
| 40> H 	 11.7309 	 24.2578 	 39.2569
| 41> *
| 42>
| 43>                          ****END OF INPUT****

CARTESIAN COORDINATES (ANGSTROEM)
---------------------------------
  S     15.281800   20.410800   41.222000
  C     15.778100   18.809600   40.712900
  C     14.727200   18.162100   40.147900
  C     13.512000   18.825500   40.098800
  C     13.662100   20.079200   40.673500
  H     12.601300   18.527100   39.606100
  C     14.955600   16.804400   39.408700
  H     14.124700   16.128800   39.606900
  H     15.701700   16.196800   39.957600
  C     15.166900   16.745500   37.833400
  H     15.046400   15.698700   37.486400
  H     14.535900   17.426700   37.377100
  C     16.518000   17.303300   37.496800
  H     16.754400   17.331100   36.382300
  H     16.530600   18.426500   37.586900
  H     17.340300   16.781500   38.052300
  S     13.452100   22.719000   39.988500
  C     11.869500   23.327400   39.727500
  C     10.876700   22.553600   40.231200
  C     11.406900   21.328200   40.849000
  C     12.764100   21.185300   40.538100
  H      9.846810   22.777000   40.166300
  C     10.644100   20.206500   41.483700
  H     11.201200   19.279100   41.425500
  H      9.774850   19.940500   40.888000
  C     10.190600   20.505200   42.942200
  H     11.092500   20.508000   43.504800
  H      9.589340   19.648800   43.363100
  C      9.472670   21.798900   43.213900
  H      9.971280   22.664400   42.837700
  H      9.269100   22.048400   44.285100
  H      8.513640   21.790200   42.721200
  H     16.742700   18.330700   40.806500
  H     11.730900   24.257800   39.256900

 Total Charge           Charge          ....    0
 Multiplicity           Mult            ....    1
 Number of Electrons    NEL             ....  134
 Basis Dimension        Dim             ....  322

ORBITAL ENERGIES
----------------

  NO   OCC          E(Eh)            E(eV)
   0   2.0000     -88.969519     -2420.9837
   1   2.0000     -88.961873     -2420.7756
   2   2.0000     -10.328275      -281.0466
   3   2.0000     -10.323791      -280.9246
   4   2.0000     -10.310400      -280.5602
   5   2.0000     -10.309985      -280.5490
   6   2.0000     -10.305633      -280.4305
   7   2.0000     -10.297699      -280.2146
   8   2.0000     -10.294215      -280.1198
   9   2.0000     -10.294064      -280.1157
  10   2.0000     -10.293560      -280.1020
  11   2.0000     -10.289665      -279.9960
  12   2.0000     -10.286625      -279.9133
  13   2.0000     -10.283873      -279.8384
  14   2.0000     -10.281783      -279.7815
  15   2.0000     -10.271327      -279.4970
  16   2.0000      -8.084361      -219.9866
  17   2.0000      -8.077518      -219.8004
  18   2.0000      -6.042827      -164.4337
  19   2.0000      -6.038878      -164.3262
  20   2.0000      -6.035976      -164.2473
  21   2.0000      -6.035139      -164.2245
  22   2.0000      -6.032129      -164.1426
  23   2.0000      -6.028033      -164.0311
  24   2.0000      -1.013985       -27.5919
  25   2.0000      -0.987455       -26.8700
  26   2.0000      -0.908998       -24.7351
  27   2.0000      -0.905841       -24.6492
  28   2.0000      -0.873617       -23.7723
  29   2.0000      -0.856200       -23.2984
  30   2.0000      -0.844493       -22.9798
  31   2.0000      -0.816328       -22.2134
  32   2.0000      -0.785212       -21.3667
  33   2.0000      -0.770104       -20.9556
  34   2.0000      -0.711272       -19.3547
  35   2.0000      -0.694245       -18.8914
  36   2.0000      -0.691584       -18.8189
  37   2.0000      -0.663398       -18.0520
  38   2.0000      -0.641990       -17.4694
  39   2.0000      -0.622791       -16.9470
  40   2.0000      -0.600197       -16.3322
  41   2.0000      -0.570192       -15.5157
  42   2.0000      -0.555177       -15.1071
  43   2.0000      -0.550831       -14.9889
  44   2.0000      -0.541800       -14.7431
  45   2.0000      -0.535396       -14.5689
  46   2.0000      -0.518172       -14.1002
  47   2.0000      -0.512677       -13.9506
  48   2.0000      -0.500247       -13.6124
  49   2.0000      -0.492653       -13.4058
  50   2.0000      -0.489707       -13.3256
  51   2.0000      -0.485549       -13.2125
  52   2.0000      -0.473623       -12.8879
  53   2.0000      -0.465627       -12.6704
  54   2.0000      -0.456695       -12.4273
  55   2.0000      -0.449402       -12.2288
  56   2.0000      -0.444161       -12.0862
  57   2.0000      -0.435240       -11.8435
  58   2.0000      -0.429895       -11.6980
  59   2.0000      -0.420231       -11.4351
  60   2.0000      -0.416383       -11.3304
  61   2.0000      -0.412905       -11.2357
  62   2.0000      -0.408824       -11.1247
  63   2.0000      -0.353340        -9.6149
  64   2.0000      -0.337789        -9.1917
  65   2.0000      -0.327814        -8.9203
  66   2.0000      -0.285660        -7.7732
  67   0.0000       0.024603         0.6695
  68   0.0000       0.069941         1.9032
  69   0.0000       0.106588         2.9004
  70   0.0000       0.120489         3.2787
  71   0.0000       0.135565         3.6889

MULLIKEN ATOMIC CHARGES
-----------------------
   0 S :    0.107177
   1 C :   -0.103526
   2 C :   -0.066404
   3 C :    0.033451
   4 C :   -0.149355
   5 H :    0.022496
   6 C :    0.014602
   7 H :    0.011488
   8 H :    0.017059
   9 C :    0.007105
  10 H :    0.042875
  11 H :    0.013247
  12 C :   -0.115603
  13 H :    0.032031
  14 H :    0.043282
  15 H :    0.038702
  16 S :    0.100552
  17 C :   -0.064122
  18 C :   -0.000140
  19 C :   -0.054124
  20 C :   -0.159985
  21 H :    0.006210
  22 C :    0.074102
  23 H :    0.017083
  24 H :    0.019847
  25 C :   -0.063404
  26 H :    0.022527
  27 H :    0.035213
  28 C :   -0.051411
  29 H :    0.031607
  30 H :    0.039668
  31 H :    0.016072
  32 H :    0.042070
  33 H :    0.039610
Sum of atomic charges:   -0.0000000

LOEWDIN ATOMIC CHARGES
----------------------
   0 S :    0.409860
   1 C :   -0.196116
   2 C :   -0.067114
   3 C :   -0.059153
   4 C :   -0.185577
   5 H :    0.036174
   6 C :   -0.037590
   7 H :    0.024819
   8 H :    0.028047
   9 C :   -0.032828
  10 H :    0.031265
  11 H :    0.017997
  12 C :   -0.084829
  13 H :    0.029217
  14 H :    0.033323
  15 H :    0.024144
  16 S :    0.396356
  17 C :   -0.181432
  18 C :   -0.061992
  19 C :   -0.050643
  20 C :   -0.190203
  21 H :    0.025273
  22 C :   -0.034979
  23 H :    0.031974
  24 H :    0.026672
  25 C :   -0.039335
  26 H :    0.020721
  27 H :    0.030257
  28 C :   -0.070829
  29 H :    0.021611
  30 H :    0.034465
  31 H :    0.019781
  32 H :    0.031564
  33 H :    0.019100

  Mayer bond orders larger than 0.100000
B(  0-S ,  1-C ) :   1.1155 B(  0-S ,  4-C ) :   1.1653 B(  1-C ,  2-C ) :   1.6241
B(  1-C , 32-H ) :   0.9685 B(  2-C ,  3-C ) :   1.2574 B(  2-C ,  6-C ) :   1.0139
B(  3-C ,  4-C ) :   1.5336 B(  3-C ,  5-H ) :   0.9961 B(  4-C , 20-C ) :   1.0702
B(  6-C ,  7-H ) :   0.9413 B(  6-C ,  8-H ) :   0.9464 B(  6-C ,  9-C ) :   1.0579
B(  9-C , 10-H ) :   0.9548 B(  9-C , 11-H ) :   0.9530 B(  9-C , 12-C ) :   1.0824
B( 12-C , 13-H ) :   0.9693 B( 12-C , 14-H ) :   0.9718 B( 12-C , 15-H ) :   0.9757
B( 16-S , 17-C ) :   1.1453 B( 16-S , 20-C ) :   1.1215 B( 17-C , 18-C ) :   1.6276
B( 17-C , 33-H ) :   0.9740 B( 18-C , 19-C ) :   1.1904 B( 18-C , 21-H ) :   1.0002
B( 19-C , 20-C ) :   1.6060 B( 19-C , 22-C ) :   1.0468 B( 22-C , 23-H ) :   0.9305
B( 22-C , 24-H ) :   0.9364 B( 22-C , 25-C ) :   1.0610 B( 25-C , 26-H ) :   0.9519
B( 25-C , 27-H ) :   0.9550 B( 25-C , 28-C ) :   1.0928 B( 28-C , 29-H ) :   0.9664
B( 28-C , 30-H ) :   0.9708 B( 28-C , 31-H ) :   0.9729

Dispersion correction           -0.014614126
FINAL SINGLE POINT ENERGY     -1339.865966505707

DIPOLE MOMENT
-------------
                                X             Y             Z
Electronic contribution:      8.39351      15.24713       2.10661
Nuclear contribution   :     -8.76361     -15.57705      -2.34519
                        -----------------------------------------
Total Dipole Moment    :     -0.37009      -0.32991      -0.23857
                        -----------------------------------------
Magnitude (a.u.)       :      0.55021
Magnitude (Debye)      :      1.39852

Rotational constants in cm-1:     0.023449     0.007663     0.006926
Rotational constants in MHz :   702.992727   229.725812   207.631726

                             ****ORCA TERMINATED NORMALLY****
TOTAL RUN TIME: 0 days 0 hours 0 minutes 35 seconds 692 msec
