                         Program Version 4.2.1 -  RELEASE  -
|  1> ! wB97X-D3 SP def2-SVP
|  2> %pal
|  3> nprocs 16
|  4> end
|  5>
|  6> * xyz 0 1
|  7> S 	 -41.6262 	 18.354 	 78.0982
|  8> C 	 -41.6993 	 16.6051 	 78.3901
|  9> C 	 -42.628 	 15.9594 	 77.5916
| 10> C 	 -43.3558 	 16.9537 	 76.8185
| 11> C 	 -42.9626 	 18.2993 	 76.9351
| 12> H 	 -44.2085 	 16.6679 	 76.2424
| 13> C 	 -42.8827 	 14.4327 	 77.5887
| 14> H 	 -43.9486 	 14.2489 	 77.2686
| 15> H 	 -42.7997 	 14.0748 	 78.6112
| 16> C 	 -41.9191 	 13.5557 	 76.7377
| 17> H 	 -40.9648 	 13.5016 	 77.3791
| 18> H 	 -42.3162 	 12.583 	 76.841
| 19> C 	 -41.5728 	 14.0392 	 75.2883
| 20> H 	 -40.8903 	 14.8894 	 75.1703
| 21> H 	 -41.105 	 13.17 	 74.8464
| 22> H 	 -42.5374 	 14.1999 	 74.7583
| 23> S 	 -42.4022 	 20 	 74.864
| 24> C 	 -43.6562 	 21.1606 	 74.3655
| 25> C 	 -44.775 	 21.0559 	 75.1188
| 26> C 	 -44.6572 	 20.139 	 76.1525
| 27> C 	 -43.4535 	 19.4708 	 76.1945
| 28> H 	 -45.585 	 21.7347 	 74.8805
| 29> C 	 -45.7844 	 19.8489 	 77.1102
| 30> H 	 -45.5741 	 18.8494 	 77.6172
| 31> H 	 -46.7125 	 19.656 	 76.4803
| 32> C 	 -45.9956 	 20.8466 	 78.2652
| 33> H 	 -44.9709 	 20.9502 	 78.705
| 34> H 	 -46.7137 	 20.3885 	 78.9848
| 35> C 	 -46.4335 	 22.2152 	 77.7557
| 36> H 	 -45.9528 	 22.5008 	 76.7881
| 37> H 	 -46.2138 	 22.9958 	 78.5075
| 38> H 	 -47.5247 	 22.2579 	 77.5394
| 39> H 	 -41.0932 	 16.0429 	 79.1354
| 40> H 	 -43.5045 	 21.8174 	 73.5429
| 41> *
| 42>
| 43>                          ****END OF INPUT****

CARTESIAN COORDINATES (ANGSTROEM)
---------------------------------
  S    -41.626200   18.354000   78.098200
  C    -41.699300   16.605100   78.390100
  C    -42.628000   15.959400   77.591600
  C    -43.355800   16.953700   76.818500
  C    -42.962600   18.299300   76.935100
  H    -44.208500   16.667900   76.242400
  C    -42.882700   14.432700   77.588700
  H    -43.948600   14.248900   77.268600
  H    -42.799700   14.074800   78.611200
  C    -41.919100   13.555700   76.737700
  H    -40.964800   13.501600   77.379100
  H    -42.316200   12.583000   76.841000
  C    -41.572800   14.039200   75.288300
  H    -40.890300   14.889400   75.170300
  H    -41.105000   13.170000   74.846400
  H    -42.537400   14.199900   74.758300
  S    -42.402200   20.000000   74.864000
  C    -43.656200   21.160600   74.365500
  C    -44.775000   21.055900   75.118800
  C    -44.657200   20.139000   76.152500
  C    -43.453500   19.470800   76.194500
  H    -45.585000   21.734700   74.880500
  C    -45.784400   19.848900   77.110200
  H    -45.574100   18.849400   77.617200
  H    -46.712500   19.656000   76.480300
  C    -45.995600   20.846600   78.265200
  H    -44.970900   20.950200   78.705000
  H    -46.713700   20.388500   78.984800
  C    -46.433500   22.215200   77.755700
  H    -45.952800   22.500800   76.788100
  H    -46.213800   22.995800   78.507500
  H    -47.524700   22.257900   77.539400
  H    -41.093200   16.042900   79.135400
  H    -43.504500   21.817400   73.542900

 Total Charge           Charge          ....    0
 Multiplicity           Mult            ....    1
 Number of Electrons    NEL             ....  134
 Basis Dimension        Dim             ....  322

ORBITAL ENERGIES
----------------

  NO   OCC          E(Eh)            E(eV)
   0   2.0000     -88.966477     -2420.9009
   1   2.0000     -88.962712     -2420.7985
   2   2.0000     -10.334585      -281.2184
   3   2.0000     -10.328541      -281.0539
   4   2.0000     -10.319504      -280.8080
   5   2.0000     -10.316458      -280.7251
   6   2.0000     -10.304955      -280.4121
   7   2.0000     -10.300969      -280.3036
   8   2.0000     -10.300782      -280.2985
   9   2.0000     -10.297823      -280.2180
  10   2.0000     -10.294219      -280.1199
  11   2.0000     -10.294183      -280.1190
  12   2.0000     -10.290313      -280.0137
  13   2.0000     -10.290192      -280.0104
  14   2.0000     -10.282780      -279.8087
  15   2.0000     -10.279345      -279.7152
  16   2.0000      -8.080250      -219.8748
  17   2.0000      -8.077083      -219.7886
  18   2.0000      -6.038872      -164.3261
  19   2.0000      -6.035539      -164.2354
  20   2.0000      -6.034784      -164.2148
  21   2.0000      -6.031696      -164.1308
  22   2.0000      -6.031050      -164.1132
  23   2.0000      -6.027852      -164.0262
  24   2.0000      -1.003275       -27.3005
  25   2.0000      -0.979102       -26.6427
  26   2.0000      -0.905105       -24.6292
  27   2.0000      -0.903064       -24.5736
  28   2.0000      -0.867931       -23.6176
  29   2.0000      -0.845229       -22.9999
  30   2.0000      -0.838786       -22.8245
  31   2.0000      -0.812725       -22.1154
  32   2.0000      -0.784003       -21.3338
  33   2.0000      -0.770060       -20.9544
  34   2.0000      -0.706173       -19.2159
  35   2.0000      -0.697133       -18.9700
  36   2.0000      -0.685820       -18.6621
  37   2.0000      -0.664848       -18.0914
  38   2.0000      -0.632825       -17.2201
  39   2.0000      -0.612762       -16.6741
  40   2.0000      -0.593023       -16.1370
  41   2.0000      -0.568894       -15.4804
  42   2.0000      -0.551144       -14.9974
  43   2.0000      -0.545827       -14.8527
  44   2.0000      -0.540579       -14.7099
  45   2.0000      -0.534834       -14.5536
  46   2.0000      -0.519594       -14.1389
  47   2.0000      -0.501585       -13.6488
  48   2.0000      -0.499668       -13.5966
  49   2.0000      -0.496078       -13.4990
  50   2.0000      -0.488681       -13.2977
  51   2.0000      -0.478956       -13.0331
  52   2.0000      -0.472104       -12.8466
  53   2.0000      -0.462860       -12.5951
  54   2.0000      -0.459678       -12.5085
  55   2.0000      -0.445289       -12.1169
  56   2.0000      -0.434428       -11.8214
  57   2.0000      -0.431897       -11.7525
  58   2.0000      -0.426660       -11.6100
  59   2.0000      -0.423964       -11.5366
  60   2.0000      -0.419427       -11.4132
  61   2.0000      -0.412078       -11.2132
  62   2.0000      -0.409176       -11.1342
  63   2.0000      -0.340753        -9.2724
  64   2.0000      -0.328208        -8.9310
  65   2.0000      -0.326981        -8.8976
  66   2.0000      -0.303725        -8.2648
  67   0.0000       0.038574         1.0496
  68   0.0000       0.054110         1.4724
  69   0.0000       0.114535         3.1167
  70   0.0000       0.117569         3.1992
  71   0.0000       0.128403         3.4940

MULLIKEN ATOMIC CHARGES
-----------------------
   0 S :    0.109942
   1 C :   -0.134515
   2 C :   -0.096850
   3 C :    0.066609
   4 C :   -0.181928
   5 H :   -0.000388
   6 C :    0.037678
   7 H :    0.031934
   8 H :    0.029382
   9 C :   -0.083996
  10 H :    0.026901
  11 H :    0.025406
  12 C :   -0.042960
  13 H :    0.060876
  14 H :    0.033761
  15 H :    0.036094
  16 S :    0.094269
  17 C :   -0.084233
  18 C :   -0.035789
  19 C :   -0.004236
  20 C :   -0.160763
  21 H :    0.029423
  22 C :    0.000924
  23 H :    0.037290
  24 H :    0.037236
  25 C :   -0.048615
  26 H :    0.039693
  27 H :    0.046876
  28 C :   -0.074727
  29 H :    0.028436
  30 H :    0.040927
  31 H :    0.029851
  32 H :    0.059548
  33 H :    0.045944
Sum of atomic charges:   -0.0000000

LOEWDIN ATOMIC CHARGES
----------------------
   0 S :    0.389539
   1 C :   -0.192427
   2 C :   -0.068655
   3 C :   -0.052456
   4 C :   -0.202813
   5 H :    0.023574
   6 C :   -0.035656
   7 H :    0.031360
   8 H :    0.031797
   9 C :   -0.041654
  10 H :    0.027709
  11 H :    0.019104
  12 C :   -0.067335
  13 H :    0.034502
  14 H :    0.028291
  15 H :    0.029281
  16 S :    0.383515
  17 C :   -0.156907
  18 C :   -0.077824
  19 C :   -0.058590
  20 C :   -0.190728
  21 H :    0.036405
  22 C :   -0.042782
  23 H :    0.036881
  24 H :    0.032798
  25 C :   -0.043022
  26 H :    0.033212
  27 H :    0.031265
  28 C :   -0.078713
  29 H :    0.027740
  30 H :    0.028526
  31 H :    0.026066
  32 H :    0.035736
  33 H :    0.022262

  Mayer bond orders larger than 0.100000
B(  0-S ,  1-C ) :   1.1452 B(  0-S ,  4-C ) :   1.1368 B(  1-C ,  2-C ) :   1.6164
B(  1-C , 32-H ) :   0.9597 B(  2-C ,  3-C ) :   1.2481 B(  2-C ,  6-C ) :   1.0123
B(  3-C ,  4-C ) :   1.5787 B(  3-C ,  5-H ) :   0.9944 B(  4-C , 20-C ) :   1.0130
B(  6-C ,  7-H ) :   0.9447 B(  6-C ,  8-H ) :   0.9446 B(  6-C ,  9-C ) :   1.0712
B(  9-C , 10-H ) :   0.9549 B(  9-C , 11-H ) :   0.9582 B(  9-C , 12-C ) :   1.0655
B( 12-C , 13-H ) :   0.9732 B( 12-C , 14-H ) :   0.9735 B( 12-C , 15-H ) :   0.9779
B( 16-S , 17-C ) :   1.1545 B( 16-S , 20-C ) :   1.1386 B( 17-C , 18-C ) :   1.6198
B( 17-C , 20-C ) :   0.1041 B( 17-C , 33-H ) :   0.9699 B( 18-C , 19-C ) :   1.2226
B( 18-C , 21-H ) :   0.9877 B( 19-C , 20-C ) :   1.6277 B( 19-C , 22-C ) :   1.0365
B( 22-C , 23-H ) :   0.9316 B( 22-C , 24-H ) :   0.9399 B( 22-C , 25-C ) :   1.0671
B( 25-C , 26-H ) :   0.9503 B( 25-C , 27-H ) :   0.9564 B( 25-C , 28-C ) :   1.0742
B( 28-C , 29-H ) :   0.9711 B( 28-C , 30-H ) :   0.9741 B( 28-C , 31-H ) :   0.9737

Dispersion correction           -0.014508913
FINAL SINGLE POINT ENERGY     -1339.883069302542

DIPOLE MOMENT
-------------
                                X             Y             Z
Electronic contribution:     12.16807       9.85201      -2.94429
Nuclear contribution   :    -12.61789     -10.24549       2.89112
                        -----------------------------------------
Total Dipole Moment    :     -0.44982      -0.39348      -0.05317
                        -----------------------------------------
Magnitude (a.u.)       :      0.59999
Magnitude (Debye)      :      1.52505

Rotational constants in cm-1:     0.022694     0.007477     0.006755
Rotational constants in MHz :   680.341575   224.161113   202.507880

                             ****ORCA TERMINATED NORMALLY****
TOTAL RUN TIME: 0 days 0 hours 0 minutes 29 seconds 573 msec
