                         Program Version 4.2.1 -  RELEASE  -
|  1> ! wB97X-D3 SP def2-SVP
|  2> %pal
|  3> nprocs 16
|  4> end
|  5>
|  6> * xyz 0 1
|  7> S 	 -32.3837 	 59.436 	 112.254
|  8> C 	 -32.3011 	 57.7784 	 111.673
|  9> C 	 -31.0869 	 57.2068 	 111.887
| 10> C 	 -30.1031 	 58.2199 	 112.183
| 11> C 	 -30.628 	 59.4379 	 112.48
| 12> H 	 -29.0498 	 58.0473 	 112.343
| 13> C 	 -30.7017 	 55.7688 	 111.708
| 14> H 	 -31.3069 	 55.0907 	 112.195
| 15> H 	 -29.6815 	 55.7909 	 112.081
| 16> C 	 -30.5663 	 55.2014 	 110.229
| 17> H 	 -31.5322 	 55.268 	 109.703
| 18> H 	 -29.8161 	 55.7595 	 109.698
| 19> C 	 -30.2128 	 53.7195 	 110.233
| 20> H 	 -31.0088 	 53.1403 	 110.606
| 21> H 	 -30.1171 	 53.3415 	 109.206
| 22> H 	 -29.4 	 53.4111 	 110.956
| 23> S 	 -30.7459 	 61.8353 	 113.751
| 24> C 	 -29.3869 	 62.8399 	 113.826
| 25> C 	 -28.3434 	 62.3077 	 113.139
| 26> C 	 -28.6522 	 61.1439 	 112.438
| 27> C 	 -29.845 	 60.6381 	 112.828
| 28> H 	 -27.3654 	 62.7051 	 113.284
| 29> C 	 -27.462 	 60.5369 	 111.667
| 30> H 	 -27.5219 	 59.3962 	 111.681
| 31> H 	 -26.502 	 60.8159 	 112.229
| 32> C 	 -27.4421 	 61.0517 	 110.241
| 33> H 	 -27.303 	 62.1223 	 110.269
| 34> H 	 -28.3872 	 60.8588 	 109.684
| 35> C 	 -26.3183 	 60.5779 	 109.36
| 36> H 	 -25.9961 	 59.5557 	 109.589
| 37> H 	 -25.4695 	 61.248 	 109.529
| 38> H 	 -26.6163 	 60.4788 	 108.325
| 39> H 	 -33.1593 	 57.1891 	 111.498
| 40> H 	 -29.1779 	 63.6441 	 114.528
| 41> *
| 42>
| 43>                          ****END OF INPUT****

CARTESIAN COORDINATES (ANGSTROEM)
---------------------------------
  S    -32.383700   59.436000  112.254000
  C    -32.301100   57.778400  111.673000
  C    -31.086900   57.206800  111.887000
  C    -30.103100   58.219900  112.183000
  C    -30.628000   59.437900  112.480000
  H    -29.049800   58.047300  112.343000
  C    -30.701700   55.768800  111.708000
  H    -31.306900   55.090700  112.195000
  H    -29.681500   55.790900  112.081000
  C    -30.566300   55.201400  110.229000
  H    -31.532200   55.268000  109.703000
  H    -29.816100   55.759500  109.698000
  C    -30.212800   53.719500  110.233000
  H    -31.008800   53.140300  110.606000
  H    -30.117100   53.341500  109.206000
  H    -29.400000   53.411100  110.956000
  S    -30.745900   61.835300  113.751000
  C    -29.386900   62.839900  113.826000
  C    -28.343400   62.307700  113.139000
  C    -28.652200   61.143900  112.438000
  C    -29.845000   60.638100  112.828000
  H    -27.365400   62.705100  113.284000
  C    -27.462000   60.536900  111.667000
  H    -27.521900   59.396200  111.681000
  H    -26.502000   60.815900  112.229000
  C    -27.442100   61.051700  110.241000
  H    -27.303000   62.122300  110.269000
  H    -28.387200   60.858800  109.684000
  C    -26.318300   60.577900  109.360000
  H    -25.996100   59.555700  109.589000
  H    -25.469500   61.248000  109.529000
  H    -26.616300   60.478800  108.325000
  H    -33.159300   57.189100  111.498000
  H    -29.177900   63.644100  114.528000

 Total Charge           Charge          ....    0
 Multiplicity           Mult            ....    1
 Number of Electrons    NEL             ....  134
 Basis Dimension        Dim             ....  322

ORBITAL ENERGIES
----------------

  NO   OCC          E(Eh)            E(eV)
   0   2.0000     -88.965718     -2420.8803
   1   2.0000     -88.963374     -2420.8165
   2   2.0000     -10.329193      -281.0716
   3   2.0000     -10.327496      -281.0255
   4   2.0000     -10.307711      -280.4871
   5   2.0000     -10.307416      -280.4790
   6   2.0000     -10.306248      -280.4473
   7   2.0000     -10.298776      -280.2439
   8   2.0000     -10.298017      -280.2233
   9   2.0000     -10.290169      -280.0097
  10   2.0000     -10.289920      -280.0030
  11   2.0000     -10.288890      -279.9749
  12   2.0000     -10.282097      -279.7901
  13   2.0000     -10.281789      -279.7817
  14   2.0000     -10.279454      -279.7182
  15   2.0000     -10.273799      -279.5643
  16   2.0000      -8.080071      -219.8699
  17   2.0000      -8.079426      -219.8523
  18   2.0000      -6.038803      -164.3242
  19   2.0000      -6.037901      -164.2996
  20   2.0000      -6.034809      -164.2155
  21   2.0000      -6.033770      -164.1872
  22   2.0000      -6.030446      -164.0968
  23   2.0000      -6.030133      -164.0883
  24   2.0000      -1.015776       -27.6407
  25   2.0000      -0.990632       -26.9565
  26   2.0000      -0.913002       -24.8440
  27   2.0000      -0.910351       -24.7719
  28   2.0000      -0.871974       -23.7276
  29   2.0000      -0.860020       -23.4023
  30   2.0000      -0.848960       -23.1014
  31   2.0000      -0.816869       -22.2281
  32   2.0000      -0.782836       -21.3021
  33   2.0000      -0.776017       -21.1165
  34   2.0000      -0.705720       -19.2036
  35   2.0000      -0.702784       -19.1237
  36   2.0000      -0.688434       -18.7332
  37   2.0000      -0.668253       -18.1841
  38   2.0000      -0.641378       -17.4528
  39   2.0000      -0.625156       -17.0114
  40   2.0000      -0.596207       -16.2236
  41   2.0000      -0.570449       -15.5227
  42   2.0000      -0.568797       -15.4778
  43   2.0000      -0.564298       -15.3553
  44   2.0000      -0.528441       -14.3796
  45   2.0000      -0.521986       -14.2040
  46   2.0000      -0.518448       -14.1077
  47   2.0000      -0.510411       -13.8890
  48   2.0000      -0.508833       -13.8460
  49   2.0000      -0.499720       -13.5981
  50   2.0000      -0.491090       -13.3632
  51   2.0000      -0.487606       -13.2684
  52   2.0000      -0.477431       -12.9916
  53   2.0000      -0.465217       -12.6592
  54   2.0000      -0.461728       -12.5643
  55   2.0000      -0.452077       -12.3016
  56   2.0000      -0.441040       -12.0013
  57   2.0000      -0.432078       -11.7575
  58   2.0000      -0.429515       -11.6877
  59   2.0000      -0.429205       -11.6793
  60   2.0000      -0.419866       -11.4251
  61   2.0000      -0.416856       -11.3432
  62   2.0000      -0.411080       -11.1861
  63   2.0000      -0.359323        -9.7777
  64   2.0000      -0.335465        -9.1285
  65   2.0000      -0.328614        -8.9421
  66   2.0000      -0.288371        -7.8470
  67   0.0000       0.028913         0.7868
  68   0.0000       0.073474         1.9993
  69   0.0000       0.100192         2.7264
  70   0.0000       0.120568         3.2808
  71   0.0000       0.131921         3.5898

MULLIKEN ATOMIC CHARGES
-----------------------
   0 S :    0.099623
   1 C :   -0.099157
   2 C :   -0.074464
   3 C :   -0.032099
   4 C :   -0.073501
   5 H :    0.011397
   6 C :    0.090304
   7 H :    0.011419
   8 H :    0.016341
   9 C :   -0.069560
  10 H :    0.032158
  11 H :    0.029472
  12 C :   -0.050110
  13 H :    0.009773
  14 H :    0.040712
  15 H :    0.034626
  16 S :    0.094051
  17 C :   -0.059415
  18 C :   -0.056006
  19 C :   -0.011867
  20 C :   -0.157866
  21 H :    0.009550
  22 C :    0.005109
  23 H :    0.029650
  24 H :    0.041841
  25 C :   -0.084424
  26 H :    0.023382
  27 H :    0.043032
  28 C :   -0.023841
  29 H :    0.014697
  30 H :    0.033175
  31 H :    0.034875
  32 H :    0.032152
  33 H :    0.054971
Sum of atomic charges:    0.0000000

LOEWDIN ATOMIC CHARGES
----------------------
   0 S :    0.383217
   1 C :   -0.184208
   2 C :   -0.058996
   3 C :   -0.068668
   4 C :   -0.180572
   5 H :    0.027375
   6 C :   -0.023145
   7 H :    0.019473
   8 H :    0.032955
   9 C :   -0.030935
  10 H :    0.025763
  11 H :    0.019937
  12 C :   -0.074519
  13 H :    0.016481
  14 H :    0.031924
  15 H :    0.031076
  16 S :    0.417187
  17 C :   -0.203034
  18 C :   -0.071278
  19 C :   -0.061966
  20 C :   -0.179883
  21 H :    0.026546
  22 C :   -0.029507
  23 H :    0.028256
  24 H :    0.037820
  25 C :   -0.050195
  26 H :    0.023983
  27 H :    0.032641
  28 C :   -0.067464
  29 H :    0.021307
  30 H :    0.026378
  31 H :    0.028752
  32 H :    0.018845
  33 H :    0.034455

  Mayer bond orders larger than 0.100000
B(  0-S ,  1-C ) :   1.1185 B(  0-S ,  4-C ) :   1.1224 B(  1-C ,  2-C ) :   1.6476
B(  1-C , 32-H ) :   0.9665 B(  2-C ,  3-C ) :   1.2058 B(  2-C ,  6-C ) :   1.0318
B(  3-C ,  4-C ) :   1.6333 B(  3-C ,  5-H ) :   0.9860 B(  4-C , 20-C ) :   1.0399
B(  6-C ,  7-H ) :   0.9394 B(  6-C ,  8-H ) :   0.9353 B(  6-C ,  9-C ) :   1.0653
B(  9-C , 10-H ) :   0.9554 B(  9-C , 11-H ) :   0.9599 B(  9-C , 12-C ) :   1.0826
B( 12-C , 13-H ) :   0.9701 B( 12-C , 14-H ) :   0.9712 B( 12-C , 15-H ) :   0.9727
B( 16-S , 17-C ) :   1.1604 B( 16-S , 20-C ) :   1.1319 B( 17-C , 18-C ) :   1.6325
B( 17-C , 33-H ) :   0.9585 B( 18-C , 19-C ) :   1.2245 B( 18-C , 21-H ) :   0.9878
B( 19-C , 20-C ) :   1.6299 B( 19-C , 22-C ) :   1.0190 B( 22-C , 23-H ) :   0.9404
B( 22-C , 24-H ) :   0.9459 B( 22-C , 25-C ) :   1.0620 B( 25-C , 26-H ) :   0.9582
B( 25-C , 27-H ) :   0.9581 B( 25-C , 28-C ) :   1.0800 B( 28-C , 29-H ) :   0.9712
B( 28-C , 30-H ) :   0.9782 B( 28-C , 31-H ) :   0.9751

Dispersion correction           -0.013224091
FINAL SINGLE POINT ENERGY     -1339.863375037065

DIPOLE MOMENT
-------------
                                X             Y             Z
Electronic contribution:    -18.59029      19.35842      17.12264
Nuclear contribution   :     19.14478     -19.79418     -17.24861
                        -----------------------------------------
Total Dipole Moment    :      0.55449      -0.43576      -0.12597
                        -----------------------------------------
Magnitude (a.u.)       :      0.71639
Magnitude (Debye)      :      1.82092

Rotational constants in cm-1:     0.017707     0.008424     0.006133
Rotational constants in MHz :   530.829235   252.552498   183.859256

                             ****ORCA TERMINATED NORMALLY****
TOTAL RUN TIME: 0 days 0 hours 0 minutes 29 seconds 280 msec
