                         Program Version 4.2.1 -  RELEASE  -
|  1> ! wB97X-D3 SP def2-SVP
|  2> %pal
|  3> nprocs 16
|  4> end
|  5>
|  6> * xyz 0 1
|  7> S 	 -0.419146 	 80.4056 	 48.8733
|  8> C 	 0.781348 	 80.3926 	 50.1427
|  9> C 	 1.7218 	 79.416 	 49.8945
| 10> C 	 1.41432 	 78.6403 	 48.7206
| 11> C 	 0.226851 	 78.9928 	 48.1005
| 12> H 	 1.97625 	 77.8461 	 48.2529
| 13> C 	 2.94511 	 79.2846 	 50.7444
| 14> H 	 2.72278 	 78.4729 	 51.5217
| 15> H 	 3.03238 	 80.2765 	 51.2873
| 16> C 	 4.30021 	 79.0744 	 49.9476
| 17> H 	 5.1838 	 79.2648 	 50.6384
| 18> H 	 4.31194 	 78.098 	 49.5333
| 19> C 	 4.50364 	 79.9583 	 48.6994
| 20> H 	 5.31438 	 79.6579 	 48.0341
| 21> H 	 3.64559 	 79.8942 	 47.9967
| 22> H 	 4.60621 	 80.9508 	 49.1655
| 23> S 	 -1.57999 	 77.0812 	 47.5676
| 24> C 	 -1.76186 	 76.5438 	 45.8699
| 25> C 	 -0.886842 	 77.2029 	 45.0577
| 26> C 	 -0.161261 	 78.1954 	 45.7164
| 27> C 	 -0.352528 	 78.2059 	 47.0758
| 28> H 	 -0.808742 	 76.9189 	 43.9696
| 29> C 	 0.696786 	 79.2058 	 45.0134
| 30> H 	 0.976983 	 79.9187 	 45.744
| 31> H 	 0.0255799 	 79.7471 	 44.3886
| 32> C 	 1.8765 	 78.74 	 44.1777
| 33> H 	 2.11205 	 79.5422 	 43.4161
| 34> H 	 1.51808 	 77.9305 	 43.4935
| 35> C 	 3.15137 	 78.5261 	 44.9715
| 36> H 	 2.9195 	 77.7636 	 45.7349
| 37> H 	 3.51319 	 79.3934 	 45.5251
| 38> H 	 3.90193 	 78.1038 	 44.3513
| 39> H 	 0.934762 	 81.0479 	 50.9764
| 40> H 	 -2.32999 	 75.6789 	 45.6394
| 41> *
| 42>
| 43>                          ****END OF INPUT****

CARTESIAN COORDINATES (ANGSTROEM)
---------------------------------
  S     -0.419146   80.405600   48.873300
  C      0.781348   80.392600   50.142700
  C      1.721800   79.416000   49.894500
  C      1.414320   78.640300   48.720600
  C      0.226851   78.992800   48.100500
  H      1.976250   77.846100   48.252900
  C      2.945110   79.284600   50.744400
  H      2.722780   78.472900   51.521700
  H      3.032380   80.276500   51.287300
  C      4.300210   79.074400   49.947600
  H      5.183800   79.264800   50.638400
  H      4.311940   78.098000   49.533300
  C      4.503640   79.958300   48.699400
  H      5.314380   79.657900   48.034100
  H      3.645590   79.894200   47.996700
  H      4.606210   80.950800   49.165500
  S     -1.579990   77.081200   47.567600
  C     -1.761860   76.543800   45.869900
  C     -0.886842   77.202900   45.057700
  C     -0.161261   78.195400   45.716400
  C     -0.352528   78.205900   47.075800
  H     -0.808742   76.918900   43.969600
  C      0.696786   79.205800   45.013400
  H      0.976983   79.918700   45.744000
  H      0.025580   79.747100   44.388600
  C      1.876500   78.740000   44.177700
  H      2.112050   79.542200   43.416100
  H      1.518080   77.930500   43.493500
  C      3.151370   78.526100   44.971500
  H      2.919500   77.763600   45.734900
  H      3.513190   79.393400   45.525100
  H      3.901930   78.103800   44.351300
  H      0.934762   81.047900   50.976400
  H     -2.329990   75.678900   45.639400

 Total Charge           Charge          ....    0
 Multiplicity           Mult            ....    1
 Number of Electrons    NEL             ....  134
 Basis Dimension        Dim             ....  322

ORBITAL ENERGIES
----------------

  NO   OCC          E(Eh)            E(eV)
   0   2.0000     -88.966707     -2420.9072
   1   2.0000     -88.962756     -2420.7997
   2   2.0000     -10.323191      -280.9083
   3   2.0000     -10.319090      -280.7967
   4   2.0000     -10.316650      -280.7303
   5   2.0000     -10.311156      -280.5808
   6   2.0000     -10.304806      -280.4080
   7   2.0000     -10.298766      -280.2437
   8   2.0000     -10.297002      -280.1957
   9   2.0000     -10.295226      -280.1474
  10   2.0000     -10.293447      -280.0989
  11   2.0000     -10.293011      -280.0871
  12   2.0000     -10.291882      -280.0564
  13   2.0000     -10.279587      -279.7218
  14   2.0000     -10.279006      -279.7060
  15   2.0000     -10.276574      -279.6398
  16   2.0000      -8.081332      -219.9042
  17   2.0000      -8.077545      -219.8012
  18   2.0000      -6.039912      -164.3544
  19   2.0000      -6.035934      -164.2461
  20   2.0000      -6.035705      -164.2399
  21   2.0000      -6.032166      -164.1436
  22   2.0000      -6.032142      -164.1429
  23   2.0000      -6.028316      -164.0388
  24   2.0000      -1.012173       -27.5426
  25   2.0000      -0.986995       -26.8575
  26   2.0000      -0.912071       -24.8187
  27   2.0000      -0.908259       -24.7150
  28   2.0000      -0.876002       -23.8372
  29   2.0000      -0.851501       -23.1705
  30   2.0000      -0.843394       -22.9499
  31   2.0000      -0.819213       -22.2919
  32   2.0000      -0.783786       -21.3279
  33   2.0000      -0.771345       -20.9894
  34   2.0000      -0.711925       -19.3725
  35   2.0000      -0.701494       -19.0886
  36   2.0000      -0.689836       -18.7714
  37   2.0000      -0.659396       -17.9431
  38   2.0000      -0.639438       -17.4000
  39   2.0000      -0.615841       -16.7579
  40   2.0000      -0.600223       -16.3329
  41   2.0000      -0.569172       -15.4879
  42   2.0000      -0.560089       -15.2408
  43   2.0000      -0.556460       -15.1421
  44   2.0000      -0.538375       -14.6499
  45   2.0000      -0.532060       -14.4781
  46   2.0000      -0.528353       -14.3772
  47   2.0000      -0.512580       -13.9480
  48   2.0000      -0.506203       -13.7745
  49   2.0000      -0.498755       -13.5718
  50   2.0000      -0.490940       -13.3592
  51   2.0000      -0.478961       -13.0332
  52   2.0000      -0.473876       -12.8948
  53   2.0000      -0.471576       -12.8322
  54   2.0000      -0.454016       -12.3544
  55   2.0000      -0.444207       -12.0875
  56   2.0000      -0.437547       -11.9063
  57   2.0000      -0.437132       -11.8950
  58   2.0000      -0.435159       -11.8413
  59   2.0000      -0.433585       -11.7984
  60   2.0000      -0.421898       -11.4804
  61   2.0000      -0.405786       -11.0420
  62   2.0000      -0.403833       -10.9889
  63   2.0000      -0.339753        -9.2452
  64   2.0000      -0.326753        -8.8914
  65   2.0000      -0.320369        -8.7177
  66   2.0000      -0.310217        -8.4414
  67   0.0000       0.045415         1.2358
  68   0.0000       0.052175         1.4198
  69   0.0000       0.115685         3.1480
  70   0.0000       0.119430         3.2498
  71   0.0000       0.128994         3.5101

MULLIKEN ATOMIC CHARGES
-----------------------
   0 S :    0.130008
   1 C :   -0.106073
   2 C :   -0.101189
   3 C :    0.045151
   4 C :   -0.195633
   5 H :    0.010276
   6 C :    0.041828
   7 H :    0.068012
   8 H :    0.025076
   9 C :   -0.094354
  10 H :    0.050225
  11 H :    0.026461
  12 C :   -0.073663
  13 H :    0.040636
  14 H :    0.039725
  15 H :    0.035999
  16 S :    0.106917
  17 C :   -0.088161
  18 C :   -0.052025
  19 C :   -0.012822
  20 C :   -0.192865
  21 H :    0.040952
  22 C :    0.111935
  23 H :    0.004157
  24 H :    0.020624
  25 C :   -0.095644
  26 H :    0.027090
  27 H :    0.028111
  28 C :   -0.021949
  29 H :    0.022757
  30 H :    0.043393
  31 H :    0.029100
  32 H :    0.036763
  33 H :    0.049183
Sum of atomic charges:    0.0000000

LOEWDIN ATOMIC CHARGES
----------------------
   0 S :    0.414700
   1 C :   -0.198831
   2 C :   -0.070741
   3 C :   -0.056860
   4 C :   -0.213037
   5 H :    0.028536
   6 C :   -0.039702
   7 H :    0.046375
   8 H :    0.032487
   9 C :   -0.043629
  10 H :    0.034410
  11 H :    0.015031
  12 C :   -0.071862
  13 H :    0.027872
  14 H :    0.026154
  15 H :    0.027550
  16 S :    0.398887
  17 C :   -0.161665
  18 C :   -0.076341
  19 C :   -0.057080
  20 C :   -0.205470
  21 H :    0.043221
  22 C :   -0.029072
  23 H :    0.024420
  24 H :    0.033480
  25 C :   -0.046692
  26 H :    0.028531
  27 H :    0.026357
  28 C :   -0.063587
  29 H :    0.025279
  30 H :    0.028633
  31 H :    0.023329
  32 H :    0.028229
  33 H :    0.021085

  Mayer bond orders larger than 0.100000
B(  0-S ,  1-C ) :   1.1357 B(  0-S ,  4-C ) :   1.1443 B(  1-C ,  2-C ) :   1.6196
B(  1-C , 32-H ) :   0.9653 B(  2-C ,  3-C ) :   1.2211 B(  2-C ,  6-C ) :   1.0193
B(  3-C ,  4-C ) :   1.5751 B(  3-C ,  5-H ) :   0.9937 B(  4-C , 20-C ) :   1.0413
B(  6-C ,  7-H ) :   0.9386 B(  6-C ,  8-H ) :   0.9441 B(  6-C ,  9-C ) :   1.0531
B(  9-C , 10-H ) :   0.9633 B(  9-C , 11-H ) :   0.9544 B(  9-C , 12-C ) :   1.0749
B( 12-C , 13-H ) :   0.9743 B( 12-C , 14-H ) :   0.9651 B( 12-C , 15-H ) :   0.9779
B( 16-S , 17-C ) :   1.1498 B( 16-S , 20-C ) :   1.1438 B( 17-C , 18-C ) :   1.6193
B( 17-C , 20-C ) :   0.1044 B( 17-C , 33-H ) :   0.9711 B( 18-C , 19-C ) :   1.2338
B( 18-C , 21-H ) :   0.9793 B( 19-C , 20-C ) :   1.6076 B( 19-C , 22-C ) :   1.0459
B( 22-C , 23-H ) :   0.9218 B( 22-C , 24-H ) :   0.9227 B( 22-C , 25-C ) :   1.0763
B( 25-C , 26-H ) :   0.9497 B( 25-C , 27-H ) :   0.9551 B( 25-C , 28-C ) :   1.0767
B( 28-C , 29-H ) :   0.9757 B( 28-C , 30-H ) :   0.9686 B( 28-C , 31-H ) :   0.9676

Dispersion correction           -0.016244839
FINAL SINGLE POINT ENERGY     -1339.874772795833

DIPOLE MOMENT
-------------
                                X             Y             Z
Electronic contribution:    -26.83506      -2.84023       6.81373
Nuclear contribution   :     27.38123       2.74327      -7.08615
                        -----------------------------------------
Total Dipole Moment    :      0.54616      -0.09696      -0.27241
                        -----------------------------------------
Magnitude (a.u.)       :      0.61798
Magnitude (Debye)      :      1.57079

Rotational constants in cm-1:     0.018238     0.010405     0.007870
Rotational constants in MHz :   546.746626   311.938254   235.947753

                             ****ORCA TERMINATED NORMALLY****
TOTAL RUN TIME: 0 days 0 hours 0 minutes 35 seconds 523 msec
