                         Program Version 4.2.1 -  RELEASE  -
|  1> ! wB97X-D3 SP def2-SVP
|  2> %pal
|  3> nprocs 16
|  4> end
|  5>
|  6> * xyz 0 1
|  7> S 	 -5.02226 	 61.0949 	 48.9253
|  8> C 	 -5.42214 	 60.2318 	 50.4033
|  9> C 	 -5.1081 	 58.8664 	 50.3122
| 10> C 	 -4.36454 	 58.5409 	 49.1159
| 11> C 	 -4.28506 	 59.6186 	 48.2222
| 12> H 	 -4.13214 	 57.5227 	 48.6953
| 13> C 	 -5.3339 	 57.8542 	 51.4712
| 14> H 	 -4.69863 	 58.0321 	 52.3606
| 15> H 	 -4.91395 	 56.8636 	 51.1309
| 16> C 	 -6.82494 	 57.8003 	 51.778
| 17> H 	 -7.20786 	 58.8208 	 51.8817
| 18> H 	 -7.29251 	 57.4641 	 50.8614
| 19> C 	 -7.26796 	 57.0341 	 52.968
| 20> H 	 -6.75539 	 57.2351 	 54.0175
| 21> H 	 -8.35056 	 57.0545 	 53.0035
| 22> H 	 -6.97639 	 55.9765 	 52.811
| 23> S 	 -5.36947 	 59.9241 	 45.734
| 24> C 	 -4.53011 	 59.3469 	 44.3548
| 25> C 	 -3.25473 	 58.9216 	 44.6604
| 26> C 	 -2.96916 	 59.0204 	 46.0687
| 27> C 	 -4.02902 	 59.5384 	 46.7888
| 28> H 	 -2.57473 	 58.6194 	 43.9067
| 29> C 	 -1.62309 	 58.6052 	 46.664
| 30> H 	 -1.40179 	 59.3342 	 47.4734
| 31> H 	 -0.971541 	 58.7497 	 45.8318
| 32> C 	 -1.42927 	 57.1479 	 47.137
| 33> H 	 -1.63023 	 56.3697 	 46.3698
| 34> H 	 -2.27279 	 56.9095 	 47.7915
| 35> C 	 -0.0197446 	 56.905 	 47.8293
| 36> H 	 0.781262 	 57.453 	 47.2976
| 37> H 	 0.11824 	 55.8206 	 47.6918
| 38> H 	 0.0278286 	 57.0542 	 48.8823
| 39> H 	 -5.90186 	 60.6661 	 51.3363
| 40> H 	 -4.90479 	 59.6133 	 43.373
| 41> *
| 42>
| 43>                          ****END OF INPUT****

CARTESIAN COORDINATES (ANGSTROEM)
---------------------------------
  S     -5.022260   61.094900   48.925300
  C     -5.422140   60.231800   50.403300
  C     -5.108100   58.866400   50.312200
  C     -4.364540   58.540900   49.115900
  C     -4.285060   59.618600   48.222200
  H     -4.132140   57.522700   48.695300
  C     -5.333900   57.854200   51.471200
  H     -4.698630   58.032100   52.360600
  H     -4.913950   56.863600   51.130900
  C     -6.824940   57.800300   51.778000
  H     -7.207860   58.820800   51.881700
  H     -7.292510   57.464100   50.861400
  C     -7.267960   57.034100   52.968000
  H     -6.755390   57.235100   54.017500
  H     -8.350560   57.054500   53.003500
  H     -6.976390   55.976500   52.811000
  S     -5.369470   59.924100   45.734000
  C     -4.530110   59.346900   44.354800
  C     -3.254730   58.921600   44.660400
  C     -2.969160   59.020400   46.068700
  C     -4.029020   59.538400   46.788800
  H     -2.574730   58.619400   43.906700
  C     -1.623090   58.605200   46.664000
  H     -1.401790   59.334200   47.473400
  H     -0.971541   58.749700   45.831800
  C     -1.429270   57.147900   47.137000
  H     -1.630230   56.369700   46.369800
  H     -2.272790   56.909500   47.791500
  C     -0.019745   56.905000   47.829300
  H      0.781262   57.453000   47.297600
  H      0.118240   55.820600   47.691800
  H      0.027829   57.054200   48.882300
  H     -5.901860   60.666100   51.336300
  H     -4.904790   59.613300   43.373000

 Total Charge           Charge          ....    0
 Multiplicity           Mult            ....    1
 Number of Electrons    NEL             ....  134
 Basis Dimension        Dim             ....  322

ORBITAL ENERGIES
----------------

  NO   OCC          E(Eh)            E(eV)
   0   2.0000     -88.971135     -2421.0277
   1   2.0000     -88.961877     -2420.7757
   2   2.0000     -10.334836      -281.2252
   3   2.0000     -10.324578      -280.9460
   4   2.0000     -10.323532      -280.9176
   5   2.0000     -10.313826      -280.6535
   6   2.0000     -10.309106      -280.5250
   7   2.0000     -10.305275      -280.4208
   8   2.0000     -10.302313      -280.3402
   9   2.0000     -10.299452      -280.2623
  10   2.0000     -10.292840      -280.0824
  11   2.0000     -10.292670      -280.0778
  12   2.0000     -10.291081      -280.0346
  13   2.0000     -10.285944      -279.8948
  14   2.0000     -10.283157      -279.8189
  15   2.0000     -10.282932      -279.8128
  16   2.0000      -8.084723      -219.9965
  17   2.0000      -8.077653      -219.8041
  18   2.0000      -6.043279      -164.4460
  19   2.0000      -6.039351      -164.3391
  20   2.0000      -6.036046      -164.2492
  21   2.0000      -6.035538      -164.2353
  22   2.0000      -6.031985      -164.1386
  23   2.0000      -6.028482      -164.0433
  24   2.0000      -1.005267       -27.3547
  25   2.0000      -0.979385       -26.6504
  26   2.0000      -0.912461       -24.8293
  27   2.0000      -0.902122       -24.5480
  28   2.0000      -0.867738       -23.6124
  29   2.0000      -0.849472       -23.1153
  30   2.0000      -0.845377       -23.0039
  31   2.0000      -0.811536       -22.0830
  32   2.0000      -0.781037       -21.2531
  33   2.0000      -0.768203       -20.9039
  34   2.0000      -0.706179       -19.2161
  35   2.0000      -0.698840       -19.0164
  36   2.0000      -0.689069       -18.7505
  37   2.0000      -0.666592       -18.1389
  38   2.0000      -0.636474       -17.3193
  39   2.0000      -0.610378       -16.6092
  40   2.0000      -0.594039       -16.1646
  41   2.0000      -0.566619       -15.4185
  42   2.0000      -0.559428       -15.2228
  43   2.0000      -0.551802       -15.0153
  44   2.0000      -0.531401       -14.4602
  45   2.0000      -0.522728       -14.2242
  46   2.0000      -0.518578       -14.1112
  47   2.0000      -0.512186       -13.9373
  48   2.0000      -0.503515       -13.7013
  49   2.0000      -0.494608       -13.4590
  50   2.0000      -0.487583       -13.2678
  51   2.0000      -0.483184       -13.1481
  52   2.0000      -0.474630       -12.9153
  53   2.0000      -0.459179       -12.4949
  54   2.0000      -0.454521       -12.3682
  55   2.0000      -0.445886       -12.1332
  56   2.0000      -0.444547       -12.0967
  57   2.0000      -0.440748       -11.9934
  58   2.0000      -0.434773       -11.8308
  59   2.0000      -0.425526       -11.5792
  60   2.0000      -0.420863       -11.4523
  61   2.0000      -0.410123       -11.1600
  62   2.0000      -0.404772       -11.0144
  63   2.0000      -0.348331        -9.4786
  64   2.0000      -0.330296        -8.9878
  65   2.0000      -0.329140        -8.9563
  66   2.0000      -0.293861        -7.9964
  67   0.0000       0.027302         0.7429
  68   0.0000       0.064626         1.7586
  69   0.0000       0.112755         3.0682
  70   0.0000       0.121413         3.3038
  71   0.0000       0.127668         3.4740

MULLIKEN ATOMIC CHARGES
-----------------------
   0 S :    0.110079
   1 C :   -0.134413
   2 C :   -0.118678
   3 C :    0.038289
   4 C :   -0.171330
   5 H :    0.051978
   6 C :    0.052935
   7 H :    0.041494
   8 H :    0.019263
   9 C :   -0.086932
  10 H :    0.022615
  11 H :    0.029709
  12 C :   -0.049172
  13 H :    0.048310
  14 H :    0.040028
  15 H :    0.021404
  16 S :    0.105986
  17 C :   -0.092377
  18 C :   -0.020758
  19 C :   -0.069103
  20 C :   -0.155718
  21 H :    0.007902
  22 C :    0.084023
  23 H :    0.046178
  24 H :    0.010404
  25 C :   -0.075664
  26 H :    0.027441
  27 H :    0.002040
  28 C :   -0.044415
  29 H :    0.041897
  30 H :    0.031632
  31 H :    0.040869
  32 H :    0.081172
  33 H :    0.062910
Sum of atomic charges:   -0.0000000

LOEWDIN ATOMIC CHARGES
----------------------
   0 S :    0.391414
   1 C :   -0.204251
   2 C :   -0.064615
   3 C :   -0.063304
   4 C :   -0.185401
   5 H :    0.041735
   6 C :   -0.033715
   7 H :    0.031433
   8 H :    0.029758
   9 C :   -0.051557
  10 H :    0.022002
  11 H :    0.030594
  12 C :   -0.077627
  13 H :    0.038474
  14 H :    0.028244
  15 H :    0.024120
  16 S :    0.420004
  17 C :   -0.194147
  18 C :   -0.068844
  19 C :   -0.058527
  20 C :   -0.206916
  21 H :    0.026400
  22 C :   -0.031945
  23 H :    0.039844
  24 H :    0.025018
  25 C :   -0.044692
  26 H :    0.026473
  27 H :    0.017772
  28 C :   -0.063707
  29 H :    0.029625
  30 H :    0.031123
  31 H :    0.022779
  32 H :    0.044376
  33 H :    0.028057

  Mayer bond orders larger than 0.100000
B(  0-S ,  1-C ) :   1.1385 B(  0-S ,  4-C ) :   1.1417 B(  1-C ,  2-C ) :   1.6110
B(  1-C , 32-H ) :   0.9546 B(  2-C ,  3-C ) :   1.2556 B(  2-C ,  6-C ) :   1.0100
B(  3-C ,  4-C ) :   1.5764 B(  3-C ,  5-H ) :   0.9632 B(  4-C , 20-C ) :   1.0309
B(  6-C ,  7-H ) :   0.9479 B(  6-C ,  8-H ) :   0.9450 B(  6-C ,  9-C ) :   1.0463
B(  9-C , 10-H ) :   0.9597 B(  9-C , 11-H ) :   0.9478 B(  9-C , 12-C ) :   1.0910
B( 12-C , 13-H ) :   0.9706 B( 12-C , 14-H ) :   0.9698 B( 12-C , 15-H ) :   0.9675
B( 16-S , 17-C ) :   1.1726 B( 16-S , 20-C ) :   1.1433 B( 17-C , 18-C ) :   1.5871
B( 17-C , 33-H ) :   0.9647 B( 18-C , 19-C ) :   1.2530 B( 18-C , 21-H ) :   0.9976
B( 19-C , 20-C ) :   1.5997 B( 19-C , 22-C ) :   1.0393 B( 22-C , 23-H ) :   0.9382
B( 22-C , 24-H ) :   0.9262 B( 22-C , 25-C ) :   1.0639 B( 25-C , 26-H ) :   0.9582
B( 25-C , 27-H ) :   0.9500 B( 25-C , 28-C ) :   1.0615 B( 28-C , 29-H ) :   0.9779
B( 28-C , 30-H ) :   0.9772 B( 28-C , 31-H ) :   0.9793

Dispersion correction           -0.013832516
FINAL SINGLE POINT ENERGY     -1339.873808528710

DIPOLE MOMENT
-------------
                                X             Y             Z
Electronic contribution:     -7.99639      20.32136     -16.15785
Nuclear contribution   :      8.15612     -20.82350      16.29887
                        -----------------------------------------
Total Dipole Moment    :      0.15973      -0.50215       0.14102
                        -----------------------------------------
Magnitude (a.u.)       :      0.54548
Magnitude (Debye)      :      1.38651

Rotational constants in cm-1:     0.017728     0.008127     0.006437
Rotational constants in MHz :   531.473761   243.645454   192.987251

                             ****ORCA TERMINATED NORMALLY****
TOTAL RUN TIME: 0 days 0 hours 0 minutes 32 seconds 703 msec
