                         Program Version 4.2.1 -  RELEASE  -
|  1> ! wB97X-D3 SP def2-SVP
|  2> %pal
|  3> nprocs 16
|  4> end
|  5>
|  6> * xyz 0 1
|  7> S 	 -4.60503 	 73.2668 	 49.9723
|  8> C 	 -3.74657 	 74.5011 	 48.9983
|  9> C 	 -2.38239 	 74.3122 	 49.078
| 10> C 	 -2.013 	 73.0928 	 49.8326
| 11> C 	 -3.1504 	 72.3306 	 50.1635
| 12> H 	 -0.964195 	 72.7729 	 49.9881
| 13> C 	 -1.34872 	 75.1835 	 48.3585
| 14> H 	 -1.97298 	 75.6578 	 47.6073
| 15> H 	 -0.617001 	 74.591 	 47.8653
| 16> C 	 -0.574299 	 76.1134 	 49.3297
| 17> H 	 -1.37355 	 76.7173 	 49.7571
| 18> H 	 -0.0814432 	 75.6624 	 50.1354
| 19> C 	 0.450538 	 76.9474 	 48.5475
| 20> H 	 1.1602 	 77.5045 	 49.1287
| 21> H 	 1.04044 	 76.2583 	 47.9998
| 22> H 	 -0.0560137 	 77.5409 	 47.8348
| 23> S 	 -4.47681 	 70.8881 	 52.1152
| 24> C 	 -3.95823 	 69.2472 	 52.4047
| 25> C 	 -3.10266 	 68.7942 	 51.473
| 26> C 	 -2.69622 	 69.8235 	 50.5758
| 27> C 	 -3.18742 	 71.0873 	 50.8711
| 28> H 	 -2.7478 	 67.7419 	 51.448
| 29> C 	 -1.71582 	 69.5146 	 49.484
| 30> H 	 -1.31602 	 68.4821 	 49.6174
| 31> H 	 -0.842881 	 70.1967 	 49.5614
| 32> C 	 -2.21845 	 69.4633 	 48.0476
| 33> H 	 -1.42218 	 69.3198 	 47.318
| 34> H 	 -2.5866 	 70.4735 	 47.6914
| 35> C 	 -3.37782 	 68.4429 	 47.8549
| 36> H 	 -2.9936 	 67.435 	 47.9794
| 37> H 	 -3.76607 	 68.3279 	 46.882
| 38> H 	 -4.33922 	 68.5724 	 48.415
| 39> H 	 -4.26502 	 75.321 	 48.4939
| 40> H 	 -4.26943 	 68.688 	 53.2808
| 41> *
| 42>
| 43>                          ****END OF INPUT****

CARTESIAN COORDINATES (ANGSTROEM)
---------------------------------
  S     -4.605030   73.266800   49.972300
  C     -3.746570   74.501100   48.998300
  C     -2.382390   74.312200   49.078000
  C     -2.013000   73.092800   49.832600
  C     -3.150400   72.330600   50.163500
  H     -0.964195   72.772900   49.988100
  C     -1.348720   75.183500   48.358500
  H     -1.972980   75.657800   47.607300
  H     -0.617001   74.591000   47.865300
  C     -0.574299   76.113400   49.329700
  H     -1.373550   76.717300   49.757100
  H     -0.081443   75.662400   50.135400
  C      0.450538   76.947400   48.547500
  H      1.160200   77.504500   49.128700
  H      1.040440   76.258300   47.999800
  H     -0.056014   77.540900   47.834800
  S     -4.476810   70.888100   52.115200
  C     -3.958230   69.247200   52.404700
  C     -3.102660   68.794200   51.473000
  C     -2.696220   69.823500   50.575800
  C     -3.187420   71.087300   50.871100
  H     -2.747800   67.741900   51.448000
  C     -1.715820   69.514600   49.484000
  H     -1.316020   68.482100   49.617400
  H     -0.842881   70.196700   49.561400
  C     -2.218450   69.463300   48.047600
  H     -1.422180   69.319800   47.318000
  H     -2.586600   70.473500   47.691400
  C     -3.377820   68.442900   47.854900
  H     -2.993600   67.435000   47.979400
  H     -3.766070   68.327900   46.882000
  H     -4.339220   68.572400   48.415000
  H     -4.265020   75.321000   48.493900
  H     -4.269430   68.688000   53.280800

 Total Charge           Charge          ....    0
 Multiplicity           Mult            ....    1
 Number of Electrons    NEL             ....  134
 Basis Dimension        Dim             ....  322

ORBITAL ENERGIES
----------------

  NO   OCC          E(Eh)            E(eV)
   0   2.0000     -88.964371     -2420.8436
   1   2.0000     -88.962281     -2420.7867
   2   2.0000     -10.333088      -281.1776
   3   2.0000     -10.327732      -281.0319
   4   2.0000     -10.317686      -280.7585
   5   2.0000     -10.315678      -280.7039
   6   2.0000     -10.306575      -280.4562
   7   2.0000     -10.304210      -280.3918
   8   2.0000     -10.302488      -280.3449
   9   2.0000     -10.293469      -280.0995
  10   2.0000     -10.293407      -280.0978
  11   2.0000     -10.292267      -280.0668
  12   2.0000     -10.289813      -280.0001
  13   2.0000     -10.282749      -279.8078
  14   2.0000     -10.272471      -279.5281
  15   2.0000     -10.269889      -279.4579
  16   2.0000      -8.078838      -219.8363
  17   2.0000      -8.076881      -219.7831
  18   2.0000      -6.037585      -164.2910
  19   2.0000      -6.035437      -164.2326
  20   2.0000      -6.033520      -164.1804
  21   2.0000      -6.031626      -164.1289
  22   2.0000      -6.029218      -164.0634
  23   2.0000      -6.027375      -164.0132
  24   2.0000      -1.005607       -27.3640
  25   2.0000      -0.979438       -26.6519
  26   2.0000      -0.913738       -24.8641
  27   2.0000      -0.905921       -24.6514
  28   2.0000      -0.873340       -23.7648
  29   2.0000      -0.846295       -23.0289
  30   2.0000      -0.839999       -22.8575
  31   2.0000      -0.813070       -22.1247
  32   2.0000      -0.783098       -21.3092
  33   2.0000      -0.772972       -21.0336
  34   2.0000      -0.715014       -19.4565
  35   2.0000      -0.705711       -19.2034
  36   2.0000      -0.689296       -18.7567
  37   2.0000      -0.661984       -18.0135
  38   2.0000      -0.636641       -17.3239
  39   2.0000      -0.614815       -16.7300
  40   2.0000      -0.591421       -16.0934
  41   2.0000      -0.574222       -15.6254
  42   2.0000      -0.562388       -15.3033
  43   2.0000      -0.552148       -15.0247
  44   2.0000      -0.545596       -14.8464
  45   2.0000      -0.528411       -14.3788
  46   2.0000      -0.509981       -13.8773
  47   2.0000      -0.507616       -13.8129
  48   2.0000      -0.504904       -13.7391
  49   2.0000      -0.502056       -13.6616
  50   2.0000      -0.486722       -13.2444
  51   2.0000      -0.473094       -12.8735
  52   2.0000      -0.471196       -12.8219
  53   2.0000      -0.461143       -12.5484
  54   2.0000      -0.458463       -12.4754
  55   2.0000      -0.454762       -12.3747
  56   2.0000      -0.445627       -12.1261
  57   2.0000      -0.437749       -11.9118
  58   2.0000      -0.432773       -11.7763
  59   2.0000      -0.425460       -11.5774
  60   2.0000      -0.420610       -11.4454
  61   2.0000      -0.412876       -11.2349
  62   2.0000      -0.402501       -10.9526
  63   2.0000      -0.354223        -9.6389
  64   2.0000      -0.332002        -9.0342
  65   2.0000      -0.324540        -8.8312
  66   2.0000      -0.286470        -7.7952
  67   0.0000       0.022745         0.6189
  68   0.0000       0.064128         1.7450
  69   0.0000       0.096045         2.6135
  70   0.0000       0.118925         3.2361
  71   0.0000       0.137495         3.7414

MULLIKEN ATOMIC CHARGES
-----------------------
   0 S :    0.087689
   1 C :   -0.132287
   2 C :   -0.097474
   3 C :    0.016696
   4 C :   -0.125379
   5 H :    0.030058
   6 C :    0.069715
   7 H :    0.021278
   8 H :    0.015082
   9 C :   -0.069237
  10 H :    0.025936
  11 H :    0.022832
  12 C :    0.012692
  13 H :    0.030898
  14 H :    0.005453
  15 H :    0.017795
  16 S :    0.073589
  17 C :   -0.082094
  18 C :   -0.023064
  19 C :   -0.041761
  20 C :   -0.131515
  21 H :    0.034385
  22 C :    0.049174
  23 H :    0.017132
  24 H :    0.037381
  25 C :   -0.061633
  26 H :    0.026841
  27 H :    0.035506
  28 C :   -0.058423
  29 H :    0.012534
  30 H :    0.011128
  31 H :    0.053633
  32 H :    0.056313
  33 H :    0.059126
Sum of atomic charges:   -0.0000000

LOEWDIN ATOMIC CHARGES
----------------------
   0 S :    0.383055
   1 C :   -0.193992
   2 C :   -0.055134
   3 C :   -0.068002
   4 C :   -0.187155
   5 H :    0.034361
   6 C :   -0.023130
   7 H :    0.031566
   8 H :    0.021463
   9 C :   -0.030983
  10 H :    0.024276
  11 H :    0.017511
  12 C :   -0.055117
  13 H :    0.024147
  14 H :    0.018816
  15 H :    0.020327
  16 S :    0.373018
  17 C :   -0.172268
  18 C :   -0.076685
  19 C :   -0.050960
  20 C :   -0.179517
  21 H :    0.041715
  22 C :   -0.037886
  23 H :    0.031706
  24 H :    0.034457
  25 C :   -0.042683
  26 H :    0.025856
  27 H :    0.027847
  28 C :   -0.077670
  29 H :    0.020958
  30 H :    0.020469
  31 H :    0.036927
  32 H :    0.031464
  33 H :    0.031242

  Mayer bond orders larger than 0.100000
B(  0-S ,  1-C ) :   1.1040 B(  0-S ,  4-C ) :   1.1397 B(  1-C ,  2-C ) :   1.6441
B(  1-C , 32-H ) :   0.9680 B(  2-C ,  3-C ) :   1.2058 B(  2-C ,  6-C ) :   1.0220
B(  3-C ,  4-C ) :   1.5710 B(  3-C ,  5-H ) :   0.9875 B(  4-C , 20-C ) :   1.0894
B(  6-C ,  7-H ) :   0.9468 B(  6-C ,  8-H ) :   0.9438 B(  6-C ,  9-C ) :   1.0457
B(  9-C , 10-H ) :   0.9567 B(  9-C , 11-H ) :   0.9627 B(  9-C , 12-C ) :   1.0801
B( 12-C , 13-H ) :   0.9751 B( 12-C , 14-H ) :   0.9706 B( 12-C , 15-H ) :   0.9747
B( 16-S , 17-C ) :   1.1519 B( 16-S , 20-C ) :   1.1010 B( 17-C , 18-C ) :   1.6220
B( 17-C , 33-H ) :   0.9639 B( 18-C , 19-C ) :   1.2338 B( 18-C , 21-H ) :   0.9854
B( 19-C , 20-C ) :   1.6032 B( 19-C , 22-C ) :   1.0368 B( 22-C , 23-H ) :   0.9378
B( 22-C , 24-H ) :   0.9379 B( 22-C , 25-C ) :   1.0709 B( 25-C , 26-H ) :   0.9551
B( 25-C , 27-H ) :   0.9543 B( 25-C , 28-C ) :   1.0647 B( 28-C , 29-H ) :   0.9737
B( 28-C , 30-H ) :   0.9714 B( 28-C , 31-H ) :   0.9748

Dispersion correction           -0.014386744
FINAL SINGLE POINT ENERGY     -1339.868647131125

DIPOLE MOMENT
-------------
                                X             Y             Z
Electronic contribution:    -18.56243      -3.69665      16.71114
Nuclear contribution   :     19.14203       3.55387     -17.07258
                        -----------------------------------------
Total Dipole Moment    :      0.57960      -0.14278      -0.36144
                        -----------------------------------------
Magnitude (a.u.)       :      0.69783
Magnitude (Debye)      :      1.77374

Rotational constants in cm-1:     0.021554     0.007680     0.006715
Rotational constants in MHz :   646.185265   230.226423   201.308496

                             ****ORCA TERMINATED NORMALLY****
TOTAL RUN TIME: 0 days 0 hours 0 minutes 33 seconds 891 msec
