                         Program Version 4.2.1 -  RELEASE  -
|  1> ! wB97X-D3 SP def2-SVP
|  2> %pal
|  3> nprocs 16
|  4> end
|  5>
|  6> * xyz 0 1
|  7> S 	 -2.01866 	 -10.7545 	 70.2814
|  8> C 	 -2.97657 	 -12.1718 	 69.809
|  9> C 	 -2.3386 	 -13.3798 	 70.1288
| 10> C 	 -1.10758 	 -13.2277 	 70.8414
| 11> C 	 -0.798882 	 -11.8537 	 70.9874
| 12> H 	 -0.497761 	 -14.0088 	 71.2712
| 13> C 	 -2.94216 	 -14.7462 	 69.8993
| 14> H 	 -3.96462 	 -14.6101 	 69.4757
| 15> H 	 -3.10272 	 -15.248 	 70.8296
| 16> C 	 -2.13168 	 -15.566 	 68.9637
| 17> H 	 -2.01494 	 -15.0716 	 68.001
| 18> H 	 -1.11436 	 -15.491 	 69.336
| 19> C 	 -2.4627 	 -17.0696 	 68.9
| 20> H 	 -2.37314 	 -17.4983 	 69.8936
| 21> H 	 -3.43851 	 -17.2569 	 68.5067
| 22> H 	 -1.81763 	 -17.6823 	 68.3158
| 23> S 	 -0.223709 	 -9.9225 	 72.9078
| 24> C 	 1.33475 	 -9.85405 	 73.7583
| 25> C 	 2.13453 	 -10.8509 	 73.2313
| 26> C 	 1.55394 	 -11.6904 	 72.209
| 27> C 	 0.213883 	 -11.3224 	 71.9085
| 28> H 	 3.12387 	 -10.9576 	 73.6567
| 29> C 	 2.31772 	 -12.7141 	 71.4164
| 30> H 	 2.90391 	 -12.1526 	 70.7642
| 31> H 	 1.60981 	 -13.3297 	 70.9421
| 32> C 	 3.1145 	 -13.7112 	 72.2912
| 33> H 	 2.44485 	 -14.3955 	 72.8851
| 34> H 	 3.61029 	 -13.0764 	 73.032
| 35> C 	 4.21873 	 -14.4815 	 71.5698
| 36> H 	 5.12677 	 -14.8445 	 72.1021
| 37> H 	 4.62212 	 -13.8977 	 70.7703
| 38> H 	 3.74583 	 -15.2396 	 70.993
| 39> H 	 -3.90411 	 -12.1283 	 69.2318
| 40> H 	 1.64593 	 -9.21621 	 74.6375
| 41> *
| 42>
| 43>                          ****END OF INPUT****

CARTESIAN COORDINATES (ANGSTROEM)
---------------------------------
  S     -2.018660  -10.754500   70.281400
  C     -2.976570  -12.171800   69.809000
  C     -2.338600  -13.379800   70.128800
  C     -1.107580  -13.227700   70.841400
  C     -0.798882  -11.853700   70.987400
  H     -0.497761  -14.008800   71.271200
  C     -2.942160  -14.746200   69.899300
  H     -3.964620  -14.610100   69.475700
  H     -3.102720  -15.248000   70.829600
  C     -2.131680  -15.566000   68.963700
  H     -2.014940  -15.071600   68.001000
  H     -1.114360  -15.491000   69.336000
  C     -2.462700  -17.069600   68.900000
  H     -2.373140  -17.498300   69.893600
  H     -3.438510  -17.256900   68.506700
  H     -1.817630  -17.682300   68.315800
  S     -0.223709   -9.922500   72.907800
  C      1.334750   -9.854050   73.758300
  C      2.134530  -10.850900   73.231300
  C      1.553940  -11.690400   72.209000
  C      0.213883  -11.322400   71.908500
  H      3.123870  -10.957600   73.656700
  C      2.317720  -12.714100   71.416400
  H      2.903910  -12.152600   70.764200
  H      1.609810  -13.329700   70.942100
  C      3.114500  -13.711200   72.291200
  H      2.444850  -14.395500   72.885100
  H      3.610290  -13.076400   73.032000
  C      4.218730  -14.481500   71.569800
  H      5.126770  -14.844500   72.102100
  H      4.622120  -13.897700   70.770300
  H      3.745830  -15.239600   70.993000
  H     -3.904110  -12.128300   69.231800
  H      1.645930   -9.216210   74.637500

 Total Charge           Charge          ....    0
 Multiplicity           Mult            ....    1
 Number of Electrons    NEL             ....  134
 Basis Dimension        Dim             ....  322

ORBITAL ENERGIES
----------------

  NO   OCC          E(Eh)            E(eV)
   0   2.0000     -88.974891     -2421.1299
   1   2.0000     -88.963877     -2420.8302
   2   2.0000     -10.341490      -281.4063
   3   2.0000     -10.333729      -281.1951
   4   2.0000     -10.324377      -280.9406
   5   2.0000     -10.320583      -280.8373
   6   2.0000     -10.306926      -280.4657
   7   2.0000     -10.306403      -280.4515
   8   2.0000     -10.303653      -280.3766
   9   2.0000     -10.295439      -280.1531
  10   2.0000     -10.290772      -280.0261
  11   2.0000     -10.289552      -279.9929
  12   2.0000     -10.284374      -279.8520
  13   2.0000     -10.282857      -279.8108
  14   2.0000     -10.275426      -279.6086
  15   2.0000     -10.274830      -279.5923
  16   2.0000      -8.088188      -220.0908
  17   2.0000      -8.077645      -219.8039
  18   2.0000      -6.046771      -164.5410
  19   2.0000      -6.042974      -164.4377
  20   2.0000      -6.038876      -164.3262
  21   2.0000      -6.036323      -164.2567
  22   2.0000      -6.032143      -164.1430
  23   2.0000      -6.028386      -164.0407
  24   2.0000      -0.998965       -27.1832
  25   2.0000      -0.976334       -26.5674
  26   2.0000      -0.918468       -24.9928
  27   2.0000      -0.911174       -24.7943
  28   2.0000      -0.866713       -23.5845
  29   2.0000      -0.853137       -23.2150
  30   2.0000      -0.844090       -22.9688
  31   2.0000      -0.815483       -22.1904
  32   2.0000      -0.784530       -21.3481
  33   2.0000      -0.771882       -21.0040
  34   2.0000      -0.710918       -19.3451
  35   2.0000      -0.702190       -19.1076
  36   2.0000      -0.697420       -18.9778
  37   2.0000      -0.655507       -17.8373
  38   2.0000      -0.638360       -17.3707
  39   2.0000      -0.624010       -16.9802
  40   2.0000      -0.592985       -16.1360
  41   2.0000      -0.573454       -15.6045
  42   2.0000      -0.570115       -15.5136
  43   2.0000      -0.557912       -15.1816
  44   2.0000      -0.526201       -14.3187
  45   2.0000      -0.523052       -14.2330
  46   2.0000      -0.518711       -14.1148
  47   2.0000      -0.517350       -14.0778
  48   2.0000      -0.510053       -13.8793
  49   2.0000      -0.499890       -13.6027
  50   2.0000      -0.495782       -13.4909
  51   2.0000      -0.480562       -13.0768
  52   2.0000      -0.476571       -12.9682
  53   2.0000      -0.464876       -12.6499
  54   2.0000      -0.458892       -12.4871
  55   2.0000      -0.454320       -12.3627
  56   2.0000      -0.446920       -12.1613
  57   2.0000      -0.439085       -11.9481
  58   2.0000      -0.432620       -11.7722
  59   2.0000      -0.428829       -11.6690
  60   2.0000      -0.413074       -11.2403
  61   2.0000      -0.412088       -11.2135
  62   2.0000      -0.408922       -11.1273
  63   2.0000      -0.354954        -9.6588
  64   2.0000      -0.336026        -9.1437
  65   2.0000      -0.327581        -8.9139
  66   2.0000      -0.283909        -7.7256
  67   0.0000       0.018122         0.4931
  68   0.0000       0.071800         1.9538
  69   0.0000       0.101832         2.7710
  70   0.0000       0.117451         3.1960
  71   0.0000       0.127819         3.4781

MULLIKEN ATOMIC CHARGES
-----------------------
   0 S :    0.115491
   1 C :   -0.127816
   2 C :   -0.094290
   3 C :    0.021426
   4 C :   -0.142556
   5 H :    0.031572
   6 C :    0.095042
   7 H :    0.014206
   8 H :    0.023873
   9 C :   -0.088618
  10 H :    0.025367
  11 H :    0.010155
  12 C :   -0.003279
  13 H :    0.021744
  14 H :    0.024518
  15 H :    0.022773
  16 S :    0.085601
  17 C :   -0.116740
  18 C :   -0.043948
  19 C :   -0.074596
  20 C :   -0.135747
  21 H :    0.023297
  22 C :    0.156882
  23 H :    0.030481
  24 H :   -0.005319
  25 C :   -0.125739
  26 H :    0.039239
  27 H :    0.019692
  28 C :   -0.014678
  29 H :    0.050221
  30 H :    0.006403
  31 H :    0.014184
  32 H :    0.056058
  33 H :    0.085099
Sum of atomic charges:    0.0000000

LOEWDIN ATOMIC CHARGES
----------------------
   0 S :    0.390786
   1 C :   -0.196613
   2 C :   -0.055892
   3 C :   -0.055774
   4 C :   -0.174026
   5 H :    0.033390
   6 C :   -0.030267
   7 H :    0.030162
   8 H :    0.028156
   9 C :   -0.045980
  10 H :    0.026371
  11 H :    0.020543
  12 C :   -0.059544
  13 H :    0.026292
  14 H :    0.020885
  15 H :    0.023710
  16 S :    0.382538
  17 C :   -0.193678
  18 C :   -0.077391
  19 C :   -0.059209
  20 C :   -0.189646
  21 H :    0.028723
  22 C :   -0.016861
  23 H :    0.029473
  24 H :    0.021161
  25 C :   -0.042183
  26 H :    0.029336
  27 H :    0.017873
  28 C :   -0.073073
  29 H :    0.034868
  30 H :    0.022336
  31 H :    0.021203
  32 H :    0.031624
  33 H :    0.050704

  Mayer bond orders larger than 0.100000
B(  0-S ,  1-C ) :   1.1201 B(  0-S ,  4-C ) :   1.1527 B(  1-C ,  2-C ) :   1.6193
B(  1-C , 32-H ) :   0.9627 B(  2-C ,  3-C ) :   1.2404 B(  2-C ,  6-C ) :   1.0319
B(  3-C ,  4-C ) :   1.5489 B(  3-C ,  5-H ) :   0.9792 B(  4-C , 20-C ) :   1.0665
B(  6-C ,  7-H ) :   0.9347 B(  6-C ,  8-H ) :   0.9387 B(  6-C ,  9-C ) :   1.0591
B(  9-C , 10-H ) :   0.9506 B(  9-C , 11-H ) :   0.9569 B(  9-C , 12-C ) :   1.0785
B( 12-C , 13-H ) :   0.9717 B( 12-C , 14-H ) :   0.9757 B( 12-C , 15-H ) :   0.9735
B( 16-S , 17-C ) :   1.1397 B( 16-S , 20-C ) :   1.1373 B( 17-C , 18-C ) :   1.6182
B( 17-C , 33-H ) :   0.9592 B( 18-C , 19-C ) :   1.2403 B( 18-C , 21-H ) :   0.9836
B( 19-C , 20-C ) :   1.5638 B( 19-C , 22-C ) :   1.0448 B( 22-C , 23-H ) :   0.9303
B( 22-C , 24-H ) :   0.9244 B( 22-C , 25-C ) :   1.0564 B( 25-C , 26-H ) :   0.9583
B( 25-C , 27-H ) :   0.9632 B( 25-C , 28-C ) :   1.0718 B( 28-C , 29-H ) :   0.9760
B( 28-C , 30-H ) :   0.9689 B( 28-C , 31-H ) :   0.9706

Dispersion correction           -0.013389537
FINAL SINGLE POINT ENERGY     -1339.870680655471

DIPOLE MOMENT
-------------
                                X             Y             Z
Electronic contribution:    -10.26555      29.72283       7.00748
Nuclear contribution   :     10.54118     -30.34791      -7.06254
                        -----------------------------------------
Total Dipole Moment    :      0.27563      -0.62508      -0.05506
                        -----------------------------------------
Magnitude (a.u.)       :      0.68537
Magnitude (Debye)      :      1.74206

Rotational constants in cm-1:     0.015967     0.009049     0.006078
Rotational constants in MHz :   478.672209   271.289594   182.227927

                             ****ORCA TERMINATED NORMALLY****
TOTAL RUN TIME: 0 days 0 hours 0 minutes 32 seconds 933 msec
