                         Program Version 4.2.1 -  RELEASE  -
|  1> ! wB97X-D3 SP def2-SVP
|  2> %pal
|  3> nprocs 16
|  4> end
|  5>
|  6> * xyz 0 1
|  7> S 	 -70.6366 	 40.3595 	 126.464
|  8> C 	 -70.8791 	 41.1802 	 128.03
|  9> C 	 -71.212 	 40.3064 	 129.045
| 10> C 	 -71.2993 	 38.9619 	 128.551
| 11> C 	 -71.1983 	 38.8358 	 127.181
| 12> H 	 -71.5854 	 38.0229 	 129.114
| 13> C 	 -71.3554 	 40.7005 	 130.526
| 14> H 	 -72.2456 	 41.3998 	 130.691
| 15> H 	 -70.5166 	 41.278 	 130.866
| 16> C 	 -71.5034 	 39.5437 	 131.489
| 17> H 	 -72.5128 	 39.1359 	 131.31
| 18> H 	 -70.6713 	 38.8094 	 131.335
| 19> C 	 -71.6707 	 39.9601 	 132.958
| 20> H 	 -71.6326 	 39.0159 	 133.468
| 21> H 	 -70.8053 	 40.5838 	 133.304
| 22> H 	 -72.5396 	 40.5601 	 133.235
| 23> S 	 -72.9946 	 37.0924 	 126.256
| 24> C 	 -72.5848 	 35.7109 	 125.302
| 25> C 	 -71.231 	 35.7669 	 124.914
| 26> C 	 -70.549 	 36.8396 	 125.6
| 27> C 	 -71.3773 	 37.6101 	 126.409
| 28> H 	 -70.8591 	 34.9377 	 124.286
| 29> C 	 -69.0188 	 36.9622 	 125.24
| 30> H 	 -68.7575 	 38.0502 	 125.194
| 31> H 	 -69.0458 	 36.7146 	 124.184
| 32> C 	 -68.0103 	 35.9563 	 125.812
| 33> H 	 -68.396 	 35.0494 	 125.387
| 34> H 	 -68.1152 	 35.997 	 126.929
| 35> C 	 -66.5244 	 36.1557 	 125.38
| 36> H 	 -65.9681 	 36.6382 	 126.263
| 37> H 	 -66.4074 	 36.6298 	 124.386
| 38> H 	 -66.0129 	 35.1933 	 125.353
| 39> H 	 -70.6677 	 42.2365 	 128.252
| 40> H 	 -73.3377 	 35.0731 	 124.935
| 41> *
| 42>
| 43>                          ****END OF INPUT****

CARTESIAN COORDINATES (ANGSTROEM)
---------------------------------
  S    -70.636600   40.359500  126.464000
  C    -70.879100   41.180200  128.030000
  C    -71.212000   40.306400  129.045000
  C    -71.299300   38.961900  128.551000
  C    -71.198300   38.835800  127.181000
  H    -71.585400   38.022900  129.114000
  C    -71.355400   40.700500  130.526000
  H    -72.245600   41.399800  130.691000
  H    -70.516600   41.278000  130.866000
  C    -71.503400   39.543700  131.489000
  H    -72.512800   39.135900  131.310000
  H    -70.671300   38.809400  131.335000
  C    -71.670700   39.960100  132.958000
  H    -71.632600   39.015900  133.468000
  H    -70.805300   40.583800  133.304000
  H    -72.539600   40.560100  133.235000
  S    -72.994600   37.092400  126.256000
  C    -72.584800   35.710900  125.302000
  C    -71.231000   35.766900  124.914000
  C    -70.549000   36.839600  125.600000
  C    -71.377300   37.610100  126.409000
  H    -70.859100   34.937700  124.286000
  C    -69.018800   36.962200  125.240000
  H    -68.757500   38.050200  125.194000
  H    -69.045800   36.714600  124.184000
  C    -68.010300   35.956300  125.812000
  H    -68.396000   35.049400  125.387000
  H    -68.115200   35.997000  126.929000
  C    -66.524400   36.155700  125.380000
  H    -65.968100   36.638200  126.263000
  H    -66.407400   36.629800  124.386000
  H    -66.012900   35.193300  125.353000
  H    -70.667700   42.236500  128.252000
  H    -73.337700   35.073100  124.935000

 Total Charge           Charge          ....    0
 Multiplicity           Mult            ....    1
 Number of Electrons    NEL             ....  134
 Basis Dimension        Dim             ....  322

ORBITAL ENERGIES
----------------

  NO   OCC          E(Eh)            E(eV)
   0   2.0000     -88.967475     -2420.9281
   1   2.0000     -88.963825     -2420.8288
   2   2.0000     -10.329591      -281.0825
   3   2.0000     -10.324347      -280.9398
   4   2.0000     -10.317027      -280.7406
   5   2.0000     -10.314550      -280.6732
   6   2.0000     -10.309456      -280.5346
   7   2.0000     -10.304189      -280.3912
   8   2.0000     -10.299883      -280.2741
   9   2.0000     -10.298678      -280.2413
  10   2.0000     -10.295659      -280.1591
  11   2.0000     -10.292259      -280.0666
  12   2.0000     -10.290619      -280.0220
  13   2.0000     -10.289775      -279.9990
  14   2.0000     -10.287835      -279.9462
  15   2.0000     -10.281279      -279.7678
  16   2.0000      -8.080912      -219.8928
  17   2.0000      -8.079810      -219.8628
  18   2.0000      -6.039518      -164.3436
  19   2.0000      -6.038094      -164.3049
  20   2.0000      -6.035707      -164.2399
  21   2.0000      -6.033968      -164.1926
  22   2.0000      -6.031542      -164.1266
  23   2.0000      -6.030887      -164.1088
  24   2.0000      -1.006712       -27.3940
  25   2.0000      -0.981040       -26.6955
  26   2.0000      -0.912088       -24.8192
  27   2.0000      -0.901388       -24.5280
  28   2.0000      -0.869692       -23.6655
  29   2.0000      -0.846925       -23.0460
  30   2.0000      -0.841146       -22.8888
  31   2.0000      -0.811638       -22.0858
  32   2.0000      -0.780936       -21.2503
  33   2.0000      -0.771948       -21.0058
  34   2.0000      -0.706802       -19.2331
  35   2.0000      -0.691551       -18.8181
  36   2.0000      -0.680572       -18.5193
  37   2.0000      -0.665791       -18.1171
  38   2.0000      -0.635530       -17.2937
  39   2.0000      -0.613099       -16.6833
  40   2.0000      -0.589358       -16.0372
  41   2.0000      -0.574872       -15.6431
  42   2.0000      -0.566266       -15.4089
  43   2.0000      -0.562225       -15.2989
  44   2.0000      -0.527743       -14.3606
  45   2.0000      -0.519674       -14.1410
  46   2.0000      -0.514231       -13.9929
  47   2.0000      -0.507109       -13.7991
  48   2.0000      -0.497815       -13.5462
  49   2.0000      -0.494663       -13.4605
  50   2.0000      -0.485366       -13.2075
  51   2.0000      -0.484000       -13.1703
  52   2.0000      -0.475893       -12.9497
  53   2.0000      -0.466474       -12.6934
  54   2.0000      -0.457149       -12.4397
  55   2.0000      -0.445955       -12.1350
  56   2.0000      -0.439810       -11.9678
  57   2.0000      -0.433052       -11.7840
  58   2.0000      -0.429196       -11.6790
  59   2.0000      -0.421395       -11.4667
  60   2.0000      -0.414672       -11.2838
  61   2.0000      -0.411182       -11.1888
  62   2.0000      -0.409372       -11.1396
  63   2.0000      -0.335501        -9.1295
  64   2.0000      -0.334179        -9.0935
  65   2.0000      -0.326148        -8.8749
  66   2.0000      -0.301436        -8.2025
  67   0.0000       0.036164         0.9841
  68   0.0000       0.062245         1.6938
  69   0.0000       0.104224         2.8361
  70   0.0000       0.117403         3.1947
  71   0.0000       0.131599         3.5810

MULLIKEN ATOMIC CHARGES
-----------------------
   0 S :    0.115939
   1 C :   -0.130835
   2 C :   -0.053055
   3 C :   -0.004446
   4 C :   -0.141438
   5 H :    0.041600
   6 C :    0.046767
   7 H :    0.042725
   8 H :    0.023337
   9 C :   -0.131228
  10 H :    0.038582
  11 H :    0.051929
  12 C :   -0.037573
  13 H :    0.036683
  14 H :    0.024488
  15 H :    0.039907
  16 S :    0.121351
  17 C :   -0.097376
  18 C :   -0.058609
  19 C :   -0.036350
  20 C :   -0.188861
  21 H :    0.043004
  22 C :    0.045559
  23 H :    0.025310
  24 H :    0.012345
  25 C :   -0.053241
  26 H :    0.018216
  27 H :    0.047232
  28 C :   -0.069787
  29 H :    0.049087
  30 H :    0.047412
  31 H :    0.032270
  32 H :    0.051426
  33 H :    0.047631
Sum of atomic charges:    0.0000000

LOEWDIN ATOMIC CHARGES
----------------------
   0 S :    0.384313
   1 C :   -0.186271
   2 C :   -0.066009
   3 C :   -0.068290
   4 C :   -0.193939
   5 H :    0.043576
   6 C :   -0.039352
   7 H :    0.040838
   8 H :    0.024801
   9 C :   -0.050909
  10 H :    0.030331
  11 H :    0.031525
  12 C :   -0.065552
  13 H :    0.028547
  14 H :    0.023630
  15 H :    0.026693
  16 S :    0.447531
  17 C :   -0.188713
  18 C :   -0.075883
  19 C :   -0.056073
  20 C :   -0.223130
  21 H :    0.038655
  22 C :   -0.040293
  23 H :    0.024901
  24 H :    0.027481
  25 C :   -0.041402
  26 H :    0.019367
  27 H :    0.031440
  28 C :   -0.076067
  29 H :    0.040160
  30 H :    0.030174
  31 H :    0.026781
  32 H :    0.033112
  33 H :    0.018028

  Mayer bond orders larger than 0.100000
B(  0-S ,  1-C ) :   1.1322 B(  0-S ,  4-C ) :   1.1246 B(  1-C ,  2-C ) :   1.6426
B(  1-C , 32-H ) :   0.9664 B(  2-C ,  3-C ) :   1.2323 B(  2-C ,  6-C ) :   0.9986
B(  3-C ,  4-C ) :   1.6015 B(  3-C ,  5-H ) :   0.9760 B(  4-C , 20-C ) :   1.0241
B(  6-C ,  7-H ) :   0.9372 B(  6-C ,  8-H ) :   0.9409 B(  6-C ,  9-C ) :   1.1003
B(  9-C , 10-H ) :   0.9469 B(  9-C , 11-H ) :   0.9492 B(  9-C , 12-C ) :   1.0789
B( 12-C , 13-H ) :   0.9724 B( 12-C , 14-H ) :   0.9726 B( 12-C , 15-H ) :   0.9751
B( 16-S , 17-C ) :   1.1866 B( 16-S , 20-C ) :   1.1735 B( 17-C , 18-C ) :   1.5725
B( 17-C , 20-C ) :   0.1024 B( 17-C , 33-H ) :   0.9750 B( 18-C , 19-C ) :   1.2568
B( 18-C , 21-H ) :   0.9847 B( 19-C , 20-C ) :   1.5807 B( 19-C , 22-C ) :   1.0220
B( 22-C , 23-H ) :   0.9418 B( 22-C , 24-H ) :   0.9361 B( 22-C , 25-C ) :   1.0524
B( 25-C , 26-H ) :   0.9569 B( 25-C , 27-H ) :   0.9621 B( 25-C , 28-C ) :   1.0711
B( 28-C , 29-H ) :   0.9766 B( 28-C , 30-H ) :   0.9750 B( 28-C , 31-H ) :   0.9758

Dispersion correction           -0.013244452
FINAL SINGLE POINT ENERGY     -1339.863069096645

DIPOLE MOMENT
-------------
                                X             Y             Z
Electronic contribution:    -14.44796       3.81434     -15.27920
Nuclear contribution   :     14.65376      -4.02659      15.56241
                        -----------------------------------------
Total Dipole Moment    :      0.20580      -0.21224       0.28321
                        -----------------------------------------
Magnitude (a.u.)       :      0.40940
Magnitude (Debye)      :      1.04062

Rotational constants in cm-1:     0.017630     0.007311     0.006579
Rotational constants in MHz :   528.525909   219.179873   197.220303

                             ****ORCA TERMINATED NORMALLY****
TOTAL RUN TIME: 0 days 0 hours 0 minutes 31 seconds 231 msec
