                         Program Version 4.2.1 -  RELEASE  -
|  1> ! wB97X-D3 SP def2-SVP
|  2> %pal
|  3> nprocs 16
|  4> end
|  5>
|  6> * xyz 0 1
|  7> S 	 -14.9545 	 38.9992 	 40.5519
|  8> C 	 -14.1957 	 40.3233 	 39.6539
|  9> C 	 -13.0104 	 39.8759 	 39.0824
| 10> C 	 -12.6124 	 38.6034 	 39.6604
| 11> C 	 -13.5542 	 38.0271 	 40.4694
| 12> H 	 -11.7302 	 38.0452 	 39.464
| 13> C 	 -12.1515 	 40.6631 	 38.1797
| 14> H 	 -11.1449 	 40.175 	 38.386
| 15> H 	 -12.1417 	 41.714 	 38.5168
| 16> C 	 -12.5018 	 40.5986 	 36.6663
| 17> H 	 -13.356 	 41.256 	 36.5865
| 18> H 	 -11.6724 	 41.0092 	 36.0238
| 19> C 	 -12.7382 	 39.1424 	 36.095
| 20> H 	 -13.5173 	 38.5482 	 36.6224
| 21> H 	 -12.9472 	 39.0548 	 35.0541
| 22> H 	 -11.8876 	 38.57 	 36.2909
| 23> S 	 -13.02 	 36.6055 	 42.7492
| 24> C 	 -13.2118 	 34.891 	 42.6347
| 25> C 	 -13.5033 	 34.3638 	 41.4092
| 26> C 	 -13.7191 	 35.4392 	 40.4629
| 27> C 	 -13.494 	 36.7123 	 41.1033
| 28> H 	 -13.6186 	 33.4033 	 41.2061
| 29> C 	 -14.1882 	 35.2342 	 39.0563
| 30> H 	 -13.9832 	 36.1121 	 38.4851
| 31> H 	 -15.2124 	 34.9884 	 39.1152
| 32> C 	 -13.4304 	 34.1476 	 38.3039
| 33> H 	 -13.5571 	 33.272 	 38.9129
| 34> H 	 -12.3318 	 34.3883 	 38.3161
| 35> C 	 -14.0496 	 33.9999 	 36.9323
| 36> H 	 -14.4939 	 34.8684 	 36.5156
| 37> H 	 -14.9751 	 33.2787 	 36.9875
| 38> H 	 -13.2593 	 33.4848 	 36.349
| 39> H 	 -14.6494 	 41.2275 	 39.2026
| 40> H 	 -13.1717 	 34.2673 	 43.5453
| 41> *
| 42>
| 43>                          ****END OF INPUT****

CARTESIAN COORDINATES (ANGSTROEM)
---------------------------------
  S    -14.954500   38.999200   40.551900
  C    -14.195700   40.323300   39.653900
  C    -13.010400   39.875900   39.082400
  C    -12.612400   38.603400   39.660400
  C    -13.554200   38.027100   40.469400
  H    -11.730200   38.045200   39.464000
  C    -12.151500   40.663100   38.179700
  H    -11.144900   40.175000   38.386000
  H    -12.141700   41.714000   38.516800
  C    -12.501800   40.598600   36.666300
  H    -13.356000   41.256000   36.586500
  H    -11.672400   41.009200   36.023800
  C    -12.738200   39.142400   36.095000
  H    -13.517300   38.548200   36.622400
  H    -12.947200   39.054800   35.054100
  H    -11.887600   38.570000   36.290900
  S    -13.020000   36.605500   42.749200
  C    -13.211800   34.891000   42.634700
  C    -13.503300   34.363800   41.409200
  C    -13.719100   35.439200   40.462900
  C    -13.494000   36.712300   41.103300
  H    -13.618600   33.403300   41.206100
  C    -14.188200   35.234200   39.056300
  H    -13.983200   36.112100   38.485100
  H    -15.212400   34.988400   39.115200
  C    -13.430400   34.147600   38.303900
  H    -13.557100   33.272000   38.912900
  H    -12.331800   34.388300   38.316100
  C    -14.049600   33.999900   36.932300
  H    -14.493900   34.868400   36.515600
  H    -14.975100   33.278700   36.987500
  H    -13.259300   33.484800   36.349000
  H    -14.649400   41.227500   39.202600
  H    -13.171700   34.267300   43.545300

 Total Charge           Charge          ....    0
 Multiplicity           Mult            ....    1
 Number of Electrons    NEL             ....  134
 Basis Dimension        Dim             ....  322

ORBITAL ENERGIES
----------------

  NO   OCC          E(Eh)            E(eV)
   0   2.0000     -88.969613     -2420.9863
   1   2.0000     -88.962544     -2420.7939
   2   2.0000     -10.322390      -280.8865
   3   2.0000     -10.320080      -280.8237
   4   2.0000     -10.315943      -280.7111
   5   2.0000     -10.312580      -280.6196
   6   2.0000     -10.306145      -280.4445
   7   2.0000     -10.298838      -280.2456
   8   2.0000     -10.297069      -280.1975
   9   2.0000     -10.296166      -280.1729
  10   2.0000     -10.287627      -279.9406
  11   2.0000     -10.286398      -279.9071
  12   2.0000     -10.286084      -279.8986
  13   2.0000     -10.285989      -279.8960
  14   2.0000     -10.280297      -279.7411
  15   2.0000     -10.275051      -279.5983
  16   2.0000      -8.085194      -220.0093
  17   2.0000      -8.077572      -219.8019
  18   2.0000      -6.043396      -164.4492
  19   2.0000      -6.039752      -164.3500
  20   2.0000      -6.036105      -164.2508
  21   2.0000      -6.036070      -164.2498
  22   2.0000      -6.031993      -164.1389
  23   2.0000      -6.028314      -164.0388
  24   2.0000      -1.007458       -27.4143
  25   2.0000      -0.984949       -26.8018
  26   2.0000      -0.919872       -25.0310
  27   2.0000      -0.910567       -24.7778
  28   2.0000      -0.866215       -23.5709
  29   2.0000      -0.853694       -23.2302
  30   2.0000      -0.841438       -22.8967
  31   2.0000      -0.815419       -22.1887
  32   2.0000      -0.785496       -21.3744
  33   2.0000      -0.767152       -20.8753
  34   2.0000      -0.707920       -19.2635
  35   2.0000      -0.703642       -19.1471
  36   2.0000      -0.692041       -18.8314
  37   2.0000      -0.663016       -18.0416
  38   2.0000      -0.634862       -17.2755
  39   2.0000      -0.613594       -16.6967
  40   2.0000      -0.599772       -16.3206
  41   2.0000      -0.578099       -15.7309
  42   2.0000      -0.566879       -15.4256
  43   2.0000      -0.548955       -14.9378
  44   2.0000      -0.542303       -14.7568
  45   2.0000      -0.533173       -14.5084
  46   2.0000      -0.520335       -14.1590
  47   2.0000      -0.505772       -13.7628
  48   2.0000      -0.503655       -13.7051
  49   2.0000      -0.494335       -13.4515
  50   2.0000      -0.484946       -13.1960
  51   2.0000      -0.478262       -13.0142
  52   2.0000      -0.469350       -12.7717
  53   2.0000      -0.467389       -12.7183
  54   2.0000      -0.461758       -12.5651
  55   2.0000      -0.457310       -12.4440
  56   2.0000      -0.445548       -12.1240
  57   2.0000      -0.435279       -11.8446
  58   2.0000      -0.432226       -11.7615
  59   2.0000      -0.426686       -11.6107
  60   2.0000      -0.422374       -11.4934
  61   2.0000      -0.413369       -11.2484
  62   2.0000      -0.411347       -11.1933
  63   2.0000      -0.339299        -9.2328
  64   2.0000      -0.324928        -8.8417
  65   2.0000      -0.318029        -8.6540
  66   2.0000      -0.306048        -8.3280
  67   0.0000       0.045995         1.2516
  68   0.0000       0.057467         1.5638
  69   0.0000       0.116293         3.1645
  70   0.0000       0.120331         3.2744
  71   0.0000       0.124318         3.3829

MULLIKEN ATOMIC CHARGES
-----------------------
   0 S :    0.117322
   1 C :   -0.111927
   2 C :   -0.123114
   3 C :    0.059439
   4 C :   -0.186199
   5 H :   -0.005929
   6 C :    0.028551
   7 H :    0.031790
   8 H :    0.044692
   9 C :   -0.064141
  10 H :    0.026440
  11 H :    0.045248
  12 C :   -0.047892
  13 H :    0.041932
  14 H :    0.034228
  15 H :    0.009515
  16 S :    0.145058
  17 C :   -0.090844
  18 C :    0.029653
  19 C :   -0.046085
  20 C :   -0.197092
  21 H :   -0.041986
  22 C :    0.116428
  23 H :    0.020963
  24 H :    0.029804
  25 C :   -0.126774
  26 H :    0.022821
  27 H :    0.042135
  28 C :   -0.037752
  29 H :    0.032648
  30 H :    0.036609
  31 H :    0.047049
  32 H :    0.057183
  33 H :    0.060225
Sum of atomic charges:   -0.0000000

LOEWDIN ATOMIC CHARGES
----------------------
   0 S :    0.417225
   1 C :   -0.208153
   2 C :   -0.064774
   3 C :   -0.066077
   4 C :   -0.213900
   5 H :    0.024461
   6 C :   -0.041194
   7 H :    0.037086
   8 H :    0.038037
   9 C :   -0.035124
  10 H :    0.018599
  11 H :    0.032692
  12 C :   -0.068114
  13 H :    0.029789
  14 H :    0.023755
  15 H :    0.016402
  16 S :    0.439801
  17 C :   -0.184720
  18 C :   -0.055516
  19 C :   -0.036147
  20 C :   -0.230175
  21 H :    0.006031
  22 C :   -0.029500
  23 H :    0.027371
  24 H :    0.029960
  25 C :   -0.042830
  26 H :    0.017159
  27 H :    0.029486
  28 C :   -0.068648
  29 H :    0.019774
  30 H :    0.037843
  31 H :    0.033935
  32 H :    0.035997
  33 H :    0.029468

  Mayer bond orders larger than 0.100000
B(  0-S ,  1-C ) :   1.1301 B(  0-S ,  4-C ) :   1.1669 B(  1-C ,  2-C ) :   1.6201
B(  1-C , 32-H ) :   0.9592 B(  2-C ,  3-C ) :   1.2182 B(  2-C ,  6-C ) :   1.0188
B(  3-C ,  4-C ) :   1.6042 B(  3-C ,  5-H ) :   0.9968 B(  4-C , 20-C ) :   1.0005
B(  6-C ,  7-H ) :   0.9415 B(  6-C ,  8-H ) :   0.9485 B(  6-C ,  9-C ) :   1.0566
B(  9-C , 10-H ) :   0.9597 B(  9-C , 11-H ) :   0.9591 B(  9-C , 12-C ) :   1.0660
B( 12-C , 13-H ) :   0.9719 B( 12-C , 14-H ) :   0.9768 B( 12-C , 15-H ) :   0.9748
B( 16-S , 17-C ) :   1.1692 B( 16-S , 20-C ) :   1.1683 B( 17-C , 18-C ) :   1.6027
B( 17-C , 33-H ) :   0.9594 B( 18-C , 19-C ) :   1.2376 B( 18-C , 21-H ) :   1.0134
B( 19-C , 20-C ) :   1.5747 B( 19-C , 22-C ) :   1.0488 B( 22-C , 23-H ) :   0.9229
B( 22-C , 24-H ) :   0.9280 B( 22-C , 25-C ) :   1.0656 B( 25-C , 26-H ) :   0.9532
B( 25-C , 27-H ) :   0.9616 B( 25-C , 28-C ) :   1.0758 B( 28-C , 29-H ) :   0.9740
B( 28-C , 30-H ) :   0.9709 B( 28-C , 31-H ) :   0.9733

Dispersion correction           -0.014990388
FINAL SINGLE POINT ENERGY     -1339.858102131186

DIPOLE MOMENT
-------------
                                X             Y             Z
Electronic contribution:     -4.51044       4.98531      28.29996
Nuclear contribution   :      4.65434      -5.30259     -28.86220
                        -----------------------------------------
Total Dipole Moment    :      0.14390      -0.31728      -0.56224
                        -----------------------------------------
Magnitude (a.u.)       :      0.66143
Magnitude (Debye)      :      1.68122

Rotational constants in cm-1:     0.017073     0.009896     0.007121
Rotational constants in MHz :   511.823929   296.671244   213.490230

                             ****ORCA TERMINATED NORMALLY****
TOTAL RUN TIME: 0 days 0 hours 0 minutes 34 seconds 629 msec
