                         Program Version 4.2.1 -  RELEASE  -
|  1> ! wB97X-D3 SP def2-SVP
|  2> %pal
|  3> nprocs 16
|  4> end
|  5>
|  6> * xyz 0 1
|  7> S 	 44.6161 	 16.1574 	 85.0405
|  8> C 	 45.0959 	 17.5845 	 84.1347
|  9> C 	 44.9266 	 18.7282 	 84.9212
| 10> C 	 44.3778 	 18.4977 	 86.2186
| 11> C 	 44.2059 	 17.1488 	 86.4843
| 12> H 	 44.0968 	 19.2845 	 86.8712
| 13> C 	 45.2445 	 20.1339 	 84.5045
| 14> H 	 44.4633 	 20.7556 	 84.8162
| 15> H 	 45.1521 	 20.143 	 83.4231
| 16> C 	 46.6176 	 20.791 	 84.7727
| 17> H 	 46.7633 	 20.9353 	 85.781
| 18> H 	 47.403 	 20.1139 	 84.5256
| 19> C 	 46.7815 	 22.1035 	 83.9997
| 20> H 	 45.9431 	 22.7468 	 84.227
| 21> H 	 47.6625 	 22.7502 	 84.2973
| 22> H 	 46.9506 	 21.906 	 82.9551
| 23> S 	 42.4797 	 15.3164 	 87.6902
| 24> C 	 42.3604 	 15.2565 	 89.4064
| 25> C 	 43.2194 	 16.1116 	 90.0814
| 26> C 	 44.0123 	 16.8556 	 89.1274
| 27> C 	 43.7624 	 16.4743 	 87.772
| 28> H 	 43.0691 	 16.1665 	 91.1735
| 29> C 	 44.7994 	 18.0836 	 89.5688
| 30> H 	 44.069 	 18.6983 	 90.0819
| 31> H 	 45.1354 	 18.6237 	 88.7816
| 32> C 	 45.9906 	 17.9104 	 90.3829
| 33> H 	 46.7891 	 17.6672 	 89.6896
| 34> H 	 45.7934 	 17.0804 	 91.0805
| 35> C 	 46.5414 	 19.1652 	 91.1516
| 36> H 	 47.5524 	 18.9941 	 91.47
| 37> H 	 45.9937 	 19.2875 	 92.0507
| 38> H 	 46.5242 	 20.0915 	 90.5946
| 39> H 	 45.5533 	 17.5339 	 83.122
| 40> H 	 41.6876 	 14.5901 	 89.8679
| 41> *
| 42>
| 43>                          ****END OF INPUT****

CARTESIAN COORDINATES (ANGSTROEM)
---------------------------------
  S     44.616100   16.157400   85.040500
  C     45.095900   17.584500   84.134700
  C     44.926600   18.728200   84.921200
  C     44.377800   18.497700   86.218600
  C     44.205900   17.148800   86.484300
  H     44.096800   19.284500   86.871200
  C     45.244500   20.133900   84.504500
  H     44.463300   20.755600   84.816200
  H     45.152100   20.143000   83.423100
  C     46.617600   20.791000   84.772700
  H     46.763300   20.935300   85.781000
  H     47.403000   20.113900   84.525600
  C     46.781500   22.103500   83.999700
  H     45.943100   22.746800   84.227000
  H     47.662500   22.750200   84.297300
  H     46.950600   21.906000   82.955100
  S     42.479700   15.316400   87.690200
  C     42.360400   15.256500   89.406400
  C     43.219400   16.111600   90.081400
  C     44.012300   16.855600   89.127400
  C     43.762400   16.474300   87.772000
  H     43.069100   16.166500   91.173500
  C     44.799400   18.083600   89.568800
  H     44.069000   18.698300   90.081900
  H     45.135400   18.623700   88.781600
  C     45.990600   17.910400   90.382900
  H     46.789100   17.667200   89.689600
  H     45.793400   17.080400   91.080500
  C     46.541400   19.165200   91.151600
  H     47.552400   18.994100   91.470000
  H     45.993700   19.287500   92.050700
  H     46.524200   20.091500   90.594600
  H     45.553300   17.533900   83.122000
  H     41.687600   14.590100   89.867900

 Total Charge           Charge          ....    0
 Multiplicity           Mult            ....    1
 Number of Electrons    NEL             ....  134
 Basis Dimension        Dim             ....  322

ORBITAL ENERGIES
----------------

  NO   OCC          E(Eh)            E(eV)
   0   2.0000     -88.967529     -2420.9295
   1   2.0000     -88.966800     -2420.9097
   2   2.0000     -10.340043      -281.3669
   3   2.0000     -10.333482      -281.1883
   4   2.0000     -10.320079      -280.8236
   5   2.0000     -10.314551      -280.6732
   6   2.0000     -10.313266      -280.6382
   7   2.0000     -10.301781      -280.3257
   8   2.0000     -10.301175      -280.3092
   9   2.0000     -10.293892      -280.1110
  10   2.0000     -10.283815      -279.8368
  11   2.0000     -10.281474      -279.7731
  12   2.0000     -10.279687      -279.7245
  13   2.0000     -10.278474      -279.6915
  14   2.0000     -10.275455      -279.6093
  15   2.0000     -10.274229      -279.5760
  16   2.0000      -8.083123      -219.9530
  17   2.0000      -8.080675      -219.8863
  18   2.0000      -6.041430      -164.3957
  19   2.0000      -6.039296      -164.3376
  20   2.0000      -6.037452      -164.2874
  21   2.0000      -6.035269      -164.2280
  22   2.0000      -6.034120      -164.1967
  23   2.0000      -6.031412      -164.1231
  24   2.0000      -1.002033       -27.2667
  25   2.0000      -0.981770       -26.7153
  26   2.0000      -0.919067       -25.0091
  27   2.0000      -0.910914       -24.7872
  28   2.0000      -0.863945       -23.5091
  29   2.0000      -0.852335       -23.1932
  30   2.0000      -0.847779       -23.0692
  31   2.0000      -0.816281       -22.2121
  32   2.0000      -0.787651       -21.4331
  33   2.0000      -0.769689       -20.9443
  34   2.0000      -0.711333       -19.3564
  35   2.0000      -0.701038       -19.0762
  36   2.0000      -0.692177       -18.8351
  37   2.0000      -0.657990       -17.9048
  38   2.0000      -0.639919       -17.4131
  39   2.0000      -0.628959       -17.1149
  40   2.0000      -0.604560       -16.4509
  41   2.0000      -0.574743       -15.6395
  42   2.0000      -0.570537       -15.5251
  43   2.0000      -0.559577       -15.2269
  44   2.0000      -0.523032       -14.2324
  45   2.0000      -0.519132       -14.1263
  46   2.0000      -0.518078       -14.0976
  47   2.0000      -0.512629       -13.9493
  48   2.0000      -0.510768       -13.8987
  49   2.0000      -0.496035       -13.4978
  50   2.0000      -0.493208       -13.4209
  51   2.0000      -0.481929       -13.1139
  52   2.0000      -0.477423       -12.9913
  53   2.0000      -0.465729       -12.6731
  54   2.0000      -0.458444       -12.4749
  55   2.0000      -0.454659       -12.3719
  56   2.0000      -0.450290       -12.2530
  57   2.0000      -0.434113       -11.8128
  58   2.0000      -0.431523       -11.7423
  59   2.0000      -0.426436       -11.6039
  60   2.0000      -0.421169       -11.4606
  61   2.0000      -0.420691       -11.4476
  62   2.0000      -0.409914       -11.1543
  63   2.0000      -0.350097        -9.5266
  64   2.0000      -0.332265        -9.0414
  65   2.0000      -0.328283        -8.9330
  66   2.0000      -0.290067        -7.8931
  67   0.0000       0.028434         0.7737
  68   0.0000       0.070672         1.9231
  69   0.0000       0.106957         2.9105
  70   0.0000       0.115546         3.1442
  71   0.0000       0.130401         3.5484

MULLIKEN ATOMIC CHARGES
-----------------------
   0 S :    0.095617
   1 C :   -0.131591
   2 C :   -0.099939
   3 C :    0.037802
   4 C :   -0.133896
   5 H :    0.014322
   6 C :    0.057872
   7 H :    0.007684
   8 H :    0.005945
   9 C :    0.010549
  10 H :    0.000497
  11 H :    0.013764
  12 C :   -0.075967
  13 H :    0.032198
  14 H :    0.036474
  15 H :    0.037900
  16 S :    0.116593
  17 C :   -0.092527
  18 C :   -0.041664
  19 C :   -0.059710
  20 C :   -0.126948
  21 H :    0.040437
  22 C :    0.134810
  23 H :    0.023684
  24 H :   -0.029249
  25 C :   -0.090632
  26 H :    0.029430
  27 H :    0.026408
  28 C :   -0.028556
  29 H :    0.028071
  30 H :    0.020718
  31 H :    0.028716
  32 H :    0.068210
  33 H :    0.042980
Sum of atomic charges:   -0.0000000

LOEWDIN ATOMIC CHARGES
----------------------
   0 S :    0.382804
   1 C :   -0.202997
   2 C :   -0.062667
   3 C :   -0.061906
   4 C :   -0.168914
   5 H :    0.029102
   6 C :   -0.032380
   7 H :    0.022205
   8 H :    0.029585
   9 C :   -0.030231
  10 H :    0.010360
  11 H :    0.021809
  12 C :   -0.066603
  13 H :    0.024128
  14 H :    0.033851
  15 H :    0.023974
  16 S :    0.430763
  17 C :   -0.182675
  18 C :   -0.076599
  19 C :   -0.041841
  20 C :   -0.215591
  21 H :    0.042889
  22 C :   -0.032437
  23 H :    0.031837
  24 H :    0.012792
  25 C :   -0.037131
  26 H :    0.026490
  27 H :    0.022544
  28 C :   -0.058579
  29 H :    0.026366
  30 H :    0.019185
  31 H :    0.023382
  32 H :    0.039185
  33 H :    0.017300

  Mayer bond orders larger than 0.100000
B(  0-S ,  1-C ) :   1.1294 B(  0-S ,  4-C ) :   1.1557 B(  1-C ,  2-C ) :   1.6050
B(  1-C , 32-H ) :   0.9645 B(  2-C ,  3-C ) :   1.2433 B(  2-C ,  6-C ) :   1.0339
B(  3-C ,  4-C ) :   1.5700 B(  3-C ,  5-H ) :   0.9949 B(  4-C , 20-C ) :   1.0007
B(  6-C ,  7-H ) :   0.9348 B(  6-C ,  8-H ) :   0.9396 B(  6-C ,  9-C ) :   1.0563
B(  9-C , 10-H ) :   0.9514 B(  9-C , 11-H ) :   0.9522 B(  9-C , 12-C ) :   1.0808
B( 12-C , 13-H ) :   0.9760 B( 12-C , 14-H ) :   0.9731 B( 12-C , 15-H ) :   0.9774
B( 16-S , 17-C ) :   1.1836 B( 16-S , 20-C ) :   1.1563 B( 17-C , 18-C ) :   1.5993
B( 17-C , 33-H ) :   0.9708 B( 18-C , 19-C ) :   1.2358 B( 18-C , 21-H ) :   0.9895
B( 19-C , 20-C ) :   1.5779 B( 19-C , 22-C ) :   1.0386 B( 22-C , 23-H ) :   0.9358
B( 22-C , 24-H ) :   0.9169 B( 22-C , 25-C ) :   1.0695 B( 25-C , 26-H ) :   0.9558
B( 25-C , 27-H ) :   0.9618 B( 25-C , 28-C ) :   1.0781 B( 28-C , 29-H ) :   0.9752
B( 28-C , 30-H ) :   0.9751 B( 28-C , 31-H ) :   0.9758

Dispersion correction           -0.013297768
FINAL SINGLE POINT ENERGY     -1339.864759166004

DIPOLE MOMENT
-------------
                                X             Y             Z
Electronic contribution:    -17.11305     -27.27903      -6.47474
Nuclear contribution   :     17.23597      27.92753       6.78551
                        -----------------------------------------
Total Dipole Moment    :      0.12292       0.64850       0.31077
                        -----------------------------------------
Magnitude (a.u.)       :      0.72955
Magnitude (Debye)      :      1.85437

Rotational constants in cm-1:     0.016614     0.008614     0.006057
Rotational constants in MHz :   498.061993   258.228797   181.576851

                             ****ORCA TERMINATED NORMALLY****
TOTAL RUN TIME: 0 days 0 hours 0 minutes 29 seconds 253 msec
