                         Program Version 4.2.1 -  RELEASE  -
|  1> ! wB97X-D3 SP def2-SVP
|  2> %pal
|  3> nprocs 16
|  4> end
|  5>
|  6> * xyz 0 1
|  7> S 	 41.1699 	 17.5666 	 47.6678
|  8> C 	 40.0086 	 17.1438 	 46.4506
|  9> C 	 39.8831 	 18.1517 	 45.4286
| 10> C 	 40.8292 	 19.2097 	 45.7011
| 11> C 	 41.5632 	 19.0251 	 46.8083
| 12> H 	 40.9276 	 20.165 	 45.1764
| 13> C 	 38.8619 	 18.0444 	 44.3233
| 14> H 	 38.8863 	 18.9468 	 43.7609
| 15> H 	 37.8505 	 18.0812 	 44.7421
| 16> C 	 39.0098 	 16.831 	 43.3914
| 17> H 	 38.857 	 15.857 	 43.8662
| 18> H 	 38.0909 	 16.8328 	 42.6702
| 19> C 	 40.2879 	 16.8381 	 42.5378
| 20> H 	 40.3981 	 16.0108 	 41.8045
| 21> H 	 40.1235 	 17.5954 	 41.7455
| 22> H 	 41.1936 	 17.0277 	 43.1296
| 23> S 	 44.1757 	 19.5193 	 46.4574
| 24> C 	 44.9406 	 20.7781 	 47.342
| 25> C 	 44.0532 	 21.457 	 48.1911
| 26> C 	 42.7113 	 20.8737 	 48.1237
| 27> C 	 42.665 	 19.8596 	 47.1801
| 28> H 	 44.4068 	 22.2724 	 48.8405
| 29> C 	 41.7345 	 21.5632 	 48.9642
| 30> H 	 42.0155 	 21.6578 	 49.9905
| 31> H 	 40.8398 	 20.8935 	 49.0183
| 32> C 	 41.356 	 22.9944 	 48.5489
| 33> H 	 42.206 	 23.6738 	 48.8132
| 34> H 	 40.5679 	 23.2505 	 49.1947
| 35> C 	 40.8894 	 23.2658 	 47.0639
| 36> H 	 41.6669 	 23.2102 	 46.3239
| 37> H 	 40.6614 	 24.3221 	 46.9354
| 38> H 	 40.0988 	 22.5814 	 46.7567
| 39> H 	 39.425 	 16.2488 	 46.5061
| 40> H 	 45.9365 	 21.03 	 47.2744
| 41> *
| 42>
| 43>                          ****END OF INPUT****

CARTESIAN COORDINATES (ANGSTROEM)
---------------------------------
  S     41.169900   17.566600   47.667800
  C     40.008600   17.143800   46.450600
  C     39.883100   18.151700   45.428600
  C     40.829200   19.209700   45.701100
  C     41.563200   19.025100   46.808300
  H     40.927600   20.165000   45.176400
  C     38.861900   18.044400   44.323300
  H     38.886300   18.946800   43.760900
  H     37.850500   18.081200   44.742100
  C     39.009800   16.831000   43.391400
  H     38.857000   15.857000   43.866200
  H     38.090900   16.832800   42.670200
  C     40.287900   16.838100   42.537800
  H     40.398100   16.010800   41.804500
  H     40.123500   17.595400   41.745500
  H     41.193600   17.027700   43.129600
  S     44.175700   19.519300   46.457400
  C     44.940600   20.778100   47.342000
  C     44.053200   21.457000   48.191100
  C     42.711300   20.873700   48.123700
  C     42.665000   19.859600   47.180100
  H     44.406800   22.272400   48.840500
  C     41.734500   21.563200   48.964200
  H     42.015500   21.657800   49.990500
  H     40.839800   20.893500   49.018300
  C     41.356000   22.994400   48.548900
  H     42.206000   23.673800   48.813200
  H     40.567900   23.250500   49.194700
  C     40.889400   23.265800   47.063900
  H     41.666900   23.210200   46.323900
  H     40.661400   24.322100   46.935400
  H     40.098800   22.581400   46.756700
  H     39.425000   16.248800   46.506100
  H     45.936500   21.030000   47.274400

 Total Charge           Charge          ....    0
 Multiplicity           Mult            ....    1
 Number of Electrons    NEL             ....  134
 Basis Dimension        Dim             ....  322

ORBITAL ENERGIES
----------------

  NO   OCC          E(Eh)            E(eV)
   0   2.0000     -88.966252     -2420.8948
   1   2.0000     -88.964429     -2420.8452
   2   2.0000     -10.317161      -280.7442
   3   2.0000     -10.315654      -280.7032
   4   2.0000     -10.314875      -280.6820
   5   2.0000     -10.308584      -280.5108
   6   2.0000     -10.306900      -280.4650
   7   2.0000     -10.299059      -280.2517
   8   2.0000     -10.295782      -280.1625
   9   2.0000     -10.293407      -280.0978
  10   2.0000     -10.291977      -280.0589
  11   2.0000     -10.291566      -280.0477
  12   2.0000     -10.288935      -279.9762
  13   2.0000     -10.286755      -279.9168
  14   2.0000     -10.279248      -279.7126
  15   2.0000     -10.276022      -279.6248
  16   2.0000      -8.081361      -219.9050
  17   2.0000      -8.080400      -219.8789
  18   2.0000      -6.039664      -164.3476
  19   2.0000      -6.038807      -164.3243
  20   2.0000      -6.035802      -164.2425
  21   2.0000      -6.034657      -164.2114
  22   2.0000      -6.032344      -164.1484
  23   2.0000      -6.031281      -164.1195
  24   2.0000      -1.010472       -27.4963
  25   2.0000      -0.982929       -26.7469
  26   2.0000      -0.910554       -24.7774
  27   2.0000      -0.908636       -24.7252
  28   2.0000      -0.867672       -23.6106
  29   2.0000      -0.846712       -23.0402
  30   2.0000      -0.844242       -22.9730
  31   2.0000      -0.811868       -22.0920
  32   2.0000      -0.786841       -21.4110
  33   2.0000      -0.771524       -20.9942
  34   2.0000      -0.707502       -19.2521
  35   2.0000      -0.700898       -19.0724
  36   2.0000      -0.690276       -18.7834
  37   2.0000      -0.661221       -17.9927
  38   2.0000      -0.646139       -17.5823
  39   2.0000      -0.609823       -16.5941
  40   2.0000      -0.595170       -16.1954
  41   2.0000      -0.569595       -15.4995
  42   2.0000      -0.553215       -15.0537
  43   2.0000      -0.552126       -15.0241
  44   2.0000      -0.538228       -14.6459
  45   2.0000      -0.533830       -14.5263
  46   2.0000      -0.517818       -14.0905
  47   2.0000      -0.508827       -13.8459
  48   2.0000      -0.505213       -13.7475
  49   2.0000      -0.496875       -13.5207
  50   2.0000      -0.491704       -13.3799
  51   2.0000      -0.472185       -12.8488
  52   2.0000      -0.469867       -12.7857
  53   2.0000      -0.461521       -12.5586
  54   2.0000      -0.452070       -12.3014
  55   2.0000      -0.446244       -12.1429
  56   2.0000      -0.443377       -12.0649
  57   2.0000      -0.437949       -11.9172
  58   2.0000      -0.433334       -11.7916
  59   2.0000      -0.427556       -11.6344
  60   2.0000      -0.425121       -11.5681
  61   2.0000      -0.408018       -11.1027
  62   2.0000      -0.406730       -11.0677
  63   2.0000      -0.338712        -9.2168
  64   2.0000      -0.325744        -8.8640
  65   2.0000      -0.316252        -8.6056
  66   2.0000      -0.306720        -8.3463
  67   0.0000       0.049471         1.3462
  68   0.0000       0.058139         1.5820
  69   0.0000       0.109503         2.9797
  70   0.0000       0.121771         3.3136
  71   0.0000       0.129728         3.5301

MULLIKEN ATOMIC CHARGES
-----------------------
   0 S :    0.133818
   1 C :   -0.126409
   2 C :   -0.104816
   3 C :    0.030211
   4 C :   -0.175010
   5 H :    0.020757
   6 C :    0.114411
   7 H :    0.002422
   8 H :    0.039186
   9 C :   -0.102943
  10 H :    0.031325
  11 H :    0.029186
  12 C :   -0.061333
  13 H :    0.031964
  14 H :    0.019307
  15 H :    0.061768
  16 S :    0.140235
  17 C :   -0.068139
  18 C :   -0.059550
  19 C :    0.004464
  20 C :   -0.205405
  21 H :    0.030019
  22 C :    0.070381
  23 H :    0.024034
  24 H :    0.020443
  25 C :   -0.076862
  26 H :    0.030058
  27 H :    0.024259
  28 C :   -0.039317
  29 H :    0.024596
  30 H :    0.027763
  31 H :    0.039366
  32 H :    0.045260
  33 H :    0.024551
Sum of atomic charges:   -0.0000000

LOEWDIN ATOMIC CHARGES
----------------------
   0 S :    0.422721
   1 C :   -0.196737
   2 C :   -0.059806
   3 C :   -0.062941
   4 C :   -0.212850
   5 H :    0.037770
   6 C :   -0.034652
   7 H :    0.025903
   8 H :    0.038977
   9 C :   -0.046638
  10 H :    0.019037
  11 H :    0.031569
  12 C :   -0.078699
  13 H :    0.031109
  14 H :    0.027964
  15 H :    0.031010
  16 S :    0.443805
  17 C :   -0.186441
  18 C :   -0.067373
  19 C :   -0.052143
  20 C :   -0.223779
  21 H :    0.033978
  22 C :   -0.040260
  23 H :    0.033474
  24 H :    0.030903
  25 C :   -0.031851
  26 H :    0.025573
  27 H :    0.019818
  28 C :   -0.068765
  29 H :    0.022905
  30 H :    0.029264
  31 H :    0.026231
  32 H :    0.020104
  33 H :    0.010820

  Mayer bond orders larger than 0.100000
B(  0-S ,  1-C ) :   1.1659 B(  0-S ,  4-C ) :   1.1464 B(  1-C ,  2-C ) :   1.5706
B(  1-C , 32-H ) :   0.9746 B(  2-C ,  3-C ) :   1.2337 B(  2-C ,  6-C ) :   1.0217
B(  3-C ,  4-C ) :   1.6067 B(  3-C ,  5-H ) :   0.9900 B(  4-C , 20-C ) :   1.0121
B(  6-C ,  7-H ) :   0.9367 B(  6-C ,  8-H ) :   0.9337 B(  6-C ,  9-C ) :   1.0693
B(  9-C , 10-H ) :   0.9603 B(  9-C , 11-H ) :   0.9543 B(  9-C , 12-C ) :   1.0660
B( 12-C , 13-H ) :   0.9717 B( 12-C , 14-H ) :   0.9716 B( 12-C , 15-H ) :   0.9768
B( 16-S , 17-C ) :   1.1666 B( 16-S , 20-C ) :   1.1578 B( 17-C , 18-C ) :   1.6081
B( 17-C , 33-H ) :   0.9769 B( 18-C , 19-C ) :   1.2133 B( 18-C , 21-H ) :   0.9872
B( 19-C , 20-C ) :   1.5924 B( 19-C , 22-C ) :   1.0741 B( 22-C , 23-H ) :   0.9266
B( 22-C , 24-H ) :   0.9213 B( 22-C , 25-C ) :   1.0775 B( 25-C , 26-H ) :   0.9522
B( 25-C , 27-H ) :   0.9549 B( 25-C , 28-C ) :   1.0736 B( 28-C , 29-H ) :   0.9723
B( 28-C , 30-H ) :   0.9710 B( 28-C , 31-H ) :   0.9770

Dispersion correction           -0.015076488
FINAL SINGLE POINT ENERGY     -1339.874307157397

DIPOLE MOMENT
-------------
                                X             Y             Z
Electronic contribution:     14.22889      -8.89959      10.70434
Nuclear contribution   :    -14.52403       9.26470     -10.79093
                        -----------------------------------------
Total Dipole Moment    :     -0.29514       0.36511      -0.08659
                        -----------------------------------------
Magnitude (a.u.)       :      0.47740
Magnitude (Debye)      :      1.21346

Rotational constants in cm-1:     0.021563     0.008025     0.007359
Rotational constants in MHz :   646.456791   240.594047   220.606470

                             ****ORCA TERMINATED NORMALLY****
TOTAL RUN TIME: 0 days 0 hours 0 minutes 34 seconds 519 msec
