                         Program Version 4.2.1 -  RELEASE  -
|  1> ! wB97X-D3 SP def2-SVP
|  2> %pal
|  3> nprocs 16
|  4> end
|  5>
|  6> * xyz 0 1
|  7> S 	 -3.99311 	 -12.0359 	 89.2412
|  8> C 	 -4.46616 	 -12.235 	 90.9209
|  9> C 	 -5.20063 	 -11.0992 	 91.3078
| 10> C 	 -4.96704 	 -10.0019 	 90.4323
| 11> C 	 -4.43842 	 -10.3352 	 89.2211
| 12> H 	 -5.28657 	 -9.00284 	 90.5785
| 13> C 	 -5.67162 	 -10.9077 	 92.7105
| 14> H 	 -6.60611 	 -10.3663 	 92.7142
| 15> H 	 -4.91479 	 -10.2217 	 93.1132
| 16> C 	 -5.73253 	 -12.1618 	 93.5728
| 17> H 	 -4.94093 	 -12.897 	 93.3266
| 18> H 	 -5.58098 	 -11.8444 	 94.5981
| 19> C 	 -6.99846 	 -13.0569 	 93.3485
| 20> H 	 -7.36543 	 -13.1584 	 92.2819
| 21> H 	 -6.78623 	 -14.0569 	 93.7003
| 22> H 	 -7.86449 	 -12.6837 	 93.8035
| 23> S 	 -2.61918 	 -9.27381 	 87.4797
| 24> C 	 -3.01874 	 -8.02663 	 86.3137
| 25> C 	 -4.27161 	 -7.5293 	 86.6425
| 26> C 	 -4.95952 	 -8.30944 	 87.6406
| 27> C 	 -4.22462 	 -9.3738 	 88.1239
| 28> H 	 -4.78545 	 -6.73921 	 86.1418
| 29> C 	 -6.48006 	 -8.13622 	 87.7271
| 30> H 	 -6.8464 	 -7.26038 	 88.2654
| 31> H 	 -6.90728 	 -8.98244 	 88.2466
| 32> C 	 -7.22302 	 -8.18858 	 86.39
| 33> H 	 -6.55017 	 -8.64498 	 85.6611
| 34> H 	 -7.43399 	 -7.26372 	 85.9355
| 35> C 	 -8.6198 	 -8.78034 	 86.5022
| 36> H 	 -9.11971 	 -8.83533 	 85.5479
| 37> H 	 -9.20255 	 -8.28998 	 87.2645
| 38> H 	 -8.52398 	 -9.81207 	 86.8984
| 39> H 	 -4.35007 	 -13.2294 	 91.3333
| 40> H 	 -2.42348 	 -7.60798 	 85.5205
| 41> *
| 42>
| 43>                          ****END OF INPUT****

CARTESIAN COORDINATES (ANGSTROEM)
---------------------------------
  S     -3.993110  -12.035900   89.241200
  C     -4.466160  -12.235000   90.920900
  C     -5.200630  -11.099200   91.307800
  C     -4.967040  -10.001900   90.432300
  C     -4.438420  -10.335200   89.221100
  H     -5.286570   -9.002840   90.578500
  C     -5.671620  -10.907700   92.710500
  H     -6.606110  -10.366300   92.714200
  H     -4.914790  -10.221700   93.113200
  C     -5.732530  -12.161800   93.572800
  H     -4.940930  -12.897000   93.326600
  H     -5.580980  -11.844400   94.598100
  C     -6.998460  -13.056900   93.348500
  H     -7.365430  -13.158400   92.281900
  H     -6.786230  -14.056900   93.700300
  H     -7.864490  -12.683700   93.803500
  S     -2.619180   -9.273810   87.479700
  C     -3.018740   -8.026630   86.313700
  C     -4.271610   -7.529300   86.642500
  C     -4.959520   -8.309440   87.640600
  C     -4.224620   -9.373800   88.123900
  H     -4.785450   -6.739210   86.141800
  C     -6.480060   -8.136220   87.727100
  H     -6.846400   -7.260380   88.265400
  H     -6.907280   -8.982440   88.246600
  C     -7.223020   -8.188580   86.390000
  H     -6.550170   -8.644980   85.661100
  H     -7.433990   -7.263720   85.935500
  C     -8.619800   -8.780340   86.502200
  H     -9.119710   -8.835330   85.547900
  H     -9.202550   -8.289980   87.264500
  H     -8.523980   -9.812070   86.898400
  H     -4.350070  -13.229400   91.333300
  H     -2.423480   -7.607980   85.520500

 Total Charge           Charge          ....    0
 Multiplicity           Mult            ....    1
 Number of Electrons    NEL             ....  134
 Basis Dimension        Dim             ....  322

ORBITAL ENERGIES
----------------

  NO   OCC          E(Eh)            E(eV)
   0   2.0000     -88.962769     -2420.8000
   1   2.0000     -88.962586     -2420.7950
   2   2.0000     -10.329511      -281.0803
   3   2.0000     -10.328754      -281.0597
   4   2.0000     -10.320294      -280.8295
   5   2.0000     -10.318351      -280.7766
   6   2.0000     -10.304172      -280.3908
   7   2.0000     -10.303743      -280.3791
   8   2.0000     -10.293142      -280.0906
   9   2.0000     -10.291397      -280.0432
  10   2.0000     -10.290104      -280.0080
  11   2.0000     -10.289141      -279.9818
  12   2.0000     -10.288616      -279.9675
  13   2.0000     -10.278120      -279.6819
  14   2.0000     -10.276162      -279.6286
  15   2.0000     -10.275480      -279.6100
  16   2.0000      -8.077923      -219.8115
  17   2.0000      -8.077298      -219.7945
  18   2.0000      -6.036471      -164.2607
  19   2.0000      -6.035783      -164.2420
  20   2.0000      -6.032289      -164.1469
  21   2.0000      -6.031796      -164.1335
  22   2.0000      -6.028648      -164.0478
  23   2.0000      -6.028086      -164.0326
  24   2.0000      -1.008072       -27.4310
  25   2.0000      -0.986731       -26.8503
  26   2.0000      -0.913776       -24.8651
  27   2.0000      -0.910635       -24.7796
  28   2.0000      -0.868127       -23.6229
  29   2.0000      -0.851850       -23.1800
  30   2.0000      -0.845707       -23.0129
  31   2.0000      -0.815847       -22.2003
  32   2.0000      -0.780621       -21.2418
  33   2.0000      -0.771513       -20.9939
  34   2.0000      -0.712231       -19.3808
  35   2.0000      -0.703357       -19.1393
  36   2.0000      -0.694757       -18.9053
  37   2.0000      -0.662612       -18.0306
  38   2.0000      -0.647321       -17.6145
  39   2.0000      -0.612231       -16.6597
  40   2.0000      -0.599947       -16.3254
  41   2.0000      -0.579093       -15.7579
  42   2.0000      -0.566324       -15.4105
  43   2.0000      -0.553852       -15.0711
  44   2.0000      -0.533313       -14.5122
  45   2.0000      -0.531204       -14.4548
  46   2.0000      -0.524949       -14.2846
  47   2.0000      -0.516734       -14.0610
  48   2.0000      -0.506325       -13.7778
  49   2.0000      -0.497416       -13.5354
  50   2.0000      -0.484208       -13.1760
  51   2.0000      -0.481436       -13.1005
  52   2.0000      -0.477191       -12.9850
  53   2.0000      -0.465390       -12.6639
  54   2.0000      -0.460769       -12.5382
  55   2.0000      -0.446152       -12.1404
  56   2.0000      -0.439819       -11.9681
  57   2.0000      -0.435251       -11.8438
  58   2.0000      -0.431601       -11.7445
  59   2.0000      -0.425068       -11.5667
  60   2.0000      -0.417144       -11.3511
  61   2.0000      -0.416299       -11.3281
  62   2.0000      -0.407013       -11.0754
  63   2.0000      -0.347910        -9.4671
  64   2.0000      -0.327492        -8.9115
  65   2.0000      -0.325694        -8.8626
  66   2.0000      -0.297102        -8.0846
  67   0.0000       0.026151         0.7116
  68   0.0000       0.075737         2.0609
  69   0.0000       0.113155         3.0791
  70   0.0000       0.121105         3.2954
  71   0.0000       0.130980         3.5642

MULLIKEN ATOMIC CHARGES
-----------------------
   0 S :    0.103592
   1 C :   -0.150390
   2 C :   -0.075004
   3 C :    0.026855
   4 C :   -0.124202
   5 H :    0.003571
   6 C :    0.053517
   7 H :    0.027339
   8 H :    0.045022
   9 C :   -0.066927
  10 H :    0.026743
  11 H :    0.033534
  12 C :   -0.058581
  13 H :    0.039136
  14 H :    0.033051
  15 H :    0.019202
  16 S :    0.102393
  17 C :   -0.077414
  18 C :   -0.023780
  19 C :   -0.052366
  20 C :   -0.143135
  21 H :    0.014408
  22 C :    0.054555
  23 H :    0.031602
  24 H :    0.016889
  25 C :   -0.073648
  26 H :    0.035800
  27 H :    0.009561
  28 C :   -0.060987
  29 H :    0.039685
  30 H :    0.029502
  31 H :    0.030659
  32 H :    0.070141
  33 H :    0.059679
Sum of atomic charges:   -0.0000000

LOEWDIN ATOMIC CHARGES
----------------------
   0 S :    0.395697
   1 C :   -0.194621
   2 C :   -0.060876
   3 C :   -0.055483
   4 C :   -0.193785
   5 H :    0.027410
   6 C :   -0.036502
   7 H :    0.029887
   8 H :    0.042347
   9 C :   -0.039548
  10 H :    0.027041
  11 H :    0.027126
  12 C :   -0.068104
  13 H :    0.034968
  14 H :    0.024560
  15 H :    0.014029
  16 S :    0.414041
  17 C :   -0.181531
  18 C :   -0.064462
  19 C :   -0.063884
  20 C :   -0.197895
  21 H :    0.026905
  22 C :   -0.034059
  23 H :    0.030916
  24 H :    0.027804
  25 C :   -0.045629
  26 H :    0.025735
  27 H :    0.013719
  28 C :   -0.061466
  29 H :    0.027234
  30 H :    0.023363
  31 H :    0.025805
  32 H :    0.026614
  33 H :    0.032644

  Mayer bond orders larger than 0.100000
B(  0-S ,  1-C ) :   1.1439 B(  0-S ,  4-C ) :   1.1469 B(  1-C ,  2-C ) :   1.5663
B(  1-C , 32-H ) :   0.9660 B(  2-C ,  3-C ) :   1.2339 B(  2-C ,  6-C ) :   1.0332
B(  3-C ,  4-C ) :   1.5884 B(  3-C ,  5-H ) :   0.9982 B(  4-C , 20-C ) :   1.0226
B(  6-C ,  7-H ) :   0.9359 B(  6-C ,  8-H ) :   0.9381 B(  6-C ,  9-C ) :   1.0845
B(  9-C , 10-H ) :   0.9560 B(  9-C , 11-H ) :   0.9550 B(  9-C , 12-C ) :   1.0617
B( 12-C , 13-H ) :   0.9771 B( 12-C , 14-H ) :   0.9798 B( 12-C , 15-H ) :   0.9765
B( 16-S , 17-C ) :   1.1495 B( 16-S , 20-C ) :   1.1505 B( 17-C , 18-C ) :   1.5880
B( 17-C , 33-H ) :   0.9740 B( 18-C , 19-C ) :   1.2528 B( 18-C , 21-H ) :   0.9902
B( 19-C , 20-C ) :   1.5989 B( 19-C , 22-C ) :   1.0471 B( 22-C , 23-H ) :   0.9278
B( 22-C , 24-H ) :   0.9526 B( 22-C , 25-C ) :   1.0533 B( 25-C , 26-H ) :   0.9580
B( 25-C , 27-H ) :   0.9474 B( 25-C , 28-C ) :   1.0889 B( 28-C , 29-H ) :   0.9731
B( 28-C , 30-H ) :   0.9748 B( 28-C , 31-H ) :   0.9727

Dispersion correction           -0.013754614
FINAL SINGLE POINT ENERGY     -1339.864863652605

DIPOLE MOMENT
-------------
                                X             Y             Z
Electronic contribution:     23.98371      -0.27667      -9.85335
Nuclear contribution   :    -24.52041       0.57949      10.13075
                        -----------------------------------------
Total Dipole Moment    :     -0.53670       0.30282       0.27740
                        -----------------------------------------
Magnitude (a.u.)       :      0.67579
Magnitude (Debye)      :      1.71773

Rotational constants in cm-1:     0.020326     0.007740     0.006259
Rotational constants in MHz :   609.358675   232.028283   187.644839

                             ****ORCA TERMINATED NORMALLY****
TOTAL RUN TIME: 0 days 0 hours 0 minutes 33 seconds 433 msec
