                         Program Version 4.2.1 -  RELEASE  -
|  1> ! wB97X-D3 SP def2-SVP
|  2> %pal
|  3> nprocs 16
|  4> end
|  5>
|  6> * xyz 0 1
|  7> S 	 -70.9574 	 55.9336 	 123.295
|  8> C 	 -71.5741 	 57.5057 	 122.812
|  9> C 	 -71.5954 	 58.4268 	 123.887
| 10> C 	 -70.8781 	 57.9122 	 125.004
| 11> C 	 -70.4698 	 56.5716 	 124.883
| 12> H 	 -70.7641 	 58.4399 	 125.959
| 13> C 	 -72.0675 	 59.8953 	 123.859
| 14> H 	 -73.0252 	 59.7376 	 123.333
| 15> H 	 -71.5048 	 60.5217 	 123.074
| 16> C 	 -72.4627 	 60.6977 	 125.162
| 17> H 	 -73.2729 	 60.0355 	 125.606
| 18> H 	 -71.6944 	 60.8967 	 125.85
| 19> C 	 -73.1413 	 62.0963 	 124.854
| 20> H 	 -74.0533 	 61.845 	 124.208
| 21> H 	 -73.2355 	 62.6748 	 125.748
| 22> H 	 -72.4351 	 62.6658 	 124.285
| 23> S 	 -71.2249 	 54.8095 	 126.88
| 24> C 	 -70.0275 	 54.1362 	 127.941
| 25> C 	 -68.7632 	 54.6178 	 127.621
| 26> C 	 -68.7666 	 55.5047 	 126.482
| 27> C 	 -70.0256 	 55.7806 	 126.002
| 28> H 	 -67.8482 	 54.2762 	 128.072
| 29> C 	 -67.4915 	 56.0264 	 125.891
| 30> H 	 -66.7583 	 56.3372 	 126.632
| 31> H 	 -67.6715 	 56.8975 	 125.276
| 32> C 	 -66.7242 	 54.9874 	 124.989
| 33> H 	 -67.4875 	 54.6895 	 124.288
| 34> H 	 -66.4775 	 54.1651 	 125.671
| 35> C 	 -65.4242 	 55.4092 	 124.244
| 36> H 	 -64.9668 	 54.553 	 123.809
| 37> H 	 -64.7121 	 55.9245 	 124.836
| 38> H 	 -65.7178 	 56.0189 	 123.373
| 39> H 	 -71.9292 	 57.7551 	 121.767
| 40> H 	 -70.2614 	 53.5124 	 128.841
| 41> *
| 42>
| 43>                          ****END OF INPUT****

CARTESIAN COORDINATES (ANGSTROEM)
---------------------------------
  S    -70.957400   55.933600  123.295000
  C    -71.574100   57.505700  122.812000
  C    -71.595400   58.426800  123.887000
  C    -70.878100   57.912200  125.004000
  C    -70.469800   56.571600  124.883000
  H    -70.764100   58.439900  125.959000
  C    -72.067500   59.895300  123.859000
  H    -73.025200   59.737600  123.333000
  H    -71.504800   60.521700  123.074000
  C    -72.462700   60.697700  125.162000
  H    -73.272900   60.035500  125.606000
  H    -71.694400   60.896700  125.850000
  C    -73.141300   62.096300  124.854000
  H    -74.053300   61.845000  124.208000
  H    -73.235500   62.674800  125.748000
  H    -72.435100   62.665800  124.285000
  S    -71.224900   54.809500  126.880000
  C    -70.027500   54.136200  127.941000
  C    -68.763200   54.617800  127.621000
  C    -68.766600   55.504700  126.482000
  C    -70.025600   55.780600  126.002000
  H    -67.848200   54.276200  128.072000
  C    -67.491500   56.026400  125.891000
  H    -66.758300   56.337200  126.632000
  H    -67.671500   56.897500  125.276000
  C    -66.724200   54.987400  124.989000
  H    -67.487500   54.689500  124.288000
  H    -66.477500   54.165100  125.671000
  C    -65.424200   55.409200  124.244000
  H    -64.966800   54.553000  123.809000
  H    -64.712100   55.924500  124.836000
  H    -65.717800   56.018900  123.373000
  H    -71.929200   57.755100  121.767000
  H    -70.261400   53.512400  128.841000

 Total Charge           Charge          ....    0
 Multiplicity           Mult            ....    1
 Number of Electrons    NEL             ....  134
 Basis Dimension        Dim             ....  322

ORBITAL ENERGIES
----------------

  NO   OCC          E(Eh)            E(eV)
   0   2.0000     -88.972539     -2421.0659
   1   2.0000     -88.962264     -2420.7863
   2   2.0000     -10.329293      -281.0743
   3   2.0000     -10.326268      -280.9920
   4   2.0000     -10.323110      -280.9061
   5   2.0000     -10.322427      -280.8875
   6   2.0000     -10.309578      -280.5379
   7   2.0000     -10.305955      -280.4393
   8   2.0000     -10.301541      -280.3192
   9   2.0000     -10.298439      -280.2348
  10   2.0000     -10.296758      -280.1890
  11   2.0000     -10.293516      -280.1008
  12   2.0000     -10.287091      -279.9260
  13   2.0000     -10.284947      -279.8676
  14   2.0000     -10.283581      -279.8305
  15   2.0000     -10.273950      -279.5684
  16   2.0000      -8.086076      -220.0333
  17   2.0000      -8.077074      -219.7884
  18   2.0000      -6.044536      -164.4802
  19   2.0000      -6.040698      -164.3758
  20   2.0000      -6.037009      -164.2754
  21   2.0000      -6.035555      -164.2358
  22   2.0000      -6.031516      -164.1259
  23   2.0000      -6.027896      -164.0274
  24   2.0000      -1.001430       -27.2503
  25   2.0000      -0.978382       -26.6231
  26   2.0000      -0.901313       -24.5260
  27   2.0000      -0.900525       -24.5045
  28   2.0000      -0.867421       -23.6037
  29   2.0000      -0.848130       -23.0788
  30   2.0000      -0.845620       -23.0105
  31   2.0000      -0.808411       -21.9980
  32   2.0000      -0.781356       -21.2618
  33   2.0000      -0.768444       -20.9104
  34   2.0000      -0.707738       -19.2585
  35   2.0000      -0.693411       -18.8687
  36   2.0000      -0.688051       -18.7228
  37   2.0000      -0.660189       -17.9647
  38   2.0000      -0.634967       -17.2783
  39   2.0000      -0.615239       -16.7415
  40   2.0000      -0.594776       -16.1847
  41   2.0000      -0.569465       -15.4959
  42   2.0000      -0.563783       -15.3413
  43   2.0000      -0.557818       -15.1790
  44   2.0000      -0.526655       -14.3310
  45   2.0000      -0.517410       -14.0795
  46   2.0000      -0.512319       -13.9409
  47   2.0000      -0.506939       -13.7945
  48   2.0000      -0.499116       -13.5816
  49   2.0000      -0.497804       -13.5459
  50   2.0000      -0.492958       -13.4141
  51   2.0000      -0.479031       -13.0351
  52   2.0000      -0.466171       -12.6852
  53   2.0000      -0.458955       -12.4888
  54   2.0000      -0.458428       -12.4745
  55   2.0000      -0.452397       -12.3104
  56   2.0000      -0.447579       -12.1793
  57   2.0000      -0.435931       -11.8623
  58   2.0000      -0.424920       -11.5627
  59   2.0000      -0.422568       -11.4987
  60   2.0000      -0.418895       -11.3987
  61   2.0000      -0.417643       -11.3646
  62   2.0000      -0.412413       -11.2223
  63   2.0000      -0.337754        -9.1908
  64   2.0000      -0.326202        -8.8764
  65   2.0000      -0.320864        -8.7312
  66   2.0000      -0.304623        -8.2892
  67   0.0000       0.037365         1.0167
  68   0.0000       0.049178         1.3382
  69   0.0000       0.115910         3.1541
  70   0.0000       0.121057         3.2941
  71   0.0000       0.126024         3.4293

MULLIKEN ATOMIC CHARGES
-----------------------
   0 S :    0.129480
   1 C :   -0.154422
   2 C :   -0.062319
   3 C :    0.027898
   4 C :   -0.172488
   5 H :    0.030677
   6 C :   -0.000970
   7 H :    0.027515
   8 H :    0.053135
   9 C :   -0.097323
  10 H :    0.049093
  11 H :    0.035538
  12 C :   -0.049217
  13 H :    0.051043
  14 H :    0.038719
  15 H :    0.023272
  16 S :    0.109102
  17 C :   -0.109625
  18 C :   -0.016017
  19 C :   -0.028378
  20 C :   -0.184776
  21 H :    0.014702
  22 C :    0.074130
  23 H :    0.016467
  24 H :    0.020298
  25 C :   -0.106587
  26 H :    0.027473
  27 H :    0.024096
  28 C :   -0.011595
  29 H :    0.028810
  30 H :    0.026656
  31 H :    0.032305
  32 H :    0.072204
  33 H :    0.081103
Sum of atomic charges:    0.0000000

LOEWDIN ATOMIC CHARGES
----------------------
   0 S :    0.405196
   1 C :   -0.205607
   2 C :   -0.067498
   3 C :   -0.052429
   4 C :   -0.204028
   5 H :    0.036802
   6 C :   -0.051358
   7 H :    0.035173
   8 H :    0.038578
   9 C :   -0.039034
  10 H :    0.035088
  11 H :    0.012669
  12 C :   -0.062311
  13 H :    0.037404
  14 H :    0.026550
  15 H :    0.019675
  16 S :    0.401436
  17 C :   -0.192882
  18 C :   -0.072616
  19 C :   -0.050024
  20 C :   -0.200289
  21 H :    0.028117
  22 C :   -0.033750
  23 H :    0.026101
  24 H :    0.026595
  25 C :   -0.035500
  26 H :    0.021453
  27 H :    0.018883
  28 C :   -0.060845
  29 H :    0.026182
  30 H :    0.018849
  31 H :    0.030224
  32 H :    0.040791
  33 H :    0.042404

  Mayer bond orders larger than 0.100000
B(  0-S ,  1-C ) :   1.1593 B(  0-S ,  4-C ) :   1.1421 B(  1-C ,  2-C ) :   1.5741
B(  1-C ,  4-C ) :   0.1093 B(  1-C , 32-H ) :   0.9626 B(  2-C ,  3-C ) :   1.2804
B(  2-C ,  6-C ) :   0.9992 B(  3-C ,  4-C ) :   1.5539 B(  3-C ,  5-H ) :   0.9830
B(  4-C , 20-C ) :   1.0466 B(  6-C ,  7-H ) :   0.9400 B(  6-C ,  8-H ) :   0.9453
B(  6-C ,  9-C ) :   1.0482 B(  9-C , 10-H ) :   0.9614 B(  9-C , 11-H ) :   0.9578
B(  9-C , 12-C ) :   1.0788 B( 12-C , 13-H ) :   0.9767 B( 12-C , 14-H ) :   0.9741
B( 12-C , 15-H ) :   0.9761 B( 16-S , 17-C ) :   1.1666 B( 16-S , 20-C ) :   1.1263
B( 17-C , 18-C ) :   1.5945 B( 17-C , 33-H ) :   0.9603 B( 18-C , 19-C ) :   1.2433
B( 18-C , 21-H ) :   0.9895 B( 19-C , 20-C ) :   1.6127 B( 19-C , 22-C ) :   1.0678
B( 22-C , 23-H ) :   0.9331 B( 22-C , 24-H ) :   0.9299 B( 22-C , 25-C ) :   1.0513
B( 25-C , 26-H ) :   0.9574 B( 25-C , 27-H ) :   0.9614 B( 25-C , 28-C ) :   1.0835
B( 28-C , 29-H ) :   0.9722 B( 28-C , 30-H ) :   0.9758 B( 28-C , 31-H ) :   0.9749

Dispersion correction           -0.013663990
FINAL SINGLE POINT ENERGY     -1339.867655082682

DIPOLE MOMENT
-------------
                                X             Y             Z
Electronic contribution:     -9.47672     -18.38675       2.81224
Nuclear contribution   :      9.67336      18.85580      -2.76641
                        -----------------------------------------
Total Dipole Moment    :      0.19664       0.46906       0.04582
                        -----------------------------------------
Magnitude (a.u.)       :      0.51067
Magnitude (Debye)      :      1.29801

Rotational constants in cm-1:     0.018177     0.007349     0.006573
Rotational constants in MHz :   544.933214   220.328771   197.066356

                             ****ORCA TERMINATED NORMALLY****
TOTAL RUN TIME: 0 days 0 hours 0 minutes 32 seconds 716 msec
