                         Program Version 4.2.1 -  RELEASE  -
|  1> ! wB97X-D3 SP def2-SVP
|  2> %pal
|  3> nprocs 16
|  4> end
|  5>
|  6> * xyz 0 1
|  7> S 	 -64.4608 	 49.4316 	 124.029
|  8> C 	 -65.9905 	 48.6059 	 124.238
|  9> C 	 -66.3588 	 47.9193 	 123.081
| 10> C 	 -65.398 	 48.12 	 122.085
| 11> C 	 -64.299 	 48.888 	 122.425
| 12> H 	 -65.4147 	 47.6376 	 121.096
| 13> C 	 -67.5462 	 46.9182 	 123.028
| 14> H 	 -68.1827 	 47.2953 	 123.722
| 15> H 	 -67.301 	 45.9711 	 123.434
| 16> C 	 -68.1716 	 46.6774 	 121.686
| 17> H 	 -68.4833 	 47.6079 	 121.178
| 18> H 	 -67.3628 	 46.3356 	 120.968
| 19> C 	 -69.3407 	 45.7116 	 121.708
| 20> H 	 -69.804 	 45.6537 	 120.716
| 21> H 	 -69.0165 	 44.7893 	 122.287
| 22> H 	 -70.0208 	 46.0649 	 122.516
| 23> S 	 -61.631 	 49.3078 	 122.44
| 24> C 	 -60.6486 	 49.4582 	 120.981
| 25> C 	 -61.5111 	 49.6424 	 119.966
| 26> C 	 -62.8853 	 49.4367 	 120.221
| 27> C 	 -63.1703 	 49.2817 	 121.609
| 28> H 	 -61.1398 	 49.9231 	 118.997
| 29> C 	 -63.9198 	 49.3707 	 119.091
| 30> H 	 -64.0276 	 50.1197 	 118.317
| 31> H 	 -64.9016 	 49.4091 	 119.516
| 32> C 	 -63.8968 	 47.9928 	 118.333
| 33> H 	 -64.0408 	 47.221 	 119.008
| 34> H 	 -62.8869 	 47.8721 	 117.95
| 35> C 	 -65.0335 	 47.954 	 117.245
| 36> H 	 -64.8363 	 47.0927 	 116.585
| 37> H 	 -65.0182 	 48.8275 	 116.608
| 38> H 	 -66.0409 	 47.8394 	 117.75
| 39> H 	 -66.7226 	 48.6577 	 125.011
| 40> H 	 -59.5785 	 49.4933 	 121.075
| 41> *
| 42>
| 43>                          ****END OF INPUT****

CARTESIAN COORDINATES (ANGSTROEM)
---------------------------------
  S    -64.460800   49.431600  124.029000
  C    -65.990500   48.605900  124.238000
  C    -66.358800   47.919300  123.081000
  C    -65.398000   48.120000  122.085000
  C    -64.299000   48.888000  122.425000
  H    -65.414700   47.637600  121.096000
  C    -67.546200   46.918200  123.028000
  H    -68.182700   47.295300  123.722000
  H    -67.301000   45.971100  123.434000
  C    -68.171600   46.677400  121.686000
  H    -68.483300   47.607900  121.178000
  H    -67.362800   46.335600  120.968000
  C    -69.340700   45.711600  121.708000
  H    -69.804000   45.653700  120.716000
  H    -69.016500   44.789300  122.287000
  H    -70.020800   46.064900  122.516000
  S    -61.631000   49.307800  122.440000
  C    -60.648600   49.458200  120.981000
  C    -61.511100   49.642400  119.966000
  C    -62.885300   49.436700  120.221000
  C    -63.170300   49.281700  121.609000
  H    -61.139800   49.923100  118.997000
  C    -63.919800   49.370700  119.091000
  H    -64.027600   50.119700  118.317000
  H    -64.901600   49.409100  119.516000
  C    -63.896800   47.992800  118.333000
  H    -64.040800   47.221000  119.008000
  H    -62.886900   47.872100  117.950000
  C    -65.033500   47.954000  117.245000
  H    -64.836300   47.092700  116.585000
  H    -65.018200   48.827500  116.608000
  H    -66.040900   47.839400  117.750000
  H    -66.722600   48.657700  125.011000
  H    -59.578500   49.493300  121.075000

 Total Charge           Charge          ....    0
 Multiplicity           Mult            ....    1
 Number of Electrons    NEL             ....  134
 Basis Dimension        Dim             ....  322

ORBITAL ENERGIES
----------------

  NO   OCC          E(Eh)            E(eV)
   0   2.0000     -88.971527     -2421.0383
   1   2.0000     -88.959346     -2420.7069
   2   2.0000     -10.334667      -281.2206
   3   2.0000     -10.329147      -281.0704
   4   2.0000     -10.318434      -280.7789
   5   2.0000     -10.312699      -280.6228
   6   2.0000     -10.310387      -280.5599
   7   2.0000     -10.301819      -280.3267
   8   2.0000     -10.291891      -280.0566
   9   2.0000     -10.291513      -280.0463
  10   2.0000     -10.290420      -280.0166
  11   2.0000     -10.289423      -279.9894
  12   2.0000     -10.289372      -279.9880
  13   2.0000     -10.287483      -279.9367
  14   2.0000     -10.287121      -279.9268
  15   2.0000     -10.283351      -279.8242
  16   2.0000      -8.086668      -220.0494
  17   2.0000      -8.074640      -219.7221
  18   2.0000      -6.045112      -164.4959
  19   2.0000      -6.041044      -164.3852
  20   2.0000      -6.037519      -164.2892
  21   2.0000      -6.033207      -164.1719
  22   2.0000      -6.028944      -164.0559
  23   2.0000      -6.025397      -163.9594
  24   2.0000      -1.014273       -27.5998
  25   2.0000      -0.989653       -26.9298
  26   2.0000      -0.921027       -25.0624
  27   2.0000      -0.903818       -24.5941
  28   2.0000      -0.878097       -23.8942
  29   2.0000      -0.850557       -23.1448
  30   2.0000      -0.842444       -22.9241
  31   2.0000      -0.819322       -22.2949
  32   2.0000      -0.786199       -21.3936
  33   2.0000      -0.771998       -21.0071
  34   2.0000      -0.715470       -19.4689
  35   2.0000      -0.702993       -19.1294
  36   2.0000      -0.693821       -18.8798
  37   2.0000      -0.664876       -18.0922
  38   2.0000      -0.642259       -17.4768
  39   2.0000      -0.622038       -16.9265
  40   2.0000      -0.607688       -16.5360
  41   2.0000      -0.580370       -15.7927
  42   2.0000      -0.564890       -15.3714
  43   2.0000      -0.560433       -15.2502
  44   2.0000      -0.543531       -14.7902
  45   2.0000      -0.525341       -14.2953
  46   2.0000      -0.521280       -14.1848
  47   2.0000      -0.508277       -13.8309
  48   2.0000      -0.504887       -13.7387
  49   2.0000      -0.498783       -13.5726
  50   2.0000      -0.494582       -13.4583
  51   2.0000      -0.484712       -13.1897
  52   2.0000      -0.471020       -12.8171
  53   2.0000      -0.467323       -12.7165
  54   2.0000      -0.458908       -12.4875
  55   2.0000      -0.448784       -12.2120
  56   2.0000      -0.447566       -12.1789
  57   2.0000      -0.443945       -12.0804
  58   2.0000      -0.434650       -11.8274
  59   2.0000      -0.425386       -11.5753
  60   2.0000      -0.422767       -11.5041
  61   2.0000      -0.409830       -11.1521
  62   2.0000      -0.406361       -11.0576
  63   2.0000      -0.360943        -9.8217
  64   2.0000      -0.337129        -9.1738
  65   2.0000      -0.326428        -8.8826
  66   2.0000      -0.285198        -7.7606
  67   0.0000       0.021315         0.5800
  68   0.0000       0.075786         2.0623
  69   0.0000       0.109285         2.9738
  70   0.0000       0.119548         3.2531
  71   0.0000       0.127076         3.4579

MULLIKEN ATOMIC CHARGES
-----------------------
   0 S :    0.132160
   1 C :   -0.106138
   2 C :   -0.098469
   3 C :   -0.013564
   4 C :   -0.116636
   5 H :    0.004351
   6 C :    0.147352
   7 H :   -0.017767
   8 H :    0.026839
   9 C :   -0.133890
  10 H :    0.027780
  11 H :    0.036982
  12 C :   -0.028518
  13 H :    0.059162
  14 H :    0.027388
  15 H :    0.021790
  16 S :    0.059719
  17 C :   -0.087121
  18 C :   -0.002268
  19 C :   -0.039712
  20 C :   -0.111323
  21 H :    0.012970
  22 C :    0.050528
  23 H :    0.020792
  24 H :    0.002022
  25 C :   -0.065611
  26 H :    0.014295
  27 H :    0.023552
  28 C :   -0.062736
  29 H :    0.041334
  30 H :    0.031828
  31 H :    0.045887
  32 H :    0.032533
  33 H :    0.064490
Sum of atomic charges:   -0.0000000

LOEWDIN ATOMIC CHARGES
----------------------
   0 S :    0.440598
   1 C :   -0.201210
   2 C :   -0.055166
   3 C :   -0.075437
   4 C :   -0.210002
   5 H :    0.030179
   6 C :   -0.019093
   7 H :    0.015631
   8 H :    0.031371
   9 C :   -0.053672
  10 H :    0.023776
  11 H :    0.025696
  12 C :   -0.072509
  13 H :    0.034810
  14 H :    0.032782
  15 H :    0.028704
  16 S :    0.392167
  17 C :   -0.170515
  18 C :   -0.071618
  19 C :   -0.057232
  20 C :   -0.187660
  21 H :    0.030016
  22 C :   -0.034676
  23 H :    0.027626
  24 H :    0.023017
  25 C :   -0.029599
  26 H :    0.009789
  27 H :    0.020038
  28 C :   -0.067093
  29 H :    0.030021
  30 H :    0.020917
  31 H :    0.032903
  32 H :    0.024524
  33 H :    0.030916

  Mayer bond orders larger than 0.100000
B(  0-S ,  1-C ) :   1.1488 B(  0-S ,  4-C ) :   1.1677 B(  1-C ,  2-C ) :   1.5930
B(  1-C ,  4-C ) :   0.1073 B(  1-C , 32-H ) :   0.9670 B(  2-C ,  3-C ) :   1.2915
B(  2-C ,  6-C ) :   1.0017 B(  3-C ,  4-C ) :   1.5454 B(  3-C ,  5-H ) :   0.9880
B(  4-C , 20-C ) :   1.0365 B(  6-C ,  7-H ) :   0.9236 B(  6-C ,  8-H ) :   0.9349
B(  6-C ,  9-C ) :   1.0678 B(  9-C , 10-H ) :   0.9565 B(  9-C , 11-H ) :   0.9445
B(  9-C , 12-C ) :   1.0886 B( 12-C , 13-H ) :   0.9698 B( 12-C , 14-H ) :   0.9672
B( 12-C , 15-H ) :   0.9691 B( 16-S , 17-C ) :   1.1518 B( 16-S , 20-C ) :   1.1504
B( 17-C , 18-C ) :   1.5673 B( 17-C , 20-C ) :   0.1084 B( 17-C , 33-H ) :   0.9785
B( 18-C , 19-C ) :   1.2655 B( 18-C , 21-H ) :   0.9941 B( 19-C , 20-C ) :   1.5555
B( 19-C , 22-C ) :   1.0402 B( 22-C , 23-H ) :   0.9485 B( 22-C , 24-H ) :   0.9363
B( 22-C , 25-C ) :   1.0472 B( 25-C , 26-H ) :   0.9541 B( 25-C , 27-H ) :   0.9600
B( 25-C , 28-C ) :   1.0735 B( 28-C , 29-H ) :   0.9751 B( 28-C , 30-H ) :   0.9764
B( 28-C , 31-H ) :   0.9753

Dispersion correction           -0.013777458
FINAL SINGLE POINT ENERGY     -1339.860728479291

DIPOLE MOMENT
-------------
                                X             Y             Z
Electronic contribution:     22.51009      14.27993      20.44785
Nuclear contribution   :    -22.87484     -14.57883     -20.93433
                        -----------------------------------------
Total Dipole Moment    :     -0.36474      -0.29889      -0.48649
                        -----------------------------------------
Magnitude (a.u.)       :      0.67753
Magnitude (Debye)      :      1.72214

Rotational constants in cm-1:     0.016800     0.009429     0.006306
Rotational constants in MHz :   503.642277   282.673777   189.035250

                             ****ORCA TERMINATED NORMALLY****
TOTAL RUN TIME: 0 days 0 hours 0 minutes 33 seconds 437 msec
