                         Program Version 4.2.1 -  RELEASE  -
|  1> ! wB97X-D3 SP def2-SVP
|  2> %pal
|  3> nprocs 16
|  4> end
|  5>
|  6> * xyz 0 1
|  7> S 	 -3.61999 	 75.3488 	 57.8629
|  8> C 	 -2.48816 	 73.948 	 58.1699
|  9> C 	 -2.29958 	 73.1953 	 57.0165
| 10> C 	 -3.11154 	 73.769 	 55.9416
| 11> C 	 -3.75553 	 74.9819 	 56.1213
| 12> H 	 -3.18801 	 73.3146 	 54.9404
| 13> C 	 -1.66728 	 71.8411 	 56.8247
| 14> H 	 -0.742033 	 71.8167 	 57.429
| 15> H 	 -1.32951 	 71.7919 	 55.763
| 16> C 	 -2.58661 	 70.6722 	 57.2272
| 17> H 	 -2.81831 	 70.7312 	 58.3007
| 18> H 	 -3.54587 	 70.8186 	 56.6687
| 19> C 	 -1.98738 	 69.2909 	 56.9599
| 20> H 	 -2.58013 	 68.4161 	 57.0952
| 21> H 	 -1.77323 	 69.2578 	 55.8738
| 22> H 	 -1.08909 	 69.0812 	 57.5802
| 23> S 	 -6.30507 	 75.7436 	 55.4741
| 24> C 	 -6.59903 	 76.0868 	 53.7833
| 25> C 	 -5.42972 	 76.3548 	 53.0952
| 26> C 	 -4.26315 	 76.0933 	 53.8725
| 27> C 	 -4.57231 	 75.6899 	 55.1723
| 28> H 	 -5.47162 	 76.6113 	 52.0376
| 29> C 	 -2.79524 	 76.2111 	 53.2998
| 30> H 	 -2.30164 	 75.4192 	 53.7663
| 31> H 	 -2.20745 	 77.0519 	 53.5958
| 32> C 	 -2.47601 	 76.0517 	 51.7751
| 33> H 	 -2.9453 	 76.7781 	 51.0643
| 34> H 	 -3.03278 	 75.1363 	 51.5016
| 35> C 	 -0.971755 	 76.0122 	 51.4437
| 36> H 	 -0.507617 	 75.3135 	 52.1788
| 37> H 	 -0.478337 	 76.9766 	 51.4832
| 38> H 	 -0.663205 	 75.5973 	 50.5095
| 39> H 	 -2.11536 	 73.5114 	 59.0646
| 40> H 	 -7.60847 	 76.2557 	 53.383
| 41> *
| 42>
| 43>                          ****END OF INPUT****

CARTESIAN COORDINATES (ANGSTROEM)
---------------------------------
  S     -3.619990   75.348800   57.862900
  C     -2.488160   73.948000   58.169900
  C     -2.299580   73.195300   57.016500
  C     -3.111540   73.769000   55.941600
  C     -3.755530   74.981900   56.121300
  H     -3.188010   73.314600   54.940400
  C     -1.667280   71.841100   56.824700
  H     -0.742033   71.816700   57.429000
  H     -1.329510   71.791900   55.763000
  C     -2.586610   70.672200   57.227200
  H     -2.818310   70.731200   58.300700
  H     -3.545870   70.818600   56.668700
  C     -1.987380   69.290900   56.959900
  H     -2.580130   68.416100   57.095200
  H     -1.773230   69.257800   55.873800
  H     -1.089090   69.081200   57.580200
  S     -6.305070   75.743600   55.474100
  C     -6.599030   76.086800   53.783300
  C     -5.429720   76.354800   53.095200
  C     -4.263150   76.093300   53.872500
  C     -4.572310   75.689900   55.172300
  H     -5.471620   76.611300   52.037600
  C     -2.795240   76.211100   53.299800
  H     -2.301640   75.419200   53.766300
  H     -2.207450   77.051900   53.595800
  C     -2.476010   76.051700   51.775100
  H     -2.945300   76.778100   51.064300
  H     -3.032780   75.136300   51.501600
  C     -0.971755   76.012200   51.443700
  H     -0.507617   75.313500   52.178800
  H     -0.478337   76.976600   51.483200
  H     -0.663205   75.597300   50.509500
  H     -2.115360   73.511400   59.064600
  H     -7.608470   76.255700   53.383000

 Total Charge           Charge          ....    0
 Multiplicity           Mult            ....    1
 Number of Electrons    NEL             ....  134
 Basis Dimension        Dim             ....  322

ORBITAL ENERGIES
----------------

  NO   OCC          E(Eh)            E(eV)
   0   2.0000     -88.969198     -2420.9750
   1   2.0000     -88.966080     -2420.8901
   2   2.0000     -10.332601      -281.1644
   3   2.0000     -10.329934      -281.0918
   4   2.0000     -10.323705      -280.9223
   5   2.0000     -10.320163      -280.8259
   6   2.0000     -10.316113      -280.7157
   7   2.0000     -10.305235      -280.4197
   8   2.0000     -10.300418      -280.2886
   9   2.0000     -10.298637      -280.2402
  10   2.0000     -10.296283      -280.1761
  11   2.0000     -10.295431      -280.1529
  12   2.0000     -10.294472      -280.1268
  13   2.0000     -10.291407      -280.0434
  14   2.0000     -10.282020      -279.7880
  15   2.0000     -10.281318      -279.7689
  16   2.0000      -8.084002      -219.9769
  17   2.0000      -8.078905      -219.8382
  18   2.0000      -6.042431      -164.4229
  19   2.0000      -6.038578      -164.3181
  20   2.0000      -6.037793      -164.2967
  21   2.0000      -6.034735      -164.2135
  22   2.0000      -6.033726      -164.1860
  23   2.0000      -6.029290      -164.0653
  24   2.0000      -1.003993       -27.3200
  25   2.0000      -0.975651       -26.5488
  26   2.0000      -0.911946       -24.8153
  27   2.0000      -0.902624       -24.5617
  28   2.0000      -0.871223       -23.7072
  29   2.0000      -0.851279       -23.1645
  30   2.0000      -0.840409       -22.8687
  31   2.0000      -0.811185       -22.0735
  32   2.0000      -0.784494       -21.3472
  33   2.0000      -0.775691       -21.1076
  34   2.0000      -0.708345       -19.2751
  35   2.0000      -0.703401       -19.1405
  36   2.0000      -0.700685       -19.0666
  37   2.0000      -0.656060       -17.8523
  38   2.0000      -0.636653       -17.3242
  39   2.0000      -0.614067       -16.7096
  40   2.0000      -0.600634       -16.3441
  41   2.0000      -0.569518       -15.4974
  42   2.0000      -0.563317       -15.3286
  43   2.0000      -0.560722       -15.2580
  44   2.0000      -0.523667       -14.2497
  45   2.0000      -0.521158       -14.1814
  46   2.0000      -0.515518       -14.0280
  47   2.0000      -0.512590       -13.9483
  48   2.0000      -0.507629       -13.8133
  49   2.0000      -0.499856       -13.6018
  50   2.0000      -0.494710       -13.4617
  51   2.0000      -0.477886       -13.0039
  52   2.0000      -0.471622       -12.8335
  53   2.0000      -0.460263       -12.5244
  54   2.0000      -0.457250       -12.4424
  55   2.0000      -0.453822       -12.3491
  56   2.0000      -0.447223       -12.1696
  57   2.0000      -0.435243       -11.8436
  58   2.0000      -0.426250       -11.5989
  59   2.0000      -0.424473       -11.5505
  60   2.0000      -0.421643       -11.4735
  61   2.0000      -0.416503       -11.3336
  62   2.0000      -0.412836       -11.2338
  63   2.0000      -0.344432        -9.3725
  64   2.0000      -0.333853        -9.0846
  65   2.0000      -0.326566        -8.8863
  66   2.0000      -0.296569        -8.0701
  67   0.0000       0.026393         0.7182
  68   0.0000       0.058384         1.5887
  69   0.0000       0.104884         2.8540
  70   0.0000       0.120463         3.2780
  71   0.0000       0.125836         3.4242

MULLIKEN ATOMIC CHARGES
-----------------------
   0 S :    0.088422
   1 C :   -0.084553
   2 C :   -0.106219
   3 C :    0.015483
   4 C :   -0.160796
   5 H :    0.019334
   6 C :    0.045721
   7 H :    0.028556
   8 H :    0.032704
   9 C :   -0.073184
  10 H :    0.031064
  11 H :    0.040035
  12 C :   -0.042902
  13 H :    0.029902
  14 H :    0.027266
  15 H :    0.036636
  16 S :    0.117313
  17 C :   -0.103274
  18 C :   -0.038861
  19 C :   -0.024602
  20 C :   -0.145371
  21 H :    0.029010
  22 C :    0.111732
  23 H :   -0.002201
  24 H :    0.034565
  25 C :   -0.112775
  26 H :    0.034220
  27 H :    0.024628
  28 C :   -0.046593
  29 H :    0.027384
  30 H :    0.040031
  31 H :    0.028312
  32 H :    0.031347
  33 H :    0.067669
Sum of atomic charges:   -0.0000000

LOEWDIN ATOMIC CHARGES
----------------------
   0 S :    0.358110
   1 C :   -0.171119
   2 C :   -0.063426
   3 C :   -0.064099
   4 C :   -0.190084
   5 H :    0.028364
   6 C :   -0.035965
   7 H :    0.032374
   8 H :    0.034877
   9 C :   -0.041551
  10 H :    0.025290
  11 H :    0.031434
  12 C :   -0.072683
  13 H :    0.023106
  14 H :    0.028063
  15 H :    0.029601
  16 S :    0.410768
  17 C :   -0.179850
  18 C :   -0.075058
  19 C :   -0.038200
  20 C :   -0.203457
  21 H :    0.036024
  22 C :   -0.026219
  23 H :    0.022697
  24 H :    0.030845
  25 C :   -0.050187
  26 H :    0.022783
  27 H :    0.022872
  28 C :   -0.066551
  29 H :    0.029652
  30 H :    0.027402
  31 H :    0.025267
  32 H :    0.025420
  33 H :    0.033502

  Mayer bond orders larger than 0.100000
B(  0-S ,  1-C ) :   1.1178 B(  0-S ,  4-C ) :   1.1028 B(  1-C ,  2-C ) :   1.6417
B(  1-C , 32-H ) :   0.9654 B(  2-C ,  3-C ) :   1.2206 B(  2-C ,  6-C ) :   1.0376
B(  3-C ,  4-C ) :   1.6166 B(  3-C ,  5-H ) :   0.9754 B(  4-C , 20-C ) :   1.0468
B(  6-C ,  7-H ) :   0.9340 B(  6-C ,  8-H ) :   0.9381 B(  6-C ,  9-C ) :   1.0572
B(  9-C , 10-H ) :   0.9550 B(  9-C , 11-H ) :   0.9559 B(  9-C , 12-C ) :   1.0790
B( 12-C , 13-H ) :   0.9748 B( 12-C , 14-H ) :   0.9736 B( 12-C , 15-H ) :   0.9737
B( 16-S , 17-C ) :   1.1676 B( 16-S , 20-C ) :   1.1416 B( 17-C , 18-C ) :   1.5966
B( 17-C , 33-H ) :   0.9627 B( 18-C , 19-C ) :   1.2509 B( 18-C , 21-H ) :   0.9897
B( 19-C , 20-C ) :   1.5921 B( 19-C , 22-C ) :   1.0086 B( 22-C , 23-H ) :   0.9256
B( 22-C , 24-H ) :   0.9422 B( 22-C , 25-C ) :   1.0565 B( 25-C , 26-H ) :   0.9543
B( 25-C , 27-H ) :   0.9579 B( 25-C , 28-C ) :   1.0773 B( 28-C , 29-H ) :   0.9752
B( 28-C , 30-H ) :   0.9752 B( 28-C , 31-H ) :   0.9736

Dispersion correction           -0.013542250
FINAL SINGLE POINT ENERGY     -1339.862291876356

DIPOLE MOMENT
-------------
                                X             Y             Z
Electronic contribution:    -19.10183      16.67884      14.03113
Nuclear contribution   :     19.35269     -17.20958     -14.61222
                        -----------------------------------------
Total Dipole Moment    :      0.25086      -0.53073      -0.58109
                        -----------------------------------------
Magnitude (a.u.)       :      0.82600
Magnitude (Debye)      :      2.09953

Rotational constants in cm-1:     0.015648     0.008132     0.006518
Rotational constants in MHz :   469.100337   243.792652   195.409801

                             ****ORCA TERMINATED NORMALLY****
TOTAL RUN TIME: 0 days 0 hours 0 minutes 32 seconds 333 msec
