                         Program Version 4.2.1 -  RELEASE  -
|  1> ! wB97X-D3 SP def2-SVP
|  2> %pal
|  3> nprocs 16
|  4> end
|  5>
|  6> * xyz 0 1
|  7> S 	 9.92733 	 -7.25334 	 62.8245
|  8> C 	 8.97661 	 -6.71644 	 64.197
|  9> C 	 8.69597 	 -7.76331 	 65.0351
| 10> C 	 9.2567 	 -9.01877 	 64.6317
| 11> C 	 9.85146 	 -8.91835 	 63.3722
| 12> H 	 9.03474 	 -9.98848 	 65.1534
| 13> C 	 7.90291 	 -7.67668 	 66.3073
| 14> H 	 7.04092 	 -8.32879 	 66.1879
| 15> H 	 7.62471 	 -6.61183 	 66.2032
| 16> C 	 8.6959 	 -8.05822 	 67.5053
| 17> H 	 8.85256 	 -9.14417 	 67.4414
| 18> H 	 9.56906 	 -7.51788 	 67.2965
| 19> C 	 8.114 	 -7.66147 	 68.8377
| 20> H 	 8.53306 	 -8.33364 	 69.5642
| 21> H 	 8.49591 	 -6.64578 	 69.0902
| 22> H 	 7.00746 	 -7.75489 	 68.782
| 23> S 	 12.1555 	 -10.2125 	 62.6901
| 24> C 	 12.0876 	 -11.7112 	 61.7817
| 25> C 	 10.7757 	 -12.0805 	 61.5011
| 26> C 	 9.79968 	 -11.1065 	 62.0358
| 27> C 	 10.4217 	 -9.97679 	 62.6124
| 28> H 	 10.5745 	 -12.9948 	 61.0161
| 29> C 	 8.28485 	 -11.2817 	 61.8698
| 30> H 	 8.05385 	 -10.2172 	 61.8662
| 31> H 	 7.817 	 -11.5757 	 62.9083
| 32> C 	 7.75797 	 -12.0291 	 60.6592
| 33> H 	 8.10393 	 -13.0118 	 60.5095
| 34> H 	 8.19316 	 -11.6427 	 59.6567
| 35> C 	 6.20589 	 -12.0276 	 60.7063
| 36> H 	 5.85206 	 -12.7901 	 60.0578
| 37> H 	 5.7171 	 -11.1659 	 60.3658
| 38> H 	 5.71853 	 -12.2529 	 61.7029
| 39> H 	 8.54041 	 -5.65201 	 64.3573
| 40> H 	 12.895 	 -12.4011 	 61.582
| 41> *
| 42>
| 43>                          ****END OF INPUT****

CARTESIAN COORDINATES (ANGSTROEM)
---------------------------------
  S      9.927330   -7.253340   62.824500
  C      8.976610   -6.716440   64.197000
  C      8.695970   -7.763310   65.035100
  C      9.256700   -9.018770   64.631700
  C      9.851460   -8.918350   63.372200
  H      9.034740   -9.988480   65.153400
  C      7.902910   -7.676680   66.307300
  H      7.040920   -8.328790   66.187900
  H      7.624710   -6.611830   66.203200
  C      8.695900   -8.058220   67.505300
  H      8.852560   -9.144170   67.441400
  H      9.569060   -7.517880   67.296500
  C      8.114000   -7.661470   68.837700
  H      8.533060   -8.333640   69.564200
  H      8.495910   -6.645780   69.090200
  H      7.007460   -7.754890   68.782000
  S     12.155500  -10.212500   62.690100
  C     12.087600  -11.711200   61.781700
  C     10.775700  -12.080500   61.501100
  C      9.799680  -11.106500   62.035800
  C     10.421700   -9.976790   62.612400
  H     10.574500  -12.994800   61.016100
  C      8.284850  -11.281700   61.869800
  H      8.053850  -10.217200   61.866200
  H      7.817000  -11.575700   62.908300
  C      7.757970  -12.029100   60.659200
  H      8.103930  -13.011800   60.509500
  H      8.193160  -11.642700   59.656700
  C      6.205890  -12.027600   60.706300
  H      5.852060  -12.790100   60.057800
  H      5.717100  -11.165900   60.365800
  H      5.718530  -12.252900   61.702900
  H      8.540410   -5.652010   64.357300
  H     12.895000  -12.401100   61.582000

 Total Charge           Charge          ....    0
 Multiplicity           Mult            ....    1
 Number of Electrons    NEL             ....  134
 Basis Dimension        Dim             ....  322

ORBITAL ENERGIES
----------------

  NO   OCC          E(Eh)            E(eV)
   0   2.0000     -88.967477     -2420.9281
   1   2.0000     -88.963451     -2420.8186
   2   2.0000     -10.329244      -281.0730
   3   2.0000     -10.321479      -280.8617
   4   2.0000     -10.320304      -280.8297
   5   2.0000     -10.317753      -280.7603
   6   2.0000     -10.310170      -280.5540
   7   2.0000     -10.299400      -280.2609
   8   2.0000     -10.298689      -280.2416
   9   2.0000     -10.295519      -280.1553
  10   2.0000     -10.295513      -280.1552
  11   2.0000     -10.293878      -280.1107
  12   2.0000     -10.284837      -279.8646
  13   2.0000     -10.280195      -279.7383
  14   2.0000     -10.276128      -279.6277
  15   2.0000     -10.276021      -279.6248
  16   2.0000      -8.081998      -219.9223
  17   2.0000      -8.078027      -219.8143
  18   2.0000      -6.040548      -164.3717
  19   2.0000      -6.036624      -164.2649
  20   2.0000      -6.036507      -164.2617
  21   2.0000      -6.032747      -164.1594
  22   2.0000      -6.032478      -164.1521
  23   2.0000      -6.028768      -164.0511
  24   2.0000      -1.004615       -27.3370
  25   2.0000      -0.978790       -26.6342
  26   2.0000      -0.923675       -25.1345
  27   2.0000      -0.904597       -24.6153
  28   2.0000      -0.873046       -23.7568
  29   2.0000      -0.850151       -23.1338
  30   2.0000      -0.843698       -22.9582
  31   2.0000      -0.813793       -22.1444
  32   2.0000      -0.781928       -21.2774
  33   2.0000      -0.767590       -20.8872
  34   2.0000      -0.715772       -19.4771
  35   2.0000      -0.705492       -19.1974
  36   2.0000      -0.687986       -18.7211
  37   2.0000      -0.652105       -17.7447
  38   2.0000      -0.633310       -17.2332
  39   2.0000      -0.617930       -16.8147
  40   2.0000      -0.590652       -16.0725
  41   2.0000      -0.585816       -15.9409
  42   2.0000      -0.561214       -15.2714
  43   2.0000      -0.550566       -14.9817
  44   2.0000      -0.532848       -14.4995
  45   2.0000      -0.526402       -14.3241
  46   2.0000      -0.514989       -14.0136
  47   2.0000      -0.511539       -13.9197
  48   2.0000      -0.504455       -13.7269
  49   2.0000      -0.501010       -13.6332
  50   2.0000      -0.488479       -13.2922
  51   2.0000      -0.479074       -13.0363
  52   2.0000      -0.470387       -12.7999
  53   2.0000      -0.461628       -12.5615
  54   2.0000      -0.460499       -12.5308
  55   2.0000      -0.447940       -12.1891
  56   2.0000      -0.444263       -12.0890
  57   2.0000      -0.440390       -11.9836
  58   2.0000      -0.429430       -11.6854
  59   2.0000      -0.422574       -11.4988
  60   2.0000      -0.416103       -11.3228
  61   2.0000      -0.413289       -11.2462
  62   2.0000      -0.409671       -11.1477
  63   2.0000      -0.337655        -9.1881
  64   2.0000      -0.328728        -8.9452
  65   2.0000      -0.319707        -8.6997
  66   2.0000      -0.302795        -8.2395
  67   0.0000       0.038458         1.0465
  68   0.0000       0.056471         1.5367
  69   0.0000       0.117483         3.1969
  70   0.0000       0.122732         3.3397
  71   0.0000       0.129264         3.5175

MULLIKEN ATOMIC CHARGES
-----------------------
   0 S :    0.120357
   1 C :   -0.156116
   2 C :   -0.140966
   3 C :    0.038163
   4 C :   -0.200132
   5 H :    0.041222
   6 C :    0.092752
   7 H :    0.027139
   8 H :    0.006158
   9 C :   -0.094745
  10 H :    0.031265
  11 H :    0.022107
  12 C :   -0.010384
  13 H :    0.029598
  14 H :    0.039678
  15 H :    0.038884
  16 S :    0.112935
  17 C :   -0.081273
  18 C :   -0.035170
  19 C :   -0.047188
  20 C :   -0.150884
  21 H :    0.005251
  22 C :    0.047541
  23 H :    0.036497
  24 H :    0.048147
  25 C :   -0.064078
  26 H :    0.019567
  27 H :    0.037964
  28 C :   -0.027631
  29 H :    0.014746
  30 H :    0.026253
  31 H :    0.033975
  32 H :    0.082153
  33 H :    0.056215
Sum of atomic charges:    0.0000000

LOEWDIN ATOMIC CHARGES
----------------------
   0 S :    0.407422
   1 C :   -0.220503
   2 C :   -0.070940
   3 C :   -0.058899
   4 C :   -0.200059
   5 H :    0.042354
   6 C :   -0.033090
   7 H :    0.026724
   8 H :    0.029040
   9 C :   -0.045206
  10 H :    0.025192
  11 H :    0.022000
  12 C :   -0.061413
  13 H :    0.025638
  14 H :    0.033016
  15 H :    0.029927
  16 S :    0.408737
  17 C :   -0.184105
  18 C :   -0.072110
  19 C :   -0.042736
  20 C :   -0.223176
  21 H :    0.022684
  22 C :   -0.047728
  23 H :    0.037744
  24 H :    0.044325
  25 C :   -0.044995
  26 H :    0.015690
  27 H :    0.040896
  28 C :   -0.061976
  29 H :    0.021564
  30 H :    0.018839
  31 H :    0.033450
  32 H :    0.050457
  33 H :    0.031238

  Mayer bond orders larger than 0.100000
B(  0-S ,  1-C ) :   1.1240 B(  0-S ,  4-C ) :   1.1565 B(  1-C ,  2-C ) :   1.6421
B(  1-C , 32-H ) :   0.9464 B(  2-C ,  3-C ) :   1.2240 B(  2-C ,  6-C ) :   1.0234
B(  3-C ,  4-C ) :   1.5767 B(  3-C ,  5-H ) :   0.9838 B(  4-C , 20-C ) :   1.0311
B(  6-C ,  7-H ) :   0.9228 B(  6-C ,  8-H ) :   0.9392 B(  6-C ,  9-C ) :   1.0674
B(  9-C , 10-H ) :   0.9476 B(  9-C , 11-H ) :   0.9599 B(  9-C , 12-C ) :   1.0882
B( 12-C , 13-H ) :   0.9732 B( 12-C , 14-H ) :   0.9752 B( 12-C , 15-H ) :   0.9730
B( 16-S , 17-C ) :   1.1573 B( 16-S , 20-C ) :   1.1380 B( 17-C , 18-C ) :   1.6165
B( 17-C , 33-H ) :   0.9640 B( 18-C , 19-C ) :   1.2268 B( 18-C , 21-H ) :   0.9948
B( 19-C , 20-C ) :   1.5939 B( 19-C , 22-C ) :   1.0280 B( 22-C , 23-H ) :   0.9360
B( 22-C , 24-H ) :   0.9261 B( 22-C , 25-C ) :   1.0626 B( 25-C , 26-H ) :   0.9549
B( 25-C , 27-H ) :   0.9489 B( 25-C , 28-C ) :   1.0733 B( 28-C , 29-H ) :   0.9731
B( 28-C , 30-H ) :   0.9782 B( 28-C , 31-H ) :   0.9750

Dispersion correction           -0.013717037
FINAL SINGLE POINT ENERGY     -1339.853146916589

DIPOLE MOMENT
-------------
                                X             Y             Z
Electronic contribution:     21.55475       6.62076     -10.68641
Nuclear contribution   :    -22.09589      -7.02567      10.93625
                        -----------------------------------------
Total Dipole Moment    :     -0.54114      -0.40490       0.24984
                        -----------------------------------------
Magnitude (a.u.)       :      0.72056
Magnitude (Debye)      :      1.83151

Rotational constants in cm-1:     0.017456     0.007748     0.006653
Rotational constants in MHz :   523.316417   232.272454   199.461540

                             ****ORCA TERMINATED NORMALLY****
TOTAL RUN TIME: 0 days 0 hours 0 minutes 33 seconds 731 msec
