                         Program Version 4.2.1 -  RELEASE  -
|  1> ! wB97X-D3 SP def2-SVP
|  2> %pal
|  3> nprocs 16
|  4> end
|  5>
|  6> * xyz 0 1
|  7> S 	 -46.6853 	 22.7629 	 82.6
|  8> C 	 -46.6912 	 23.2574 	 84.2258
|  9> C 	 -46.8949 	 22.1879 	 85.0727
| 10> C 	 -47.0477 	 20.9855 	 84.4093
| 11> C 	 -46.859 	 21.1141 	 83.0429
| 12> H 	 -47.2839 	 20.0035 	 84.7701
| 13> C 	 -47.0699 	 22.3667 	 86.584
| 14> H 	 -48.0162 	 21.8636 	 86.9716
| 15> H 	 -47.4712 	 23.3765 	 86.8472
| 16> C 	 -45.9057 	 21.8809 	 87.5395
| 17> H 	 -45.8358 	 20.8001 	 87.7176
| 18> H 	 -44.9165 	 22.0894 	 87.0615
| 19> C 	 -45.888 	 22.7249 	 88.7482
| 20> H 	 -46.5886 	 22.3969 	 89.4967
| 21> H 	 -44.8709 	 22.532 	 89.0985
| 22> H 	 -46.049 	 23.8223 	 88.5328
| 23> S 	 -48.7894 	 20.2378 	 81.2625
| 24> C 	 -48.6594 	 18.5443 	 80.7536
| 25> C 	 -47.5869 	 17.8449 	 81.3342
| 26> C 	 -46.7104 	 18.7503 	 82.0316
| 27> C 	 -47.2805 	 20.0329 	 82.1854
| 28> H 	 -47.3192 	 16.8132 	 81.3006
| 29> C 	 -45.4358 	 18.2737 	 82.6842
| 30> H 	 -45.5527 	 17.1704 	 82.6677
| 31> H 	 -45.5101 	 18.641 	 83.7118
| 32> C 	 -44.1317 	 18.8819 	 82.0911
| 33> H 	 -44.1768 	 19.9614 	 81.9113
| 34> H 	 -44.062 	 18.4316 	 81.0731
| 35> C 	 -42.9272 	 18.5405 	 83.04
| 36> H 	 -41.989 	 19.0214 	 82.6314
| 37> H 	 -42.8468 	 17.442 	 82.9135
| 38> H 	 -43.0326 	 18.8978 	 84.0792
| 39> H 	 -46.3857 	 24.2355 	 84.5352
| 40> H 	 -49.4826 	 18.0365 	 80.2993
| 41> *
| 42>
| 43>                          ****END OF INPUT****

CARTESIAN COORDINATES (ANGSTROEM)
---------------------------------
  S    -46.685300   22.762900   82.600000
  C    -46.691200   23.257400   84.225800
  C    -46.894900   22.187900   85.072700
  C    -47.047700   20.985500   84.409300
  C    -46.859000   21.114100   83.042900
  H    -47.283900   20.003500   84.770100
  C    -47.069900   22.366700   86.584000
  H    -48.016200   21.863600   86.971600
  H    -47.471200   23.376500   86.847200
  C    -45.905700   21.880900   87.539500
  H    -45.835800   20.800100   87.717600
  H    -44.916500   22.089400   87.061500
  C    -45.888000   22.724900   88.748200
  H    -46.588600   22.396900   89.496700
  H    -44.870900   22.532000   89.098500
  H    -46.049000   23.822300   88.532800
  S    -48.789400   20.237800   81.262500
  C    -48.659400   18.544300   80.753600
  C    -47.586900   17.844900   81.334200
  C    -46.710400   18.750300   82.031600
  C    -47.280500   20.032900   82.185400
  H    -47.319200   16.813200   81.300600
  C    -45.435800   18.273700   82.684200
  H    -45.552700   17.170400   82.667700
  H    -45.510100   18.641000   83.711800
  C    -44.131700   18.881900   82.091100
  H    -44.176800   19.961400   81.911300
  H    -44.062000   18.431600   81.073100
  C    -42.927200   18.540500   83.040000
  H    -41.989000   19.021400   82.631400
  H    -42.846800   17.442000   82.913500
  H    -43.032600   18.897800   84.079200
  H    -46.385700   24.235500   84.535200
  H    -49.482600   18.036500   80.299300

 Total Charge           Charge          ....    0
 Multiplicity           Mult            ....    1
 Number of Electrons    NEL             ....  134
 Basis Dimension        Dim             ....  322

ORBITAL ENERGIES
----------------

  NO   OCC          E(Eh)            E(eV)
   0   2.0000     -88.969255     -2420.9765
   1   2.0000     -88.967656     -2420.9330
   2   2.0000     -10.324364      -280.9402
   3   2.0000     -10.320443      -280.8335
   4   2.0000     -10.317972      -280.7663
   5   2.0000     -10.309095      -280.5247
   6   2.0000     -10.299324      -280.2588
   7   2.0000     -10.299271      -280.2574
   8   2.0000     -10.298413      -280.2341
   9   2.0000     -10.295830      -280.1638
  10   2.0000     -10.292302      -280.0678
  11   2.0000     -10.290348      -280.0146
  12   2.0000     -10.288966      -279.9770
  13   2.0000     -10.288276      -279.9582
  14   2.0000     -10.286019      -279.8968
  15   2.0000     -10.277214      -279.6572
  16   2.0000      -8.085263      -220.0112
  17   2.0000      -8.081391      -219.9058
  18   2.0000      -6.043484      -164.4516
  19   2.0000      -6.039858      -164.3529
  20   2.0000      -6.039486      -164.3428
  21   2.0000      -6.036366      -164.2579
  22   2.0000      -6.036180      -164.2528
  23   2.0000      -6.032130      -164.1426
  24   2.0000      -1.014843       -27.6153
  25   2.0000      -0.979137       -26.6437
  26   2.0000      -0.909446       -24.7473
  27   2.0000      -0.901702       -24.5366
  28   2.0000      -0.871965       -23.7274
  29   2.0000      -0.860234       -23.4081
  30   2.0000      -0.845842       -23.0165
  31   2.0000      -0.808655       -22.0046
  32   2.0000      -0.776599       -21.1323
  33   2.0000      -0.762228       -20.7413
  34   2.0000      -0.704524       -19.1711
  35   2.0000      -0.694502       -18.8984
  36   2.0000      -0.688711       -18.7408
  37   2.0000      -0.665854       -18.1188
  38   2.0000      -0.651203       -17.7201
  39   2.0000      -0.616085       -16.7645
  40   2.0000      -0.588893       -16.0246
  41   2.0000      -0.568546       -15.4709
  42   2.0000      -0.562629       -15.3099
  43   2.0000      -0.553606       -15.0644
  44   2.0000      -0.534495       -14.5443
  45   2.0000      -0.522014       -14.2047
  46   2.0000      -0.515423       -14.0254
  47   2.0000      -0.507141       -13.8000
  48   2.0000      -0.499864       -13.6020
  49   2.0000      -0.497232       -13.5304
  50   2.0000      -0.487631       -13.2691
  51   2.0000      -0.484698       -13.1893
  52   2.0000      -0.471271       -12.8239
  53   2.0000      -0.464176       -12.6309
  54   2.0000      -0.457924       -12.4607
  55   2.0000      -0.450670       -12.2634
  56   2.0000      -0.443342       -12.0639
  57   2.0000      -0.434846       -11.8328
  58   2.0000      -0.433375       -11.7927
  59   2.0000      -0.425282       -11.5725
  60   2.0000      -0.418689       -11.3931
  61   2.0000      -0.410649       -11.1743
  62   2.0000      -0.401321       -10.9205
  63   2.0000      -0.344744        -9.3810
  64   2.0000      -0.330738        -8.9999
  65   2.0000      -0.328236        -8.9318
  66   2.0000      -0.288690        -7.8557
  67   0.0000       0.033012         0.8983
  68   0.0000       0.058905         1.6029
  69   0.0000       0.108395         2.9496
  70   0.0000       0.121832         3.3152
  71   0.0000       0.131523         3.5789

MULLIKEN ATOMIC CHARGES
-----------------------
   0 S :    0.128579
   1 C :   -0.120676
   2 C :   -0.020851
   3 C :    0.031927
   4 C :   -0.179090
   5 H :    0.017437
   6 C :   -0.000985
   7 H :    0.031202
   8 H :    0.020818
   9 C :   -0.070054
  10 H :    0.038073
  11 H :    0.027244
  12 C :   -0.061004
  13 H :    0.032719
  14 H :    0.031207
  15 H :    0.046014
  16 S :    0.113677
  17 C :   -0.080156
  18 C :   -0.016522
  19 C :   -0.089171
  20 C :   -0.160513
  21 H :    0.011550
  22 C :    0.078584
  23 H :    0.023106
  24 H :    0.016232
  25 C :   -0.088796
  26 H :    0.043121
  27 H :    0.034393
  28 C :   -0.068869
  29 H :    0.041487
  30 H :    0.039896
  31 H :    0.050637
  32 H :    0.044800
  33 H :    0.053983
Sum of atomic charges:    0.0000000

LOEWDIN ATOMIC CHARGES
----------------------
   0 S :    0.447991
   1 C :   -0.207667
   2 C :   -0.069237
   3 C :   -0.048697
   4 C :   -0.219970
   5 H :    0.032390
   6 C :   -0.046472
   7 H :    0.038258
   8 H :    0.031387
   9 C :   -0.048383
  10 H :    0.027082
  11 H :    0.025500
  12 C :   -0.068062
  13 H :    0.020223
  14 H :    0.029843
  15 H :    0.032687
  16 S :    0.389337
  17 C :   -0.179876
  18 C :   -0.064143
  19 C :   -0.057831
  20 C :   -0.191723
  21 H :    0.027445
  22 C :   -0.036618
  23 H :    0.031414
  24 H :    0.029130
  25 C :   -0.039705
  26 H :    0.025244
  27 H :    0.028100
  28 C :   -0.072636
  29 H :    0.030734
  30 H :    0.029445
  31 H :    0.028608
  32 H :    0.024949
  33 H :    0.021254

  Mayer bond orders larger than 0.100000
B(  0-S ,  1-C ) :   1.1675 B(  0-S ,  4-C ) :   1.1769 B(  1-C ,  2-C ) :   1.5581
B(  1-C , 32-H ) :   0.9716 B(  2-C ,  3-C ) :   1.2865 B(  2-C ,  6-C ) :   1.0192
B(  3-C ,  4-C ) :   1.5207 B(  3-C ,  5-H ) :   0.9974 B(  4-C , 20-C ) :   1.0390
B(  6-C ,  7-H ) :   0.9393 B(  6-C ,  8-H ) :   0.9561 B(  6-C ,  9-C ) :   1.0295
B(  9-C , 10-H ) :   0.9526 B(  9-C , 11-H ) :   0.9686 B(  9-C , 12-C ) :   1.0775
B( 12-C , 13-H ) :   0.9753 B( 12-C , 14-H ) :   0.9765 B( 12-C , 15-H ) :   0.9756
B( 16-S , 17-C ) :   1.1501 B( 16-S , 20-C ) :   1.1374 B( 17-C , 18-C ) :   1.5993
B( 17-C , 33-H ) :   0.9656 B( 18-C , 19-C ) :   1.2602 B( 18-C , 21-H ) :   0.9840
B( 19-C , 20-C ) :   1.5908 B( 19-C , 22-C ) :   1.0389 B( 22-C , 23-H ) :   0.9358
B( 22-C , 24-H ) :   0.9269 B( 22-C , 25-C ) :   1.0453 B( 25-C , 26-H ) :   0.9621
B( 25-C , 27-H ) :   0.9560 B( 25-C , 28-C ) :   1.0674 B( 28-C , 29-H ) :   0.9757
B( 28-C , 30-H ) :   0.9764 B( 28-C , 31-H ) :   0.9760

Dispersion correction           -0.014056704
FINAL SINGLE POINT ENERGY     -1339.859191482194

DIPOLE MOMENT
-------------
                                X             Y             Z
Electronic contribution:    -17.26992       5.83446     -22.11963
Nuclear contribution   :     17.44830      -6.08167      22.71114
                        -----------------------------------------
Total Dipole Moment    :      0.17837      -0.24721       0.59151
                        -----------------------------------------
Magnitude (a.u.)       :      0.66544
Magnitude (Debye)      :      1.69142

Rotational constants in cm-1:     0.017811     0.008511     0.006956
Rotational constants in MHz :   533.954855   255.162109   208.530516

                             ****ORCA TERMINATED NORMALLY****
TOTAL RUN TIME: 0 days 0 hours 0 minutes 28 seconds 333 msec
