                         Program Version 4.2.1 -  RELEASE  -
|  1> ! wB97X-D3 SP def2-SVP
|  2> %pal
|  3> nprocs 16
|  4> end
|  5>
|  6> * xyz 0 1
|  7> S 	 -14.8786 	 39.5645 	 32.3441
|  8> C 	 -16.5323 	 38.9497 	 32.5731
|  9> C 	 -17.0596 	 38.1923 	 31.549
| 10> C 	 -16.0482 	 38.2059 	 30.5283
| 11> C 	 -14.7853 	 38.7527 	 30.8044
| 12> H 	 -16.1614 	 37.6723 	 29.6284
| 13> C 	 -18.4385 	 37.6072 	 31.4459
| 14> H 	 -18.7445 	 37.388 	 32.4916
| 15> H 	 -18.4727 	 36.6795 	 30.8911
| 16> C 	 -19.4718 	 38.5918 	 30.9223
| 17> H 	 -20.4859 	 38.2919 	 31.12
| 18> H 	 -19.3947 	 39.56 	 31.3885
| 19> C 	 -19.2178 	 38.934 	 29.429
| 20> H 	 -19.4047 	 38.0088 	 28.8516
| 21> H 	 -19.9222 	 39.7096 	 29.1141
| 22> H 	 -18.2176 	 39.3106 	 29.1532
| 23> S 	 -13.0583 	 37.3898 	 29.1439
| 24> C 	 -11.9521 	 38.2075 	 28.1112
| 25> C 	 -11.9844 	 39.5666 	 28.3827
| 26> C 	 -12.9561 	 39.931 	 29.3585
| 27> C 	 -13.7109 	 38.8624 	 29.8399
| 28> H 	 -11.2973 	 40.206 	 27.8117
| 29> C 	 -12.9804 	 41.4186 	 29.7983
| 30> H 	 -12.0999 	 41.9104 	 29.3764
| 31> H 	 -12.889 	 41.3508 	 30.9042
| 32> C 	 -14.2516 	 42.2082 	 29.6855
| 33> H 	 -14.0609 	 43.1898 	 30.1068
| 34> H 	 -15.0451 	 41.74 	 30.2374
| 35> C 	 -14.8137 	 42.2747 	 28.2528
| 36> H 	 -14.0518 	 42.652 	 27.5812
| 37> H 	 -15.6777 	 42.8495 	 28.0562
| 38> H 	 -15.0786 	 41.239 	 27.8186
| 39> H 	 -17.1747 	 39.1911 	 33.4701
| 40> H 	 -11.1487 	 37.7914 	 27.4296
| 41> *
| 42>
| 43>                          ****END OF INPUT****

CARTESIAN COORDINATES (ANGSTROEM)
---------------------------------
  S    -14.878600   39.564500   32.344100
  C    -16.532300   38.949700   32.573100
  C    -17.059600   38.192300   31.549000
  C    -16.048200   38.205900   30.528300
  C    -14.785300   38.752700   30.804400
  H    -16.161400   37.672300   29.628400
  C    -18.438500   37.607200   31.445900
  H    -18.744500   37.388000   32.491600
  H    -18.472700   36.679500   30.891100
  C    -19.471800   38.591800   30.922300
  H    -20.485900   38.291900   31.120000
  H    -19.394700   39.560000   31.388500
  C    -19.217800   38.934000   29.429000
  H    -19.404700   38.008800   28.851600
  H    -19.922200   39.709600   29.114100
  H    -18.217600   39.310600   29.153200
  S    -13.058300   37.389800   29.143900
  C    -11.952100   38.207500   28.111200
  C    -11.984400   39.566600   28.382700
  C    -12.956100   39.931000   29.358500
  C    -13.710900   38.862400   29.839900
  H    -11.297300   40.206000   27.811700
  C    -12.980400   41.418600   29.798300
  H    -12.099900   41.910400   29.376400
  H    -12.889000   41.350800   30.904200
  C    -14.251600   42.208200   29.685500
  H    -14.060900   43.189800   30.106800
  H    -15.045100   41.740000   30.237400
  C    -14.813700   42.274700   28.252800
  H    -14.051800   42.652000   27.581200
  H    -15.677700   42.849500   28.056200
  H    -15.078600   41.239000   27.818600
  H    -17.174700   39.191100   33.470100
  H    -11.148700   37.791400   27.429600

 Total Charge           Charge          ....    0
 Multiplicity           Mult            ....    1
 Number of Electrons    NEL             ....  134
 Basis Dimension        Dim             ....  322

ORBITAL ENERGIES
----------------

  NO   OCC          E(Eh)            E(eV)
   0   2.0000     -88.973499     -2421.0920
   1   2.0000     -88.965681     -2420.8792
   2   2.0000     -10.331675      -281.1392
   3   2.0000     -10.328219      -281.0451
   4   2.0000     -10.322666      -280.8940
   5   2.0000     -10.318882      -280.7910
   6   2.0000     -10.305009      -280.4135
   7   2.0000     -10.304838      -280.4089
   8   2.0000     -10.299294      -280.2580
   9   2.0000     -10.293269      -280.0941
  10   2.0000     -10.292275      -280.0671
  11   2.0000     -10.291940      -280.0579
  12   2.0000     -10.286561      -279.9116
  13   2.0000     -10.279232      -279.7121
  14   2.0000     -10.278865      -279.7021
  15   2.0000     -10.269867      -279.4573
  16   2.0000      -8.087118      -220.0617
  17   2.0000      -8.080540      -219.8827
  18   2.0000      -6.045718      -164.5124
  19   2.0000      -6.041825      -164.4064
  20   2.0000      -6.039084      -164.3318
  21   2.0000      -6.037806      -164.2970
  22   2.0000      -6.034806      -164.2154
  23   2.0000      -6.031464      -164.1245
  24   2.0000      -1.006978       -27.4013
  25   2.0000      -0.985650       -26.8209
  26   2.0000      -0.918762       -25.0008
  27   2.0000      -0.907383       -24.6912
  28   2.0000      -0.869441       -23.6587
  29   2.0000      -0.848100       -23.0780
  30   2.0000      -0.841247       -22.8915
  31   2.0000      -0.809833       -22.0367
  32   2.0000      -0.785695       -21.3798
  33   2.0000      -0.774818       -21.0839
  34   2.0000      -0.708372       -19.2758
  35   2.0000      -0.705087       -19.1864
  36   2.0000      -0.685495       -18.6533
  37   2.0000      -0.659401       -17.9432
  38   2.0000      -0.635095       -17.2818
  39   2.0000      -0.616347       -16.7717
  40   2.0000      -0.588779       -16.0215
  41   2.0000      -0.578445       -15.7403
  42   2.0000      -0.554214       -15.0809
  43   2.0000      -0.549683       -14.9576
  44   2.0000      -0.545086       -14.8325
  45   2.0000      -0.538305       -14.6480
  46   2.0000      -0.516721       -14.0607
  47   2.0000      -0.510778       -13.8990
  48   2.0000      -0.502673       -13.6784
  49   2.0000      -0.498057       -13.5528
  50   2.0000      -0.485064       -13.1993
  51   2.0000      -0.474788       -12.9196
  52   2.0000      -0.470585       -12.8053
  53   2.0000      -0.464178       -12.6309
  54   2.0000      -0.460991       -12.5442
  55   2.0000      -0.446593       -12.1524
  56   2.0000      -0.440622       -11.9899
  57   2.0000      -0.434890       -11.8340
  58   2.0000      -0.431911       -11.7529
  59   2.0000      -0.428866       -11.6700
  60   2.0000      -0.415487       -11.3060
  61   2.0000      -0.412352       -11.2207
  62   2.0000      -0.409322       -11.1382
  63   2.0000      -0.344707        -9.3799
  64   2.0000      -0.335488        -9.1291
  65   2.0000      -0.328742        -8.9455
  66   2.0000      -0.292132        -7.9493
  67   0.0000       0.027622         0.7516
  68   0.0000       0.069256         1.8846
  69   0.0000       0.107821         2.9340
  70   0.0000       0.115491         3.1427
  71   0.0000       0.122074         3.3218

MULLIKEN ATOMIC CHARGES
-----------------------
   0 S :    0.115808
   1 C :   -0.143997
   2 C :   -0.078988
   3 C :    0.022786
   4 C :   -0.144723
   5 H :   -0.007240
   6 C :    0.089968
   7 H :    0.027736
   8 H :    0.033635
   9 C :   -0.046428
  10 H :    0.030069
  11 H :    0.019686
  12 C :   -0.088903
  13 H :    0.027710
  14 H :    0.035201
  15 H :    0.051712
  16 S :    0.115916
  17 C :   -0.112004
  18 C :   -0.075717
  19 C :   -0.028550
  20 C :   -0.165137
  21 H :    0.026778
  22 C :    0.059977
  23 H :    0.024752
  24 H :    0.032719
  25 C :   -0.031559
  26 H :    0.030541
  27 H :    0.029960
  28 C :   -0.070956
  29 H :    0.013847
  30 H :    0.024102
  31 H :    0.041901
  32 H :    0.059329
  33 H :    0.080070
Sum of atomic charges:   -0.0000000

LOEWDIN ATOMIC CHARGES
----------------------
   0 S :    0.406259
   1 C :   -0.187035
   2 C :   -0.062058
   3 C :   -0.051648
   4 C :   -0.208218
   5 H :    0.015904
   6 C :   -0.027762
   7 H :    0.038284
   8 H :    0.032310
   9 C :   -0.037066
  10 H :    0.023167
  11 H :    0.023370
  12 C :   -0.070158
  13 H :    0.022753
  14 H :    0.026161
  15 H :    0.029750
  16 S :    0.427224
  17 C :   -0.211521
  18 C :   -0.083588
  19 C :   -0.056144
  20 C :   -0.204768
  21 H :    0.034305
  22 C :   -0.030570
  23 H :    0.029750
  24 H :    0.035558
  25 C :   -0.040509
  26 H :    0.026890
  27 H :    0.020011
  28 C :   -0.074279
  29 H :    0.017562
  30 H :    0.016512
  31 H :    0.035312
  32 H :    0.035278
  33 H :    0.048965

  Mayer bond orders larger than 0.100000
B(  0-S ,  1-C ) :   1.1487 B(  0-S ,  4-C ) :   1.1220 B(  1-C ,  2-C ) :   1.6187
B(  1-C , 32-H ) :   0.9485 B(  2-C ,  3-C ) :   1.2441 B(  2-C ,  6-C ) :   1.0309
B(  3-C ,  4-C ) :   1.5765 B(  3-C ,  5-H ) :   0.9872 B(  4-C , 20-C ) :   1.0522
B(  6-C ,  7-H ) :   0.9285 B(  6-C ,  8-H ) :   0.9418 B(  6-C ,  9-C ) :   1.0751
B(  9-C , 10-H ) :   0.9567 B(  9-C , 11-H ) :   0.9534 B(  9-C , 12-C ) :   1.0718
B( 12-C , 13-H ) :   0.9771 B( 12-C , 14-H ) :   0.9746 B( 12-C , 15-H ) :   0.9729
B( 16-S , 17-C ) :   1.1723 B( 16-S , 20-C ) :   1.1485 B( 17-C , 18-C ) :   1.5919
B( 17-C , 20-C ) :   0.1017 B( 17-C , 33-H ) :   0.9567 B( 18-C , 19-C ) :   1.2620
B( 18-C , 21-H ) :   0.9876 B( 19-C , 20-C ) :   1.5588 B( 19-C , 22-C ) :   1.0238
B( 22-C , 23-H ) :   0.9410 B( 22-C , 24-H ) :   0.9317 B( 22-C , 25-C ) :   1.0823
B( 25-C , 26-H ) :   0.9515 B( 25-C , 27-H ) :   0.9499 B( 25-C , 28-C ) :   1.0717
B( 28-C , 29-H ) :   0.9765 B( 28-C , 30-H ) :   0.9775 B( 28-C , 31-H ) :   0.9712

Dispersion correction           -0.015521540
FINAL SINGLE POINT ENERGY     -1339.878263512825

DIPOLE MOMENT
-------------
                                X             Y             Z
Electronic contribution:     17.57022     -12.03144       7.68418
Nuclear contribution   :    -17.93567      12.25188      -7.77599
                        -----------------------------------------
Total Dipole Moment    :     -0.36545       0.22044      -0.09181
                        -----------------------------------------
Magnitude (a.u.)       :      0.43655
Magnitude (Debye)      :      1.10962

Rotational constants in cm-1:     0.019315     0.008936     0.008156
Rotational constants in MHz :   579.049383   267.902527   244.513248

                             ****ORCA TERMINATED NORMALLY****
TOTAL RUN TIME: 0 days 0 hours 0 minutes 34 seconds 808 msec
