                         Program Version 4.2.1 -  RELEASE  -
|  1> ! wB97X-D3 SP def2-SVP
|  2> %pal
|  3> nprocs 16
|  4> end
|  5>
|  6> * xyz 0 1
|  7> S 	 -16.0052 	 -4.58181 	 84.9049
|  8> C 	 -16.9182 	 -3.53547 	 83.7707
|  9> C 	 -17.2664 	 -2.31669 	 84.4004
| 10> C 	 -16.734 	 -2.16786 	 85.7525
| 11> C 	 -16.02 	 -3.37345 	 86.1605
| 12> H 	 -16.7524 	 -1.34012 	 86.464
| 13> C 	 -18.254 	 -1.2886 	 83.8711
| 14> H 	 -18.856 	 -1.04173 	 84.7228
| 15> H 	 -18.828 	 -1.88127 	 83.1736
| 16> C 	 -17.586 	 -0.129359 	 83.2347
| 17> H 	 -17.3458 	 -0.37191 	 82.2095
| 18> H 	 -18.4193 	 0.585588 	 83.0981
| 19> C 	 -16.4893 	 0.622047 	 83.9383
| 20> H 	 -16.7493 	 0.802703 	 84.9911
| 21> H 	 -15.6157 	 0.0362396 	 83.9697
| 22> H 	 -16.2379 	 1.53406 	 83.4641
| 23> S 	 -13.7807 	 -4.51718 	 87.3174
| 24> C 	 -13.5799 	 -4.42344 	 89.0762
| 25> C 	 -14.7086 	 -3.88577 	 89.6222
| 26> C 	 -15.6064 	 -3.29374 	 88.7365
| 27> C 	 -15.3304 	 -3.62048 	 87.421
| 28> H 	 -14.7106 	 -3.87122 	 90.7084
| 29> C 	 -16.8196 	 -2.48568 	 89.154
| 30> H 	 -17.3043 	 -2.9856 	 89.9769
| 31> H 	 -17.6557 	 -2.41725 	 88.4817
| 32> C 	 -16.4627 	 -1.05286 	 89.6581
| 33> H 	 -15.7065 	 -0.565364 	 89.056
| 34> H 	 -15.9063 	 -1.21873 	 90.5952
| 35> C 	 -17.6712 	 -0.132861 	 89.8441
| 36> H 	 -17.4697 	 0.810781 	 90.3902
| 37> H 	 -18.5279 	 -0.579599 	 90.3211
| 38> H 	 -17.9687 	 0.238139 	 88.8169
| 39> H 	 -17.3356 	 -3.97514 	 82.8976
| 40> H 	 -12.7481 	 -4.72688 	 89.667
| 41> *
| 42>
| 43>                          ****END OF INPUT****

CARTESIAN COORDINATES (ANGSTROEM)
---------------------------------
  S    -16.005200   -4.581810   84.904900
  C    -16.918200   -3.535470   83.770700
  C    -17.266400   -2.316690   84.400400
  C    -16.734000   -2.167860   85.752500
  C    -16.020000   -3.373450   86.160500
  H    -16.752400   -1.340120   86.464000
  C    -18.254000   -1.288600   83.871100
  H    -18.856000   -1.041730   84.722800
  H    -18.828000   -1.881270   83.173600
  C    -17.586000   -0.129359   83.234700
  H    -17.345800   -0.371910   82.209500
  H    -18.419300    0.585588   83.098100
  C    -16.489300    0.622047   83.938300
  H    -16.749300    0.802703   84.991100
  H    -15.615700    0.036240   83.969700
  H    -16.237900    1.534060   83.464100
  S    -13.780700   -4.517180   87.317400
  C    -13.579900   -4.423440   89.076200
  C    -14.708600   -3.885770   89.622200
  C    -15.606400   -3.293740   88.736500
  C    -15.330400   -3.620480   87.421000
  H    -14.710600   -3.871220   90.708400
  C    -16.819600   -2.485680   89.154000
  H    -17.304300   -2.985600   89.976900
  H    -17.655700   -2.417250   88.481700
  C    -16.462700   -1.052860   89.658100
  H    -15.706500   -0.565364   89.056000
  H    -15.906300   -1.218730   90.595200
  C    -17.671200   -0.132861   89.844100
  H    -17.469700    0.810781   90.390200
  H    -18.527900   -0.579599   90.321100
  H    -17.968700    0.238139   88.816900
  H    -17.335600   -3.975140   82.897600
  H    -12.748100   -4.726880   89.667000

 Total Charge           Charge          ....    0
 Multiplicity           Mult            ....    1
 Number of Electrons    NEL             ....  134
 Basis Dimension        Dim             ....  322

ORBITAL ENERGIES
----------------

  NO   OCC          E(Eh)            E(eV)
   0   2.0000     -88.968031     -2420.9432
   1   2.0000     -88.965030     -2420.8615
   2   2.0000     -10.338280      -281.3189
   3   2.0000     -10.331318      -281.1294
   4   2.0000     -10.317634      -280.7571
   5   2.0000     -10.316735      -280.7326
   6   2.0000     -10.310004      -280.5495
   7   2.0000     -10.304987      -280.4129
   8   2.0000     -10.304279      -280.3937
   9   2.0000     -10.292003      -280.0596
  10   2.0000     -10.291714      -280.0518
  11   2.0000     -10.289753      -279.9984
  12   2.0000     -10.287037      -279.9245
  13   2.0000     -10.286818      -279.9186
  14   2.0000     -10.280238      -279.7395
  15   2.0000     -10.269109      -279.4367
  16   2.0000      -8.081910      -219.9200
  17   2.0000      -8.078854      -219.8368
  18   2.0000      -6.040463      -164.3693
  19   2.0000      -6.037443      -164.2872
  20   2.0000      -6.036387      -164.2584
  21   2.0000      -6.033535      -164.1808
  22   2.0000      -6.032848      -164.1621
  23   2.0000      -6.029508      -164.0713
  24   2.0000      -1.002520       -27.2800
  25   2.0000      -0.975428       -26.5427
  26   2.0000      -0.920306       -25.0428
  27   2.0000      -0.907644       -24.6983
  28   2.0000      -0.868427       -23.6311
  29   2.0000      -0.851658       -23.1748
  30   2.0000      -0.841469       -22.8975
  31   2.0000      -0.812597       -22.1119
  32   2.0000      -0.788377       -21.4528
  33   2.0000      -0.776301       -21.1242
  34   2.0000      -0.706618       -19.2280
  35   2.0000      -0.703390       -19.1402
  36   2.0000      -0.700987       -19.0748
  37   2.0000      -0.661473       -17.9996
  38   2.0000      -0.639901       -17.4126
  39   2.0000      -0.612138       -16.6571
  40   2.0000      -0.598566       -16.2878
  41   2.0000      -0.574869       -15.6430
  42   2.0000      -0.561932       -15.2909
  43   2.0000      -0.552385       -15.0312
  44   2.0000      -0.543267       -14.7831
  45   2.0000      -0.523752       -14.2520
  46   2.0000      -0.519263       -14.1299
  47   2.0000      -0.517518       -14.0824
  48   2.0000      -0.512112       -13.9353
  49   2.0000      -0.497606       -13.5405
  50   2.0000      -0.489019       -13.3069
  51   2.0000      -0.482161       -13.1203
  52   2.0000      -0.472846       -12.8668
  53   2.0000      -0.466334       -12.6896
  54   2.0000      -0.458145       -12.4668
  55   2.0000      -0.453919       -12.3518
  56   2.0000      -0.444968       -12.1082
  57   2.0000      -0.440630       -11.9902
  58   2.0000      -0.436927       -11.8894
  59   2.0000      -0.428013       -11.6468
  60   2.0000      -0.420553       -11.4438
  61   2.0000      -0.406894       -11.0722
  62   2.0000      -0.400336       -10.8937
  63   2.0000      -0.351518        -9.5653
  64   2.0000      -0.333967        -9.0877
  65   2.0000      -0.328309        -8.9337
  66   2.0000      -0.282513        -7.6876
  67   0.0000       0.019892         0.5413
  68   0.0000       0.069677         1.8960
  69   0.0000       0.098814         2.6889
  70   0.0000       0.118507         3.2247
  71   0.0000       0.121765         3.3134

MULLIKEN ATOMIC CHARGES
-----------------------
   0 S :    0.099460
   1 C :   -0.118381
   2 C :   -0.117619
   3 C :    0.013316
   4 C :   -0.147427
   5 H :    0.019154
   6 C :    0.107533
   7 H :    0.025700
   8 H :    0.015825
   9 C :   -0.074564
  10 H :    0.020459
  11 H :    0.020594
  12 C :    0.001424
  13 H :    0.018544
  14 H :    0.031384
  15 H :    0.028247
  16 S :    0.091036
  17 C :   -0.086148
  18 C :   -0.035487
  19 C :   -0.000034
  20 C :   -0.138956
  21 H :    0.017747
  22 C :    0.055462
  23 H :    0.018018
  24 H :    0.017600
  25 C :   -0.082750
  26 H :    0.029838
  27 H :    0.023041
  28 C :   -0.054847
  29 H :    0.040405
  30 H :    0.033797
  31 H :    0.030700
  32 H :    0.047934
  33 H :    0.048995
Sum of atomic charges:    0.0000000

LOEWDIN ATOMIC CHARGES
----------------------
   0 S :    0.398081
   1 C :   -0.198251
   2 C :   -0.048584
   3 C :   -0.073076
   4 C :   -0.186654
   5 H :    0.031186
   6 C :   -0.026770
   7 H :    0.029602
   8 H :    0.033150
   9 C :   -0.045003
  10 H :    0.023852
  11 H :    0.026234
  12 C :   -0.055620
  13 H :    0.025405
  14 H :    0.022156
  15 H :    0.025381
  16 S :    0.375446
  17 C :   -0.171362
  18 C :   -0.071048
  19 C :   -0.056368
  20 C :   -0.178621
  21 H :    0.032975
  22 C :   -0.030082
  23 H :    0.031149
  24 H :    0.024347
  25 C :   -0.044214
  26 H :    0.022063
  27 H :    0.022645
  28 C :   -0.070900
  29 H :    0.031706
  30 H :    0.022364
  31 H :    0.029518
  32 H :    0.020718
  33 H :    0.028577

  Mayer bond orders larger than 0.100000
B(  0-S ,  1-C ) :   1.1212 B(  0-S ,  4-C ) :   1.1788 B(  1-C ,  2-C ) :   1.5971
B(  1-C ,  4-C ) :   0.1044 B(  1-C , 32-H ) :   0.9736 B(  2-C ,  3-C ) :   1.2309
B(  2-C ,  6-C ) :   1.0040 B(  3-C ,  4-C ) :   1.5257 B(  3-C ,  5-H ) :   0.9876
B(  4-C , 20-C ) :   1.0702 B(  6-C ,  7-H ) :   0.9398 B(  6-C ,  8-H ) :   0.9367
B(  6-C ,  9-C ) :   1.0893 B(  9-C , 10-H ) :   0.9490 B(  9-C , 11-H ) :   0.9499
B(  9-C , 12-C ) :   1.0930 B( 12-C , 13-H ) :   0.9686 B( 12-C , 14-H ) :   0.9663
B( 12-C , 15-H ) :   0.9681 B( 16-S , 17-C ) :   1.1374 B( 16-S , 20-C ) :   1.1264
B( 17-C , 18-C ) :   1.6277 B( 17-C , 20-C ) :   0.1038 B( 17-C , 33-H ) :   0.9703
B( 18-C , 19-C ) :   1.2383 B( 18-C , 21-H ) :   0.9863 B( 19-C , 20-C ) :   1.5853
B( 19-C , 22-C ) :   1.0422 B( 22-C , 23-H ) :   0.9279 B( 22-C , 24-H ) :   0.9464
B( 22-C , 25-C ) :   1.0379 B( 25-C , 26-H ) :   0.9605 B( 25-C , 27-H ) :   0.9555
B( 25-C , 28-C ) :   1.0810 B( 28-C , 29-H ) :   0.9733 B( 28-C , 30-H ) :   0.9747
B( 28-C , 31-H ) :   0.9738

Dispersion correction           -0.014562717
FINAL SINGLE POINT ENERGY     -1339.871413023320

DIPOLE MOMENT
-------------
                                X             Y             Z
Electronic contribution:     14.08280     -26.19379      -3.64960
Nuclear contribution   :    -14.48490      26.70835       3.98570
                        -----------------------------------------
Total Dipole Moment    :     -0.40210       0.51456       0.33610
                        -----------------------------------------
Magnitude (a.u.)       :      0.73445
Magnitude (Debye)      :      1.86682

Rotational constants in cm-1:     0.016704     0.009909     0.006975
Rotational constants in MHz :   500.786582   297.060469   209.091835

                             ****ORCA TERMINATED NORMALLY****
TOTAL RUN TIME: 0 days 0 hours 0 minutes 34 seconds 211 msec
