                         Program Version 4.2.1 -  RELEASE  -
|  1> ! wB97X-D3 SP def2-SVP
|  2> %pal
|  3> nprocs 16
|  4> end
|  5>
|  6> * xyz 0 1
|  7> S 	 -70.3322 	 46.1586 	 124.956
|  8> C 	 -70.5873 	 46.8871 	 126.511
|  9> C 	 -70.3766 	 46.1171 	 127.6
| 10> C 	 -70.2571 	 44.7403 	 127.144
| 11> C 	 -70.405 	 44.5646 	 125.786
| 12> H 	 -70.0628 	 43.9085 	 127.89
| 13> C 	 -70.3377 	 46.5562 	 129
| 14> H 	 -71.0032 	 47.4698 	 128.926
| 15> H 	 -69.3803 	 46.9128 	 129.207
| 16> C 	 -70.8465 	 45.6616 	 130.145
| 17> H 	 -70.2134 	 44.8061 	 130.231
| 18> H 	 -70.6149 	 46.1862 	 131.105
| 19> C 	 -72.3145 	 45.124 	 130.087
| 20> H 	 -72.8219 	 45.1012 	 131.003
| 21> H 	 -73.0143 	 45.8415 	 129.492
| 22> H 	 -72.4628 	 44.1285 	 129.614
| 23> S 	 -68.7102 	 43.2154 	 124.033
| 24> C 	 -68.9712 	 41.5806 	 123.582
| 25> C 	 -70.1374 	 41.1179 	 124.153
| 26> C 	 -70.7263 	 42.0762 	 125.077
| 27> C 	 -70.1371 	 43.2874 	 125.034
| 28> H 	 -70.4165 	 40.0809 	 124.012
| 29> C 	 -71.9766 	 41.8448 	 125.937
| 30> H 	 -72.5894 	 41.1348 	 125.354
| 31> H 	 -72.4122 	 42.7961 	 125.877
| 32> C 	 -71.6088 	 41.3295 	 127.386
| 33> H 	 -71.688 	 42.1465 	 128.094
| 34> H 	 -70.6468 	 40.8182 	 127.376
| 35> C 	 -72.5324 	 40.2684 	 128.069
| 36> H 	 -72.0552 	 40.0062 	 128.997
| 37> H 	 -72.5729 	 39.4008 	 127.411
| 38> H 	 -73.5762 	 40.584 	 128.289
| 39> H 	 -70.6437 	 47.99 	 126.561
| 40> H 	 -68.2743 	 41.1546 	 122.889
| 41> *
| 42>
| 43>                          ****END OF INPUT****

CARTESIAN COORDINATES (ANGSTROEM)
---------------------------------
  S    -70.332200   46.158600  124.956000
  C    -70.587300   46.887100  126.511000
  C    -70.376600   46.117100  127.600000
  C    -70.257100   44.740300  127.144000
  C    -70.405000   44.564600  125.786000
  H    -70.062800   43.908500  127.890000
  C    -70.337700   46.556200  129.000000
  H    -71.003200   47.469800  128.926000
  H    -69.380300   46.912800  129.207000
  C    -70.846500   45.661600  130.145000
  H    -70.213400   44.806100  130.231000
  H    -70.614900   46.186200  131.105000
  C    -72.314500   45.124000  130.087000
  H    -72.821900   45.101200  131.003000
  H    -73.014300   45.841500  129.492000
  H    -72.462800   44.128500  129.614000
  S    -68.710200   43.215400  124.033000
  C    -68.971200   41.580600  123.582000
  C    -70.137400   41.117900  124.153000
  C    -70.726300   42.076200  125.077000
  C    -70.137100   43.287400  125.034000
  H    -70.416500   40.080900  124.012000
  C    -71.976600   41.844800  125.937000
  H    -72.589400   41.134800  125.354000
  H    -72.412200   42.796100  125.877000
  C    -71.608800   41.329500  127.386000
  H    -71.688000   42.146500  128.094000
  H    -70.646800   40.818200  127.376000
  C    -72.532400   40.268400  128.069000
  H    -72.055200   40.006200  128.997000
  H    -72.572900   39.400800  127.411000
  H    -73.576200   40.584000  128.289000
  H    -70.643700   47.990000  126.561000
  H    -68.274300   41.154600  122.889000

 Total Charge           Charge          ....    0
 Multiplicity           Mult            ....    1
 Number of Electrons    NEL             ....  134
 Basis Dimension        Dim             ....  322

ORBITAL ENERGIES
----------------

  NO   OCC          E(Eh)            E(eV)
   0   2.0000     -88.966020     -2420.8885
   1   2.0000     -88.955037     -2420.5896
   2   2.0000     -10.334024      -281.2031
   3   2.0000     -10.319545      -280.8091
   4   2.0000     -10.313581      -280.6468
   5   2.0000     -10.311522      -280.5908
   6   2.0000     -10.301918      -280.3294
   7   2.0000     -10.298060      -280.2245
   8   2.0000     -10.297770      -280.2166
   9   2.0000     -10.297305      -280.2039
  10   2.0000     -10.294534      -280.1285
  11   2.0000     -10.294488      -280.1273
  12   2.0000     -10.290358      -280.0149
  13   2.0000     -10.288727      -279.9705
  14   2.0000     -10.288172      -279.9554
  15   2.0000     -10.278912      -279.7034
  16   2.0000      -8.080515      -219.8820
  17   2.0000      -8.071214      -219.6289
  18   2.0000      -6.039096      -164.3322
  19   2.0000      -6.035468      -164.2334
  20   2.0000      -6.030803      -164.1065
  21   2.0000      -6.029669      -164.0756
  22   2.0000      -6.025406      -163.9596
  23   2.0000      -6.022059      -163.8686
  24   2.0000      -1.005911       -27.3722
  25   2.0000      -0.987131       -26.8612
  26   2.0000      -0.913233       -24.8503
  27   2.0000      -0.900546       -24.5051
  28   2.0000      -0.865477       -23.5508
  29   2.0000      -0.849525       -23.1167
  30   2.0000      -0.842498       -22.9255
  31   2.0000      -0.816606       -22.2210
  32   2.0000      -0.784843       -21.3567
  33   2.0000      -0.773796       -21.0560
  34   2.0000      -0.713214       -19.4075
  35   2.0000      -0.696003       -18.9392
  36   2.0000      -0.689094       -18.7512
  37   2.0000      -0.661748       -18.0071
  38   2.0000      -0.633369       -17.2349
  39   2.0000      -0.620365       -16.8810
  40   2.0000      -0.590968       -16.0811
  41   2.0000      -0.566587       -15.4176
  42   2.0000      -0.562532       -15.3073
  43   2.0000      -0.557417       -15.1681
  44   2.0000      -0.536176       -14.5901
  45   2.0000      -0.529294       -14.4028
  46   2.0000      -0.522433       -14.2161
  47   2.0000      -0.505854       -13.7650
  48   2.0000      -0.504283       -13.7222
  49   2.0000      -0.495221       -13.4756
  50   2.0000      -0.482730       -13.1358
  51   2.0000      -0.479167       -13.0388
  52   2.0000      -0.468108       -12.7379
  53   2.0000      -0.462663       -12.5897
  54   2.0000      -0.454519       -12.3681
  55   2.0000      -0.452993       -12.3266
  56   2.0000      -0.443340       -12.0639
  57   2.0000      -0.441172       -12.0049
  58   2.0000      -0.432969       -11.7817
  59   2.0000      -0.430026       -11.7016
  60   2.0000      -0.419453       -11.4139
  61   2.0000      -0.414823       -11.2879
  62   2.0000      -0.405850       -11.0437
  63   2.0000      -0.345898        -9.4124
  64   2.0000      -0.328120        -8.9286
  65   2.0000      -0.324267        -8.8238
  66   2.0000      -0.299557        -8.1513
  67   0.0000       0.037199         1.0122
  68   0.0000       0.066485         1.8092
  69   0.0000       0.107820         2.9339
  70   0.0000       0.122012         3.3201
  71   0.0000       0.133776         3.6402

MULLIKEN ATOMIC CHARGES
-----------------------
   0 S :    0.102540
   1 C :   -0.133302
   2 C :   -0.081109
   3 C :    0.010410
   4 C :   -0.149021
   5 H :    0.040865
   6 C :    0.076776
   7 H :    0.032923
   8 H :    0.031558
   9 C :   -0.061465
  10 H :    0.022564
  11 H :    0.036161
  12 C :   -0.077022
  13 H :    0.027424
  14 H :    0.036937
  15 H :    0.046941
  16 S :    0.085644
  17 C :   -0.097745
  18 C :   -0.017815
  19 C :   -0.107215
  20 C :   -0.141565
  21 H :    0.019227
  22 C :    0.106569
  23 H :    0.022810
  24 H :    0.030623
  25 C :   -0.088620
  26 H :    0.040157
  27 H :    0.044806
  28 C :   -0.063438
  29 H :    0.030573
  30 H :    0.028473
  31 H :    0.037039
  32 H :    0.047949
  33 H :    0.059348
Sum of atomic charges:   -0.0000000

LOEWDIN ATOMIC CHARGES
----------------------
   0 S :    0.385073
   1 C :   -0.192597
   2 C :   -0.071067
   3 C :   -0.053528
   4 C :   -0.184041
   5 H :    0.040681
   6 C :   -0.032986
   7 H :    0.043306
   8 H :    0.030452
   9 C :   -0.043651
  10 H :    0.019741
  11 H :    0.035661
  12 C :   -0.075788
  13 H :    0.019935
  14 H :    0.036758
  15 H :    0.029395
  16 S :    0.406342
  17 C :   -0.185310
  18 C :   -0.077879
  19 C :   -0.062309
  20 C :   -0.203073
  21 H :    0.030228
  22 C :   -0.023315
  23 H :    0.030887
  24 H :    0.027722
  25 C :   -0.038907
  26 H :    0.022289
  27 H :    0.029487
  28 C :   -0.064639
  29 H :    0.023999
  30 H :    0.019884
  31 H :    0.024880
  32 H :    0.026601
  33 H :    0.025769

  Mayer bond orders larger than 0.100000
B(  0-S ,  1-C ) :   1.1372 B(  0-S ,  4-C ) :   1.1225 B(  1-C ,  2-C ) :   1.6569
B(  1-C , 32-H ) :   0.9555 B(  2-C ,  3-C ) :   1.2152 B(  2-C ,  6-C ) :   1.0093
B(  3-C ,  4-C ) :   1.6104 B(  3-C ,  5-H ) :   0.9750 B(  4-C , 20-C ) :   0.9981
B(  6-C ,  7-H ) :   0.9402 B(  6-C ,  8-H ) :   0.9236 B(  6-C ,  9-C ) :   1.0918
B(  9-C , 10-H ) :   0.9511 B(  9-C , 11-H ) :   0.9536 B(  9-C , 12-C ) :   1.0536
B( 12-C , 13-H ) :   0.9758 B( 12-C , 14-H ) :   0.9780 B( 12-C , 15-H ) :   0.9755
B( 16-S , 17-C ) :   1.1717 B( 16-S , 20-C ) :   1.1384 B( 17-C , 18-C ) :   1.5905
B( 17-C , 33-H ) :   0.9747 B( 18-C , 19-C ) :   1.2210 B( 18-C , 21-H ) :   0.9963
B( 19-C , 20-C ) :   1.6558 B( 19-C , 22-C ) :   1.0294 B( 22-C , 23-H ) :   0.9477
B( 22-C , 24-H ) :   0.9351 B( 22-C , 25-C ) :   1.0353 B( 25-C , 26-H ) :   0.9500
B( 25-C , 27-H ) :   0.9652 B( 25-C , 28-C ) :   1.0820 B( 28-C , 29-H ) :   0.9747
B( 28-C , 30-H ) :   0.9780 B( 28-C , 31-H ) :   0.9770

Dispersion correction           -0.015015446
FINAL SINGLE POINT ENERGY     -1339.862557706364

DIPOLE MOMENT
-------------
                                X             Y             Z
Electronic contribution:     14.27143       8.97627     -26.42825
Nuclear contribution   :    -14.31972      -9.12885      27.16324
                        -----------------------------------------
Total Dipole Moment    :     -0.04828      -0.15258       0.73500
                        -----------------------------------------
Magnitude (a.u.)       :      0.75222
Magnitude (Debye)      :      1.91199

Rotational constants in cm-1:     0.016387     0.010585     0.007030
Rotational constants in MHz :   491.266809   317.341428   210.741183

                             ****ORCA TERMINATED NORMALLY****
TOTAL RUN TIME: 0 days 0 hours 0 minutes 35 seconds 109 msec
