                         Program Version 4.2.1 -  RELEASE  -
|  1> ! wB97X-D3 SP def2-SVP
|  2> %pal
|  3> nprocs 16
|  4> end
|  5>
|  6> * xyz 0 1
|  7> S 	 29.5488 	 29.7629 	 55.2307
|  8> C 	 30.8917 	 28.7916 	 55.7063
|  9> C 	 31.9851 	 29.5745 	 56.0159
| 10> C 	 31.6489 	 30.9697 	 55.8651
| 11> C 	 30.3641 	 31.3111 	 55.5611
| 12> H 	 32.3818 	 31.7922 	 55.9767
| 13> C 	 33.3721 	 29.0183 	 56.3101
| 14> H 	 33.9994 	 29.8328 	 55.8434
| 15> H 	 33.5365 	 28.2101 	 55.5742
| 16> C 	 33.6662 	 28.646 	 57.7727
| 17> H 	 33.5166 	 29.5229 	 58.37
| 18> H 	 33.018 	 27.8164 	 57.8733
| 19> C 	 35.1658 	 28.4021 	 57.8002
| 20> H 	 35.5458 	 27.7536 	 56.9787
| 21> H 	 35.7592 	 29.2953 	 57.7153
| 22> H 	 35.4223 	 27.8646 	 58.749
| 23> S 	 28.6754 	 33.068 	 54.1091
| 24> C 	 28.2613 	 34.6242 	 54.8626
| 25> C 	 28.8255 	 34.7557 	 56.1325
| 26> C 	 29.7782 	 33.7097 	 56.4424
| 27> C 	 29.7685 	 32.643 	 55.4508
| 28> H 	 28.7347 	 35.6586 	 56.6611
| 29> C 	 30.5839 	 33.7456 	 57.6816
| 30> H 	 30.8055 	 34.7633 	 57.8778
| 31> H 	 31.5786 	 33.2755 	 57.5352
| 32> C 	 29.779 	 32.9464 	 58.7902
| 33> H 	 29.6081 	 31.9352 	 58.4488
| 34> H 	 28.8014 	 33.4799 	 58.9409
| 35> C 	 30.4835 	 33.0817 	 60.1378
| 36> H 	 29.845 	 32.671 	 60.9346
| 37> H 	 30.6777 	 34.0932 	 60.4652
| 38> H 	 31.3651 	 32.4755 	 60.2219
| 39> H 	 30.8431 	 27.7375 	 55.7869
| 40> H 	 27.386 	 35.2056 	 54.6057
| 41> *
| 42>
| 43>                          ****END OF INPUT****

CARTESIAN COORDINATES (ANGSTROEM)
---------------------------------
  S     29.548800   29.762900   55.230700
  C     30.891700   28.791600   55.706300
  C     31.985100   29.574500   56.015900
  C     31.648900   30.969700   55.865100
  C     30.364100   31.311100   55.561100
  H     32.381800   31.792200   55.976700
  C     33.372100   29.018300   56.310100
  H     33.999400   29.832800   55.843400
  H     33.536500   28.210100   55.574200
  C     33.666200   28.646000   57.772700
  H     33.516600   29.522900   58.370000
  H     33.018000   27.816400   57.873300
  C     35.165800   28.402100   57.800200
  H     35.545800   27.753600   56.978700
  H     35.759200   29.295300   57.715300
  H     35.422300   27.864600   58.749000
  S     28.675400   33.068000   54.109100
  C     28.261300   34.624200   54.862600
  C     28.825500   34.755700   56.132500
  C     29.778200   33.709700   56.442400
  C     29.768500   32.643000   55.450800
  H     28.734700   35.658600   56.661100
  C     30.583900   33.745600   57.681600
  H     30.805500   34.763300   57.877800
  H     31.578600   33.275500   57.535200
  C     29.779000   32.946400   58.790200
  H     29.608100   31.935200   58.448800
  H     28.801400   33.479900   58.940900
  C     30.483500   33.081700   60.137800
  H     29.845000   32.671000   60.934600
  H     30.677700   34.093200   60.465200
  H     31.365100   32.475500   60.221900
  H     30.843100   27.737500   55.786900
  H     27.386000   35.205600   54.605700

 Total Charge           Charge          ....    0
 Multiplicity           Mult            ....    1
 Number of Electrons    NEL             ....  134
 Basis Dimension        Dim             ....  322

ORBITAL ENERGIES
----------------

  NO   OCC          E(Eh)            E(eV)
   0   2.0000     -88.969630     -2420.9867
   1   2.0000     -88.961870     -2420.7756
   2   2.0000     -10.336456      -281.2693
   3   2.0000     -10.331501      -281.1344
   4   2.0000     -10.321194      -280.8540
   5   2.0000     -10.310809      -280.5714
   6   2.0000     -10.310789      -280.5708
   7   2.0000     -10.299362      -280.2599
   8   2.0000     -10.295728      -280.1610
   9   2.0000     -10.295501      -280.1548
  10   2.0000     -10.294372      -280.1241
  11   2.0000     -10.291555      -280.0475
  12   2.0000     -10.289464      -279.9905
  13   2.0000     -10.287901      -279.9480
  14   2.0000     -10.282663      -279.8055
  15   2.0000     -10.273474      -279.5554
  16   2.0000      -8.082979      -219.9490
  17   2.0000      -8.076726      -219.7789
  18   2.0000      -6.041543      -164.3988
  19   2.0000      -6.037606      -164.2916
  20   2.0000      -6.035331      -164.2297
  21   2.0000      -6.033844      -164.1893
  22   2.0000      -6.031127      -164.1153
  23   2.0000      -6.027448      -164.0152
  24   2.0000      -1.000729       -27.2312
  25   2.0000      -0.976997       -26.5854
  26   2.0000      -0.916422       -24.9371
  27   2.0000      -0.906811       -24.6756
  28   2.0000      -0.870766       -23.6947
  29   2.0000      -0.849380       -23.1128
  30   2.0000      -0.844346       -22.9758
  31   2.0000      -0.816411       -22.2157
  32   2.0000      -0.777625       -21.1603
  33   2.0000      -0.763596       -20.7785
  34   2.0000      -0.708550       -19.2806
  35   2.0000      -0.706697       -19.2302
  36   2.0000      -0.693810       -18.8795
  37   2.0000      -0.660421       -17.9710
  38   2.0000      -0.643202       -17.5024
  39   2.0000      -0.619370       -16.8539
  40   2.0000      -0.591112       -16.0850
  41   2.0000      -0.576393       -15.6845
  42   2.0000      -0.568057       -15.4576
  43   2.0000      -0.561649       -15.2832
  44   2.0000      -0.525891       -14.3102
  45   2.0000      -0.520342       -14.1592
  46   2.0000      -0.519458       -14.1352
  47   2.0000      -0.507382       -13.8066
  48   2.0000      -0.505860       -13.7651
  49   2.0000      -0.501283       -13.6406
  50   2.0000      -0.494038       -13.4435
  51   2.0000      -0.480980       -13.0881
  52   2.0000      -0.466518       -12.6946
  53   2.0000      -0.463740       -12.6190
  54   2.0000      -0.457998       -12.4628
  55   2.0000      -0.455352       -12.3908
  56   2.0000      -0.443676       -12.0730
  57   2.0000      -0.438911       -11.9434
  58   2.0000      -0.431799       -11.7499
  59   2.0000      -0.423620       -11.5273
  60   2.0000      -0.421090       -11.4584
  61   2.0000      -0.412837       -11.2339
  62   2.0000      -0.406677       -11.0662
  63   2.0000      -0.349803        -9.5186
  64   2.0000      -0.330337        -8.9889
  65   2.0000      -0.324825        -8.8389
  66   2.0000      -0.286087        -7.7848
  67   0.0000       0.021032         0.5723
  68   0.0000       0.068202         1.8559
  69   0.0000       0.110647         3.0109
  70   0.0000       0.119700         3.2572
  71   0.0000       0.126519         3.4428

MULLIKEN ATOMIC CHARGES
-----------------------
   0 S :    0.099430
   1 C :   -0.110171
   2 C :   -0.083764
   3 C :   -0.000877
   4 C :   -0.137880
   5 H :    0.021975
   6 C :   -0.034222
   7 H :    0.025786
   8 H :    0.034777
   9 C :    0.029558
  10 H :    0.034179
  11 H :    0.027851
  12 C :   -0.061891
  13 H :    0.027410
  14 H :    0.033212
  15 H :    0.038240
  16 S :    0.102699
  17 C :   -0.087179
  18 C :   -0.023023
  19 C :   -0.065266
  20 C :   -0.154568
  21 H :    0.013535
  22 C :    0.077590
  23 H :    0.012882
  24 H :    0.019977
  25 C :   -0.089851
  26 H :    0.050682
  27 H :    0.035837
  28 C :   -0.018809
  29 H :    0.025193
  30 H :    0.026927
  31 H :    0.023416
  32 H :    0.037867
  33 H :    0.068476
Sum of atomic charges:    0.0000000

LOEWDIN ATOMIC CHARGES
----------------------
   0 S :    0.396601
   1 C :   -0.193775
   2 C :   -0.073963
   3 C :   -0.071652
   4 C :   -0.192376
   5 H :    0.030982
   6 C :   -0.040730
   7 H :    0.033424
   8 H :    0.032152
   9 C :   -0.027127
  10 H :    0.030259
  11 H :    0.024928
  12 C :   -0.067556
  13 H :    0.026106
  14 H :    0.024901
  15 H :    0.027834
  16 S :    0.390329
  17 C :   -0.181110
  18 C :   -0.064432
  19 C :   -0.039335
  20 C :   -0.200151
  21 H :    0.025266
  22 C :   -0.035506
  23 H :    0.024692
  24 H :    0.031210
  25 C :   -0.026613
  26 H :    0.029705
  27 H :    0.030621
  28 C :   -0.069976
  29 H :    0.027727
  30 H :    0.023562
  31 H :    0.020126
  32 H :    0.021807
  33 H :    0.032068

  Mayer bond orders larger than 0.100000
B(  0-S ,  1-C ) :   1.1544 B(  0-S ,  4-C ) :   1.1223 B(  1-C ,  2-C ) :   1.5928
B(  1-C , 32-H ) :   0.9747 B(  2-C ,  3-C ) :   1.2552 B(  2-C ,  6-C ) :   0.9982
B(  3-C ,  4-C ) :   1.5825 B(  3-C ,  5-H ) :   0.9834 B(  4-C , 20-C ) :   1.0797
B(  6-C ,  7-H ) :   0.9486 B(  6-C ,  8-H ) :   0.9485 B(  6-C ,  9-C ) :   1.0418
B(  9-C , 10-H ) :   0.9543 B(  9-C , 11-H ) :   0.9554 B(  9-C , 12-C ) :   1.0815
B( 12-C , 13-H ) :   0.9716 B( 12-C , 14-H ) :   0.9758 B( 12-C , 15-H ) :   0.9734
B( 16-S , 17-C ) :   1.1546 B( 16-S , 20-C ) :   1.1367 B( 17-C , 18-C ) :   1.6079
B( 17-C , 20-C ) :   0.1017 B( 17-C , 33-H ) :   0.9588 B( 18-C , 19-C ) :   1.2739
B( 18-C , 21-H ) :   0.9842 B( 19-C , 20-C ) :   1.5298 B( 19-C , 22-C ) :   1.0629
B( 22-C , 23-H ) :   0.9310 B( 22-C , 24-H ) :   0.9318 B( 22-C , 25-C ) :   1.0430
B( 25-C , 26-H ) :   0.9585 B( 25-C , 27-H ) :   0.9592 B( 25-C , 28-C ) :   1.0833
B( 28-C , 29-H ) :   0.9712 B( 28-C , 30-H ) :   0.9732 B( 28-C , 31-H ) :   0.9723

Dispersion correction           -0.014137905
FINAL SINGLE POINT ENERGY     -1339.864260920317

DIPOLE MOMENT
-------------
                                X             Y             Z
Electronic contribution:    -20.24483       3.84637     -23.29480
Nuclear contribution   :     20.68543      -3.76341      23.90876
                        -----------------------------------------
Total Dipole Moment    :      0.44059       0.08297       0.61396
                        -----------------------------------------
Magnitude (a.u.)       :      0.76023
Magnitude (Debye)      :      1.93235

Rotational constants in cm-1:     0.019137     0.008408     0.006522
Rotational constants in MHz :   573.723415   252.066717   195.533724

                             ****ORCA TERMINATED NORMALLY****
TOTAL RUN TIME: 0 days 0 hours 0 minutes 35 seconds 263 msec
