                         Program Version 4.2.1 -  RELEASE  -
|  1> ! wB97X-D3 SP def2-SVP
|  2> %pal
|  3> nprocs 16
|  4> end
|  5>
|  6> * xyz 0 1
|  7> S 	 36.3835 	 30.4083 	 57.2099
|  8> C 	 36.8717 	 31.921 	 56.4612
|  9> C 	 36.1828 	 32.1471 	 55.2901
| 10> C 	 35.2279 	 31.1268 	 55.0156
| 11> C 	 35.2148 	 30.0357 	 55.899
| 12> H 	 34.5489 	 31.0832 	 54.1585
| 13> C 	 36.2038 	 33.4093 	 54.4316
| 14> H 	 36.6203 	 34.0935 	 55.163
| 15> H 	 35.2414 	 33.8294 	 54.3199
| 16> C 	 37.0509 	 33.3681 	 53.1959
| 17> H 	 36.8331 	 32.435 	 52.7159
| 18> H 	 36.7594 	 34.1889 	 52.4868
| 19> C 	 38.5278 	 33.485 	 53.512
| 20> H 	 39.1334 	 33.3768 	 52.5888
| 21> H 	 38.769 	 34.5247 	 53.9402
| 22> H 	 38.7969 	 32.8387 	 54.3764
| 23> S 	 35.4673 	 27.329 	 56.2401
| 24> C 	 34.2301 	 26.3097 	 55.5924
| 25> C 	 33.1469 	 27.0119 	 55.0971
| 26> C 	 33.2802 	 28.4061 	 55.2653
| 27> C 	 34.5673 	 28.7786 	 55.7297
| 28> H 	 32.4506 	 26.4735 	 54.5939
| 29> C 	 32.2014 	 29.3453 	 54.7754
| 30> H 	 32.3549 	 29.2768 	 53.7578
| 31> H 	 32.5328 	 30.3571 	 55.003
| 32> C 	 30.7385 	 29.1309 	 55.1243
| 33> H 	 30.6588 	 28.9994 	 56.1568
| 34> H 	 30.4568 	 28.1023 	 54.8053
| 35> C 	 29.8113 	 30.232 	 54.7037
| 36> H 	 28.8084 	 29.8965 	 54.7661
| 37> H 	 29.9624 	 30.4063 	 53.5825
| 38> H 	 29.9686 	 31.1738 	 55.237
| 39> H 	 37.5343 	 32.6347 	 56.9851
| 40> H 	 34.3365 	 25.2294 	 55.5462
| 41> *
| 42>
| 43>                          ****END OF INPUT****

CARTESIAN COORDINATES (ANGSTROEM)
---------------------------------
  S     36.383500   30.408300   57.209900
  C     36.871700   31.921000   56.461200
  C     36.182800   32.147100   55.290100
  C     35.227900   31.126800   55.015600
  C     35.214800   30.035700   55.899000
  H     34.548900   31.083200   54.158500
  C     36.203800   33.409300   54.431600
  H     36.620300   34.093500   55.163000
  H     35.241400   33.829400   54.319900
  C     37.050900   33.368100   53.195900
  H     36.833100   32.435000   52.715900
  H     36.759400   34.188900   52.486800
  C     38.527800   33.485000   53.512000
  H     39.133400   33.376800   52.588800
  H     38.769000   34.524700   53.940200
  H     38.796900   32.838700   54.376400
  S     35.467300   27.329000   56.240100
  C     34.230100   26.309700   55.592400
  C     33.146900   27.011900   55.097100
  C     33.280200   28.406100   55.265300
  C     34.567300   28.778600   55.729700
  H     32.450600   26.473500   54.593900
  C     32.201400   29.345300   54.775400
  H     32.354900   29.276800   53.757800
  H     32.532800   30.357100   55.003000
  C     30.738500   29.130900   55.124300
  H     30.658800   28.999400   56.156800
  H     30.456800   28.102300   54.805300
  C     29.811300   30.232000   54.703700
  H     28.808400   29.896500   54.766100
  H     29.962400   30.406300   53.582500
  H     29.968600   31.173800   55.237000
  H     37.534300   32.634700   56.985100
  H     34.336500   25.229400   55.546200

 Total Charge           Charge          ....    0
 Multiplicity           Mult            ....    1
 Number of Electrons    NEL             ....  134
 Basis Dimension        Dim             ....  322

ORBITAL ENERGIES
----------------

  NO   OCC          E(Eh)            E(eV)
   0   2.0000     -88.966327     -2420.8968
   1   2.0000     -88.965984     -2420.8875
   2   2.0000     -10.333708      -281.1945
   3   2.0000     -10.329806      -281.0883
   4   2.0000     -10.320058      -280.8231
   5   2.0000     -10.316672      -280.7309
   6   2.0000     -10.308006      -280.4951
   7   2.0000     -10.302342      -280.3410
   8   2.0000     -10.295086      -280.1435
   9   2.0000     -10.286367      -279.9063
  10   2.0000     -10.284624      -279.8588
  11   2.0000     -10.284487      -279.8551
  12   2.0000     -10.283936      -279.8401
  13   2.0000     -10.283516      -279.8287
  14   2.0000     -10.283087      -279.8170
  15   2.0000     -10.282695      -279.8064
  16   2.0000      -8.081035      -219.8961
  17   2.0000      -8.079937      -219.8663
  18   2.0000      -6.039497      -164.3431
  19   2.0000      -6.038541      -164.3170
  20   2.0000      -6.035569      -164.2362
  21   2.0000      -6.034552      -164.2085
  22   2.0000      -6.031823      -164.1342
  23   2.0000      -6.030636      -164.1019
  24   2.0000      -1.004222       -27.3263
  25   2.0000      -0.982076       -26.7236
  26   2.0000      -0.917645       -24.9704
  27   2.0000      -0.915495       -24.9119
  28   2.0000      -0.872980       -23.7550
  29   2.0000      -0.859193       -23.3798
  30   2.0000      -0.843140       -22.9430
  31   2.0000      -0.813694       -22.1417
  32   2.0000      -0.785306       -21.3693
  33   2.0000      -0.772636       -21.0245
  34   2.0000      -0.714714       -19.4484
  35   2.0000      -0.704124       -19.1602
  36   2.0000      -0.694125       -18.8881
  37   2.0000      -0.663056       -18.0427
  38   2.0000      -0.639853       -17.4113
  39   2.0000      -0.621199       -16.9037
  40   2.0000      -0.599125       -16.3030
  41   2.0000      -0.575884       -15.6706
  42   2.0000      -0.568529       -15.4704
  43   2.0000      -0.554858       -15.0985
  44   2.0000      -0.533565       -14.5190
  45   2.0000      -0.531713       -14.4686
  46   2.0000      -0.524388       -14.2693
  47   2.0000      -0.515317       -14.0225
  48   2.0000      -0.503280       -13.6950
  49   2.0000      -0.497923       -13.5492
  50   2.0000      -0.489826       -13.3288
  51   2.0000      -0.483915       -13.1680
  52   2.0000      -0.478468       -13.0198
  53   2.0000      -0.464309       -12.6345
  54   2.0000      -0.457009       -12.4358
  55   2.0000      -0.451499       -12.2859
  56   2.0000      -0.445083       -12.1113
  57   2.0000      -0.433526       -11.7968
  58   2.0000      -0.433109       -11.7855
  59   2.0000      -0.425523       -11.5791
  60   2.0000      -0.418003       -11.3745
  61   2.0000      -0.413506       -11.2521
  62   2.0000      -0.410128       -11.1601
  63   2.0000      -0.356922        -9.7123
  64   2.0000      -0.332651        -9.0519
  65   2.0000      -0.331502        -9.0206
  66   2.0000      -0.280022        -7.6198
  67   0.0000       0.020129         0.5477
  68   0.0000       0.070973         1.9313
  69   0.0000       0.105343         2.8665
  70   0.0000       0.119030         3.2390
  71   0.0000       0.139283         3.7901

MULLIKEN ATOMIC CHARGES
-----------------------
   0 S :    0.094730
   1 C :   -0.134881
   2 C :   -0.097720
   3 C :    0.011464
   4 C :   -0.144929
   5 H :    0.016337
   6 C :    0.073277
   7 H :   -0.001348
   8 H :    0.021212
   9 C :   -0.024640
  10 H :    0.025037
  11 H :    0.035861
  12 C :   -0.086886
  13 H :    0.048937
  14 H :    0.026421
  15 H :    0.040883
  16 S :    0.106910
  17 C :   -0.094668
  18 C :   -0.009456
  19 C :   -0.028533
  20 C :   -0.150564
  21 H :   -0.016466
  22 C :    0.078277
  23 H :    0.018413
  24 H :    0.009306
  25 C :   -0.041525
  26 H :    0.012584
  27 H :    0.018546
  28 C :   -0.037383
  29 H :    0.030109
  30 H :    0.028500
  31 H :    0.047403
  32 H :    0.065622
  33 H :    0.059169
Sum of atomic charges:   -0.0000000

LOEWDIN ATOMIC CHARGES
----------------------
   0 S :    0.379954
   1 C :   -0.197087
   2 C :   -0.066131
   3 C :   -0.065681
   4 C :   -0.180435
   5 H :    0.029920
   6 C :   -0.031486
   7 H :    0.027762
   8 H :    0.027498
   9 C :   -0.044059
  10 H :    0.021687
  11 H :    0.030987
  12 C :   -0.073473
  13 H :    0.030288
  14 H :    0.028417
  15 H :    0.028359
  16 S :    0.404827
  17 C :   -0.180847
  18 C :   -0.065619
  19 C :   -0.040859
  20 C :   -0.193950
  21 H :    0.015678
  22 C :   -0.032091
  23 H :    0.024819
  24 H :    0.027271
  25 C :   -0.041572
  26 H :    0.018793
  27 H :    0.026163
  28 C :   -0.060378
  29 H :    0.024613
  30 H :    0.031697
  31 H :    0.030523
  32 H :    0.035413
  33 H :    0.029001

  Mayer bond orders larger than 0.100000
B(  0-S ,  1-C ) :   1.1341 B(  0-S ,  4-C ) :   1.1300 B(  1-C ,  2-C ) :   1.6070
B(  1-C , 32-H ) :   0.9604 B(  2-C ,  3-C ) :   1.2572 B(  2-C ,  6-C ) :   1.0050
B(  3-C ,  4-C ) :   1.5510 B(  3-C ,  5-H ) :   0.9859 B(  4-C , 20-C ) :   1.1150
B(  6-C ,  7-H ) :   0.9394 B(  6-C ,  8-H ) :   0.9446 B(  6-C ,  9-C ) :   1.0586
B(  9-C , 10-H ) :   0.9545 B(  9-C , 11-H ) :   0.9517 B(  9-C , 12-C ) :   1.0805
B( 12-C , 13-H ) :   0.9725 B( 12-C , 14-H ) :   0.9712 B( 12-C , 15-H ) :   0.9745
B( 16-S , 17-C ) :   1.1691 B( 16-S , 20-C ) :   1.1273 B( 17-C , 18-C ) :   1.5985
B( 17-C , 20-C ) :   0.1030 B( 17-C , 33-H ) :   0.9652 B( 18-C , 19-C ) :   1.2322
B( 18-C , 21-H ) :   1.0101 B( 19-C , 20-C ) :   1.5518 B( 19-C , 22-C ) :   1.0397
B( 22-C , 23-H ) :   0.9251 B( 22-C , 24-H ) :   0.9254 B( 22-C , 25-C ) :   1.0611
B( 25-C , 26-H ) :   0.9506 B( 25-C , 27-H ) :   0.9457 B( 25-C , 28-C ) :   1.0938
B( 28-C , 29-H ) :   0.9708 B( 28-C , 30-H ) :   0.9739 B( 28-C , 31-H ) :   0.9725

Dispersion correction           -0.013594280
FINAL SINGLE POINT ENERGY     -1339.869482868127

DIPOLE MOMENT
-------------
                                X             Y             Z
Electronic contribution:     10.49166     -17.37215      15.66050
Nuclear contribution   :    -10.98639      17.60942     -16.15338
                        -----------------------------------------
Total Dipole Moment    :     -0.49473       0.23727      -0.49288
                        -----------------------------------------
Magnitude (a.u.)       :      0.73756
Magnitude (Debye)      :      1.87472

Rotational constants in cm-1:     0.017827     0.008099     0.006361
Rotational constants in MHz :   534.438751   242.807865   190.705001

                             ****ORCA TERMINATED NORMALLY****
TOTAL RUN TIME: 0 days 0 hours 0 minutes 34 seconds 696 msec
