                         Program Version 4.2.1 -  RELEASE  -
|  1> ! wB97X-D3 SP def2-SVP
|  2> %pal
|  3> nprocs 16
|  4> end
|  5>
|  6> * xyz 0 1
|  7> S 	 52.8572 	 22.0476 	 90.7836
|  8> C 	 51.2313 	 22.2321 	 90.1593
|  9> C 	 50.5269 	 21.0342 	 90.1496
| 10> C 	 51.4033 	 19.9552 	 90.4919
| 11> C 	 52.6892 	 20.3338 	 90.8983
| 12> H 	 51.1412 	 18.8898 	 90.61
| 13> C 	 49.0665 	 20.8837 	 89.6912
| 14> H 	 48.844 	 19.8442 	 89.7664
| 15> H 	 48.8801 	 21.0389 	 88.6337
| 16> C 	 48.0703 	 21.7436 	 90.4535
| 17> H 	 48.2367 	 21.6255 	 91.4886
| 18> H 	 48.3598 	 22.8074 	 90.306
| 19> C 	 46.6353 	 21.5419 	 89.8632
| 20> H 	 45.8373 	 22.0413 	 90.5189
| 21> H 	 46.4358 	 21.9488 	 88.8704
| 22> H 	 46.3517 	 20.5227 	 89.8339
| 23> S 	 53.9874 	 19.9743 	 93.1318
| 24> C 	 54.9903 	 18.5651 	 93.4257
| 25> C 	 55.1777 	 17.8893 	 92.2715
| 26> C 	 54.3875 	 18.3701 	 91.2061
| 27> C 	 53.6978 	 19.5065 	 91.5227
| 28> H 	 55.7894 	 16.9724 	 92.2522
| 29> C 	 54.2338 	 17.6557 	 89.8251
| 30> H 	 53.2138 	 17.8294 	 89.4492
| 31> H 	 54.3346 	 16.5877 	 89.8952
| 32> C 	 55.2782 	 18.0739 	 88.7618
| 33> H 	 56.2275 	 17.9178 	 89.16
| 34> H 	 55.2717 	 19.1242 	 88.3705
| 35> C 	 55.2082 	 17.2517 	 87.4827
| 36> H 	 54.9373 	 16.1859 	 87.7108
| 37> H 	 56.0337 	 17.378 	 86.8818
| 38> H 	 54.3463 	 17.5427 	 86.8646
| 39> H 	 50.7539 	 23.1712 	 89.7992
| 40> H 	 55.4162 	 18.4196 	 94.4066
| 41> *
| 42>
| 43>                          ****END OF INPUT****

CARTESIAN COORDINATES (ANGSTROEM)
---------------------------------
  S     52.857200   22.047600   90.783600
  C     51.231300   22.232100   90.159300
  C     50.526900   21.034200   90.149600
  C     51.403300   19.955200   90.491900
  C     52.689200   20.333800   90.898300
  H     51.141200   18.889800   90.610000
  C     49.066500   20.883700   89.691200
  H     48.844000   19.844200   89.766400
  H     48.880100   21.038900   88.633700
  C     48.070300   21.743600   90.453500
  H     48.236700   21.625500   91.488600
  H     48.359800   22.807400   90.306000
  C     46.635300   21.541900   89.863200
  H     45.837300   22.041300   90.518900
  H     46.435800   21.948800   88.870400
  H     46.351700   20.522700   89.833900
  S     53.987400   19.974300   93.131800
  C     54.990300   18.565100   93.425700
  C     55.177700   17.889300   92.271500
  C     54.387500   18.370100   91.206100
  C     53.697800   19.506500   91.522700
  H     55.789400   16.972400   92.252200
  C     54.233800   17.655700   89.825100
  H     53.213800   17.829400   89.449200
  H     54.334600   16.587700   89.895200
  C     55.278200   18.073900   88.761800
  H     56.227500   17.917800   89.160000
  H     55.271700   19.124200   88.370500
  C     55.208200   17.251700   87.482700
  H     54.937300   16.185900   87.710800
  H     56.033700   17.378000   86.881800
  H     54.346300   17.542700   86.864600
  H     50.753900   23.171200   89.799200
  H     55.416200   18.419600   94.406600

 Total Charge           Charge          ....    0
 Multiplicity           Mult            ....    1
 Number of Electrons    NEL             ....  134
 Basis Dimension        Dim             ....  322

ORBITAL ENERGIES
----------------

  NO   OCC          E(Eh)            E(eV)
   0   2.0000     -88.969818     -2420.9918
   1   2.0000     -88.959541     -2420.7122
   2   2.0000     -10.328061      -281.0408
   3   2.0000     -10.320158      -280.8258
   4   2.0000     -10.316592      -280.7287
   5   2.0000     -10.314229      -280.6644
   6   2.0000     -10.303962      -280.3851
   7   2.0000     -10.302354      -280.3413
   8   2.0000     -10.296981      -280.1951
   9   2.0000     -10.294674      -280.1323
  10   2.0000     -10.294103      -280.1168
  11   2.0000     -10.289550      -279.9929
  12   2.0000     -10.288792      -279.9723
  13   2.0000     -10.285340      -279.8783
  14   2.0000     -10.279005      -279.7059
  15   2.0000     -10.270478      -279.4739
  16   2.0000      -8.084563      -219.9921
  17   2.0000      -8.075879      -219.7559
  18   2.0000      -6.042999      -164.4384
  19   2.0000      -6.038974      -164.3288
  20   2.0000      -6.035486      -164.2339
  21   2.0000      -6.034219      -164.1995
  22   2.0000      -6.030110      -164.0876
  23   2.0000      -6.026733      -163.9957
  24   2.0000      -1.016306       -27.6551
  25   2.0000      -0.988104       -26.8877
  26   2.0000      -0.912987       -24.8436
  27   2.0000      -0.904654       -24.6169
  28   2.0000      -0.873931       -23.7809
  29   2.0000      -0.850964       -23.1559
  30   2.0000      -0.845097       -22.9963
  31   2.0000      -0.812681       -22.1142
  32   2.0000      -0.781894       -21.2764
  33   2.0000      -0.772761       -21.0279
  34   2.0000      -0.712562       -19.3898
  35   2.0000      -0.700871       -19.0717
  36   2.0000      -0.693619       -18.8743
  37   2.0000      -0.668002       -18.1773
  38   2.0000      -0.640029       -17.4161
  39   2.0000      -0.614982       -16.7345
  40   2.0000      -0.600594       -16.3430
  41   2.0000      -0.570167       -15.5150
  42   2.0000      -0.561416       -15.2769
  43   2.0000      -0.557497       -15.1703
  44   2.0000      -0.532263       -14.4836
  45   2.0000      -0.521672       -14.1954
  46   2.0000      -0.516053       -14.0425
  47   2.0000      -0.513724       -13.9791
  48   2.0000      -0.502367       -13.6701
  49   2.0000      -0.500678       -13.6241
  50   2.0000      -0.489330       -13.3154
  51   2.0000      -0.481314       -13.0972
  52   2.0000      -0.473727       -12.8908
  53   2.0000      -0.460356       -12.5269
  54   2.0000      -0.459677       -12.5085
  55   2.0000      -0.452257       -12.3065
  56   2.0000      -0.444711       -12.1012
  57   2.0000      -0.439283       -11.9535
  58   2.0000      -0.433844       -11.8055
  59   2.0000      -0.428861       -11.6699
  60   2.0000      -0.419551       -11.4166
  61   2.0000      -0.413455       -11.2507
  62   2.0000      -0.410830       -11.1792
  63   2.0000      -0.349289        -9.5046
  64   2.0000      -0.333027        -9.0621
  65   2.0000      -0.328763        -8.9461
  66   2.0000      -0.295623        -8.0443
  67   0.0000       0.039112         1.0643
  68   0.0000       0.063987         1.7412
  69   0.0000       0.117585         3.1996
  70   0.0000       0.122439         3.3317
  71   0.0000       0.136031         3.7016

MULLIKEN ATOMIC CHARGES
-----------------------
   0 S :    0.128872
   1 C :   -0.140240
   2 C :   -0.085920
   3 C :    0.039235
   4 C :   -0.169810
   5 H :    0.021914
   6 C :    0.084672
   7 H :    0.001779
   8 H :    0.030444
   9 C :   -0.067330
  10 H :    0.028261
  11 H :    0.026130
  12 C :   -0.060163
  13 H :    0.040472
  14 H :    0.037872
  15 H :    0.023966
  16 S :    0.097273
  17 C :   -0.100551
  18 C :   -0.028167
  19 C :   -0.028640
  20 C :   -0.159490
  21 H :    0.028304
  22 C :    0.079069
  23 H :    0.022414
  24 H :    0.011033
  25 C :   -0.058173
  26 H :    0.008804
  27 H :    0.039060
  28 C :   -0.037656
  29 H :    0.019521
  30 H :    0.024515
  31 H :    0.022140
  32 H :    0.062444
  33 H :    0.057946
Sum of atomic charges:    0.0000000

LOEWDIN ATOMIC CHARGES
----------------------
   0 S :    0.424524
   1 C :   -0.204822
   2 C :   -0.063827
   3 C :   -0.066643
   4 C :   -0.211532
   5 H :    0.033627
   6 C :   -0.031607
   7 H :    0.023059
   8 H :    0.031833
   9 C :   -0.036194
  10 H :    0.021137
  11 H :    0.025720
  12 C :   -0.069151
  13 H :    0.035914
  14 H :    0.027854
  15 H :    0.017568
  16 S :    0.423913
  17 C :   -0.178304
  18 C :   -0.074435
  19 C :   -0.060348
  20 C :   -0.210467
  21 H :    0.038283
  22 C :   -0.022613
  23 H :    0.030092
  24 H :    0.025426
  25 C :   -0.038674
  26 H :    0.012646
  27 H :    0.032666
  28 C :   -0.063937
  29 H :    0.024550
  30 H :    0.015232
  31 H :    0.025119
  32 H :    0.036102
  33 H :    0.027288

  Mayer bond orders larger than 0.100000
B(  0-S ,  1-C ) :   1.1476 B(  0-S ,  4-C ) :   1.1633 B(  1-C ,  2-C ) :   1.5933
B(  1-C ,  4-C ) :   0.1033 B(  1-C , 32-H ) :   0.9636 B(  2-C ,  3-C ) :   1.2654
B(  2-C ,  6-C ) :   1.0096 B(  3-C ,  4-C ) :   1.5650 B(  3-C ,  5-H ) :   0.9825
B(  4-C , 20-C ) :   1.0053 B(  6-C ,  7-H ) :   0.9396 B(  6-C ,  8-H ) :   0.9421
B(  6-C ,  9-C ) :   1.0540 B(  9-C , 10-H ) :   0.9623 B(  9-C , 11-H ) :   0.9559
B(  9-C , 12-C ) :   1.0664 B( 12-C , 13-H ) :   0.9750 B( 12-C , 14-H ) :   0.9749
B( 12-C , 15-H ) :   0.9782 B( 16-S , 17-C ) :   1.1590 B( 16-S , 20-C ) :   1.1655
B( 17-C , 18-C ) :   1.5951 B( 17-C , 20-C ) :   0.1011 B( 17-C , 33-H ) :   0.9745
B( 18-C , 19-C ) :   1.2447 B( 18-C , 21-H ) :   0.9894 B( 19-C , 20-C ) :   1.6174
B( 19-C , 22-C ) :   1.0352 B( 22-C , 23-H ) :   0.9395 B( 22-C , 24-H ) :   0.9343
B( 22-C , 25-C ) :   1.0665 B( 25-C , 26-H ) :   0.9559 B( 25-C , 27-H ) :   0.9552
B( 25-C , 28-C ) :   1.0889 B( 28-C , 29-H ) :   0.9706 B( 28-C , 30-H ) :   0.9739
B( 28-C , 31-H ) :   0.9737

Dispersion correction           -0.013337535
FINAL SINGLE POINT ENERGY     -1339.877081209083

DIPOLE MOMENT
-------------
                                X             Y             Z
Electronic contribution:     14.47891       8.88368      17.83743
Nuclear contribution   :    -14.78625      -9.24569     -18.06671
                        -----------------------------------------
Total Dipole Moment    :     -0.30734      -0.36202      -0.22928
                        -----------------------------------------
Magnitude (a.u.)       :      0.52734
Magnitude (Debye)      :      1.34038

Rotational constants in cm-1:     0.019469     0.007375     0.006228
Rotational constants in MHz :   583.658172   221.093175   186.700500

                             ****ORCA TERMINATED NORMALLY****
TOTAL RUN TIME: 0 days 0 hours 0 minutes 28 seconds 465 msec
