                         Program Version 4.2.1 -  RELEASE  -
|  1> ! wB97X-D3 SP def2-SVP
|  2> %pal
|  3> nprocs 16
|  4> end
|  5>
|  6> * xyz 0 1
|  7> S 	 43.6983 	 11.0105 	 49.7681
|  8> C 	 44.9511 	 11.7036 	 50.7501
|  9> C 	 44.5864 	 12.9519 	 51.1645
| 10> C 	 43.3472 	 13.4449 	 50.5158
| 11> C 	 42.7126 	 12.528 	 49.7723
| 12> H 	 42.8479 	 14.336 	 50.7687
| 13> C 	 45.2905 	 13.7444 	 52.2647
| 14> H 	 44.747 	 14.6886 	 52.2134
| 15> H 	 46.3276 	 13.8925 	 52.0314
| 16> C 	 45.2177 	 13.0885 	 53.6353
| 17> H 	 44.2184 	 12.7404 	 53.8426
| 18> H 	 45.9271 	 12.2993 	 53.4711
| 19> C 	 45.8708 	 13.9472 	 54.7105
| 20> H 	 45.8012 	 13.4331 	 55.6316
| 21> H 	 46.9422 	 14.2509 	 54.5455
| 22> H 	 45.2776 	 14.8566 	 54.7479
| 23> S 	 41.2437 	 12.7939 	 47.5255
| 24> C 	 39.4857 	 13.0283 	 47.6144
| 25> C 	 39.0737 	 12.909 	 48.9356
| 26> C 	 40.1047 	 12.5987 	 49.9183
| 27> C 	 41.3771 	 12.6197 	 49.2936
| 28> H 	 37.9597 	 13.0832 	 49.1431
| 29> C 	 39.8509 	 12.5406 	 51.3874
| 30> H 	 39.8611 	 13.4932 	 51.7768
| 31> H 	 40.727 	 11.9646 	 51.7515
| 32> C 	 38.612 	 11.7931 	 51.9071
| 33> H 	 37.8254 	 12.4726 	 51.5324
| 34> H 	 38.7518 	 11.894 	 52.9772
| 35> C 	 38.394 	 10.3946 	 51.4404
| 36> H 	 39.1967 	 9.84063 	 51.7974
| 37> H 	 38.3882 	 10.4296 	 50.327
| 38> H 	 37.4934 	 9.9818 	 51.9514
| 39> H 	 45.8561 	 11.2929 	 51.0825
| 40> H 	 38.8179 	 13.3415 	 46.8232
| 41> *
| 42>
| 43>                          ****END OF INPUT****

CARTESIAN COORDINATES (ANGSTROEM)
---------------------------------
  S     43.698300   11.010500   49.768100
  C     44.951100   11.703600   50.750100
  C     44.586400   12.951900   51.164500
  C     43.347200   13.444900   50.515800
  C     42.712600   12.528000   49.772300
  H     42.847900   14.336000   50.768700
  C     45.290500   13.744400   52.264700
  H     44.747000   14.688600   52.213400
  H     46.327600   13.892500   52.031400
  C     45.217700   13.088500   53.635300
  H     44.218400   12.740400   53.842600
  H     45.927100   12.299300   53.471100
  C     45.870800   13.947200   54.710500
  H     45.801200   13.433100   55.631600
  H     46.942200   14.250900   54.545500
  H     45.277600   14.856600   54.747900
  S     41.243700   12.793900   47.525500
  C     39.485700   13.028300   47.614400
  C     39.073700   12.909000   48.935600
  C     40.104700   12.598700   49.918300
  C     41.377100   12.619700   49.293600
  H     37.959700   13.083200   49.143100
  C     39.850900   12.540600   51.387400
  H     39.861100   13.493200   51.776800
  H     40.727000   11.964600   51.751500
  C     38.612000   11.793100   51.907100
  H     37.825400   12.472600   51.532400
  H     38.751800   11.894000   52.977200
  C     38.394000   10.394600   51.440400
  H     39.196700    9.840630   51.797400
  H     38.388200   10.429600   50.327000
  H     37.493400    9.981800   51.951400
  H     45.856100   11.292900   51.082500
  H     38.817900   13.341500   46.823200

 Total Charge           Charge          ....    0
 Multiplicity           Mult            ....    1
 Number of Electrons    NEL             ....  134
 Basis Dimension        Dim             ....  322

ORBITAL ENERGIES
----------------

  NO   OCC          E(Eh)            E(eV)
   0   2.0000     -88.964387     -2420.8440
   1   2.0000     -88.961331     -2420.7609
   2   2.0000     -10.330060      -281.0952
   3   2.0000     -10.326208      -280.9904
   4   2.0000     -10.322235      -280.8823
   5   2.0000     -10.312623      -280.6207
   6   2.0000     -10.309118      -280.5254
   7   2.0000     -10.303673      -280.3772
   8   2.0000     -10.299337      -280.2592
   9   2.0000     -10.292509      -280.0734
  10   2.0000     -10.287062      -279.9252
  11   2.0000     -10.285063      -279.8708
  12   2.0000     -10.283834      -279.8374
  13   2.0000     -10.283133      -279.8183
  14   2.0000     -10.278939      -279.7041
  15   2.0000     -10.274371      -279.5798
  16   2.0000      -8.078310      -219.8220
  17   2.0000      -8.075580      -219.7477
  18   2.0000      -6.036934      -164.2733
  19   2.0000      -6.034365      -164.2034
  20   2.0000      -6.032860      -164.1625
  21   2.0000      -6.030165      -164.0891
  22   2.0000      -6.029048      -164.0587
  23   2.0000      -6.026026      -163.9765
  24   2.0000      -1.001855       -27.2619
  25   2.0000      -0.977095       -26.5881
  26   2.0000      -0.917787       -24.9743
  27   2.0000      -0.915651       -24.9161
  28   2.0000      -0.876770       -23.8581
  29   2.0000      -0.849422       -23.1139
  30   2.0000      -0.844222       -22.9724
  31   2.0000      -0.817856       -22.2550
  32   2.0000      -0.785794       -21.3826
  33   2.0000      -0.771152       -20.9841
  34   2.0000      -0.711835       -19.3700
  35   2.0000      -0.701042       -19.0763
  36   2.0000      -0.692169       -18.8349
  37   2.0000      -0.649197       -17.6656
  38   2.0000      -0.646702       -17.5977
  39   2.0000      -0.617027       -16.7902
  40   2.0000      -0.597442       -16.2572
  41   2.0000      -0.574125       -15.6227
  42   2.0000      -0.565532       -15.3889
  43   2.0000      -0.562615       -15.3095
  44   2.0000      -0.548229       -14.9181
  45   2.0000      -0.525802       -14.3078
  46   2.0000      -0.522642       -14.2218
  47   2.0000      -0.516577       -14.0568
  48   2.0000      -0.508515       -13.8374
  49   2.0000      -0.503785       -13.7087
  50   2.0000      -0.496007       -13.4970
  51   2.0000      -0.477170       -12.9845
  52   2.0000      -0.467616       -12.7245
  53   2.0000      -0.464638       -12.6434
  54   2.0000      -0.460987       -12.5441
  55   2.0000      -0.451609       -12.2889
  56   2.0000      -0.444104       -12.0847
  57   2.0000      -0.437978       -11.9180
  58   2.0000      -0.436920       -11.8892
  59   2.0000      -0.421935       -11.4814
  60   2.0000      -0.417817       -11.3694
  61   2.0000      -0.406255       -11.0548
  62   2.0000      -0.403019       -10.9667
  63   2.0000      -0.339284        -9.2324
  64   2.0000      -0.327900        -8.9226
  65   2.0000      -0.321238        -8.7413
  66   2.0000      -0.307133        -8.3575
  67   0.0000       0.036769         1.0005
  68   0.0000       0.053901         1.4667
  69   0.0000       0.115831         3.1519
  70   0.0000       0.120512         3.2793
  71   0.0000       0.123101         3.3498

MULLIKEN ATOMIC CHARGES
-----------------------
   0 S :    0.102242
   1 C :   -0.077621
   2 C :   -0.136606
   3 C :    0.074245
   4 C :   -0.144227
   5 H :   -0.001011
   6 C :    0.069501
   7 H :    0.010640
   8 H :    0.024214
   9 C :   -0.062637
  10 H :    0.036779
  11 H :    0.014285
  12 C :   -0.032928
  13 H :    0.031878
  14 H :    0.038909
  15 H :    0.024237
  16 S :    0.102521
  17 C :   -0.089062
  18 C :   -0.086333
  19 C :   -0.015144
  20 C :   -0.204406
  21 H :    0.050162
  22 C :    0.076709
  23 H :    0.029378
  24 H :    0.025850
  25 C :   -0.107238
  26 H :    0.024012
  27 H :    0.032185
  28 C :   -0.008335
  29 H :    0.015208
  30 H :    0.051900
  31 H :    0.043946
  32 H :    0.025930
  33 H :    0.060816
Sum of atomic charges:    0.0000000

LOEWDIN ATOMIC CHARGES
----------------------
   0 S :    0.377506
   1 C :   -0.188165
   2 C :   -0.062813
   3 C :   -0.047870
   4 C :   -0.189671
   5 H :    0.025217
   6 C :   -0.030825
   7 H :    0.023174
   8 H :    0.027352
   9 C :   -0.035352
  10 H :    0.025340
  11 H :    0.020972
  12 C :   -0.062712
  13 H :    0.021729
  14 H :    0.032962
  15 H :    0.022824
  16 S :    0.389927
  17 C :   -0.181585
  18 C :   -0.087001
  19 C :   -0.048344
  20 C :   -0.191084
  21 H :    0.042192
  22 C :   -0.031338
  23 H :    0.025334
  24 H :    0.034246
  25 C :   -0.042722
  26 H :    0.020222
  27 H :    0.026099
  28 C :   -0.060570
  29 H :    0.017272
  30 H :    0.036544
  31 H :    0.035870
  32 H :    0.022043
  33 H :    0.033229

  Mayer bond orders larger than 0.100000
B(  0-S ,  1-C ) :   1.1214 B(  0-S ,  4-C ) :   1.1034 B(  1-C ,  2-C ) :   1.6513
B(  1-C , 32-H ) :   0.9738 B(  2-C ,  3-C ) :   1.2012 B(  2-C ,  6-C ) :   1.0228
B(  3-C ,  4-C ) :   1.6345 B(  3-C ,  5-H ) :   0.9960 B(  4-C , 20-C ) :   1.0486
B(  6-C ,  7-H ) :   0.9411 B(  6-C ,  8-H ) :   0.9394 B(  6-C ,  9-C ) :   1.0624
B(  9-C , 10-H ) :   0.9595 B(  9-C , 11-H ) :   0.9512 B(  9-C , 12-C ) :   1.0869
B( 12-C , 13-H ) :   0.9734 B( 12-C , 14-H ) :   0.9715 B( 12-C , 15-H ) :   0.9755
B( 16-S , 17-C ) :   1.1424 B( 16-S , 20-C ) :   1.1424 B( 17-C , 18-C ) :   1.6412
B( 17-C , 20-C ) :   0.1031 B( 17-C , 33-H ) :   0.9663 B( 18-C , 19-C ) :   1.2026
B( 18-C , 21-H ) :   0.9696 B( 19-C , 20-C ) :   1.5849 B( 19-C , 22-C ) :   1.0427
B( 22-C , 23-H ) :   0.9365 B( 22-C , 24-H ) :   0.9227 B( 22-C , 25-C ) :   1.0737
B( 25-C , 26-H ) :   0.9510 B( 25-C , 27-H ) :   0.9540 B( 25-C , 28-C ) :   1.0863
B( 28-C , 29-H ) :   0.9720 B( 28-C , 30-H ) :   0.9672 B( 28-C , 31-H ) :   0.9697

Dispersion correction           -0.014179676
FINAL SINGLE POINT ENERGY     -1339.857449054893

DIPOLE MOMENT
-------------
                                X             Y             Z
Electronic contribution:      1.73206      -3.28122     -26.08480
Nuclear contribution   :     -1.92160       3.62511      26.86233
                        -----------------------------------------
Total Dipole Moment    :     -0.18954       0.34388       0.77753
                        -----------------------------------------
Magnitude (a.u.)       :      0.87105
Magnitude (Debye)      :      2.21403

Rotational constants in cm-1:     0.019556     0.007863     0.006579
Rotational constants in MHz :   586.272851   235.712030   197.233555

                             ****ORCA TERMINATED NORMALLY****
TOTAL RUN TIME: 0 days 0 hours 0 minutes 34 seconds 751 msec
