                         Program Version 4.2.1 -  RELEASE  -
|  1> ! wB97X-D3 SP def2-SVP
|  2> %pal
|  3> nprocs 16
|  4> end
|  5>
|  6> * xyz 0 1
|  7> S 	 43.3338 	 22.3347 	 80.3877
|  8> C 	 42.0447 	 23.5137 	 80.4885
|  9> C 	 40.8722 	 22.8494 	 80.1899
| 10> C 	 40.9692 	 21.4472 	 79.8608
| 11> C 	 42.2524 	 20.9448 	 79.8726
| 12> H 	 40.1252 	 20.8307 	 79.6877
| 13> C 	 39.5329 	 23.5211 	 80.4042
| 14> H 	 39.7978 	 24.5905 	 80.6252
| 15> H 	 39.1332 	 23.157 	 81.3277
| 16> C 	 38.4219 	 23.2415 	 79.3967
| 17> H 	 38.6902 	 23.821 	 78.5289
| 18> H 	 38.339 	 22.232 	 79.0563
| 19> C 	 37.1184 	 23.6341 	 80.0557
| 20> H 	 36.2783 	 23.7327 	 79.4104
| 21> H 	 36.9232 	 22.9407 	 80.86
| 22> H 	 37.1116 	 24.6635 	 80.4426
| 23> S 	 43.5093 	 19.452 	 77.9407
| 24> C 	 43.7264 	 17.7225 	 78.0421
| 25> C 	 43.2328 	 17.2801 	 79.2423
| 26> C 	 42.6135 	 18.336 	 80.0717
| 27> C 	 42.6366 	 19.5926 	 79.4708
| 28> H 	 43.296 	 16.2999 	 79.4515
| 29> C 	 42.2136 	 18.1283 	 81.4989
| 30> H 	 41.7182 	 17.1263 	 81.4788
| 31> H 	 41.4229 	 18.8951 	 81.6442
| 32> C 	 43.3232 	 18.2778 	 82.6197
| 33> H 	 42.7422 	 18.389 	 83.5547
| 34> H 	 43.7107 	 19.2474 	 82.5974
| 35> C 	 44.4447 	 17.174 	 82.7676
| 36> H 	 44.0866 	 16.137 	 82.9118
| 37> H 	 45.0118 	 17.3306 	 83.6857
| 38> H 	 45.1161 	 17.1603 	 81.9265
| 39> H 	 42.1193 	 24.5101 	 80.7142
| 40> H 	 44.3361 	 17.0987 	 77.4366
| 41> *
| 42>
| 43>                          ****END OF INPUT****

CARTESIAN COORDINATES (ANGSTROEM)
---------------------------------
  S     43.333800   22.334700   80.387700
  C     42.044700   23.513700   80.488500
  C     40.872200   22.849400   80.189900
  C     40.969200   21.447200   79.860800
  C     42.252400   20.944800   79.872600
  H     40.125200   20.830700   79.687700
  C     39.532900   23.521100   80.404200
  H     39.797800   24.590500   80.625200
  H     39.133200   23.157000   81.327700
  C     38.421900   23.241500   79.396700
  H     38.690200   23.821000   78.528900
  H     38.339000   22.232000   79.056300
  C     37.118400   23.634100   80.055700
  H     36.278300   23.732700   79.410400
  H     36.923200   22.940700   80.860000
  H     37.111600   24.663500   80.442600
  S     43.509300   19.452000   77.940700
  C     43.726400   17.722500   78.042100
  C     43.232800   17.280100   79.242300
  C     42.613500   18.336000   80.071700
  C     42.636600   19.592600   79.470800
  H     43.296000   16.299900   79.451500
  C     42.213600   18.128300   81.498900
  H     41.718200   17.126300   81.478800
  H     41.422900   18.895100   81.644200
  C     43.323200   18.277800   82.619700
  H     42.742200   18.389000   83.554700
  H     43.710700   19.247400   82.597400
  C     44.444700   17.174000   82.767600
  H     44.086600   16.137000   82.911800
  H     45.011800   17.330600   83.685700
  H     45.116100   17.160300   81.926500
  H     42.119300   24.510100   80.714200
  H     44.336100   17.098700   77.436600

 Total Charge           Charge          ....    0
 Multiplicity           Mult            ....    1
 Number of Electrons    NEL             ....  134
 Basis Dimension        Dim             ....  322

ORBITAL ENERGIES
----------------

  NO   OCC          E(Eh)            E(eV)
   0   2.0000     -88.964378     -2420.8438
   1   2.0000     -88.959929     -2420.7227
   2   2.0000     -10.339649      -281.3562
   3   2.0000     -10.329564      -281.0817
   4   2.0000     -10.316750      -280.7330
   5   2.0000     -10.313298      -280.6391
   6   2.0000     -10.307843      -280.4907
   7   2.0000     -10.299409      -280.2612
   8   2.0000     -10.296199      -280.1738
   9   2.0000     -10.295838      -280.1640
  10   2.0000     -10.290385      -280.0156
  11   2.0000     -10.289324      -279.9867
  12   2.0000     -10.288859      -279.9741
  13   2.0000     -10.282400      -279.7983
  14   2.0000     -10.281791      -279.7817
  15   2.0000     -10.274695      -279.5887
  16   2.0000      -8.077736      -219.8064
  17   2.0000      -8.074741      -219.7249
  18   2.0000      -6.036535      -164.2625
  19   2.0000      -6.033408      -164.1774
  20   2.0000      -6.032292      -164.1470
  21   2.0000      -6.029057      -164.0590
  22   2.0000      -6.028367      -164.0402
  23   2.0000      -6.025460      -163.9611
  24   2.0000      -0.999698       -27.2032
  25   2.0000      -0.980254       -26.6741
  26   2.0000      -0.915282       -24.9061
  27   2.0000      -0.897665       -24.4267
  28   2.0000      -0.876676       -23.8556
  29   2.0000      -0.844629       -22.9835
  30   2.0000      -0.840744       -22.8778
  31   2.0000      -0.824861       -22.4456
  32   2.0000      -0.778039       -21.1715
  33   2.0000      -0.767404       -20.8821
  34   2.0000      -0.721138       -19.6232
  35   2.0000      -0.705064       -19.1858
  36   2.0000      -0.698103       -18.9963
  37   2.0000      -0.665310       -18.1040
  38   2.0000      -0.647534       -17.6203
  39   2.0000      -0.621912       -16.9231
  40   2.0000      -0.582639       -15.8544
  41   2.0000      -0.579932       -15.7807
  42   2.0000      -0.569521       -15.4975
  43   2.0000      -0.546255       -14.8644
  44   2.0000      -0.538355       -14.6494
  45   2.0000      -0.528175       -14.3724
  46   2.0000      -0.521608       -14.1937
  47   2.0000      -0.511586       -13.9210
  48   2.0000      -0.507033       -13.7971
  49   2.0000      -0.502288       -13.6679
  50   2.0000      -0.488330       -13.2881
  51   2.0000      -0.480996       -13.0886
  52   2.0000      -0.470764       -12.8102
  53   2.0000      -0.465382       -12.6637
  54   2.0000      -0.459514       -12.5040
  55   2.0000      -0.448785       -12.2121
  56   2.0000      -0.440898       -11.9975
  57   2.0000      -0.435344       -11.8463
  58   2.0000      -0.434555       -11.8248
  59   2.0000      -0.424638       -11.5550
  60   2.0000      -0.423856       -11.5337
  61   2.0000      -0.407866       -11.0986
  62   2.0000      -0.405209       -11.0263
  63   2.0000      -0.340759        -9.2725
  64   2.0000      -0.325243        -8.8503
  65   2.0000      -0.321633        -8.7521
  66   2.0000      -0.306603        -8.3431
  67   0.0000       0.034430         0.9369
  68   0.0000       0.053471         1.4550
  69   0.0000       0.112520         3.0618
  70   0.0000       0.123041         3.3481
  71   0.0000       0.132789         3.6134

MULLIKEN ATOMIC CHARGES
-----------------------
   0 S :    0.097025
   1 C :   -0.084346
   2 C :   -0.084696
   3 C :    0.067670
   4 C :   -0.149373
   5 H :    0.005828
   6 C :    0.042933
   7 H :    0.021627
   8 H :    0.020275
   9 C :   -0.045909
  10 H :    0.027566
  11 H :    0.030659
  12 C :   -0.045857
  13 H :    0.020179
  14 H :    0.035819
  15 H :    0.023998
  16 S :    0.095611
  17 C :   -0.063647
  18 C :   -0.004601
  19 C :   -0.042172
  20 C :   -0.176602
  21 H :   -0.027471
  22 C :    0.039518
  23 H :    0.030164
  24 H :    0.029813
  25 C :   -0.022057
  26 H :    0.024010
  27 H :    0.010367
  28 C :   -0.049116
  29 H :    0.027508
  30 H :    0.034019
  31 H :    0.041300
  32 H :    0.019430
  33 H :    0.050528
Sum of atomic charges:    0.0000000

LOEWDIN ATOMIC CHARGES
----------------------
   0 S :    0.370425
   1 C :   -0.179514
   2 C :   -0.066072
   3 C :   -0.049558
   4 C :   -0.175732
   5 H :    0.026602
   6 C :   -0.032900
   7 H :    0.034417
   8 H :    0.025722
   9 C :   -0.038095
  10 H :    0.024720
  11 H :    0.022768
  12 C :   -0.063785
  13 H :    0.020819
  14 H :    0.025378
  15 H :    0.028260
  16 S :    0.401116
  17 C :   -0.174076
  18 C :   -0.061624
  19 C :   -0.052026
  20 C :   -0.200024
  21 H :    0.009153
  22 C :   -0.039500
  23 H :    0.033384
  24 H :    0.036913
  25 C :   -0.032697
  26 H :    0.030128
  27 H :    0.018398
  28 C :   -0.068191
  29 H :    0.026628
  30 H :    0.030400
  31 H :    0.023579
  32 H :    0.016044
  33 H :    0.028941

  Mayer bond orders larger than 0.100000
B(  0-S ,  1-C ) :   1.1264 B(  0-S ,  4-C ) :   1.1172 B(  1-C ,  2-C ) :   1.6085
B(  1-C , 32-H ) :   0.9818 B(  2-C ,  3-C ) :   1.2262 B(  2-C ,  6-C ) :   1.0269
B(  3-C ,  4-C ) :   1.5898 B(  3-C ,  5-H ) :   0.9951 B(  4-C , 20-C ) :   1.0439
B(  6-C ,  7-H ) :   0.9409 B(  6-C ,  8-H ) :   0.9443 B(  6-C ,  9-C ) :   1.0442
B(  9-C , 10-H ) :   0.9538 B(  9-C , 11-H ) :   0.9569 B(  9-C , 12-C ) :   1.0841
B( 12-C , 13-H ) :   0.9711 B( 12-C , 14-H ) :   0.9754 B( 12-C , 15-H ) :   0.9715
B( 16-S , 17-C ) :   1.1543 B( 16-S , 20-C ) :   1.1292 B( 17-C , 18-C ) :   1.6234
B( 17-C , 33-H ) :   0.9683 B( 18-C , 19-C ) :   1.2111 B( 18-C , 21-H ) :   1.0082
B( 19-C , 20-C ) :   1.6027 B( 19-C , 22-C ) :   1.0536 B( 22-C , 23-H ) :   0.9355
B( 22-C , 24-H ) :   0.9282 B( 22-C , 25-C ) :   1.0640 B( 25-C , 26-H ) :   0.9545
B( 25-C , 27-H ) :   0.9526 B( 25-C , 28-C ) :   1.0647 B( 28-C , 29-H ) :   0.9771
B( 28-C , 30-H ) :   0.9734 B( 28-C , 31-H ) :   0.9781

Dispersion correction           -0.014032334
FINAL SINGLE POINT ENERGY     -1339.856950309046

DIPOLE MOMENT
-------------
                                X             Y             Z
Electronic contribution:     16.01885       1.20984     -13.41026
Nuclear contribution   :    -16.46007      -1.36763      13.78877
                        -----------------------------------------
Total Dipole Moment    :     -0.44122      -0.15779       0.37851
                        -----------------------------------------
Magnitude (a.u.)       :      0.60237
Magnitude (Debye)      :      1.53109

Rotational constants in cm-1:     0.020450     0.007152     0.006802
Rotational constants in MHz :   613.076957   214.426153   203.921473

                             ****ORCA TERMINATED NORMALLY****
TOTAL RUN TIME: 0 days 0 hours 0 minutes 29 seconds 605 msec
