                         Program Version 4.2.1 -  RELEASE  -
|  1> ! wB97X-D3 SP def2-SVP
|  2> %pal
|  3> nprocs 16
|  4> end
|  5>
|  6> * xyz 0 1
|  7> S 	 -41.4024 	 49.4542 	 102.824
|  8> C 	 -41.0644 	 47.7949 	 102.297
|  9> C 	 -42.2117 	 47.036 	 102.265
| 10> C 	 -43.2752 	 47.7074 	 102.943
| 11> C 	 -42.979 	 48.9559 	 103.38
| 12> H 	 -44.2994 	 47.3791 	 102.989
| 13> C 	 -42.386 	 45.6242 	 101.695
| 14> H 	 -41.6229 	 45.1074 	 101.13
| 15> H 	 -43.2014 	 45.6452 	 101.002
| 16> C 	 -42.9428 	 44.6046 	 102.757
| 17> H 	 -43.7715 	 45.0543 	 103.325
| 18> H 	 -43.2709 	 43.6413 	 102.371
| 19> C 	 -41.7795 	 44.3382 	 103.705
| 20> H 	 -42.1515 	 43.9736 	 104.609
| 21> H 	 -41.0501 	 43.5963 	 103.428
| 22> H 	 -41.138 	 45.2174 	 103.994
| 23> S 	 -44.7282 	 51.0008 	 102.712
| 24> C 	 -45.919 	 51.5778 	 103.878
| 25> C 	 -45.7263 	 50.8497 	 105.058
| 26> C 	 -44.6033 	 49.9818 	 105.094
| 27> C 	 -44.0181 	 49.883 	 103.84
| 28> H 	 -46.3917 	 51.0014 	 105.917
| 29> C 	 -44.1734 	 49.2413 	 106.343
| 30> H 	 -43.7291 	 49.9008 	 107.094
| 31> H 	 -43.3603 	 48.5745 	 105.979
| 32> C 	 -45.2202 	 48.24 	 106.992
| 33> H 	 -45.9744 	 48.8614 	 107.48
| 34> H 	 -44.7422 	 47.6568 	 107.821
| 35> C 	 -45.928 	 47.2525 	 106.107
| 36> H 	 -46.464 	 47.7279 	 105.259
| 37> H 	 -46.6468 	 46.7354 	 106.658
| 38> H 	 -45.1338 	 46.6148 	 105.79
| 39> H 	 -40.1523 	 47.5063 	 101.817
| 40> H 	 -46.7787 	 52.3122 	 103.717
| 41> *
| 42>
| 43>                          ****END OF INPUT****

CARTESIAN COORDINATES (ANGSTROEM)
---------------------------------
  S    -41.402400   49.454200  102.824000
  C    -41.064400   47.794900  102.297000
  C    -42.211700   47.036000  102.265000
  C    -43.275200   47.707400  102.943000
  C    -42.979000   48.955900  103.380000
  H    -44.299400   47.379100  102.989000
  C    -42.386000   45.624200  101.695000
  H    -41.622900   45.107400  101.130000
  H    -43.201400   45.645200  101.002000
  C    -42.942800   44.604600  102.757000
  H    -43.771500   45.054300  103.325000
  H    -43.270900   43.641300  102.371000
  C    -41.779500   44.338200  103.705000
  H    -42.151500   43.973600  104.609000
  H    -41.050100   43.596300  103.428000
  H    -41.138000   45.217400  103.994000
  S    -44.728200   51.000800  102.712000
  C    -45.919000   51.577800  103.878000
  C    -45.726300   50.849700  105.058000
  C    -44.603300   49.981800  105.094000
  C    -44.018100   49.883000  103.840000
  H    -46.391700   51.001400  105.917000
  C    -44.173400   49.241300  106.343000
  H    -43.729100   49.900800  107.094000
  H    -43.360300   48.574500  105.979000
  C    -45.220200   48.240000  106.992000
  H    -45.974400   48.861400  107.480000
  H    -44.742200   47.656800  107.821000
  C    -45.928000   47.252500  106.107000
  H    -46.464000   47.727900  105.259000
  H    -46.646800   46.735400  106.658000
  H    -45.133800   46.614800  105.790000
  H    -40.152300   47.506300  101.817000
  H    -46.778700   52.312200  103.717000

 Total Charge           Charge          ....    0
 Multiplicity           Mult            ....    1
 Number of Electrons    NEL             ....  134
 Basis Dimension        Dim             ....  322

ORBITAL ENERGIES
----------------

  NO   OCC          E(Eh)            E(eV)
   0   2.0000     -88.966761     -2420.9086
   1   2.0000     -88.966729     -2420.9078
   2   2.0000     -10.326634      -281.0020
   3   2.0000     -10.325842      -280.9804
   4   2.0000     -10.325647      -280.9751
   5   2.0000     -10.316051      -280.7140
   6   2.0000     -10.307409      -280.4789
   7   2.0000     -10.301089      -280.3069
   8   2.0000     -10.294622      -280.1309
   9   2.0000     -10.294364      -280.1239
  10   2.0000     -10.294047      -280.1153
  11   2.0000     -10.292546      -280.0744
  12   2.0000     -10.290061      -280.0068
  13   2.0000     -10.288443      -279.9628
  14   2.0000     -10.269610      -279.4503
  15   2.0000     -10.265374      -279.3350
  16   2.0000      -8.081340      -219.9044
  17   2.0000      -8.081202      -219.9007
  18   2.0000      -6.039840      -164.3524
  19   2.0000      -6.039734      -164.3495
  20   2.0000      -6.036055      -164.2494
  21   2.0000      -6.035616      -164.2375
  22   2.0000      -6.032068      -164.1409
  23   2.0000      -6.031915      -164.1367
  24   2.0000      -1.009093       -27.4588
  25   2.0000      -0.984897       -26.8004
  26   2.0000      -0.910855       -24.7856
  27   2.0000      -0.903647       -24.5895
  28   2.0000      -0.868591       -23.6356
  29   2.0000      -0.851228       -23.1631
  30   2.0000      -0.845501       -23.0073
  31   2.0000      -0.812698       -22.1146
  32   2.0000      -0.784226       -21.3399
  33   2.0000      -0.775172       -21.0935
  34   2.0000      -0.705411       -19.1952
  35   2.0000      -0.695304       -18.9202
  36   2.0000      -0.690243       -18.7825
  37   2.0000      -0.653505       -17.7828
  38   2.0000      -0.646112       -17.5816
  39   2.0000      -0.624518       -16.9940
  40   2.0000      -0.590656       -16.0726
  41   2.0000      -0.567379       -15.4392
  42   2.0000      -0.558352       -15.1935
  43   2.0000      -0.548164       -14.9163
  44   2.0000      -0.542731       -14.7685
  45   2.0000      -0.537733       -14.6325
  46   2.0000      -0.518849       -14.1186
  47   2.0000      -0.513352       -13.9690
  48   2.0000      -0.498454       -13.5636
  49   2.0000      -0.494568       -13.4579
  50   2.0000      -0.491517       -13.3749
  51   2.0000      -0.480348       -13.0709
  52   2.0000      -0.470263       -12.7965
  53   2.0000      -0.465494       -12.6667
  54   2.0000      -0.457354       -12.4452
  55   2.0000      -0.445481       -12.1221
  56   2.0000      -0.443548       -12.0696
  57   2.0000      -0.436824       -11.8866
  58   2.0000      -0.432313       -11.7638
  59   2.0000      -0.425798       -11.5866
  60   2.0000      -0.419700       -11.4206
  61   2.0000      -0.412068       -11.2129
  62   2.0000      -0.405694       -11.0395
  63   2.0000      -0.338533        -9.2120
  64   2.0000      -0.328609        -8.9419
  65   2.0000      -0.326652        -8.8886
  66   2.0000      -0.307905        -8.3785
  67   0.0000       0.040819         1.1107
  68   0.0000       0.054147         1.4734
  69   0.0000       0.107974         2.9381
  70   0.0000       0.125579         3.4172
  71   0.0000       0.130965         3.5637

MULLIKEN ATOMIC CHARGES
-----------------------
   0 S :    0.106628
   1 C :   -0.113065
   2 C :   -0.052363
   3 C :    0.025950
   4 C :   -0.160037
   5 H :    0.020733
   6 C :    0.082532
   7 H :    0.024539
   8 H :    0.021868
   9 C :   -0.090148
  10 H :    0.038521
  11 H :    0.033223
  12 C :   -0.051635
  13 H :    0.006700
  14 H :    0.020173
  15 H :    0.037950
  16 S :    0.118530
  17 C :   -0.125204
  18 C :   -0.047742
  19 C :   -0.032940
  20 C :   -0.181487
  21 H :    0.023463
  22 C :    0.072642
  23 H :    0.048669
  24 H :    0.029113
  25 C :   -0.122378
  26 H :    0.020125
  27 H :    0.036126
  28 C :   -0.014944
  29 H :    0.044074
  30 H :    0.022823
  31 H :    0.027209
  32 H :    0.041581
  33 H :    0.088771
Sum of atomic charges:    0.0000000

LOEWDIN ATOMIC CHARGES
----------------------
   0 S :    0.396746
   1 C :   -0.180785
   2 C :   -0.054690
   3 C :   -0.053317
   4 C :   -0.200028
   5 H :    0.032341
   6 C :   -0.028376
   7 H :    0.029877
   8 H :    0.029263
   9 C :   -0.034739
  10 H :    0.024208
  11 H :    0.025796
  12 C :   -0.074817
  13 H :    0.013743
  14 H :    0.021201
  15 H :    0.031678
  16 S :    0.410440
  17 C :   -0.203233
  18 C :   -0.076283
  19 C :   -0.063987
  20 C :   -0.202459
  21 H :    0.030812
  22 C :   -0.033293
  23 H :    0.037166
  24 H :    0.033475
  25 C :   -0.043124
  26 H :    0.013983
  27 H :    0.029939
  28 C :   -0.060408
  29 H :    0.030416
  30 H :    0.020728
  31 H :    0.022588
  32 H :    0.024041
  33 H :    0.051097

  Mayer bond orders larger than 0.100000
B(  0-S ,  1-C ) :   1.1334 B(  0-S ,  4-C ) :   1.1403 B(  1-C ,  2-C ) :   1.6203
B(  1-C , 32-H ) :   0.9715 B(  2-C ,  3-C ) :   1.2165 B(  2-C ,  6-C ) :   1.0230
B(  3-C ,  4-C ) :   1.6086 B(  3-C ,  5-H ) :   0.9888 B(  4-C , 20-C ) :   1.0069
B(  6-C ,  7-H ) :   0.9557 B(  6-C ,  8-H ) :   0.9332 B(  6-C ,  9-C ) :   1.0672
B(  9-C , 10-H ) :   0.9590 B(  9-C , 11-H ) :   0.9550 B(  9-C , 12-C ) :   1.0684
B( 12-C , 13-H ) :   0.9722 B( 12-C , 14-H ) :   0.9746 B( 12-C , 15-H ) :   0.9752
B( 16-S , 17-C ) :   1.1470 B( 16-S , 20-C ) :   1.1638 B( 17-C , 18-C ) :   1.5999
B( 17-C , 20-C ) :   0.1032 B( 17-C , 33-H ) :   0.9599 B( 18-C , 19-C ) :   1.2527
B( 18-C , 21-H ) :   0.9844 B( 19-C , 20-C ) :   1.5860 B( 19-C , 22-C ) :   1.0424
B( 22-C , 23-H ) :   0.9392 B( 22-C , 24-H ) :   0.9289 B( 22-C , 25-C ) :   1.0573
B( 25-C , 26-H ) :   0.9571 B( 25-C , 27-H ) :   0.9587 B( 25-C , 28-C ) :   1.0828
B( 28-C , 29-H ) :   0.9680 B( 28-C , 30-H ) :   0.9685 B( 28-C , 31-H ) :   0.9766

Dispersion correction           -0.015543379
FINAL SINGLE POINT ENERGY     -1339.871915332001

DIPOLE MOMENT
-------------
                                X             Y             Z
Electronic contribution:      4.95224      25.27860     -12.25492
Nuclear contribution   :     -5.28134     -25.83259      12.38872
                        -----------------------------------------
Total Dipole Moment    :     -0.32910      -0.55399       0.13380
                        -----------------------------------------
Magnitude (a.u.)       :      0.65811
Magnitude (Debye)      :      1.67279

Rotational constants in cm-1:     0.018302     0.009915     0.007557
Rotational constants in MHz :   548.686551   297.237878   226.538458

                             ****ORCA TERMINATED NORMALLY****
TOTAL RUN TIME: 0 days 0 hours 0 minutes 29 seconds 866 msec
