                         Program Version 4.2.1 -  RELEASE  -
|  1> ! wB97X-D3 SP def2-SVP
|  2> %pal
|  3> nprocs 16
|  4> end
|  5>
|  6> * xyz 0 1
|  7> S 	 26.9094 	 -0.419579 	 72.1864
|  8> C 	 26.809 	 1.22725 	 72.7199
|  9> C 	 27.8672 	 1.41559 	 73.6341
| 10> C 	 28.8624 	 0.343052 	 73.6416
| 11> C 	 28.5144 	 -0.693362 	 72.7808
| 12> H 	 29.7212 	 0.218888 	 74.1982
| 13> C 	 28.0161 	 2.73904 	 74.5249
| 14> H 	 28.612 	 3.5069 	 74.0769
| 15> H 	 28.4802 	 2.29107 	 75.3839
| 16> C 	 26.717 	 3.29944 	 75.0254
| 17> H 	 26.1579 	 3.83548 	 74.1597
| 18> H 	 26.075 	 2.47727 	 75.2271
| 19> C 	 26.8393 	 4.13071 	 76.353
| 20> H 	 27.1145 	 3.48651 	 77.1965
| 21> H 	 27.4349 	 5.01857 	 76.1027
| 22> H 	 25.8991 	 4.59547 	 76.6037
| 23> S 	 28.6025 	 -3.43976 	 73.1061
| 24> C 	 30.0804 	 -4.29193 	 72.7568
| 25> C 	 30.9662 	 -3.48451 	 72.1435
| 26> C 	 30.5799 	 -2.11004 	 72.0338
| 27> C 	 29.2817 	 -1.93698 	 72.5491
| 28> H 	 31.8603 	 -3.8263 	 71.7445
| 29> C 	 31.4889 	 -1.12234 	 71.4746
| 30> H 	 31.721 	 -0.364948 	 72.248
| 31> H 	 30.855 	 -0.510565 	 70.7921
| 32> C 	 32.8051 	 -1.61385 	 70.8244
| 33> H 	 32.5236 	 -2.31557 	 69.9992
| 34> H 	 33.3902 	 -2.2077 	 71.5573
| 35> C 	 33.421 	 -0.394916 	 70.2545
| 36> H 	 34.3141 	 -0.573888 	 69.6461
| 37> H 	 33.7513 	 0.285878 	 71.047
| 38> H 	 32.7444 	 0.133202 	 69.5827
| 39> H 	 26.0944 	 2.0319 	 72.5105
| 40> H 	 30.1792 	 -5.39567 	 72.9386
| 41> *
| 42>
| 43>                          ****END OF INPUT****

CARTESIAN COORDINATES (ANGSTROEM)
---------------------------------
  S     26.909400   -0.419579   72.186400
  C     26.809000    1.227250   72.719900
  C     27.867200    1.415590   73.634100
  C     28.862400    0.343052   73.641600
  C     28.514400   -0.693362   72.780800
  H     29.721200    0.218888   74.198200
  C     28.016100    2.739040   74.524900
  H     28.612000    3.506900   74.076900
  H     28.480200    2.291070   75.383900
  C     26.717000    3.299440   75.025400
  H     26.157900    3.835480   74.159700
  H     26.075000    2.477270   75.227100
  C     26.839300    4.130710   76.353000
  H     27.114500    3.486510   77.196500
  H     27.434900    5.018570   76.102700
  H     25.899100    4.595470   76.603700
  S     28.602500   -3.439760   73.106100
  C     30.080400   -4.291930   72.756800
  C     30.966200   -3.484510   72.143500
  C     30.579900   -2.110040   72.033800
  C     29.281700   -1.936980   72.549100
  H     31.860300   -3.826300   71.744500
  C     31.488900   -1.122340   71.474600
  H     31.721000   -0.364948   72.248000
  H     30.855000   -0.510565   70.792100
  C     32.805100   -1.613850   70.824400
  H     32.523600   -2.315570   69.999200
  H     33.390200   -2.207700   71.557300
  C     33.421000   -0.394916   70.254500
  H     34.314100   -0.573888   69.646100
  H     33.751300    0.285878   71.047000
  H     32.744400    0.133202   69.582700
  H     26.094400    2.031900   72.510500
  H     30.179200   -5.395670   72.938600

 Total Charge           Charge          ....    0
 Multiplicity           Mult            ....    1
 Number of Electrons    NEL             ....  134
 Basis Dimension        Dim             ....  322

ORBITAL ENERGIES
----------------

  NO   OCC          E(Eh)            E(eV)
   0   2.0000     -88.964249     -2420.8403
   1   2.0000     -88.962839     -2420.8019
   2   2.0000     -10.329394      -281.0771
   3   2.0000     -10.325881      -280.9815
   4   2.0000     -10.316934      -280.7380
   5   2.0000     -10.316187      -280.7177
   6   2.0000     -10.309988      -280.5490
   7   2.0000     -10.300513      -280.2912
   8   2.0000     -10.294831      -280.1366
   9   2.0000     -10.293178      -280.0916
  10   2.0000     -10.290888      -280.0293
  11   2.0000     -10.289349      -279.9874
  12   2.0000     -10.287802      -279.9453
  13   2.0000     -10.283205      -279.8202
  14   2.0000     -10.283005      -279.8148
  15   2.0000     -10.278320      -279.6873
  16   2.0000      -8.079234      -219.8471
  17   2.0000      -8.078096      -219.8162
  18   2.0000      -6.037746      -164.2954
  19   2.0000      -6.036604      -164.2643
  20   2.0000      -6.033639      -164.1837
  21   2.0000      -6.032498      -164.1526
  22   2.0000      -6.030012      -164.0850
  23   2.0000      -6.028873      -164.0540
  24   2.0000      -1.006047       -27.3759
  25   2.0000      -0.984612       -26.7926
  26   2.0000      -0.920696       -25.0534
  27   2.0000      -0.907097       -24.6834
  28   2.0000      -0.867527       -23.6066
  29   2.0000      -0.857331       -23.3292
  30   2.0000      -0.840495       -22.8710
  31   2.0000      -0.815686       -22.1959
  32   2.0000      -0.780427       -21.2365
  33   2.0000      -0.767500       -20.8847
  34   2.0000      -0.711649       -19.3650
  35   2.0000      -0.702186       -19.1075
  36   2.0000      -0.688655       -18.7393
  37   2.0000      -0.653330       -17.7780
  38   2.0000      -0.643035       -17.4979
  39   2.0000      -0.613471       -16.6934
  40   2.0000      -0.601141       -16.3579
  41   2.0000      -0.574572       -15.6349
  42   2.0000      -0.571593       -15.5538
  43   2.0000      -0.566926       -15.4268
  44   2.0000      -0.529266       -14.4021
  45   2.0000      -0.521037       -14.1781
  46   2.0000      -0.517324       -14.0771
  47   2.0000      -0.509839       -13.8734
  48   2.0000      -0.507789       -13.8176
  49   2.0000      -0.500696       -13.6246
  50   2.0000      -0.495674       -13.4880
  51   2.0000      -0.481948       -13.1145
  52   2.0000      -0.473683       -12.8896
  53   2.0000      -0.462317       -12.5803
  54   2.0000      -0.458552       -12.4778
  55   2.0000      -0.456896       -12.4328
  56   2.0000      -0.442407       -12.0385
  57   2.0000      -0.432487       -11.7686
  58   2.0000      -0.428183       -11.6515
  59   2.0000      -0.427005       -11.6194
  60   2.0000      -0.421900       -11.4805
  61   2.0000      -0.418957       -11.4004
  62   2.0000      -0.401936       -10.9372
  63   2.0000      -0.345054        -9.3894
  64   2.0000      -0.326478        -8.8839
  65   2.0000      -0.323260        -8.7964
  66   2.0000      -0.294176        -8.0049
  67   0.0000       0.036293         0.9876
  68   0.0000       0.062187         1.6922
  69   0.0000       0.115011         3.1296
  70   0.0000       0.124923         3.3993
  71   0.0000       0.138634         3.7724

MULLIKEN ATOMIC CHARGES
-----------------------
   0 S :    0.116199
   1 C :   -0.110125
   2 C :   -0.136946
   3 C :    0.072740
   4 C :   -0.176649
   5 H :   -0.014009
   6 C :    0.103047
   7 H :    0.044871
   8 H :    0.016144
   9 C :   -0.142691
  10 H :    0.033980
  11 H :    0.022781
  12 C :   -0.032800
  13 H :    0.050747
  14 H :    0.034579
  15 H :    0.023555
  16 S :    0.108473
  17 C :   -0.098242
  18 C :   -0.012728
  19 C :   -0.018156
  20 C :   -0.164837
  21 H :   -0.012595
  22 C :    0.013359
  23 H :    0.029573
  24 H :    0.037262
  25 C :   -0.093227
  26 H :    0.040986
  27 H :    0.047960
  28 C :   -0.003999
  29 H :    0.026927
  30 H :    0.027960
  31 H :    0.029733
  32 H :    0.061780
  33 H :    0.074351
Sum of atomic charges:    0.0000000

LOEWDIN ATOMIC CHARGES
----------------------
   0 S :    0.419632
   1 C :   -0.214837
   2 C :   -0.056971
   3 C :   -0.058855
   4 C :   -0.200756
   5 H :    0.019418
   6 C :   -0.028849
   7 H :    0.027466
   8 H :    0.029308
   9 C :   -0.053593
  10 H :    0.025840
  11 H :    0.017070
  12 C :   -0.064128
  13 H :    0.031781
  14 H :    0.028787
  15 H :    0.025101
  16 S :    0.411837
  17 C :   -0.190405
  18 C :   -0.071284
  19 C :   -0.052192
  20 C :   -0.210933
  21 H :    0.018380
  22 C :   -0.044056
  23 H :    0.037457
  24 H :    0.042291
  25 C :   -0.044948
  26 H :    0.030619
  27 H :    0.028923
  28 C :   -0.063737
  29 H :    0.024757
  30 H :    0.027522
  31 H :    0.029177
  32 H :    0.039219
  33 H :    0.040957

  Mayer bond orders larger than 0.100000
B(  0-S ,  1-C ) :   1.1416 B(  0-S ,  4-C ) :   1.1648 B(  1-C ,  2-C ) :   1.5932
B(  1-C ,  4-C ) :   0.1002 B(  1-C , 32-H ) :   0.9706 B(  2-C ,  3-C ) :   1.2426
B(  2-C ,  6-C ) :   0.9927 B(  3-C ,  4-C ) :   1.5623 B(  3-C ,  5-H ) :   1.0071
B(  4-C , 20-C ) :   1.0186 B(  6-C ,  7-H ) :   0.9447 B(  6-C ,  8-H ) :   0.9433
B(  6-C ,  9-C ) :   1.0738 B(  9-C , 10-H ) :   0.9485 B(  9-C , 11-H ) :   0.9591
B(  9-C , 12-C ) :   1.0837 B( 12-C , 13-H ) :   0.9736 B( 12-C , 14-H ) :   0.9753
B( 12-C , 15-H ) :   0.9725 B( 16-S , 17-C ) :   1.1575 B( 16-S , 20-C ) :   1.1537
B( 17-C , 18-C ) :   1.5865 B( 17-C , 33-H ) :   0.9582 B( 18-C , 19-C ) :   1.2660
B( 18-C , 21-H ) :   0.9948 B( 19-C , 20-C ) :   1.5752 B( 19-C , 22-C ) :   1.0434
B( 22-C , 23-H ) :   0.9162 B( 22-C , 24-H ) :   0.9213 B( 22-C , 25-C ) :   1.0777
B( 25-C , 26-H ) :   0.9485 B( 25-C , 27-H ) :   0.9433 B( 25-C , 28-C ) :   1.0904
B( 28-C , 29-H ) :   0.9689 B( 28-C , 30-H ) :   0.9689 B( 28-C , 31-H ) :   0.9693

Dispersion correction           -0.013222054
FINAL SINGLE POINT ENERGY     -1339.862011228429

DIPOLE MOMENT
-------------
                                X             Y             Z
Electronic contribution:    -12.84705     -21.10697      -3.36229
Nuclear contribution   :     13.38310      21.48197       3.46420
                        -----------------------------------------
Total Dipole Moment    :      0.53605       0.37500       0.10190
                        -----------------------------------------
Magnitude (a.u.)       :      0.66209
Magnitude (Debye)      :      1.68289

Rotational constants in cm-1:     0.020025     0.006975     0.005826
Rotational constants in MHz :   600.321730   209.099544   174.653432

                             ****ORCA TERMINATED NORMALLY****
TOTAL RUN TIME: 0 days 0 hours 0 minutes 28 seconds 332 msec
