                         Program Version 4.2.1 -  RELEASE  -
|  1> ! wB97X-D3 SP def2-SVP
|  2> %pal
|  3> nprocs 16
|  4> end
|  5>
|  6> * xyz 0 1
|  7> S 	 -40.6247 	 23.4145 	 93.2336
|  8> C 	 -41.1663 	 22.1432 	 92.1535
|  9> C 	 -40.9661 	 22.4756 	 90.7638
| 10> C 	 -40.4489 	 23.7928 	 90.6347
| 11> C 	 -40.2792 	 24.4222 	 91.8661
| 12> H 	 -40.3642 	 24.2317 	 89.7402
| 13> C 	 -41.1892 	 21.5861 	 89.5326
| 14> H 	 -40.4366 	 20.8705 	 89.615
| 15> H 	 -41.0644 	 22.2109 	 88.6527
| 16> C 	 -42.5195 	 20.935 	 89.6212
| 17> H 	 -42.379 	 20.1142 	 88.9056
| 18> H 	 -42.7336 	 20.4399 	 90.5381
| 19> C 	 -43.7904 	 21.7649 	 89.1504
| 20> H 	 -44.5419 	 21.1074 	 88.9066
| 21> H 	 -44.0319 	 22.4669 	 89.8836
| 22> H 	 -43.5327 	 22.3038 	 88.2512
| 23> S 	 -40.7782 	 27.1808 	 92.1253
| 24> C 	 -39.408 	 28.2617 	 92.02
| 25> C 	 -38.2375 	 27.6291 	 92.0818
| 26> C 	 -38.3554 	 26.1864 	 91.9483
| 27> C 	 -39.6827 	 25.7676 	 92.0329
| 28> H 	 -37.3554 	 28.1642 	 92.2114
| 29> C 	 -37.1959 	 25.2655 	 91.6697
| 30> H 	 -37.4544 	 24.207 	 91.8459
| 31> H 	 -36.5741 	 25.5664 	 92.4902
| 32> C 	 -36.5284 	 25.4798 	 90.3372
| 33> H 	 -35.5562 	 25.022 	 90.5041
| 34> H 	 -36.2999 	 26.5394 	 90.0699
| 35> C 	 -37.3062 	 24.8557 	 89.1883
| 36> H 	 -36.7458 	 24.933 	 88.212
| 37> H 	 -38.243 	 25.4269 	 89.0252
| 38> H 	 -37.4828 	 23.7506 	 89.2384
| 39> H 	 -41.5782 	 21.1932 	 92.4465
| 40> H 	 -39.4734 	 29.2967 	 92.0465
| 41> *
| 42>
| 43>                          ****END OF INPUT****

CARTESIAN COORDINATES (ANGSTROEM)
---------------------------------
  S    -40.624700   23.414500   93.233600
  C    -41.166300   22.143200   92.153500
  C    -40.966100   22.475600   90.763800
  C    -40.448900   23.792800   90.634700
  C    -40.279200   24.422200   91.866100
  H    -40.364200   24.231700   89.740200
  C    -41.189200   21.586100   89.532600
  H    -40.436600   20.870500   89.615000
  H    -41.064400   22.210900   88.652700
  C    -42.519500   20.935000   89.621200
  H    -42.379000   20.114200   88.905600
  H    -42.733600   20.439900   90.538100
  C    -43.790400   21.764900   89.150400
  H    -44.541900   21.107400   88.906600
  H    -44.031900   22.466900   89.883600
  H    -43.532700   22.303800   88.251200
  S    -40.778200   27.180800   92.125300
  C    -39.408000   28.261700   92.020000
  C    -38.237500   27.629100   92.081800
  C    -38.355400   26.186400   91.948300
  C    -39.682700   25.767600   92.032900
  H    -37.355400   28.164200   92.211400
  C    -37.195900   25.265500   91.669700
  H    -37.454400   24.207000   91.845900
  H    -36.574100   25.566400   92.490200
  C    -36.528400   25.479800   90.337200
  H    -35.556200   25.022000   90.504100
  H    -36.299900   26.539400   90.069900
  C    -37.306200   24.855700   89.188300
  H    -36.745800   24.933000   88.212000
  H    -38.243000   25.426900   89.025200
  H    -37.482800   23.750600   89.238400
  H    -41.578200   21.193200   92.446500
  H    -39.473400   29.296700   92.046500

 Total Charge           Charge          ....    0
 Multiplicity           Mult            ....    1
 Number of Electrons    NEL             ....  134
 Basis Dimension        Dim             ....  322

ORBITAL ENERGIES
----------------

  NO   OCC          E(Eh)            E(eV)
   0   2.0000     -88.971580     -2421.0398
   1   2.0000     -88.956833     -2420.6385
   2   2.0000     -10.325451      -280.9698
   3   2.0000     -10.321995      -280.8758
   4   2.0000     -10.314917      -280.6832
   5   2.0000     -10.306657      -280.4584
   6   2.0000     -10.301203      -280.3100
   7   2.0000     -10.300400      -280.2881
   8   2.0000     -10.287622      -279.9404
   9   2.0000     -10.287327      -279.9324
  10   2.0000     -10.285942      -279.8947
  11   2.0000     -10.284472      -279.8547
  12   2.0000     -10.283214      -279.8205
  13   2.0000     -10.282864      -279.8109
  14   2.0000     -10.282389      -279.7980
  15   2.0000     -10.267451      -279.3915
  16   2.0000      -8.085771      -220.0250
  17   2.0000      -8.071425      -219.6346
  18   2.0000      -6.044141      -164.4694
  19   2.0000      -6.040299      -164.3649
  20   2.0000      -6.036788      -164.2694
  21   2.0000      -6.030043      -164.0858
  22   2.0000      -6.026071      -163.9777
  23   2.0000      -6.021975      -163.8663
  24   2.0000      -0.998780       -27.1782
  25   2.0000      -0.978882       -26.6367
  26   2.0000      -0.916530       -24.9400
  27   2.0000      -0.911999       -24.8167
  28   2.0000      -0.861350       -23.4385
  29   2.0000      -0.850692       -23.1485
  30   2.0000      -0.842265       -22.9192
  31   2.0000      -0.813094       -22.1254
  32   2.0000      -0.788151       -21.4467
  33   2.0000      -0.770815       -20.9749
  34   2.0000      -0.709637       -19.3102
  35   2.0000      -0.700259       -19.0550
  36   2.0000      -0.690871       -18.7996
  37   2.0000      -0.654581       -17.8121
  38   2.0000      -0.643447       -17.5091
  39   2.0000      -0.614936       -16.7333
  40   2.0000      -0.598316       -16.2810
  41   2.0000      -0.575756       -15.6671
  42   2.0000      -0.562921       -15.3179
  43   2.0000      -0.555557       -15.1175
  44   2.0000      -0.544286       -14.8108
  45   2.0000      -0.534060       -14.5325
  46   2.0000      -0.519025       -14.1234
  47   2.0000      -0.516019       -14.0416
  48   2.0000      -0.497874       -13.5478
  49   2.0000      -0.490912       -13.3584
  50   2.0000      -0.486015       -13.2251
  51   2.0000      -0.480363       -13.0713
  52   2.0000      -0.470029       -12.7901
  53   2.0000      -0.464490       -12.6394
  54   2.0000      -0.458937       -12.4883
  55   2.0000      -0.450524       -12.2594
  56   2.0000      -0.442797       -12.0491
  57   2.0000      -0.439271       -11.9532
  58   2.0000      -0.433105       -11.7854
  59   2.0000      -0.430181       -11.7058
  60   2.0000      -0.428520       -11.6606
  61   2.0000      -0.405813       -11.0427
  62   2.0000      -0.403745       -10.9865
  63   2.0000      -0.336260        -9.1501
  64   2.0000      -0.326620        -8.8878
  65   2.0000      -0.313004        -8.5173
  66   2.0000      -0.304256        -8.2792
  67   0.0000       0.045060         1.2262
  68   0.0000       0.059241         1.6120
  69   0.0000       0.116067         3.1583
  70   0.0000       0.123008         3.3472
  71   0.0000       0.126414         3.4399

MULLIKEN ATOMIC CHARGES
-----------------------
   0 S :    0.140894
   1 C :   -0.130027
   2 C :   -0.142656
   3 C :    0.103497
   4 C :   -0.174932
   5 H :   -0.045232
   6 C :    0.153595
   7 H :    0.024463
   8 H :    0.019797
   9 C :   -0.118025
  10 H :    0.015215
  11 H :    0.022069
  12 C :    0.015036
  13 H :    0.023368
  14 H :    0.034604
  15 H :    0.014728
  16 S :    0.087671
  17 C :   -0.055048
  18 C :   -0.004404
  19 C :   -0.051606
  20 C :   -0.182303
  21 H :   -0.006668
  22 C :    0.087272
  23 H :    0.036689
  24 H :    0.019875
  25 C :   -0.055214
  26 H :    0.026566
  27 H :    0.034986
  28 C :   -0.083259
  29 H :    0.032924
  30 H :    0.049191
  31 H :    0.040565
  32 H :    0.037623
  33 H :    0.028752
Sum of atomic charges:   -0.0000000

LOEWDIN ATOMIC CHARGES
----------------------
   0 S :    0.430324
   1 C :   -0.214110
   2 C :   -0.050386
   3 C :   -0.044978
   4 C :   -0.204588
   5 H :    0.008468
   6 C :   -0.019296
   7 H :    0.029616
   8 H :    0.031080
   9 C :   -0.037115
  10 H :    0.022566
  11 H :    0.017634
  12 C :   -0.043583
  13 H :    0.017360
  14 H :    0.020828
  15 H :    0.023762
  16 S :    0.373084
  17 C :   -0.163431
  18 C :   -0.067481
  19 C :   -0.046814
  20 C :   -0.199991
  21 H :    0.021505
  22 C :   -0.032926
  23 H :    0.036834
  24 H :    0.031948
  25 C :   -0.043729
  26 H :    0.025456
  27 H :    0.030411
  28 C :   -0.075384
  29 H :    0.029576
  30 H :    0.029253
  31 H :    0.028535
  32 H :    0.018940
  33 H :    0.016631

  Mayer bond orders larger than 0.100000
B(  0-S ,  1-C ) :   1.1536 B(  0-S ,  4-C ) :   1.1786 B(  1-C ,  2-C ) :   1.5651
B(  1-C ,  4-C ) :   0.1081 B(  1-C , 32-H ) :   0.9686 B(  2-C ,  3-C ) :   1.2855
B(  2-C ,  6-C ) :   1.0009 B(  3-C ,  4-C ) :   1.5418 B(  3-C ,  5-H ) :   1.0105
B(  4-C , 20-C ) :   0.9950 B(  6-C ,  7-H ) :   0.9254 B(  6-C ,  8-H ) :   0.9425
B(  6-C ,  9-C ) :   1.0861 B(  9-C , 10-H ) :   0.9546 B(  9-C , 11-H ) :   0.9577
B(  9-C , 12-C ) :   1.0681 B( 12-C , 13-H ) :   0.9764 B( 12-C , 14-H ) :   0.9785
B( 12-C , 15-H ) :   0.9740 B( 16-S , 17-C ) :   1.1410 B( 16-S , 20-C ) :   1.1158
B( 17-C , 18-C ) :   1.6621 B( 17-C , 33-H ) :   0.9693 B( 18-C , 19-C ) :   1.1892
B( 18-C , 21-H ) :   0.9976 B( 19-C , 20-C ) :   1.6475 B( 19-C , 22-C ) :   1.0366
B( 22-C , 23-H ) :   0.9326 B( 22-C , 24-H ) :   0.9221 B( 22-C , 25-C ) :   1.0735
B( 25-C , 26-H ) :   0.9508 B( 25-C , 27-H ) :   0.9548 B( 25-C , 28-C ) :   1.0780
B( 28-C , 29-H ) :   0.9699 B( 28-C , 30-H ) :   0.9713 B( 28-C , 31-H ) :   0.9719

Dispersion correction           -0.015607239
FINAL SINGLE POINT ENERGY     -1339.860738094193

DIPOLE MOMENT
-------------
                                X             Y             Z
Electronic contribution:     -3.89413      12.70799      19.46293
Nuclear contribution   :      4.31566     -12.96917     -19.94687
                        -----------------------------------------
Total Dipole Moment    :      0.42153      -0.26119      -0.48394
                        -----------------------------------------
Magnitude (a.u.)       :      0.69290
Magnitude (Debye)      :      1.76121

Rotational constants in cm-1:     0.020740     0.008400     0.007423
Rotational constants in MHz :   621.760361   251.824012   222.538480

                             ****ORCA TERMINATED NORMALLY****
TOTAL RUN TIME: 0 days 0 hours 0 minutes 31 seconds 742 msec
