                         Program Version 4.2.1 -  RELEASE  -
|  1> ! wB97X-D3 SP def2-SVP
|  2> %pal
|  3> nprocs 16
|  4> end
|  5>
|  6> * xyz 0 1
|  7> S 	 3.17604 	 -2.75843 	 75.1559
|  8> C 	 2.55883 	 -3.92319 	 76.2113
|  9> C 	 2.06331 	 -3.384 	 77.3994
| 10> C 	 2.23962 	 -1.96085 	 77.4291
| 11> C 	 2.96123 	 -1.51629 	 76.3434
| 12> H 	 1.9971 	 -1.24792 	 78.2355
| 13> C 	 1.51862 	 -4.12814 	 78.5594
| 14> H 	 2.38932 	 -4.18539 	 79.2658
| 15> H 	 1.23103 	 -5.11343 	 78.2848
| 16> C 	 0.202547 	 -3.49449 	 79.1647
| 17> H 	 -0.198416 	 -4.13593 	 79.9554
| 18> H 	 0.533612 	 -2.57239 	 79.692
| 19> C 	 -1.02963 	 -3.31414 	 78.263
| 20> H 	 -0.79983 	 -2.92676 	 77.2384
| 21> H 	 -1.52288 	 -4.26626 	 78.1943
| 22> H 	 -1.70935 	 -2.52686 	 78.66
| 23> S 	 5.57686 	 -0.417669 	 75.9876
| 24> C 	 5.65984 	 1.33562 	 76.0259
| 25> C 	 4.42649 	 1.92776 	 76.1833
| 26> C 	 3.31008 	 1.00551 	 76.2839
| 27> C 	 3.77733 	 -0.306291 	 76.2151
| 28> H 	 4.38994 	 3.01033 	 76.2054
| 29> C 	 1.91888 	 1.51692 	 76.6764
| 30> H 	 2.065 	 2.55121 	 76.8584
| 31> H 	 1.64749 	 1.24288 	 77.671
| 32> C 	 0.692422 	 1.15311 	 75.7485
| 33> H 	 -0.290477 	 1.51805 	 76.0104
| 34> H 	 0.54646 	 0.128201 	 75.7739
| 35> C 	 0.952813 	 1.40645 	 74.268
| 36> H 	 1.97016 	 0.930767 	 74.0547
| 37> H 	 1.23862 	 2.4797 	 74.034
| 38> H 	 0.24828 	 1.05084 	 73.4979
| 39> H 	 2.49959 	 -4.95313 	 75.969
| 40> H 	 6.61985 	 1.96413 	 76.0412
| 41> *
| 42>
| 43>                          ****END OF INPUT****

CARTESIAN COORDINATES (ANGSTROEM)
---------------------------------
  S      3.176040   -2.758430   75.155900
  C      2.558830   -3.923190   76.211300
  C      2.063310   -3.384000   77.399400
  C      2.239620   -1.960850   77.429100
  C      2.961230   -1.516290   76.343400
  H      1.997100   -1.247920   78.235500
  C      1.518620   -4.128140   78.559400
  H      2.389320   -4.185390   79.265800
  H      1.231030   -5.113430   78.284800
  C      0.202547   -3.494490   79.164700
  H     -0.198416   -4.135930   79.955400
  H      0.533612   -2.572390   79.692000
  C     -1.029630   -3.314140   78.263000
  H     -0.799830   -2.926760   77.238400
  H     -1.522880   -4.266260   78.194300
  H     -1.709350   -2.526860   78.660000
  S      5.576860   -0.417669   75.987600
  C      5.659840    1.335620   76.025900
  C      4.426490    1.927760   76.183300
  C      3.310080    1.005510   76.283900
  C      3.777330   -0.306291   76.215100
  H      4.389940    3.010330   76.205400
  C      1.918880    1.516920   76.676400
  H      2.065000    2.551210   76.858400
  H      1.647490    1.242880   77.671000
  C      0.692422    1.153110   75.748500
  H     -0.290477    1.518050   76.010400
  H      0.546460    0.128201   75.773900
  C      0.952813    1.406450   74.268000
  H      1.970160    0.930767   74.054700
  H      1.238620    2.479700   74.034000
  H      0.248280    1.050840   73.497900
  H      2.499590   -4.953130   75.969000
  H      6.619850    1.964130   76.041200

 Total Charge           Charge          ....    0
 Multiplicity           Mult            ....    1
 Number of Electrons    NEL             ....  134
 Basis Dimension        Dim             ....  322

ORBITAL ENERGIES
----------------

  NO   OCC          E(Eh)            E(eV)
   0   2.0000     -88.970214     -2421.0026
   1   2.0000     -88.963518     -2420.8204
   2   2.0000     -10.331873      -281.1445
   3   2.0000     -10.323720      -280.9227
   4   2.0000     -10.322992      -280.9029
   5   2.0000     -10.309200      -280.5276
   6   2.0000     -10.305886      -280.4374
   7   2.0000     -10.300103      -280.2801
   8   2.0000     -10.295824      -280.1636
   9   2.0000     -10.295643      -280.1587
  10   2.0000     -10.294813      -280.1361
  11   2.0000     -10.294198      -280.1194
  12   2.0000     -10.293442      -280.0988
  13   2.0000     -10.283021      -279.8152
  14   2.0000     -10.280693      -279.7519
  15   2.0000     -10.276894      -279.6485
  16   2.0000      -8.083577      -219.9653
  17   2.0000      -8.079911      -219.8656
  18   2.0000      -6.042256      -164.4181
  19   2.0000      -6.038410      -164.3135
  20   2.0000      -6.038195      -164.3076
  21   2.0000      -6.034133      -164.1971
  22   2.0000      -6.034093      -164.1960
  23   2.0000      -6.030866      -164.1082
  24   2.0000      -1.008447       -27.4412
  25   2.0000      -0.980070       -26.6691
  26   2.0000      -0.909502       -24.7488
  27   2.0000      -0.903023       -24.5725
  28   2.0000      -0.865236       -23.5443
  29   2.0000      -0.850710       -23.1490
  30   2.0000      -0.844872       -22.9901
  31   2.0000      -0.812964       -22.1219
  32   2.0000      -0.785352       -21.3705
  33   2.0000      -0.770593       -20.9689
  34   2.0000      -0.709724       -19.3126
  35   2.0000      -0.698358       -19.0033
  36   2.0000      -0.684702       -18.6317
  37   2.0000      -0.654111       -17.7993
  38   2.0000      -0.640957       -17.4413
  39   2.0000      -0.621710       -16.9176
  40   2.0000      -0.590556       -16.0698
  41   2.0000      -0.561011       -15.2659
  42   2.0000      -0.554203       -15.0806
  43   2.0000      -0.548166       -14.9164
  44   2.0000      -0.542878       -14.7724
  45   2.0000      -0.539077       -14.6690
  46   2.0000      -0.515377       -14.0241
  47   2.0000      -0.506336       -13.7781
  48   2.0000      -0.497846       -13.5471
  49   2.0000      -0.490747       -13.3539
  50   2.0000      -0.482432       -13.1276
  51   2.0000      -0.475496       -12.9389
  52   2.0000      -0.472657       -12.8616
  53   2.0000      -0.466899       -12.7050
  54   2.0000      -0.456040       -12.4095
  55   2.0000      -0.446895       -12.1606
  56   2.0000      -0.444084       -12.0841
  57   2.0000      -0.441308       -12.0086
  58   2.0000      -0.433229       -11.7888
  59   2.0000      -0.426038       -11.5931
  60   2.0000      -0.418973       -11.4008
  61   2.0000      -0.411666       -11.2020
  62   2.0000      -0.405482       -11.0337
  63   2.0000      -0.346918        -9.4401
  64   2.0000      -0.333746        -9.0817
  65   2.0000      -0.324297        -8.8246
  66   2.0000      -0.290685        -7.9100
  67   0.0000       0.030279         0.8239
  68   0.0000       0.064657         1.7594
  69   0.0000       0.111086         3.0228
  70   0.0000       0.118134         3.2146
  71   0.0000       0.127136         3.4595

MULLIKEN ATOMIC CHARGES
-----------------------
   0 S :    0.123707
   1 C :   -0.106938
   2 C :   -0.110271
   3 C :    0.036133
   4 C :   -0.189395
   5 H :    0.023841
   6 C :    0.087538
   7 H :    0.059733
   8 H :    0.004812
   9 C :   -0.113246
  10 H :    0.031925
  11 H :    0.032418
  12 C :   -0.063858
  13 H :    0.045432
  14 H :    0.036744
  15 H :    0.043267
  16 S :    0.120779
  17 C :   -0.122961
  18 C :   -0.031948
  19 C :   -0.054738
  20 C :   -0.149364
  21 H :    0.018979
  22 C :    0.108576
  23 H :    0.002936
  24 H :    0.022065
  25 C :   -0.006884
  26 H :    0.021412
  27 H :    0.017038
  28 C :   -0.114407
  29 H :    0.039197
  30 H :    0.025203
  31 H :    0.048406
  32 H :    0.030603
  33 H :    0.083264
Sum of atomic charges:    0.0000000

LOEWDIN ATOMIC CHARGES
----------------------
   0 S :    0.437477
   1 C :   -0.214904
   2 C :   -0.065797
   3 C :   -0.059859
   4 C :   -0.199988
   5 H :    0.036645
   6 C :   -0.031672
   7 H :    0.046266
   8 H :    0.021303
   9 C :   -0.046746
  10 H :    0.026935
  11 H :    0.020931
  12 C :   -0.070530
  13 H :    0.029054
  14 H :    0.024001
  15 H :    0.035176
  16 S :    0.380192
  17 C :   -0.199008
  18 C :   -0.074960
  19 C :   -0.052847
  20 C :   -0.181066
  21 H :    0.030231
  22 C :   -0.021303
  23 H :    0.026898
  24 H :    0.030658
  25 C :   -0.036651
  26 H :    0.023592
  27 H :    0.017792
  28 C :   -0.083341
  29 H :    0.032442
  30 H :    0.023140
  31 H :    0.027601
  32 H :    0.019318
  33 H :    0.049021

  Mayer bond orders larger than 0.100000
B(  0-S ,  1-C ) :   1.1529 B(  0-S ,  4-C ) :   1.1690 B(  1-C ,  2-C ) :   1.5905
B(  1-C , 32-H ) :   0.9735 B(  2-C ,  3-C ) :   1.2374 B(  2-C ,  6-C ) :   1.0294
B(  3-C ,  4-C ) :   1.5673 B(  3-C ,  5-H ) :   0.9879 B(  4-C , 20-C ) :   1.0410
B(  6-C ,  7-H ) :   0.9379 B(  6-C ,  8-H ) :   0.9380 B(  6-C ,  9-C ) :   1.0619
B(  9-C , 10-H ) :   0.9612 B(  9-C , 11-H ) :   0.9576 B(  9-C , 12-C ) :   1.0655
B( 12-C , 13-H ) :   0.9751 B( 12-C , 14-H ) :   0.9778 B( 12-C , 15-H ) :   0.9730
B( 16-S , 17-C ) :   1.1323 B( 16-S , 20-C ) :   1.1256 B( 17-C , 18-C ) :   1.6585
B( 17-C , 33-H ) :   0.9518 B( 18-C , 19-C ) :   1.2142 B( 18-C , 21-H ) :   0.9817
B( 19-C , 20-C ) :   1.6093 B( 19-C , 22-C ) :   1.0253 B( 22-C , 23-H ) :   0.9343
B( 22-C , 24-H ) :   0.9364 B( 22-C , 25-C ) :   1.0479 B( 25-C , 26-H ) :   0.9572
B( 25-C , 27-H ) :   0.9519 B( 25-C , 28-C ) :   1.0738 B( 28-C , 29-H ) :   0.9659
B( 28-C , 30-H ) :   0.9770 B( 28-C , 31-H ) :   0.9763

Dispersion correction           -0.015579589
FINAL SINGLE POINT ENERGY     -1339.866827948079

DIPOLE MOMENT
-------------
                                X             Y             Z
Electronic contribution:     24.09791      -3.07113      -8.00088
Nuclear contribution   :    -24.44485       3.13658       8.53185
                        -----------------------------------------
Total Dipole Moment    :     -0.34694       0.06546       0.53097
                        -----------------------------------------
Magnitude (a.u.)       :      0.63763
Magnitude (Debye)      :      1.62073

Rotational constants in cm-1:     0.019281     0.009452     0.007751
Rotational constants in MHz :   578.022362   283.349869   232.365254

                             ****ORCA TERMINATED NORMALLY****
TOTAL RUN TIME: 0 days 0 hours 0 minutes 36 seconds 306 msec
