                         Program Version 4.2.1 -  RELEASE  -
|  1> ! wB97X-D3 SP def2-SVP
|  2> %pal
|  3> nprocs 16
|  4> end
|  5>
|  6> * xyz 0 1
|  7> S 	 -114.62 	 54.2544 	 113.242
|  8> C 	 -113.279 	 53.728 	 112.238
|  9> C 	 -112.421 	 54.7859 	 112.071
| 10> C 	 -112.76 	 55.9625 	 112.832
| 11> C 	 -113.983 	 55.837 	 113.417
| 12> H 	 -112.282 	 56.9059 	 112.904
| 13> C 	 -111.164 	 54.8235 	 111.266
| 14> H 	 -110.74 	 53.8392 	 111.454
| 15> H 	 -110.48 	 55.5343 	 111.769
| 16> C 	 -111.283 	 55.2056 	 109.778
| 17> H 	 -110.332 	 55.2933 	 109.288
| 18> H 	 -112.005 	 54.4726 	 109.264
| 19> C 	 -111.994 	 56.5884 	 109.617
| 20> H 	 -111.673 	 57.1791 	 110.437
| 21> H 	 -111.798 	 57.0024 	 108.621
| 22> H 	 -113.053 	 56.3255 	 109.728
| 23> S 	 -114.725 	 58.3638 	 113.65
| 24> C 	 -115.12 	 59.0953 	 115.185
| 25> C 	 -115.135 	 58.1245 	 116.173
| 26> C 	 -114.663 	 56.832 	 115.764
| 27> C 	 -114.464 	 56.8418 	 114.377
| 28> H 	 -115.515 	 58.4706 	 117.097
| 29> C 	 -114.632 	 55.6424 	 116.728
| 30> H 	 -115.37 	 55.0076 	 116.297
| 31> H 	 -114.914 	 55.9923 	 117.703
| 32> C 	 -113.184 	 55.0687 	 116.761
| 33> H 	 -112.53 	 55.6778 	 117.405
| 34> H 	 -112.646 	 55.0782 	 115.828
| 35> C 	 -113.25 	 53.679 	 117.239
| 36> H 	 -113.77 	 52.9908 	 116.491
| 37> H 	 -113.812 	 53.4976 	 118.146
| 38> H 	 -112.235 	 53.1842 	 117.327
| 39> H 	 -113.172 	 52.7541 	 111.71
| 40> H 	 -115.336 	 60.2352 	 115.361
| 41> *
| 42>
| 43>                          ****END OF INPUT****

CARTESIAN COORDINATES (ANGSTROEM)
---------------------------------
  S    -114.620000   54.254400  113.242000
  C    -113.279000   53.728000  112.238000
  C    -112.421000   54.785900  112.071000
  C    -112.760000   55.962500  112.832000
  C    -113.983000   55.837000  113.417000
  H    -112.282000   56.905900  112.904000
  C    -111.164000   54.823500  111.266000
  H    -110.740000   53.839200  111.454000
  H    -110.480000   55.534300  111.769000
  C    -111.283000   55.205600  109.778000
  H    -110.332000   55.293300  109.288000
  H    -112.005000   54.472600  109.264000
  C    -111.994000   56.588400  109.617000
  H    -111.673000   57.179100  110.437000
  H    -111.798000   57.002400  108.621000
  H    -113.053000   56.325500  109.728000
  S    -114.725000   58.363800  113.650000
  C    -115.120000   59.095300  115.185000
  C    -115.135000   58.124500  116.173000
  C    -114.663000   56.832000  115.764000
  C    -114.464000   56.841800  114.377000
  H    -115.515000   58.470600  117.097000
  C    -114.632000   55.642400  116.728000
  H    -115.370000   55.007600  116.297000
  H    -114.914000   55.992300  117.703000
  C    -113.184000   55.068700  116.761000
  H    -112.530000   55.677800  117.405000
  H    -112.646000   55.078200  115.828000
  C    -113.250000   53.679000  117.239000
  H    -113.770000   52.990800  116.491000
  H    -113.812000   53.497600  118.146000
  H    -112.235000   53.184200  117.327000
  H    -113.172000   52.754100  111.710000
  H    -115.336000   60.235200  115.361000

 Total Charge           Charge          ....    0
 Multiplicity           Mult            ....    1
 Number of Electrons    NEL             ....  134
 Basis Dimension        Dim             ....  322

ORBITAL ENERGIES
----------------

  NO   OCC          E(Eh)            E(eV)
   0   2.0000     -88.969359     -2420.9793
   1   2.0000     -88.964852     -2420.8567
   2   2.0000     -10.324530      -280.9447
   3   2.0000     -10.322704      -280.8950
   4   2.0000     -10.319655      -280.8121
   5   2.0000     -10.319360      -280.8041
   6   2.0000     -10.303756      -280.3795
   7   2.0000     -10.300974      -280.3037
   8   2.0000     -10.290771      -280.0261
   9   2.0000     -10.290482      -280.0183
  10   2.0000     -10.290059      -280.0067
  11   2.0000     -10.289316      -279.9865
  12   2.0000     -10.288802      -279.9725
  13   2.0000     -10.279679      -279.7243
  14   2.0000     -10.274241      -279.5763
  15   2.0000     -10.272818      -279.5376
  16   2.0000      -8.084136      -219.9805
  17   2.0000      -8.080165      -219.8725
  18   2.0000      -6.042707      -164.4304
  19   2.0000      -6.038593      -164.3185
  20   2.0000      -6.038529      -164.3167
  21   2.0000      -6.034934      -164.2189
  22   2.0000      -6.034461      -164.2060
  23   2.0000      -6.031123      -164.1152
  24   2.0000      -1.013494       -27.5786
  25   2.0000      -0.988180       -26.8898
  26   2.0000      -0.912696       -24.8357
  27   2.0000      -0.910752       -24.7828
  28   2.0000      -0.871893       -23.7254
  29   2.0000      -0.851240       -23.1634
  30   2.0000      -0.845698       -23.0126
  31   2.0000      -0.814290       -22.1579
  32   2.0000      -0.780451       -21.2372
  33   2.0000      -0.766776       -20.8650
  34   2.0000      -0.703109       -19.1326
  35   2.0000      -0.697235       -18.9727
  36   2.0000      -0.689197       -18.7540
  37   2.0000      -0.659801       -17.9541
  38   2.0000      -0.643106       -17.4998
  39   2.0000      -0.608572       -16.5601
  40   2.0000      -0.587372       -15.9832
  41   2.0000      -0.575967       -15.6729
  42   2.0000      -0.563634       -15.3373
  43   2.0000      -0.553488       -15.0612
  44   2.0000      -0.546997       -14.8846
  45   2.0000      -0.524159       -14.2631
  46   2.0000      -0.519002       -14.1228
  47   2.0000      -0.512925       -13.9574
  48   2.0000      -0.503514       -13.7013
  49   2.0000      -0.498973       -13.5777
  50   2.0000      -0.487186       -13.2570
  51   2.0000      -0.481795       -13.1103
  52   2.0000      -0.470288       -12.7972
  53   2.0000      -0.467551       -12.7227
  54   2.0000      -0.459119       -12.4933
  55   2.0000      -0.449064       -12.2196
  56   2.0000      -0.444222       -12.0879
  57   2.0000      -0.436610       -11.8808
  58   2.0000      -0.430379       -11.7112
  59   2.0000      -0.417850       -11.3703
  60   2.0000      -0.415091       -11.2952
  61   2.0000      -0.408557       -11.1174
  62   2.0000      -0.405904       -11.0452
  63   2.0000      -0.341635        -9.2964
  64   2.0000      -0.332917        -9.0591
  65   2.0000      -0.327084        -8.9004
  66   2.0000      -0.298780        -8.1302
  67   0.0000       0.036845         1.0026
  68   0.0000       0.070803         1.9266
  69   0.0000       0.113292         3.0828
  70   0.0000       0.122142         3.3237
  71   0.0000       0.126722         3.4483

MULLIKEN ATOMIC CHARGES
-----------------------
   0 S :    0.112688
   1 C :   -0.137230
   2 C :   -0.092206
   3 C :    0.026638
   4 C :   -0.137026
   5 H :    0.012580
   6 C :    0.052526
   7 H :    0.024103
   8 H :    0.028417
   9 C :   -0.076600
  10 H :    0.036063
  11 H :    0.037301
  12 C :   -0.059455
  13 H :    0.023276
  14 H :    0.044361
  15 H :    0.048988
  16 S :    0.114960
  17 C :   -0.147497
  18 C :   -0.037705
  19 C :   -0.039000
  20 C :   -0.199098
  21 H :    0.002229
  22 C :    0.125252
  23 H :    0.036835
  24 H :    0.016121
  25 C :   -0.053966
  26 H :    0.026979
  27 H :    0.040700
  28 C :   -0.072892
  29 H :    0.028387
  30 H :    0.024276
  31 H :    0.032677
  32 H :    0.065033
  33 H :    0.092282
Sum of atomic charges:    0.0000000

LOEWDIN ATOMIC CHARGES
----------------------
   0 S :    0.419808
   1 C :   -0.206335
   2 C :   -0.063738
   3 C :   -0.061966
   4 C :   -0.210942
   5 H :    0.025223
   6 C :   -0.040259
   7 H :    0.030106
   8 H :    0.032235
   9 C :   -0.037732
  10 H :    0.019614
  11 H :    0.030009
  12 C :   -0.062848
  13 H :    0.015008
  14 H :    0.027997
  15 H :    0.031247
  16 S :    0.434975
  17 C :   -0.216748
  18 C :   -0.074259
  19 C :   -0.055936
  20 C :   -0.211481
  21 H :    0.023948
  22 C :   -0.013584
  23 H :    0.029548
  24 H :    0.029759
  25 C :   -0.042085
  26 H :    0.027716
  27 H :    0.027724
  28 C :   -0.076585
  29 H :    0.027764
  30 H :    0.018722
  31 H :    0.028027
  32 H :    0.042082
  33 H :    0.052984

  Mayer bond orders larger than 0.100000
B(  0-S ,  1-C ) :   1.1250 B(  0-S ,  4-C ) :   1.1586 B(  1-C ,  2-C ) :   1.6237
B(  1-C , 32-H ) :   0.9659 B(  2-C ,  3-C ) :   1.2204 B(  2-C ,  6-C ) :   1.0131
B(  3-C ,  4-C ) :   1.5865 B(  3-C ,  5-H ) :   0.9934 B(  4-C , 20-C ) :   0.9860
B(  6-C ,  7-H ) :   0.9392 B(  6-C ,  8-H ) :   0.9432 B(  6-C ,  9-C ) :   1.0704
B(  9-C , 10-H ) :   0.9612 B(  9-C , 11-H ) :   0.9624 B(  9-C , 12-C ) :   1.0627
B( 12-C , 13-H ) :   0.9778 B( 12-C , 14-H ) :   0.9754 B( 12-C , 15-H ) :   0.9760
B( 16-S , 17-C ) :   1.1544 B( 16-S , 20-C ) :   1.1808 B( 17-C , 18-C ) :   1.6086
B( 17-C , 20-C ) :   0.1009 B( 17-C , 33-H ) :   0.9531 B( 18-C , 19-C ) :   1.2421
B( 18-C , 21-H ) :   0.9948 B( 19-C , 20-C ) :   1.5638 B( 19-C , 22-C ) :   1.0241
B( 22-C , 23-H ) :   0.9488 B( 22-C , 24-H ) :   0.9255 B( 22-C , 25-C ) :   1.0474
B( 25-C , 26-H ) :   0.9475 B( 25-C , 27-H ) :   0.9624 B( 25-C , 28-C ) :   1.0915
B( 28-C , 29-H ) :   0.9720 B( 28-C , 30-H ) :   0.9692 B( 28-C , 31-H ) :   0.9698

Dispersion correction           -0.015750685
FINAL SINGLE POINT ENERGY     -1339.868913351410

DIPOLE MOMENT
-------------
                                X             Y             Z
Electronic contribution:    -13.30973       7.33397       0.11497
Nuclear contribution   :     13.64209      -7.35900      -0.01921
                        -----------------------------------------
Total Dipole Moment    :      0.33236      -0.02503       0.09576
                        -----------------------------------------
Magnitude (a.u.)       :      0.34678
Magnitude (Debye)      :      0.88145

Rotational constants in cm-1:     0.019110     0.010051     0.007522
Rotational constants in MHz :   572.907216   301.327763   225.513972

                             ****ORCA TERMINATED NORMALLY****
TOTAL RUN TIME: 0 days 0 hours 0 minutes 34 seconds 628 msec
