                         Program Version 4.2.1 -  RELEASE  -
|  1> ! wB97X-D3 SP def2-SVP
|  2> %pal
|  3> nprocs 16
|  4> end
|  5>
|  6> * xyz 0 1
|  7> S 	 -38.1321 	 49.488 	 102.834
|  8> C 	 -36.6277 	 49.2121 	 103.575
|  9> C 	 -35.9374 	 50.4014 	 103.56
| 10> C 	 -36.6113 	 51.5267 	 102.917
| 11> C 	 -37.8502 	 51.1249 	 102.501
| 12> H 	 -36.2999 	 52.5095 	 102.878
| 13> C 	 -34.6415 	 50.7278 	 104.202
| 14> H 	 -34.8441 	 51.0063 	 105.195
| 15> H 	 -34.2208 	 51.5436 	 103.654
| 16> C 	 -33.6092 	 49.5427 	 104.394
| 17> H 	 -32.7835 	 49.8151 	 105.046
| 18> H 	 -34.1198 	 48.7226 	 104.914
| 19> C 	 -33.1885 	 48.8785 	 103.042
| 20> H 	 -34.0355 	 48.3165 	 102.572
| 21> H 	 -32.6739 	 49.5234 	 102.407
| 22> H 	 -32.5914 	 48.0102 	 103.281
| 23> S 	 -40.3012 	 52.021 	 102.676
| 24> C 	 -41.0329 	 53.099 	 101.539
| 25> C 	 -40.0233 	 53.5378 	 100.719
| 26> C 	 -38.7311 	 52.9993 	 100.951
| 27> C 	 -38.8057 	 51.9391 	 101.823
| 28> H 	 -40.2292 	 54.2724 	 100.015
| 29> C 	 -37.5039 	 53.4755 	 100.232
| 30> H 	 -36.7006 	 53.0177 	 100.745
| 31> H 	 -37.472 	 54.5454 	 100.186
| 32> C 	 -37.484 	 52.9865 	 98.7529
| 33> H 	 -38.4723 	 53.2155 	 98.259
| 34> H 	 -37.2986 	 51.9235 	 98.6851
| 35> C 	 -36.3352 	 53.6563 	 97.9585
| 36> H 	 -36.2599 	 53.4402 	 96.9106
| 37> H 	 -35.3672 	 53.4628 	 98.3654
| 38> H 	 -36.4316 	 54.7943 	 98.0788
| 39> H 	 -36.1294 	 48.261 	 103.815
| 40> H 	 -42.0304 	 53.4428 	 101.518
| 41> *
| 42>
| 43>                          ****END OF INPUT****

CARTESIAN COORDINATES (ANGSTROEM)
---------------------------------
  S    -38.132100   49.488000  102.834000
  C    -36.627700   49.212100  103.575000
  C    -35.937400   50.401400  103.560000
  C    -36.611300   51.526700  102.917000
  C    -37.850200   51.124900  102.501000
  H    -36.299900   52.509500  102.878000
  C    -34.641500   50.727800  104.202000
  H    -34.844100   51.006300  105.195000
  H    -34.220800   51.543600  103.654000
  C    -33.609200   49.542700  104.394000
  H    -32.783500   49.815100  105.046000
  H    -34.119800   48.722600  104.914000
  C    -33.188500   48.878500  103.042000
  H    -34.035500   48.316500  102.572000
  H    -32.673900   49.523400  102.407000
  H    -32.591400   48.010200  103.281000
  S    -40.301200   52.021000  102.676000
  C    -41.032900   53.099000  101.539000
  C    -40.023300   53.537800  100.719000
  C    -38.731100   52.999300  100.951000
  C    -38.805700   51.939100  101.823000
  H    -40.229200   54.272400  100.015000
  C    -37.503900   53.475500  100.232000
  H    -36.700600   53.017700  100.745000
  H    -37.472000   54.545400  100.186000
  C    -37.484000   52.986500   98.752900
  H    -38.472300   53.215500   98.259000
  H    -37.298600   51.923500   98.685100
  C    -36.335200   53.656300   97.958500
  H    -36.259900   53.440200   96.910600
  H    -35.367200   53.462800   98.365400
  H    -36.431600   54.794300   98.078800
  H    -36.129400   48.261000  103.815000
  H    -42.030400   53.442800  101.518000

 Total Charge           Charge          ....    0
 Multiplicity           Mult            ....    1
 Number of Electrons    NEL             ....  134
 Basis Dimension        Dim             ....  322

ORBITAL ENERGIES
----------------

  NO   OCC          E(Eh)            E(eV)
   0   2.0000     -88.964668     -2420.8517
   1   2.0000     -88.958076     -2420.6723
   2   2.0000     -10.322478      -280.8889
   3   2.0000     -10.318970      -280.7934
   4   2.0000     -10.310055      -280.5509
   5   2.0000     -10.309797      -280.5438
   6   2.0000     -10.299059      -280.2516
   7   2.0000     -10.298394      -280.2335
   8   2.0000     -10.291864      -280.0559
   9   2.0000     -10.290248      -280.0119
  10   2.0000     -10.288551      -279.9657
  11   2.0000     -10.286903      -279.9209
  12   2.0000     -10.284382      -279.8523
  13   2.0000     -10.283420      -279.8261
  14   2.0000     -10.278614      -279.6953
  15   2.0000     -10.275030      -279.5978
  16   2.0000      -8.081188      -219.9003
  17   2.0000      -8.074019      -219.7052
  18   2.0000      -6.039652      -164.3473
  19   2.0000      -6.035216      -164.2266
  20   2.0000      -6.032552      -164.1541
  21   2.0000      -6.032086      -164.1414
  22   2.0000      -6.028316      -164.0388
  23   2.0000      -6.024691      -163.9402
  24   2.0000      -1.022071       -27.8120
  25   2.0000      -0.995154       -27.0795
  26   2.0000      -0.912148       -24.8208
  27   2.0000      -0.909774       -24.7562
  28   2.0000      -0.876610       -23.8538
  29   2.0000      -0.853625       -23.2283
  30   2.0000      -0.846092       -23.0233
  31   2.0000      -0.816778       -22.2257
  32   2.0000      -0.783546       -21.3214
  33   2.0000      -0.775649       -21.1065
  34   2.0000      -0.710830       -19.3427
  35   2.0000      -0.705513       -19.1980
  36   2.0000      -0.696851       -18.9623
  37   2.0000      -0.670713       -18.2510
  38   2.0000      -0.647199       -17.6112
  39   2.0000      -0.610589       -16.6150
  40   2.0000      -0.597146       -16.2492
  41   2.0000      -0.579479       -15.7684
  42   2.0000      -0.571722       -15.5574
  43   2.0000      -0.558620       -15.2008
  44   2.0000      -0.536603       -14.6017
  45   2.0000      -0.529699       -14.4139
  46   2.0000      -0.524378       -14.2690
  47   2.0000      -0.518335       -14.1046
  48   2.0000      -0.509683       -13.8692
  49   2.0000      -0.503761       -13.7080
  50   2.0000      -0.498192       -13.5565
  51   2.0000      -0.489153       -13.3105
  52   2.0000      -0.471817       -12.8388
  53   2.0000      -0.466228       -12.6867
  54   2.0000      -0.459595       -12.5062
  55   2.0000      -0.447515       -12.1775
  56   2.0000      -0.442982       -12.0542
  57   2.0000      -0.433448       -11.7947
  58   2.0000      -0.431866       -11.7517
  59   2.0000      -0.423212       -11.5162
  60   2.0000      -0.421424       -11.4675
  61   2.0000      -0.416134       -11.3236
  62   2.0000      -0.412539       -11.2258
  63   2.0000      -0.353684        -9.6242
  64   2.0000      -0.325526        -8.8580
  65   2.0000      -0.322410        -8.7732
  66   2.0000      -0.294341        -8.0094
  67   0.0000       0.031935         0.8690
  68   0.0000       0.077222         2.1013
  69   0.0000       0.108604         2.9553
  70   0.0000       0.129482         3.5234
  71   0.0000       0.131898         3.5891

MULLIKEN ATOMIC CHARGES
-----------------------
   0 S :    0.129219
   1 C :   -0.121236
   2 C :   -0.124067
   3 C :    0.026657
   4 C :   -0.138080
   5 H :   -0.003202
   6 C :    0.108522
   7 H :    0.034811
   8 H :    0.018852
   9 C :   -0.105413
  10 H :    0.034202
  11 H :    0.019675
  12 C :   -0.040210
  13 H :    0.033011
  14 H :    0.032323
  15 H :    0.021409
  16 S :    0.089632
  17 C :   -0.056009
  18 C :   -0.025393
  19 C :   -0.056231
  20 C :   -0.130150
  21 H :   -0.013931
  22 C :    0.129893
  23 H :   -0.000294
  24 H :    0.020387
  25 C :   -0.094273
  26 H :    0.040019
  27 H :    0.036159
  28 C :   -0.048547
  29 H :    0.037108
  30 H :    0.018995
  31 H :    0.023415
  32 H :    0.060825
  33 H :    0.041925
Sum of atomic charges:    0.0000000

LOEWDIN ATOMIC CHARGES
----------------------
   0 S :    0.455393
   1 C :   -0.232955
   2 C :   -0.055152
   3 C :   -0.059450
   4 C :   -0.213114
   5 H :    0.019699
   6 C :   -0.028479
   7 H :    0.032654
   8 H :    0.025395
   9 C :   -0.039523
  10 H :    0.024336
  11 H :    0.021625
  12 C :   -0.066428
  13 H :    0.031846
  14 H :    0.014044
  15 H :    0.025391
  16 S :    0.424178
  17 C :   -0.184794
  18 C :   -0.064930
  19 C :   -0.056498
  20 C :   -0.202033
  21 H :    0.016656
  22 C :   -0.021045
  23 H :    0.024288
  24 H :    0.030011
  25 C :   -0.034796
  26 H :    0.027964
  27 H :    0.024671
  28 C :   -0.071947
  29 H :    0.023132
  30 H :    0.018835
  31 H :    0.027643
  32 H :    0.038232
  33 H :    0.025153

  Mayer bond orders larger than 0.100000
B(  0-S ,  1-C ) :   1.1262 B(  0-S ,  4-C ) :   1.1847 B(  1-C ,  2-C ) :   1.6034
B(  1-C , 32-H ) :   0.9640 B(  2-C ,  3-C ) :   1.2348 B(  2-C ,  6-C ) :   1.0196
B(  3-C ,  4-C ) :   1.5517 B(  3-C ,  5-H ) :   1.0048 B(  4-C , 20-C ) :   1.0068
B(  6-C ,  7-H ) :   0.9315 B(  6-C ,  8-H ) :   0.9426 B(  6-C ,  9-C ) :   1.0749
B(  9-C , 10-H ) :   0.9592 B(  9-C , 11-H ) :   0.9512 B(  9-C , 12-C ) :   1.0794
B( 12-C , 13-H ) :   0.9691 B( 12-C , 14-H ) :   0.9815 B( 12-C , 15-H ) :   0.9721
B( 16-S , 17-C ) :   1.1511 B( 16-S , 20-C ) :   1.1674 B( 17-C , 18-C ) :   1.5861
B( 17-C , 20-C ) :   0.1072 B( 17-C , 33-H ) :   0.9793 B( 18-C , 19-C ) :   1.2372
B( 18-C , 21-H ) :   1.0013 B( 19-C , 20-C ) :   1.5761 B( 19-C , 22-C ) :   1.0623
B( 22-C , 23-H ) :   0.9201 B( 22-C , 24-H ) :   0.9288 B( 22-C , 25-C ) :   1.0688
B( 25-C , 26-H ) :   0.9616 B( 25-C , 27-H ) :   0.9547 B( 25-C , 28-C ) :   1.0753
B( 28-C , 29-H ) :   0.9754 B( 28-C , 30-H ) :   0.9736 B( 28-C , 31-H ) :   0.9745

Dispersion correction           -0.013908585
FINAL SINGLE POINT ENERGY     -1339.860632736866

DIPOLE MOMENT
-------------
                                X             Y             Z
Electronic contribution:    -25.12393      -3.67576       9.96285
Nuclear contribution   :     25.69107       4.01146     -10.06451
                        -----------------------------------------
Total Dipole Moment    :      0.56714       0.33570      -0.10166
                        -----------------------------------------
Magnitude (a.u.)       :      0.66684
Magnitude (Debye)      :      1.69497

Rotational constants in cm-1:     0.019096     0.008627     0.006546
Rotational constants in MHz :   572.494390   258.627007   196.235736

                             ****ORCA TERMINATED NORMALLY****
TOTAL RUN TIME: 0 days 0 hours 0 minutes 27 seconds 892 msec
