                         Program Version 4.2.1 -  RELEASE  -
|  1> ! wB97X-D3 SP def2-SVP
|  2> %pal
|  3> nprocs 16
|  4> end
|  5>
|  6> * xyz 0 1
|  7> S 	 60.7359 	 21.3363 	 81.4636
|  8> C 	 60.5891 	 21.6031 	 83.249
|  9> C 	 60.07 	 20.4318 	 83.7632
| 10> C 	 59.6477 	 19.4511 	 82.8106
| 11> C 	 59.851 	 19.8298 	 81.4993
| 12> H 	 59.1993 	 18.4946 	 83.0382
| 13> C 	 59.8596 	 20.0221 	 85.2042
| 14> H 	 60.7917 	 19.6222 	 85.6077
| 15> H 	 59.1169 	 19.1469 	 85.1686
| 16> C 	 59.2716 	 21.1591 	 86.0974
| 17> H 	 59.2923 	 20.9286 	 87.1746
| 18> H 	 59.9188 	 22.0184 	 85.9283
| 19> C 	 57.7622 	 21.4318 	 85.7058
| 20> H 	 57.0559 	 20.6928 	 85.9731
| 21> H 	 57.3768 	 22.3111 	 86.2515
| 22> H 	 57.6774 	 21.6197 	 84.6654
| 23> S 	 60.8957 	 18.7704 	 79.122
| 24> C 	 59.9284 	 17.7976 	 78.1285
| 25> C 	 58.6562 	 17.7047 	 78.5717
| 26> C 	 58.5046 	 18.3872 	 79.8675
| 27> C 	 59.6233 	 19.0071 	 80.2476
| 28> H 	 57.8659 	 17.0589 	 78.1371
| 29> C 	 57.2064 	 18.3595 	 80.5836
| 30> H 	 56.5015 	 18.5065 	 79.8028
| 31> H 	 57.1522 	 19.2202 	 81.2808
| 32> C 	 56.7876 	 17.0669 	 81.3458
| 33> H 	 57.1548 	 17.0798 	 82.3722
| 34> H 	 57.2365 	 16.2191 	 80.8377
| 35> C 	 55.2323 	 16.9205 	 81.3766
| 36> H 	 55.045 	 15.9949 	 81.981
| 37> H 	 54.7537 	 16.9005 	 80.3482
| 38> H 	 54.7942 	 17.7913 	 81.9329
| 39> H 	 61.0394 	 22.4637 	 83.7063
| 40> H 	 60.2502 	 17.4762 	 77.1396
| 41> *
| 42>
| 43>                          ****END OF INPUT****

CARTESIAN COORDINATES (ANGSTROEM)
---------------------------------
  S     60.735900   21.336300   81.463600
  C     60.589100   21.603100   83.249000
  C     60.070000   20.431800   83.763200
  C     59.647700   19.451100   82.810600
  C     59.851000   19.829800   81.499300
  H     59.199300   18.494600   83.038200
  C     59.859600   20.022100   85.204200
  H     60.791700   19.622200   85.607700
  H     59.116900   19.146900   85.168600
  C     59.271600   21.159100   86.097400
  H     59.292300   20.928600   87.174600
  H     59.918800   22.018400   85.928300
  C     57.762200   21.431800   85.705800
  H     57.055900   20.692800   85.973100
  H     57.376800   22.311100   86.251500
  H     57.677400   21.619700   84.665400
  S     60.895700   18.770400   79.122000
  C     59.928400   17.797600   78.128500
  C     58.656200   17.704700   78.571700
  C     58.504600   18.387200   79.867500
  C     59.623300   19.007100   80.247600
  H     57.865900   17.058900   78.137100
  C     57.206400   18.359500   80.583600
  H     56.501500   18.506500   79.802800
  H     57.152200   19.220200   81.280800
  C     56.787600   17.066900   81.345800
  H     57.154800   17.079800   82.372200
  H     57.236500   16.219100   80.837700
  C     55.232300   16.920500   81.376600
  H     55.045000   15.994900   81.981000
  H     54.753700   16.900500   80.348200
  H     54.794200   17.791300   81.932900
  H     61.039400   22.463700   83.706300
  H     60.250200   17.476200   77.139600

 Total Charge           Charge          ....    0
 Multiplicity           Mult            ....    1
 Number of Electrons    NEL             ....  134
 Basis Dimension        Dim             ....  322

ORBITAL ENERGIES
----------------

  NO   OCC          E(Eh)            E(eV)
   0   2.0000     -88.963219     -2420.8123
   1   2.0000     -88.961676     -2420.7703
   2   2.0000     -10.335286      -281.2374
   3   2.0000     -10.322020      -280.8764
   4   2.0000     -10.321651      -280.8664
   5   2.0000     -10.313847      -280.6540
   6   2.0000     -10.304843      -280.4090
   7   2.0000     -10.297522      -280.2098
   8   2.0000     -10.296027      -280.1691
   9   2.0000     -10.295565      -280.1566
  10   2.0000     -10.294112      -280.1170
  11   2.0000     -10.293222      -280.0928
  12   2.0000     -10.292486      -280.0728
  13   2.0000     -10.290766      -280.0260
  14   2.0000     -10.285486      -279.8823
  15   2.0000     -10.272814      -279.5375
  16   2.0000      -8.078651      -219.8313
  17   2.0000      -8.077331      -219.7954
  18   2.0000      -6.037128      -164.2786
  19   2.0000      -6.035983      -164.2475
  20   2.0000      -6.032847      -164.1621
  21   2.0000      -6.031881      -164.1358
  22   2.0000      -6.029303      -164.0657
  23   2.0000      -6.028002      -164.0303
  24   2.0000      -1.014574       -27.6080
  25   2.0000      -0.987358       -26.8674
  26   2.0000      -0.910094       -24.7649
  27   2.0000      -0.905576       -24.6420
  28   2.0000      -0.865259       -23.5449
  29   2.0000      -0.850901       -23.1542
  30   2.0000      -0.841284       -22.8925
  31   2.0000      -0.816488       -22.2178
  32   2.0000      -0.778831       -21.1931
  33   2.0000      -0.772371       -21.0173
  34   2.0000      -0.711025       -19.3480
  35   2.0000      -0.701164       -19.0796
  36   2.0000      -0.689227       -18.7548
  37   2.0000      -0.665386       -18.1061
  38   2.0000      -0.644319       -17.5328
  39   2.0000      -0.611413       -16.6374
  40   2.0000      -0.596663       -16.2360
  41   2.0000      -0.571938       -15.5632
  42   2.0000      -0.562371       -15.3029
  43   2.0000      -0.549179       -14.9439
  44   2.0000      -0.539526       -14.6812
  45   2.0000      -0.524330       -14.2678
  46   2.0000      -0.519755       -14.1433
  47   2.0000      -0.514903       -14.0112
  48   2.0000      -0.508080       -13.8256
  49   2.0000      -0.494307       -13.4508
  50   2.0000      -0.489780       -13.3276
  51   2.0000      -0.476234       -12.9590
  52   2.0000      -0.470560       -12.8046
  53   2.0000      -0.469715       -12.7816
  54   2.0000      -0.455565       -12.3965
  55   2.0000      -0.449424       -12.2295
  56   2.0000      -0.443979       -12.0813
  57   2.0000      -0.441777       -12.0214
  58   2.0000      -0.428457       -11.6589
  59   2.0000      -0.423785       -11.5318
  60   2.0000      -0.421783       -11.4773
  61   2.0000      -0.417872       -11.3709
  62   2.0000      -0.411093       -11.1864
  63   2.0000      -0.351108        -9.5541
  64   2.0000      -0.328186        -8.9304
  65   2.0000      -0.327254        -8.9050
  66   2.0000      -0.303511        -8.2590
  67   0.0000       0.034903         0.9498
  68   0.0000       0.075328         2.0498
  69   0.0000       0.110135         2.9969
  70   0.0000       0.124182         3.3792
  71   0.0000       0.126664         3.4467

MULLIKEN ATOMIC CHARGES
-----------------------
   0 S :    0.078957
   1 C :   -0.141218
   2 C :   -0.060996
   3 C :    0.016959
   4 C :   -0.134351
   5 H :    0.008742
   6 C :    0.032213
   7 H :    0.048304
   8 H :    0.030526
   9 C :   -0.072122
  10 H :    0.035724
  11 H :    0.030657
  12 C :   -0.048799
  13 H :    0.022569
  14 H :    0.028859
  15 H :    0.036289
  16 S :    0.110995
  17 C :   -0.080768
  18 C :   -0.033687
  19 C :   -0.075165
  20 C :   -0.132559
  21 H :    0.032516
  22 C :    0.060910
  23 H :    0.010341
  24 H :    0.035915
  25 C :   -0.059349
  26 H :    0.032244
  27 H :    0.028015
  28 C :   -0.101228
  29 H :    0.047486
  30 H :    0.050593
  31 H :    0.042589
  32 H :    0.057571
  33 H :    0.061264
Sum of atomic charges:    0.0000000

LOEWDIN ATOMIC CHARGES
----------------------
   0 S :    0.379552
   1 C :   -0.182370
   2 C :   -0.061440
   3 C :   -0.071507
   4 C :   -0.176756
   5 H :    0.030033
   6 C :   -0.034099
   7 H :    0.033161
   8 H :    0.032792
   9 C :   -0.036516
  10 H :    0.025650
  11 H :    0.021441
  12 C :   -0.063222
  13 H :    0.019260
  14 H :    0.028731
  15 H :    0.021463
  16 S :    0.429824
  17 C :   -0.194998
  18 C :   -0.075801
  19 C :   -0.061016
  20 C :   -0.210248
  21 H :    0.037291
  22 C :   -0.035896
  23 H :    0.026648
  24 H :    0.034161
  25 C :   -0.036615
  26 H :    0.021984
  27 H :    0.021071
  28 C :   -0.074788
  29 H :    0.031847
  30 H :    0.030480
  31 H :    0.029062
  32 H :    0.028254
  33 H :    0.032567

  Mayer bond orders larger than 0.100000
B(  0-S ,  1-C ) :   1.1125 B(  0-S ,  4-C ) :   1.1657 B(  1-C ,  2-C ) :   1.5901
B(  1-C , 32-H ) :   0.9834 B(  2-C ,  3-C ) :   1.2370 B(  2-C ,  6-C ) :   1.0032
B(  3-C ,  4-C ) :   1.5733 B(  3-C ,  5-H ) :   0.9956 B(  4-C , 20-C ) :   0.9887
B(  6-C ,  7-H ) :   0.9362 B(  6-C ,  8-H ) :   0.9537 B(  6-C ,  9-C ) :   1.0649
B(  9-C , 10-H ) :   0.9592 B(  9-C , 11-H ) :   0.9587 B(  9-C , 12-C ) :   1.0678
B( 12-C , 13-H ) :   0.9764 B( 12-C , 14-H ) :   0.9751 B( 12-C , 15-H ) :   0.9798
B( 16-S , 17-C ) :   1.1636 B( 16-S , 20-C ) :   1.1263 B( 17-C , 18-C ) :   1.6275
B( 17-C , 33-H ) :   0.9632 B( 18-C , 19-C ) :   1.2117 B( 18-C , 21-H ) :   0.9853
B( 19-C , 20-C ) :   1.6658 B( 19-C , 22-C ) :   1.0620 B( 22-C , 23-H ) :   0.9326
B( 22-C , 24-H ) :   0.9247 B( 22-C , 25-C ) :   1.0533 B( 25-C , 26-H ) :   0.9516
B( 25-C , 27-H ) :   0.9608 B( 25-C , 28-C ) :   1.0747 B( 28-C , 29-H ) :   0.9740
B( 28-C , 30-H ) :   0.9753 B( 28-C , 31-H ) :   0.9759

Dispersion correction           -0.014307872
FINAL SINGLE POINT ENERGY     -1339.885611163500

DIPOLE MOMENT
-------------
                                X             Y             Z
Electronic contribution:     22.30480       5.47468     -20.09117
Nuclear contribution   :    -22.71507      -5.81555      20.44925
                        -----------------------------------------
Total Dipole Moment    :     -0.41027      -0.34087       0.35808
                        -----------------------------------------
Magnitude (a.u.)       :      0.64244
Magnitude (Debye)      :      1.63295

Rotational constants in cm-1:     0.017761     0.009282     0.006522
Rotational constants in MHz :   532.452862   278.261170   195.517820

                             ****ORCA TERMINATED NORMALLY****
TOTAL RUN TIME: 0 days 0 hours 0 minutes 30 seconds 469 msec
