                         Program Version 4.2.1 -  RELEASE  -
|  1> ! wB97X-D3 SP def2-SVP
|  2> %pal
|  3> nprocs 16
|  4> end
|  5>
|  6> * xyz 0 1
|  7> S 	 -41.5547 	 37.495 	 76.8835
|  8> C 	 -41.5938 	 36.99 	 78.5033
|  9> C 	 -40.2662 	 36.8003 	 78.9687
| 10> C 	 -39.3356 	 36.9736 	 77.9542
| 11> C 	 -39.8142 	 37.3474 	 76.7051
| 12> H 	 -38.322 	 36.9119 	 78.1743
| 13> C 	 -39.8143 	 36.4706 	 80.3425
| 14> H 	 -38.8165 	 36.9468 	 80.4153
| 15> H 	 -39.6706 	 35.4277 	 80.5815
| 16> C 	 -40.7619 	 37.0759 	 81.3889
| 17> H 	 -41.6835 	 36.5095 	 81.3304
| 18> H 	 -40.4248 	 36.8187 	 82.4228
| 19> C 	 -41.087 	 38.5693 	 81.2673
| 20> H 	 -40.2552 	 39.1838 	 81.6169
| 21> H 	 -41.239 	 38.8957 	 80.2008
| 22> H 	 -42.0566 	 38.8052 	 81.8375
| 23> S 	 -39.3563 	 39.2581 	 74.867
| 24> C 	 -38.0969 	 39.1411 	 73.7082
| 25> C 	 -37.5713 	 37.841 	 73.7331
| 26> C 	 -38.1175 	 37.0181 	 74.7956
| 27> C 	 -39.0526 	 37.6811 	 75.5639
| 28> H 	 -36.7845 	 37.5585 	 73.0516
| 29> C 	 -37.6194 	 35.6255 	 75.0275
| 30> H 	 -37.4357 	 35.4735 	 76.103
| 31> H 	 -36.6993 	 35.5001 	 74.5433
| 32> C 	 -38.523 	 34.4079 	 74.6465
| 33> H 	 -39.4118 	 34.3858 	 75.2765
| 34> H 	 -37.9389 	 33.5661 	 75.046
| 35> C 	 -38.6965 	 34.1226 	 73.1479
| 36> H 	 -39.0389 	 35.0369 	 72.6659
| 37> H 	 -39.4423 	 33.3325 	 73.0646
| 38> H 	 -37.715 	 33.7666 	 72.724
| 39> H 	 -42.4822 	 37.0367 	 79.1068
| 40> H 	 -37.8539 	 40.0271 	 73.1426
| 41> *
| 42>
| 43>                          ****END OF INPUT****

CARTESIAN COORDINATES (ANGSTROEM)
---------------------------------
  S    -41.554700   37.495000   76.883500
  C    -41.593800   36.990000   78.503300
  C    -40.266200   36.800300   78.968700
  C    -39.335600   36.973600   77.954200
  C    -39.814200   37.347400   76.705100
  H    -38.322000   36.911900   78.174300
  C    -39.814300   36.470600   80.342500
  H    -38.816500   36.946800   80.415300
  H    -39.670600   35.427700   80.581500
  C    -40.761900   37.075900   81.388900
  H    -41.683500   36.509500   81.330400
  H    -40.424800   36.818700   82.422800
  C    -41.087000   38.569300   81.267300
  H    -40.255200   39.183800   81.616900
  H    -41.239000   38.895700   80.200800
  H    -42.056600   38.805200   81.837500
  S    -39.356300   39.258100   74.867000
  C    -38.096900   39.141100   73.708200
  C    -37.571300   37.841000   73.733100
  C    -38.117500   37.018100   74.795600
  C    -39.052600   37.681100   75.563900
  H    -36.784500   37.558500   73.051600
  C    -37.619400   35.625500   75.027500
  H    -37.435700   35.473500   76.103000
  H    -36.699300   35.500100   74.543300
  C    -38.523000   34.407900   74.646500
  H    -39.411800   34.385800   75.276500
  H    -37.938900   33.566100   75.046000
  C    -38.696500   34.122600   73.147900
  H    -39.038900   35.036900   72.665900
  H    -39.442300   33.332500   73.064600
  H    -37.715000   33.766600   72.724000
  H    -42.482200   37.036700   79.106800
  H    -37.853900   40.027100   73.142600

 Total Charge           Charge          ....    0
 Multiplicity           Mult            ....    1
 Number of Electrons    NEL             ....  134
 Basis Dimension        Dim             ....  322

ORBITAL ENERGIES
----------------

  NO   OCC          E(Eh)            E(eV)
   0   2.0000     -88.968539     -2420.9570
   1   2.0000     -88.960354     -2420.7343
   2   2.0000     -10.326854      -281.0080
   3   2.0000     -10.323020      -280.9037
   4   2.0000     -10.320088      -280.8239
   5   2.0000     -10.313733      -280.6509
   6   2.0000     -10.304625      -280.4031
   7   2.0000     -10.299156      -280.2543
   8   2.0000     -10.295911      -280.1660
   9   2.0000     -10.291003      -280.0324
  10   2.0000     -10.287632      -279.9407
  11   2.0000     -10.285757      -279.8897
  12   2.0000     -10.283632      -279.8319
  13   2.0000     -10.283174      -279.8194
  14   2.0000     -10.283103      -279.8175
  15   2.0000     -10.278888      -279.7028
  16   2.0000      -8.083628      -219.9667
  17   2.0000      -8.076300      -219.7673
  18   2.0000      -6.041988      -164.4108
  19   2.0000      -6.037818      -164.2974
  20   2.0000      -6.034785      -164.2149
  21   2.0000      -6.034663      -164.2115
  22   2.0000      -6.030440      -164.0966
  23   2.0000      -6.027337      -164.0122
  24   2.0000      -1.012852       -27.5611
  25   2.0000      -0.989504       -26.9258
  26   2.0000      -0.915510       -24.9123
  27   2.0000      -0.905958       -24.6524
  28   2.0000      -0.872899       -23.7528
  29   2.0000      -0.853088       -23.2137
  30   2.0000      -0.847240       -23.0546
  31   2.0000      -0.808321       -21.9955
  32   2.0000      -0.783458       -21.3190
  33   2.0000      -0.774681       -21.0801
  34   2.0000      -0.709774       -19.3139
  35   2.0000      -0.700105       -19.0508
  36   2.0000      -0.687636       -18.7115
  37   2.0000      -0.670117       -18.2348
  38   2.0000      -0.647116       -17.6089
  39   2.0000      -0.614872       -16.7315
  40   2.0000      -0.592875       -16.1329
  41   2.0000      -0.576015       -15.6742
  42   2.0000      -0.555354       -15.1119
  43   2.0000      -0.552353       -15.0303
  44   2.0000      -0.545159       -14.8345
  45   2.0000      -0.532292       -14.4844
  46   2.0000      -0.518736       -14.1155
  47   2.0000      -0.516207       -14.0467
  48   2.0000      -0.507190       -13.8013
  49   2.0000      -0.494529       -13.4568
  50   2.0000      -0.489828       -13.3289
  51   2.0000      -0.482075       -13.1179
  52   2.0000      -0.476251       -12.9594
  53   2.0000      -0.469150       -12.7662
  54   2.0000      -0.463328       -12.6078
  55   2.0000      -0.441624       -12.0172
  56   2.0000      -0.438026       -11.9193
  57   2.0000      -0.433931       -11.8078
  58   2.0000      -0.430164       -11.7054
  59   2.0000      -0.424592       -11.5537
  60   2.0000      -0.421036       -11.4570
  61   2.0000      -0.411094       -11.1864
  62   2.0000      -0.408548       -11.1172
  63   2.0000      -0.349410        -9.5079
  64   2.0000      -0.330242        -8.9863
  65   2.0000      -0.327185        -8.9032
  66   2.0000      -0.288277        -7.8444
  67   0.0000       0.028707         0.7812
  68   0.0000       0.062496         1.7006
  69   0.0000       0.118877         3.2348
  70   0.0000       0.124361         3.3840
  71   0.0000       0.132701         3.6110

MULLIKEN ATOMIC CHARGES
-----------------------
   0 S :    0.128203
   1 C :   -0.127994
   2 C :   -0.112654
   3 C :    0.044465
   4 C :   -0.142526
   5 H :   -0.017571
   6 C :    0.103942
   7 H :    0.022300
   8 H :    0.045814
   9 C :   -0.105492
  10 H :    0.019854
  11 H :    0.028368
  12 C :   -0.091186
  13 H :    0.037757
  14 H :    0.055815
  15 H :    0.047311
  16 S :    0.096966
  17 C :   -0.099983
  18 C :   -0.032111
  19 C :   -0.022376
  20 C :   -0.165801
  21 H :    0.019836
  22 C :    0.082576
  23 H :    0.026108
  24 H :   -0.005376
  25 C :   -0.090409
  26 H :    0.036269
  27 H :    0.019221
  28 C :   -0.040942
  29 H :    0.043306
  30 H :    0.038874
  31 H :    0.035631
  32 H :    0.054693
  33 H :    0.067112
Sum of atomic charges:    0.0000000

LOEWDIN ATOMIC CHARGES
----------------------
   0 S :    0.440586
   1 C :   -0.214987
   2 C :   -0.068738
   3 C :   -0.055618
   4 C :   -0.204476
   5 H :    0.018930
   6 C :   -0.031092
   7 H :    0.033081
   8 H :    0.035012
   9 C :   -0.050638
  10 H :    0.018634
  11 H :    0.027529
  12 C :   -0.079625
  13 H :    0.024551
  14 H :    0.031647
  15 H :    0.036534
  16 S :    0.419908
  17 C :   -0.189570
  18 C :   -0.073247
  19 C :   -0.054644
  20 C :   -0.200836
  21 H :    0.029439
  22 C :   -0.031401
  23 H :    0.036829
  24 H :    0.020062
  25 C :   -0.040642
  26 H :    0.024038
  27 H :    0.024561
  28 C :   -0.066090
  29 H :    0.025428
  30 H :    0.028564
  31 H :    0.030255
  32 H :    0.026494
  33 H :    0.029521

  Mayer bond orders larger than 0.100000
B(  0-S ,  1-C ) :   1.1795 B(  0-S ,  4-C ) :   1.1600 B(  1-C ,  2-C ) :   1.5051
B(  1-C ,  4-C ) :   0.1125 B(  1-C , 32-H ) :   0.9725 B(  2-C ,  3-C ) :   1.3375
B(  2-C ,  6-C ) :   1.0107 B(  3-C ,  4-C ) :   1.4992 B(  3-C ,  5-H ) :   1.0040
B(  4-C , 20-C ) :   1.0820 B(  6-C ,  7-H ) :   0.9409 B(  6-C ,  8-H ) :   0.9339
B(  6-C ,  9-C ) :   1.0769 B(  9-C , 10-H ) :   0.9509 B(  9-C , 11-H ) :   0.9544
B(  9-C , 12-C ) :   1.0722 B( 12-C , 13-H ) :   0.9750 B( 12-C , 14-H ) :   0.9706
B( 12-C , 15-H ) :   0.9737 B( 16-S , 17-C ) :   1.1850 B( 16-S , 20-C ) :   1.1418
B( 17-C , 18-C ) :   1.5518 B( 17-C , 20-C ) :   0.1057 B( 17-C , 33-H ) :   0.9754
B( 18-C , 19-C ) :   1.2435 B( 18-C , 21-H ) :   0.9961 B( 19-C , 20-C ) :   1.5723
B( 19-C , 22-C ) :   1.0603 B( 22-C , 23-H ) :   0.9303 B( 22-C , 24-H ) :   0.9254
B( 22-C , 25-C ) :   1.0775 B( 25-C , 26-H ) :   0.9587 B( 25-C , 27-H ) :   0.9536
B( 25-C , 28-C ) :   1.0675 B( 28-C , 29-H ) :   0.9801 B( 28-C , 30-H ) :   0.9737
B( 28-C , 31-H ) :   0.9738

Dispersion correction           -0.014591845
FINAL SINGLE POINT ENERGY     -1339.884671035437

DIPOLE MOMENT
-------------
                                X             Y             Z
Electronic contribution:     -4.87491      13.58671     -11.06930
Nuclear contribution   :      5.27993     -13.86447      11.34248
                        -----------------------------------------
Total Dipole Moment    :      0.40503      -0.27777       0.27318
                        -----------------------------------------
Magnitude (a.u.)       :      0.56199
Magnitude (Debye)      :      1.42846

Rotational constants in cm-1:     0.022603     0.008021     0.006910
Rotational constants in MHz :   677.628068   240.465899   207.154240

                             ****ORCA TERMINATED NORMALLY****
TOTAL RUN TIME: 0 days 0 hours 0 minutes 30 seconds 378 msec
