                         Program Version 4.2.1 -  RELEASE  -
|  1> ! wB97X-D3 SP def2-SVP
|  2> %pal
|  3> nprocs 16
|  4> end
|  5>
|  6> * xyz 0 1
|  7> S 	 -46.9306 	 55.565 	 97.4001
|  8> C 	 -47.5962 	 55.8034 	 98.9414
|  9> C 	 -47.3902 	 54.7225 	 99.7169
| 10> C 	 -46.5593 	 53.7607 	 99.0859
| 11> C 	 -46.0636 	 54.1412 	 97.8643
| 12> H 	 -46.2899 	 52.8469 	 99.5956
| 13> C 	 -47.8543 	 54.6917 	 101.173
| 14> H 	 -48.5986 	 55.4868 	 101.238
| 15> H 	 -47.021 	 54.942 	 101.786
| 16> C 	 -48.421 	 53.3087 	 101.597
| 17> H 	 -49.2631 	 52.9534 	 101.062
| 18> H 	 -47.7032 	 52.5135 	 101.546
| 19> C 	 -48.8399 	 53.3858 	 103.119
| 20> H 	 -49.1398 	 52.4191 	 103.444
| 21> H 	 -47.9837 	 53.7775 	 103.718
| 22> H 	 -49.5941 	 54.0995 	 103.217
| 23> S 	 -45.3596 	 53.2938 	 95.3554
| 24> C 	 -44.131 	 52.023 	 95.1076
| 25> C 	 -43.4737 	 51.7646 	 96.297
| 26> C 	 -44.0271 	 52.4997 	 97.3831
| 27> C 	 -45.0632 	 53.4305 	 97.0569
| 28> H 	 -42.7391 	 50.9277 	 96.3425
| 29> C 	 -43.619 	 52.0421 	 98.8391
| 30> H 	 -44.087 	 51.0635 	 98.8982
| 31> H 	 -44.0713 	 52.6544 	 99.6079
| 32> C 	 -42.0707 	 52.0054 	 99.0896
| 33> H 	 -41.5633 	 51.386 	 98.356
| 34> H 	 -41.9232 	 51.6298 	 100.107
| 35> C 	 -41.3775 	 53.3794 	 98.8931
| 36> H 	 -40.4168 	 53.346 	 99.3976
| 37> H 	 -41.9896 	 54.1613 	 99.3056
| 38> H 	 -41.222 	 53.5283 	 97.8088
| 39> H 	 -48.3851 	 56.5665 	 99.2082
| 40> H 	 -43.9398 	 51.4861 	 94.1589
| 41> *
| 42>
| 43>                          ****END OF INPUT****

CARTESIAN COORDINATES (ANGSTROEM)
---------------------------------
  S    -46.930600   55.565000   97.400100
  C    -47.596200   55.803400   98.941400
  C    -47.390200   54.722500   99.716900
  C    -46.559300   53.760700   99.085900
  C    -46.063600   54.141200   97.864300
  H    -46.289900   52.846900   99.595600
  C    -47.854300   54.691700  101.173000
  H    -48.598600   55.486800  101.238000
  H    -47.021000   54.942000  101.786000
  C    -48.421000   53.308700  101.597000
  H    -49.263100   52.953400  101.062000
  H    -47.703200   52.513500  101.546000
  C    -48.839900   53.385800  103.119000
  H    -49.139800   52.419100  103.444000
  H    -47.983700   53.777500  103.718000
  H    -49.594100   54.099500  103.217000
  S    -45.359600   53.293800   95.355400
  C    -44.131000   52.023000   95.107600
  C    -43.473700   51.764600   96.297000
  C    -44.027100   52.499700   97.383100
  C    -45.063200   53.430500   97.056900
  H    -42.739100   50.927700   96.342500
  C    -43.619000   52.042100   98.839100
  H    -44.087000   51.063500   98.898200
  H    -44.071300   52.654400   99.607900
  C    -42.070700   52.005400   99.089600
  H    -41.563300   51.386000   98.356000
  H    -41.923200   51.629800  100.107000
  C    -41.377500   53.379400   98.893100
  H    -40.416800   53.346000   99.397600
  H    -41.989600   54.161300   99.305600
  H    -41.222000   53.528300   97.808800
  H    -48.385100   56.566500   99.208200
  H    -43.939800   51.486100   94.158900

 Total Charge           Charge          ....    0
 Multiplicity           Mult            ....    1
 Number of Electrons    NEL             ....  134
 Basis Dimension        Dim             ....  322

ORBITAL ENERGIES
----------------

  NO   OCC          E(Eh)            E(eV)
   0   2.0000     -88.965907     -2420.8854
   1   2.0000     -88.962835     -2420.8018
   2   2.0000     -10.334330      -281.2114
   3   2.0000     -10.331405      -281.1318
   4   2.0000     -10.326431      -280.9965
   5   2.0000     -10.313221      -280.6370
   6   2.0000     -10.307659      -280.4856
   7   2.0000     -10.301350      -280.3140
   8   2.0000     -10.295897      -280.1656
   9   2.0000     -10.294292      -280.1219
  10   2.0000     -10.291461      -280.0449
  11   2.0000     -10.289429      -279.9896
  12   2.0000     -10.288228      -279.9569
  13   2.0000     -10.286103      -279.8991
  14   2.0000     -10.275105      -279.5998
  15   2.0000     -10.273049      -279.5439
  16   2.0000      -8.080434      -219.8798
  17   2.0000      -8.079048      -219.8421
  18   2.0000      -6.038970      -164.3287
  19   2.0000      -6.037536      -164.2897
  20   2.0000      -6.034855      -164.2168
  21   2.0000      -6.033361      -164.1761
  22   2.0000      -6.031272      -164.1193
  23   2.0000      -6.029712      -164.0768
  24   2.0000      -1.014446       -27.6045
  25   2.0000      -0.987751       -26.8781
  26   2.0000      -0.910598       -24.7786
  27   2.0000      -0.899900       -24.4875
  28   2.0000      -0.873857       -23.7789
  29   2.0000      -0.848630       -23.0924
  30   2.0000      -0.841534       -22.8993
  31   2.0000      -0.817763       -22.2525
  32   2.0000      -0.779749       -21.2180
  33   2.0000      -0.769698       -20.9445
  34   2.0000      -0.715322       -19.4649
  35   2.0000      -0.696048       -18.9404
  36   2.0000      -0.690593       -18.7920
  37   2.0000      -0.656174       -17.8554
  38   2.0000      -0.634867       -17.2756
  39   2.0000      -0.626514       -17.0483
  40   2.0000      -0.595000       -16.1908
  41   2.0000      -0.576057       -15.6753
  42   2.0000      -0.564654       -15.3650
  43   2.0000      -0.549067       -14.9409
  44   2.0000      -0.538997       -14.6669
  45   2.0000      -0.532057       -14.4780
  46   2.0000      -0.517123       -14.0716
  47   2.0000      -0.511739       -13.9251
  48   2.0000      -0.503685       -13.7060
  49   2.0000      -0.499790       -13.6000
  50   2.0000      -0.487115       -13.2551
  51   2.0000      -0.483017       -13.1436
  52   2.0000      -0.470606       -12.8058
  53   2.0000      -0.465044       -12.6545
  54   2.0000      -0.461217       -12.5503
  55   2.0000      -0.449846       -12.2409
  56   2.0000      -0.445024       -12.1097
  57   2.0000      -0.440249       -11.9798
  58   2.0000      -0.434081       -11.8119
  59   2.0000      -0.431623       -11.7451
  60   2.0000      -0.422082       -11.4854
  61   2.0000      -0.410788       -11.1781
  62   2.0000      -0.404274       -11.0009
  63   2.0000      -0.360850        -9.8192
  64   2.0000      -0.331977        -9.0336
  65   2.0000      -0.325326        -8.8526
  66   2.0000      -0.288378        -7.8472
  67   0.0000       0.024228         0.6593
  68   0.0000       0.079350         2.1592
  69   0.0000       0.107916         2.9365
  70   0.0000       0.121075         3.2946
  71   0.0000       0.139285         3.7901

MULLIKEN ATOMIC CHARGES
-----------------------
   0 S :    0.112835
   1 C :   -0.140424
   2 C :   -0.098963
   3 C :    0.004157
   4 C :   -0.113471
   5 H :    0.004826
   6 C :    0.088741
   7 H :    0.013602
   8 H :    0.037293
   9 C :   -0.095161
  10 H :    0.028323
  11 H :    0.026594
  12 C :   -0.022348
  13 H :    0.029937
  14 H :    0.027126
  15 H :    0.015539
  16 S :    0.087598
  17 C :   -0.112413
  18 C :   -0.043559
  19 C :   -0.082953
  20 C :   -0.108220
  21 H :    0.044920
  22 C :    0.041810
  23 H :    0.044393
  24 H :    0.027794
  25 C :   -0.086234
  26 H :    0.025928
  27 H :    0.034377
  28 C :   -0.047377
  29 H :    0.035198
  30 H :    0.032207
  31 H :    0.044407
  32 H :    0.069308
  33 H :    0.074209
Sum of atomic charges:    0.0000000

LOEWDIN ATOMIC CHARGES
----------------------
   0 S :    0.427938
   1 C :   -0.224393
   2 C :   -0.074360
   3 C :   -0.067242
   4 C :   -0.196059
   5 H :    0.025961
   6 C :   -0.018279
   7 H :    0.028457
   8 H :    0.030608
   9 C :   -0.031821
  10 H :    0.020406
  11 H :    0.018186
  12 C :   -0.053987
  13 H :    0.019985
  14 H :    0.027410
  15 H :    0.013418
  16 S :    0.401902
  17 C :   -0.176895
  18 C :   -0.081332
  19 C :   -0.053935
  20 C :   -0.206716
  21 H :    0.042317
  22 C :   -0.030088
  23 H :    0.032761
  24 H :    0.023325
  25 C :   -0.040627
  26 H :    0.018782
  27 H :    0.023716
  28 C :   -0.061135
  29 H :    0.026318
  30 H :    0.021625
  31 H :    0.030830
  32 H :    0.043915
  33 H :    0.039008

  Mayer bond orders larger than 0.100000
B(  0-S ,  1-C ) :   1.1452 B(  0-S ,  4-C ) :   1.1592 B(  1-C ,  2-C ) :   1.6197
B(  1-C , 32-H ) :   0.9540 B(  2-C ,  3-C ) :   1.2669 B(  2-C ,  6-C ) :   1.0140
B(  3-C ,  4-C ) :   1.5404 B(  3-C ,  5-H ) :   0.9972 B(  4-C , 20-C ) :   1.0498
B(  6-C ,  7-H ) :   0.9433 B(  6-C ,  8-H ) :   0.9401 B(  6-C ,  9-C ) :   1.0620
B(  9-C , 10-H ) :   0.9616 B(  9-C , 11-H ) :   0.9557 B(  9-C , 12-C ) :   1.0835
B( 12-C , 13-H ) :   0.9757 B( 12-C , 14-H ) :   0.9757 B( 12-C , 15-H ) :   0.9779
B( 16-S , 17-C ) :   1.1662 B( 16-S , 20-C ) :   1.1415 B( 17-C , 18-C ) :   1.5936
B( 17-C , 20-C ) :   0.1040 B( 17-C , 33-H ) :   0.9634 B( 18-C , 19-C ) :   1.2646
B( 18-C , 21-H ) :   0.9820 B( 19-C , 20-C ) :   1.5680 B( 19-C , 22-C ) :   1.0166
B( 22-C , 23-H ) :   0.9431 B( 22-C , 24-H ) :   0.9394 B( 22-C , 25-C ) :   1.0678
B( 25-C , 26-H ) :   0.9594 B( 25-C , 27-H ) :   0.9594 B( 25-C , 28-C ) :   1.0698
B( 28-C , 29-H ) :   0.9747 B( 28-C , 30-H ) :   0.9797 B( 28-C , 31-H ) :   0.9749

Dispersion correction           -0.013747062
FINAL SINGLE POINT ENERGY     -1339.873394948448

DIPOLE MOMENT
-------------
                                X             Y             Z
Electronic contribution:     -5.01867       8.13993     -26.94604
Nuclear contribution   :      5.07457      -8.68833      27.55457
                        -----------------------------------------
Total Dipole Moment    :      0.05590      -0.54840       0.60854
                        -----------------------------------------
Magnitude (a.u.)       :      0.82109
Magnitude (Debye)      :      2.08704

Rotational constants in cm-1:     0.018108     0.008294     0.006535
Rotational constants in MHz :   542.854765   248.637560   195.911541

                             ****ORCA TERMINATED NORMALLY****
TOTAL RUN TIME: 0 days 0 hours 0 minutes 29 seconds 911 msec
