                         Program Version 4.2.1 -  RELEASE  -
|  1> ! wB97X-D3 SP def2-SVP
|  2> %pal
|  3> nprocs 16
|  4> end
|  5>
|  6> * xyz 0 1
|  7> S 	 -47.3437 	 29.8783 	 87.1377
|  8> C 	 -48.8517 	 29.0741 	 87.2915
|  9> C 	 -49.8755 	 29.9305 	 87.5407
| 10> C 	 -49.4706 	 31.3104 	 87.5322
| 11> C 	 -48.1078 	 31.4257 	 87.4835
| 12> H 	 -50.1985 	 32.1802 	 87.5079
| 13> C 	 -51.2995 	 29.4328 	 87.7188
| 14> H 	 -51.3995 	 28.3774 	 87.4898
| 15> H 	 -51.7822 	 29.965 	 86.8779
| 16> C 	 -51.8763 	 29.8121 	 89.1273
| 17> H 	 -51.3096 	 29.2746 	 89.8559
| 18> H 	 -51.5884 	 30.7923 	 89.3274
| 19> C 	 -53.2893 	 29.3938 	 89.3346
| 20> H 	 -53.3147 	 28.2455 	 89.4442
| 21> H 	 -53.5966 	 29.8768 	 90.2904
| 22> H 	 -53.9091 	 29.6686 	 88.5492
| 23> S 	 -46.5075 	 32.9683 	 85.8629
| 24> C 	 -46.2887 	 34.6097 	 86.3607
| 25> C 	 -46.6883 	 34.825 	 87.6662
| 26> C 	 -47.3706 	 33.689 	 88.187
| 27> C 	 -47.4455 	 32.6583 	 87.2844
| 28> H 	 -46.2887 	 35.7472 	 88.0359
| 29> C 	 -48.0596 	 33.87 	 89.4971
| 30> H 	 -47.5525 	 34.1467 	 90.4098
| 31> H 	 -48.4286 	 32.9128 	 89.8181
| 32> C 	 -49.1871 	 34.9035 	 89.385
| 33> H 	 -49.8667 	 34.6231 	 88.6406
| 34> H 	 -48.711 	 35.8288 	 89.121
| 35> C 	 -49.8913 	 35.0824 	 90.7668
| 36> H 	 -49.2447 	 35.5946 	 91.4475
| 37> H 	 -50.1722 	 34.0998 	 91.1736
| 38> H 	 -50.8361 	 35.5938 	 90.6431
| 39> H 	 -48.9544 	 27.9726 	 87.291
| 40> H 	 -45.7276 	 35.2555 	 85.8091
| 41> *
| 42>
| 43>                          ****END OF INPUT****

CARTESIAN COORDINATES (ANGSTROEM)
---------------------------------
  S    -47.343700   29.878300   87.137700
  C    -48.851700   29.074100   87.291500
  C    -49.875500   29.930500   87.540700
  C    -49.470600   31.310400   87.532200
  C    -48.107800   31.425700   87.483500
  H    -50.198500   32.180200   87.507900
  C    -51.299500   29.432800   87.718800
  H    -51.399500   28.377400   87.489800
  H    -51.782200   29.965000   86.877900
  C    -51.876300   29.812100   89.127300
  H    -51.309600   29.274600   89.855900
  H    -51.588400   30.792300   89.327400
  C    -53.289300   29.393800   89.334600
  H    -53.314700   28.245500   89.444200
  H    -53.596600   29.876800   90.290400
  H    -53.909100   29.668600   88.549200
  S    -46.507500   32.968300   85.862900
  C    -46.288700   34.609700   86.360700
  C    -46.688300   34.825000   87.666200
  C    -47.370600   33.689000   88.187000
  C    -47.445500   32.658300   87.284400
  H    -46.288700   35.747200   88.035900
  C    -48.059600   33.870000   89.497100
  H    -47.552500   34.146700   90.409800
  H    -48.428600   32.912800   89.818100
  C    -49.187100   34.903500   89.385000
  H    -49.866700   34.623100   88.640600
  H    -48.711000   35.828800   89.121000
  C    -49.891300   35.082400   90.766800
  H    -49.244700   35.594600   91.447500
  H    -50.172200   34.099800   91.173600
  H    -50.836100   35.593800   90.643100
  H    -48.954400   27.972600   87.291000
  H    -45.727600   35.255500   85.809100

 Total Charge           Charge          ....    0
 Multiplicity           Mult            ....    1
 Number of Electrons    NEL             ....  134
 Basis Dimension        Dim             ....  322

ORBITAL ENERGIES
----------------

  NO   OCC          E(Eh)            E(eV)
   0   2.0000     -88.963413     -2420.8175
   1   2.0000     -88.963288     -2420.8141
   2   2.0000     -10.323202      -280.9086
   3   2.0000     -10.317891      -280.7641
   4   2.0000     -10.307872      -280.4914
   5   2.0000     -10.305445      -280.4254
   6   2.0000     -10.299519      -280.2641
   7   2.0000     -10.299061      -280.2517
   8   2.0000     -10.295499      -280.1548
   9   2.0000     -10.291707      -280.0516
  10   2.0000     -10.288321      -279.9594
  11   2.0000     -10.280693      -279.7519
  12   2.0000     -10.280378      -279.7433
  13   2.0000     -10.278303      -279.6868
  14   2.0000     -10.277183      -279.6564
  15   2.0000     -10.276583      -279.6401
  16   2.0000      -8.078971      -219.8400
  17   2.0000      -8.078844      -219.8365
  18   2.0000      -6.037360      -164.2849
  19   2.0000      -6.037313      -164.2837
  20   2.0000      -6.033520      -164.1804
  21   2.0000      -6.033383      -164.1767
  22   2.0000      -6.029669      -164.0756
  23   2.0000      -6.029453      -164.0698
  24   2.0000      -1.014628       -27.6094
  25   2.0000      -0.989442       -26.9241
  26   2.0000      -0.913653       -24.8617
  27   2.0000      -0.912571       -24.8323
  28   2.0000      -0.878179       -23.8965
  29   2.0000      -0.853853       -23.2345
  30   2.0000      -0.847931       -23.0734
  31   2.0000      -0.817341       -22.2410
  32   2.0000      -0.781508       -21.2659
  33   2.0000      -0.768674       -20.9167
  34   2.0000      -0.712210       -19.3802
  35   2.0000      -0.703829       -19.1522
  36   2.0000      -0.698140       -18.9973
  37   2.0000      -0.663471       -18.0540
  38   2.0000      -0.638235       -17.3673
  39   2.0000      -0.623304       -16.9610
  40   2.0000      -0.604199       -16.4411
  41   2.0000      -0.572675       -15.5833
  42   2.0000      -0.563483       -15.3332
  43   2.0000      -0.561084       -15.2679
  44   2.0000      -0.532954       -14.5024
  45   2.0000      -0.528981       -14.3943
  46   2.0000      -0.516235       -14.0475
  47   2.0000      -0.511222       -13.9111
  48   2.0000      -0.504521       -13.7287
  49   2.0000      -0.501175       -13.6377
  50   2.0000      -0.495737       -13.4897
  51   2.0000      -0.477904       -13.0044
  52   2.0000      -0.471946       -12.8423
  53   2.0000      -0.462243       -12.5783
  54   2.0000      -0.460474       -12.5301
  55   2.0000      -0.452081       -12.3017
  56   2.0000      -0.446085       -12.1386
  57   2.0000      -0.437736       -11.9114
  58   2.0000      -0.433980       -11.8092
  59   2.0000      -0.428454       -11.6588
  60   2.0000      -0.426821       -11.6144
  61   2.0000      -0.417507       -11.3609
  62   2.0000      -0.406291       -11.0557
  63   2.0000      -0.348993        -9.4966
  64   2.0000      -0.328534        -8.9399
  65   2.0000      -0.325866        -8.8673
  66   2.0000      -0.292652        -7.9635
  67   0.0000       0.036680         0.9981
  68   0.0000       0.070105         1.9077
  69   0.0000       0.114537         3.1167
  70   0.0000       0.123567         3.3624
  71   0.0000       0.131262         3.5718

MULLIKEN ATOMIC CHARGES
-----------------------
   0 S :    0.103442
   1 C :   -0.133462
   2 C :   -0.097447
   3 C :   -0.008549
   4 C :   -0.153861
   5 H :    0.049753
   6 C :    0.059356
   7 H :    0.011725
   8 H :    0.034158
   9 C :   -0.051121
  10 H :    0.015729
  11 H :    0.005170
  12 C :   -0.018638
  13 H :    0.040984
  14 H :    0.040202
  15 H :    0.020815
  16 S :    0.118892
  17 C :   -0.072712
  18 C :   -0.031609
  19 C :    0.005243
  20 C :   -0.146574
  21 H :    0.018235
  22 C :    0.071422
  23 H :    0.015156
  24 H :    0.003569
  25 C :   -0.067915
  26 H :    0.014352
  27 H :    0.026787
  28 C :   -0.035296
  29 H :    0.033434
  30 H :    0.024633
  31 H :    0.032168
  32 H :    0.056278
  33 H :    0.015681
Sum of atomic charges:    0.0000000

LOEWDIN ATOMIC CHARGES
----------------------
   0 S :    0.404161
   1 C :   -0.211424
   2 C :   -0.068310
   3 C :   -0.061630
   4 C :   -0.189292
   5 H :    0.044768
   6 C :   -0.028664
   7 H :    0.024400
   8 H :    0.034153
   9 C :   -0.040012
  10 H :    0.025480
  11 H :    0.012665
  12 C :   -0.059800
  13 H :    0.036909
  14 H :    0.034421
  15 H :    0.012025
  16 S :    0.417350
  17 C :   -0.171273
  18 C :   -0.065284
  19 C :   -0.049785
  20 C :   -0.208151
  21 H :    0.033510
  22 C :   -0.036403
  23 H :    0.030551
  24 H :    0.021391
  25 C :   -0.024325
  26 H :    0.012233
  27 H :    0.020663
  28 C :   -0.061047
  29 H :    0.021699
  30 H :    0.024946
  31 H :    0.025642
  32 H :    0.034035
  33 H :    0.004396

  Mayer bond orders larger than 0.100000
B(  0-S ,  1-C ) :   1.1260 B(  0-S ,  4-C ) :   1.1421 B(  1-C ,  2-C ) :   1.6438
B(  1-C , 32-H ) :   0.9615 B(  2-C ,  3-C ) :   1.2274 B(  2-C ,  6-C ) :   1.0188
B(  3-C ,  4-C ) :   1.5796 B(  3-C ,  5-H ) :   0.9787 B(  4-C , 20-C ) :   1.0595
B(  6-C ,  7-H ) :   0.9457 B(  6-C ,  8-H ) :   0.9354 B(  6-C ,  9-C ) :   1.0512
B(  9-C , 10-H ) :   0.9495 B(  9-C , 11-H ) :   0.9593 B(  9-C , 12-C ) :   1.0834
B( 12-C , 13-H ) :   0.9728 B( 12-C , 14-H ) :   0.9711 B( 12-C , 15-H ) :   0.9773
B( 16-S , 17-C ) :   1.1600 B( 16-S , 20-C ) :   1.1355 B( 17-C , 18-C ) :   1.6238
B( 17-C , 33-H ) :   0.9769 B( 18-C , 19-C ) :   1.1957 B( 18-C , 21-H ) :   0.9977
B( 19-C , 20-C ) :   1.6073 B( 19-C , 22-C ) :   1.0597 B( 22-C , 23-H ) :   0.9381
B( 22-C , 24-H ) :   0.9208 B( 22-C , 25-C ) :   1.0560 B( 25-C , 26-H ) :   0.9557
B( 25-C , 27-H ) :   0.9554 B( 25-C , 28-C ) :   1.0837 B( 28-C , 29-H ) :   0.9749
B( 28-C , 30-H ) :   0.9750 B( 28-C , 31-H ) :   0.9744

Dispersion correction           -0.014137608
FINAL SINGLE POINT ENERGY     -1339.863194391487

DIPOLE MOMENT
-------------
                                X             Y             Z
Electronic contribution:     25.40369      -4.29871     -19.10430
Nuclear contribution   :    -25.86098       4.50705      19.42068
                        -----------------------------------------
Total Dipole Moment    :     -0.45729       0.20833       0.31638
                        -----------------------------------------
Magnitude (a.u.)       :      0.59381
Magnitude (Debye)      :      1.50935

Rotational constants in cm-1:     0.017100     0.009582     0.006602
Rotational constants in MHz :   512.631704   287.263626   197.909043

                             ****ORCA TERMINATED NORMALLY****
TOTAL RUN TIME: 0 days 0 hours 0 minutes 28 seconds 766 msec
