                         Program Version 4.2.1 -  RELEASE  -
|  1> ! wB97X-D3 SP def2-SVP
|  2> %pal
|  3> nprocs 16
|  4> end
|  5>
|  6> * xyz 0 1
|  7> S 	 -42.0384 	 19.9932 	 85.6446
|  8> C 	 -42.7062 	 18.5024 	 86.1384
|  9> C 	 -42.6364 	 18.3542 	 87.5029
| 10> C 	 -42.082 	 19.477 	 88.1673
| 11> C 	 -41.7369 	 20.4936 	 87.2589
| 12> H 	 -41.899 	 19.7918 	 89.1752
| 13> C 	 -42.8476 	 17.0754 	 88.3436
| 14> H 	 -41.8197 	 16.757 	 88.5936
| 15> H 	 -43.327 	 16.2621 	 87.7351
| 16> C 	 -43.7111 	 17.1868 	 89.6555
| 17> H 	 -43.7202 	 16.1947 	 90.2159
| 18> H 	 -43.4092 	 18.0275 	 90.2685
| 19> C 	 -45.2123 	 17.4207 	 89.3787
| 20> H 	 -45.3007 	 18.2066 	 88.5105
| 21> H 	 -45.796 	 16.5817 	 88.9888
| 22> H 	 -45.7456 	 17.8392 	 90.2331
| 23> S 	 -42.3554 	 22.7506 	 88.6503
| 24> C 	 -41.3765 	 24.191 	 88.5813
| 25> C 	 -40.144 	 23.8418 	 88.0051
| 26> C 	 -40.1449 	 22.5482 	 87.3423
| 27> C 	 -41.3441 	 21.8821 	 87.531
| 28> H 	 -39.2934 	 24.5622 	 87.9816
| 29> C 	 -38.9996 	 22.0023 	 86.5624
| 30> H 	 -38.7588 	 22.6991 	 85.8102
| 31> H 	 -39.2602 	 21.1907 	 85.9097
| 32> C 	 -37.6111 	 21.6857 	 87.3665
| 33> H 	 -37.8014 	 20.6828 	 87.8536
| 34> H 	 -37.4127 	 22.3991 	 88.1815
| 35> C 	 -36.2612 	 21.5848 	 86.5664
| 36> H 	 -35.9733 	 22.5563 	 86.1813
| 37> H 	 -36.3484 	 20.8715 	 85.7109
| 38> H 	 -35.4153 	 21.3307 	 87.2465
| 39> H 	 -42.8527 	 17.5395 	 85.6236
| 40> H 	 -41.4777 	 25.0367 	 89.1559
| 41> *
| 42>
| 43>                          ****END OF INPUT****

CARTESIAN COORDINATES (ANGSTROEM)
---------------------------------
  S    -42.038400   19.993200   85.644600
  C    -42.706200   18.502400   86.138400
  C    -42.636400   18.354200   87.502900
  C    -42.082000   19.477000   88.167300
  C    -41.736900   20.493600   87.258900
  H    -41.899000   19.791800   89.175200
  C    -42.847600   17.075400   88.343600
  H    -41.819700   16.757000   88.593600
  H    -43.327000   16.262100   87.735100
  C    -43.711100   17.186800   89.655500
  H    -43.720200   16.194700   90.215900
  H    -43.409200   18.027500   90.268500
  C    -45.212300   17.420700   89.378700
  H    -45.300700   18.206600   88.510500
  H    -45.796000   16.581700   88.988800
  H    -45.745600   17.839200   90.233100
  S    -42.355400   22.750600   88.650300
  C    -41.376500   24.191000   88.581300
  C    -40.144000   23.841800   88.005100
  C    -40.144900   22.548200   87.342300
  C    -41.344100   21.882100   87.531000
  H    -39.293400   24.562200   87.981600
  C    -38.999600   22.002300   86.562400
  H    -38.758800   22.699100   85.810200
  H    -39.260200   21.190700   85.909700
  C    -37.611100   21.685700   87.366500
  H    -37.801400   20.682800   87.853600
  H    -37.412700   22.399100   88.181500
  C    -36.261200   21.584800   86.566400
  H    -35.973300   22.556300   86.181300
  H    -36.348400   20.871500   85.710900
  H    -35.415300   21.330700   87.246500
  H    -42.852700   17.539500   85.623600
  H    -41.477700   25.036700   89.155900

 Total Charge           Charge          ....    0
 Multiplicity           Mult            ....    1
 Number of Electrons    NEL             ....  134
 Basis Dimension        Dim             ....  322

ORBITAL ENERGIES
----------------

  NO   OCC          E(Eh)            E(eV)
   0   2.0000     -88.969056     -2420.9711
   1   2.0000     -88.966019     -2420.8884
   2   2.0000     -10.328998      -281.0663
   3   2.0000     -10.327640      -281.0294
   4   2.0000     -10.317375      -280.7501
   5   2.0000     -10.310606      -280.5658
   6   2.0000     -10.308689      -280.5137
   7   2.0000     -10.303980      -280.3855
   8   2.0000     -10.303522      -280.3731
   9   2.0000     -10.302345      -280.3411
  10   2.0000     -10.300682      -280.2958
  11   2.0000     -10.295685      -280.1598
  12   2.0000     -10.293470      -280.0996
  13   2.0000     -10.291255      -280.0393
  14   2.0000     -10.287642      -279.9410
  15   2.0000     -10.280627      -279.7501
  16   2.0000      -8.084516      -219.9909
  17   2.0000      -8.080959      -219.8941
  18   2.0000      -6.042952      -164.4371
  19   2.0000      -6.039468      -164.3423
  20   2.0000      -6.038720      -164.3219
  21   2.0000      -6.035503      -164.2344
  22   2.0000      -6.035454      -164.2331
  23   2.0000      -6.031660      -164.1298
  24   2.0000      -1.013161       -27.5695
  25   2.0000      -0.989637       -26.9294
  26   2.0000      -0.903902       -24.5964
  27   2.0000      -0.897210       -24.4143
  28   2.0000      -0.870585       -23.6898
  29   2.0000      -0.849434       -23.1143
  30   2.0000      -0.845474       -23.0065
  31   2.0000      -0.813442       -22.1349
  32   2.0000      -0.781565       -21.2675
  33   2.0000      -0.772022       -21.0078
  34   2.0000      -0.706860       -19.2346
  35   2.0000      -0.699480       -19.0338
  36   2.0000      -0.687437       -18.7061
  37   2.0000      -0.664802       -18.0902
  38   2.0000      -0.641043       -17.4437
  39   2.0000      -0.616144       -16.7661
  40   2.0000      -0.599384       -16.3101
  41   2.0000      -0.572337       -15.5741
  42   2.0000      -0.550082       -14.9685
  43   2.0000      -0.547238       -14.8911
  44   2.0000      -0.535926       -14.5833
  45   2.0000      -0.524300       -14.2669
  46   2.0000      -0.513493       -13.9729
  47   2.0000      -0.511941       -13.9306
  48   2.0000      -0.509247       -13.8573
  49   2.0000      -0.493428       -13.4268
  50   2.0000      -0.485950       -13.2234
  51   2.0000      -0.481269       -13.0960
  52   2.0000      -0.471109       -12.8195
  53   2.0000      -0.462066       -12.5734
  54   2.0000      -0.455553       -12.3962
  55   2.0000      -0.449969       -12.2443
  56   2.0000      -0.438978       -11.9452
  57   2.0000      -0.437719       -11.9109
  58   2.0000      -0.431007       -11.7283
  59   2.0000      -0.426135       -11.5957
  60   2.0000      -0.421436       -11.4679
  61   2.0000      -0.416282       -11.3276
  62   2.0000      -0.408118       -11.1055
  63   2.0000      -0.341648        -9.2967
  64   2.0000      -0.334091        -9.0911
  65   2.0000      -0.325946        -8.8694
  66   2.0000      -0.301304        -8.1989
  67   0.0000       0.032553         0.8858
  68   0.0000       0.063262         1.7214
  69   0.0000       0.102141         2.7794
  70   0.0000       0.120863         3.2888
  71   0.0000       0.132439         3.6039

MULLIKEN ATOMIC CHARGES
-----------------------
   0 S :    0.130182
   1 C :   -0.088576
   2 C :   -0.106686
   3 C :    0.031831
   4 C :   -0.194093
   5 H :    0.007607
   6 C :    0.036899
   7 H :    0.052283
   8 H :    0.025023
   9 C :   -0.075546
  10 H :    0.048206
  11 H :    0.040194
  12 C :   -0.110840
  13 H :    0.041983
  14 H :    0.034106
  15 H :    0.041475
  16 S :    0.104355
  17 C :   -0.052637
  18 C :   -0.060494
  19 C :   -0.020357
  20 C :   -0.146848
  21 H :    0.036304
  22 C :    0.105054
  23 H :    0.010174
  24 H :    0.006886
  25 C :   -0.115530
  26 H :    0.045887
  27 H :    0.035535
  28 C :   -0.069398
  29 H :    0.027747
  30 H :    0.045001
  31 H :    0.045269
  32 H :    0.053053
  33 H :    0.035950
Sum of atomic charges:    0.0000000

LOEWDIN ATOMIC CHARGES
----------------------
   0 S :    0.448006
   1 C :   -0.230187
   2 C :   -0.066520
   3 C :   -0.069005
   4 C :   -0.200989
   5 H :    0.028344
   6 C :   -0.033835
   7 H :    0.037487
   8 H :    0.029764
   9 C :   -0.045432
  10 H :    0.036074
  11 H :    0.023355
  12 C :   -0.081983
  13 H :    0.034472
  14 H :    0.021074
  15 H :    0.025381
  16 S :    0.419464
  17 C :   -0.178738
  18 C :   -0.065574
  19 C :   -0.053783
  20 C :   -0.207211
  21 H :    0.035429
  22 C :   -0.036036
  23 H :    0.026407
  24 H :    0.024764
  25 C :   -0.040843
  26 H :    0.030026
  27 H :    0.023119
  28 C :   -0.072633
  29 H :    0.020311
  30 H :    0.028636
  31 H :    0.034521
  32 H :    0.040807
  33 H :    0.015328

  Mayer bond orders larger than 0.100000
B(  0-S ,  1-C ) :   1.1455 B(  0-S ,  4-C ) :   1.1841 B(  1-C ,  2-C ) :   1.6196
B(  1-C , 32-H ) :   0.9531 B(  2-C ,  3-C ) :   1.2244 B(  2-C ,  6-C ) :   1.0114
B(  3-C ,  4-C ) :   1.5726 B(  3-C ,  5-H ) :   0.9986 B(  4-C , 20-C ) :   0.9984
B(  6-C ,  7-H ) :   0.9457 B(  6-C ,  8-H ) :   0.9463 B(  6-C ,  9-C ) :   1.0612
B(  9-C , 10-H ) :   0.9573 B(  9-C , 11-H ) :   0.9597 B(  9-C , 12-C ) :   1.0645
B( 12-C , 13-H ) :   0.9756 B( 12-C , 14-H ) :   0.9765 B( 12-C , 15-H ) :   0.9764
B( 16-S , 17-C ) :   1.1593 B( 16-S , 20-C ) :   1.1441 B( 17-C , 18-C ) :   1.5981
B( 17-C , 33-H ) :   0.9773 B( 18-C , 19-C ) :   1.2499 B( 18-C , 21-H ) :   0.9799
B( 19-C , 20-C ) :   1.5760 B( 19-C , 22-C ) :   1.0624 B( 22-C , 23-H ) :   0.9294
B( 22-C , 24-H ) :   0.9263 B( 22-C , 25-C ) :   1.0276 B( 25-C , 26-H ) :   0.9605
B( 25-C , 27-H ) :   0.9651 B( 25-C , 28-C ) :   1.0760 B( 28-C , 29-H ) :   0.9755
B( 28-C , 30-H ) :   0.9777 B( 28-C , 31-H ) :   0.9736

Dispersion correction           -0.013961799
FINAL SINGLE POINT ENERGY     -1339.860886536250

DIPOLE MOMENT
-------------
                                X             Y             Z
Electronic contribution:     -9.05566      12.17362      -5.81045
Nuclear contribution   :      9.57752     -12.31316       6.08522
                        -----------------------------------------
Total Dipole Moment    :      0.52186      -0.13954       0.27477
                        -----------------------------------------
Magnitude (a.u.)       :      0.60606
Magnitude (Debye)      :      1.54047

Rotational constants in cm-1:     0.019391     0.007868     0.006673
Rotational constants in MHz :   581.315020   235.889496   200.056775

                             ****ORCA TERMINATED NORMALLY****
TOTAL RUN TIME: 0 days 0 hours 0 minutes 29 seconds 91 msec
