                         Program Version 4.2.1 -  RELEASE  -
|  1> ! wB97X-D3 SP def2-SVP
|  2> %pal
|  3> nprocs 16
|  4> end
|  5>
|  6> * xyz 0 1
|  7> S 	 -34.5455 	 68.9526 	 143.785
|  8> C 	 -32.8578 	 69.0794 	 143.262
|  9> C 	 -32.1875 	 67.8748 	 143.441
| 10> C 	 -33.0251 	 66.8616 	 143.953
| 11> C 	 -34.2527 	 67.2999 	 144.286
| 12> H 	 -32.6887 	 65.8242 	 144.19
| 13> C 	 -30.7116 	 67.58 	 143.127
| 14> H 	 -30.4204 	 68.2666 	 142.34
| 15> H 	 -30.606 	 66.5142 	 142.793
| 16> C 	 -29.7397 	 67.6927 	 144.347
| 17> H 	 -30.1361 	 67.1599 	 145.213
| 18> H 	 -28.6861 	 67.3142 	 144.204
| 19> C 	 -29.6303 	 69.1725 	 144.701
| 20> H 	 -28.9958 	 69.555 	 143.829
| 21> H 	 -30.5926 	 69.6562 	 144.744
| 22> H 	 -29.1137 	 69.2425 	 145.68
| 23> S 	 -35.9443 	 65.1624 	 144.525
| 24> C 	 -36.8192 	 64.896 	 145.968
| 25> C 	 -36.5361 	 65.899 	 146.851
| 26> C 	 -35.6219 	 66.9051 	 146.423
| 27> C 	 -35.2011 	 66.598 	 145.16
| 28> H 	 -37.0038 	 65.824 	 147.801
| 29> C 	 -35.269 	 68.065 	 147.294
| 30> H 	 -36.1999 	 68.3859 	 147.803
| 31> H 	 -34.8445 	 68.8719 	 146.711
| 32> C 	 -34.2222 	 67.7151 	 148.323
| 33> H 	 -33.3278 	 67.5463 	 147.698
| 34> H 	 -34.532 	 66.8302 	 148.927
| 35> C 	 -33.7266 	 68.8787 	 149.229
| 36> H 	 -32.7005 	 68.8421 	 149.668
| 37> H 	 -34.5461 	 69.1071 	 149.946
| 38> H 	 -33.628 	 69.8315 	 148.653
| 39> H 	 -32.449 	 69.9577 	 142.767
| 40> H 	 -37.4745 	 64.056 	 146.246
| 41> *
| 42>
| 43>                          ****END OF INPUT****

CARTESIAN COORDINATES (ANGSTROEM)
---------------------------------
  S    -34.545500   68.952600  143.785000
  C    -32.857800   69.079400  143.262000
  C    -32.187500   67.874800  143.441000
  C    -33.025100   66.861600  143.953000
  C    -34.252700   67.299900  144.286000
  H    -32.688700   65.824200  144.190000
  C    -30.711600   67.580000  143.127000
  H    -30.420400   68.266600  142.340000
  H    -30.606000   66.514200  142.793000
  C    -29.739700   67.692700  144.347000
  H    -30.136100   67.159900  145.213000
  H    -28.686100   67.314200  144.204000
  C    -29.630300   69.172500  144.701000
  H    -28.995800   69.555000  143.829000
  H    -30.592600   69.656200  144.744000
  H    -29.113700   69.242500  145.680000
  S    -35.944300   65.162400  144.525000
  C    -36.819200   64.896000  145.968000
  C    -36.536100   65.899000  146.851000
  C    -35.621900   66.905100  146.423000
  C    -35.201100   66.598000  145.160000
  H    -37.003800   65.824000  147.801000
  C    -35.269000   68.065000  147.294000
  H    -36.199900   68.385900  147.803000
  H    -34.844500   68.871900  146.711000
  C    -34.222200   67.715100  148.323000
  H    -33.327800   67.546300  147.698000
  H    -34.532000   66.830200  148.927000
  C    -33.726600   68.878700  149.229000
  H    -32.700500   68.842100  149.668000
  H    -34.546100   69.107100  149.946000
  H    -33.628000   69.831500  148.653000
  H    -32.449000   69.957700  142.767000
  H    -37.474500   64.056000  146.246000

 Total Charge           Charge          ....    0
 Multiplicity           Mult            ....    1
 Number of Electrons    NEL             ....  134
 Basis Dimension        Dim             ....  322

ORBITAL ENERGIES
----------------

  NO   OCC          E(Eh)            E(eV)
   0   2.0000     -88.970315     -2421.0053
   1   2.0000     -88.963794     -2420.8279
   2   2.0000     -10.326742      -281.0049
   3   2.0000     -10.322863      -280.8994
   4   2.0000     -10.320148      -280.8255
   5   2.0000     -10.312113      -280.6069
   6   2.0000     -10.305038      -280.4144
   7   2.0000     -10.299393      -280.2607
   8   2.0000     -10.298977      -280.2494
   9   2.0000     -10.293633      -280.1040
  10   2.0000     -10.290558      -280.0203
  11   2.0000     -10.289473      -279.9908
  12   2.0000     -10.288233      -279.9571
  13   2.0000     -10.285215      -279.8749
  14   2.0000     -10.284833      -279.8645
  15   2.0000     -10.278590      -279.6947
  16   2.0000      -8.084382      -219.9872
  17   2.0000      -8.079505      -219.8545
  18   2.0000      -6.042884      -164.4352
  19   2.0000      -6.039022      -164.3301
  20   2.0000      -6.037988      -164.3020
  21   2.0000      -6.035142      -164.2246
  22   2.0000      -6.033770      -164.1872
  23   2.0000      -6.030335      -164.0938
  24   2.0000      -1.014171       -27.5970
  25   2.0000      -0.991071       -26.9684
  26   2.0000      -0.914331       -24.8802
  27   2.0000      -0.910341       -24.7716
  28   2.0000      -0.869139       -23.6505
  29   2.0000      -0.852077       -23.1862
  30   2.0000      -0.847754       -23.0686
  31   2.0000      -0.813605       -22.1393
  32   2.0000      -0.781598       -21.2684
  33   2.0000      -0.771298       -20.9881
  34   2.0000      -0.704809       -19.1788
  35   2.0000      -0.691394       -18.8138
  36   2.0000      -0.686243       -18.6736
  37   2.0000      -0.664624       -18.0853
  38   2.0000      -0.639004       -17.3882
  39   2.0000      -0.623375       -16.9629
  40   2.0000      -0.598732       -16.2923
  41   2.0000      -0.572027       -15.5657
  42   2.0000      -0.566699       -15.4207
  43   2.0000      -0.548513       -14.9258
  44   2.0000      -0.544137       -14.8067
  45   2.0000      -0.522196       -14.2097
  46   2.0000      -0.517637       -14.0856
  47   2.0000      -0.513923       -13.9845
  48   2.0000      -0.507987       -13.8230
  49   2.0000      -0.498994       -13.5783
  50   2.0000      -0.488504       -13.2929
  51   2.0000      -0.476082       -12.9549
  52   2.0000      -0.473484       -12.8841
  53   2.0000      -0.464382       -12.6365
  54   2.0000      -0.457330       -12.4446
  55   2.0000      -0.451680       -12.2908
  56   2.0000      -0.443323       -12.0634
  57   2.0000      -0.434484       -11.8229
  58   2.0000      -0.429020       -11.6742
  59   2.0000      -0.425451       -11.5771
  60   2.0000      -0.419068       -11.4034
  61   2.0000      -0.415245       -11.2994
  62   2.0000      -0.406857       -11.0712
  63   2.0000      -0.344833        -9.3834
  64   2.0000      -0.333256        -9.0684
  65   2.0000      -0.329543        -8.9673
  66   2.0000      -0.302669        -8.2360
  67   0.0000       0.038432         1.0458
  68   0.0000       0.069475         1.8905
  69   0.0000       0.107195         2.9169
  70   0.0000       0.122587         3.3358
  71   0.0000       0.126243         3.4352

MULLIKEN ATOMIC CHARGES
-----------------------
   0 S :    0.116839
   1 C :   -0.135878
   2 C :   -0.095374
   3 C :    0.036482
   4 C :   -0.152676
   5 H :    0.030082
   6 C :    0.059563
   7 H :    0.021811
   8 H :    0.038626
   9 C :   -0.081427
  10 H :    0.027688
  11 H :    0.043993
  12 C :   -0.082205
  13 H :    0.035665
  14 H :    0.041070
  15 H :    0.040413
  16 S :    0.119389
  17 C :   -0.091289
  18 C :   -0.053256
  19 C :    0.006458
  20 C :   -0.202458
  21 H :   -0.001295
  22 C :    0.109590
  23 H :    0.027437
  24 H :    0.009727
  25 C :   -0.100077
  26 H :    0.031258
  27 H :    0.042702
  28 C :   -0.065264
  29 H :    0.051328
  30 H :    0.033441
  31 H :    0.021107
  32 H :    0.053898
  33 H :    0.062631
Sum of atomic charges:   -0.0000000

LOEWDIN ATOMIC CHARGES
----------------------
   0 S :    0.404083
   1 C :   -0.194475
   2 C :   -0.062747
   3 C :   -0.062770
   4 C :   -0.192475
   5 H :    0.041676
   6 C :   -0.028762
   7 H :    0.026242
   8 H :    0.036299
   9 C :   -0.046672
  10 H :    0.019316
  11 H :    0.030166
  12 C :   -0.071827
  13 H :    0.031555
  14 H :    0.019597
  15 H :    0.027241
  16 S :    0.427285
  17 C :   -0.206589
  18 C :   -0.070985
  19 C :   -0.056401
  20 C :   -0.201732
  21 H :    0.022758
  22 C :   -0.030536
  23 H :    0.032539
  24 H :    0.022807
  25 C :   -0.044795
  26 H :    0.029880
  27 H :    0.026558
  28 C :   -0.081787
  29 H :    0.033729
  30 H :    0.025435
  31 H :    0.026961
  32 H :    0.028638
  33 H :    0.039785

  Mayer bond orders larger than 0.100000
B(  0-S ,  1-C ) :   1.1295 B(  0-S ,  4-C ) :   1.1496 B(  1-C ,  2-C ) :   1.6140
B(  1-C , 32-H ) :   0.9667 B(  2-C ,  3-C ) :   1.2454 B(  2-C ,  6-C ) :   1.0188
B(  3-C ,  4-C ) :   1.6038 B(  3-C ,  5-H ) :   0.9832 B(  4-C , 20-C ) :   0.9853
B(  6-C ,  7-H ) :   0.9451 B(  6-C ,  8-H ) :   0.9431 B(  6-C ,  9-C ) :   1.0561
B(  9-C , 10-H ) :   0.9568 B(  9-C , 11-H ) :   0.9609 B(  9-C , 12-C ) :   1.0640
B( 12-C , 13-H ) :   0.9785 B( 12-C , 14-H ) :   0.9767 B( 12-C , 15-H ) :   0.9731
B( 16-S , 17-C ) :   1.1471 B( 16-S , 20-C ) :   1.1620 B( 17-C , 18-C ) :   1.6281
B( 17-C , 33-H ) :   0.9635 B( 18-C , 19-C ) :   1.2231 B( 18-C , 21-H ) :   0.9920
B( 19-C , 20-C ) :   1.6027 B( 19-C , 22-C ) :   1.0534 B( 22-C , 23-H ) :   0.9269
B( 22-C , 24-H ) :   0.9172 B( 22-C , 25-C ) :   1.0724 B( 25-C , 26-H ) :   0.9531
B( 25-C , 27-H ) :   0.9595 B( 25-C , 28-C ) :   1.0751 B( 28-C , 29-H ) :   0.9767
B( 28-C , 30-H ) :   0.9743 B( 28-C , 31-H ) :   0.9691

Dispersion correction           -0.014705823
FINAL SINGLE POINT ENERGY     -1339.885132687144

DIPOLE MOMENT
-------------
                                X             Y             Z
Electronic contribution:    -20.99048      -9.11420     -14.94911
Nuclear contribution   :     21.37045       9.09842      15.27602
                        -----------------------------------------
Total Dipole Moment    :      0.37996      -0.01578       0.32691
                        -----------------------------------------
Magnitude (a.u.)       :      0.50149
Magnitude (Debye)      :      1.27468

Rotational constants in cm-1:     0.017750     0.009393     0.007564
Rotational constants in MHz :   532.143699   281.595773   226.773735

                             ****ORCA TERMINATED NORMALLY****
TOTAL RUN TIME: 0 days 0 hours 0 minutes 35 seconds 880 msec
