                         Program Version 4.2.1 -  RELEASE  -
|  1> ! wB97X-D3 SP def2-SVP
|  2> %pal
|  3> nprocs 16
|  4> end
|  5>
|  6> * xyz 0 1
|  7> S 	 43.4815 	 20.0779 	 47.162
|  8> C 	 42.4932 	 18.6314 	 47.3461
|  9> C 	 41.3597 	 18.7393 	 46.5204
| 10> C 	 41.2391 	 20.0366 	 45.866
| 11> C 	 42.3157 	 20.8439 	 46.1533
| 12> H 	 40.4298 	 20.3004 	 45.1772
| 13> C 	 40.183 	 17.8156 	 46.5198
| 14> H 	 40.3933 	 16.7501 	 46.8285
| 15> H 	 39.7396 	 17.7506 	 45.5817
| 16> C 	 38.955 	 18.3257 	 47.3628
| 17> H 	 38.7413 	 19.3425 	 47.0876
| 18> H 	 38.0639 	 17.7617 	 47.1186
| 19> C 	 39.3387 	 18.3743 	 48.834
| 20> H 	 39.8562 	 17.4716 	 49.109
| 21> H 	 39.9173 	 19.3011 	 49.0131
| 22> H 	 38.4497 	 18.4851 	 49.4556
| 23> S 	 44.1748 	 22.437 	 44.846
| 24> C 	 43.7157 	 23.9322 	 44.1352
| 25> C 	 42.3876 	 24.243 	 44.3468
| 26> C 	 41.749 	 23.2883 	 45.2046
| 27> C 	 42.5401 	 22.1803 	 45.5686
| 28> H 	 41.8808 	 25.0819 	 43.939
| 29> C 	 40.3093 	 23.4627 	 45.6403
| 30> H 	 40.3947 	 24.2986 	 46.2927
| 31> H 	 40.0424 	 22.5327 	 46.2661
| 32> C 	 39.3779 	 23.7454 	 44.4901
| 33> H 	 39.4207 	 23.0088 	 43.744
| 34> H 	 39.5826 	 24.6981 	 44.099
| 35> C 	 37.8037 	 23.8733 	 44.8136
| 36> H 	 37.6481 	 24.5802 	 45.6544
| 37> H 	 37.4183 	 22.932 	 45.1321
| 38> H 	 37.2118 	 24.0219 	 43.9072
| 39> H 	 42.6759 	 17.7364 	 47.9321
| 40> H 	 44.3943 	 24.4539 	 43.4579
| 41> *
| 42>
| 43>                          ****END OF INPUT****

CARTESIAN COORDINATES (ANGSTROEM)
---------------------------------
  S     43.481500   20.077900   47.162000
  C     42.493200   18.631400   47.346100
  C     41.359700   18.739300   46.520400
  C     41.239100   20.036600   45.866000
  C     42.315700   20.843900   46.153300
  H     40.429800   20.300400   45.177200
  C     40.183000   17.815600   46.519800
  H     40.393300   16.750100   46.828500
  H     39.739600   17.750600   45.581700
  C     38.955000   18.325700   47.362800
  H     38.741300   19.342500   47.087600
  H     38.063900   17.761700   47.118600
  C     39.338700   18.374300   48.834000
  H     39.856200   17.471600   49.109000
  H     39.917300   19.301100   49.013100
  H     38.449700   18.485100   49.455600
  S     44.174800   22.437000   44.846000
  C     43.715700   23.932200   44.135200
  C     42.387600   24.243000   44.346800
  C     41.749000   23.288300   45.204600
  C     42.540100   22.180300   45.568600
  H     41.880800   25.081900   43.939000
  C     40.309300   23.462700   45.640300
  H     40.394700   24.298600   46.292700
  H     40.042400   22.532700   46.266100
  C     39.377900   23.745400   44.490100
  H     39.420700   23.008800   43.744000
  H     39.582600   24.698100   44.099000
  C     37.803700   23.873300   44.813600
  H     37.648100   24.580200   45.654400
  H     37.418300   22.932000   45.132100
  H     37.211800   24.021900   43.907200
  H     42.675900   17.736400   47.932100
  H     44.394300   24.453900   43.457900

 Total Charge           Charge          ....    0
 Multiplicity           Mult            ....    1
 Number of Electrons    NEL             ....  134
 Basis Dimension        Dim             ....  322

ORBITAL ENERGIES
----------------

  NO   OCC          E(Eh)            E(eV)
   0   2.0000     -88.970532     -2421.0113
   1   2.0000     -88.962297     -2420.7872
   2   2.0000     -10.333938      -281.2008
   3   2.0000     -10.332391      -281.1587
   4   2.0000     -10.319764      -280.8151
   5   2.0000     -10.318782      -280.7883
   6   2.0000     -10.307556      -280.4829
   7   2.0000     -10.305774      -280.4344
   8   2.0000     -10.297930      -280.2209
   9   2.0000     -10.293975      -280.1133
  10   2.0000     -10.293865      -280.1103
  11   2.0000     -10.289777      -279.9991
  12   2.0000     -10.284972      -279.8683
  13   2.0000     -10.283453      -279.8270
  14   2.0000     -10.282964      -279.8137
  15   2.0000     -10.271720      -279.5077
  16   2.0000      -8.085255      -220.0110
  17   2.0000      -8.077131      -219.7899
  18   2.0000      -6.043870      -164.4621
  19   2.0000      -6.039715      -164.3490
  20   2.0000      -6.035939      -164.2462
  21   2.0000      -6.035607      -164.2372
  22   2.0000      -6.031515      -164.1259
  23   2.0000      -6.028028      -164.0310
  24   2.0000      -1.005333       -27.3565
  25   2.0000      -0.983155       -26.7530
  26   2.0000      -0.913492       -24.8574
  27   2.0000      -0.910652       -24.7801
  28   2.0000      -0.866499       -23.5786
  29   2.0000      -0.849981       -23.1292
  30   2.0000      -0.843647       -22.9568
  31   2.0000      -0.812609       -22.1122
  32   2.0000      -0.782974       -21.3058
  33   2.0000      -0.774261       -21.0687
  34   2.0000      -0.711457       -19.3597
  35   2.0000      -0.698938       -19.0191
  36   2.0000      -0.693537       -18.8721
  37   2.0000      -0.660464       -17.9721
  38   2.0000      -0.639051       -17.3895
  39   2.0000      -0.621865       -16.9218
  40   2.0000      -0.595294       -16.1988
  41   2.0000      -0.574508       -15.6332
  42   2.0000      -0.570544       -15.5253
  43   2.0000      -0.549112       -14.9421
  44   2.0000      -0.544995       -14.8301
  45   2.0000      -0.530682       -14.4406
  46   2.0000      -0.517332       -14.0773
  47   2.0000      -0.513187       -13.9645
  48   2.0000      -0.503881       -13.7113
  49   2.0000      -0.496403       -13.5078
  50   2.0000      -0.490271       -13.3410
  51   2.0000      -0.477798       -13.0016
  52   2.0000      -0.472677       -12.8622
  53   2.0000      -0.463431       -12.6106
  54   2.0000      -0.460845       -12.5402
  55   2.0000      -0.452455       -12.3119
  56   2.0000      -0.448151       -12.1948
  57   2.0000      -0.440493       -11.9864
  58   2.0000      -0.429877       -11.6975
  59   2.0000      -0.425263       -11.5720
  60   2.0000      -0.421482       -11.4691
  61   2.0000      -0.419852       -11.4248
  62   2.0000      -0.406556       -11.0629
  63   2.0000      -0.351414        -9.5625
  64   2.0000      -0.330034        -8.9807
  65   2.0000      -0.327680        -8.9166
  66   2.0000      -0.290152        -7.8954
  67   0.0000       0.029049         0.7905
  68   0.0000       0.069898         1.9020
  69   0.0000       0.109330         2.9750
  70   0.0000       0.114413         3.1133
  71   0.0000       0.124230         3.3805

MULLIKEN ATOMIC CHARGES
-----------------------
   0 S :    0.120640
   1 C :   -0.107072
   2 C :   -0.081075
   3 C :   -0.002662
   4 C :   -0.126556
   5 H :    0.028935
   6 C :    0.048631
   7 H :    0.032153
   8 H :    0.006553
   9 C :   -0.079334
  10 H :    0.014477
  11 H :    0.030045
  12 C :   -0.044584
  13 H :    0.023077
  14 H :    0.050782
  15 H :    0.027205
  16 S :    0.083250
  17 C :   -0.081046
  18 C :   -0.016814
  19 C :   -0.073574
  20 C :   -0.137031
  21 H :    0.007959
  22 C :    0.079209
  23 H :    0.029105
  24 H :    0.037939
  25 C :   -0.073191
  26 H :    0.022839
  27 H :    0.024830
  28 C :   -0.051443
  29 H :    0.039528
  30 H :    0.011413
  31 H :    0.038188
  32 H :    0.051102
  33 H :    0.066524
Sum of atomic charges:   -0.0000000

LOEWDIN ATOMIC CHARGES
----------------------
   0 S :    0.417910
   1 C :   -0.200702
   2 C :   -0.056636
   3 C :   -0.066732
   4 C :   -0.200741
   5 H :    0.036305
   6 C :   -0.034658
   7 H :    0.032302
   8 H :    0.020853
   9 C :   -0.034114
  10 H :    0.017995
  11 H :    0.020711
  12 C :   -0.065591
  13 H :    0.017752
  14 H :    0.034350
  15 H :    0.024266
  16 S :    0.392515
  17 C :   -0.183924
  18 C :   -0.074101
  19 C :   -0.050538
  20 C :   -0.187345
  21 H :    0.026918
  22 C :   -0.034298
  23 H :    0.031451
  24 H :    0.038216
  25 C :   -0.030330
  26 H :    0.018056
  27 H :    0.017513
  28 C :   -0.065185
  29 H :    0.028071
  30 H :    0.015227
  31 H :    0.029307
  32 H :    0.033269
  33 H :    0.031909

  Mayer bond orders larger than 0.100000
B(  0-S ,  1-C ) :   1.1213 B(  0-S ,  4-C ) :   1.1622 B(  1-C ,  2-C ) :   1.6095
B(  1-C , 32-H ) :   0.9698 B(  2-C ,  3-C ) :   1.2191 B(  2-C ,  6-C ) :   1.0547
B(  3-C ,  4-C ) :   1.5639 B(  3-C ,  5-H ) :   0.9929 B(  4-C , 20-C ) :   1.0235
B(  6-C ,  7-H ) :   0.9474 B(  6-C ,  8-H ) :   0.9304 B(  6-C ,  9-C ) :   1.0690
B(  9-C , 10-H ) :   0.9538 B(  9-C , 11-H ) :   0.9594 B(  9-C , 12-C ) :   1.0727
B( 12-C , 13-H ) :   0.9789 B( 12-C , 14-H ) :   0.9737 B( 12-C , 15-H ) :   0.9728
B( 16-S , 17-C ) :   1.1803 B( 16-S , 20-C ) :   1.1221 B( 17-C , 18-C ) :   1.5775
B( 17-C , 33-H ) :   0.9649 B( 18-C , 19-C ) :   1.2494 B( 18-C , 21-H ) :   0.9997
B( 19-C , 20-C ) :   1.6028 B( 19-C , 22-C ) :   1.0276 B( 22-C , 23-H ) :   0.9239
B( 22-C , 24-H ) :   0.9421 B( 22-C , 25-C ) :   1.0668 B( 25-C , 26-H ) :   0.9642
B( 25-C , 27-H ) :   0.9495 B( 25-C , 28-C ) :   1.0820 B( 28-C , 29-H ) :   0.9762
B( 28-C , 30-H ) :   0.9762 B( 28-C , 31-H ) :   0.9758

Dispersion correction           -0.014488426
FINAL SINGLE POINT ENERGY     -1339.875691578674

DIPOLE MOMENT
-------------
                                X             Y             Z
Electronic contribution:     30.33724       1.81649      -2.73578
Nuclear contribution   :    -31.08583      -1.76033       2.51300
                        -----------------------------------------
Total Dipole Moment    :     -0.74859       0.05616      -0.22278
                        -----------------------------------------
Magnitude (a.u.)       :      0.78305
Magnitude (Debye)      :      1.99037

Rotational constants in cm-1:     0.016868     0.009840     0.006644
Rotational constants in MHz :   505.694595   294.997944   199.187092

                             ****ORCA TERMINATED NORMALLY****
TOTAL RUN TIME: 0 days 0 hours 0 minutes 34 seconds 942 msec
