                         Program Version 4.2.1 -  RELEASE  -
|  1> ! wB97X-D3 SP def2-SVP
|  2> %pal
|  3> nprocs 16
|  4> end
|  5>
|  6> * xyz 0 1
|  7> S 	 -25.1124 	 56.1311 	 113.674
|  8> C 	 -23.8937 	 56.718 	 112.612
|  9> C 	 -24.4469 	 57.2828 	 111.446
| 10> C 	 -25.8885 	 57.2281 	 111.538
| 11> C 	 -26.4161 	 56.4731 	 112.571
| 12> H 	 -26.4817 	 57.7277 	 110.798
| 13> C 	 -23.7759 	 58.1687 	 110.435
| 14> H 	 -22.841 	 58.639 	 110.744
| 15> H 	 -24.4185 	 59.0029 	 110.355
| 16> C 	 -23.7747 	 57.6966 	 108.949
| 17> H 	 -24.656 	 57.0495 	 108.71
| 18> H 	 -23.7676 	 58.524 	 108.211
| 19> C 	 -22.5501 	 56.8525 	 108.598
| 20> H 	 -22.4968 	 56.5518 	 107.51
| 21> H 	 -21.5623 	 57.3225 	 108.831
| 22> H 	 -22.5463 	 55.8631 	 109.019
| 23> S 	 -27.9486 	 54.2912 	 112.871
| 24> C 	 -29.7107 	 54.5236 	 113.15
| 25> C 	 -30.0769 	 55.8886 	 113.08
| 26> C 	 -28.9916 	 56.7304 	 112.772
| 27> C 	 -27.7809 	 56.0176 	 112.749
| 28> H 	 -31.1399 	 56.1622 	 113.265
| 29> C 	 -29.1213 	 58.2082 	 112.863
| 30> H 	 -28.14 	 58.7053 	 112.826
| 31> H 	 -29.4392 	 58.5219 	 113.83
| 32> C 	 -30.1836 	 58.7265 	 111.83
| 33> H 	 -30.1651 	 59.8015 	 111.95
| 34> H 	 -31.1914 	 58.4091 	 112.002
| 35> C 	 -29.7792 	 58.3279 	 110.297
| 36> H 	 -28.7183 	 58.6239 	 109.979
| 37> H 	 -30.3343 	 59.007 	 109.57
| 38> H 	 -30.0013 	 57.2897 	 110.008
| 39> H 	 -22.8512 	 56.8346 	 112.805
| 40> H 	 -30.4443 	 53.7673 	 113.358
| 41> *
| 42>
| 43>                          ****END OF INPUT****

CARTESIAN COORDINATES (ANGSTROEM)
---------------------------------
  S    -25.112400   56.131100  113.674000
  C    -23.893700   56.718000  112.612000
  C    -24.446900   57.282800  111.446000
  C    -25.888500   57.228100  111.538000
  C    -26.416100   56.473100  112.571000
  H    -26.481700   57.727700  110.798000
  C    -23.775900   58.168700  110.435000
  H    -22.841000   58.639000  110.744000
  H    -24.418500   59.002900  110.355000
  C    -23.774700   57.696600  108.949000
  H    -24.656000   57.049500  108.710000
  H    -23.767600   58.524000  108.211000
  C    -22.550100   56.852500  108.598000
  H    -22.496800   56.551800  107.510000
  H    -21.562300   57.322500  108.831000
  H    -22.546300   55.863100  109.019000
  S    -27.948600   54.291200  112.871000
  C    -29.710700   54.523600  113.150000
  C    -30.076900   55.888600  113.080000
  C    -28.991600   56.730400  112.772000
  C    -27.780900   56.017600  112.749000
  H    -31.139900   56.162200  113.265000
  C    -29.121300   58.208200  112.863000
  H    -28.140000   58.705300  112.826000
  H    -29.439200   58.521900  113.830000
  C    -30.183600   58.726500  111.830000
  H    -30.165100   59.801500  111.950000
  H    -31.191400   58.409100  112.002000
  C    -29.779200   58.327900  110.297000
  H    -28.718300   58.623900  109.979000
  H    -30.334300   59.007000  109.570000
  H    -30.001300   57.289700  110.008000
  H    -22.851200   56.834600  112.805000
  H    -30.444300   53.767300  113.358000

 Total Charge           Charge          ....    0
 Multiplicity           Mult            ....    1
 Number of Electrons    NEL             ....  134
 Basis Dimension        Dim             ....  322

ORBITAL ENERGIES
----------------

  NO   OCC          E(Eh)            E(eV)
   0   2.0000     -88.970403     -2421.0077
   1   2.0000     -88.966890     -2420.9122
   2   2.0000     -10.327250      -281.0188
   3   2.0000     -10.327064      -281.0137
   4   2.0000     -10.321176      -280.8535
   5   2.0000     -10.313004      -280.6311
   6   2.0000     -10.302985      -280.3585
   7   2.0000     -10.301417      -280.3158
   8   2.0000     -10.299318      -280.2587
   9   2.0000     -10.296876      -280.1923
  10   2.0000     -10.294121      -280.1173
  11   2.0000     -10.293579      -280.1025
  12   2.0000     -10.292157      -280.0638
  13   2.0000     -10.291517      -280.0464
  14   2.0000     -10.290114      -280.0082
  15   2.0000     -10.276292      -279.6321
  16   2.0000      -8.084267      -219.9841
  17   2.0000      -8.082023      -219.9230
  18   2.0000      -6.042756      -164.4318
  19   2.0000      -6.040620      -164.3736
  20   2.0000      -6.038946      -164.3281
  21   2.0000      -6.036332      -164.2569
  22   2.0000      -6.035036      -164.2217
  23   2.0000      -6.032796      -164.1607
  24   2.0000      -1.006562       -27.3899
  25   2.0000      -0.981719       -26.7139
  26   2.0000      -0.910064       -24.7641
  27   2.0000      -0.902930       -24.5700
  28   2.0000      -0.867062       -23.5940
  29   2.0000      -0.846293       -23.0288
  30   2.0000      -0.838840       -22.8260
  31   2.0000      -0.809640       -22.0314
  32   2.0000      -0.781338       -21.2613
  33   2.0000      -0.771321       -20.9887
  34   2.0000      -0.709586       -19.3088
  35   2.0000      -0.698517       -19.0076
  36   2.0000      -0.693843       -18.8804
  37   2.0000      -0.658777       -17.9262
  38   2.0000      -0.639848       -17.4111
  39   2.0000      -0.623318       -16.9613
  40   2.0000      -0.599284       -16.3073
  41   2.0000      -0.569589       -15.4993
  42   2.0000      -0.546896       -14.8818
  43   2.0000      -0.540807       -14.7161
  44   2.0000      -0.536708       -14.6046
  45   2.0000      -0.534352       -14.5405
  46   2.0000      -0.522113       -14.2074
  47   2.0000      -0.509329       -13.8595
  48   2.0000      -0.498085       -13.5536
  49   2.0000      -0.492865       -13.4115
  50   2.0000      -0.484658       -13.1882
  51   2.0000      -0.475277       -12.9329
  52   2.0000      -0.467268       -12.7150
  53   2.0000      -0.463095       -12.6014
  54   2.0000      -0.458932       -12.4882
  55   2.0000      -0.447201       -12.1690
  56   2.0000      -0.439364       -11.9557
  57   2.0000      -0.434991       -11.8367
  58   2.0000      -0.430194       -11.7062
  59   2.0000      -0.425229       -11.5711
  60   2.0000      -0.423891       -11.5347
  61   2.0000      -0.417304       -11.3554
  62   2.0000      -0.415133       -11.2963
  63   2.0000      -0.343914        -9.3584
  64   2.0000      -0.332535        -9.0487
  65   2.0000      -0.323543        -8.8040
  66   2.0000      -0.288784        -7.8582
  67   0.0000       0.030496         0.8298
  68   0.0000       0.065173         1.7735
  69   0.0000       0.106036         2.8854
  70   0.0000       0.112714         3.0671
  71   0.0000       0.120869         3.2890

MULLIKEN ATOMIC CHARGES
-----------------------
   0 S :    0.125025
   1 C :   -0.103303
   2 C :   -0.089673
   3 C :    0.048446
   4 C :   -0.163144
   5 H :   -0.009443
   6 C :    0.079880
   7 H :    0.024319
   8 H :    0.015146
   9 C :   -0.084676
  10 H :    0.041960
  11 H :    0.036326
  12 C :   -0.086364
  13 H :    0.029986
  14 H :    0.031553
  15 H :    0.028248
  16 S :    0.123896
  17 C :   -0.097871
  18 C :   -0.062002
  19 C :    0.018390
  20 C :   -0.169131
  21 H :    0.037757
  22 C :    0.066174
  23 H :    0.025907
  24 H :    0.025084
  25 C :   -0.067527
  26 H :    0.029419
  27 H :    0.036499
  28 C :   -0.117059
  29 H :    0.041453
  30 H :    0.034373
  31 H :    0.060613
  32 H :    0.039844
  33 H :    0.049894
Sum of atomic charges:   -0.0000000

LOEWDIN ATOMIC CHARGES
----------------------
   0 S :    0.426292
   1 C :   -0.204121
   2 C :   -0.063631
   3 C :   -0.055929
   4 C :   -0.210690
   5 H :    0.021706
   6 C :   -0.033556
   7 H :    0.031635
   8 H :    0.032666
   9 C :   -0.042719
  10 H :    0.033499
  11 H :    0.026995
  12 C :   -0.082180
  13 H :    0.029206
  14 H :    0.023678
  15 H :    0.020967
  16 S :    0.406385
  17 C :   -0.176978
  18 C :   -0.066259
  19 C :   -0.058605
  20 C :   -0.199322
  21 H :    0.039501
  22 C :   -0.030750
  23 H :    0.033882
  24 H :    0.029164
  25 C :   -0.029001
  26 H :    0.023980
  27 H :    0.020432
  28 C :   -0.084632
  29 H :    0.028968
  30 H :    0.030029
  31 H :    0.029054
  32 H :    0.025541
  33 H :    0.024795

  Mayer bond orders larger than 0.100000
B(  0-S ,  1-C ) :   1.1564 B(  0-S ,  4-C ) :   1.1522 B(  1-C ,  2-C ) :   1.5738
B(  1-C , 32-H ) :   0.9718 B(  2-C ,  3-C ) :   1.2758 B(  2-C ,  6-C ) :   1.0267
B(  3-C ,  4-C ) :   1.5474 B(  3-C ,  5-H ) :   0.9938 B(  4-C , 20-C ) :   1.0377
B(  6-C ,  7-H ) :   0.9502 B(  6-C ,  8-H ) :   0.9360 B(  6-C ,  9-C ) :   1.0478
B(  9-C , 10-H ) :   0.9557 B(  9-C , 11-H ) :   0.9602 B(  9-C , 12-C ) :   1.0775
B( 12-C , 13-H ) :   0.9728 B( 12-C , 14-H ) :   0.9768 B( 12-C , 15-H ) :   0.9763
B( 16-S , 17-C ) :   1.1406 B( 16-S , 20-C ) :   1.1592 B( 17-C , 18-C ) :   1.6184
B( 17-C , 20-C ) :   0.1104 B( 17-C , 33-H ) :   0.9694 B( 18-C , 19-C ) :   1.2346
B( 18-C , 21-H ) :   0.9804 B( 19-C , 20-C ) :   1.5636 B( 19-C , 22-C ) :   1.0570
B( 22-C , 23-H ) :   0.9364 B( 22-C , 24-H ) :   0.9394 B( 22-C , 25-C ) :   1.0561
B( 25-C , 26-H ) :   0.9596 B( 25-C , 27-H ) :   0.9609 B( 25-C , 28-C ) :   1.0550
B( 28-C , 29-H ) :   0.9748 B( 28-C , 30-H ) :   0.9750 B( 28-C , 31-H ) :   0.9758

Dispersion correction           -0.014617190
FINAL SINGLE POINT ENERGY     -1339.862932282451

DIPOLE MOMENT
-------------
                                X             Y             Z
Electronic contribution:     -1.07737     -16.80003      20.55404
Nuclear contribution   :      0.83242      17.40562     -20.78120
                        -----------------------------------------
Total Dipole Moment    :     -0.24495       0.60559      -0.22716
                        -----------------------------------------
Magnitude (a.u.)       :      0.69162
Magnitude (Debye)      :      1.75797

Rotational constants in cm-1:     0.019153     0.008508     0.006990
Rotational constants in MHz :   574.201218   255.071346   209.566411

                             ****ORCA TERMINATED NORMALLY****
TOTAL RUN TIME: 0 days 0 hours 0 minutes 30 seconds 24 msec
