                         Program Version 4.2.1 -  RELEASE  -
|  1> ! wB97X-D3 SP def2-SVP
|  2> %pal
|  3> nprocs 16
|  4> end
|  5>
|  6> * xyz 0 1
|  7> S 	 -94.4184 	 54.6451 	 123.582
|  8> C 	 -92.8878 	 54.0342 	 123.007
|  9> C 	 -92.1087 	 53.5381 	 124.026
| 10> C 	 -92.8114 	 53.6316 	 125.268
| 11> C 	 -94.0252 	 54.2684 	 125.19
| 12> H 	 -92.5444 	 53.2354 	 126.242
| 13> C 	 -90.7725 	 52.8293 	 123.895
| 14> H 	 -90.2734 	 52.7674 	 124.875
| 15> H 	 -90.2339 	 53.5972 	 123.248
| 16> C 	 -90.8243 	 51.4563 	 123.37
| 17> H 	 -91.3833 	 51.3822 	 122.384
| 18> H 	 -89.7392 	 51.2904 	 123.167
| 19> C 	 -91.2806 	 50.2982 	 124.287
| 20> H 	 -90.9118 	 50.4197 	 125.34
| 21> H 	 -92.4002 	 50.3238 	 124.377
| 22> H 	 -90.8778 	 49.2972 	 123.939
| 23> S 	 -95.6701 	 53.1138 	 127.032
| 24> C 	 -96.6461 	 54.1476 	 128.083
| 25> C 	 -96.3182 	 55.4748 	 127.866
| 26> C 	 -95.2971 	 55.7382 	 126.875
| 27> C 	 -94.9376 	 54.5408 	 126.27
| 28> H 	 -96.9077 	 56.1431 	 128.552
| 29> C 	 -94.8772 	 57.0969 	 126.545
| 30> H 	 -93.7788 	 57.1111 	 126.401
| 31> H 	 -94.9081 	 57.5401 	 127.525
| 32> C 	 -95.6382 	 57.9109 	 125.446
| 33> H 	 -96.7109 	 57.9325 	 125.601
| 34> H 	 -95.4859 	 57.3285 	 124.479
| 35> C 	 -95.0735 	 59.294 	 125.245
| 36> H 	 -95.5653 	 59.8615 	 124.463
| 37> H 	 -94.0177 	 59.162 	 124.876
| 38> H 	 -95.087 	 59.9184 	 126.142
| 39> H 	 -92.5614 	 53.8643 	 121.935
| 40> H 	 -97.308 	 53.7754 	 128.836
| 41> *
| 42>
| 43>                          ****END OF INPUT****

CARTESIAN COORDINATES (ANGSTROEM)
---------------------------------
  S    -94.418400   54.645100  123.582000
  C    -92.887800   54.034200  123.007000
  C    -92.108700   53.538100  124.026000
  C    -92.811400   53.631600  125.268000
  C    -94.025200   54.268400  125.190000
  H    -92.544400   53.235400  126.242000
  C    -90.772500   52.829300  123.895000
  H    -90.273400   52.767400  124.875000
  H    -90.233900   53.597200  123.248000
  C    -90.824300   51.456300  123.370000
  H    -91.383300   51.382200  122.384000
  H    -89.739200   51.290400  123.167000
  C    -91.280600   50.298200  124.287000
  H    -90.911800   50.419700  125.340000
  H    -92.400200   50.323800  124.377000
  H    -90.877800   49.297200  123.939000
  S    -95.670100   53.113800  127.032000
  C    -96.646100   54.147600  128.083000
  C    -96.318200   55.474800  127.866000
  C    -95.297100   55.738200  126.875000
  C    -94.937600   54.540800  126.270000
  H    -96.907700   56.143100  128.552000
  C    -94.877200   57.096900  126.545000
  H    -93.778800   57.111100  126.401000
  H    -94.908100   57.540100  127.525000
  C    -95.638200   57.910900  125.446000
  H    -96.710900   57.932500  125.601000
  H    -95.485900   57.328500  124.479000
  C    -95.073500   59.294000  125.245000
  H    -95.565300   59.861500  124.463000
  H    -94.017700   59.162000  124.876000
  H    -95.087000   59.918400  126.142000
  H    -92.561400   53.864300  121.935000
  H    -97.308000   53.775400  128.836000

 Total Charge           Charge          ....    0
 Multiplicity           Mult            ....    1
 Number of Electrons    NEL             ....  134
 Basis Dimension        Dim             ....  322

ORBITAL ENERGIES
----------------

  NO   OCC          E(Eh)            E(eV)
   0   2.0000     -88.967622     -2420.9321
   1   2.0000     -88.962363     -2420.7890
   2   2.0000     -10.325094      -280.9601
   3   2.0000     -10.318999      -280.7942
   4   2.0000     -10.315652      -280.7032
   5   2.0000     -10.314875      -280.6820
   6   2.0000     -10.304687      -280.4048
   7   2.0000     -10.297769      -280.2166
   8   2.0000     -10.297475      -280.2085
   9   2.0000     -10.296609      -280.1850
  10   2.0000     -10.292014      -280.0600
  11   2.0000     -10.290977      -280.0317
  12   2.0000     -10.290474      -280.0180
  13   2.0000     -10.289025      -279.9786
  14   2.0000     -10.288285      -279.9585
  15   2.0000     -10.277953      -279.6773
  16   2.0000      -8.082810      -219.9444
  17   2.0000      -8.076582      -219.7750
  18   2.0000      -6.041250      -164.3908
  19   2.0000      -6.037165      -164.2796
  20   2.0000      -6.035119      -164.2239
  21   2.0000      -6.033708      -164.1855
  22   2.0000      -6.031147      -164.1158
  23   2.0000      -6.027364      -164.0129
  24   2.0000      -1.010546       -27.4983
  25   2.0000      -0.982420       -26.7330
  26   2.0000      -0.918291       -24.9880
  27   2.0000      -0.907787       -24.7021
  28   2.0000      -0.868638       -23.6369
  29   2.0000      -0.853224       -23.2174
  30   2.0000      -0.846036       -23.0218
  31   2.0000      -0.809837       -22.0368
  32   2.0000      -0.785253       -21.3678
  33   2.0000      -0.771087       -20.9823
  34   2.0000      -0.705391       -19.1947
  35   2.0000      -0.695891       -18.9362
  36   2.0000      -0.693427       -18.8691
  37   2.0000      -0.657480       -17.8909
  38   2.0000      -0.637349       -17.3432
  39   2.0000      -0.607732       -16.5372
  40   2.0000      -0.594087       -16.1659
  41   2.0000      -0.576915       -15.6986
  42   2.0000      -0.557237       -15.1632
  43   2.0000      -0.549694       -14.9579
  44   2.0000      -0.539229       -14.6732
  45   2.0000      -0.524899       -14.2832
  46   2.0000      -0.518549       -14.1104
  47   2.0000      -0.511216       -13.9109
  48   2.0000      -0.506112       -13.7720
  49   2.0000      -0.496266       -13.5041
  50   2.0000      -0.483295       -13.1511
  51   2.0000      -0.476605       -12.9691
  52   2.0000      -0.471190       -12.8217
  53   2.0000      -0.461254       -12.5514
  54   2.0000      -0.453560       -12.3420
  55   2.0000      -0.451347       -12.2818
  56   2.0000      -0.442951       -12.0533
  57   2.0000      -0.438677       -11.9370
  58   2.0000      -0.432782       -11.7766
  59   2.0000      -0.425018       -11.5653
  60   2.0000      -0.421251       -11.4628
  61   2.0000      -0.409531       -11.1439
  62   2.0000      -0.401114       -10.9149
  63   2.0000      -0.333968        -9.0877
  64   2.0000      -0.332889        -9.0584
  65   2.0000      -0.325698        -8.8627
  66   2.0000      -0.302071        -8.2198
  67   0.0000       0.040900         1.1129
  68   0.0000       0.061489         1.6732
  69   0.0000       0.107906         2.9363
  70   0.0000       0.121307         3.3009
  71   0.0000       0.130065         3.5392

MULLIKEN ATOMIC CHARGES
-----------------------
   0 S :    0.135930
   1 C :   -0.152250
   2 C :   -0.088655
   3 C :    0.030061
   4 C :   -0.178193
   5 H :    0.004273
   6 C :    0.054689
   7 H :    0.024083
   8 H :    0.048174
   9 C :   -0.080487
  10 H :    0.037465
  11 H :    0.034730
  12 C :   -0.081190
  13 H :    0.028217
  14 H :    0.053386
  15 H :    0.053315
  16 S :    0.099388
  17 C :   -0.100565
  18 C :   -0.060958
  19 C :   -0.000136
  20 C :   -0.183193
  21 H :    0.034949
  22 C :    0.071069
  23 H :    0.026143
  24 H :    0.009024
  25 C :   -0.052104
  26 H :    0.029102
  27 H :    0.033576
  28 C :   -0.049401
  29 H :    0.033937
  30 H :    0.035779
  31 H :    0.033776
  32 H :    0.063212
  33 H :    0.052853
Sum of atomic charges:    0.0000000

LOEWDIN ATOMIC CHARGES
----------------------
   0 S :    0.443081
   1 C :   -0.217810
   2 C :   -0.068455
   3 C :   -0.066283
   4 C :   -0.220362
   5 H :    0.028850
   6 C :   -0.040077
   7 H :    0.033544
   8 H :    0.045159
   9 C :   -0.053778
  10 H :    0.029529
  11 H :    0.030747
  12 C :   -0.075810
  13 H :    0.025651
  14 H :    0.032539
  15 H :    0.036327
  16 S :    0.384206
  17 C :   -0.181529
  18 C :   -0.076392
  19 C :   -0.056090
  20 C :   -0.188842
  21 H :    0.040162
  22 C :   -0.043737
  23 H :    0.038333
  24 H :    0.031789
  25 C :   -0.039161
  26 H :    0.022042
  27 H :    0.026279
  28 C :   -0.069956
  29 H :    0.026154
  30 H :    0.032918
  31 H :    0.023700
  32 H :    0.041155
  33 H :    0.026116

  Mayer bond orders larger than 0.100000
B(  0-S ,  1-C ) :   1.1453 B(  0-S ,  4-C ) :   1.1719 B(  1-C ,  2-C ) :   1.6157
B(  1-C , 32-H ) :   0.9573 B(  2-C ,  3-C ) :   1.2387 B(  2-C ,  6-C ) :   1.0055
B(  3-C ,  4-C ) :   1.5833 B(  3-C ,  5-H ) :   0.9970 B(  4-C , 20-C ) :   1.0172
B(  6-C ,  7-H ) :   0.9361 B(  6-C ,  8-H ) :   0.9363 B(  6-C ,  9-C ) :   1.0837
B(  9-C , 10-H ) :   0.9522 B(  9-C , 11-H ) :   0.9504 B(  9-C , 12-C ) :   1.0704
B( 12-C , 13-H ) :   0.9716 B( 12-C , 14-H ) :   0.9744 B( 12-C , 15-H ) :   0.9743
B( 16-S , 17-C ) :   1.1330 B( 16-S , 20-C ) :   1.1416 B( 17-C , 18-C ) :   1.6485
B( 17-C , 33-H ) :   0.9702 B( 18-C , 19-C ) :   1.1966 B( 18-C , 21-H ) :   0.9791
B( 19-C , 20-C ) :   1.5987 B( 19-C , 22-C ) :   1.0639 B( 22-C , 23-H ) :   0.9187
B( 22-C , 24-H ) :   0.9179 B( 22-C , 25-C ) :   1.0487 B( 25-C , 26-H ) :   0.9561
B( 25-C , 27-H ) :   0.9473 B( 25-C , 28-C ) :   1.0869 B( 28-C , 29-H ) :   0.9722
B( 28-C , 30-H ) :   0.9722 B( 28-C , 31-H ) :   0.9756

Dispersion correction           -0.014540881
FINAL SINGLE POINT ENERGY     -1339.879719406299

DIPOLE MOMENT
-------------
                                X             Y             Z
Electronic contribution:    -12.07976      -5.04170       3.70900
Nuclear contribution   :     12.38146       5.13187      -3.60438
                        -----------------------------------------
Total Dipole Moment    :      0.30170       0.09017       0.10462
                        -----------------------------------------
Magnitude (a.u.)       :      0.33181
Magnitude (Debye)      :      0.84339

Rotational constants in cm-1:     0.020370     0.008528     0.006609
Rotational constants in MHz :   610.686805   255.656468   198.144026

                             ****ORCA TERMINATED NORMALLY****
TOTAL RUN TIME: 0 days 0 hours 0 minutes 31 seconds 54 msec
