                         Program Version 4.2.1 -  RELEASE  -
|  1> ! wB97X-D3 SP def2-SVP
|  2> %pal
|  3> nprocs 16
|  4> end
|  5>
|  6> * xyz 0 1
|  7> S 	 45.5494 	 24.0224 	 83.3444
|  8> C 	 45.7778 	 25.0931 	 81.987
|  9> C 	 46.4246 	 24.4901 	 80.9182
| 10> C 	 46.575 	 23.08 	 81.1751
| 11> C 	 46.1058 	 22.6209 	 82.404
| 12> H 	 47.04 	 22.3156 	 80.5307
| 13> C 	 46.8778 	 25.0644 	 79.6571
| 14> H 	 47.2913 	 24.2816 	 79.1537
| 15> H 	 47.6153 	 25.8525 	 79.7239
| 16> C 	 45.7343 	 25.5414 	 78.7434
| 17> H 	 44.9931 	 24.7589 	 78.6178
| 18> H 	 45.1808 	 26.2962 	 79.236
| 19> C 	 46.2855 	 26.0301 	 77.3762
| 20> H 	 46.7825 	 26.9964 	 77.3606
| 21> H 	 46.9979 	 25.2997 	 77.0085
| 22> H 	 45.3906 	 26.0715 	 76.6473
| 23> S 	 47.0978 	 20.8107 	 84.2783
| 24> C 	 46.6496 	 19.1661 	 84.2979
| 25> C 	 45.8266 	 18.9945 	 83.226
| 26> C 	 45.4802 	 20.082 	 82.3906
| 27> C 	 46.0731 	 21.2587 	 82.9136
| 28> H 	 45.4432 	 17.9691 	 83.0342
| 29> C 	 44.7018 	 19.9421 	 81.1131
| 30> H 	 44.554 	 20.8931 	 80.6085
| 31> H 	 43.6722 	 19.6128 	 81.4305
| 32> C 	 45.1684 	 18.9027 	 80.031
| 33> H 	 45.4389 	 17.9346 	 80.5497
| 34> H 	 46.0796 	 19.1043 	 79.4298
| 35> C 	 44.1263 	 18.6716 	 78.9291
| 36> H 	 44.709 	 18.0677 	 78.1739
| 37> H 	 43.8429 	 19.5581 	 78.4389
| 38> H 	 43.2432 	 18.1318 	 79.311
| 39> H 	 45.4865 	 26.1841 	 81.8451
| 40> H 	 47.0012 	 18.3725 	 84.9533
| 41> *
| 42>
| 43>                          ****END OF INPUT****

CARTESIAN COORDINATES (ANGSTROEM)
---------------------------------
  S     45.549400   24.022400   83.344400
  C     45.777800   25.093100   81.987000
  C     46.424600   24.490100   80.918200
  C     46.575000   23.080000   81.175100
  C     46.105800   22.620900   82.404000
  H     47.040000   22.315600   80.530700
  C     46.877800   25.064400   79.657100
  H     47.291300   24.281600   79.153700
  H     47.615300   25.852500   79.723900
  C     45.734300   25.541400   78.743400
  H     44.993100   24.758900   78.617800
  H     45.180800   26.296200   79.236000
  C     46.285500   26.030100   77.376200
  H     46.782500   26.996400   77.360600
  H     46.997900   25.299700   77.008500
  H     45.390600   26.071500   76.647300
  S     47.097800   20.810700   84.278300
  C     46.649600   19.166100   84.297900
  C     45.826600   18.994500   83.226000
  C     45.480200   20.082000   82.390600
  C     46.073100   21.258700   82.913600
  H     45.443200   17.969100   83.034200
  C     44.701800   19.942100   81.113100
  H     44.554000   20.893100   80.608500
  H     43.672200   19.612800   81.430500
  C     45.168400   18.902700   80.031000
  H     45.438900   17.934600   80.549700
  H     46.079600   19.104300   79.429800
  C     44.126300   18.671600   78.929100
  H     44.709000   18.067700   78.173900
  H     43.842900   19.558100   78.438900
  H     43.243200   18.131800   79.311000
  H     45.486500   26.184100   81.845100
  H     47.001200   18.372500   84.953300

 Total Charge           Charge          ....    0
 Multiplicity           Mult            ....    1
 Number of Electrons    NEL             ....  134
 Basis Dimension        Dim             ....  322

ORBITAL ENERGIES
----------------

  NO   OCC          E(Eh)            E(eV)
   0   2.0000     -88.968263     -2420.9495
   1   2.0000     -88.962868     -2420.8027
   2   2.0000     -10.330676      -281.1120
   3   2.0000     -10.330358      -281.1033
   4   2.0000     -10.319442      -280.8063
   5   2.0000     -10.314756      -280.6788
   6   2.0000     -10.306572      -280.4561
   7   2.0000     -10.298828      -280.2454
   8   2.0000     -10.298609      -280.2394
   9   2.0000     -10.297652      -280.2134
  10   2.0000     -10.296261      -280.1755
  11   2.0000     -10.290025      -280.0058
  12   2.0000     -10.286953      -279.9222
  13   2.0000     -10.284995      -279.8690
  14   2.0000     -10.281647      -279.7778
  15   2.0000     -10.280639      -279.7504
  16   2.0000      -8.082332      -219.9314
  17   2.0000      -8.078150      -219.8176
  18   2.0000      -6.040939      -164.3823
  19   2.0000      -6.036906      -164.2726
  20   2.0000      -6.036591      -164.2640
  21   2.0000      -6.033038      -164.1673
  22   2.0000      -6.032416      -164.1504
  23   2.0000      -6.029077      -164.0595
  24   2.0000      -1.006359       -27.3844
  25   2.0000      -0.986250       -26.8372
  26   2.0000      -0.919462       -25.0198
  27   2.0000      -0.906145       -24.6575
  28   2.0000      -0.869554       -23.6618
  29   2.0000      -0.853513       -23.2253
  30   2.0000      -0.846780       -23.0421
  31   2.0000      -0.810940       -22.0668
  32   2.0000      -0.781973       -21.2786
  33   2.0000      -0.772190       -21.0124
  34   2.0000      -0.712550       -19.3895
  35   2.0000      -0.702458       -19.1149
  36   2.0000      -0.696041       -18.9402
  37   2.0000      -0.651724       -17.7343
  38   2.0000      -0.637405       -17.3447
  39   2.0000      -0.617099       -16.7921
  40   2.0000      -0.601340       -16.3633
  41   2.0000      -0.575411       -15.6577
  42   2.0000      -0.563765       -15.3408
  43   2.0000      -0.560142       -15.2422
  44   2.0000      -0.528915       -14.3925
  45   2.0000      -0.520118       -14.1531
  46   2.0000      -0.518205       -14.1011
  47   2.0000      -0.511127       -13.9085
  48   2.0000      -0.508811       -13.8455
  49   2.0000      -0.501553       -13.6479
  50   2.0000      -0.494954       -13.4684
  51   2.0000      -0.480440       -13.0734
  52   2.0000      -0.468719       -12.7545
  53   2.0000      -0.466444       -12.6926
  54   2.0000      -0.461307       -12.5528
  55   2.0000      -0.450904       -12.2697
  56   2.0000      -0.446574       -12.1519
  57   2.0000      -0.436217       -11.8701
  58   2.0000      -0.431962       -11.7543
  59   2.0000      -0.427224       -11.6254
  60   2.0000      -0.422608       -11.4997
  61   2.0000      -0.416734       -11.3399
  62   2.0000      -0.408335       -11.1114
  63   2.0000      -0.341647        -9.2967
  64   2.0000      -0.329108        -8.9555
  65   2.0000      -0.326409        -8.8820
  66   2.0000      -0.296318        -8.0632
  67   0.0000       0.033445         0.9101
  68   0.0000       0.060528         1.6471
  69   0.0000       0.117899         3.2082
  70   0.0000       0.123659         3.3649
  71   0.0000       0.130793         3.5591

MULLIKEN ATOMIC CHARGES
-----------------------
   0 S :    0.125929
   1 C :   -0.134094
   2 C :   -0.111715
   3 C :    0.031484
   4 C :   -0.183679
   5 H :    0.022509
   6 C :    0.142289
   7 H :   -0.018653
   8 H :    0.033371
   9 C :   -0.080007
  10 H :    0.024991
  11 H :    0.013882
  12 C :   -0.064100
  13 H :    0.040654
  14 H :    0.027904
  15 H :    0.045898
  16 S :    0.108370
  17 C :   -0.083478
  18 C :   -0.075129
  19 C :    0.022912
  20 C :   -0.180587
  21 H :    0.021767
  22 C :    0.067435
  23 H :    0.024906
  24 H :    0.036614
  25 C :   -0.112666
  26 H :    0.031831
  27 H :    0.032016
  28 C :   -0.051562
  29 H :    0.038828
  30 H :    0.026790
  31 H :    0.041782
  32 H :    0.067948
  33 H :    0.065562
Sum of atomic charges:   -0.0000000

LOEWDIN ATOMIC CHARGES
----------------------
   0 S :    0.405643
   1 C :   -0.208394
   2 C :   -0.068820
   3 C :   -0.057855
   4 C :   -0.197477
   5 H :    0.035343
   6 C :   -0.027481
   7 H :    0.017971
   8 H :    0.033501
   9 C :   -0.031430
  10 H :    0.024650
  11 H :    0.013541
  12 C :   -0.069446
  13 H :    0.024844
  14 H :    0.022206
  15 H :    0.037250
  16 S :    0.423187
  17 C :   -0.204751
  18 C :   -0.083763
  19 C :   -0.056106
  20 C :   -0.202153
  21 H :    0.029643
  22 C :   -0.036509
  23 H :    0.029491
  24 H :    0.041596
  25 C :   -0.047195
  26 H :    0.025786
  27 H :    0.025643
  28 C :   -0.063235
  29 H :    0.035588
  30 H :    0.016931
  31 H :    0.025903
  32 H :    0.045578
  33 H :    0.040319

  Mayer bond orders larger than 0.100000
B(  0-S ,  1-C ) :   1.1480 B(  0-S ,  4-C ) :   1.1377 B(  1-C ,  2-C ) :   1.6056
B(  1-C , 32-H ) :   0.9552 B(  2-C ,  3-C ) :   1.2415 B(  2-C ,  6-C ) :   1.0383
B(  3-C ,  4-C ) :   1.5873 B(  3-C ,  5-H ) :   0.9858 B(  4-C , 20-C ) :   1.0373
B(  6-C ,  7-H ) :   0.9213 B(  6-C ,  8-H ) :   0.9314 B(  6-C ,  9-C ) :   1.0618
B(  9-C , 10-H ) :   0.9556 B(  9-C , 11-H ) :   0.9580 B(  9-C , 12-C ) :   1.0752
B( 12-C , 13-H ) :   0.9759 B( 12-C , 14-H ) :   0.9754 B( 12-C , 15-H ) :   0.9758
B( 16-S , 17-C ) :   1.1599 B( 16-S , 20-C ) :   1.1701 B( 17-C , 18-C ) :   1.5807
B( 17-C , 20-C ) :   0.1047 B( 17-C , 33-H ) :   0.9705 B( 18-C , 19-C ) :   1.2710
B( 18-C , 21-H ) :   0.9786 B( 19-C , 20-C ) :   1.5351 B( 19-C , 22-C ) :   1.0540
B( 22-C , 23-H ) :   0.9341 B( 22-C , 24-H ) :   0.9310 B( 22-C , 25-C ) :   1.0462
B( 25-C , 26-H ) :   0.9550 B( 25-C , 27-H ) :   0.9614 B( 25-C , 28-C ) :   1.0775
B( 28-C , 29-H ) :   0.9767 B( 28-C , 30-H ) :   0.9755 B( 28-C , 31-H ) :   0.9756

Dispersion correction           -0.013426588
FINAL SINGLE POINT ENERGY     -1339.871815414153

DIPOLE MOMENT
-------------
                                X             Y             Z
Electronic contribution:      5.91245       0.90647      31.54797
Nuclear contribution   :     -5.94287      -1.09584     -32.31862
                        -----------------------------------------
Total Dipole Moment    :     -0.03042      -0.18937      -0.77065
                        -----------------------------------------
Magnitude (a.u.)       :      0.79416
Magnitude (Debye)      :      2.01860

Rotational constants in cm-1:     0.016828     0.008439     0.006086
Rotational constants in MHz :   504.498376   252.989154   182.453891

                             ****ORCA TERMINATED NORMALLY****
TOTAL RUN TIME: 0 days 0 hours 0 minutes 28 seconds 931 msec
