                         Program Version 4.2.1 -  RELEASE  -
|  1> ! wB97X-D3 SP def2-SVP
|  2> %pal
|  3> nprocs 16
|  4> end
|  5>
|  6> * xyz 0 1
|  7> S 	 -37.0725 	 23.3362 	 75.6752
|  8> C 	 -35.8007 	 23.6924 	 76.8681
|  9> C 	 -36.246 	 24.6648 	 77.7619
| 10> C 	 -37.5945 	 25.1342 	 77.452
| 11> C 	 -38.2042 	 24.5104 	 76.3613
| 12> H 	 -37.9924 	 26.0068 	 78.0613
| 13> C 	 -35.5822 	 25.2659 	 78.9714
| 14> H 	 -36.1872 	 25.0501 	 79.9217
| 15> H 	 -35.5475 	 26.343 	 78.8581
| 16> C 	 -34.1142 	 24.7855 	 79.1686
| 17> H 	 -34.2412 	 23.7481 	 79.4003
| 18> H 	 -33.4978 	 24.7304 	 78.2693
| 19> C 	 -33.4078 	 25.5079 	 80.3391
| 20> H 	 -33.8516 	 25.1471 	 81.2707
| 21> H 	 -32.3669 	 25.2335 	 80.4061
| 22> H 	 -33.3711 	 26.6109 	 80.3503
| 23> S 	 -40.8065 	 24.5976 	 77.1926
| 24> C 	 -42.0699 	 24.7213 	 76.0437
| 25> C 	 -41.6131 	 24.4795 	 74.7643
| 26> C 	 -40.1705 	 24.4284 	 74.6665
| 27> C 	 -39.57 	 24.5842 	 75.9172
| 28> H 	 -42.307 	 24.3475 	 73.9567
| 29> C 	 -39.5284 	 23.9942 	 73.3966
| 30> H 	 -39.6193 	 22.9161 	 73.239
| 31> H 	 -38.471 	 24.2713 	 73.5454
| 32> C 	 -39.9524 	 24.8382 	 72.1528
| 33> H 	 -40.9568 	 24.6525 	 71.9196
| 34> H 	 -39.4617 	 24.463 	 71.25
| 35> C 	 -39.7008 	 26.3315 	 72.2852
| 36> H 	 -40.1281 	 26.7436 	 73.2909
| 37> H 	 -39.9592 	 26.9392 	 71.4718
| 38> H 	 -38.5828 	 26.4759 	 72.3867
| 39> H 	 -34.8703 	 23.0276 	 77.039
| 40> H 	 -43.0917 	 24.5865 	 76.2294
| 41> *
| 42>
| 43>                          ****END OF INPUT****

CARTESIAN COORDINATES (ANGSTROEM)
---------------------------------
  S    -37.072500   23.336200   75.675200
  C    -35.800700   23.692400   76.868100
  C    -36.246000   24.664800   77.761900
  C    -37.594500   25.134200   77.452000
  C    -38.204200   24.510400   76.361300
  H    -37.992400   26.006800   78.061300
  C    -35.582200   25.265900   78.971400
  H    -36.187200   25.050100   79.921700
  H    -35.547500   26.343000   78.858100
  C    -34.114200   24.785500   79.168600
  H    -34.241200   23.748100   79.400300
  H    -33.497800   24.730400   78.269300
  C    -33.407800   25.507900   80.339100
  H    -33.851600   25.147100   81.270700
  H    -32.366900   25.233500   80.406100
  H    -33.371100   26.610900   80.350300
  S    -40.806500   24.597600   77.192600
  C    -42.069900   24.721300   76.043700
  C    -41.613100   24.479500   74.764300
  C    -40.170500   24.428400   74.666500
  C    -39.570000   24.584200   75.917200
  H    -42.307000   24.347500   73.956700
  C    -39.528400   23.994200   73.396600
  H    -39.619300   22.916100   73.239000
  H    -38.471000   24.271300   73.545400
  C    -39.952400   24.838200   72.152800
  H    -40.956800   24.652500   71.919600
  H    -39.461700   24.463000   71.250000
  C    -39.700800   26.331500   72.285200
  H    -40.128100   26.743600   73.290900
  H    -39.959200   26.939200   71.471800
  H    -38.582800   26.475900   72.386700
  H    -34.870300   23.027600   77.039000
  H    -43.091700   24.586500   76.229400

 Total Charge           Charge          ....    0
 Multiplicity           Mult            ....    1
 Number of Electrons    NEL             ....  134
 Basis Dimension        Dim             ....  322

ORBITAL ENERGIES
----------------

  NO   OCC          E(Eh)            E(eV)
   0   2.0000     -88.966537     -2420.9025
   1   2.0000     -88.966484     -2420.9011
   2   2.0000     -10.335654      -281.2474
   3   2.0000     -10.329869      -281.0900
   4   2.0000     -10.325151      -280.9617
   5   2.0000     -10.310072      -280.5513
   6   2.0000     -10.305754      -280.4338
   7   2.0000     -10.304198      -280.3915
   8   2.0000     -10.301289      -280.3123
   9   2.0000     -10.299530      -280.2645
  10   2.0000     -10.292285      -280.0673
  11   2.0000     -10.291706      -280.0516
  12   2.0000     -10.287723      -279.9432
  13   2.0000     -10.281700      -279.7793
  14   2.0000     -10.280822      -279.7554
  15   2.0000     -10.278923      -279.7037
  16   2.0000      -8.081335      -219.9043
  17   2.0000      -8.080039      -219.8690
  18   2.0000      -6.039920      -164.3546
  19   2.0000      -6.038849      -164.3254
  20   2.0000      -6.035860      -164.2441
  21   2.0000      -6.034601      -164.2098
  22   2.0000      -6.031985      -164.1386
  23   2.0000      -6.030638      -164.1020
  24   2.0000      -1.004773       -27.3413
  25   2.0000      -0.979155       -26.6442
  26   2.0000      -0.911129       -24.7931
  27   2.0000      -0.909151       -24.7393
  28   2.0000      -0.869288       -23.6545
  29   2.0000      -0.848651       -23.0930
  30   2.0000      -0.842887       -22.9361
  31   2.0000      -0.808765       -22.0076
  32   2.0000      -0.780748       -21.2452
  33   2.0000      -0.769954       -20.9515
  34   2.0000      -0.716013       -19.4837
  35   2.0000      -0.703271       -19.1370
  36   2.0000      -0.695419       -18.9233
  37   2.0000      -0.657789       -17.8993
  38   2.0000      -0.626709       -17.0536
  39   2.0000      -0.610631       -16.6161
  40   2.0000      -0.594947       -16.1893
  41   2.0000      -0.567858       -15.4522
  42   2.0000      -0.565532       -15.3889
  43   2.0000      -0.562923       -15.3179
  44   2.0000      -0.534999       -14.5581
  45   2.0000      -0.520556       -14.1650
  46   2.0000      -0.512316       -13.9408
  47   2.0000      -0.510446       -13.8899
  48   2.0000      -0.504772       -13.7355
  49   2.0000      -0.496775       -13.5179
  50   2.0000      -0.491906       -13.3854
  51   2.0000      -0.475896       -12.9498
  52   2.0000      -0.471501       -12.8302
  53   2.0000      -0.456583       -12.4242
  54   2.0000      -0.454403       -12.3649
  55   2.0000      -0.449846       -12.2409
  56   2.0000      -0.447832       -12.1861
  57   2.0000      -0.440197       -11.9784
  58   2.0000      -0.432506       -11.7691
  59   2.0000      -0.429646       -11.6913
  60   2.0000      -0.415703       -11.3119
  61   2.0000      -0.412138       -11.2148
  62   2.0000      -0.405610       -11.0372
  63   2.0000      -0.354942        -9.6585
  64   2.0000      -0.329039        -8.9536
  65   2.0000      -0.325233        -8.8500
  66   2.0000      -0.288689        -7.8556
  67   0.0000       0.022637         0.6160
  68   0.0000       0.072463         1.9718
  69   0.0000       0.103313         2.8113
  70   0.0000       0.112898         3.0721
  71   0.0000       0.120855         3.2886

MULLIKEN ATOMIC CHARGES
-----------------------
   0 S :    0.092065
   1 C :   -0.161498
   2 C :   -0.091187
   3 C :   -0.018451
   4 C :   -0.122473
   5 H :    0.041815
   6 C :    0.018798
   7 H :    0.057585
   8 H :    0.037666
   9 C :   -0.096341
  10 H :    0.021835
  11 H :    0.035030
  12 C :   -0.030995
  13 H :    0.027369
  14 H :    0.024011
  15 H :    0.038339
  16 S :    0.113997
  17 C :   -0.051273
  18 C :   -0.051299
  19 C :   -0.065141
  20 C :   -0.127944
  21 H :    0.017253
  22 C :    0.051850
  23 H :    0.059617
  24 H :    0.024061
  25 C :   -0.046199
  26 H :    0.008206
  27 H :    0.022946
  28 C :   -0.081083
  29 H :    0.059922
  30 H :    0.031377
  31 H :    0.030546
  32 H :    0.087996
  33 H :    0.041599
Sum of atomic charges:    0.0000000

LOEWDIN ATOMIC CHARGES
----------------------
   0 S :    0.394412
   1 C :   -0.215404
   2 C :   -0.065179
   3 C :   -0.075607
   4 C :   -0.186646
   5 H :    0.042659
   6 C :   -0.035783
   7 H :    0.045539
   8 H :    0.030616
   9 C :   -0.046037
  10 H :    0.021470
  11 H :    0.023218
  12 C :   -0.067090
  13 H :    0.026796
  14 H :    0.025163
  15 H :    0.027376
  16 S :    0.420636
  17 C :   -0.192404
  18 C :   -0.063379
  19 C :   -0.058813
  20 C :   -0.191088
  21 H :    0.027471
  22 C :   -0.035570
  23 H :    0.039635
  24 H :    0.023906
  25 C :   -0.040611
  26 H :    0.009324
  27 H :    0.026605
  28 C :   -0.071757
  29 H :    0.039760
  30 H :    0.017679
  31 H :    0.030401
  32 H :    0.050724
  33 H :    0.021977

  Mayer bond orders larger than 0.100000
B(  0-S ,  1-C ) :   1.1152 B(  0-S ,  4-C ) :   1.1307 B(  1-C ,  2-C ) :   1.6309
B(  1-C , 32-H ) :   0.9499 B(  2-C ,  3-C ) :   1.2393 B(  2-C ,  6-C ) :   1.0176
B(  3-C ,  4-C ) :   1.5517 B(  3-C ,  5-H ) :   0.9852 B(  4-C , 20-C ) :   1.0842
B(  6-C ,  7-H ) :   0.9395 B(  6-C ,  8-H ) :   0.9435 B(  6-C ,  9-C ) :   1.0677
B(  9-C , 10-H ) :   0.9507 B(  9-C , 11-H ) :   0.9591 B(  9-C , 12-C ) :   1.0820
B( 12-C , 13-H ) :   0.9743 B( 12-C , 14-H ) :   0.9720 B( 12-C , 15-H ) :   0.9785
B( 16-S , 17-C ) :   1.1578 B( 16-S , 20-C ) :   1.1404 B( 17-C , 18-C ) :   1.6154
B( 17-C , 33-H ) :   0.9658 B( 18-C , 19-C ) :   1.2294 B( 18-C , 21-H ) :   0.9910
B( 19-C , 20-C ) :   1.5581 B( 19-C , 22-C ) :   1.0450 B( 22-C , 23-H ) :   0.9417
B( 22-C , 24-H ) :   0.9237 B( 22-C , 25-C ) :   1.0647 B( 25-C , 26-H ) :   0.9544
B( 25-C , 27-H ) :   0.9529 B( 25-C , 28-C ) :   1.0752 B( 28-C , 29-H ) :   0.9687
B( 28-C , 30-H ) :   0.9745 B( 28-C , 31-H ) :   0.9730

Dispersion correction           -0.013888171
FINAL SINGLE POINT ENERGY     -1339.873973797010

DIPOLE MOMENT
-------------
                                X             Y             Z
Electronic contribution:    -13.54792      -8.17309       1.18931
Nuclear contribution   :     13.62380       8.10849      -1.13437
                        -----------------------------------------
Total Dipole Moment    :      0.07587      -0.06460       0.05494
                        -----------------------------------------
Magnitude (a.u.)       :      0.11379
Magnitude (Debye)      :      0.28924

Rotational constants in cm-1:     0.025622     0.006773     0.005923
Rotational constants in MHz :   768.141290   203.034762   177.567598

                             ****ORCA TERMINATED NORMALLY****
TOTAL RUN TIME: 0 days 0 hours 0 minutes 28 seconds 30 msec
