                         Program Version 4.2.1 -  RELEASE  -
|  1> ! wB97X-D3 SP def2-SVP
|  2> %pal
|  3> nprocs 16
|  4> end
|  5>
|  6> * xyz 0 1
|  7> S 	 -22.0797 	 34.6176 	 37.5785
|  8> C 	 -22.9108 	 34.0727 	 36.1379
|  9> C 	 -22.1195 	 33.1357 	 35.5046
| 10> C 	 -20.8612 	 32.8736 	 36.1709
| 11> C 	 -20.6608 	 33.6736 	 37.2679
| 12> H 	 -20.1095 	 32.2649 	 35.8569
| 13> C 	 -22.5758 	 32.4432 	 34.2378
| 14> H 	 -23.5929 	 32.7714 	 33.9834
| 15> H 	 -22.7127 	 31.362 	 34.5171
| 16> C 	 -21.8044 	 32.7267 	 32.9324
| 17> H 	 -22.433 	 32.622 	 32.1105
| 18> H 	 -21.3699 	 33.7606 	 33.0228
| 19> C 	 -20.6582 	 31.7993 	 32.702
| 20> H 	 -20.1564 	 32.1053 	 31.7988
| 21> H 	 -19.8964 	 32.0274 	 33.4895
| 22> H 	 -20.8924 	 30.7528 	 32.6445
| 23> S 	 -19.4469 	 33.9731 	 39.8253
| 24> C 	 -17.768 	 33.9486 	 40.0185
| 25> C 	 -17.1451 	 33.6865 	 38.7432
| 26> C 	 -18.0488 	 33.6479 	 37.6553
| 27> C 	 -19.421 	 33.7626 	 38.084
| 28> H 	 -16.0739 	 33.6599 	 38.6814
| 29> C 	 -17.4663 	 33.6559 	 36.227
| 30> H 	 -16.7101 	 34.4775 	 36.2179
| 31> H 	 -18.2903 	 33.8968 	 35.6631
| 32> C 	 -16.8908 	 32.3037 	 35.712
| 33> H 	 -16.7414 	 32.191 	 34.6327
| 34> H 	 -17.6444 	 31.5142 	 35.9603
| 35> C 	 -15.5949 	 31.7818 	 36.4362
| 36> H 	 -15.1409 	 30.9677 	 35.9178
| 37> H 	 -15.6591 	 31.4921 	 37.4867
| 38> H 	 -14.8263 	 32.5463 	 36.3588
| 39> H 	 -23.905 	 34.1944 	 35.9779
| 40> H 	 -17.3187 	 34.3819 	 40.9215
| 41> *
| 42>
| 43>                          ****END OF INPUT****

CARTESIAN COORDINATES (ANGSTROEM)
---------------------------------
  S    -22.079700   34.617600   37.578500
  C    -22.910800   34.072700   36.137900
  C    -22.119500   33.135700   35.504600
  C    -20.861200   32.873600   36.170900
  C    -20.660800   33.673600   37.267900
  H    -20.109500   32.264900   35.856900
  C    -22.575800   32.443200   34.237800
  H    -23.592900   32.771400   33.983400
  H    -22.712700   31.362000   34.517100
  C    -21.804400   32.726700   32.932400
  H    -22.433000   32.622000   32.110500
  H    -21.369900   33.760600   33.022800
  C    -20.658200   31.799300   32.702000
  H    -20.156400   32.105300   31.798800
  H    -19.896400   32.027400   33.489500
  H    -20.892400   30.752800   32.644500
  S    -19.446900   33.973100   39.825300
  C    -17.768000   33.948600   40.018500
  C    -17.145100   33.686500   38.743200
  C    -18.048800   33.647900   37.655300
  C    -19.421000   33.762600   38.084000
  H    -16.073900   33.659900   38.681400
  C    -17.466300   33.655900   36.227000
  H    -16.710100   34.477500   36.217900
  H    -18.290300   33.896800   35.663100
  C    -16.890800   32.303700   35.712000
  H    -16.741400   32.191000   34.632700
  H    -17.644400   31.514200   35.960300
  C    -15.594900   31.781800   36.436200
  H    -15.140900   30.967700   35.917800
  H    -15.659100   31.492100   37.486700
  H    -14.826300   32.546300   36.358800
  H    -23.905000   34.194400   35.977900
  H    -17.318700   34.381900   40.921500

 Total Charge           Charge          ....    0
 Multiplicity           Mult            ....    1
 Number of Electrons    NEL             ....  134
 Basis Dimension        Dim             ....  322

ORBITAL ENERGIES
----------------

  NO   OCC          E(Eh)            E(eV)
   0   2.0000     -88.970308     -2421.0052
   1   2.0000     -88.962938     -2420.8046
   2   2.0000     -10.336873      -281.2806
   3   2.0000     -10.333357      -281.1849
   4   2.0000     -10.322134      -280.8795
   5   2.0000     -10.311552      -280.5916
   6   2.0000     -10.307834      -280.4904
   7   2.0000     -10.304104      -280.3889
   8   2.0000     -10.298228      -280.2290
   9   2.0000     -10.298007      -280.2230
  10   2.0000     -10.295717      -280.1607
  11   2.0000     -10.293165      -280.0912
  12   2.0000     -10.288971      -279.9771
  13   2.0000     -10.283269      -279.8220
  14   2.0000     -10.277216      -279.6573
  15   2.0000     -10.273623      -279.5595
  16   2.0000      -8.085621      -220.0209
  17   2.0000      -8.078217      -219.8194
  18   2.0000      -6.043900      -164.4629
  19   2.0000      -6.039703      -164.3487
  20   2.0000      -6.036947      -164.2737
  21   2.0000      -6.036797      -164.2696
  22   2.0000      -6.032511      -164.1530
  23   2.0000      -6.029002      -164.0575
  24   2.0000      -1.006662       -27.3927
  25   2.0000      -0.986602       -26.8468
  26   2.0000      -0.913966       -24.8703
  27   2.0000      -0.906382       -24.6639
  28   2.0000      -0.870687       -23.6926
  29   2.0000      -0.851333       -23.1659
  30   2.0000      -0.844860       -22.9898
  31   2.0000      -0.815963       -22.2035
  32   2.0000      -0.789426       -21.4814
  33   2.0000      -0.773392       -21.0451
  34   2.0000      -0.707435       -19.2503
  35   2.0000      -0.697657       -18.9842
  36   2.0000      -0.694648       -18.9023
  37   2.0000      -0.661951       -18.0126
  38   2.0000      -0.649467       -17.6729
  39   2.0000      -0.621821       -16.9206
  40   2.0000      -0.593146       -16.1403
  41   2.0000      -0.574205       -15.6249
  42   2.0000      -0.557700       -15.1758
  43   2.0000      -0.551045       -14.9947
  44   2.0000      -0.544809       -14.8250
  45   2.0000      -0.538674       -14.6581
  46   2.0000      -0.525498       -14.2995
  47   2.0000      -0.515737       -14.0339
  48   2.0000      -0.506911       -13.7937
  49   2.0000      -0.500849       -13.6288
  50   2.0000      -0.492277       -13.3955
  51   2.0000      -0.482822       -13.1383
  52   2.0000      -0.479693       -13.0531
  53   2.0000      -0.470742       -12.8095
  54   2.0000      -0.460533       -12.5318
  55   2.0000      -0.444766       -12.1027
  56   2.0000      -0.440985       -11.9998
  57   2.0000      -0.433525       -11.7968
  58   2.0000      -0.428720       -11.6661
  59   2.0000      -0.427123       -11.6226
  60   2.0000      -0.419974       -11.4281
  61   2.0000      -0.415358       -11.3025
  62   2.0000      -0.408922       -11.1273
  63   2.0000      -0.350289        -9.5318
  64   2.0000      -0.333670        -9.0796
  65   2.0000      -0.329183        -8.9575
  66   2.0000      -0.290530        -7.9057
  67   0.0000       0.019690         0.5358
  68   0.0000       0.078954         2.1484
  69   0.0000       0.114276         3.1096
  70   0.0000       0.119168         3.2427
  71   0.0000       0.127357         3.4656

MULLIKEN ATOMIC CHARGES
-----------------------
   0 S :    0.095276
   1 C :   -0.068422
   2 C :   -0.108384
   3 C :    0.075230
   4 C :   -0.131124
   5 H :   -0.050111
   6 C :    0.040178
   7 H :    0.010145
   8 H :    0.044194
   9 C :   -0.045831
  10 H :    0.017685
  11 H :    0.043024
  12 C :   -0.047821
  13 H :    0.022383
  14 H :    0.022971
  15 H :    0.034624
  16 S :    0.127488
  17 C :   -0.120784
  18 C :   -0.040538
  19 C :   -0.070942
  20 C :   -0.148843
  21 H :    0.020181
  22 C :    0.112654
  23 H :    0.047876
  24 H :    0.000261
  25 C :   -0.090143
  26 H :    0.043538
  27 H :    0.038213
  28 C :   -0.060979
  29 H :    0.023412
  30 H :    0.046827
  31 H :    0.016069
  32 H :    0.018658
  33 H :    0.083036
Sum of atomic charges:    0.0000000

LOEWDIN ATOMIC CHARGES
----------------------
   0 S :    0.406470
   1 C :   -0.183046
   2 C :   -0.054646
   3 C :   -0.059932
   4 C :   -0.187425
   5 H :    0.010779
   6 C :   -0.039132
   7 H :    0.029651
   8 H :    0.037099
   9 C :   -0.036232
  10 H :    0.015136
  11 H :    0.037028
  12 C :   -0.066307
  13 H :    0.023588
  14 H :    0.026119
  15 H :    0.020906
  16 S :    0.446996
  17 C :   -0.217060
  18 C :   -0.070337
  19 C :   -0.050742
  20 C :   -0.210555
  21 H :    0.026775
  22 C :   -0.021675
  23 H :    0.038302
  24 H :    0.017387
  25 C :   -0.041306
  26 H :    0.028201
  27 H :    0.028822
  28 C :   -0.071972
  29 H :    0.023742
  30 H :    0.026977
  31 H :    0.019489
  32 H :    0.010004
  33 H :    0.036895

  Mayer bond orders larger than 0.100000
B(  0-S ,  1-C ) :   1.1265 B(  0-S ,  4-C ) :   1.1642 B(  1-C ,  2-C ) :   1.6132
B(  1-C , 32-H ) :   0.9802 B(  2-C ,  3-C ) :   1.2190 B(  2-C ,  6-C ) :   1.0368
B(  3-C ,  4-C ) :   1.5558 B(  3-C ,  5-H ) :   1.0161 B(  4-C , 20-C ) :   1.0406
B(  6-C ,  7-H ) :   0.9399 B(  6-C ,  8-H ) :   0.9408 B(  6-C ,  9-C ) :   1.0504
B(  9-C , 10-H ) :   0.9578 B(  9-C , 11-H ) :   0.9542 B(  9-C , 12-C ) :   1.0941
B( 12-C , 13-H ) :   0.9677 B( 12-C , 14-H ) :   0.9731 B( 12-C , 15-H ) :   0.9748
B( 16-S , 17-C ) :   1.2129 B( 16-S , 20-C ) :   1.1745 B( 17-C , 18-C ) :   1.5002
B( 17-C , 20-C ) :   0.1193 B( 17-C , 33-H ) :   0.9652 B( 18-C , 19-C ) :   1.3339
B( 18-C , 21-H ) :   0.9889 B( 19-C , 20-C ) :   1.5000 B( 19-C , 22-C ) :   1.0202
B( 22-C , 23-H ) :   0.9476 B( 22-C , 24-H ) :   0.9223 B( 22-C , 25-C ) :   1.0633
B( 25-C , 26-H ) :   0.9604 B( 25-C , 27-H ) :   0.9511 B( 25-C , 28-C ) :   1.0762
B( 28-C , 29-H ) :   0.9717 B( 28-C , 30-H ) :   0.9728 B( 28-C , 31-H ) :   0.9751

Dispersion correction           -0.014954276
FINAL SINGLE POINT ENERGY     -1339.864362644589

DIPOLE MOMENT
-------------
                                X             Y             Z
Electronic contribution:    -12.51329      12.77970      25.43112
Nuclear contribution   :     12.81555     -12.98051     -25.99604
                        -----------------------------------------
Total Dipole Moment    :      0.30226      -0.20081      -0.56492
                        -----------------------------------------
Magnitude (a.u.)       :      0.67143
Magnitude (Debye)      :      1.70663

Rotational constants in cm-1:     0.017093     0.010131     0.006612
Rotational constants in MHz :   512.426869   303.706464   198.227064

                             ****ORCA TERMINATED NORMALLY****
TOTAL RUN TIME: 0 days 0 hours 0 minutes 34 seconds 821 msec
