                         Program Version 4.2.1 -  RELEASE  -
|  1> ! wB97X-D3 SP def2-SVP
|  2> %pal
|  3> nprocs 16
|  4> end
|  5>
|  6> * xyz 0 1
|  7> S 	 8.33705 	 -19.0951 	 82.4822
|  8> C 	 8.16465 	 -20.2477 	 83.7512
|  9> C 	 8.34188 	 -19.6924 	 85.0109
| 10> C 	 8.50213 	 -18.2751 	 84.9088
| 11> C 	 8.51471 	 -17.7817 	 83.6712
| 12> H 	 8.73734 	 -17.5995 	 85.7337
| 13> C 	 8.39091 	 -20.4501 	 86.3323
| 14> H 	 7.59084 	 -21.21 	 86.3364
| 15> H 	 7.97903 	 -19.659 	 87.0098
| 16> C 	 9.78974 	 -20.95 	 86.6827
| 17> H 	 10.301 	 -21.4105 	 85.8555
| 18> H 	 10.4015 	 -20.0335 	 86.8954
| 19> C 	 9.75686 	 -21.7894 	 87.954
| 20> H 	 10.7308 	 -22.2347 	 88.1337
| 21> H 	 9.32221 	 -21.2972 	 88.841
| 22> H 	 9.14855 	 -22.6646 	 87.8265
| 23> S 	 7.14201 	 -15.4002 	 83.7541
| 24> C 	 7.75776 	 -13.9828 	 82.9134
| 25> C 	 8.93471 	 -14.3517 	 82.2645
| 26> C 	 9.43465 	 -15.6518 	 82.5507
| 27> C 	 8.48386 	 -16.3773 	 83.2963
| 28> H 	 9.44975 	 -13.5655 	 81.8113
| 29> C 	 10.8623 	 -16.1098 	 82.1402
| 30> H 	 11.4326 	 -15.3665 	 81.6282
| 31> H 	 10.6335 	 -16.9364 	 81.3805
| 32> C 	 11.7936 	 -16.7894 	 83.1879
| 33> H 	 12.7483 	 -16.9626 	 82.737
| 34> H 	 11.4928 	 -17.7505 	 83.6772
| 35> C 	 12.088 	 -15.8527 	 84.3583
| 36> H 	 12.4303 	 -14.8188 	 84.1769
| 37> H 	 12.9419 	 -16.2461 	 84.9487
| 38> H 	 11.2556 	 -15.9434 	 85.0549
| 39> H 	 7.88894 	 -21.2731 	 83.6151
| 40> H 	 7.3339 	 -12.9219 	 82.8612
| 41> *
| 42>
| 43>                          ****END OF INPUT****

CARTESIAN COORDINATES (ANGSTROEM)
---------------------------------
  S      8.337050  -19.095100   82.482200
  C      8.164650  -20.247700   83.751200
  C      8.341880  -19.692400   85.010900
  C      8.502130  -18.275100   84.908800
  C      8.514710  -17.781700   83.671200
  H      8.737340  -17.599500   85.733700
  C      8.390910  -20.450100   86.332300
  H      7.590840  -21.210000   86.336400
  H      7.979030  -19.659000   87.009800
  C      9.789740  -20.950000   86.682700
  H     10.301000  -21.410500   85.855500
  H     10.401500  -20.033500   86.895400
  C      9.756860  -21.789400   87.954000
  H     10.730800  -22.234700   88.133700
  H      9.322210  -21.297200   88.841000
  H      9.148550  -22.664600   87.826500
  S      7.142010  -15.400200   83.754100
  C      7.757760  -13.982800   82.913400
  C      8.934710  -14.351700   82.264500
  C      9.434650  -15.651800   82.550700
  C      8.483860  -16.377300   83.296300
  H      9.449750  -13.565500   81.811300
  C     10.862300  -16.109800   82.140200
  H     11.432600  -15.366500   81.628200
  H     10.633500  -16.936400   81.380500
  C     11.793600  -16.789400   83.187900
  H     12.748300  -16.962600   82.737000
  H     11.492800  -17.750500   83.677200
  C     12.088000  -15.852700   84.358300
  H     12.430300  -14.818800   84.176900
  H     12.941900  -16.246100   84.948700
  H     11.255600  -15.943400   85.054900
  H      7.888940  -21.273100   83.615100
  H      7.333900  -12.921900   82.861200

 Total Charge           Charge          ....    0
 Multiplicity           Mult            ....    1
 Number of Electrons    NEL             ....  134
 Basis Dimension        Dim             ....  322

ORBITAL ENERGIES
----------------

  NO   OCC          E(Eh)            E(eV)
   0   2.0000     -88.967661     -2420.9331
   1   2.0000     -88.964213     -2420.8393
   2   2.0000     -10.323268      -280.9104
   3   2.0000     -10.322908      -280.9006
   4   2.0000     -10.322744      -280.8961
   5   2.0000     -10.311461      -280.5891
   6   2.0000     -10.306634      -280.4578
   7   2.0000     -10.300164      -280.2817
   8   2.0000     -10.298777      -280.2440
   9   2.0000     -10.296422      -280.1799
  10   2.0000     -10.290926      -280.0303
  11   2.0000     -10.289029      -279.9787
  12   2.0000     -10.287672      -279.9418
  13   2.0000     -10.286155      -279.9005
  14   2.0000     -10.277528      -279.6658
  15   2.0000     -10.272032      -279.5162
  16   2.0000      -8.082175      -219.9272
  17   2.0000      -8.079022      -219.8414
  18   2.0000      -6.040669      -164.3750
  19   2.0000      -6.037541      -164.2898
  20   2.0000      -6.036529      -164.2623
  21   2.0000      -6.033535      -164.1808
  22   2.0000      -6.033133      -164.1699
  23   2.0000      -6.029755      -164.0780
  24   2.0000      -1.007597       -27.4181
  25   2.0000      -0.984406       -26.7870
  26   2.0000      -0.911822       -24.8119
  27   2.0000      -0.900790       -24.5117
  28   2.0000      -0.870978       -23.7005
  29   2.0000      -0.851314       -23.1654
  30   2.0000      -0.845050       -22.9950
  31   2.0000      -0.815264       -22.1845
  32   2.0000      -0.780687       -21.2436
  33   2.0000      -0.768166       -20.9029
  34   2.0000      -0.706513       -19.2252
  35   2.0000      -0.703065       -19.1314
  36   2.0000      -0.683966       -18.6117
  37   2.0000      -0.660249       -17.9663
  38   2.0000      -0.642308       -17.4781
  39   2.0000      -0.617682       -16.8080
  40   2.0000      -0.588498       -16.0138
  41   2.0000      -0.569398       -15.4941
  42   2.0000      -0.556863       -15.1530
  43   2.0000      -0.548237       -14.9183
  44   2.0000      -0.538450       -14.6520
  45   2.0000      -0.530398       -14.4329
  46   2.0000      -0.516133       -14.0447
  47   2.0000      -0.513815       -13.9816
  48   2.0000      -0.503705       -13.7065
  49   2.0000      -0.496573       -13.5124
  50   2.0000      -0.488443       -13.2912
  51   2.0000      -0.475203       -12.9309
  52   2.0000      -0.471040       -12.8177
  53   2.0000      -0.466108       -12.6835
  54   2.0000      -0.455578       -12.3969
  55   2.0000      -0.451411       -12.2835
  56   2.0000      -0.441066       -12.0020
  57   2.0000      -0.434532       -11.8242
  58   2.0000      -0.425923       -11.5899
  59   2.0000      -0.423894       -11.5347
  60   2.0000      -0.419652       -11.4193
  61   2.0000      -0.413418       -11.2497
  62   2.0000      -0.411262       -11.1910
  63   2.0000      -0.341820        -9.3014
  64   2.0000      -0.334248        -9.0953
  65   2.0000      -0.323134        -8.7929
  66   2.0000      -0.295950        -8.0532
  67   0.0000       0.037101         1.0096
  68   0.0000       0.061593         1.6760
  69   0.0000       0.113466         3.0876
  70   0.0000       0.120620         3.2822
  71   0.0000       0.130517         3.5515

MULLIKEN ATOMIC CHARGES
-----------------------
   0 S :    0.114485
   1 C :   -0.113226
   2 C :   -0.105240
   3 C :    0.008327
   4 C :   -0.145489
   5 H :    0.018047
   6 C :    0.044911
   7 H :    0.025905
   8 H :    0.030516
   9 C :   -0.055290
  10 H :    0.032432
  11 H :    0.030866
  12 C :   -0.020141
  13 H :    0.029981
  14 H :    0.037335
  15 H :    0.014537
  16 S :    0.132916
  17 C :   -0.140701
  18 C :   -0.019279
  19 C :   -0.021165
  20 C :   -0.182976
  21 H :   -0.002910
  22 C :    0.072063
  23 H :    0.018799
  24 H :    0.045965
  25 C :   -0.056369
  26 H :    0.022396
  27 H :    0.047016
  28 C :   -0.076630
  29 H :    0.032891
  30 H :    0.020175
  31 H :    0.032625
  32 H :    0.039373
  33 H :    0.087855
Sum of atomic charges:   -0.0000000

LOEWDIN ATOMIC CHARGES
----------------------
   0 S :    0.400548
   1 C :   -0.196420
   2 C :   -0.067001
   3 C :   -0.067189
   4 C :   -0.188135
   5 H :    0.035054
   6 C :   -0.036914
   7 H :    0.028872
   8 H :    0.036763
   9 C :   -0.040491
  10 H :    0.024968
  11 H :    0.031787
  12 C :   -0.067316
  13 H :    0.026881
  14 H :    0.030747
  15 H :    0.020241
  16 S :    0.428937
  17 C :   -0.205263
  18 C :   -0.070614
  19 C :   -0.055495
  20 C :   -0.217192
  21 H :    0.019426
  22 C :   -0.030129
  23 H :    0.027523
  24 H :    0.043203
  25 C :   -0.041659
  26 H :    0.021604
  27 H :    0.034606
  28 C :   -0.076504
  29 H :    0.023913
  30 H :    0.025441
  31 H :    0.023134
  32 H :    0.024801
  33 H :    0.051872

  Mayer bond orders larger than 0.100000
B(  0-S ,  1-C ) :   1.1491 B(  0-S ,  4-C ) :   1.1212 B(  1-C ,  2-C ) :   1.6176
B(  1-C , 32-H ) :   0.9693 B(  2-C ,  3-C ) :   1.2289 B(  2-C ,  6-C ) :   1.0095
B(  3-C ,  4-C ) :   1.6166 B(  3-C ,  5-H ) :   0.9928 B(  4-C , 20-C ) :   1.0352
B(  6-C ,  7-H ) :   0.9446 B(  6-C ,  8-H ) :   0.9400 B(  6-C ,  9-C ) :   1.0531
B(  9-C , 10-H ) :   0.9594 B(  9-C , 11-H ) :   0.9499 B(  9-C , 12-C ) :   1.0843
B( 12-C , 13-H ) :   0.9721 B( 12-C , 14-H ) :   0.9727 B( 12-C , 15-H ) :   0.9728
B( 16-S , 17-C ) :   1.1581 B( 16-S , 20-C ) :   1.1658 B( 17-C , 18-C ) :   1.5940
B( 17-C , 20-C ) :   0.1064 B( 17-C , 33-H ) :   0.9582 B( 18-C , 19-C ) :   1.2765
B( 18-C , 21-H ) :   0.9894 B( 19-C , 20-C ) :   1.5397 B( 19-C , 22-C ) :   1.0251
B( 22-C , 23-H ) :   0.9446 B( 22-C , 24-H ) :   0.9289 B( 22-C , 25-C ) :   1.0745
B( 25-C , 26-H ) :   0.9558 B( 25-C , 27-H ) :   0.9521 B( 25-C , 28-C ) :   1.0774
B( 28-C , 29-H ) :   0.9755 B( 28-C , 30-H ) :   0.9732 B( 28-C , 31-H ) :   0.9756

Dispersion correction           -0.015255543
FINAL SINGLE POINT ENERGY     -1339.876082456847

DIPOLE MOMENT
-------------
                                X             Y             Z
Electronic contribution:    -18.44806       9.55631     -15.48452
Nuclear contribution   :     18.86830      -9.65995      15.79361
                        -----------------------------------------
Total Dipole Moment    :      0.42024      -0.10364       0.30909
                        -----------------------------------------
Magnitude (a.u.)       :      0.53187
Magnitude (Debye)      :      1.35190

Rotational constants in cm-1:     0.020872     0.008115     0.007325
Rotational constants in MHz :   625.734484   243.270747   219.598555

                             ****ORCA TERMINATED NORMALLY****
TOTAL RUN TIME: 0 days 0 hours 0 minutes 33 seconds 841 msec
