                         Program Version 4.2.1 -  RELEASE  -
|  1> ! wB97X-D3 SP def2-SVP
|  2> %pal
|  3> nprocs 16
|  4> end
|  5>
|  6> * xyz 0 1
|  7> S 	 -8.83311 	 75.3207 	 48.6041
|  8> C 	 -7.98785 	 76.7671 	 48.9046
|  9> C 	 -6.8908 	 76.9456 	 48.0669
| 10> C 	 -6.73731 	 75.8366 	 47.1953
| 11> C 	 -7.70513 	 74.8824 	 47.4145
| 12> H 	 -5.83768 	 75.5981 	 46.6005
| 13> C 	 -5.86326 	 78.0453 	 48.2405
| 14> H 	 -6.15149 	 78.997 	 47.6947
| 15> H 	 -4.8932 	 77.7409 	 47.8833
| 16> C 	 -5.69611 	 78.4672 	 49.7145
| 17> H 	 -6.56773 	 79.0013 	 50.0609
| 18> H 	 -5.62782 	 77.5831 	 50.3736
| 19> C 	 -4.53234 	 79.4024 	 49.7949
| 20> H 	 -4.73242 	 80.1822 	 49.1274
| 21> H 	 -4.45329 	 79.7806 	 50.7807
| 22> H 	 -3.59538 	 78.9346 	 49.4835
| 23> S 	 -7.97809 	 72.1838 	 47.8639
| 24> C 	 -7.55419 	 71.0437 	 46.5839
| 25> C 	 -7.27465 	 71.7353 	 45.4561
| 26> C 	 -7.46967 	 73.145 	 45.5174
| 27> C 	 -7.63849 	 73.5244 	 46.8744
| 28> H 	 -6.96956 	 71.1743 	 44.541
| 29> C 	 -7.07674 	 74.0789 	 44.3083
| 30> H 	 -6.11188 	 73.8325 	 44.054
| 31> H 	 -6.99204 	 75.1135 	 44.6556
| 32> C 	 -7.80146 	 73.9499 	 42.9934
| 33> H 	 -8.78453 	 74.3676 	 43.1851
| 34> H 	 -7.97636 	 72.9404 	 42.6898
| 35> C 	 -7.06882 	 74.603 	 41.8128
| 36> H 	 -7.6793 	 74.5773 	 40.9348
| 37> H 	 -6.08202 	 74.1489 	 41.5684
| 38> H 	 -6.94757 	 75.6707 	 42.122
| 39> H 	 -8.41727 	 77.4816 	 49.5882
| 40> H 	 -7.54284 	 69.9853 	 46.6652
| 41> *
| 42>
| 43>                          ****END OF INPUT****

CARTESIAN COORDINATES (ANGSTROEM)
---------------------------------
  S     -8.833110   75.320700   48.604100
  C     -7.987850   76.767100   48.904600
  C     -6.890800   76.945600   48.066900
  C     -6.737310   75.836600   47.195300
  C     -7.705130   74.882400   47.414500
  H     -5.837680   75.598100   46.600500
  C     -5.863260   78.045300   48.240500
  H     -6.151490   78.997000   47.694700
  H     -4.893200   77.740900   47.883300
  C     -5.696110   78.467200   49.714500
  H     -6.567730   79.001300   50.060900
  H     -5.627820   77.583100   50.373600
  C     -4.532340   79.402400   49.794900
  H     -4.732420   80.182200   49.127400
  H     -4.453290   79.780600   50.780700
  H     -3.595380   78.934600   49.483500
  S     -7.978090   72.183800   47.863900
  C     -7.554190   71.043700   46.583900
  C     -7.274650   71.735300   45.456100
  C     -7.469670   73.145000   45.517400
  C     -7.638490   73.524400   46.874400
  H     -6.969560   71.174300   44.541000
  C     -7.076740   74.078900   44.308300
  H     -6.111880   73.832500   44.054000
  H     -6.992040   75.113500   44.655600
  C     -7.801460   73.949900   42.993400
  H     -8.784530   74.367600   43.185100
  H     -7.976360   72.940400   42.689800
  C     -7.068820   74.603000   41.812800
  H     -7.679300   74.577300   40.934800
  H     -6.082020   74.148900   41.568400
  H     -6.947570   75.670700   42.122000
  H     -8.417270   77.481600   49.588200
  H     -7.542840   69.985300   46.665200

 Total Charge           Charge          ....    0
 Multiplicity           Mult            ....    1
 Number of Electrons    NEL             ....  134
 Basis Dimension        Dim             ....  322

ORBITAL ENERGIES
----------------

  NO   OCC          E(Eh)            E(eV)
   0   2.0000     -88.967811     -2420.9372
   1   2.0000     -88.964111     -2420.8365
   2   2.0000     -10.325166      -280.9621
   3   2.0000     -10.322572      -280.8915
   4   2.0000     -10.310473      -280.5622
   5   2.0000     -10.308504      -280.5087
   6   2.0000     -10.304194      -280.3914
   7   2.0000     -10.300770      -280.2982
   8   2.0000     -10.294579      -280.1297
   9   2.0000     -10.293088      -280.0892
  10   2.0000     -10.291667      -280.0505
  11   2.0000     -10.284548      -279.8568
  12   2.0000     -10.281670      -279.7785
  13   2.0000     -10.281292      -279.7682
  14   2.0000     -10.278650      -279.6963
  15   2.0000     -10.267755      -279.3998
  16   2.0000      -8.084467      -219.9895
  17   2.0000      -8.079533      -219.8553
  18   2.0000      -6.042665      -164.4293
  19   2.0000      -6.038677      -164.3207
  20   2.0000      -6.038052      -164.3038
  21   2.0000      -6.035485      -164.2339
  22   2.0000      -6.033934      -164.1917
  23   2.0000      -6.030244      -164.0913
  24   2.0000      -1.016305       -27.6551
  25   2.0000      -0.990417       -26.9506
  26   2.0000      -0.918846       -25.0031
  27   2.0000      -0.909518       -24.7492
  28   2.0000      -0.871592       -23.7172
  29   2.0000      -0.859381       -23.3849
  30   2.0000      -0.845844       -23.0166
  31   2.0000      -0.814830       -22.1727
  32   2.0000      -0.781468       -21.2648
  33   2.0000      -0.769992       -20.9526
  34   2.0000      -0.708142       -19.2695
  35   2.0000      -0.698810       -19.0156
  36   2.0000      -0.690237       -18.7823
  37   2.0000      -0.659299       -17.9404
  38   2.0000      -0.640603       -17.4317
  39   2.0000      -0.618402       -16.8276
  40   2.0000      -0.598691       -16.2912
  41   2.0000      -0.574837       -15.6421
  42   2.0000      -0.567220       -15.4348
  43   2.0000      -0.566046       -15.4029
  44   2.0000      -0.528329       -14.3766
  45   2.0000      -0.526070       -14.3151
  46   2.0000      -0.519658       -14.1406
  47   2.0000      -0.513234       -13.9658
  48   2.0000      -0.502681       -13.6786
  49   2.0000      -0.497453       -13.5364
  50   2.0000      -0.492073       -13.3900
  51   2.0000      -0.483717       -13.1626
  52   2.0000      -0.473607       -12.8875
  53   2.0000      -0.462842       -12.5946
  54   2.0000      -0.458339       -12.4720
  55   2.0000      -0.455067       -12.3830
  56   2.0000      -0.446436       -12.1481
  57   2.0000      -0.437144       -11.8953
  58   2.0000      -0.429750       -11.6941
  59   2.0000      -0.426840       -11.6149
  60   2.0000      -0.424122       -11.5409
  61   2.0000      -0.422865       -11.5068
  62   2.0000      -0.410361       -11.1665
  63   2.0000      -0.352986        -9.6052
  64   2.0000      -0.333544        -9.0762
  65   2.0000      -0.327877        -8.9220
  66   2.0000      -0.286559        -7.7977
  67   0.0000       0.030840         0.8392
  68   0.0000       0.081013         2.2045
  69   0.0000       0.113428         3.0865
  70   0.0000       0.120703         3.2845
  71   0.0000       0.137099         3.7307

MULLIKEN ATOMIC CHARGES
-----------------------
   0 S :    0.134536
   1 C :   -0.141144
   2 C :   -0.057347
   3 C :   -0.005604
   4 C :   -0.143085
   5 H :    0.037277
   6 C :    0.048925
   7 H :    0.045292
   8 H :    0.016116
   9 C :   -0.118653
  10 H :    0.022612
  11 H :    0.038432
  12 C :    0.021971
  13 H :    0.007003
  14 H :    0.023450
  15 H :    0.026864
  16 S :    0.104602
  17 C :   -0.082888
  18 C :   -0.040022
  19 C :   -0.021771
  20 C :   -0.158845
  21 H :    0.032663
  22 C :    0.074478
  23 H :   -0.002935
  24 H :    0.020703
  25 C :   -0.063178
  26 H :    0.028182
  27 H :    0.016278
  28 C :   -0.065604
  29 H :    0.034880
  30 H :    0.042509
  31 H :    0.034066
  32 H :    0.046915
  33 H :    0.043324
Sum of atomic charges:    0.0000000

LOEWDIN ATOMIC CHARGES
----------------------
   0 S :    0.452087
   1 C :   -0.213526
   2 C :   -0.062553
   3 C :   -0.068177
   4 C :   -0.209095
   5 H :    0.039646
   6 C :   -0.030720
   7 H :    0.039887
   8 H :    0.024565
   9 C :   -0.041630
  10 H :    0.019324
  11 H :    0.024608
  12 C :   -0.052525
  13 H :    0.017992
  14 H :    0.022283
  15 H :    0.025277
  16 S :    0.414416
  17 C :   -0.184880
  18 C :   -0.072234
  19 C :   -0.058478
  20 C :   -0.209401
  21 H :    0.036874
  22 C :   -0.028682
  23 H :    0.017246
  24 H :    0.029649
  25 C :   -0.040922
  26 H :    0.025361
  27 H :    0.017501
  28 C :   -0.063992
  29 H :    0.024223
  30 H :    0.028758
  31 H :    0.029216
  32 H :    0.022466
  33 H :    0.025434

  Mayer bond orders larger than 0.100000
B(  0-S ,  1-C ) :   1.1575 B(  0-S ,  4-C ) :   1.1852 B(  1-C ,  2-C ) :   1.5757
B(  1-C , 32-H ) :   0.9703 B(  2-C ,  3-C ) :   1.2795 B(  2-C ,  6-C ) :   1.0200
B(  3-C ,  4-C ) :   1.5424 B(  3-C ,  5-H ) :   0.9836 B(  4-C , 20-C ) :   1.0403
B(  6-C ,  7-H ) :   0.9237 B(  6-C ,  8-H ) :   0.9556 B(  6-C ,  9-C ) :   1.0778
B(  9-C , 10-H ) :   0.9425 B(  9-C , 11-H ) :   0.9588 B(  9-C , 12-C ) :   1.0932
B( 12-C , 13-H ) :   0.9671 B( 12-C , 14-H ) :   0.9690 B( 12-C , 15-H ) :   0.9744
B( 16-S , 17-C ) :   1.1293 B( 16-S , 20-C ) :   1.1672 B( 17-C , 18-C ) :   1.6268
B( 17-C , 33-H ) :   0.9752 B( 18-C , 19-C ) :   1.2450 B( 18-C , 21-H ) :   0.9772
B( 19-C , 20-C ) :   1.5490 B( 19-C , 22-C ) :   1.0336 B( 22-C , 23-H ) :   0.9385
B( 22-C , 24-H ) :   0.9324 B( 22-C , 25-C ) :   1.0601 B( 25-C , 26-H ) :   0.9515
B( 25-C , 27-H ) :   0.9562 B( 25-C , 28-C ) :   1.0839 B( 28-C , 29-H ) :   0.9739
B( 28-C , 30-H ) :   0.9726 B( 28-C , 31-H ) :   0.9763

Dispersion correction           -0.013180779
FINAL SINGLE POINT ENERGY     -1339.878948290013

DIPOLE MOMENT
-------------
                                X             Y             Z
Electronic contribution:    -14.42754     -18.09638      13.16408
Nuclear contribution   :     14.83009      18.38314     -13.43260
                        -----------------------------------------
Total Dipole Moment    :      0.40255       0.28676      -0.26852
                        -----------------------------------------
Magnitude (a.u.)       :      0.56248
Magnitude (Debye)      :      1.42971

Rotational constants in cm-1:     0.018589     0.007663     0.006073
Rotational constants in MHz :   557.277250   229.722320   182.071984

                             ****ORCA TERMINATED NORMALLY****
TOTAL RUN TIME: 0 days 0 hours 0 minutes 33 seconds 55 msec
