                         Program Version 4.2.1 -  RELEASE  -
|  1> ! wB97X-D3 SP def2-SVP
|  2> %pal
|  3> nprocs 16
|  4> end
|  5>
|  6> * xyz 0 1
|  7> S 	 -16.3465 	 41.0461 	 34.4876
|  8> C 	 -16.2192 	 39.9601 	 35.8214
|  9> C 	 -14.898 	 39.6912 	 36.0705
| 10> C 	 -14.0051 	 40.3829 	 35.1912
| 11> C 	 -14.6342 	 41.1645 	 34.3027
| 12> H 	 -12.9622 	 40.3211 	 35.1774
| 13> C 	 -14.319 	 38.8762 	 37.1783
| 14> H 	 -14.6902 	 39.3689 	 38.0861
| 15> H 	 -13.251 	 38.869 	 37.2417
| 16> C 	 -14.8084 	 37.4636 	 37.3572
| 17> H 	 -14.4963 	 37.1306 	 38.323
| 18> H 	 -15.8775 	 37.2235 	 37.3075
| 19> C 	 -14.2478 	 36.5716 	 36.3333
| 20> H 	 -14.4731 	 35.6245 	 36.6557
| 21> H 	 -14.6389 	 36.6957 	 35.3771
| 22> H 	 -13.1746 	 36.553 	 36.3396
| 23> S 	 -14.5234 	 43.685 	 33.1454
| 24> C 	 -13.3634 	 43.9967 	 31.9229
| 25> C 	 -12.6065 	 42.8942 	 31.5956
| 26> C 	 -12.9298 	 41.7709 	 32.4389
| 27> C 	 -13.9676 	 42.057 	 33.3136
| 28> H 	 -11.7859 	 43.0773 	 30.8815
| 29> C 	 -12.3123 	 40.3995 	 32.148
| 30> H 	 -12.6388 	 40.0889 	 31.1133
| 31> H 	 -12.8294 	 39.7045 	 32.8427
| 32> C 	 -10.7578 	 40.3051 	 32.3571
| 33> H 	 -10.5459 	 40.6379 	 33.3755
| 34> H 	 -10.2695 	 41.1106 	 31.7781
| 35> C 	 -10.1065 	 38.97 	 32.0189
| 36> H 	 -9.02975 	 39.0456 	 32.2418
| 37> H 	 -10.2242 	 38.6348 	 30.978
| 38> H 	 -10.4299 	 38.2024 	 32.755
| 39> H 	 -17.1311 	 39.4516 	 36.259
| 40> H 	 -13.2359 	 44.9367 	 31.4232
| 41> *
| 42>
| 43>                          ****END OF INPUT****

CARTESIAN COORDINATES (ANGSTROEM)
---------------------------------
  S    -16.346500   41.046100   34.487600
  C    -16.219200   39.960100   35.821400
  C    -14.898000   39.691200   36.070500
  C    -14.005100   40.382900   35.191200
  C    -14.634200   41.164500   34.302700
  H    -12.962200   40.321100   35.177400
  C    -14.319000   38.876200   37.178300
  H    -14.690200   39.368900   38.086100
  H    -13.251000   38.869000   37.241700
  C    -14.808400   37.463600   37.357200
  H    -14.496300   37.130600   38.323000
  H    -15.877500   37.223500   37.307500
  C    -14.247800   36.571600   36.333300
  H    -14.473100   35.624500   36.655700
  H    -14.638900   36.695700   35.377100
  H    -13.174600   36.553000   36.339600
  S    -14.523400   43.685000   33.145400
  C    -13.363400   43.996700   31.922900
  C    -12.606500   42.894200   31.595600
  C    -12.929800   41.770900   32.438900
  C    -13.967600   42.057000   33.313600
  H    -11.785900   43.077300   30.881500
  C    -12.312300   40.399500   32.148000
  H    -12.638800   40.088900   31.113300
  H    -12.829400   39.704500   32.842700
  C    -10.757800   40.305100   32.357100
  H    -10.545900   40.637900   33.375500
  H    -10.269500   41.110600   31.778100
  C    -10.106500   38.970000   32.018900
  H     -9.029750   39.045600   32.241800
  H    -10.224200   38.634800   30.978000
  H    -10.429900   38.202400   32.755000
  H    -17.131100   39.451600   36.259000
  H    -13.235900   44.936700   31.423200

 Total Charge           Charge          ....    0
 Multiplicity           Mult            ....    1
 Number of Electrons    NEL             ....  134
 Basis Dimension        Dim             ....  322

ORBITAL ENERGIES
----------------

  NO   OCC          E(Eh)            E(eV)
   0   2.0000     -88.965548     -2420.8756
   1   2.0000     -88.962769     -2420.8000
   2   2.0000     -10.326493      -280.9982
   3   2.0000     -10.323382      -280.9135
   4   2.0000     -10.314451      -280.6705
   5   2.0000     -10.311465      -280.5892
   6   2.0000     -10.304268      -280.3934
   7   2.0000     -10.298211      -280.2286
   8   2.0000     -10.297195      -280.2009
   9   2.0000     -10.293521      -280.1010
  10   2.0000     -10.290996      -280.0322
  11   2.0000     -10.284202      -279.8474
  12   2.0000     -10.284058      -279.8435
  13   2.0000     -10.282327      -279.7963
  14   2.0000     -10.276271      -279.6316
  15   2.0000     -10.253948      -279.0241
  16   2.0000      -8.081385      -219.9057
  17   2.0000      -8.078530      -219.8280
  18   2.0000      -6.039748      -164.3499
  19   2.0000      -6.037003      -164.2752
  20   2.0000      -6.035747      -164.2410
  21   2.0000      -6.032827      -164.1616
  22   2.0000      -6.032231      -164.1454
  23   2.0000      -6.029339      -164.0667
  24   2.0000      -1.013166       -27.5696
  25   2.0000      -0.991774       -26.9876
  26   2.0000      -0.924146       -25.1473
  27   2.0000      -0.901623       -24.5344
  28   2.0000      -0.871493       -23.7145
  29   2.0000      -0.857261       -23.3273
  30   2.0000      -0.849394       -23.1132
  31   2.0000      -0.819361       -22.2959
  32   2.0000      -0.785507       -21.3747
  33   2.0000      -0.771794       -21.0016
  34   2.0000      -0.703992       -19.1566
  35   2.0000      -0.700175       -19.0527
  36   2.0000      -0.690734       -18.7958
  37   2.0000      -0.660112       -17.9626
  38   2.0000      -0.641686       -17.4612
  39   2.0000      -0.617319       -16.7981
  40   2.0000      -0.593773       -16.1574
  41   2.0000      -0.581526       -15.8241
  42   2.0000      -0.560695       -15.2573
  43   2.0000      -0.558280       -15.1916
  44   2.0000      -0.544489       -14.8163
  45   2.0000      -0.521832       -14.1998
  46   2.0000      -0.520894       -14.1742
  47   2.0000      -0.512627       -13.9493
  48   2.0000      -0.507158       -13.8005
  49   2.0000      -0.497502       -13.5377
  50   2.0000      -0.495384       -13.4801
  51   2.0000      -0.480071       -13.0634
  52   2.0000      -0.474749       -12.9186
  53   2.0000      -0.472400       -12.8547
  54   2.0000      -0.460839       -12.5401
  55   2.0000      -0.447195       -12.1688
  56   2.0000      -0.437898       -11.9158
  57   2.0000      -0.433725       -11.8023
  58   2.0000      -0.430515       -11.7149
  59   2.0000      -0.425047       -11.5661
  60   2.0000      -0.422422       -11.4947
  61   2.0000      -0.417426       -11.3587
  62   2.0000      -0.412463       -11.2237
  63   2.0000      -0.351672        -9.5695
  64   2.0000      -0.331192        -9.0122
  65   2.0000      -0.326291        -8.8788
  66   2.0000      -0.293944        -7.9986
  67   0.0000       0.038657         1.0519
  68   0.0000       0.076290         2.0760
  69   0.0000       0.121145         3.2965
  70   0.0000       0.122672         3.3381
  71   0.0000       0.131698         3.5837

MULLIKEN ATOMIC CHARGES
-----------------------
   0 S :    0.109082
   1 C :   -0.157997
   2 C :   -0.062772
   3 C :    0.032085
   4 C :   -0.136375
   5 H :   -0.015279
   6 C :    0.089589
   7 H :    0.035207
   8 H :    0.014023
   9 C :   -0.079413
  10 H :    0.008895
  11 H :    0.022632
  12 C :    0.021642
  13 H :   -0.004514
  14 H :    0.027719
  15 H :    0.003909
  16 S :    0.121740
  17 C :   -0.094843
  18 C :   -0.042832
  19 C :   -0.042086
  20 C :   -0.149726
  21 H :    0.034556
  22 C :    0.044285
  23 H :    0.045381
  24 H :    0.022444
  25 C :   -0.087904
  26 H :    0.022226
  27 H :    0.024167
  28 C :   -0.044581
  29 H :    0.034118
  30 H :    0.046498
  31 H :    0.034507
  32 H :    0.074970
  33 H :    0.048644
Sum of atomic charges:    0.0000000

LOEWDIN ATOMIC CHARGES
----------------------
   0 S :    0.419612
   1 C :   -0.217603
   2 C :   -0.061291
   3 C :   -0.062894
   4 C :   -0.195018
   5 H :    0.022757
   6 C :   -0.031841
   7 H :    0.040363
   8 H :    0.027650
   9 C :   -0.039512
  10 H :    0.020062
  11 H :    0.026555
  12 C :   -0.052978
  13 H :    0.016575
  14 H :    0.019072
  15 H :    0.018995
  16 S :    0.428153
  17 C :   -0.193226
  18 C :   -0.076002
  19 C :   -0.060500
  20 C :   -0.204421
  21 H :    0.038413
  22 C :   -0.035303
  23 H :    0.037365
  24 H :    0.028099
  25 C :   -0.046877
  26 H :    0.024221
  27 H :    0.022193
  28 C :   -0.071075
  29 H :    0.030910
  30 H :    0.029052
  31 H :    0.029201
  32 H :    0.043301
  33 H :    0.025993

  Mayer bond orders larger than 0.100000
B(  0-S ,  1-C ) :   1.1350 B(  0-S ,  4-C ) :   1.1661 B(  1-C ,  2-C ) :   1.5999
B(  1-C , 32-H ) :   0.9634 B(  2-C ,  3-C ) :   1.2291 B(  2-C ,  6-C ) :   1.0230
B(  3-C ,  4-C ) :   1.5788 B(  3-C ,  5-H ) :   1.0141 B(  4-C , 20-C ) :   1.0014
B(  6-C ,  7-H ) :   0.9270 B(  6-C ,  8-H ) :   0.9459 B(  6-C ,  9-C ) :   1.0840
B(  9-C , 10-H ) :   0.9489 B(  9-C , 11-H ) :   0.9551 B(  9-C , 12-C ) :   1.0932
B( 12-C , 13-H ) :   0.9639 B( 12-C , 14-H ) :   0.9749 B( 12-C , 15-H ) :   0.9670
B( 16-S , 17-C ) :   1.1621 B( 16-S , 20-C ) :   1.1510 B( 17-C , 18-C ) :   1.6305
B( 17-C , 33-H ) :   0.9667 B( 18-C , 19-C ) :   1.2220 B( 18-C , 21-H ) :   0.9852
B( 19-C , 20-C ) :   1.6054 B( 19-C , 22-C ) :   1.0392 B( 22-C , 23-H ) :   0.9424
B( 22-C , 24-H ) :   0.9343 B( 22-C , 25-C ) :   1.0450 B( 25-C , 26-H ) :   0.9520
B( 25-C , 27-H ) :   0.9577 B( 25-C , 28-C ) :   1.0899 B( 28-C , 29-H ) :   0.9713
B( 28-C , 30-H ) :   0.9741 B( 28-C , 31-H ) :   0.9727

Dispersion correction           -0.013954191
FINAL SINGLE POINT ENERGY     -1339.881292513954

DIPOLE MOMENT
-------------
                                X             Y             Z
Electronic contribution:    -17.95151      25.12438      -4.39153
Nuclear contribution   :     18.44150     -25.56286       4.50549
                        -----------------------------------------
Total Dipole Moment    :      0.48999      -0.43848       0.11397
                        -----------------------------------------
Magnitude (a.u.)       :      0.66734
Magnitude (Debye)      :      1.69625

Rotational constants in cm-1:     0.017144     0.009402     0.006457
Rotational constants in MHz :   513.965678   281.867265   193.569907

                             ****ORCA TERMINATED NORMALLY****
TOTAL RUN TIME: 0 days 0 hours 0 minutes 33 seconds 952 msec
