                         Program Version 4.2.1 -  RELEASE  -
|  1> ! wB97X-D3 SP def2-SVP
|  2> %pal
|  3> nprocs 16
|  4> end
|  5>
|  6> * xyz 0 1
|  7> S 	 -0.464493 	 13.9884 	 82.9331
|  8> C 	 -2.10845 	 13.4709 	 82.6181
|  9> C 	 -2.26712 	 12.1419 	 82.9036
| 10> C 	 -1.14633 	 11.6144 	 83.5302
| 11> C 	 -0.00430249 	 12.4503 	 83.5746
| 12> H 	 -1.05473 	 10.6048 	 83.8158
| 13> C 	 -3.47467 	 11.2362 	 82.5973
| 14> H 	 -4.38875 	 11.8868 	 82.5727
| 15> H 	 -3.55474 	 10.6163 	 83.5201
| 16> C 	 -3.43415 	 10.5073 	 81.2497
| 17> H 	 -3.46588 	 11.2768 	 80.4078
| 18> H 	 -2.55302 	 9.91055 	 81.1349
| 19> C 	 -4.78267 	 9.6003 	 81.193
| 20> H 	 -5.65843 	 10.2315 	 81.3314
| 21> H 	 -4.87889 	 9.16856 	 80.1835
| 22> H 	 -4.74381 	 8.82964 	 81.9514
| 23> S 	 1.35432 	 10.7667 	 85.2941
| 24> C 	 3.06661 	 10.9113 	 85.3128
| 25> C 	 3.59934 	 11.7227 	 84.3048
| 26> C 	 2.58056 	 12.3727 	 83.5607
| 27> C 	 1.314 	 12.0907 	 84.0856
| 28> H 	 4.62208 	 11.8478 	 84.1599
| 29> C 	 2.9212 	 13.2443 	 82.3451
| 30> H 	 1.95979 	 13.2887 	 81.7132
| 31> H 	 3.68558 	 12.7335 	 81.7162
| 32> C 	 3.34779 	 14.6692 	 82.6601
| 33> H 	 4.32557 	 14.6069 	 83.2545
| 34> H 	 2.58561 	 15.3413 	 83.131
| 35> C 	 3.52129 	 15.4523 	 81.3598
| 36> H 	 2.64747 	 15.4491 	 80.7881
| 37> H 	 4.38484 	 14.9304 	 80.8185
| 38> H 	 3.89641 	 16.451 	 81.4615
| 39> H 	 -2.86797 	 14.0438 	 82.1303
| 40> H 	 3.66696 	 10.3204 	 85.9983
| 41> *
| 42>
| 43>                          ****END OF INPUT****

CARTESIAN COORDINATES (ANGSTROEM)
---------------------------------
  S     -0.464493   13.988400   82.933100
  C     -2.108450   13.470900   82.618100
  C     -2.267120   12.141900   82.903600
  C     -1.146330   11.614400   83.530200
  C     -0.004302   12.450300   83.574600
  H     -1.054730   10.604800   83.815800
  C     -3.474670   11.236200   82.597300
  H     -4.388750   11.886800   82.572700
  H     -3.554740   10.616300   83.520100
  C     -3.434150   10.507300   81.249700
  H     -3.465880   11.276800   80.407800
  H     -2.553020    9.910550   81.134900
  C     -4.782670    9.600300   81.193000
  H     -5.658430   10.231500   81.331400
  H     -4.878890    9.168560   80.183500
  H     -4.743810    8.829640   81.951400
  S      1.354320   10.766700   85.294100
  C      3.066610   10.911300   85.312800
  C      3.599340   11.722700   84.304800
  C      2.580560   12.372700   83.560700
  C      1.314000   12.090700   84.085600
  H      4.622080   11.847800   84.159900
  C      2.921200   13.244300   82.345100
  H      1.959790   13.288700   81.713200
  H      3.685580   12.733500   81.716200
  C      3.347790   14.669200   82.660100
  H      4.325570   14.606900   83.254500
  H      2.585610   15.341300   83.131000
  C      3.521290   15.452300   81.359800
  H      2.647470   15.449100   80.788100
  H      4.384840   14.930400   80.818500
  H      3.896410   16.451000   81.461500
  H     -2.867970   14.043800   82.130300
  H      3.666960   10.320400   85.998300

 Total Charge           Charge          ....    0
 Multiplicity           Mult            ....    1
 Number of Electrons    NEL             ....  134
 Basis Dimension        Dim             ....  322

ORBITAL ENERGIES
----------------

  NO   OCC          E(Eh)            E(eV)
   0   2.0000     -88.970556     -2421.0119
   1   2.0000     -88.969284     -2420.9773
   2   2.0000     -10.331178      -281.1257
   3   2.0000     -10.330095      -281.0962
   4   2.0000     -10.319249      -280.8011
   5   2.0000     -10.307710      -280.4871
   6   2.0000     -10.306332      -280.4496
   7   2.0000     -10.302257      -280.3387
   8   2.0000     -10.299029      -280.2508
   9   2.0000     -10.298076      -280.2249
  10   2.0000     -10.293528      -280.1011
  11   2.0000     -10.293215      -280.0926
  12   2.0000     -10.291888      -280.0565
  13   2.0000     -10.285025      -279.8697
  14   2.0000     -10.283263      -279.8218
  15   2.0000     -10.273698      -279.5615
  16   2.0000      -8.085044      -220.0052
  17   2.0000      -8.083412      -219.9608
  18   2.0000      -6.043427      -164.4500
  19   2.0000      -6.041873      -164.4077
  20   2.0000      -6.039835      -164.3523
  21   2.0000      -6.037893      -164.2994
  22   2.0000      -6.035727      -164.2405
  23   2.0000      -6.034402      -164.2044
  24   2.0000      -1.006893       -27.3989
  25   2.0000      -0.985703       -26.8224
  26   2.0000      -0.910971       -24.7888
  27   2.0000      -0.904980       -24.6258
  28   2.0000      -0.865533       -23.5523
  29   2.0000      -0.857343       -23.3295
  30   2.0000      -0.844679       -22.9849
  31   2.0000      -0.805349       -21.9147
  32   2.0000      -0.780606       -21.2414
  33   2.0000      -0.769777       -20.9467
  34   2.0000      -0.703071       -19.1315
  35   2.0000      -0.701074       -19.0772
  36   2.0000      -0.686694       -18.6859
  37   2.0000      -0.670711       -18.2510
  38   2.0000      -0.636751       -17.3269
  39   2.0000      -0.614938       -16.7333
  40   2.0000      -0.599277       -16.3072
  41   2.0000      -0.571908       -15.5624
  42   2.0000      -0.564722       -15.3669
  43   2.0000      -0.558427       -15.1956
  44   2.0000      -0.525405       -14.2970
  45   2.0000      -0.520994       -14.1770
  46   2.0000      -0.512863       -13.9557
  47   2.0000      -0.512704       -13.9514
  48   2.0000      -0.504575       -13.7302
  49   2.0000      -0.499405       -13.5895
  50   2.0000      -0.489981       -13.3331
  51   2.0000      -0.473221       -12.8770
  52   2.0000      -0.472184       -12.8488
  53   2.0000      -0.467489       -12.7210
  54   2.0000      -0.462130       -12.5752
  55   2.0000      -0.453854       -12.3500
  56   2.0000      -0.446299       -12.1444
  57   2.0000      -0.438754       -11.9391
  58   2.0000      -0.430720       -11.7205
  59   2.0000      -0.426771       -11.6130
  60   2.0000      -0.421494       -11.4694
  61   2.0000      -0.410465       -11.1693
  62   2.0000      -0.406674       -11.0662
  63   2.0000      -0.354541        -9.6476
  64   2.0000      -0.336165        -9.1475
  65   2.0000      -0.332806        -9.0561
  66   2.0000      -0.278749        -7.5851
  67   0.0000       0.021071         0.5734
  68   0.0000       0.077228         2.1015
  69   0.0000       0.096826         2.6348
  70   0.0000       0.122010         3.3201
  71   0.0000       0.133923         3.6442

MULLIKEN ATOMIC CHARGES
-----------------------
   0 S :    0.110037
   1 C :   -0.122197
   2 C :   -0.064560
   3 C :    0.005246
   4 C :   -0.142237
   5 H :   -0.010208
   6 C :    0.021048
   7 H :    0.023565
   8 H :    0.040299
   9 C :   -0.069005
  10 H :    0.042041
  11 H :    0.035124
  12 C :   -0.053944
  13 H :    0.030732
  14 H :    0.039761
  15 H :    0.038020
  16 S :    0.105805
  17 C :   -0.083596
  18 C :   -0.001708
  19 C :   -0.024177
  20 C :   -0.123667
  21 H :   -0.006050
  22 C :    0.000183
  23 H :    0.037207
  24 H :    0.040576
  25 C :   -0.088247
  26 H :    0.041356
  27 H :    0.044581
  28 C :   -0.034103
  29 H :    0.029089
  30 H :    0.018752
  31 H :    0.031395
  32 H :    0.032725
  33 H :    0.056159
Sum of atomic charges:   -0.0000000

LOEWDIN ATOMIC CHARGES
----------------------
   0 S :    0.426815
   1 C :   -0.204215
   2 C :   -0.066756
   3 C :   -0.077680
   4 C :   -0.195344
   5 H :    0.013820
   6 C :   -0.035408
   7 H :    0.031725
   8 H :    0.034925
   9 C :   -0.033020
  10 H :    0.032690
  11 H :    0.019262
  12 C :   -0.062173
  13 H :    0.023497
  14 H :    0.027036
  15 H :    0.023101
  16 S :    0.411535
  17 C :   -0.184966
  18 C :   -0.062570
  19 C :   -0.049334
  20 C :   -0.182925
  21 H :    0.020932
  22 C :   -0.042289
  23 H :    0.030571
  24 H :    0.036698
  25 C :   -0.049947
  26 H :    0.030444
  27 H :    0.030720
  28 C :   -0.062767
  29 H :    0.017086
  30 H :    0.026597
  31 H :    0.022265
  32 H :    0.023669
  33 H :    0.026005

  Mayer bond orders larger than 0.100000
B(  0-S ,  1-C ) :   1.1388 B(  0-S ,  4-C ) :   1.1658 B(  1-C ,  2-C ) :   1.5884
B(  1-C ,  4-C ) :   0.1011 B(  1-C , 32-H ) :   0.9685 B(  2-C ,  3-C ) :   1.3102
B(  2-C ,  6-C ) :   1.0037 B(  3-C ,  4-C ) :   1.5118 B(  3-C ,  5-H ) :   0.9868
B(  4-C , 20-C ) :   1.0739 B(  6-C ,  7-H ) :   0.9432 B(  6-C ,  8-H ) :   0.9477
B(  6-C ,  9-C ) :   1.0555 B(  9-C , 10-H ) :   0.9560 B(  9-C , 11-H ) :   0.9615
B(  9-C , 12-C ) :   1.0634 B( 12-C , 13-H ) :   0.9775 B( 12-C , 14-H ) :   0.9776
B( 12-C , 15-H ) :   0.9796 B( 16-S , 17-C ) :   1.1695 B( 16-S , 20-C ) :   1.1339
B( 17-C , 18-C ) :   1.5858 B( 17-C , 33-H ) :   0.9671 B( 18-C , 19-C ) :   1.2480
B( 18-C , 21-H ) :   1.0035 B( 19-C , 20-C ) :   1.5688 B( 19-C , 22-C ) :   1.0330
B( 22-C , 23-H ) :   0.9277 B( 22-C , 24-H ) :   0.9380 B( 22-C , 25-C ) :   1.0692
B( 25-C , 26-H ) :   0.9538 B( 25-C , 27-H ) :   0.9547 B( 25-C , 28-C ) :   1.0747
B( 28-C , 29-H ) :   0.9753 B( 28-C , 30-H ) :   0.9721 B( 28-C , 31-H ) :   0.9744

Dispersion correction           -0.013789911
FINAL SINGLE POINT ENERGY     -1339.876326512139

DIPOLE MOMENT
-------------
                                X             Y             Z
Electronic contribution:      5.73585      -0.57709      16.04309
Nuclear contribution   :     -5.68356       0.35887     -16.40294
                        -----------------------------------------
Total Dipole Moment    :      0.05229      -0.21822      -0.35984
                        -----------------------------------------
Magnitude (a.u.)       :      0.42408
Magnitude (Debye)      :      1.07792

Rotational constants in cm-1:     0.019630     0.007898     0.006252
Rotational constants in MHz :   588.499072   236.778298   187.442786

                             ****ORCA TERMINATED NORMALLY****
TOTAL RUN TIME: 0 days 0 hours 0 minutes 36 seconds 8 msec
