                         Program Version 4.2.1 -  RELEASE  -
|  1> ! wB97X-D3 SP def2-SVP
|  2> %pal
|  3> nprocs 16
|  4> end
|  5>
|  6> * xyz 0 1
|  7> S 	 -105.146 	 43.7853 	 130.68
|  8> C 	 -104.634 	 44.4302 	 132.239
|  9> C 	 -105.622 	 45.2257 	 132.828
| 10> C 	 -106.796 	 45.1737 	 132.06
| 11> C 	 -106.736 	 44.3122 	 130.968
| 12> H 	 -107.743 	 45.5839 	 132.239
| 13> C 	 -105.534 	 45.8918 	 134.181
| 14> H 	 -105.569 	 46.9733 	 133.945
| 15> H 	 -104.57 	 45.6959 	 134.627
| 16> C 	 -106.644 	 45.5532 	 135.12
| 17> H 	 -106.384 	 46.0367 	 136.027
| 18> H 	 -107.594 	 46.0057 	 134.911
| 19> C 	 -106.773 	 44.0876 	 135.55
| 20> H 	 -107.811 	 44.0185 	 135.957
| 21> H 	 -106.592 	 43.4616 	 134.723
| 22> H 	 -105.894 	 43.7792 	 136.235
| 23> S 	 -107.791 	 44.0289 	 128.536
| 24> C 	 -109.416 	 43.5293 	 128.324
| 25> C 	 -110.07 	 43.234 	 129.541
| 26> C 	 -109.212 	 43.5659 	 130.652
| 27> C 	 -107.908 	 43.8589 	 130.22
| 28> H 	 -111.036 	 42.9341 	 129.531
| 29> C 	 -109.705 	 43.4037 	 132.083
| 30> H 	 -108.924 	 43.7418 	 132.783
| 31> H 	 -109.783 	 42.3456 	 132.284
| 32> C 	 -110.904 	 44.2713 	 132.58
| 33> H 	 -111.824 	 44.0438 	 132.067
| 34> H 	 -110.695 	 45.3536 	 132.409
| 35> C 	 -111.084 	 44.0427 	 134.073
| 36> H 	 -112.058 	 44.5199 	 134.368
| 37> H 	 -110.38 	 44.5564 	 134.606
| 38> H 	 -111.015 	 43.0385 	 134.37
| 39> H 	 -103.607 	 44.4413 	 132.55
| 40> H 	 -109.957 	 43.2795 	 127.411
| 41> *
| 42>
| 43>                          ****END OF INPUT****

CARTESIAN COORDINATES (ANGSTROEM)
---------------------------------
  S    -105.146000   43.785300  130.680000
  C    -104.634000   44.430200  132.239000
  C    -105.622000   45.225700  132.828000
  C    -106.796000   45.173700  132.060000
  C    -106.736000   44.312200  130.968000
  H    -107.743000   45.583900  132.239000
  C    -105.534000   45.891800  134.181000
  H    -105.569000   46.973300  133.945000
  H    -104.570000   45.695900  134.627000
  C    -106.644000   45.553200  135.120000
  H    -106.384000   46.036700  136.027000
  H    -107.594000   46.005700  134.911000
  C    -106.773000   44.087600  135.550000
  H    -107.811000   44.018500  135.957000
  H    -106.592000   43.461600  134.723000
  H    -105.894000   43.779200  136.235000
  S    -107.791000   44.028900  128.536000
  C    -109.416000   43.529300  128.324000
  C    -110.070000   43.234000  129.541000
  C    -109.212000   43.565900  130.652000
  C    -107.908000   43.858900  130.220000
  H    -111.036000   42.934100  129.531000
  C    -109.705000   43.403700  132.083000
  H    -108.924000   43.741800  132.783000
  H    -109.783000   42.345600  132.284000
  C    -110.904000   44.271300  132.580000
  H    -111.824000   44.043800  132.067000
  H    -110.695000   45.353600  132.409000
  C    -111.084000   44.042700  134.073000
  H    -112.058000   44.519900  134.368000
  H    -110.380000   44.556400  134.606000
  H    -111.015000   43.038500  134.370000
  H    -103.607000   44.441300  132.550000
  H    -109.957000   43.279500  127.411000

 Total Charge           Charge          ....    0
 Multiplicity           Mult            ....    1
 Number of Electrons    NEL             ....  134
 Basis Dimension        Dim             ....  322

ORBITAL ENERGIES
----------------

  NO   OCC          E(Eh)            E(eV)
   0   2.0000     -88.968343     -2420.9517
   1   2.0000     -88.966042     -2420.8891
   2   2.0000     -10.322790      -280.8974
   3   2.0000     -10.322468      -280.8886
   4   2.0000     -10.315019      -280.6860
   5   2.0000     -10.311235      -280.5830
   6   2.0000     -10.306339      -280.4497
   7   2.0000     -10.300133      -280.2809
   8   2.0000     -10.292686      -280.0782
   9   2.0000     -10.290630      -280.0223
  10   2.0000     -10.290608      -280.0217
  11   2.0000     -10.289134      -279.9816
  12   2.0000     -10.284025      -279.8425
  13   2.0000     -10.281323      -279.7690
  14   2.0000     -10.278916      -279.7035
  15   2.0000     -10.271234      -279.4945
  16   2.0000      -8.084446      -219.9889
  17   2.0000      -8.081427      -219.9068
  18   2.0000      -6.042769      -164.4321
  19   2.0000      -6.039768      -164.3504
  20   2.0000      -6.038714      -164.3217
  21   2.0000      -6.035893      -164.2450
  22   2.0000      -6.035376      -164.2309
  23   2.0000      -6.032304      -164.1473
  24   2.0000      -1.013048       -27.5664
  25   2.0000      -0.988001       -26.8849
  26   2.0000      -0.920517       -25.0485
  27   2.0000      -0.910183       -24.7673
  28   2.0000      -0.868849       -23.6426
  29   2.0000      -0.857599       -23.3364
  30   2.0000      -0.848231       -23.0815
  31   2.0000      -0.812891       -22.1199
  32   2.0000      -0.786680       -21.4067
  33   2.0000      -0.772488       -21.0205
  34   2.0000      -0.710154       -19.3243
  35   2.0000      -0.701630       -19.0923
  36   2.0000      -0.691827       -18.8256
  37   2.0000      -0.665590       -18.1116
  38   2.0000      -0.641597       -17.4587
  39   2.0000      -0.625095       -17.0097
  40   2.0000      -0.594751       -16.1840
  41   2.0000      -0.570736       -15.5305
  42   2.0000      -0.567612       -15.4455
  43   2.0000      -0.558030       -15.1848
  44   2.0000      -0.542958       -14.7746
  45   2.0000      -0.528250       -14.3744
  46   2.0000      -0.526025       -14.3139
  47   2.0000      -0.511548       -13.9199
  48   2.0000      -0.502869       -13.6838
  49   2.0000      -0.496787       -13.5182
  50   2.0000      -0.489705       -13.3256
  51   2.0000      -0.487860       -13.2754
  52   2.0000      -0.472561       -12.8590
  53   2.0000      -0.462085       -12.5740
  54   2.0000      -0.460809       -12.5393
  55   2.0000      -0.452240       -12.3061
  56   2.0000      -0.447421       -12.1749
  57   2.0000      -0.440904       -11.9976
  58   2.0000      -0.438344       -11.9279
  59   2.0000      -0.429927       -11.6989
  60   2.0000      -0.423141       -11.5142
  61   2.0000      -0.413867       -11.2619
  62   2.0000      -0.407144       -11.0790
  63   2.0000      -0.343636        -9.3508
  64   2.0000      -0.331827        -9.0295
  65   2.0000      -0.330198        -8.9851
  66   2.0000      -0.287624        -7.8266
  67   0.0000       0.030216         0.8222
  68   0.0000       0.075058         2.0424
  69   0.0000       0.110876         3.0171
  70   0.0000       0.114987         3.1289
  71   0.0000       0.120841         3.2883

MULLIKEN ATOMIC CHARGES
-----------------------
   0 S :    0.117275
   1 C :   -0.129108
   2 C :   -0.092278
   3 C :    0.040326
   4 C :   -0.160934
   5 H :   -0.019555
   6 C :    0.104909
   7 H :    0.040753
   8 H :    0.009871
   9 C :   -0.072085
  10 H :    0.016046
  11 H :    0.020725
  12 C :   -0.057830
  13 H :    0.050326
  14 H :    0.034680
  15 H :    0.036862
  16 S :    0.128692
  17 C :   -0.089483
  18 C :   -0.005336
  19 C :   -0.032584
  20 C :   -0.131359
  21 H :   -0.021952
  22 C :    0.023689
  23 H :    0.009201
  24 H :    0.040142
  25 C :   -0.078045
  26 H :    0.027781
  27 H :    0.035340
  28 C :   -0.004885
  29 H :    0.034488
  30 H :    0.003769
  31 H :    0.023439
  32 H :    0.041328
  33 H :    0.055790
Sum of atomic charges:   -0.0000000

LOEWDIN ATOMIC CHARGES
----------------------
   0 S :    0.419895
   1 C :   -0.202122
   2 C :   -0.058874
   3 C :   -0.062702
   4 C :   -0.208380
   5 H :    0.019051
   6 C :   -0.028061
   7 H :    0.042532
   8 H :    0.027749
   9 C :   -0.049291
  10 H :    0.025422
  11 H :    0.019160
  12 C :   -0.066775
  13 H :    0.035378
  14 H :    0.016134
  15 H :    0.035945
  16 S :    0.451476
  17 C :   -0.202595
  18 C :   -0.053087
  19 C :   -0.052455
  20 C :   -0.219190
  21 H :    0.012479
  22 C :   -0.039322
  23 H :    0.029919
  24 H :    0.032723
  25 C :   -0.033750
  26 H :    0.015869
  27 H :    0.029447
  28 C :   -0.054521
  29 H :    0.035218
  30 H :    0.010463
  31 H :    0.019643
  32 H :    0.021343
  33 H :    0.031278

  Mayer bond orders larger than 0.100000
B(  0-S ,  1-C ) :   1.1403 B(  0-S ,  4-C ) :   1.1753 B(  1-C ,  2-C ) :   1.5820
B(  1-C ,  4-C ) :   0.1040 B(  1-C , 32-H ) :   0.9688 B(  2-C ,  3-C ) :   1.2472
B(  2-C ,  6-C ) :   1.0256 B(  3-C ,  4-C ) :   1.5506 B(  3-C ,  5-H ) :   1.0040
B(  4-C , 20-C ) :   1.0088 B(  6-C ,  7-H ) :   0.9241 B(  6-C ,  8-H ) :   0.9415
B(  6-C ,  9-C ) :   1.0926 B(  9-C , 10-H ) :   0.9459 B(  9-C , 11-H ) :   0.9517
B(  9-C , 12-C ) :   1.0652 B( 12-C , 13-H ) :   0.9726 B( 12-C , 14-H ) :   0.9777
B( 12-C , 15-H ) :   0.9713 B( 16-S , 17-C ) :   1.1753 B( 16-S , 20-C ) :   1.1676
B( 17-C , 18-C ) :   1.5922 B( 17-C , 33-H ) :   0.9639 B( 18-C , 19-C ) :   1.2429
B( 18-C , 21-H ) :   1.0063 B( 19-C , 20-C ) :   1.5724 B( 19-C , 22-C ) :   1.0421
B( 22-C , 23-H ) :   0.9379 B( 22-C , 24-H ) :   0.9377 B( 22-C , 25-C ) :   1.0504
B( 25-C , 26-H ) :   0.9593 B( 25-C , 27-H ) :   0.9543 B( 25-C , 28-C ) :   1.0859
B( 28-C , 29-H ) :   0.9703 B( 28-C , 30-H ) :   0.9720 B( 28-C , 31-H ) :   0.9732

Dispersion correction           -0.015677553
FINAL SINGLE POINT ENERGY     -1339.862013558169

DIPOLE MOMENT
-------------
                                X             Y             Z
Electronic contribution:     13.53882      -3.32189     -29.70802
Nuclear contribution   :    -13.93723       3.50606      30.29170
                        -----------------------------------------
Total Dipole Moment    :     -0.39841       0.18417       0.58368
                        -----------------------------------------
Magnitude (a.u.)       :      0.73030
Magnitude (Debye)      :      1.85627

Rotational constants in cm-1:     0.016392     0.011584     0.007243
Rotational constants in MHz :   491.430179   347.276147   217.141811

                             ****ORCA TERMINATED NORMALLY****
TOTAL RUN TIME: 0 days 0 hours 0 minutes 37 seconds 31 msec
