                         Program Version 4.2.1 -  RELEASE  -
|  1> ! wB97X-D3 SP def2-SVP
|  2> %pal
|  3> nprocs 16
|  4> end
|  5>
|  6> * xyz 0 1
|  7> S 	 8.27151 	 -8.92474 	 93.463
|  8> C 	 8.0663 	 -7.77127 	 94.7108
|  9> C 	 7.94681 	 -6.47029 	 94.312
| 10> C 	 8.06831 	 -6.40331 	 92.8796
| 11> C 	 8.21901 	 -7.63256 	 92.2712
| 12> H 	 8.07745 	 -5.54722 	 92.1834
| 13> C 	 7.69629 	 -5.23784 	 95.0701
| 14> H 	 7.82677 	 -5.43714 	 96.1638
| 15> H 	 6.59004 	 -5.20065 	 94.9947
| 16> C 	 8.28992 	 -3.84491 	 94.7447
| 17> H 	 9.37139 	 -3.85087 	 94.9905
| 18> H 	 8.25755 	 -3.63803 	 93.6962
| 19> C 	 7.66128 	 -2.67746 	 95.5347
| 20> H 	 7.57626 	 -2.91478 	 96.5847
| 21> H 	 8.2783 	 -1.71525 	 95.5259
| 22> H 	 6.74568 	 -2.28752 	 95.059
| 23> S 	 9.86841 	 -8.88892 	 90.6422
| 24> C 	 9.71523 	 -8.60744 	 88.9154
| 25> C 	 8.52676 	 -7.99343 	 88.5732
| 26> C 	 7.76893 	 -7.44914 	 89.7075
| 27> C 	 8.44474 	 -7.90544 	 90.8607
| 28> H 	 8.23347 	 -7.94303 	 87.5113
| 29> C 	 6.49246 	 -6.60048 	 89.6564
| 30> H 	 6.18292 	 -6.59867 	 90.6775
| 31> H 	 5.73803 	 -6.96468 	 89.0328
| 32> C 	 6.83199 	 -5.1646 	 89.2644
| 33> H 	 7.02731 	 -4.99706 	 88.1657
| 34> H 	 7.69223 	 -4.69854 	 89.8223
| 35> C 	 5.81075 	 -4.07672 	 89.6524
| 36> H 	 6.15118 	 -3.0183 	 89.4366
| 37> H 	 5.51691 	 -4.07553 	 90.6896
| 38> H 	 4.89273 	 -4.25899 	 89.125
| 39> H 	 7.97216 	 -8.15187 	 95.7603
| 40> H 	 10.3687 	 -9.0099 	 88.2354
| 41> *
| 42>
| 43>                          ****END OF INPUT****

CARTESIAN COORDINATES (ANGSTROEM)
---------------------------------
  S      8.271510   -8.924740   93.463000
  C      8.066300   -7.771270   94.710800
  C      7.946810   -6.470290   94.312000
  C      8.068310   -6.403310   92.879600
  C      8.219010   -7.632560   92.271200
  H      8.077450   -5.547220   92.183400
  C      7.696290   -5.237840   95.070100
  H      7.826770   -5.437140   96.163800
  H      6.590040   -5.200650   94.994700
  C      8.289920   -3.844910   94.744700
  H      9.371390   -3.850870   94.990500
  H      8.257550   -3.638030   93.696200
  C      7.661280   -2.677460   95.534700
  H      7.576260   -2.914780   96.584700
  H      8.278300   -1.715250   95.525900
  H      6.745680   -2.287520   95.059000
  S      9.868410   -8.888920   90.642200
  C      9.715230   -8.607440   88.915400
  C      8.526760   -7.993430   88.573200
  C      7.768930   -7.449140   89.707500
  C      8.444740   -7.905440   90.860700
  H      8.233470   -7.943030   87.511300
  C      6.492460   -6.600480   89.656400
  H      6.182920   -6.598670   90.677500
  H      5.738030   -6.964680   89.032800
  C      6.831990   -5.164600   89.264400
  H      7.027310   -4.997060   88.165700
  H      7.692230   -4.698540   89.822300
  C      5.810750   -4.076720   89.652400
  H      6.151180   -3.018300   89.436600
  H      5.516910   -4.075530   90.689600
  H      4.892730   -4.258990   89.125000
  H      7.972160   -8.151870   95.760300
  H     10.368700   -9.009900   88.235400

 Total Charge           Charge          ....    0
 Multiplicity           Mult            ....    1
 Number of Electrons    NEL             ....  134
 Basis Dimension        Dim             ....  322

ORBITAL ENERGIES
----------------

  NO   OCC          E(Eh)            E(eV)
   0   2.0000     -88.965523     -2420.8750
   1   2.0000     -88.963021     -2420.8069
   2   2.0000     -10.326215      -280.9906
   3   2.0000     -10.322913      -280.9008
   4   2.0000     -10.312804      -280.6257
   5   2.0000     -10.311011      -280.5769
   6   2.0000     -10.309177      -280.5270
   7   2.0000     -10.301711      -280.3238
   8   2.0000     -10.299077      -280.2521
   9   2.0000     -10.296883      -280.1924
  10   2.0000     -10.294857      -280.1373
  11   2.0000     -10.294602      -280.1304
  12   2.0000     -10.293951      -280.1127
  13   2.0000     -10.291977      -280.0589
  14   2.0000     -10.288052      -279.9521
  15   2.0000     -10.279147      -279.7098
  16   2.0000      -8.080511      -219.8819
  17   2.0000      -8.078635      -219.8308
  18   2.0000      -6.038942      -164.3280
  19   2.0000      -6.037096      -164.2777
  20   2.0000      -6.035208      -164.2264
  21   2.0000      -6.033104      -164.1691
  22   2.0000      -6.031088      -164.1143
  23   2.0000      -6.029338      -164.0666
  24   2.0000      -1.007913       -27.4267
  25   2.0000      -0.982119       -26.7248
  26   2.0000      -0.912995       -24.8438
  27   2.0000      -0.910709       -24.7817
  28   2.0000      -0.869187       -23.6518
  29   2.0000      -0.853747       -23.2316
  30   2.0000      -0.847898       -23.0725
  31   2.0000      -0.813711       -22.1422
  32   2.0000      -0.786086       -21.3905
  33   2.0000      -0.771286       -20.9878
  34   2.0000      -0.710847       -19.3431
  35   2.0000      -0.695887       -18.9360
  36   2.0000      -0.690814       -18.7980
  37   2.0000      -0.662065       -18.0157
  38   2.0000      -0.640190       -17.4205
  39   2.0000      -0.618936       -16.8421
  40   2.0000      -0.598049       -16.2738
  41   2.0000      -0.573852       -15.6153
  42   2.0000      -0.563477       -15.3330
  43   2.0000      -0.556790       -15.1510
  44   2.0000      -0.528645       -14.3852
  45   2.0000      -0.522812       -14.2264
  46   2.0000      -0.514105       -13.9895
  47   2.0000      -0.509286       -13.8584
  48   2.0000      -0.507348       -13.8057
  49   2.0000      -0.504994       -13.7416
  50   2.0000      -0.486749       -13.2451
  51   2.0000      -0.480267       -13.0687
  52   2.0000      -0.469409       -12.7733
  53   2.0000      -0.467706       -12.7269
  54   2.0000      -0.460436       -12.5291
  55   2.0000      -0.449090       -12.2204
  56   2.0000      -0.443245       -12.0613
  57   2.0000      -0.440379       -11.9833
  58   2.0000      -0.430960       -11.7270
  59   2.0000      -0.428135       -11.6501
  60   2.0000      -0.425751       -11.5853
  61   2.0000      -0.418072       -11.3763
  62   2.0000      -0.410777       -11.1778
  63   2.0000      -0.348258        -9.4766
  64   2.0000      -0.329740        -8.9727
  65   2.0000      -0.325963        -8.8699
  66   2.0000      -0.286818        -7.8047
  67   0.0000       0.035741         0.9726
  68   0.0000       0.070324         1.9136
  69   0.0000       0.109399         2.9769
  70   0.0000       0.118697         3.2299
  71   0.0000       0.125668         3.4196

MULLIKEN ATOMIC CHARGES
-----------------------
   0 S :    0.108709
   1 C :   -0.154627
   2 C :   -0.026220
   3 C :    0.000957
   4 C :   -0.168811
   5 H :    0.010037
   6 C :    0.027497
   7 H :    0.020281
   8 H :    0.044883
   9 C :   -0.042121
  10 H :    0.039569
  11 H :    0.024582
  12 C :   -0.083438
  13 H :    0.038556
  14 H :    0.036784
  15 H :    0.039072
  16 S :    0.110571
  17 C :   -0.060099
  18 C :   -0.040667
  19 C :   -0.049818
  20 C :   -0.165721
  21 H :    0.026940
  22 C :    0.175040
  23 H :    0.014560
  24 H :    0.024067
  25 C :   -0.136710
  26 H :    0.043557
  27 H :    0.042069
  28 C :   -0.065555
  29 H :    0.044282
  30 H :    0.023799
  31 H :    0.017745
  32 H :    0.058332
  33 H :    0.021899
Sum of atomic charges:    0.0000000

LOEWDIN ATOMIC CHARGES
----------------------
   0 S :    0.405113
   1 C :   -0.215701
   2 C :   -0.065826
   3 C :   -0.070218
   4 C :   -0.195978
   5 H :    0.033003
   6 C :   -0.044691
   7 H :    0.033285
   8 H :    0.043586
   9 C :   -0.039375
  10 H :    0.031271
  11 H :    0.019069
  12 C :   -0.071631
  13 H :    0.024059
  14 H :    0.035760
  15 H :    0.027542
  16 S :    0.405766
  17 C :   -0.175327
  18 C :   -0.064768
  19 C :   -0.045138
  20 C :   -0.194322
  21 H :    0.034030
  22 C :   -0.016867
  23 H :    0.032419
  24 H :    0.028184
  25 C :   -0.050395
  26 H :    0.030419
  27 H :    0.030039
  28 C :   -0.072695
  29 H :    0.033741
  30 H :    0.018464
  31 H :    0.015484
  32 H :    0.033330
  33 H :    0.008367

  Mayer bond orders larger than 0.100000
B(  0-S ,  1-C ) :   1.1336 B(  0-S ,  4-C ) :   1.1459 B(  1-C ,  2-C ) :   1.6254
B(  1-C , 32-H ) :   0.9594 B(  2-C ,  3-C ) :   1.2015 B(  2-C ,  6-C ) :   1.0256
B(  3-C ,  4-C ) :   1.6096 B(  3-C ,  5-H ) :   0.9878 B(  4-C , 20-C ) :   1.0221
B(  6-C ,  7-H ) :   0.9350 B(  6-C ,  8-H ) :   0.9301 B(  6-C ,  9-C ) :   1.0530
B(  9-C , 10-H ) :   0.9558 B(  9-C , 11-H ) :   0.9529 B(  9-C , 12-C ) :   1.0820
B( 12-C , 13-H ) :   0.9766 B( 12-C , 14-H ) :   0.9740 B( 12-C , 15-H ) :   0.9757
B( 16-S , 17-C ) :   1.1278 B( 16-S , 20-C ) :   1.1554 B( 17-C , 18-C ) :   1.6490
B( 17-C , 33-H ) :   0.9789 B( 18-C , 19-C ) :   1.1887 B( 18-C , 21-H ) :   0.9830
B( 19-C , 20-C ) :   1.6090 B( 19-C , 22-C ) :   1.0479 B( 22-C , 23-H ) :   0.9221
B( 22-C , 24-H ) :   0.9322 B( 22-C , 25-C ) :   1.0522 B( 25-C , 26-H ) :   0.9545
B( 25-C , 27-H ) :   0.9598 B( 25-C , 28-C ) :   1.0762 B( 28-C , 29-H ) :   0.9772
B( 28-C , 30-H ) :   0.9747 B( 28-C , 31-H ) :   0.9722

Dispersion correction           -0.014056338
FINAL SINGLE POINT ENERGY     -1339.867987889339

DIPOLE MOMENT
-------------
                                X             Y             Z
Electronic contribution:     12.37969     -30.58125      -2.78705
Nuclear contribution   :    -12.69669      31.18952       2.70141
                        -----------------------------------------
Total Dipole Moment    :     -0.31700       0.60828      -0.08564
                        -----------------------------------------
Magnitude (a.u.)       :      0.69125
Magnitude (Debye)      :      1.75701

Rotational constants in cm-1:     0.016329     0.009577     0.006728
Rotational constants in MHz :   489.522300   287.108589   201.707341

                             ****ORCA TERMINATED NORMALLY****
TOTAL RUN TIME: 0 days 0 hours 0 minutes 34 seconds 277 msec
