                         Program Version 4.2.1 -  RELEASE  -
|  1> ! wB97X-D3 SP def2-SVP
|  2> %pal
|  3> nprocs 16
|  4> end
|  5>
|  6> * xyz 0 1
|  7> S 	 47.1165 	 5.24382 	 86.045
|  8> C 	 47.7854 	 5.03463 	 87.5935
|  9> C 	 47.4416 	 6.09079 	 88.4374
| 10> C 	 46.4516 	 6.92812 	 87.8646
| 11> C 	 46.0005 	 6.46918 	 86.651
| 12> H 	 45.98 	 7.76454 	 88.3072
| 13> C 	 48.1055 	 6.34487 	 89.7253
| 14> H 	 48.7411 	 7.19125 	 89.5158
| 15> H 	 48.8081 	 5.533 	 89.9463
| 16> C 	 47.1177 	 6.7018 	 90.8235
| 17> H 	 47.7033 	 6.88923 	 91.6533
| 18> H 	 46.5547 	 7.59329 	 90.5635
| 19> C 	 46.208 	 5.51344 	 91.1789
| 20> H 	 46.7943 	 4.67042 	 91.6223
| 21> H 	 45.4026 	 5.7909 	 91.8772
| 22> H 	 45.6944 	 5.22886 	 90.2798
| 23> S 	 45.6007 	 7.16585 	 83.9888
| 24> C 	 44.2163 	 8.25272 	 83.5685
| 25> C 	 43.416 	 8.5206 	 84.6875
| 26> C 	 43.944 	 7.96961 	 85.8874
| 27> C 	 45.1301 	 7.21028 	 85.7117
| 28> H 	 42.5783 	 9.12484 	 84.6302
| 29> C 	 43.2169 	 8.20876 	 87.2238
| 30> H 	 43.3875 	 9.24017 	 87.5551
| 31> H 	 43.5604 	 7.52599 	 87.9805
| 32> C 	 41.7323 	 7.96069 	 87.1709
| 33> H 	 41.195 	 8.68527 	 86.5654
| 34> H 	 41.2811 	 8.2069 	 88.1646
| 35> C 	 41.4372 	 6.44202 	 86.8969
| 36> H 	 41.7297 	 5.85748 	 87.7364
| 37> H 	 41.9514 	 6.08234 	 86.0216
| 38> H 	 40.4125 	 6.13892 	 86.7727
| 39> H 	 48.6764 	 4.4758 	 87.7592
| 40> H 	 43.9245 	 8.60023 	 82.6167
| 41> *
| 42>
| 43>                          ****END OF INPUT****

CARTESIAN COORDINATES (ANGSTROEM)
---------------------------------
  S     47.116500    5.243820   86.045000
  C     47.785400    5.034630   87.593500
  C     47.441600    6.090790   88.437400
  C     46.451600    6.928120   87.864600
  C     46.000500    6.469180   86.651000
  H     45.980000    7.764540   88.307200
  C     48.105500    6.344870   89.725300
  H     48.741100    7.191250   89.515800
  H     48.808100    5.533000   89.946300
  C     47.117700    6.701800   90.823500
  H     47.703300    6.889230   91.653300
  H     46.554700    7.593290   90.563500
  C     46.208000    5.513440   91.178900
  H     46.794300    4.670420   91.622300
  H     45.402600    5.790900   91.877200
  H     45.694400    5.228860   90.279800
  S     45.600700    7.165850   83.988800
  C     44.216300    8.252720   83.568500
  C     43.416000    8.520600   84.687500
  C     43.944000    7.969610   85.887400
  C     45.130100    7.210280   85.711700
  H     42.578300    9.124840   84.630200
  C     43.216900    8.208760   87.223800
  H     43.387500    9.240170   87.555100
  H     43.560400    7.525990   87.980500
  C     41.732300    7.960690   87.170900
  H     41.195000    8.685270   86.565400
  H     41.281100    8.206900   88.164600
  C     41.437200    6.442020   86.896900
  H     41.729700    5.857480   87.736400
  H     41.951400    6.082340   86.021600
  H     40.412500    6.138920   86.772700
  H     48.676400    4.475800   87.759200
  H     43.924500    8.600230   82.616700

 Total Charge           Charge          ....    0
 Multiplicity           Mult            ....    1
 Number of Electrons    NEL             ....  134
 Basis Dimension        Dim             ....  322

ORBITAL ENERGIES
----------------

  NO   OCC          E(Eh)            E(eV)
   0   2.0000     -88.969401     -2420.9805
   1   2.0000     -88.964630     -2420.8507
   2   2.0000     -10.335843      -281.2526
   3   2.0000     -10.331673      -281.1391
   4   2.0000     -10.321826      -280.8712
   5   2.0000     -10.307237      -280.4742
   6   2.0000     -10.305957      -280.4394
   7   2.0000     -10.296971      -280.1948
   8   2.0000     -10.292933      -280.0849
   9   2.0000     -10.292225      -280.0657
  10   2.0000     -10.291060      -280.0340
  11   2.0000     -10.290180      -280.0100
  12   2.0000     -10.286960      -279.9224
  13   2.0000     -10.280223      -279.7391
  14   2.0000     -10.276461      -279.6367
  15   2.0000     -10.269664      -279.4518
  16   2.0000      -8.082323      -219.9312
  17   2.0000      -8.080154      -219.8722
  18   2.0000      -6.041057      -164.3855
  19   2.0000      -6.038540      -164.3170
  20   2.0000      -6.037146      -164.2791
  21   2.0000      -6.034798      -164.2152
  22   2.0000      -6.032904      -164.1637
  23   2.0000      -6.030760      -164.1053
  24   2.0000      -1.008057       -27.4306
  25   2.0000      -0.978275       -26.6202
  26   2.0000      -0.920943       -25.0601
  27   2.0000      -0.908766       -24.7288
  28   2.0000      -0.869101       -23.6494
  29   2.0000      -0.850970       -23.1561
  30   2.0000      -0.838769       -22.8241
  31   2.0000      -0.816955       -22.2305
  32   2.0000      -0.783447       -21.3187
  33   2.0000      -0.772681       -21.0257
  34   2.0000      -0.713979       -19.4284
  35   2.0000      -0.699321       -19.0295
  36   2.0000      -0.695843       -18.9349
  37   2.0000      -0.660102       -17.9623
  38   2.0000      -0.644157       -17.5284
  39   2.0000      -0.628901       -17.1133
  40   2.0000      -0.595939       -16.2163
  41   2.0000      -0.568862       -15.4795
  42   2.0000      -0.561102       -15.2684
  43   2.0000      -0.557051       -15.1581
  44   2.0000      -0.545582       -14.8460
  45   2.0000      -0.534189       -14.5360
  46   2.0000      -0.519039       -14.1238
  47   2.0000      -0.507066       -13.7980
  48   2.0000      -0.499567       -13.5939
  49   2.0000      -0.497555       -13.5392
  50   2.0000      -0.487695       -13.2709
  51   2.0000      -0.474583       -12.9141
  52   2.0000      -0.466468       -12.6933
  53   2.0000      -0.464467       -12.6388
  54   2.0000      -0.460856       -12.5405
  55   2.0000      -0.452943       -12.3252
  56   2.0000      -0.444665       -12.0999
  57   2.0000      -0.438927       -11.9438
  58   2.0000      -0.436245       -11.8708
  59   2.0000      -0.435231       -11.8432
  60   2.0000      -0.425990       -11.5918
  61   2.0000      -0.414272       -11.2729
  62   2.0000      -0.408426       -11.1138
  63   2.0000      -0.357969        -9.7408
  64   2.0000      -0.335849        -9.1389
  65   2.0000      -0.323176        -8.7941
  66   2.0000      -0.281888        -7.6705
  67   0.0000       0.018184         0.4948
  68   0.0000       0.070989         1.9317
  69   0.0000       0.095312         2.5936
  70   0.0000       0.122060         3.3214
  71   0.0000       0.132455         3.6043

MULLIKEN ATOMIC CHARGES
-----------------------
   0 S :    0.087100
   1 C :   -0.076856
   2 C :   -0.143662
   3 C :    0.018101
   4 C :   -0.104231
   5 H :    0.003973
   6 C :    0.089431
   7 H :    0.035677
   8 H :    0.013545
   9 C :   -0.042987
  10 H :    0.009692
  11 H :    0.031313
  12 C :   -0.061896
  13 H :    0.039767
  14 H :    0.033772
  15 H :    0.036736
  16 S :    0.087046
  17 C :   -0.065918
  18 C :   -0.006206
  19 C :   -0.067329
  20 C :   -0.145755
  21 H :   -0.005586
  22 C :    0.078665
  23 H :    0.040755
  24 H :    0.019187
  25 C :   -0.089130
  26 H :    0.023632
  27 H :    0.025194
  28 C :   -0.035046
  29 H :    0.021804
  30 H :    0.043737
  31 H :    0.023621
  32 H :    0.041828
  33 H :    0.040023
Sum of atomic charges:   -0.0000000

LOEWDIN ATOMIC CHARGES
----------------------
   0 S :    0.413941
   1 C :   -0.214918
   2 C :   -0.060506
   3 C :   -0.058060
   4 C :   -0.180164
   5 H :    0.024560
   6 C :   -0.031967
   7 H :    0.037267
   8 H :    0.030897
   9 C :   -0.033966
  10 H :    0.014768
  11 H :    0.024144
  12 C :   -0.064951
  13 H :    0.031138
  14 H :    0.026691
  15 H :    0.022118
  16 S :    0.367455
  17 C :   -0.159207
  18 C :   -0.055513
  19 C :   -0.059590
  20 C :   -0.180759
  21 H :    0.020464
  22 C :   -0.031554
  23 H :    0.034021
  24 H :    0.026868
  25 C :   -0.043429
  26 H :    0.016363
  27 H :    0.028816
  28 C :   -0.062669
  29 H :    0.023549
  30 H :    0.026942
  31 H :    0.023823
  32 H :    0.022561
  33 H :    0.020866

  Mayer bond orders larger than 0.100000
B(  0-S ,  1-C ) :   1.1492 B(  0-S ,  4-C ) :   1.1569 B(  1-C ,  2-C ) :   1.5862
B(  1-C , 32-H ) :   0.9648 B(  2-C ,  3-C ) :   1.2525 B(  2-C ,  6-C ) :   1.0325
B(  3-C ,  4-C ) :   1.5417 B(  3-C ,  5-H ) :   1.0006 B(  4-C , 20-C ) :   1.0642
B(  6-C ,  7-H ) :   0.9235 B(  6-C ,  8-H ) :   0.9374 B(  6-C ,  9-C ) :   1.0800
B(  9-C , 10-H ) :   0.9508 B(  9-C , 11-H ) :   0.9515 B(  9-C , 12-C ) :   1.0769
B( 12-C , 13-H ) :   0.9741 B( 12-C , 14-H ) :   0.9743 B( 12-C , 15-H ) :   0.9746
B( 16-S , 17-C ) :   1.1356 B( 16-S , 20-C ) :   1.1256 B( 17-C , 18-C ) :   1.6150
B( 17-C , 20-C ) :   0.1006 B( 17-C , 33-H ) :   0.9709 B( 18-C , 19-C ) :   1.2433
B( 18-C , 21-H ) :   0.9980 B( 19-C , 20-C ) :   1.5928 B( 19-C , 22-C ) :   1.0353
B( 22-C , 23-H ) :   0.9316 B( 22-C , 24-H ) :   0.9357 B( 22-C , 25-C ) :   1.0860
B( 25-C , 26-H ) :   0.9539 B( 25-C , 27-H ) :   0.9525 B( 25-C , 28-C ) :   1.0581
B( 28-C , 29-H ) :   0.9733 B( 28-C , 30-H ) :   0.9790 B( 28-C , 31-H ) :   0.9758

Dispersion correction           -0.014677259
FINAL SINGLE POINT ENERGY     -1339.871968557993

DIPOLE MOMENT
-------------
                                X             Y             Z
Electronic contribution:     12.47803      -2.09932     -24.22005
Nuclear contribution   :    -12.60736       2.53796      24.79882
                        -----------------------------------------
Total Dipole Moment    :     -0.12933       0.43865       0.57876
                        -----------------------------------------
Magnitude (a.u.)       :      0.73763
Magnitude (Debye)      :      1.87491

Rotational constants in cm-1:     0.018807     0.009517     0.007082
Rotational constants in MHz :   563.823775   285.321167   212.314137

                             ****ORCA TERMINATED NORMALLY****
TOTAL RUN TIME: 0 days 0 hours 0 minutes 31 seconds 621 msec
