                         Program Version 4.2.1 -  RELEASE  -
|  1> ! wB97X-D3 SP def2-SVP
|  2> %pal
|  3> nprocs 16
|  4> end
|  5>
|  6> * xyz 0 1
|  7> S 	 34.974 	 0.958748 	 68.7434
|  8> C 	 35.7039 	 2.51091 	 68.916
|  9> C 	 34.9599 	 3.4333 	 69.5896
| 10> C 	 33.8719 	 2.77713 	 70.2584
| 11> C 	 33.7833 	 1.4478 	 69.945
| 12> H 	 33.2137 	 3.18976 	 71.0003
| 13> C 	 35.3074 	 4.83362 	 69.8773
| 14> H 	 35.7436 	 5.12579 	 68.9576
| 15> H 	 36.0963 	 4.91479 	 70.6351
| 16> C 	 34.1532 	 5.80163 	 70.2012
| 17> H 	 33.7086 	 5.4021 	 71.1174
| 18> H 	 34.5912 	 6.80307 	 70.323
| 19> C 	 32.9017 	 5.89105 	 69.2677
| 20> H 	 32.2312 	 5.00982 	 69.3437
| 21> H 	 32.233 	 6.68717 	 69.5984
| 22> H 	 33.3585 	 5.99641 	 68.2926
| 23> S 	 31.3486 	 0.0445996 	 69.4887
| 24> C 	 30.665 	 -0.922137 	 70.7861
| 25> C 	 31.3541 	 -0.727805 	 71.9665
| 26> C 	 32.491 	 0.164038 	 71.8152
| 27> C 	 32.7392 	 0.593649 	 70.5448
| 28> H 	 31.054 	 -1.18216 	 72.8715
| 29> C 	 33.3081 	 0.578122 	 73.0038
| 30> H 	 34.3316 	 0.812583 	 72.7307
| 31> H 	 33.4825 	 -0.356552 	 73.5528
| 32> C 	 32.7648 	 1.73136 	 73.9
| 33> H 	 31.77 	 1.36461 	 74.2561
| 34> H 	 32.5766 	 2.64601 	 73.269
| 35> C 	 33.7009 	 2.11502 	 75.073
| 36> H 	 34.6324 	 2.5315 	 74.7005
| 37> H 	 33.9514 	 1.13825 	 75.5119
| 38> H 	 33.4902 	 2.7642 	 75.9237
| 39> H 	 36.5406 	 2.7723 	 68.2908
| 40> H 	 29.7856 	 -1.61703 	 70.8391
| 41> *
| 42>
| 43>                          ****END OF INPUT****

CARTESIAN COORDINATES (ANGSTROEM)
---------------------------------
  S     34.974000    0.958748   68.743400
  C     35.703900    2.510910   68.916000
  C     34.959900    3.433300   69.589600
  C     33.871900    2.777130   70.258400
  C     33.783300    1.447800   69.945000
  H     33.213700    3.189760   71.000300
  C     35.307400    4.833620   69.877300
  H     35.743600    5.125790   68.957600
  H     36.096300    4.914790   70.635100
  C     34.153200    5.801630   70.201200
  H     33.708600    5.402100   71.117400
  H     34.591200    6.803070   70.323000
  C     32.901700    5.891050   69.267700
  H     32.231200    5.009820   69.343700
  H     32.233000    6.687170   69.598400
  H     33.358500    5.996410   68.292600
  S     31.348600    0.044600   69.488700
  C     30.665000   -0.922137   70.786100
  C     31.354100   -0.727805   71.966500
  C     32.491000    0.164038   71.815200
  C     32.739200    0.593649   70.544800
  H     31.054000   -1.182160   72.871500
  C     33.308100    0.578122   73.003800
  H     34.331600    0.812583   72.730700
  H     33.482500   -0.356552   73.552800
  C     32.764800    1.731360   73.900000
  H     31.770000    1.364610   74.256100
  H     32.576600    2.646010   73.269000
  C     33.700900    2.115020   75.073000
  H     34.632400    2.531500   74.700500
  H     33.951400    1.138250   75.511900
  H     33.490200    2.764200   75.923700
  H     36.540600    2.772300   68.290800
  H     29.785600   -1.617030   70.839100

 Total Charge           Charge          ....    0
 Multiplicity           Mult            ....    1
 Number of Electrons    NEL             ....  134
 Basis Dimension        Dim             ....  322

ORBITAL ENERGIES
----------------

  NO   OCC          E(Eh)            E(eV)
   0   2.0000     -88.969797     -2420.9912
   1   2.0000     -88.961145     -2420.7558
   2   2.0000     -10.328945      -281.0649
   3   2.0000     -10.328460      -281.0517
   4   2.0000     -10.321715      -280.8681
   5   2.0000     -10.310983      -280.5761
   6   2.0000     -10.302219      -280.3376
   7   2.0000     -10.299996      -280.2771
   8   2.0000     -10.297710      -280.2149
   9   2.0000     -10.292748      -280.0799
  10   2.0000     -10.291231      -280.0386
  11   2.0000     -10.290772      -280.0261
  12   2.0000     -10.289770      -279.9989
  13   2.0000     -10.289102      -279.9807
  14   2.0000     -10.281189      -279.7654
  15   2.0000     -10.281015      -279.7606
  16   2.0000      -8.084854      -220.0001
  17   2.0000      -8.074764      -219.7255
  18   2.0000      -6.043258      -164.4454
  19   2.0000      -6.039563      -164.3449
  20   2.0000      -6.035455      -164.2331
  21   2.0000      -6.033552      -164.1813
  22   2.0000      -6.029462      -164.0700
  23   2.0000      -6.025252      -163.9554
  24   2.0000      -1.006591       -27.3907
  25   2.0000      -0.981081       -26.6966
  26   2.0000      -0.915443       -24.9105
  27   2.0000      -0.902942       -24.5703
  28   2.0000      -0.869783       -23.6680
  29   2.0000      -0.850000       -23.1297
  30   2.0000      -0.844520       -22.9806
  31   2.0000      -0.817403       -22.2427
  32   2.0000      -0.785336       -21.3701
  33   2.0000      -0.771429       -20.9916
  34   2.0000      -0.708753       -19.2861
  35   2.0000      -0.698673       -19.0119
  36   2.0000      -0.690328       -18.7848
  37   2.0000      -0.659120       -17.9356
  38   2.0000      -0.644838       -17.5469
  39   2.0000      -0.624334       -16.9890
  40   2.0000      -0.589704       -16.0467
  41   2.0000      -0.568554       -15.4711
  42   2.0000      -0.563804       -15.3419
  43   2.0000      -0.555938       -15.1279
  44   2.0000      -0.536889       -14.6095
  45   2.0000      -0.522832       -14.2270
  46   2.0000      -0.520172       -14.1546
  47   2.0000      -0.510211       -13.8835
  48   2.0000      -0.508198       -13.8288
  49   2.0000      -0.499166       -13.5830
  50   2.0000      -0.489981       -13.3330
  51   2.0000      -0.484352       -13.1799
  52   2.0000      -0.473656       -12.8888
  53   2.0000      -0.462978       -12.5983
  54   2.0000      -0.455366       -12.3911
  55   2.0000      -0.452215       -12.3054
  56   2.0000      -0.446234       -12.1427
  57   2.0000      -0.439892       -11.9701
  58   2.0000      -0.426121       -11.5953
  59   2.0000      -0.424588       -11.5536
  60   2.0000      -0.419780       -11.4228
  61   2.0000      -0.408731       -11.1221
  62   2.0000      -0.407490       -11.0884
  63   2.0000      -0.340162        -9.2563
  64   2.0000      -0.328849        -8.9484
  65   2.0000      -0.325491        -8.8571
  66   2.0000      -0.305216        -8.3053
  67   0.0000       0.037372         1.0170
  68   0.0000       0.058785         1.5996
  69   0.0000       0.115085         3.1316
  70   0.0000       0.115854         3.1525
  71   0.0000       0.120648         3.2830

MULLIKEN ATOMIC CHARGES
-----------------------
   0 S :    0.132036
   1 C :   -0.123373
   2 C :   -0.077350
   3 C :    0.030445
   4 C :   -0.155907
   5 H :    0.005341
   6 C :    0.104874
   7 H :    0.002320
   8 H :    0.053067
   9 C :   -0.113450
  10 H :    0.023838
  11 H :    0.041522
  12 C :   -0.053788
  13 H :    0.040803
  14 H :    0.041147
  15 H :    0.037536
  16 S :    0.082746
  17 C :   -0.088082
  18 C :   -0.026864
  19 C :   -0.025518
  20 C :   -0.168530
  21 H :    0.003059
  22 C :    0.033022
  23 H :    0.019618
  24 H :    0.021726
  25 C :   -0.064994
  26 H :    0.031467
  27 H :    0.036435
  28 C :   -0.045830
  29 H :    0.024853
  30 H :    0.022136
  31 H :    0.043018
  32 H :    0.040542
  33 H :    0.072135
Sum of atomic charges:    0.0000000

LOEWDIN ATOMIC CHARGES
----------------------
   0 S :    0.415015
   1 C :   -0.193613
   2 C :   -0.066364
   3 C :   -0.046148
   4 C :   -0.196536
   5 H :    0.027983
   6 C :   -0.034949
   7 H :    0.024058
   8 H :    0.041932
   9 C :   -0.042517
  10 H :    0.019132
  11 H :    0.029700
  12 C :   -0.066581
  13 H :    0.029445
  14 H :    0.030609
  15 H :    0.024359
  16 S :    0.359584
  17 C :   -0.187138
  18 C :   -0.073059
  19 C :   -0.056401
  20 C :   -0.168873
  21 H :    0.023665
  22 C :   -0.038379
  23 H :    0.027647
  24 H :    0.031545
  25 C :   -0.037667
  26 H :    0.025280
  27 H :    0.024000
  28 C :   -0.076162
  29 H :    0.024493
  30 H :    0.026957
  31 H :    0.029957
  32 H :    0.022712
  33 H :    0.046314

  Mayer bond orders larger than 0.100000
B(  0-S ,  1-C ) :   1.1449 B(  0-S ,  4-C ) :   1.1370 B(  1-C ,  2-C ) :   1.6337
B(  1-C , 32-H ) :   0.9649 B(  2-C ,  3-C ) :   1.2060 B(  2-C ,  6-C ) :   1.0144
B(  3-C ,  4-C ) :   1.6032 B(  3-C ,  5-H ) :   0.9926 B(  4-C , 20-C ) :   1.0288
B(  6-C ,  7-H ) :   0.9226 B(  6-C ,  8-H ) :   0.9381 B(  6-C ,  9-C ) :   1.0799
B(  9-C , 10-H ) :   0.9510 B(  9-C , 11-H ) :   0.9572 B(  9-C , 12-C ) :   1.0751
B( 12-C , 13-H ) :   0.9713 B( 12-C , 14-H ) :   0.9728 B( 12-C , 15-H ) :   0.9795
B( 16-S , 17-C ) :   1.1402 B( 16-S , 20-C ) :   1.0948 B( 17-C , 18-C ) :   1.6450
B( 17-C , 33-H ) :   0.9561 B( 18-C , 19-C ) :   1.2024 B( 18-C , 21-H ) :   0.9937
B( 19-C , 20-C ) :   1.6641 B( 19-C , 22-C ) :   1.0549 B( 22-C , 23-H ) :   0.9331
B( 22-C , 24-H ) :   0.9297 B( 22-C , 25-C ) :   1.0485 B( 25-C , 26-H ) :   0.9562
B( 25-C , 27-H ) :   0.9559 B( 25-C , 28-C ) :   1.0605 B( 28-C , 29-H ) :   0.9746
B( 28-C , 30-H ) :   0.9743 B( 28-C , 31-H ) :   0.9789

Dispersion correction           -0.014868301
FINAL SINGLE POINT ENERGY     -1339.867469093546

DIPOLE MOMENT
-------------
                                X             Y             Z
Electronic contribution:     -2.15801     -19.95800     -18.26883
Nuclear contribution   :      2.34301      20.41520      18.80551
                        -----------------------------------------
Total Dipole Moment    :      0.18500       0.45721       0.53667
                        -----------------------------------------
Magnitude (a.u.)       :      0.72889
Magnitude (Debye)      :      1.85269

Rotational constants in cm-1:     0.015726     0.009822     0.007823
Rotational constants in MHz :   471.463176   294.449160   234.523728

                             ****ORCA TERMINATED NORMALLY****
TOTAL RUN TIME: 0 days 0 hours 0 minutes 30 seconds 861 msec
