                         Program Version 4.2.1 -  RELEASE  -
|  1> ! wB97X-D3 SP def2-SVP
|  2> %pal
|  3> nprocs 16
|  4> end
|  5>
|  6> * xyz 0 1
|  7> S 	 -1.46979 	 79.3324 	 50.8242
|  8> C 	 -0.0859469 	 78.7234 	 51.7514
|  9> C 	 1.09694 	 78.7309 	 51.0497
| 10> C 	 0.816752 	 79.115 	 49.6584
| 11> C 	 -0.441056 	 79.5272 	 49.4194
| 12> H 	 1.62015 	 79.2522 	 48.943
| 13> C 	 2.43087 	 78.189 	 51.4613
| 14> H 	 2.67049 	 77.2867 	 50.9001
| 15> H 	 2.32474 	 77.8627 	 52.4408
| 16> C 	 3.64645 	 79.142 	 51.3601
| 17> H 	 4.53311 	 78.5258 	 51.5933
| 18> H 	 3.78463 	 79.512 	 50.3003
| 19> C 	 3.55546 	 80.3423 	 52.335
| 20> H 	 3.179 	 80.0039 	 53.3092
| 21> H 	 4.54582 	 80.8373 	 52.545
| 22> H 	 2.8857 	 81.1067 	 51.908
| 23> S 	 -2.4584 	 78.9664 	 47.582
| 24> C 	 -2.38812 	 79.6701 	 46.027
| 25> C 	 -1.3721 	 80.6021 	 45.9545
| 26> C 	 -0.497534 	 80.6054 	 47.0869
| 27> C 	 -1.01248 	 79.8939 	 48.1439
| 28> H 	 -1.27919 	 81.162 	 45.0335
| 29> C 	 0.691998 	 81.5574 	 47.1925
| 30> H 	 1.21147 	 81.548 	 48.2353
| 31> H 	 0.215071 	 82.5305 	 47.1941
| 32> C 	 1.72128 	 81.6471 	 46.037
| 33> H 	 2.39515 	 82.4974 	 46.2136
| 34> H 	 1.15064 	 81.9706 	 45.1003
| 35> C 	 2.46948 	 80.3374 	 45.8119
| 36> H 	 1.76868 	 79.5743 	 45.5101
| 37> H 	 2.97601 	 79.9731 	 46.7406
| 38> H 	 3.27894 	 80.4516 	 45.1639
| 39> H 	 -0.138152 	 78.2988 	 52.7494
| 40> H 	 -3.12506 	 79.4717 	 45.2735
| 41> *
| 42>
| 43>                          ****END OF INPUT****

CARTESIAN COORDINATES (ANGSTROEM)
---------------------------------
  S     -1.469790   79.332400   50.824200
  C     -0.085947   78.723400   51.751400
  C      1.096940   78.730900   51.049700
  C      0.816752   79.115000   49.658400
  C     -0.441056   79.527200   49.419400
  H      1.620150   79.252200   48.943000
  C      2.430870   78.189000   51.461300
  H      2.670490   77.286700   50.900100
  H      2.324740   77.862700   52.440800
  C      3.646450   79.142000   51.360100
  H      4.533110   78.525800   51.593300
  H      3.784630   79.512000   50.300300
  C      3.555460   80.342300   52.335000
  H      3.179000   80.003900   53.309200
  H      4.545820   80.837300   52.545000
  H      2.885700   81.106700   51.908000
  S     -2.458400   78.966400   47.582000
  C     -2.388120   79.670100   46.027000
  C     -1.372100   80.602100   45.954500
  C     -0.497534   80.605400   47.086900
  C     -1.012480   79.893900   48.143900
  H     -1.279190   81.162000   45.033500
  C      0.691998   81.557400   47.192500
  H      1.211470   81.548000   48.235300
  H      0.215071   82.530500   47.194100
  C      1.721280   81.647100   46.037000
  H      2.395150   82.497400   46.213600
  H      1.150640   81.970600   45.100300
  C      2.469480   80.337400   45.811900
  H      1.768680   79.574300   45.510100
  H      2.976010   79.973100   46.740600
  H      3.278940   80.451600   45.163900
  H     -0.138152   78.298800   52.749400
  H     -3.125060   79.471700   45.273500

 Total Charge           Charge          ....    0
 Multiplicity           Mult            ....    1
 Number of Electrons    NEL             ....  134
 Basis Dimension        Dim             ....  322

ORBITAL ENERGIES
----------------

  NO   OCC          E(Eh)            E(eV)
   0   2.0000     -88.964401     -2420.8444
   1   2.0000     -88.961737     -2420.7719
   2   2.0000     -10.326027      -280.9855
   3   2.0000     -10.324690      -280.9491
   4   2.0000     -10.316232      -280.7189
   5   2.0000     -10.314548      -280.6731
   6   2.0000     -10.307454      -280.4801
   7   2.0000     -10.300970      -280.3037
   8   2.0000     -10.298982      -280.2495
   9   2.0000     -10.296423      -280.1799
  10   2.0000     -10.296317      -280.1770
  11   2.0000     -10.294249      -280.1207
  12   2.0000     -10.289793      -279.9995
  13   2.0000     -10.288800      -279.9725
  14   2.0000     -10.283407      -279.8257
  15   2.0000     -10.274600      -279.5861
  16   2.0000      -8.078948      -219.8393
  17   2.0000      -8.076784      -219.7805
  18   2.0000      -6.037675      -164.2935
  19   2.0000      -6.035292      -164.2286
  20   2.0000      -6.033616      -164.1830
  21   2.0000      -6.031223      -164.1179
  22   2.0000      -6.029361      -164.0673
  23   2.0000      -6.027529      -164.0174
  24   2.0000      -1.006403       -27.3856
  25   2.0000      -0.982923       -26.7467
  26   2.0000      -0.912315       -24.8253
  27   2.0000      -0.907007       -24.6809
  28   2.0000      -0.870089       -23.6763
  29   2.0000      -0.850977       -23.1562
  30   2.0000      -0.839860       -22.8537
  31   2.0000      -0.813482       -22.1360
  32   2.0000      -0.785915       -21.3858
  33   2.0000      -0.776804       -21.1379
  34   2.0000      -0.710348       -19.3296
  35   2.0000      -0.695597       -18.9282
  36   2.0000      -0.692759       -18.8509
  37   2.0000      -0.655502       -17.8371
  38   2.0000      -0.638715       -17.3803
  39   2.0000      -0.622264       -16.9327
  40   2.0000      -0.596396       -16.2288
  41   2.0000      -0.565775       -15.3955
  42   2.0000      -0.557332       -15.1658
  43   2.0000      -0.550443       -14.9783
  44   2.0000      -0.540730       -14.7140
  45   2.0000      -0.536218       -14.5912
  46   2.0000      -0.517602       -14.0847
  47   2.0000      -0.511070       -13.9069
  48   2.0000      -0.502020       -13.6607
  49   2.0000      -0.497871       -13.5478
  50   2.0000      -0.490375       -13.3438
  51   2.0000      -0.474968       -12.9245
  52   2.0000      -0.467871       -12.7314
  53   2.0000      -0.465501       -12.6669
  54   2.0000      -0.460362       -12.5271
  55   2.0000      -0.447370       -12.1736
  56   2.0000      -0.444308       -12.0902
  57   2.0000      -0.437312       -11.8999
  58   2.0000      -0.433067       -11.7843
  59   2.0000      -0.427856       -11.6426
  60   2.0000      -0.419848       -11.4246
  61   2.0000      -0.417166       -11.3517
  62   2.0000      -0.413531       -11.2527
  63   2.0000      -0.350775        -9.5451
  64   2.0000      -0.328763        -8.9461
  65   2.0000      -0.327315        -8.9067
  66   2.0000      -0.292939        -7.9713
  67   0.0000       0.032527         0.8851
  68   0.0000       0.072529         1.9736
  69   0.0000       0.110277         3.0008
  70   0.0000       0.116297         3.1646
  71   0.0000       0.123366         3.3570

MULLIKEN ATOMIC CHARGES
-----------------------
   0 S :    0.101153
   1 C :   -0.119357
   2 C :   -0.101850
   3 C :    0.026268
   4 C :   -0.136746
   5 H :    0.000429
   6 C :    0.100758
   7 H :    0.040661
   8 H :   -0.009508
   9 C :   -0.099454
  10 H :    0.034298
  11 H :    0.037265
  12 C :   -0.070096
  13 H :    0.028317
  14 H :    0.042604
  15 H :    0.050053
  16 S :    0.093612
  17 C :   -0.088485
  18 C :   -0.035470
  19 C :   -0.013708
  20 C :   -0.123301
  21 H :    0.019897
  22 C :   -0.006672
  23 H :    0.046963
  24 H :    0.038590
  25 C :   -0.092864
  26 H :    0.032726
  27 H :    0.032783
  28 C :   -0.023310
  29 H :    0.046105
  30 H :    0.024432
  31 H :    0.022064
  32 H :    0.043848
  33 H :    0.057994
Sum of atomic charges:   -0.0000000

LOEWDIN ATOMIC CHARGES
----------------------
   0 S :    0.385068
   1 C :   -0.187534
   2 C :   -0.060565
   3 C :   -0.058077
   4 C :   -0.190148
   5 H :    0.025854
   6 C :   -0.029361
   7 H :    0.038541
   8 H :    0.018945
   9 C :   -0.043088
  10 H :    0.026492
  11 H :    0.025873
  12 C :   -0.072251
  13 H :    0.023389
  14 H :    0.031326
  15 H :    0.030503
  16 S :    0.395816
  17 C :   -0.185701
  18 C :   -0.077013
  19 C :   -0.054155
  20 C :   -0.183573
  21 H :    0.030057
  22 C :   -0.042843
  23 H :    0.040222
  24 H :    0.036844
  25 C :   -0.045162
  26 H :    0.026796
  27 H :    0.027843
  28 C :   -0.064848
  29 H :    0.029327
  30 H :    0.027500
  31 H :    0.017848
  32 H :    0.027612
  33 H :    0.028464

  Mayer bond orders larger than 0.100000
B(  0-S ,  1-C ) :   1.1163 B(  0-S ,  4-C ) :   1.1206 B(  1-C ,  2-C ) :   1.6609
B(  1-C , 32-H ) :   0.9586 B(  2-C ,  3-C ) :   1.1917 B(  2-C ,  6-C ) :   1.0331
B(  3-C ,  4-C ) :   1.6342 B(  3-C ,  5-H ) :   0.9864 B(  4-C , 20-C ) :   1.0315
B(  6-C ,  7-H ) :   0.9378 B(  6-C ,  8-H ) :   0.9305 B(  6-C ,  9-C ) :   1.0711
B(  9-C , 10-H ) :   0.9560 B(  9-C , 11-H ) :   0.9589 B(  9-C , 12-C ) :   1.0629
B( 12-C , 13-H ) :   0.9769 B( 12-C , 14-H ) :   0.9766 B( 12-C , 15-H ) :   0.9754
B( 16-S , 17-C ) :   1.1709 B( 16-S , 20-C ) :   1.1196 B( 17-C , 18-C ) :   1.6076
B( 17-C , 33-H ) :   0.9693 B( 18-C , 19-C ) :   1.2137 B( 18-C , 21-H ) :   0.9918
B( 19-C , 20-C ) :   1.6173 B( 19-C , 22-C ) :   1.0245 B( 22-C , 23-H ) :   0.9444
B( 22-C , 24-H ) :   0.9359 B( 22-C , 25-C ) :   1.0786 B( 25-C , 26-H ) :   0.9538
B( 25-C , 27-H ) :   0.9504 B( 25-C , 28-C ) :   1.0763 B( 28-C , 29-H ) :   0.9733
B( 28-C , 30-H ) :   0.9696 B( 28-C , 31-H ) :   0.9726

Dispersion correction           -0.014815611
FINAL SINGLE POINT ENERGY     -1339.889476095476

DIPOLE MOMENT
-------------
                                X             Y             Z
Electronic contribution:    -28.90367      -6.76084       0.92912
Nuclear contribution   :     29.58755       6.88548      -1.17590
                        -----------------------------------------
Total Dipole Moment    :      0.68388       0.12464      -0.24678
                        -----------------------------------------
Magnitude (a.u.)       :      0.73765
Magnitude (Debye)      :      1.87496

Rotational constants in cm-1:     0.018063     0.009724     0.006899
Rotational constants in MHz :   541.502818   291.503938   206.831069

                             ****ORCA TERMINATED NORMALLY****
TOTAL RUN TIME: 0 days 0 hours 0 minutes 34 seconds 715 msec
