                         Program Version 4.2.1 -  RELEASE  -
|  1> ! wB97X-D3 SP def2-SVP
|  2> %pal
|  3> nprocs 16
|  4> end
|  5>
|  6> * xyz 0 1
|  7> S 	 54.6356 	 16.2351 	 50.8382
|  8> C 	 53.9995 	 17.7846 	 50.3044
|  9> C 	 53.2993 	 18.3991 	 51.3579
| 10> C 	 53.0397 	 17.5261 	 52.435
| 11> C 	 53.5898 	 16.2809 	 52.2466
| 12> H 	 52.5693 	 17.779 	 53.2968
| 13> C 	 52.7161 	 19.8063 	 51.2856
| 14> H 	 53.2934 	 20.3879 	 51.9863
| 15> H 	 51.6468 	 19.7112 	 51.5898
| 16> C 	 52.8989 	 20.5211 	 49.8882
| 17> H 	 53.9843 	 20.64 	 49.6455
| 18> H 	 52.4501 	 19.8875 	 49.1755
| 19> C 	 52.3601 	 21.9504 	 49.9042
| 20> H 	 51.3588 	 21.9592 	 50.347
| 21> H 	 52.8687 	 22.5589 	 50.6734
| 22> H 	 52.351 	 22.4801 	 48.935
| 23> S 	 55.1089 	 14.5283 	 53.6529
| 24> C 	 54.3715 	 13.629 	 54.9595
| 25> C 	 52.9526 	 13.7078 	 54.8752
| 26> C 	 52.5048 	 14.6861 	 53.916
| 27> C 	 53.5244 	 15.1178 	 53.1172
| 28> H 	 52.3316 	 13.1559 	 55.5738
| 29> C 	 51.0753 	 15.1984 	 53.7432
| 30> H 	 51.1808 	 16.2667 	 53.9898
| 31> H 	 50.351 	 14.7572 	 54.4784
| 32> C 	 50.4487 	 14.9302 	 52.4066
| 33> H 	 50.421 	 13.8627 	 52.357
| 34> H 	 51.1017 	 15.3225 	 51.5993
| 35> C 	 49.0347 	 15.4861 	 52.2255
| 36> H 	 49.1287 	 16.5984 	 52.2538
| 37> H 	 48.251 	 15.2096 	 52.9603
| 38> H 	 48.5904 	 15.2869 	 51.326
| 39> H 	 54.3775 	 18.3551 	 49.4964
| 40> H 	 54.8384 	 12.9658 	 55.6543
| 41> *
| 42>
| 43>                          ****END OF INPUT****

CARTESIAN COORDINATES (ANGSTROEM)
---------------------------------
  S     54.635600   16.235100   50.838200
  C     53.999500   17.784600   50.304400
  C     53.299300   18.399100   51.357900
  C     53.039700   17.526100   52.435000
  C     53.589800   16.280900   52.246600
  H     52.569300   17.779000   53.296800
  C     52.716100   19.806300   51.285600
  H     53.293400   20.387900   51.986300
  H     51.646800   19.711200   51.589800
  C     52.898900   20.521100   49.888200
  H     53.984300   20.640000   49.645500
  H     52.450100   19.887500   49.175500
  C     52.360100   21.950400   49.904200
  H     51.358800   21.959200   50.347000
  H     52.868700   22.558900   50.673400
  H     52.351000   22.480100   48.935000
  S     55.108900   14.528300   53.652900
  C     54.371500   13.629000   54.959500
  C     52.952600   13.707800   54.875200
  C     52.504800   14.686100   53.916000
  C     53.524400   15.117800   53.117200
  H     52.331600   13.155900   55.573800
  C     51.075300   15.198400   53.743200
  H     51.180800   16.266700   53.989800
  H     50.351000   14.757200   54.478400
  C     50.448700   14.930200   52.406600
  H     50.421000   13.862700   52.357000
  H     51.101700   15.322500   51.599300
  C     49.034700   15.486100   52.225500
  H     49.128700   16.598400   52.253800
  H     48.251000   15.209600   52.960300
  H     48.590400   15.286900   51.326000
  H     54.377500   18.355100   49.496400
  H     54.838400   12.965800   55.654300

 Total Charge           Charge          ....    0
 Multiplicity           Mult            ....    1
 Number of Electrons    NEL             ....  134
 Basis Dimension        Dim             ....  322

ORBITAL ENERGIES
----------------

  NO   OCC          E(Eh)            E(eV)
   0   2.0000     -88.968028     -2420.9431
   1   2.0000     -88.965054     -2420.8622
   2   2.0000     -10.329420      -281.0778
   3   2.0000     -10.323164      -280.9076
   4   2.0000     -10.322370      -280.8860
   5   2.0000     -10.309240      -280.5287
   6   2.0000     -10.305945      -280.4390
   7   2.0000     -10.301738      -280.3245
   8   2.0000     -10.301412      -280.3157
   9   2.0000     -10.298611      -280.2395
  10   2.0000     -10.295123      -280.1445
  11   2.0000     -10.291486      -280.0456
  12   2.0000     -10.285405      -279.8801
  13   2.0000     -10.282870      -279.8111
  14   2.0000     -10.281383      -279.7707
  15   2.0000     -10.274021      -279.5703
  16   2.0000      -8.082297      -219.9305
  17   2.0000      -8.079586      -219.8567
  18   2.0000      -6.040892      -164.3810
  19   2.0000      -6.038047      -164.3036
  20   2.0000      -6.036828      -164.2704
  21   2.0000      -6.034260      -164.2006
  22   2.0000      -6.033026      -164.1670
  23   2.0000      -6.030296      -164.0927
  24   2.0000      -1.007911       -27.4267
  25   2.0000      -0.981346       -26.7038
  26   2.0000      -0.912510       -24.8307
  27   2.0000      -0.909065       -24.7369
  28   2.0000      -0.865680       -23.5564
  29   2.0000      -0.856403       -23.3039
  30   2.0000      -0.847590       -23.0641
  31   2.0000      -0.813016       -22.1233
  32   2.0000      -0.784283       -21.3414
  33   2.0000      -0.768345       -20.9077
  34   2.0000      -0.714803       -19.4508
  35   2.0000      -0.702714       -19.1218
  36   2.0000      -0.688136       -18.7251
  37   2.0000      -0.667240       -18.1565
  38   2.0000      -0.643906       -17.5216
  39   2.0000      -0.617412       -16.8006
  40   2.0000      -0.591751       -16.1023
  41   2.0000      -0.574682       -15.6379
  42   2.0000      -0.571554       -15.5528
  43   2.0000      -0.561389       -15.2762
  44   2.0000      -0.526349       -14.3227
  45   2.0000      -0.521321       -14.1859
  46   2.0000      -0.518977       -14.1221
  47   2.0000      -0.516366       -14.0510
  48   2.0000      -0.505906       -13.7664
  49   2.0000      -0.497129       -13.5276
  50   2.0000      -0.489822       -13.3287
  51   2.0000      -0.484655       -13.1881
  52   2.0000      -0.481266       -13.0959
  53   2.0000      -0.464211       -12.6318
  54   2.0000      -0.454693       -12.3728
  55   2.0000      -0.449969       -12.2443
  56   2.0000      -0.447933       -12.1889
  57   2.0000      -0.434043       -11.8109
  58   2.0000      -0.429812       -11.6958
  59   2.0000      -0.425272       -11.5722
  60   2.0000      -0.422612       -11.4998
  61   2.0000      -0.417297       -11.3552
  62   2.0000      -0.414404       -11.2765
  63   2.0000      -0.347472        -9.4552
  64   2.0000      -0.333441        -9.0734
  65   2.0000      -0.329700        -8.9716
  66   2.0000      -0.287263        -7.8168
  67   0.0000       0.025651         0.6980
  68   0.0000       0.063168         1.7189
  69   0.0000       0.103237         2.8092
  70   0.0000       0.118843         3.2339
  71   0.0000       0.132829         3.6145

MULLIKEN ATOMIC CHARGES
-----------------------
   0 S :    0.102785
   1 C :   -0.098005
   2 C :   -0.113970
   3 C :    0.051249
   4 C :   -0.144151
   5 H :   -0.029424
   6 C :    0.044427
   7 H :    0.034386
   8 H :    0.047982
   9 C :   -0.106574
  10 H :    0.044589
  11 H :    0.033839
  12 C :   -0.034062
  13 H :    0.017924
  14 H :    0.023711
  15 H :    0.050405
  16 S :    0.104268
  17 C :   -0.088520
  18 C :   -0.038775
  19 C :   -0.061962
  20 C :   -0.107557
  21 H :    0.020109
  22 C :    0.055374
  23 H :    0.025775
  24 H :    0.020234
  25 C :   -0.064545
  26 H :    0.024676
  27 H :    0.053832
  28 C :   -0.025648
  29 H :    0.022702
  30 H :    0.028973
  31 H :    0.014067
  32 H :    0.038343
  33 H :    0.053548
Sum of atomic charges:    0.0000000

LOEWDIN ATOMIC CHARGES
----------------------
   0 S :    0.397159
   1 C :   -0.204444
   2 C :   -0.054607
   3 C :   -0.057983
   4 C :   -0.179094
   5 H :    0.013732
   6 C :   -0.028977
   7 H :    0.032104
   8 H :    0.037131
   9 C :   -0.041192
  10 H :    0.029909
  11 H :    0.017050
  12 C :   -0.072036
  13 H :    0.023608
  14 H :    0.027431
  15 H :    0.031344
  16 S :    0.401831
  17 C :   -0.182336
  18 C :   -0.067477
  19 C :   -0.051688
  20 C :   -0.197227
  21 H :    0.030029
  22 C :   -0.033680
  23 H :    0.028821
  24 H :    0.033492
  25 C :   -0.039820
  26 H :    0.022420
  27 H :    0.033166
  28 C :   -0.064150
  29 H :    0.028998
  30 H :    0.027343
  31 H :    0.014096
  32 H :    0.018734
  33 H :    0.026312

  Mayer bond orders larger than 0.100000
B(  0-S ,  1-C ) :   1.1235 B(  0-S ,  4-C ) :   1.1533 B(  1-C ,  2-C ) :   1.6174
B(  1-C ,  4-C ) :   0.1016 B(  1-C , 32-H ) :   0.9592 B(  2-C ,  3-C ) :   1.2506
B(  2-C ,  6-C ) :   1.0097 B(  3-C ,  4-C ) :   1.5534 B(  3-C ,  5-H ) :   1.0165
B(  4-C , 20-C ) :   1.0161 B(  6-C ,  7-H ) :   0.9292 B(  6-C ,  8-H ) :   0.9472
B(  6-C ,  9-C ) :   1.0824 B(  9-C , 10-H ) :   0.9511 B(  9-C , 11-H ) :   0.9537
B(  9-C , 12-C ) :   1.0813 B( 12-C , 13-H ) :   0.9713 B( 12-C , 14-H ) :   0.9714
B( 12-C , 15-H ) :   0.9732 B( 16-S , 17-C ) :   1.1661 B( 16-S , 20-C ) :   1.1244
B( 17-C , 18-C ) :   1.5991 B( 17-C , 20-C ) :   0.1012 B( 17-C , 33-H ) :   0.9687
B( 18-C , 19-C ) :   1.2365 B( 18-C , 21-H ) :   0.9884 B( 19-C , 20-C ) :   1.6217
B( 19-C , 22-C ) :   1.0317 B( 22-C , 23-H ) :   0.9281 B( 22-C , 24-H ) :   0.9360
B( 22-C , 25-C ) :   1.0670 B( 25-C , 26-H ) :   0.9529 B( 25-C , 27-H ) :   0.9507
B( 25-C , 28-C ) :   1.0883 B( 28-C , 29-H ) :   0.9727 B( 28-C , 30-H ) :   0.9727
B( 28-C , 31-H ) :   0.9727

Dispersion correction           -0.014309307
FINAL SINGLE POINT ENERGY     -1339.870412370577

DIPOLE MOMENT
-------------
                                X             Y             Z
Electronic contribution:     22.61961     -18.79887       5.69758
Nuclear contribution   :    -23.12178      19.20498      -5.41386
                        -----------------------------------------
Total Dipole Moment    :     -0.50217       0.40610       0.28372
                        -----------------------------------------
Magnitude (a.u.)       :      0.70540
Magnitude (Debye)      :      1.79299

Rotational constants in cm-1:     0.020414     0.008222     0.006539
Rotational constants in MHz :   611.998038   246.485479   196.041241

                             ****ORCA TERMINATED NORMALLY****
TOTAL RUN TIME: 0 days 0 hours 0 minutes 28 seconds 776 msec
