                         Program Version 4.2.1 -  RELEASE  -
|  1> ! wB97X-D3 SP def2-SVP
|  2> %pal
|  3> nprocs 16
|  4> end
|  5>
|  6> * xyz 0 1
|  7> S 	 43.7556 	 14.7868 	 50.3883
|  8> C 	 44.7072 	 14.7098 	 51.8901
|  9> C 	 44.6655 	 13.4251 	 52.4123
| 10> C 	 43.7445 	 12.6047 	 51.7604
| 11> C 	 43.235 	 13.0997 	 50.5945
| 12> H 	 43.4244 	 11.6484 	 52.0402
| 13> C 	 45.3369 	 12.9368 	 53.7221
| 14> H 	 46.3672 	 13.1272 	 53.5734
| 15> H 	 45.1355 	 11.8219 	 53.7581
| 16> C 	 44.8002 	 13.5505 	 55.0202
| 17> H 	 45.2321 	 14.5718 	 55.2255
| 18> H 	 43.76 	 13.8636 	 54.792
| 19> C 	 44.8478 	 12.74 	 56.267
| 20> H 	 44.6151 	 11.6913 	 56.075
| 21> H 	 45.9444 	 12.7528 	 56.4779
| 22> H 	 44.3134 	 13.1483 	 57.146
| 23> S 	 40.6323 	 13.0905 	 49.439
| 24> C 	 40.3456 	 11.9296 	 48.1888
| 25> C 	 41.4342 	 11.2089 	 47.8867
| 26> C 	 42.5897 	 11.4306 	 48.699
| 27> C 	 42.313 	 12.4445 	 49.6262
| 28> H 	 41.4007 	 10.3921 	 47.2143
| 29> C 	 43.9292 	 10.5922 	 48.6479
| 30> H 	 44.7936 	 11.2827 	 48.7061
| 31> H 	 44.1075 	 10.1866 	 47.6103
| 32> C 	 44.075 	 9.42866 	 49.6625
| 33> H 	 44.2862 	 9.83326 	 50.6656
| 34> H 	 44.8396 	 8.86365 	 49.3437
| 35> C 	 42.9184 	 8.43256 	 49.8226
| 36> H 	 43.255 	 7.79423 	 50.64
| 37> H 	 42.6847 	 7.70046 	 49.0369
| 38> H 	 41.9688 	 8.9092 	 50.153
| 39> H 	 45.3209 	 15.5193 	 52.2396
| 40> H 	 39.4074 	 11.9333 	 47.7062
| 41> *
| 42>
| 43>                          ****END OF INPUT****

CARTESIAN COORDINATES (ANGSTROEM)
---------------------------------
  S     43.755600   14.786800   50.388300
  C     44.707200   14.709800   51.890100
  C     44.665500   13.425100   52.412300
  C     43.744500   12.604700   51.760400
  C     43.235000   13.099700   50.594500
  H     43.424400   11.648400   52.040200
  C     45.336900   12.936800   53.722100
  H     46.367200   13.127200   53.573400
  H     45.135500   11.821900   53.758100
  C     44.800200   13.550500   55.020200
  H     45.232100   14.571800   55.225500
  H     43.760000   13.863600   54.792000
  C     44.847800   12.740000   56.267000
  H     44.615100   11.691300   56.075000
  H     45.944400   12.752800   56.477900
  H     44.313400   13.148300   57.146000
  S     40.632300   13.090500   49.439000
  C     40.345600   11.929600   48.188800
  C     41.434200   11.208900   47.886700
  C     42.589700   11.430600   48.699000
  C     42.313000   12.444500   49.626200
  H     41.400700   10.392100   47.214300
  C     43.929200   10.592200   48.647900
  H     44.793600   11.282700   48.706100
  H     44.107500   10.186600   47.610300
  C     44.075000    9.428660   49.662500
  H     44.286200    9.833260   50.665600
  H     44.839600    8.863650   49.343700
  C     42.918400    8.432560   49.822600
  H     43.255000    7.794230   50.640000
  H     42.684700    7.700460   49.036900
  H     41.968800    8.909200   50.153000
  H     45.320900   15.519300   52.239600
  H     39.407400   11.933300   47.706200

 Total Charge           Charge          ....    0
 Multiplicity           Mult            ....    1
 Number of Electrons    NEL             ....  134
 Basis Dimension        Dim             ....  322

ORBITAL ENERGIES
----------------

  NO   OCC          E(Eh)            E(eV)
   0   2.0000     -88.964221     -2420.8395
   1   2.0000     -88.963707     -2420.8255
   2   2.0000     -10.332006      -281.1482
   3   2.0000     -10.328376      -281.0494
   4   2.0000     -10.316515      -280.7267
   5   2.0000     -10.311827      -280.5991
   6   2.0000     -10.310575      -280.5650
   7   2.0000     -10.303658      -280.3768
   8   2.0000     -10.300255      -280.2842
   9   2.0000     -10.296588      -280.1844
  10   2.0000     -10.287548      -279.9384
  11   2.0000     -10.286658      -279.9142
  12   2.0000     -10.285357      -279.8788
  13   2.0000     -10.283493      -279.8281
  14   2.0000     -10.281225      -279.7664
  15   2.0000     -10.278752      -279.6991
  16   2.0000      -8.078372      -219.8237
  17   2.0000      -8.078090      -219.8160
  18   2.0000      -6.036798      -164.2696
  19   2.0000      -6.036605      -164.2644
  20   2.0000      -6.032982      -164.1658
  21   2.0000      -6.032684      -164.1577
  22   2.0000      -6.029132      -164.0610
  23   2.0000      -6.028924      -164.0554
  24   2.0000      -1.000716       -27.2309
  25   2.0000      -0.982699       -26.7406
  26   2.0000      -0.910085       -24.7647
  27   2.0000      -0.903232       -24.5782
  28   2.0000      -0.866033       -23.5659
  29   2.0000      -0.850544       -23.1445
  30   2.0000      -0.846774       -23.0419
  31   2.0000      -0.815090       -22.1797
  32   2.0000      -0.786095       -21.3907
  33   2.0000      -0.772235       -21.0136
  34   2.0000      -0.705420       -19.1954
  35   2.0000      -0.696116       -18.9423
  36   2.0000      -0.689669       -18.7668
  37   2.0000      -0.658365       -17.9150
  38   2.0000      -0.647646       -17.6233
  39   2.0000      -0.616833       -16.7849
  40   2.0000      -0.597643       -16.2627
  41   2.0000      -0.567570       -15.4444
  42   2.0000      -0.563958       -15.3461
  43   2.0000      -0.557530       -15.1712
  44   2.0000      -0.540372       -14.7043
  45   2.0000      -0.526761       -14.3339
  46   2.0000      -0.518979       -14.1221
  47   2.0000      -0.507082       -13.7984
  48   2.0000      -0.499700       -13.5975
  49   2.0000      -0.492872       -13.4117
  50   2.0000      -0.486993       -13.2518
  51   2.0000      -0.479073       -13.0362
  52   2.0000      -0.476036       -12.9536
  53   2.0000      -0.467927       -12.7329
  54   2.0000      -0.454103       -12.3568
  55   2.0000      -0.451309       -12.2807
  56   2.0000      -0.443032       -12.0555
  57   2.0000      -0.435844       -11.8599
  58   2.0000      -0.433185       -11.7876
  59   2.0000      -0.421863       -11.4795
  60   2.0000      -0.420101       -11.4315
  61   2.0000      -0.417839       -11.3700
  62   2.0000      -0.397869       -10.8266
  63   2.0000      -0.338888        -9.2216
  64   2.0000      -0.332361        -9.0440
  65   2.0000      -0.329124        -8.9559
  66   2.0000      -0.303245        -8.2517
  67   0.0000       0.035955         0.9784
  68   0.0000       0.058141         1.5821
  69   0.0000       0.113006         3.0751
  70   0.0000       0.121256         3.2996
  71   0.0000       0.132698         3.6109

MULLIKEN ATOMIC CHARGES
-----------------------
   0 S :    0.102931
   1 C :   -0.130311
   2 C :   -0.087497
   3 C :    0.054477
   4 C :   -0.157729
   5 H :   -0.010236
   6 C :    0.085185
   7 H :    0.029504
   8 H :    0.026165
   9 C :   -0.089954
  10 H :    0.025619
  11 H :    0.027515
  12 C :   -0.049129
  13 H :    0.030702
  14 H :    0.027792
  15 H :    0.051715
  16 S :    0.098610
  17 C :   -0.071851
  18 C :   -0.000387
  19 C :   -0.023041
  20 C :   -0.201382
  21 H :    0.001398
  22 C :    0.057114
  23 H :    0.040824
  24 H :    0.023052
  25 C :   -0.009891
  26 H :    0.027083
  27 H :    0.004747
  28 C :   -0.086805
  29 H :    0.026574
  30 H :    0.034582
  31 H :    0.047364
  32 H :    0.048200
  33 H :    0.047058
Sum of atomic charges:   -0.0000000

LOEWDIN ATOMIC CHARGES
----------------------
   0 S :    0.384463
   1 C :   -0.183509
   2 C :   -0.064137
   3 C :   -0.060051
   4 C :   -0.182512
   5 H :    0.022025
   6 C :   -0.024667
   7 H :    0.025707
   8 H :    0.035248
   9 C :   -0.057890
  10 H :    0.026807
  11 H :    0.022943
  12 C :   -0.070233
  13 H :    0.022855
  14 H :    0.030643
  15 H :    0.034646
  16 S :    0.386066
  17 C :   -0.173907
  18 C :   -0.072222
  19 C :   -0.045171
  20 C :   -0.186656
  21 H :    0.025132
  22 C :   -0.033125
  23 H :    0.037949
  24 H :    0.033572
  25 C :   -0.029680
  26 H :    0.026869
  27 H :    0.011979
  28 C :   -0.073825
  29 H :    0.029157
  30 H :    0.024447
  31 H :    0.029010
  32 H :    0.025862
  33 H :    0.022206

  Mayer bond orders larger than 0.100000
B(  0-S ,  1-C ) :   1.1415 B(  0-S ,  4-C ) :   1.1467 B(  1-C ,  2-C ) :   1.5955
B(  1-C ,  4-C ) :   0.1035 B(  1-C , 32-H ) :   0.9756 B(  2-C ,  3-C ) :   1.2423
B(  2-C ,  6-C ) :   1.0201 B(  3-C ,  4-C ) :   1.6023 B(  3-C ,  5-H ) :   0.9951
B(  4-C , 20-C ) :   1.0151 B(  6-C ,  7-H ) :   0.9322 B(  6-C ,  8-H ) :   0.9472
B(  6-C ,  9-C ) :   1.0502 B(  9-C , 10-H ) :   0.9476 B(  9-C , 11-H ) :   0.9595
B(  9-C , 12-C ) :   1.0864 B( 12-C , 13-H ) :   0.9744 B( 12-C , 14-H ) :   0.9747
B( 12-C , 15-H ) :   0.9712 B( 16-S , 17-C ) :   1.1484 B( 16-S , 20-C ) :   1.1415
B( 17-C , 18-C ) :   1.6175 B( 17-C , 33-H ) :   0.9733 B( 18-C , 19-C ) :   1.2420
B( 18-C , 21-H ) :   0.9923 B( 19-C , 20-C ) :   1.6089 B( 19-C , 22-C ) :   1.0269
B( 22-C , 23-H ) :   0.9341 B( 22-C , 24-H ) :   0.9411 B( 22-C , 25-C ) :   1.0737
B( 25-C , 26-H ) :   0.9528 B( 25-C , 27-H ) :   0.9489 B( 25-C , 28-C ) :   1.0833
B( 28-C , 29-H ) :   0.9714 B( 28-C , 30-H ) :   0.9761 B( 28-C , 31-H ) :   0.9721

Dispersion correction           -0.014645473
FINAL SINGLE POINT ENERGY     -1339.870456924351

DIPOLE MOMENT
-------------
                                X             Y             Z
Electronic contribution:    -12.26972      17.88538     -16.93005
Nuclear contribution   :     12.58883     -18.43682      17.12004
                        -----------------------------------------
Total Dipole Moment    :      0.31911      -0.55144       0.18999
                        -----------------------------------------
Magnitude (a.u.)       :      0.66484
Magnitude (Debye)      :      1.68989

Rotational constants in cm-1:     0.019087     0.008146     0.006741
Rotational constants in MHz :   572.220613   244.215887   202.078652

                             ****ORCA TERMINATED NORMALLY****
TOTAL RUN TIME: 0 days 0 hours 0 minutes 35 seconds 2 msec
