                         Program Version 4.2.1 -  RELEASE  -
|  1> ! wB97X-D3 SP def2-SVP
|  2> %pal
|  3> nprocs 16
|  4> end
|  5>
|  6> * xyz 0 1
|  7> S 	 64.9854 	 18.1142 	 73.2639
|  8> C 	 65.4389 	 17.1188 	 71.9199
|  9> C 	 66.6839 	 16.536 	 72.1223
| 10> C 	 67.1847 	 16.7206 	 73.4609
| 11> C 	 66.4729 	 17.633 	 74.2112
| 12> H 	 68.0888 	 16.2817 	 73.7676
| 13> C 	 67.2484 	 15.5146 	 71.1115
| 14> H 	 67.0355 	 15.8573 	 70.1148
| 15> H 	 66.6453 	 14.618 	 71.2495
| 16> C 	 68.7502 	 15.2165 	 71.2759
| 17> H 	 68.8003 	 14.5992 	 72.154
| 18> H 	 68.9517 	 14.5954 	 70.3939
| 19> C 	 69.8236 	 16.4112 	 71.3088
| 20> H 	 70.7765 	 15.9794 	 71.2622
| 21> H 	 69.6156 	 17.1566 	 70.4916
| 22> H 	 69.7909 	 17.0207 	 72.2014
| 23> S 	 65.2316 	 17.4807 	 76.5907
| 24> C 	 65.986 	 18.1266 	 78.1019
| 25> C 	 67.2973 	 18.5475 	 77.8177
| 26> C 	 67.6325 	 18.4093 	 76.4149
| 27> C 	 66.5895 	 18.0585 	 75.614
| 28> H 	 67.769 	 18.971 	 78.682
| 29> C 	 69.0535 	 18.7359 	 75.9955
| 30> H 	 69.3929 	 19.5547 	 76.6864
| 31> H 	 69.0101 	 19.2276 	 75.0342
| 32> C 	 70.0827 	 17.5718 	 75.9231
| 33> H 	 69.7119 	 16.6681 	 75.4868
| 34> H 	 70.1344 	 17.2082 	 76.8743
| 35> C 	 71.5127 	 17.9034 	 75.4505
| 36> H 	 72.3351 	 17.2921 	 75.9039
| 37> H 	 71.7327 	 18.8819 	 75.7744
| 38> H 	 71.5797 	 17.8168 	 74.4105
| 39> H 	 64.8838 	 16.8638 	 71.0436
| 40> H 	 65.4729 	 18.2927 	 79.032
| 41> *
| 42>
| 43>                          ****END OF INPUT****

CARTESIAN COORDINATES (ANGSTROEM)
---------------------------------
  S     64.985400   18.114200   73.263900
  C     65.438900   17.118800   71.919900
  C     66.683900   16.536000   72.122300
  C     67.184700   16.720600   73.460900
  C     66.472900   17.633000   74.211200
  H     68.088800   16.281700   73.767600
  C     67.248400   15.514600   71.111500
  H     67.035500   15.857300   70.114800
  H     66.645300   14.618000   71.249500
  C     68.750200   15.216500   71.275900
  H     68.800300   14.599200   72.154000
  H     68.951700   14.595400   70.393900
  C     69.823600   16.411200   71.308800
  H     70.776500   15.979400   71.262200
  H     69.615600   17.156600   70.491600
  H     69.790900   17.020700   72.201400
  S     65.231600   17.480700   76.590700
  C     65.986000   18.126600   78.101900
  C     67.297300   18.547500   77.817700
  C     67.632500   18.409300   76.414900
  C     66.589500   18.058500   75.614000
  H     67.769000   18.971000   78.682000
  C     69.053500   18.735900   75.995500
  H     69.392900   19.554700   76.686400
  H     69.010100   19.227600   75.034200
  C     70.082700   17.571800   75.923100
  H     69.711900   16.668100   75.486800
  H     70.134400   17.208200   76.874300
  C     71.512700   17.903400   75.450500
  H     72.335100   17.292100   75.903900
  H     71.732700   18.881900   75.774400
  H     71.579700   17.816800   74.410500
  H     64.883800   16.863800   71.043600
  H     65.472900   18.292700   79.032000

 Total Charge           Charge          ....    0
 Multiplicity           Mult            ....    1
 Number of Electrons    NEL             ....  134
 Basis Dimension        Dim             ....  322

ORBITAL ENERGIES
----------------

  NO   OCC          E(Eh)            E(eV)
   0   2.0000     -88.964659     -2420.8514
   1   2.0000     -88.961244     -2420.7585
   2   2.0000     -10.336663      -281.2749
   3   2.0000     -10.329140      -281.0702
   4   2.0000     -10.322986      -280.9027
   5   2.0000     -10.310968      -280.5757
   6   2.0000     -10.308989      -280.5219
   7   2.0000     -10.299003      -280.2501
   8   2.0000     -10.298894      -280.2471
   9   2.0000     -10.295983      -280.1679
  10   2.0000     -10.295224      -280.1473
  11   2.0000     -10.292936      -280.0850
  12   2.0000     -10.292407      -280.0706
  13   2.0000     -10.284383      -279.8523
  14   2.0000     -10.278966      -279.7049
  15   2.0000     -10.275860      -279.6204
  16   2.0000      -8.078395      -219.8243
  17   2.0000      -8.075042      -219.7331
  18   2.0000      -6.037008      -164.2753
  19   2.0000      -6.033822      -164.1886
  20   2.0000      -6.032974      -164.1656
  21   2.0000      -6.029680      -164.0759
  22   2.0000      -6.029152      -164.0616
  23   2.0000      -6.025522      -163.9628
  24   2.0000      -0.999364       -27.1941
  25   2.0000      -0.976471       -26.5711
  26   2.0000      -0.905903       -24.6509
  27   2.0000      -0.902654       -24.5625
  28   2.0000      -0.867657       -23.6101
  29   2.0000      -0.850040       -23.1308
  30   2.0000      -0.837834       -22.7986
  31   2.0000      -0.819606       -22.3026
  32   2.0000      -0.783319       -21.3152
  33   2.0000      -0.774430       -21.0733
  34   2.0000      -0.716998       -19.5105
  35   2.0000      -0.706935       -19.2367
  36   2.0000      -0.689704       -18.7678
  37   2.0000      -0.664294       -18.0764
  38   2.0000      -0.638888       -17.3850
  39   2.0000      -0.626819       -17.0566
  40   2.0000      -0.590341       -16.0640
  41   2.0000      -0.567494       -15.4423
  42   2.0000      -0.560430       -15.2501
  43   2.0000      -0.553991       -15.0749
  44   2.0000      -0.534373       -14.5410
  45   2.0000      -0.521786       -14.1985
  46   2.0000      -0.519092       -14.1252
  47   2.0000      -0.515773       -14.0349
  48   2.0000      -0.506142       -13.7728
  49   2.0000      -0.499529       -13.5929
  50   2.0000      -0.491839       -13.3836
  51   2.0000      -0.485329       -13.2065
  52   2.0000      -0.475354       -12.9351
  53   2.0000      -0.461637       -12.5618
  54   2.0000      -0.457263       -12.4428
  55   2.0000      -0.443683       -12.0732
  56   2.0000      -0.440556       -11.9881
  57   2.0000      -0.439125       -11.9492
  58   2.0000      -0.436638       -11.8815
  59   2.0000      -0.426871       -11.6157
  60   2.0000      -0.421506       -11.4697
  61   2.0000      -0.411065       -11.1856
  62   2.0000      -0.407827       -11.0975
  63   2.0000      -0.346779        -9.4363
  64   2.0000      -0.325847        -8.8667
  65   2.0000      -0.325522        -8.8579
  66   2.0000      -0.297542        -8.0965
  67   0.0000       0.024089         0.6555
  68   0.0000       0.065983         1.7955
  69   0.0000       0.106133         2.8880
  70   0.0000       0.120223         3.2714
  71   0.0000       0.123559         3.3622

MULLIKEN ATOMIC CHARGES
-----------------------
   0 S :    0.103577
   1 C :   -0.098513
   2 C :   -0.130052
   3 C :    0.076635
   4 C :   -0.155979
   5 H :   -0.015510
   6 C :    0.059116
   7 H :    0.017180
   8 H :    0.047537
   9 C :   -0.100964
  10 H :    0.032209
  11 H :    0.035007
  12 C :   -0.038355
  13 H :    0.034315
  14 H :    0.042920
  15 H :    0.028607
  16 S :    0.081562
  17 C :   -0.102835
  18 C :   -0.034857
  19 C :   -0.043515
  20 C :   -0.106072
  21 H :    0.022650
  22 C :    0.048889
  23 H :    0.028151
  24 H :    0.024060
  25 C :   -0.013189
  26 H :    0.007206
  27 H :   -0.011785
  28 C :   -0.016651
  29 H :    0.036844
  30 H :    0.015293
  31 H :    0.027708
  32 H :    0.038792
  33 H :    0.060017
Sum of atomic charges:   -0.0000000

LOEWDIN ATOMIC CHARGES
----------------------
   0 S :    0.383805
   1 C :   -0.197915
   2 C :   -0.067773
   3 C :   -0.048616
   4 C :   -0.173677
   5 H :    0.020377
   6 C :   -0.031898
   7 H :    0.023615
   8 H :    0.038035
   9 C :   -0.042970
  10 H :    0.019773
  11 H :    0.029980
  12 C :   -0.061457
  13 H :    0.021021
  14 H :    0.035567
  15 H :    0.021386
  16 S :    0.374226
  17 C :   -0.162432
  18 C :   -0.069262
  19 C :   -0.055575
  20 C :   -0.190062
  21 H :    0.033243
  22 C :   -0.030340
  23 H :    0.035681
  24 H :    0.026973
  25 C :   -0.039113
  26 H :    0.020083
  27 H :    0.013788
  28 C :   -0.054636
  29 H :    0.035728
  30 H :    0.020133
  31 H :    0.017104
  32 H :    0.027607
  33 H :    0.027599

  Mayer bond orders larger than 0.100000
B(  0-S ,  1-C ) :   1.1457 B(  0-S ,  4-C ) :   1.1275 B(  1-C ,  2-C ) :   1.6186
B(  1-C , 32-H ) :   0.9685 B(  2-C ,  3-C ) :   1.2423 B(  2-C ,  6-C ) :   1.0095
B(  3-C ,  4-C ) :   1.5845 B(  3-C ,  5-H ) :   0.9925 B(  4-C , 20-C ) :   1.0095
B(  6-C ,  7-H ) :   0.9407 B(  6-C ,  8-H ) :   0.9429 B(  6-C ,  9-C ) :   1.0800
B(  9-C , 10-H ) :   0.9522 B(  9-C , 11-H ) :   0.9575 B(  9-C , 12-C ) :   1.0651
B( 12-C , 13-H ) :   0.9770 B( 12-C , 14-H ) :   0.9752 B( 12-C , 15-H ) :   0.9747
B( 16-S , 17-C ) :   1.1389 B( 16-S , 20-C ) :   1.1243 B( 17-C , 18-C ) :   1.6404
B( 17-C , 33-H ) :   0.9675 B( 18-C , 19-C ) :   1.1845 B( 18-C , 21-H ) :   0.9960
B( 19-C , 20-C ) :   1.6508 B( 19-C , 22-C ) :   1.0448 B( 22-C , 23-H ) :   0.9359
B( 22-C , 24-H ) :   0.9397 B( 22-C , 25-C ) :   1.0515 B( 25-C , 26-H ) :   0.9517
B( 25-C , 27-H ) :   0.9387 B( 25-C , 28-C ) :   1.0768 B( 28-C , 29-H ) :   0.9741
B( 28-C , 30-H ) :   0.9726 B( 28-C , 31-H ) :   0.9800

Dispersion correction           -0.014957297
FINAL SINGLE POINT ENERGY     -1339.853715865475

DIPOLE MOMENT
-------------
                                X             Y             Z
Electronic contribution:    -29.19845       6.05239       9.07397
Nuclear contribution   :     29.86835      -6.34738      -9.11681
                        -----------------------------------------
Total Dipole Moment    :      0.66989      -0.29499      -0.04284
                        -----------------------------------------
Magnitude (a.u.)       :      0.73322
Magnitude (Debye)      :      1.86370

Rotational constants in cm-1:     0.016008     0.010825     0.007008
Rotational constants in MHz :   479.899323   324.513554   210.084792

                             ****ORCA TERMINATED NORMALLY****
TOTAL RUN TIME: 0 days 0 hours 0 minutes 31 seconds 145 msec
