                         Program Version 4.2.1 -  RELEASE  -
|  1> ! wB97X-D3 SP def2-SVP
|  2> %pal
|  3> nprocs 16
|  4> end
|  5>
|  6> * xyz 0 1
|  7> S 	 62.4913 	 18.5549 	 79.1879
|  8> C 	 62.1252 	 19.9694 	 80.1668
|  9> C 	 61.149 	 19.6464 	 81.0987
| 10> C 	 60.7516 	 18.2653 	 81.0346
| 11> C 	 61.3819 	 17.5584 	 80.0028
| 12> H 	 60.1284 	 17.7948 	 81.8097
| 13> C 	 60.7176 	 20.6168 	 82.2242
| 14> H 	 61.6174 	 21.1697 	 82.5242
| 15> H 	 60.3964 	 20.0961 	 83.1205
| 16> C 	 59.73 	 21.7349 	 81.7438
| 17> H 	 60.3193 	 22.2189 	 80.9437
| 18> H 	 58.9036 	 21.0825 	 81.4115
| 19> C 	 59.2628 	 22.7875 	 82.7568
| 20> H 	 58.6263 	 23.4996 	 82.2812
| 21> H 	 58.709 	 22.2355 	 83.5759
| 22> H 	 60.0794 	 23.3912 	 83.2337
| 23> S 	 62.7538 	 15.1938 	 79.838
| 24> C 	 61.9286 	 13.7382 	 79.2378
| 25> C 	 60.5407 	 13.9838 	 79.0663
| 26> C 	 60.1962 	 15.3062 	 79.4031
| 27> C 	 61.3149 	 16.127 	 79.7098
| 28> H 	 59.9137 	 13.1937 	 78.6328
| 29> C 	 58.7106 	 15.6902 	 79.1282
| 30> H 	 58.5539 	 15.5757 	 78.0579
| 31> H 	 58.479 	 16.7483 	 79.2604
| 32> C 	 57.6223 	 14.947 	 79.9974
| 33> H 	 57.7982 	 15.3478 	 80.9694
| 34> H 	 57.7519 	 13.8607 	 80.0853
| 35> C 	 56.1975 	 15.3282 	 79.6555
| 36> H 	 56.1005 	 16.4513 	 79.5855
| 37> H 	 55.512 	 14.9871 	 80.3966
| 38> H 	 56.0011 	 14.9763 	 78.6355
| 39> H 	 62.5678 	 21.0067 	 80.0112
| 40> H 	 62.4354 	 12.8293 	 79.0072
| 41> *
| 42>
| 43>                          ****END OF INPUT****

CARTESIAN COORDINATES (ANGSTROEM)
---------------------------------
  S     62.491300   18.554900   79.187900
  C     62.125200   19.969400   80.166800
  C     61.149000   19.646400   81.098700
  C     60.751600   18.265300   81.034600
  C     61.381900   17.558400   80.002800
  H     60.128400   17.794800   81.809700
  C     60.717600   20.616800   82.224200
  H     61.617400   21.169700   82.524200
  H     60.396400   20.096100   83.120500
  C     59.730000   21.734900   81.743800
  H     60.319300   22.218900   80.943700
  H     58.903600   21.082500   81.411500
  C     59.262800   22.787500   82.756800
  H     58.626300   23.499600   82.281200
  H     58.709000   22.235500   83.575900
  H     60.079400   23.391200   83.233700
  S     62.753800   15.193800   79.838000
  C     61.928600   13.738200   79.237800
  C     60.540700   13.983800   79.066300
  C     60.196200   15.306200   79.403100
  C     61.314900   16.127000   79.709800
  H     59.913700   13.193700   78.632800
  C     58.710600   15.690200   79.128200
  H     58.553900   15.575700   78.057900
  H     58.479000   16.748300   79.260400
  C     57.622300   14.947000   79.997400
  H     57.798200   15.347800   80.969400
  H     57.751900   13.860700   80.085300
  C     56.197500   15.328200   79.655500
  H     56.100500   16.451300   79.585500
  H     55.512000   14.987100   80.396600
  H     56.001100   14.976300   78.635500
  H     62.567800   21.006700   80.011200
  H     62.435400   12.829300   79.007200

 Total Charge           Charge          ....    0
 Multiplicity           Mult            ....    1
 Number of Electrons    NEL             ....  134
 Basis Dimension        Dim             ....  322

ORBITAL ENERGIES
----------------

  NO   OCC          E(Eh)            E(eV)
   0   2.0000     -88.969833     -2420.9922
   1   2.0000     -88.968081     -2420.9446
   2   2.0000     -10.330100      -281.0963
   3   2.0000     -10.329486      -281.0796
   4   2.0000     -10.320798      -280.8432
   5   2.0000     -10.320592      -280.8376
   6   2.0000     -10.308537      -280.5096
   7   2.0000     -10.304878      -280.4100
   8   2.0000     -10.298738      -280.2429
   9   2.0000     -10.298272      -280.2302
  10   2.0000     -10.294534      -280.1285
  11   2.0000     -10.293136      -280.0905
  12   2.0000     -10.291096      -280.0350
  13   2.0000     -10.286333      -279.9054
  14   2.0000     -10.284868      -279.8655
  15   2.0000     -10.279879      -279.7297
  16   2.0000      -8.084364      -219.9867
  17   2.0000      -8.083384      -219.9601
  18   2.0000      -6.042743      -164.4314
  19   2.0000      -6.041849      -164.4071
  20   2.0000      -6.038811      -164.3244
  21   2.0000      -6.037553      -164.2902
  22   2.0000      -6.035351      -164.2303
  23   2.0000      -6.034403      -164.2044
  24   2.0000      -1.008078       -27.4312
  25   2.0000      -0.982707       -26.7408
  26   2.0000      -0.907222       -24.6868
  27   2.0000      -0.903009       -24.5721
  28   2.0000      -0.866575       -23.5807
  29   2.0000      -0.851317       -23.1655
  30   2.0000      -0.844525       -22.9807
  31   2.0000      -0.809828       -22.0365
  32   2.0000      -0.781319       -21.2608
  33   2.0000      -0.768682       -20.9169
  34   2.0000      -0.700442       -19.0600
  35   2.0000      -0.694170       -18.8893
  36   2.0000      -0.692014       -18.8307
  37   2.0000      -0.660446       -17.9717
  38   2.0000      -0.636239       -17.3129
  39   2.0000      -0.617885       -16.8135
  40   2.0000      -0.596527       -16.2323
  41   2.0000      -0.572454       -15.5773
  42   2.0000      -0.560784       -15.2597
  43   2.0000      -0.558782       -15.2052
  44   2.0000      -0.528421       -14.3791
  45   2.0000      -0.521948       -14.2029
  46   2.0000      -0.517738       -14.0884
  47   2.0000      -0.509521       -13.8648
  48   2.0000      -0.502386       -13.6706
  49   2.0000      -0.500069       -13.6076
  50   2.0000      -0.493492       -13.4286
  51   2.0000      -0.476048       -12.9539
  52   2.0000      -0.469297       -12.7702
  53   2.0000      -0.465208       -12.6590
  54   2.0000      -0.460086       -12.5196
  55   2.0000      -0.446818       -12.1585
  56   2.0000      -0.444660       -12.0998
  57   2.0000      -0.432656       -11.7732
  58   2.0000      -0.429294       -11.6817
  59   2.0000      -0.426155       -11.5963
  60   2.0000      -0.420046       -11.4300
  61   2.0000      -0.415583       -11.3086
  62   2.0000      -0.413164       -11.2428
  63   2.0000      -0.342887        -9.3304
  64   2.0000      -0.332821        -9.0565
  65   2.0000      -0.329386        -8.9631
  66   2.0000      -0.292914        -7.9706
  67   0.0000       0.028981         0.7886
  68   0.0000       0.067005         1.8233
  69   0.0000       0.115073         3.1313
  70   0.0000       0.119257         3.2451
  71   0.0000       0.127419         3.4672

MULLIKEN ATOMIC CHARGES
-----------------------
   0 S :    0.121719
   1 C :   -0.154417
   2 C :   -0.091252
   3 C :    0.039056
   4 C :   -0.166802
   5 H :    0.022883
   6 C :    0.043939
   7 H :    0.020271
   8 H :    0.020769
   9 C :   -0.100094
  10 H :    0.030666
  11 H :    0.039373
  12 C :   -0.040963
  13 H :    0.038741
  14 H :    0.038165
  15 H :    0.036074
  16 S :    0.123504
  17 C :   -0.105126
  18 C :   -0.042931
  19 C :    0.009310
  20 C :   -0.163673
  21 H :    0.037676
  22 C :    0.032049
  23 H :    0.033333
  24 H :    0.015970
  25 C :   -0.080308
  26 H :    0.017151
  27 H :    0.034781
  28 C :   -0.039909
  29 H :    0.027845
  30 H :    0.040789
  31 H :    0.029871
  32 H :    0.078904
  33 H :    0.052637
Sum of atomic charges:   -0.0000000

LOEWDIN ATOMIC CHARGES
----------------------
   0 S :    0.434666
   1 C :   -0.211824
   2 C :   -0.064452
   3 C :   -0.067903
   4 C :   -0.214976
   5 H :    0.035481
   6 C :   -0.033829
   7 H :    0.027136
   8 H :    0.023094
   9 C :   -0.044445
  10 H :    0.024246
  11 H :    0.028413
  12 C :   -0.071146
  13 H :    0.024565
  14 H :    0.032072
  15 H :    0.029418
  16 S :    0.421250
  17 C :   -0.179074
  18 C :   -0.066359
  19 C :   -0.055961
  20 C :   -0.217178
  21 H :    0.038779
  22 C :   -0.030709
  23 H :    0.028309
  24 H :    0.026979
  25 C :   -0.041594
  26 H :    0.020339
  27 H :    0.021863
  28 C :   -0.063413
  29 H :    0.029901
  30 H :    0.024684
  31 H :    0.024738
  32 H :    0.044848
  33 H :    0.022082

  Mayer bond orders larger than 0.100000
B(  0-S ,  1-C ) :   1.1465 B(  0-S ,  4-C ) :   1.1884 B(  1-C ,  2-C ) :   1.5896
B(  1-C ,  4-C ) :   0.1004 B(  1-C , 32-H ) :   0.9589 B(  2-C ,  3-C ) :   1.2741
B(  2-C ,  6-C ) :   1.0153 B(  3-C ,  4-C ) :   1.5317 B(  3-C ,  5-H ) :   0.9935
B(  4-C , 20-C ) :   1.0205 B(  6-C ,  7-H ) :   0.9460 B(  6-C ,  8-H ) :   0.9505
B(  6-C ,  9-C ) :   1.0394 B(  9-C , 10-H ) :   0.9601 B(  9-C , 11-H ) :   0.9609
B(  9-C , 12-C ) :   1.0837 B( 12-C , 13-H ) :   0.9740 B( 12-C , 14-H ) :   0.9731
B( 12-C , 15-H ) :   0.9723 B( 16-S , 17-C ) :   1.1640 B( 16-S , 20-C ) :   1.1724
B( 17-C , 18-C ) :   1.5698 B( 17-C , 20-C ) :   0.1142 B( 17-C , 33-H ) :   0.9740
B( 18-C , 19-C ) :   1.2702 B( 18-C , 21-H ) :   0.9878 B( 19-C , 20-C ) :   1.5504
B( 19-C , 22-C ) :   1.0331 B( 22-C , 23-H ) :   0.9502 B( 22-C , 24-H ) :   0.9393
B( 22-C , 25-C ) :   1.0419 B( 25-C , 26-H ) :   0.9525 B( 25-C , 27-H ) :   0.9603
B( 25-C , 28-C ) :   1.0899 B( 28-C , 29-H ) :   0.9709 B( 28-C , 30-H ) :   0.9736
B( 28-C , 31-H ) :   0.9754

Dispersion correction           -0.013220695
FINAL SINGLE POINT ENERGY     -1339.878257557154

DIPOLE MOMENT
-------------
                                X             Y             Z
Electronic contribution:     26.33410     -12.04792      -9.49594
Nuclear contribution   :    -26.78751      12.14748       9.69633
                        -----------------------------------------
Total Dipole Moment    :     -0.45341       0.09957       0.20039
                        -----------------------------------------
Magnitude (a.u.)       :      0.50562
Magnitude (Debye)      :      1.28518

Rotational constants in cm-1:     0.017345     0.007915     0.005819
Rotational constants in MHz :   520.004818   237.287317   174.440065

                             ****ORCA TERMINATED NORMALLY****
TOTAL RUN TIME: 0 days 0 hours 0 minutes 28 seconds 445 msec
