                         Program Version 4.2.1 -  RELEASE  -
|  1> ! wB97X-D3 SP def2-SVP
|  2> %pal
|  3> nprocs 16
|  4> end
|  5>
|  6> * xyz 0 1
|  7> S 	 -5.73405 	 44.872 	 39.5845
|  8> C 	 -4.71772 	 43.7894 	 38.7752
|  9> C 	 -5.09298 	 42.5207 	 39.0377
| 10> C 	 -6.35293 	 42.4704 	 39.7601
| 11> C 	 -6.77475 	 43.7053 	 40.216
| 12> H 	 -6.83527 	 41.5804 	 40.1979
| 13> C 	 -4.46045 	 41.2458 	 38.6439
| 14> H 	 -4.38557 	 41.3183 	 37.5914
| 15> H 	 -5.21871 	 40.4088 	 38.8644
| 16> C 	 -3.13468 	 41.0644 	 39.3774
| 17> H 	 -2.77416 	 41.9786 	 39.6909
| 18> H 	 -3.31349 	 40.6055 	 40.3397
| 19> C 	 -2.17683 	 40.1518 	 38.6562
| 20> H 	 -2.25678 	 40.3213 	 37.5822
| 21> H 	 -1.06569 	 40.1727 	 38.9042
| 22> H 	 -2.54116 	 39.173 	 38.8745
| 23> S 	 -9.50632 	 44.5134 	 40.1525
| 24> C 	 -10.2914 	 44.6156 	 41.6938
| 25> C 	 -9.45088 	 44.247 	 42.7368
| 26> C 	 -8.18488 	 43.736 	 42.3343
| 27> C 	 -8.0158 	 43.9251 	 40.9321
| 28> H 	 -9.97341 	 44.2357 	 43.7365
| 29> C 	 -7.14602 	 43.2738 	 43.371
| 30> H 	 -6.20477 	 43.7566 	 43.0532
| 31> H 	 -6.91992 	 42.1704 	 43.2046
| 32> C 	 -7.50856 	 43.5161 	 44.8193
| 33> H 	 -8.52008 	 43.1242 	 45.0447
| 34> H 	 -7.42734 	 44.6222 	 44.8622
| 35> C 	 -6.66028 	 43.0131 	 45.9971
| 36> H 	 -5.67538 	 43.454 	 45.9949
| 37> H 	 -6.49531 	 41.9355 	 45.8892
| 38> H 	 -7.10142 	 43.2224 	 46.9552
| 39> H 	 -3.74781 	 43.9531 	 38.3579
| 40> H 	 -11.0959 	 45.2143 	 41.9072
| 41> *
| 42>
| 43>                          ****END OF INPUT****

CARTESIAN COORDINATES (ANGSTROEM)
---------------------------------
  S     -5.734050   44.872000   39.584500
  C     -4.717720   43.789400   38.775200
  C     -5.092980   42.520700   39.037700
  C     -6.352930   42.470400   39.760100
  C     -6.774750   43.705300   40.216000
  H     -6.835270   41.580400   40.197900
  C     -4.460450   41.245800   38.643900
  H     -4.385570   41.318300   37.591400
  H     -5.218710   40.408800   38.864400
  C     -3.134680   41.064400   39.377400
  H     -2.774160   41.978600   39.690900
  H     -3.313490   40.605500   40.339700
  C     -2.176830   40.151800   38.656200
  H     -2.256780   40.321300   37.582200
  H     -1.065690   40.172700   38.904200
  H     -2.541160   39.173000   38.874500
  S     -9.506320   44.513400   40.152500
  C    -10.291400   44.615600   41.693800
  C     -9.450880   44.247000   42.736800
  C     -8.184880   43.736000   42.334300
  C     -8.015800   43.925100   40.932100
  H     -9.973410   44.235700   43.736500
  C     -7.146020   43.273800   43.371000
  H     -6.204770   43.756600   43.053200
  H     -6.919920   42.170400   43.204600
  C     -7.508560   43.516100   44.819300
  H     -8.520080   43.124200   45.044700
  H     -7.427340   44.622200   44.862200
  C     -6.660280   43.013100   45.997100
  H     -5.675380   43.454000   45.994900
  H     -6.495310   41.935500   45.889200
  H     -7.101420   43.222400   46.955200
  H     -3.747810   43.953100   38.357900
  H    -11.095900   45.214300   41.907200

 Total Charge           Charge          ....    0
 Multiplicity           Mult            ....    1
 Number of Electrons    NEL             ....  134
 Basis Dimension        Dim             ....  322

ORBITAL ENERGIES
----------------

  NO   OCC          E(Eh)            E(eV)
   0   2.0000     -88.969047     -2420.9708
   1   2.0000     -88.963857     -2420.8296
   2   2.0000     -10.330114      -281.0967
   3   2.0000     -10.319545      -280.8091
   4   2.0000     -10.310578      -280.5651
   5   2.0000     -10.307108      -280.4707
   6   2.0000     -10.304329      -280.3951
   7   2.0000     -10.300428      -280.2889
   8   2.0000     -10.294336      -280.1231
   9   2.0000     -10.292830      -280.0821
  10   2.0000     -10.290894      -280.0295
  11   2.0000     -10.290037      -280.0062
  12   2.0000     -10.289135      -279.9816
  13   2.0000     -10.278645      -279.6961
  14   2.0000     -10.278641      -279.6960
  15   2.0000     -10.277269      -279.6587
  16   2.0000      -8.083195      -219.9549
  17   2.0000      -8.080565      -219.8834
  18   2.0000      -6.041620      -164.4008
  19   2.0000      -6.038917      -164.3273
  20   2.0000      -6.037756      -164.2957
  21   2.0000      -6.034562      -164.2088
  22   2.0000      -6.034108      -164.1964
  23   2.0000      -6.031573      -164.1275
  24   2.0000      -1.015540       -27.6343
  25   2.0000      -0.985972       -26.8297
  26   2.0000      -0.922390       -25.0995
  27   2.0000      -0.909070       -24.7371
  28   2.0000      -0.874226       -23.7889
  29   2.0000      -0.852790       -23.2056
  30   2.0000      -0.848635       -23.0925
  31   2.0000      -0.813356       -22.1325
  32   2.0000      -0.785046       -21.3622
  33   2.0000      -0.774868       -21.0852
  34   2.0000      -0.712118       -19.3777
  35   2.0000      -0.705430       -19.1957
  36   2.0000      -0.698503       -19.0072
  37   2.0000      -0.645182       -17.5563
  38   2.0000      -0.640287       -17.4231
  39   2.0000      -0.613700       -16.6996
  40   2.0000      -0.595059       -16.1924
  41   2.0000      -0.578873       -15.7519
  42   2.0000      -0.572233       -15.5712
  43   2.0000      -0.559607       -15.2277
  44   2.0000      -0.533099       -14.5064
  45   2.0000      -0.526539       -14.3278
  46   2.0000      -0.519408       -14.1338
  47   2.0000      -0.510927       -13.9030
  48   2.0000      -0.508098       -13.8261
  49   2.0000      -0.501571       -13.6484
  50   2.0000      -0.492864       -13.4115
  51   2.0000      -0.479521       -13.0484
  52   2.0000      -0.478301       -13.0152
  53   2.0000      -0.467121       -12.7110
  54   2.0000      -0.457980       -12.4623
  55   2.0000      -0.453788       -12.3482
  56   2.0000      -0.443305       -12.0629
  57   2.0000      -0.436672       -11.8825
  58   2.0000      -0.431290       -11.7360
  59   2.0000      -0.421050       -11.4574
  60   2.0000      -0.420097       -11.4314
  61   2.0000      -0.413207       -11.2439
  62   2.0000      -0.408212       -11.1080
  63   2.0000      -0.334892        -9.1129
  64   2.0000      -0.328713        -8.9447
  65   2.0000      -0.323435        -8.8011
  66   2.0000      -0.305583        -8.3153
  67   0.0000       0.036574         0.9952
  68   0.0000       0.059443         1.6175
  69   0.0000       0.121629         3.3097
  70   0.0000       0.128774         3.5041
  71   0.0000       0.132258         3.5989

MULLIKEN ATOMIC CHARGES
-----------------------
   0 S :    0.129852
   1 C :   -0.089261
   2 C :   -0.148042
   3 C :    0.022288
   4 C :   -0.193610
   5 H :    0.023540
   6 C :    0.069415
   7 H :    0.028588
   8 H :    0.037913
   9 C :   -0.025104
  10 H :    0.005089
  11 H :    0.015899
  12 C :   -0.049460
  13 H :    0.027437
  14 H :    0.046863
  15 H :    0.024205
  16 S :    0.130239
  17 C :   -0.055298
  18 C :   -0.093883
  19 C :   -0.031996
  20 C :   -0.174153
  21 H :    0.044749
  22 C :    0.081327
  23 H :    0.037534
  24 H :    0.032237
  25 C :   -0.130397
  26 H :    0.045777
  27 H :    0.039007
  28 C :   -0.006785
  29 H :    0.022864
  30 H :    0.026046
  31 H :    0.036054
  32 H :    0.037206
  33 H :    0.033857
Sum of atomic charges:    0.0000000

LOEWDIN ATOMIC CHARGES
----------------------
   0 S :    0.459756
   1 C :   -0.219304
   2 C :   -0.065983
   3 C :   -0.067015
   4 C :   -0.230214
   5 H :    0.033440
   6 C :   -0.028824
   7 H :    0.027080
   8 H :    0.040680
   9 C :   -0.038665
  10 H :    0.010542
  11 H :    0.028694
  12 C :   -0.067890
  13 H :    0.021586
  14 H :    0.034757
  15 H :    0.023453
  16 S :    0.412629
  17 C :   -0.190052
  18 C :   -0.080966
  19 C :   -0.045974
  20 C :   -0.199523
  21 H :    0.042741
  22 C :   -0.038637
  23 H :    0.036073
  24 H :    0.034994
  25 C :   -0.052175
  26 H :    0.028435
  27 H :    0.032232
  28 C :   -0.059820
  29 H :    0.022156
  30 H :    0.024237
  31 H :    0.027805
  32 H :    0.029507
  33 H :    0.014246

  Mayer bond orders larger than 0.100000
B(  0-S ,  1-C ) :   1.1511 B(  0-S ,  4-C ) :   1.1800 B(  1-C ,  2-C ) :   1.6036
B(  1-C , 32-H ) :   0.9646 B(  2-C ,  3-C ) :   1.2669 B(  2-C ,  6-C ) :   1.0154
B(  3-C ,  4-C ) :   1.5626 B(  3-C ,  5-H ) :   0.9818 B(  4-C , 20-C ) :   1.0378
B(  6-C ,  7-H ) :   0.9426 B(  6-C ,  8-H ) :   0.9402 B(  6-C ,  9-C ) :   1.0441
B(  9-C , 10-H ) :   0.9685 B(  9-C , 11-H ) :   0.9466 B(  9-C , 12-C ) :   1.0625
B( 12-C , 13-H ) :   0.9821 B( 12-C , 14-H ) :   0.9746 B( 12-C , 15-H ) :   0.9755
B( 16-S , 17-C ) :   1.1617 B( 16-S , 20-C ) :   1.1556 B( 17-C , 18-C ) :   1.6200
B( 17-C , 20-C ) :   0.1066 B( 17-C , 33-H ) :   0.9587 B( 18-C , 19-C ) :   1.2703
B( 18-C , 21-H ) :   0.9702 B( 19-C , 20-C ) :   1.5661 B( 19-C , 22-C ) :   1.0248
B( 22-C , 23-H ) :   0.9278 B( 22-C , 24-H ) :   0.9218 B( 22-C , 25-C ) :   1.0862
B( 25-C , 26-H ) :   0.9462 B( 25-C , 27-H ) :   0.9509 B( 25-C , 28-C ) :   1.0882
B( 28-C , 29-H ) :   0.9727 B( 28-C , 30-H ) :   0.9724 B( 28-C , 31-H ) :   0.9728

Dispersion correction           -0.013585424
FINAL SINGLE POINT ENERGY     -1339.851113117429

DIPOLE MOMENT
-------------
                                X             Y             Z
Electronic contribution:    -17.15293      17.53336     -13.93977
Nuclear contribution   :     17.50534     -17.90716      14.40356
                        -----------------------------------------
Total Dipole Moment    :      0.35241      -0.37379       0.46379
                        -----------------------------------------
Magnitude (a.u.)       :      0.69211
Magnitude (Debye)      :      1.75921

Rotational constants in cm-1:     0.017980     0.007833     0.006104
Rotational constants in MHz :   539.032417   234.841481   183.005368

                             ****ORCA TERMINATED NORMALLY****
TOTAL RUN TIME: 0 days 0 hours 0 minutes 33 seconds 280 msec
