                         Program Version 4.2.1 -  RELEASE  -
|  1> ! wB97X-D3 SP def2-SVP
|  2> %pal
|  3> nprocs 16
|  4> end
|  5>
|  6> * xyz 0 1
|  7> S 	 47.3068 	 5.09758 	 88.6514
|  8> C 	 47.1592 	 6.61548 	 87.904
|  9> C 	 46.1716 	 6.56689 	 86.8984
| 10> C 	 45.5964 	 5.23198 	 86.7804
| 11> C 	 46.3069 	 4.29839 	 87.4886
| 12> H 	 44.7407 	 5.09704 	 86.1389
| 13> C 	 45.6357 	 7.71423 	 86.0851
| 14> H 	 45.0093 	 8.24426 	 86.8139
| 15> H 	 45.1242 	 7.33302 	 85.264
| 16> C 	 46.6951 	 8.72921 	 85.5169
| 17> H 	 47.3714 	 9.09971 	 86.3229
| 18> H 	 47.4292 	 8.2173 	 84.8244
| 19> C 	 46.0531 	 9.98516 	 84.9455
| 20> H 	 45.3827 	 10.4785 	 85.6498
| 21> H 	 46.8704 	 10.7485 	 84.7816
| 22> H 	 45.6576 	 9.85567 	 83.9564
| 23> S 	 44.4832 	 2.46029 	 88.2449
| 24> C 	 44.85 	 0.798784 	 88.5768
| 25> C 	 46.1871 	 0.555224 	 88.272
| 26> C 	 46.8499 	 1.72317 	 87.7148
| 27> C 	 46.0506 	 2.85714 	 87.6665
| 28> H 	 46.6057 	 -0.405325 	 88.5052
| 29> C 	 48.2625 	 1.55384 	 87.201
| 30> H 	 48.4532 	 2.28362 	 86.4929
| 31> H 	 48.3353 	 0.595437 	 86.7039
| 32> C 	 49.3445 	 1.49655 	 88.2815
| 33> H 	 49.2287 	 0.696798 	 88.9759
| 34> H 	 49.256 	 2.40198 	 88.856
| 35> C 	 50.7759 	 1.55872 	 87.8044
| 36> H 	 50.816 	 1.0552 	 86.8772
| 37> H 	 51.4435 	 1.10797 	 88.5475
| 38> H 	 51.0625 	 2.5452 	 87.6277
| 39> H 	 47.6814 	 7.54719 	 88.1885
| 40> H 	 44.3377 	 0.0493177 	 89.0941
| 41> *
| 42>
| 43>                          ****END OF INPUT****

CARTESIAN COORDINATES (ANGSTROEM)
---------------------------------
  S     47.306800    5.097580   88.651400
  C     47.159200    6.615480   87.904000
  C     46.171600    6.566890   86.898400
  C     45.596400    5.231980   86.780400
  C     46.306900    4.298390   87.488600
  H     44.740700    5.097040   86.138900
  C     45.635700    7.714230   86.085100
  H     45.009300    8.244260   86.813900
  H     45.124200    7.333020   85.264000
  C     46.695100    8.729210   85.516900
  H     47.371400    9.099710   86.322900
  H     47.429200    8.217300   84.824400
  C     46.053100    9.985160   84.945500
  H     45.382700   10.478500   85.649800
  H     46.870400   10.748500   84.781600
  H     45.657600    9.855670   83.956400
  S     44.483200    2.460290   88.244900
  C     44.850000    0.798784   88.576800
  C     46.187100    0.555224   88.272000
  C     46.849900    1.723170   87.714800
  C     46.050600    2.857140   87.666500
  H     46.605700   -0.405325   88.505200
  C     48.262500    1.553840   87.201000
  H     48.453200    2.283620   86.492900
  H     48.335300    0.595437   86.703900
  C     49.344500    1.496550   88.281500
  H     49.228700    0.696798   88.975900
  H     49.256000    2.401980   88.856000
  C     50.775900    1.558720   87.804400
  H     50.816000    1.055200   86.877200
  H     51.443500    1.107970   88.547500
  H     51.062500    2.545200   87.627700
  H     47.681400    7.547190   88.188500
  H     44.337700    0.049318   89.094100

 Total Charge           Charge          ....    0
 Multiplicity           Mult            ....    1
 Number of Electrons    NEL             ....  134
 Basis Dimension        Dim             ....  322

ORBITAL ENERGIES
----------------

  NO   OCC          E(Eh)            E(eV)
   0   2.0000     -88.965724     -2420.8804
   1   2.0000     -88.962614     -2420.7958
   2   2.0000     -10.330148      -281.0976
   3   2.0000     -10.325175      -280.9623
   4   2.0000     -10.313403      -280.6420
   5   2.0000     -10.312210      -280.6095
   6   2.0000     -10.303954      -280.3848
   7   2.0000     -10.301992      -280.3315
   8   2.0000     -10.296570      -280.1839
   9   2.0000     -10.295810      -280.1632
  10   2.0000     -10.292254      -280.0665
  11   2.0000     -10.290566      -280.0205
  12   2.0000     -10.282282      -279.7951
  13   2.0000     -10.279873      -279.7296
  14   2.0000     -10.270809      -279.4829
  15   2.0000     -10.262831      -279.2658
  16   2.0000      -8.081348      -219.9047
  17   2.0000      -8.078014      -219.8139
  18   2.0000      -6.039829      -164.3521
  19   2.0000      -6.036551      -164.2629
  20   2.0000      -6.035700      -164.2398
  21   2.0000      -6.032208      -164.1447
  22   2.0000      -6.032099      -164.1417
  23   2.0000      -6.028898      -164.0546
  24   2.0000      -1.011423       -27.5222
  25   2.0000      -0.987710       -26.8770
  26   2.0000      -0.910995       -24.7894
  27   2.0000      -0.909637       -24.7525
  28   2.0000      -0.869656       -23.6645
  29   2.0000      -0.853536       -23.2259
  30   2.0000      -0.849158       -23.1068
  31   2.0000      -0.817286       -22.2395
  32   2.0000      -0.782786       -21.3007
  33   2.0000      -0.769061       -20.9272
  34   2.0000      -0.704482       -19.1699
  35   2.0000      -0.699023       -19.0214
  36   2.0000      -0.693044       -18.8587
  37   2.0000      -0.663373       -18.0513
  38   2.0000      -0.641021       -17.4431
  39   2.0000      -0.615924       -16.7602
  40   2.0000      -0.594370       -16.1736
  41   2.0000      -0.577224       -15.7071
  42   2.0000      -0.569041       -15.4844
  43   2.0000      -0.566599       -15.4180
  44   2.0000      -0.529909       -14.4196
  45   2.0000      -0.524798       -14.2805
  46   2.0000      -0.518542       -14.1102
  47   2.0000      -0.514362       -13.9965
  48   2.0000      -0.508615       -13.8401
  49   2.0000      -0.505110       -13.7447
  50   2.0000      -0.492889       -13.4122
  51   2.0000      -0.480697       -13.0804
  52   2.0000      -0.473379       -12.8813
  53   2.0000      -0.468367       -12.7449
  54   2.0000      -0.465161       -12.6577
  55   2.0000      -0.451095       -12.2749
  56   2.0000      -0.439959       -11.9719
  57   2.0000      -0.432046       -11.7566
  58   2.0000      -0.430540       -11.7156
  59   2.0000      -0.424522       -11.5518
  60   2.0000      -0.418536       -11.3889
  61   2.0000      -0.414771       -11.2865
  62   2.0000      -0.405342       -11.0299
  63   2.0000      -0.342735        -9.3263
  64   2.0000      -0.329013        -8.9529
  65   2.0000      -0.319863        -8.7039
  66   2.0000      -0.298749        -8.1294
  67   0.0000       0.035797         0.9741
  68   0.0000       0.066987         1.8228
  69   0.0000       0.108141         2.9427
  70   0.0000       0.115634         3.1466
  71   0.0000       0.135594         3.6897

MULLIKEN ATOMIC CHARGES
-----------------------
   0 S :    0.131020
   1 C :   -0.128554
   2 C :   -0.136710
   3 C :    0.016619
   4 C :   -0.116461
   5 H :    0.014964
   6 C :    0.109605
   7 H :    0.044893
   8 H :    0.012367
   9 C :   -0.129848
  10 H :    0.025537
  11 H :    0.043665
  12 C :   -0.045517
  13 H :    0.036088
  14 H :    0.030545
  15 H :    0.035643
  16 S :    0.114528
  17 C :   -0.059543
  18 C :   -0.051095
  19 C :   -0.057369
  20 C :   -0.146059
  21 H :    0.016987
  22 C :    0.109937
  23 H :    0.004117
  24 H :    0.017657
  25 C :   -0.084343
  26 H :    0.015648
  27 H :    0.011351
  28 C :    0.005112
  29 H :    0.009055
  30 H :    0.034931
  31 H :    0.019197
  32 H :    0.060274
  33 H :    0.035760
Sum of atomic charges:   -0.0000000

LOEWDIN ATOMIC CHARGES
----------------------
   0 S :    0.446420
   1 C :   -0.227658
   2 C :   -0.062533
   3 C :   -0.062196
   4 C :   -0.204338
   5 H :    0.030791
   6 C :   -0.028067
   7 H :    0.040459
   8 H :    0.020664
   9 C :   -0.047234
  10 H :    0.022445
  11 H :    0.031414
  12 C :   -0.069750
  13 H :    0.026961
  14 H :    0.033656
  15 H :    0.021746
  16 S :    0.432446
  17 C :   -0.187903
  18 C :   -0.066146
  19 C :   -0.052000
  20 C :   -0.218873
  21 H :    0.028060
  22 C :   -0.024375
  23 H :    0.020173
  24 H :    0.030975
  25 C :   -0.039593
  26 H :    0.016254
  27 H :    0.017731
  28 C :   -0.053263
  29 H :    0.016465
  30 H :    0.031287
  31 H :    0.018034
  32 H :    0.034599
  33 H :    0.023346

  Mayer bond orders larger than 0.100000
B(  0-S ,  1-C ) :   1.1550 B(  0-S ,  4-C ) :   1.1768 B(  1-C ,  2-C ) :   1.5741
B(  1-C , 32-H ) :   0.9671 B(  2-C ,  3-C ) :   1.2697 B(  2-C ,  6-C ) :   1.0253
B(  3-C ,  4-C ) :   1.5332 B(  3-C ,  5-H ) :   1.0020 B(  4-C , 20-C ) :   1.0166
B(  6-C ,  7-H ) :   0.9320 B(  6-C ,  8-H ) :   0.9445 B(  6-C ,  9-C ) :   1.0608
B(  9-C , 10-H ) :   0.9564 B(  9-C , 11-H ) :   0.9576 B(  9-C , 12-C ) :   1.0853
B( 12-C , 13-H ) :   0.9728 B( 12-C , 14-H ) :   0.9724 B( 12-C , 15-H ) :   0.9759
B( 16-S , 17-C ) :   1.1629 B( 16-S , 20-C ) :   1.1441 B( 17-C , 18-C ) :   1.6099
B( 17-C , 33-H ) :   0.9716 B( 18-C , 19-C ) :   1.2423 B( 18-C , 21-H ) :   0.9916
B( 19-C , 20-C ) :   1.5906 B( 19-C , 22-C ) :   1.0544 B( 22-C , 23-H ) :   0.9364
B( 22-C , 24-H ) :   0.9278 B( 22-C , 25-C ) :   1.0656 B( 25-C , 26-H ) :   0.9598
B( 25-C , 27-H ) :   0.9532 B( 25-C , 28-C ) :   1.0854 B( 28-C , 29-H ) :   0.9713
B( 28-C , 30-H ) :   0.9734 B( 28-C , 31-H ) :   0.9771

Dispersion correction           -0.013614814
FINAL SINGLE POINT ENERGY     -1339.866537178694

DIPOLE MOMENT
-------------
                                X             Y             Z
Electronic contribution:    -14.01754     -10.79768      10.79164
Nuclear contribution   :     14.15425      11.00527     -10.92639
                        -----------------------------------------
Total Dipole Moment    :      0.13671       0.20759      -0.13475
                        -----------------------------------------
Magnitude (a.u.)       :      0.28274
Magnitude (Debye)      :      0.71866

Rotational constants in cm-1:     0.021724     0.007216     0.005913
Rotational constants in MHz :   651.279423   216.343791   177.261119

                             ****ORCA TERMINATED NORMALLY****
TOTAL RUN TIME: 0 days 0 hours 0 minutes 28 seconds 716 msec
