                         Program Version 4.2.1 -  RELEASE  -
|  1> ! wB97X-D3 SP def2-SVP
|  2> %pal
|  3> nprocs 16
|  4> end
|  5>
|  6> * xyz 0 1
|  7> S 	 45.3068 	 17.6359 	 80.5401
|  8> C 	 45.3662 	 19.2066 	 81.2027
|  9> C 	 46.5962 	 19.8776 	 80.9497
| 10> C 	 47.5384 	 18.9656 	 80.3269
| 11> C 	 47.0101 	 17.7165 	 80.067
| 12> H 	 48.5327 	 19.2427 	 80.1068
| 13> C 	 46.8472 	 21.3353 	 81.1715
| 14> H 	 45.8101 	 21.8625 	 81.182
| 15> H 	 47.3567 	 21.6783 	 80.2772
| 16> C 	 47.5993 	 21.7522 	 82.3904
| 17> H 	 48.4682 	 21.1002 	 82.5695
| 18> H 	 48.054 	 22.6628 	 82.1833
| 19> C 	 46.7839 	 21.6904 	 83.7269
| 20> H 	 46.0109 	 22.4877 	 83.7036
| 21> H 	 46.3464 	 20.6747 	 83.8215
| 22> H 	 47.4178 	 21.8211 	 84.5434
| 23> S 	 47.176 	 15.7439 	 78.2624
| 24> C 	 48.3706 	 14.51 	 78.2556
| 25> C 	 49.2174 	 14.7268 	 79.301
| 26> C 	 48.9153 	 15.8456 	 80.0981
| 27> C 	 47.7268 	 16.4908 	 79.7333
| 28> H 	 50.0199 	 14.036 	 79.4779
| 29> C 	 49.8431 	 16.2029 	 81.2832
| 30> H 	 49.6382 	 17.2162 	 81.6664
| 31> H 	 50.8614 	 16.2874 	 80.9486
| 32> C 	 49.7306 	 15.1585 	 82.4328
| 33> H 	 50.3926 	 15.3575 	 83.2638
| 34> H 	 50.0922 	 14.2708 	 81.9308
| 35> C 	 48.3739 	 15.0988 	 83.1101
| 36> H 	 47.6626 	 14.5592 	 82.5019
| 37> H 	 48.0848 	 16.1322 	 83.3199
| 38> H 	 48.4457 	 14.6694 	 84.1003
| 39> H 	 44.4413 	 19.7169 	 81.5102
| 40> H 	 48.327 	 13.6594 	 77.629
| 41> *
| 42>
| 43>                          ****END OF INPUT****

CARTESIAN COORDINATES (ANGSTROEM)
---------------------------------
  S     45.306800   17.635900   80.540100
  C     45.366200   19.206600   81.202700
  C     46.596200   19.877600   80.949700
  C     47.538400   18.965600   80.326900
  C     47.010100   17.716500   80.067000
  H     48.532700   19.242700   80.106800
  C     46.847200   21.335300   81.171500
  H     45.810100   21.862500   81.182000
  H     47.356700   21.678300   80.277200
  C     47.599300   21.752200   82.390400
  H     48.468200   21.100200   82.569500
  H     48.054000   22.662800   82.183300
  C     46.783900   21.690400   83.726900
  H     46.010900   22.487700   83.703600
  H     46.346400   20.674700   83.821500
  H     47.417800   21.821100   84.543400
  S     47.176000   15.743900   78.262400
  C     48.370600   14.510000   78.255600
  C     49.217400   14.726800   79.301000
  C     48.915300   15.845600   80.098100
  C     47.726800   16.490800   79.733300
  H     50.019900   14.036000   79.477900
  C     49.843100   16.202900   81.283200
  H     49.638200   17.216200   81.666400
  H     50.861400   16.287400   80.948600
  C     49.730600   15.158500   82.432800
  H     50.392600   15.357500   83.263800
  H     50.092200   14.270800   81.930800
  C     48.373900   15.098800   83.110100
  H     47.662600   14.559200   82.501900
  H     48.084800   16.132200   83.319900
  H     48.445700   14.669400   84.100300
  H     44.441300   19.716900   81.510200
  H     48.327000   13.659400   77.629000

 Total Charge           Charge          ....    0
 Multiplicity           Mult            ....    1
 Number of Electrons    NEL             ....  134
 Basis Dimension        Dim             ....  322

ORBITAL ENERGIES
----------------

  NO   OCC          E(Eh)            E(eV)
   0   2.0000     -88.967566     -2420.9305
   1   2.0000     -88.957968     -2420.6694
   2   2.0000     -10.331226      -281.1269
   3   2.0000     -10.327030      -281.0128
   4   2.0000     -10.317574      -280.7555
   5   2.0000     -10.310997      -280.5765
   6   2.0000     -10.306000      -280.4405
   7   2.0000     -10.305081      -280.4155
   8   2.0000     -10.296887      -280.1925
   9   2.0000     -10.295934      -280.1666
  10   2.0000     -10.290584      -280.0210
  11   2.0000     -10.288239      -279.9572
  12   2.0000     -10.281446      -279.7724
  13   2.0000     -10.280098      -279.7357
  14   2.0000     -10.278859      -279.7020
  15   2.0000     -10.268334      -279.4156
  16   2.0000      -8.082806      -219.9443
  17   2.0000      -8.073974      -219.7040
  18   2.0000      -6.041213      -164.3898
  19   2.0000      -6.037209      -164.2808
  20   2.0000      -6.033669      -164.1845
  21   2.0000      -6.032377      -164.1493
  22   2.0000      -6.028011      -164.0305
  23   2.0000      -6.025062      -163.9503
  24   2.0000      -1.009660       -27.4742
  25   2.0000      -0.987146       -26.8616
  26   2.0000      -0.915576       -24.9141
  27   2.0000      -0.905316       -24.6349
  28   2.0000      -0.871307       -23.7095
  29   2.0000      -0.851214       -23.1627
  30   2.0000      -0.843999       -22.9664
  31   2.0000      -0.814706       -22.1693
  32   2.0000      -0.782485       -21.2925
  33   2.0000      -0.773946       -21.0601
  34   2.0000      -0.710115       -19.3232
  35   2.0000      -0.694607       -18.9012
  36   2.0000      -0.691859       -18.8264
  37   2.0000      -0.659370       -17.9424
  38   2.0000      -0.642879       -17.4936
  39   2.0000      -0.624006       -16.9801
  40   2.0000      -0.601654       -16.3718
  41   2.0000      -0.571806       -15.5596
  42   2.0000      -0.556271       -15.1369
  43   2.0000      -0.551715       -15.0129
  44   2.0000      -0.544653       -14.8208
  45   2.0000      -0.539892       -14.6912
  46   2.0000      -0.515922       -14.0390
  47   2.0000      -0.514747       -14.0070
  48   2.0000      -0.500513       -13.6197
  49   2.0000      -0.496527       -13.5112
  50   2.0000      -0.488582       -13.2950
  51   2.0000      -0.475534       -12.9399
  52   2.0000      -0.471679       -12.8350
  53   2.0000      -0.465039       -12.6543
  54   2.0000      -0.464371       -12.6362
  55   2.0000      -0.449271       -12.2253
  56   2.0000      -0.444438       -12.0938
  57   2.0000      -0.436994       -11.8912
  58   2.0000      -0.432234       -11.7617
  59   2.0000      -0.421549       -11.4709
  60   2.0000      -0.416066       -11.3217
  61   2.0000      -0.413496       -11.2518
  62   2.0000      -0.407487       -11.0883
  63   2.0000      -0.345794        -9.4095
  64   2.0000      -0.331612        -9.0236
  65   2.0000      -0.327277        -8.9057
  66   2.0000      -0.295343        -8.0367
  67   0.0000       0.030880         0.8403
  68   0.0000       0.067358         1.8329
  69   0.0000       0.111149         3.0245
  70   0.0000       0.123765         3.3678
  71   0.0000       0.128905         3.5077

MULLIKEN ATOMIC CHARGES
-----------------------
   0 S :    0.126905
   1 C :   -0.121516
   2 C :   -0.121460
   3 C :    0.055706
   4 C :   -0.138265
   5 H :   -0.002191
   6 C :    0.036211
   7 H :    0.033169
   8 H :    0.029339
   9 C :   -0.039098
  10 H :    0.015947
  11 H :    0.010708
  12 C :   -0.040192
  13 H :    0.034419
  14 H :    0.041531
  15 H :    0.023374
  16 S :    0.085657
  17 C :   -0.066206
  18 C :   -0.049762
  19 C :   -0.033762
  20 C :   -0.148506
  21 H :    0.015553
  22 C :    0.071689
  23 H :    0.012222
  24 H :    0.024171
  25 C :   -0.079283
  26 H :    0.022308
  27 H :    0.018664
  28 C :   -0.026981
  29 H :    0.046473
  30 H :    0.026758
  31 H :    0.026664
  32 H :    0.061567
  33 H :    0.048191
Sum of atomic charges:    0.0000000

LOEWDIN ATOMIC CHARGES
----------------------
   0 S :    0.424985
   1 C :   -0.214420
   2 C :   -0.063617
   3 C :   -0.046930
   4 C :   -0.199595
   5 H :    0.025160
   6 C :   -0.039515
   7 H :    0.040072
   8 H :    0.033889
   9 C :   -0.040923
  10 H :    0.024786
  11 H :    0.014847
  12 C :   -0.057660
  13 H :    0.025617
  14 H :    0.031927
  15 H :    0.016534
  16 S :    0.423005
  17 C :   -0.185763
  18 C :   -0.075803
  19 C :   -0.057310
  20 C :   -0.204168
  21 H :    0.029002
  22 C :   -0.028491
  23 H :    0.023576
  24 H :    0.027930
  25 C :   -0.040738
  26 H :    0.022260
  27 H :    0.017332
  28 C :   -0.060552
  29 H :    0.025753
  30 H :    0.029476
  31 H :    0.024948
  32 H :    0.029943
  33 H :    0.024443

  Mayer bond orders larger than 0.100000
B(  0-S ,  1-C ) :   1.1691 B(  0-S ,  4-C ) :   1.1552 B(  1-C ,  2-C ) :   1.5738
B(  1-C ,  4-C ) :   0.1006 B(  1-C , 32-H ) :   0.9616 B(  2-C ,  3-C ) :   1.2522
B(  2-C ,  6-C ) :   1.0287 B(  3-C ,  4-C ) :   1.5679 B(  3-C ,  5-H ) :   1.0054
B(  4-C , 20-C ) :   0.9943 B(  6-C ,  7-H ) :   0.9415 B(  6-C ,  8-H ) :   0.9368
B(  6-C ,  9-C ) :   1.0753 B(  9-C , 10-H ) :   0.9539 B(  9-C , 11-H ) :   0.9525
B(  9-C , 12-C ) :   1.0698 B( 12-C , 13-H ) :   0.9774 B( 12-C , 14-H ) :   0.9746
B( 12-C , 15-H ) :   0.9757 B( 16-S , 17-C ) :   1.1735 B( 16-S , 20-C ) :   1.1660
B( 17-C , 18-C ) :   1.5708 B( 17-C , 20-C ) :   0.1081 B( 17-C , 33-H ) :   0.9750
B( 18-C , 19-C ) :   1.2656 B( 18-C , 21-H ) :   0.9943 B( 19-C , 20-C ) :   1.5722
B( 19-C , 22-C ) :   1.0295 B( 22-C , 23-H ) :   0.9418 B( 22-C , 24-H ) :   0.9387
B( 22-C , 25-C ) :   1.0721 B( 25-C , 26-H ) :   0.9577 B( 25-C , 27-H ) :   0.9596
B( 25-C , 28-C ) :   1.0713 B( 28-C , 29-H ) :   0.9757 B( 28-C , 30-H ) :   0.9713
B( 28-C , 31-H ) :   0.9758

Dispersion correction           -0.014784983
FINAL SINGLE POINT ENERGY     -1339.882162963059

DIPOLE MOMENT
-------------
                                X             Y             Z
Electronic contribution:    -10.59350     -11.18093     -21.19815
Nuclear contribution   :     11.06793      11.47378      21.50980
                        -----------------------------------------
Total Dipole Moment    :      0.47443       0.29285       0.31166
                        -----------------------------------------
Magnitude (a.u.)       :      0.63873
Magnitude (Debye)      :      1.62351

Rotational constants in cm-1:     0.020798     0.008481     0.007111
Rotational constants in MHz :   623.510991   254.251551   213.169392

                             ****ORCA TERMINATED NORMALLY****
TOTAL RUN TIME: 0 days 0 hours 0 minutes 30 seconds 193 msec
