                         Program Version 4.2.1 -  RELEASE  -
|  1> ! wB97X-D3 SP def2-SVP
|  2> %pal
|  3> nprocs 16
|  4> end
|  5>
|  6> * xyz 0 1
|  7> S 	 -56.3999 	 39.1231 	 117.007
|  8> C 	 -55.878 	 37.8238 	 118.071
|  9> C 	 -55.664 	 36.6634 	 117.364
| 10> C 	 -56.12 	 36.7553 	 116.04
| 11> C 	 -56.6548 	 38.0198 	 115.685
| 12> H 	 -56.0979 	 35.9022 	 115.393
| 13> C 	 -55.3025 	 35.3843 	 118.115
| 14> H 	 -56.0611 	 35.2216 	 118.937
| 15> H 	 -54.3397 	 35.6618 	 118.644
| 16> C 	 -54.9733 	 34.1097 	 117.336
| 17> H 	 -54.7458 	 33.4138 	 118.149
| 18> H 	 -55.8456 	 33.7513 	 116.795
| 19> C 	 -53.7501 	 34.1666 	 116.372
| 20> H 	 -52.8207 	 34.3025 	 116.993
| 21> H 	 -53.7666 	 33.2681 	 115.798
| 22> H 	 -53.7119 	 35.0763 	 115.723
| 23> S 	 -58.6663 	 38.8333 	 113.941
| 24> C 	 -58.3207 	 39.1938 	 112.349
| 25> C 	 -56.9836 	 38.993 	 112.056
| 26> C 	 -56.2623 	 38.5112 	 113.199
| 27> C 	 -57.0412 	 38.366 	 114.356
| 28> H 	 -56.6142 	 39.0058 	 111.053
| 29> C 	 -54.7533 	 38.351 	 113.106
| 30> H 	 -54.4536 	 37.9509 	 114.017
| 31> H 	 -54.363 	 39.3439 	 113.086
| 32> C 	 -54.2489 	 37.4137 	 111.961
| 33> H 	 -53.17 	 37.6084 	 111.903
| 34> H 	 -54.7084 	 37.7589 	 111.063
| 35> C 	 -54.4211 	 35.9271 	 112.071
| 36> H 	 -54.9485 	 35.5657 	 111.251
| 37> H 	 -55.0111 	 35.6881 	 112.949
| 38> H 	 -53.5124 	 35.3728 	 112.1
| 39> H 	 -55.7539 	 37.8736 	 119.105
| 40> H 	 -59.096 	 39.3921 	 111.673
| 41> *
| 42>
| 43>                          ****END OF INPUT****

CARTESIAN COORDINATES (ANGSTROEM)
---------------------------------
  S    -56.399900   39.123100  117.007000
  C    -55.878000   37.823800  118.071000
  C    -55.664000   36.663400  117.364000
  C    -56.120000   36.755300  116.040000
  C    -56.654800   38.019800  115.685000
  H    -56.097900   35.902200  115.393000
  C    -55.302500   35.384300  118.115000
  H    -56.061100   35.221600  118.937000
  H    -54.339700   35.661800  118.644000
  C    -54.973300   34.109700  117.336000
  H    -54.745800   33.413800  118.149000
  H    -55.845600   33.751300  116.795000
  C    -53.750100   34.166600  116.372000
  H    -52.820700   34.302500  116.993000
  H    -53.766600   33.268100  115.798000
  H    -53.711900   35.076300  115.723000
  S    -58.666300   38.833300  113.941000
  C    -58.320700   39.193800  112.349000
  C    -56.983600   38.993000  112.056000
  C    -56.262300   38.511200  113.199000
  C    -57.041200   38.366000  114.356000
  H    -56.614200   39.005800  111.053000
  C    -54.753300   38.351000  113.106000
  H    -54.453600   37.950900  114.017000
  H    -54.363000   39.343900  113.086000
  C    -54.248900   37.413700  111.961000
  H    -53.170000   37.608400  111.903000
  H    -54.708400   37.758900  111.063000
  C    -54.421100   35.927100  112.071000
  H    -54.948500   35.565700  111.251000
  H    -55.011100   35.688100  112.949000
  H    -53.512400   35.372800  112.100000
  H    -55.753900   37.873600  119.105000
  H    -59.096000   39.392100  111.673000

 Total Charge           Charge          ....    0
 Multiplicity           Mult            ....    1
 Number of Electrons    NEL             ....  134
 Basis Dimension        Dim             ....  322

ORBITAL ENERGIES
----------------

  NO   OCC          E(Eh)            E(eV)
   0   2.0000     -88.967997     -2420.9423
   1   2.0000     -88.960335     -2420.7338
   2   2.0000     -10.327882      -281.0360
   3   2.0000     -10.320310      -280.8299
   4   2.0000     -10.310395      -280.5601
   5   2.0000     -10.306733      -280.4605
   6   2.0000     -10.301105      -280.3073
   7   2.0000     -10.300592      -280.2934
   8   2.0000     -10.294821      -280.1363
   9   2.0000     -10.292652      -280.0773
  10   2.0000     -10.290928      -280.0304
  11   2.0000     -10.288892      -279.9750
  12   2.0000     -10.286188      -279.9014
  13   2.0000     -10.281321      -279.7690
  14   2.0000     -10.279574      -279.7214
  15   2.0000     -10.265235      -279.3313
  16   2.0000      -8.082313      -219.9309
  17   2.0000      -8.077097      -219.7890
  18   2.0000      -6.040792      -164.3783
  19   2.0000      -6.036777      -164.2691
  20   2.0000      -6.035299      -164.2288
  21   2.0000      -6.033233      -164.1726
  22   2.0000      -6.031069      -164.1137
  23   2.0000      -6.028306      -164.0385
  24   2.0000      -1.009747       -27.4766
  25   2.0000      -0.988059       -26.8865
  26   2.0000      -0.910346       -24.7718
  27   2.0000      -0.908913       -24.7328
  28   2.0000      -0.873233       -23.7619
  29   2.0000      -0.852636       -23.2014
  30   2.0000      -0.843674       -22.9575
  31   2.0000      -0.814189       -22.1552
  32   2.0000      -0.787862       -21.4388
  33   2.0000      -0.774961       -21.0878
  34   2.0000      -0.713195       -19.4070
  35   2.0000      -0.702670       -19.1206
  36   2.0000      -0.691573       -18.8186
  37   2.0000      -0.654161       -17.8006
  38   2.0000      -0.636035       -17.3074
  39   2.0000      -0.622834       -16.9482
  40   2.0000      -0.603098       -16.4111
  41   2.0000      -0.574047       -15.6206
  42   2.0000      -0.556763       -15.1503
  43   2.0000      -0.551316       -15.0021
  44   2.0000      -0.544628       -14.8201
  45   2.0000      -0.532338       -14.4856
  46   2.0000      -0.525417       -14.2973
  47   2.0000      -0.515385       -14.0243
  48   2.0000      -0.508068       -13.8252
  49   2.0000      -0.495751       -13.4901
  50   2.0000      -0.490892       -13.3579
  51   2.0000      -0.487008       -13.2521
  52   2.0000      -0.473811       -12.8930
  53   2.0000      -0.465807       -12.6753
  54   2.0000      -0.459303       -12.4983
  55   2.0000      -0.451249       -12.2791
  56   2.0000      -0.439775       -11.9669
  57   2.0000      -0.438273       -11.9260
  58   2.0000      -0.436838       -11.8870
  59   2.0000      -0.426177       -11.5969
  60   2.0000      -0.417977       -11.3737
  61   2.0000      -0.412778       -11.2323
  62   2.0000      -0.405642       -11.0381
  63   2.0000      -0.333076        -9.0634
  64   2.0000      -0.329463        -8.9651
  65   2.0000      -0.326326        -8.8798
  66   2.0000      -0.300090        -8.1659
  67   0.0000       0.034105         0.9281
  68   0.0000       0.062990         1.7140
  69   0.0000       0.116064         3.1583
  70   0.0000       0.126152         3.4328
  71   0.0000       0.132056         3.5934

MULLIKEN ATOMIC CHARGES
-----------------------
   0 S :    0.131066
   1 C :   -0.111958
   2 C :   -0.062093
   3 C :    0.024304
   4 C :   -0.152202
   5 H :    0.002029
   6 C :   -0.004750
   7 H :    0.059393
   8 H :    0.033094
   9 C :   -0.071323
  10 H :    0.036256
  11 H :    0.034250
  12 C :   -0.069333
  13 H :    0.035659
  14 H :    0.043774
  15 H :    0.042608
  16 S :    0.119746
  17 C :   -0.072554
  18 C :   -0.032035
  19 C :   -0.066638
  20 C :   -0.183763
  21 H :    0.017095
  22 C :    0.130034
  23 H :   -0.006489
  24 H :    0.033955
  25 C :   -0.089815
  26 H :    0.029259
  27 H :    0.013995
  28 C :    0.012132
  29 H :    0.013282
  30 H :    0.018014
  31 H :    0.027495
  32 H :    0.020280
  33 H :    0.045235
Sum of atomic charges:    0.0000000

LOEWDIN ATOMIC CHARGES
----------------------
   0 S :    0.418840
   1 C :   -0.185276
   2 C :   -0.071847
   3 C :   -0.056348
   4 C :   -0.206482
   5 H :    0.024391
   6 C :   -0.042714
   7 H :    0.041921
   8 H :    0.036815
   9 C :   -0.047587
  10 H :    0.032413
  11 H :    0.020670
  12 C :   -0.068308
  13 H :    0.031464
  14 H :    0.025332
  15 H :    0.028301
  16 S :    0.448221
  17 C :   -0.193287
  18 C :   -0.079490
  19 C :   -0.045196
  20 C :   -0.226305
  21 H :    0.026810
  22 C :   -0.021587
  23 H :    0.016515
  24 H :    0.035078
  25 C :   -0.036118
  26 H :    0.028720
  27 H :    0.014967
  28 C :   -0.058946
  29 H :    0.021848
  30 H :    0.025980
  31 H :    0.025416
  32 H :    0.015855
  33 H :    0.019935

  Mayer bond orders larger than 0.100000
B(  0-S ,  1-C ) :   1.1516 B(  0-S ,  4-C ) :   1.1651 B(  1-C ,  2-C ) :   1.5751
B(  1-C ,  4-C ) :   0.1112 B(  1-C , 32-H ) :   0.9801 B(  2-C ,  3-C ) :   1.2969
B(  2-C ,  6-C ) :   0.9966 B(  3-C ,  4-C ) :   1.5085 B(  3-C ,  5-H ) :   0.9996
B(  4-C , 20-C ) :   1.0592 B(  6-C ,  7-H ) :   0.9485 B(  6-C ,  8-H ) :   0.9376
B(  6-C ,  9-C ) :   1.0820 B(  9-C , 10-H ) :   0.9514 B(  9-C , 11-H ) :   0.9527
B(  9-C , 12-C ) :   1.0679 B( 12-C , 13-H ) :   0.9726 B( 12-C , 14-H ) :   0.9759
B( 12-C , 15-H ) :   0.9783 B( 16-S , 17-C ) :   1.2142 B( 16-S , 20-C ) :   1.1453
B( 17-C , 18-C ) :   1.5448 B( 17-C , 33-H ) :   0.9741 B( 18-C , 19-C ) :   1.2766
B( 18-C , 21-H ) :   0.9952 B( 19-C , 20-C ) :   1.5547 B( 19-C , 22-C ) :   1.0369
B( 22-C , 23-H ) :   0.9257 B( 22-C , 24-H ) :   0.9340 B( 22-C , 25-C ) :   1.0742
B( 25-C , 26-H ) :   0.9584 B( 25-C , 27-H ) :   0.9669 B( 25-C , 28-C ) :   1.0665
B( 28-C , 29-H ) :   0.9695 B( 28-C , 30-H ) :   0.9766 B( 28-C , 31-H ) :   0.9752

Dispersion correction           -0.015330364
FINAL SINGLE POINT ENERGY     -1339.873360751838

DIPOLE MOMENT
-------------
                                X             Y             Z
Electronic contribution:    -19.88157      21.53128       5.05258
Nuclear contribution   :     20.28858     -22.04269      -5.19347
                        -----------------------------------------
Total Dipole Moment    :      0.40702      -0.51141      -0.14089
                        -----------------------------------------
Magnitude (a.u.)       :      0.66862
Magnitude (Debye)      :      1.69949

Rotational constants in cm-1:     0.017417     0.010114     0.007379
Rotational constants in MHz :   522.144052   303.223774   221.231694

                             ****ORCA TERMINATED NORMALLY****
TOTAL RUN TIME: 0 days 0 hours 0 minutes 32 seconds 459 msec
