                         Program Version 4.2.1 -  RELEASE  -
|  1> ! wB97X-D3 SP def2-SVP
|  2> %pal
|  3> nprocs 16
|  4> end
|  5>
|  6> * xyz 0 1
|  7> S 	 -10.795 	 -12.2585 	 85.5663
|  8> C 	 -11.9821 	 -13.5251 	 85.3788
|  9> C 	 -13.1859 	 -13.0795 	 84.8617
| 10> C 	 -13.1895 	 -11.6511 	 84.794
| 11> C 	 -11.937 	 -11.0605 	 85.0755
| 12> H 	 -14.0179 	 -11.0907 	 84.5084
| 13> C 	 -14.4246 	 -13.8411 	 84.7105
| 14> H 	 -14.1225 	 -14.8535 	 84.7288
| 15> H 	 -14.6542 	 -13.6035 	 83.6814
| 16> C 	 -15.5482 	 -13.4581 	 85.6131
| 17> H 	 -15.2971 	 -13.6135 	 86.6313
| 18> H 	 -15.5422 	 -12.2842 	 85.5967
| 19> C 	 -16.9616 	 -13.9649 	 85.3782
| 20> H 	 -17.1406 	 -13.6525 	 84.3423
| 21> H 	 -17.193 	 -15.0111 	 85.5448
| 22> H 	 -17.5767 	 -13.4166 	 86.0677
| 23> S 	 -10.2699 	 -9.17615 	 83.9136
| 24> C 	 -10.3608 	 -7.56102 	 84.2569
| 25> C 	 -11.3985 	 -7.31863 	 85.1539
| 26> C 	 -12.2201 	 -8.48929 	 85.4005
| 27> C 	 -11.5559 	 -9.65775 	 84.9966
| 28> H 	 -11.5921 	 -6.34349 	 85.532
| 29> C 	 -13.5998 	 -8.46188 	 86.0816
| 30> H 	 -13.4709 	 -8.04715 	 87.0452
| 31> H 	 -14.1677 	 -9.43706 	 86.132
| 32> C 	 -14.6533 	 -7.50619 	 85.3527
| 33> H 	 -14.6979 	 -7.81434 	 84.3294
| 34> H 	 -14.2808 	 -6.46858 	 85.3099
| 35> C 	 -16.0866 	 -7.56515 	 85.91
| 36> H 	 -16.0988 	 -7.20157 	 86.8897
| 37> H 	 -16.5949 	 -8.49632 	 86.0121
| 38> H 	 -16.6838 	 -6.82126 	 85.363
| 39> H 	 -11.8373 	 -14.5965 	 85.6347
| 40> H 	 -9.80753 	 -6.81619 	 83.8135
| 41> *
| 42>
| 43>                          ****END OF INPUT****

CARTESIAN COORDINATES (ANGSTROEM)
---------------------------------
  S    -10.795000  -12.258500   85.566300
  C    -11.982100  -13.525100   85.378800
  C    -13.185900  -13.079500   84.861700
  C    -13.189500  -11.651100   84.794000
  C    -11.937000  -11.060500   85.075500
  H    -14.017900  -11.090700   84.508400
  C    -14.424600  -13.841100   84.710500
  H    -14.122500  -14.853500   84.728800
  H    -14.654200  -13.603500   83.681400
  C    -15.548200  -13.458100   85.613100
  H    -15.297100  -13.613500   86.631300
  H    -15.542200  -12.284200   85.596700
  C    -16.961600  -13.964900   85.378200
  H    -17.140600  -13.652500   84.342300
  H    -17.193000  -15.011100   85.544800
  H    -17.576700  -13.416600   86.067700
  S    -10.269900   -9.176150   83.913600
  C    -10.360800   -7.561020   84.256900
  C    -11.398500   -7.318630   85.153900
  C    -12.220100   -8.489290   85.400500
  C    -11.555900   -9.657750   84.996600
  H    -11.592100   -6.343490   85.532000
  C    -13.599800   -8.461880   86.081600
  H    -13.470900   -8.047150   87.045200
  H    -14.167700   -9.437060   86.132000
  C    -14.653300   -7.506190   85.352700
  H    -14.697900   -7.814340   84.329400
  H    -14.280800   -6.468580   85.309900
  C    -16.086600   -7.565150   85.910000
  H    -16.098800   -7.201570   86.889700
  H    -16.594900   -8.496320   86.012100
  H    -16.683800   -6.821260   85.363000
  H    -11.837300  -14.596500   85.634700
  H     -9.807530   -6.816190   83.813500

 Total Charge           Charge          ....    0
 Multiplicity           Mult            ....    1
 Number of Electrons    NEL             ....  134
 Basis Dimension        Dim             ....  322

ORBITAL ENERGIES
----------------

  NO   OCC          E(Eh)            E(eV)
   0   2.0000     -88.967572     -2420.9307
   1   2.0000     -88.962224     -2420.7852
   2   2.0000     -10.329623      -281.0833
   3   2.0000     -10.324522      -280.9445
   4   2.0000     -10.313537      -280.6456
   5   2.0000     -10.309646      -280.5397
   6   2.0000     -10.307677      -280.4862
   7   2.0000     -10.296609      -280.1850
   8   2.0000     -10.295397      -280.1520
   9   2.0000     -10.293282      -280.0944
  10   2.0000     -10.290469      -280.0179
  11   2.0000     -10.289790      -279.9994
  12   2.0000     -10.289369      -279.9880
  13   2.0000     -10.283015      -279.8151
  14   2.0000     -10.280225      -279.7391
  15   2.0000     -10.274296      -279.5778
  16   2.0000      -8.082548      -219.9373
  17   2.0000      -8.078896      -219.8379
  18   2.0000      -6.041058      -164.3855
  19   2.0000      -6.037228      -164.2813
  20   2.0000      -6.036929      -164.2732
  21   2.0000      -6.033393      -164.1770
  22   2.0000      -6.032967      -164.1654
  23   2.0000      -6.029860      -164.0808
  24   2.0000      -1.010633       -27.5007
  25   2.0000      -0.989855       -26.9353
  26   2.0000      -0.924767       -25.1642
  27   2.0000      -0.902662       -24.5627
  28   2.0000      -0.871669       -23.7193
  29   2.0000      -0.855700       -23.2848
  30   2.0000      -0.846500       -23.0344
  31   2.0000      -0.813749       -22.1432
  32   2.0000      -0.788394       -21.4533
  33   2.0000      -0.777086       -21.1456
  34   2.0000      -0.711892       -19.3716
  35   2.0000      -0.702651       -19.1201
  36   2.0000      -0.695658       -18.9298
  37   2.0000      -0.659699       -17.9513
  38   2.0000      -0.637869       -17.3573
  39   2.0000      -0.627079       -17.0637
  40   2.0000      -0.599454       -16.3120
  41   2.0000      -0.578503       -15.7419
  42   2.0000      -0.564877       -15.3711
  43   2.0000      -0.559761       -15.2319
  44   2.0000      -0.534922       -14.5560
  45   2.0000      -0.524242       -14.2653
  46   2.0000      -0.518573       -14.1111
  47   2.0000      -0.516564       -14.0564
  48   2.0000      -0.509788       -13.8720
  49   2.0000      -0.503830       -13.7099
  50   2.0000      -0.492884       -13.4121
  51   2.0000      -0.486652       -13.2425
  52   2.0000      -0.475682       -12.9440
  53   2.0000      -0.469122       -12.7655
  54   2.0000      -0.462846       -12.5947
  55   2.0000      -0.451416       -12.2837
  56   2.0000      -0.449708       -12.2372
  57   2.0000      -0.441526       -12.0145
  58   2.0000      -0.430517       -11.7150
  59   2.0000      -0.425430       -11.5765
  60   2.0000      -0.422748       -11.5035
  61   2.0000      -0.412500       -11.2247
  62   2.0000      -0.408579       -11.1180
  63   2.0000      -0.344742        -9.3809
  64   2.0000      -0.330393        -8.9905
  65   2.0000      -0.323340        -8.7985
  66   2.0000      -0.288927        -7.8621
  67   0.0000       0.035355         0.9621
  68   0.0000       0.071730         1.9519
  69   0.0000       0.112306         3.0560
  70   0.0000       0.115257         3.1363
  71   0.0000       0.125076         3.4035

MULLIKEN ATOMIC CHARGES
-----------------------
   0 S :    0.127987
   1 C :   -0.136550
   2 C :   -0.110379
   3 C :    0.026844
   4 C :   -0.157234
   5 H :   -0.012020
   6 C :    0.154239
   7 H :    0.000599
   8 H :    0.018252
   9 C :   -0.119564
  10 H :    0.015435
  11 H :    0.024586
  12 C :   -0.003569
  13 H :    0.028404
  14 H :    0.040754
  15 H :    0.029646
  16 S :    0.121528
  17 C :   -0.052615
  18 C :   -0.033468
  19 C :   -0.037196
  20 C :   -0.144492
  21 H :    0.007155
  22 C :    0.060834
  23 H :    0.024705
  24 H :    0.035678
  25 C :   -0.109063
  26 H :    0.025809
  27 H :    0.031285
  28 C :   -0.016463
  29 H :    0.007725
  30 H :    0.028344
  31 H :    0.035020
  32 H :    0.054935
  33 H :    0.032848
Sum of atomic charges:    0.0000000

LOEWDIN ATOMIC CHARGES
----------------------
   0 S :    0.425887
   1 C :   -0.209387
   2 C :   -0.061525
   3 C :   -0.056206
   4 C :   -0.200327
   5 H :    0.014614
   6 C :   -0.034019
   7 H :    0.023971
   8 H :    0.035240
   9 C :   -0.045125
  10 H :    0.017576
  11 H :    0.033712
  12 C :   -0.059334
  13 H :    0.027810
  14 H :    0.025702
  15 H :    0.028576
  16 S :    0.451166
  17 C :   -0.203033
  18 C :   -0.072061
  19 C :   -0.046783
  20 C :   -0.214423
  21 H :    0.022748
  22 C :   -0.029854
  23 H :    0.024699
  24 H :    0.036031
  25 C :   -0.037352
  26 H :    0.018205
  27 H :    0.023955
  28 C :   -0.065683
  29 H :    0.017545
  30 H :    0.022181
  31 H :    0.033963
  32 H :    0.034088
  33 H :    0.017444

  Mayer bond orders larger than 0.100000
B(  0-S ,  1-C ) :   1.1412 B(  0-S ,  4-C ) :   1.1711 B(  1-C ,  2-C ) :   1.6063
B(  1-C , 32-H ) :   0.9582 B(  2-C ,  3-C ) :   1.2461 B(  2-C ,  6-C ) :   1.0305
B(  3-C ,  4-C ) :   1.5463 B(  3-C ,  5-H ) :   0.9979 B(  4-C , 20-C ) :   1.0328
B(  6-C ,  7-H ) :   0.9289 B(  6-C ,  8-H ) :   0.9148 B(  6-C ,  9-C ) :   1.0658
B(  9-C , 10-H ) :   0.9506 B(  9-C , 11-H ) :   0.9490 B(  9-C , 12-C ) :   1.0781
B( 12-C , 13-H ) :   0.9744 B( 12-C , 14-H ) :   0.9758 B( 12-C , 15-H ) :   0.9704
B( 16-S , 17-C ) :   1.1960 B( 16-S , 20-C ) :   1.1569 B( 17-C , 18-C ) :   1.5541
B( 17-C , 20-C ) :   0.1008 B( 17-C , 33-H ) :   0.9808 B( 18-C , 19-C ) :   1.2585
B( 18-C , 21-H ) :   0.9962 B( 19-C , 20-C ) :   1.5614 B( 19-C , 22-C ) :   1.0489
B( 22-C , 23-H ) :   0.9327 B( 22-C , 24-H ) :   0.9468 B( 22-C , 25-C ) :   1.0475
B( 25-C , 26-H ) :   0.9602 B( 25-C , 27-H ) :   0.9552 B( 25-C , 28-C ) :   1.0866
B( 28-C , 29-H ) :   0.9700 B( 28-C , 30-H ) :   0.9743 B( 28-C , 31-H ) :   0.9713

Dispersion correction           -0.013897299
FINAL SINGLE POINT ENERGY     -1339.859065492642

DIPOLE MOMENT
-------------
                                X             Y             Z
Electronic contribution:     32.69840      -0.42091      -4.88056
Nuclear contribution   :    -33.44452       0.56779       4.97796
                        -----------------------------------------
Total Dipole Moment    :     -0.74613       0.14688       0.09740
                        -----------------------------------------
Magnitude (a.u.)       :      0.76666
Magnitude (Debye)      :      1.94869

Rotational constants in cm-1:     0.016235     0.009614     0.006406
Rotational constants in MHz :   486.707226   288.225201   192.055655

                             ****ORCA TERMINATED NORMALLY****
TOTAL RUN TIME: 0 days 0 hours 0 minutes 33 seconds 764 msec
