                         Program Version 4.2.1 -  RELEASE  -
|  1> ! wB97X-D3 SP def2-SVP
|  2> %pal
|  3> nprocs 16
|  4> end
|  5>
|  6> * xyz 0 1
|  7> S 	 -5.69701 	 18.5301 	 53.5886
|  8> C 	 -4.78513 	 18.854 	 52.1266
|  9> C 	 -3.65021 	 19.6551 	 52.3804
| 10> C 	 -3.53133 	 19.9547 	 53.8018
| 11> C 	 -4.48752 	 19.3689 	 54.596
| 12> H 	 -2.76271 	 20.4826 	 54.3101
| 13> C 	 -2.81285 	 20.156 	 51.2929
| 14> H 	 -2.44273 	 21.1748 	 51.532
| 15> H 	 -3.42841 	 20.0055 	 50.4266
| 16> C 	 -1.5562 	 19.2613 	 51.0784
| 17> H 	 -0.947167 	 19.4893 	 51.9681
| 18> H 	 -1.75862 	 18.1411 	 51.0986
| 19> C 	 -0.982228 	 19.4821 	 49.6399
| 20> H 	 -0.784505 	 20.5032 	 49.4959
| 21> H 	 -0.068064 	 18.9125 	 49.4878
| 22> H 	 -1.64094 	 19.0898 	 48.8722
| 23> S 	 -4.92844 	 18.0339 	 56.9289
| 24> C 	 -4.99065 	 18.8782 	 58.4842
| 25> C 	 -4.53088 	 20.1814 	 58.2517
| 26> C 	 -4.28397 	 20.5214 	 56.9116
| 27> C 	 -4.60311 	 19.487 	 56.03
| 28> H 	 -4.47717 	 20.948 	 59.1174
| 29> C 	 -3.97098 	 22.0135 	 56.6861
| 30> H 	 -4.892 	 22.5794 	 56.8203
| 31> H 	 -3.83901 	 22.1255 	 55.7269
| 32> C 	 -2.76186 	 22.5154 	 57.4589
| 33> H 	 -3.06747 	 22.7589 	 58.5538
| 34> H 	 -2.57952 	 23.5454 	 57.1496
| 35> C 	 -1.45669 	 21.8188 	 57.2549
| 36> H 	 -1.41124 	 20.8043 	 57.7416
| 37> H 	 -0.600514 	 22.1867 	 57.8476
| 38> H 	 -1.01972 	 21.8591 	 56.2631
| 39> H 	 -5.10095 	 18.5781 	 51.1317
| 40> H 	 -5.33216 	 18.4487 	 59.4409
| 41> *
| 42>
| 43>                          ****END OF INPUT****

CARTESIAN COORDINATES (ANGSTROEM)
---------------------------------
  S     -5.697010   18.530100   53.588600
  C     -4.785130   18.854000   52.126600
  C     -3.650210   19.655100   52.380400
  C     -3.531330   19.954700   53.801800
  C     -4.487520   19.368900   54.596000
  H     -2.762710   20.482600   54.310100
  C     -2.812850   20.156000   51.292900
  H     -2.442730   21.174800   51.532000
  H     -3.428410   20.005500   50.426600
  C     -1.556200   19.261300   51.078400
  H     -0.947167   19.489300   51.968100
  H     -1.758620   18.141100   51.098600
  C     -0.982228   19.482100   49.639900
  H     -0.784505   20.503200   49.495900
  H     -0.068064   18.912500   49.487800
  H     -1.640940   19.089800   48.872200
  S     -4.928440   18.033900   56.928900
  C     -4.990650   18.878200   58.484200
  C     -4.530880   20.181400   58.251700
  C     -4.283970   20.521400   56.911600
  C     -4.603110   19.487000   56.030000
  H     -4.477170   20.948000   59.117400
  C     -3.970980   22.013500   56.686100
  H     -4.892000   22.579400   56.820300
  H     -3.839010   22.125500   55.726900
  C     -2.761860   22.515400   57.458900
  H     -3.067470   22.758900   58.553800
  H     -2.579520   23.545400   57.149600
  C     -1.456690   21.818800   57.254900
  H     -1.411240   20.804300   57.741600
  H     -0.600514   22.186700   57.847600
  H     -1.019720   21.859100   56.263100
  H     -5.100950   18.578100   51.131700
  H     -5.332160   18.448700   59.440900

 Total Charge           Charge          ....    0
 Multiplicity           Mult            ....    1
 Number of Electrons    NEL             ....  134
 Basis Dimension        Dim             ....  322

ORBITAL ENERGIES
----------------

  NO   OCC          E(Eh)            E(eV)
   0   2.0000     -88.966191     -2420.8931
   1   2.0000     -88.963546     -2420.8212
   2   2.0000     -10.329690      -281.0852
   3   2.0000     -10.327512      -281.0259
   4   2.0000     -10.321441      -280.8607
   5   2.0000     -10.315341      -280.6947
   6   2.0000     -10.303604      -280.3753
   7   2.0000     -10.300641      -280.2947
   8   2.0000     -10.297292      -280.2036
   9   2.0000     -10.295576      -280.1569
  10   2.0000     -10.293760      -280.1075
  11   2.0000     -10.293411      -280.0979
  12   2.0000     -10.290775      -280.0262
  13   2.0000     -10.282396      -279.7982
  14   2.0000     -10.282050      -279.7888
  15   2.0000     -10.276607      -279.6407
  16   2.0000      -8.080093      -219.8705
  17   2.0000      -8.078121      -219.8169
  18   2.0000      -6.038711      -164.3217
  19   2.0000      -6.036705      -164.2671
  20   2.0000      -6.034692      -164.2123
  21   2.0000      -6.032547      -164.1540
  22   2.0000      -6.030815      -164.1068
  23   2.0000      -6.028901      -164.0547
  24   2.0000      -1.003993       -27.3200
  25   2.0000      -0.979601       -26.6563
  26   2.0000      -0.915897       -24.9228
  27   2.0000      -0.912305       -24.8251
  28   2.0000      -0.867305       -23.6006
  29   2.0000      -0.850329       -23.1386
  30   2.0000      -0.843698       -22.9582
  31   2.0000      -0.814719       -22.1696
  32   2.0000      -0.788721       -21.4622
  33   2.0000      -0.769909       -20.9503
  34   2.0000      -0.709604       -19.3093
  35   2.0000      -0.700162       -19.0524
  36   2.0000      -0.694586       -18.9006
  37   2.0000      -0.656773       -17.8717
  38   2.0000      -0.642350       -17.4792
  39   2.0000      -0.616855       -16.7855
  40   2.0000      -0.597847       -16.2683
  41   2.0000      -0.577798       -15.7227
  42   2.0000      -0.558857       -15.2073
  43   2.0000      -0.552995       -15.0478
  44   2.0000      -0.537927       -14.6377
  45   2.0000      -0.523675       -14.2499
  46   2.0000      -0.519962       -14.1489
  47   2.0000      -0.511944       -13.9307
  48   2.0000      -0.505954       -13.7677
  49   2.0000      -0.503424       -13.6989
  50   2.0000      -0.489058       -13.3079
  51   2.0000      -0.481134       -13.0923
  52   2.0000      -0.473095       -12.8736
  53   2.0000      -0.465356       -12.6630
  54   2.0000      -0.456267       -12.4156
  55   2.0000      -0.452735       -12.3196
  56   2.0000      -0.442090       -12.0299
  57   2.0000      -0.435539       -11.8516
  58   2.0000      -0.430561       -11.7162
  59   2.0000      -0.427753       -11.6398
  60   2.0000      -0.418216       -11.3802
  61   2.0000      -0.412174       -11.2158
  62   2.0000      -0.401812       -10.9339
  63   2.0000      -0.350499        -9.5376
  64   2.0000      -0.329469        -8.9653
  65   2.0000      -0.324077        -8.8186
  66   2.0000      -0.286143        -7.7863
  67   0.0000       0.023294         0.6338
  68   0.0000       0.075318         2.0495
  69   0.0000       0.109839         2.9889
  70   0.0000       0.114930         3.1274
  71   0.0000       0.126904         3.4532

MULLIKEN ATOMIC CHARGES
-----------------------
   0 S :    0.110232
   1 C :   -0.116247
   2 C :   -0.099247
   3 C :    0.037853
   4 C :   -0.145981
   5 H :   -0.004976
   6 C :    0.091095
   7 H :    0.040273
   8 H :    0.009358
   9 C :   -0.127856
  10 H :    0.033746
  11 H :    0.043240
  12 C :   -0.019572
  13 H :    0.022568
  14 H :    0.032278
  15 H :    0.033912
  16 S :    0.100156
  17 C :   -0.110477
  18 C :   -0.064942
  19 C :   -0.066077
  20 C :   -0.151947
  21 H :    0.047612
  22 C :    0.189357
  23 H :    0.039116
  24 H :   -0.057418
  25 C :   -0.094755
  26 H :    0.037331
  27 H :    0.022801
  28 C :   -0.056102
  29 H :    0.043350
  30 H :    0.022885
  31 H :    0.039869
  32 H :    0.046386
  33 H :    0.072180
Sum of atomic charges:   -0.0000000

LOEWDIN ATOMIC CHARGES
----------------------
   0 S :    0.390925
   1 C :   -0.198312
   2 C :   -0.055718
   3 C :   -0.060565
   4 C :   -0.183808
   5 H :    0.024913
   6 C :   -0.034312
   7 H :    0.038517
   8 H :    0.028733
   9 C :   -0.042396
  10 H :    0.023174
  11 H :    0.030487
  12 C :   -0.061925
  13 H :    0.015749
  14 H :    0.027481
  15 H :    0.027155
  16 S :    0.406971
  17 C :   -0.190936
  18 C :   -0.078186
  19 C :   -0.062355
  20 C :   -0.202374
  21 H :    0.042978
  22 C :   -0.017550
  23 H :    0.042809
  24 H :    0.000571
  25 C :   -0.050741
  26 H :    0.032992
  27 H :    0.027651
  28 C :   -0.082943
  29 H :    0.036435
  30 H :    0.034167
  31 H :    0.027230
  32 H :    0.025602
  33 H :    0.037581

  Mayer bond orders larger than 0.100000
B(  0-S ,  1-C ) :   1.1342 B(  0-S ,  4-C ) :   1.1353 B(  1-C ,  2-C ) :   1.6051
B(  1-C , 32-H ) :   0.9661 B(  2-C ,  3-C ) :   1.2116 B(  2-C ,  6-C ) :   1.0497
B(  3-C ,  4-C ) :   1.5986 B(  3-C ,  5-H ) :   0.9937 B(  4-C , 20-C ) :   1.0492
B(  6-C ,  7-H ) :   0.9350 B(  6-C ,  8-H ) :   0.9341 B(  6-C ,  9-C ) :   1.0450
B(  9-C , 10-H ) :   0.9608 B(  9-C , 11-H ) :   0.9632 B(  9-C , 12-C ) :   1.0685
B( 12-C , 13-H ) :   0.9754 B( 12-C , 14-H ) :   0.9746 B( 12-C , 15-H ) :   0.9753
B( 16-S , 17-C ) :   1.1497 B( 16-S , 20-C ) :   1.1582 B( 17-C , 18-C ) :   1.5752
B( 17-C , 20-C ) :   0.1133 B( 17-C , 33-H ) :   0.9703 B( 18-C , 19-C ) :   1.2701
B( 18-C , 21-H ) :   0.9736 B( 19-C , 20-C ) :   1.5628 B( 19-C , 22-C ) :   1.0242
B( 22-C , 23-H ) :   0.9328 B( 22-C , 24-H ) :   0.9081 B( 22-C , 25-C ) :   1.0743
B( 25-C , 26-H ) :   0.9496 B( 25-C , 27-H ) :   0.9479 B( 25-C , 28-C ) :   1.0858
B( 28-C , 29-H ) :   0.9655 B( 28-C , 30-H ) :   0.9638 B( 28-C , 31-H ) :   0.9699

Dispersion correction           -0.014155747
FINAL SINGLE POINT ENERGY     -1339.850612127785

DIPOLE MOMENT
-------------
                                X             Y             Z
Electronic contribution:    -21.62883     -15.27481       9.12174
Nuclear contribution   :     22.09917      15.89460      -9.22526
                        -----------------------------------------
Total Dipole Moment    :      0.47034       0.61978      -0.10352
                        -----------------------------------------
Magnitude (a.u.)       :      0.78490
Magnitude (Debye)      :      1.99506

Rotational constants in cm-1:     0.019504     0.008168     0.006359
Rotational constants in MHz :   584.710788   244.885193   190.627014

                             ****ORCA TERMINATED NORMALLY****
TOTAL RUN TIME: 0 days 0 hours 0 minutes 32 seconds 968 msec
