                         Program Version 4.2.1 -  RELEASE  -
|  1> ! wB97X-D3 SP def2-SVP
|  2> %pal
|  3> nprocs 16
|  4> end
|  5>
|  6> * xyz 0 1
|  7> S 	 -34.2505 	 60.0583 	 112.429
|  8> C 	 -32.7743 	 59.8033 	 111.586
|  9> C 	 -31.6925 	 59.8795 	 112.481
| 10> C 	 -31.9773 	 60.5065 	 113.701
| 11> C 	 -33.3451 	 60.826 	 113.739
| 12> H 	 -31.3834 	 60.8481 	 114.554
| 13> C 	 -30.3005 	 59.4003 	 112.159
| 14> H 	 -29.6062 	 60.0516 	 112.754
| 15> H 	 -30.1316 	 59.5859 	 111.091
| 16> C 	 -30.2313 	 57.7924 	 112.297
| 17> H 	 -30.2874 	 57.5094 	 113.377
| 18> H 	 -31.1577 	 57.4376 	 111.806
| 19> C 	 -28.9833 	 57.1136 	 111.808
| 20> H 	 -28.1549 	 57.5044 	 112.324
| 21> H 	 -28.9803 	 56.0881 	 111.869
| 22> H 	 -28.7661 	 57.2375 	 110.761
| 23> S 	 -35.4925 	 60.5762 	 115.277
| 24> C 	 -35.8292 	 61.7073 	 116.616
| 25> C 	 -34.8258 	 62.6408 	 116.755
| 26> C 	 -33.8501 	 62.5437 	 115.695
| 27> C 	 -34.0816 	 61.4189 	 114.845
| 28> H 	 -34.8309 	 63.379 	 117.538
| 29> C 	 -32.7255 	 63.5158 	 115.54
| 30> H 	 -31.6842 	 63.1423 	 115.446
| 31> H 	 -32.834 	 64.0906 	 116.427
| 32> C 	 -32.9162 	 64.4316 	 114.266
| 33> H 	 -33.9483 	 64.8286 	 114.255
| 34> H 	 -32.7964 	 63.6645 	 113.484
| 35> C 	 -31.9847 	 65.614 	 114.089
| 36> H 	 -31.8963 	 65.8036 	 113.059
| 37> H 	 -30.9979 	 65.3191 	 114.493
| 38> H 	 -32.3764 	 66.5144 	 114.688
| 39> H 	 -32.5579 	 59.3928 	 110.633
| 40> H 	 -36.6101 	 61.6224 	 117.392
| 41> *
| 42>
| 43>                          ****END OF INPUT****

CARTESIAN COORDINATES (ANGSTROEM)
---------------------------------
  S    -34.250500   60.058300  112.429000
  C    -32.774300   59.803300  111.586000
  C    -31.692500   59.879500  112.481000
  C    -31.977300   60.506500  113.701000
  C    -33.345100   60.826000  113.739000
  H    -31.383400   60.848100  114.554000
  C    -30.300500   59.400300  112.159000
  H    -29.606200   60.051600  112.754000
  H    -30.131600   59.585900  111.091000
  C    -30.231300   57.792400  112.297000
  H    -30.287400   57.509400  113.377000
  H    -31.157700   57.437600  111.806000
  C    -28.983300   57.113600  111.808000
  H    -28.154900   57.504400  112.324000
  H    -28.980300   56.088100  111.869000
  H    -28.766100   57.237500  110.761000
  S    -35.492500   60.576200  115.277000
  C    -35.829200   61.707300  116.616000
  C    -34.825800   62.640800  116.755000
  C    -33.850100   62.543700  115.695000
  C    -34.081600   61.418900  114.845000
  H    -34.830900   63.379000  117.538000
  C    -32.725500   63.515800  115.540000
  H    -31.684200   63.142300  115.446000
  H    -32.834000   64.090600  116.427000
  C    -32.916200   64.431600  114.266000
  H    -33.948300   64.828600  114.255000
  H    -32.796400   63.664500  113.484000
  C    -31.984700   65.614000  114.089000
  H    -31.896300   65.803600  113.059000
  H    -30.997900   65.319100  114.493000
  H    -32.376400   66.514400  114.688000
  H    -32.557900   59.392800  110.633000
  H    -36.610100   61.622400  117.392000

 Total Charge           Charge          ....    0
 Multiplicity           Mult            ....    1
 Number of Electrons    NEL             ....  134
 Basis Dimension        Dim             ....  322

ORBITAL ENERGIES
----------------

  NO   OCC          E(Eh)            E(eV)
   0   2.0000     -88.972051     -2421.0526
   1   2.0000     -88.967992     -2420.9421
   2   2.0000     -10.331978      -281.1474
   3   2.0000     -10.325256      -280.9645
   4   2.0000     -10.318818      -280.7893
   5   2.0000     -10.309301      -280.5303
   6   2.0000     -10.304760      -280.4068
   7   2.0000     -10.300355      -280.2869
   8   2.0000     -10.298446      -280.2350
   9   2.0000     -10.297406      -280.2067
  10   2.0000     -10.297129      -280.1991
  11   2.0000     -10.294613      -280.1307
  12   2.0000     -10.289016      -279.9784
  13   2.0000     -10.281753      -279.7807
  14   2.0000     -10.278335      -279.6877
  15   2.0000     -10.264942      -279.3233
  16   2.0000      -8.086563      -220.0466
  17   2.0000      -8.082912      -219.9472
  18   2.0000      -6.045007      -164.4930
  19   2.0000      -6.041440      -164.3959
  20   2.0000      -6.041327      -164.3929
  21   2.0000      -6.037325      -164.2840
  22   2.0000      -6.037176      -164.2799
  23   2.0000      -6.033708      -164.1856
  24   2.0000      -1.010585       -27.4994
  25   2.0000      -0.984435       -26.7879
  26   2.0000      -0.907837       -24.7035
  27   2.0000      -0.903527       -24.5862
  28   2.0000      -0.872398       -23.7392
  29   2.0000      -0.857818       -23.3424
  30   2.0000      -0.848075       -23.0773
  31   2.0000      -0.819090       -22.2886
  32   2.0000      -0.779542       -21.2124
  33   2.0000      -0.763798       -20.7840
  34   2.0000      -0.705840       -19.2069
  35   2.0000      -0.702413       -19.1136
  36   2.0000      -0.683131       -18.5889
  37   2.0000      -0.665338       -18.1048
  38   2.0000      -0.639990       -17.4150
  39   2.0000      -0.616085       -16.7645
  40   2.0000      -0.592135       -16.1128
  41   2.0000      -0.568981       -15.4828
  42   2.0000      -0.564682       -15.3658
  43   2.0000      -0.553155       -15.0521
  44   2.0000      -0.527259       -14.3475
  45   2.0000      -0.521622       -14.1940
  46   2.0000      -0.520105       -14.1528
  47   2.0000      -0.511116       -13.9082
  48   2.0000      -0.505428       -13.7534
  49   2.0000      -0.501371       -13.6430
  50   2.0000      -0.496788       -13.5183
  51   2.0000      -0.486393       -13.2354
  52   2.0000      -0.476614       -12.9693
  53   2.0000      -0.462097       -12.5743
  54   2.0000      -0.457361       -12.4454
  55   2.0000      -0.451035       -12.2733
  56   2.0000      -0.445325       -12.1179
  57   2.0000      -0.433294       -11.7905
  58   2.0000      -0.430192       -11.7061
  59   2.0000      -0.424772       -11.5586
  60   2.0000      -0.418376       -11.3846
  61   2.0000      -0.416827       -11.3424
  62   2.0000      -0.408907       -11.1269
  63   2.0000      -0.353376        -9.6158
  64   2.0000      -0.336407        -9.1541
  65   2.0000      -0.324021        -8.8171
  66   2.0000      -0.278282        -7.5725
  67   0.0000       0.019565         0.5324
  68   0.0000       0.064417         1.7529
  69   0.0000       0.094529         2.5723
  70   0.0000       0.121873         3.3163
  71   0.0000       0.141449         3.8490

MULLIKEN ATOMIC CHARGES
-----------------------
   0 S :    0.121657
   1 C :   -0.063142
   2 C :   -0.124612
   3 C :    0.030684
   4 C :   -0.156098
   5 H :    0.026523
   6 C :    0.052628
   7 H :    0.034786
   8 H :    0.022024
   9 C :   -0.099820
  10 H :    0.036539
  11 H :    0.032781
  12 C :    0.027483
  13 H :    0.017911
  14 H :    0.015577
  15 H :    0.010105
  16 S :    0.102693
  17 C :   -0.096491
  18 C :   -0.029760
  19 C :   -0.061608
  20 C :   -0.150064
  21 H :    0.019545
  22 C :    0.079459
  23 H :    0.033331
  24 H :   -0.003509
  25 C :   -0.132897
  26 H :    0.034612
  27 H :    0.043764
  28 C :   -0.014201
  29 H :    0.033906
  30 H :    0.019826
  31 H :    0.046851
  32 H :    0.026682
  33 H :    0.062835
Sum of atomic charges:   -0.0000000

LOEWDIN ATOMIC CHARGES
----------------------
   0 S :    0.417331
   1 C :   -0.212393
   2 C :   -0.060853
   3 C :   -0.063002
   4 C :   -0.184261
   5 H :    0.040301
   6 C :   -0.034925
   7 H :    0.032348
   8 H :    0.029373
   9 C :   -0.036368
  10 H :    0.029558
  11 H :    0.025203
  12 C :   -0.061942
  13 H :    0.022780
  14 H :    0.019340
  15 H :    0.022010
  16 S :    0.417641
  17 C :   -0.189767
  18 C :   -0.063464
  19 C :   -0.063116
  20 C :   -0.212059
  21 H :    0.031828
  22 C :   -0.036041
  23 H :    0.029033
  24 H :    0.019990
  25 C :   -0.043999
  26 H :    0.025506
  27 H :    0.026012
  28 C :   -0.066123
  29 H :    0.022879
  30 H :    0.023324
  31 H :    0.036206
  32 H :    0.021749
  33 H :    0.035899

  Mayer bond orders larger than 0.100000
B(  0-S ,  1-C ) :   1.1368 B(  0-S ,  4-C ) :   1.1608 B(  1-C ,  2-C ) :   1.5788
B(  1-C ,  4-C ) :   0.1102 B(  1-C , 32-H ) :   0.9677 B(  2-C ,  3-C ) :   1.2536
B(  2-C ,  6-C ) :   1.0366 B(  3-C ,  4-C ) :   1.5292 B(  3-C ,  5-H ) :   0.9953
B(  4-C , 20-C ) :   1.0614 B(  6-C ,  7-H ) :   0.9471 B(  6-C ,  8-H ) :   0.9392
B(  6-C ,  9-C ) :   1.0333 B(  9-C , 10-H ) :   0.9571 B(  9-C , 11-H ) :   0.9593
B(  9-C , 12-C ) :   1.0896 B( 12-C , 13-H ) :   0.9691 B( 12-C , 14-H ) :   0.9694
B( 12-C , 15-H ) :   0.9687 B( 16-S , 17-C ) :   1.1391 B( 16-S , 20-C ) :   1.1655
B( 17-C , 18-C ) :   1.6182 B( 17-C , 33-H ) :   0.9617 B( 18-C , 19-C ) :   1.2629
B( 18-C , 21-H ) :   0.9843 B( 19-C , 20-C ) :   1.5417 B( 19-C , 22-C ) :   1.0572
B( 22-C , 23-H ) :   0.9353 B( 22-C , 24-H ) :   0.9233 B( 22-C , 25-C ) :   1.0504
B( 25-C , 26-H ) :   0.9574 B( 25-C , 27-H ) :   0.9614 B( 25-C , 28-C ) :   1.0805
B( 28-C , 29-H ) :   0.9722 B( 28-C , 30-H ) :   0.9709 B( 28-C , 31-H ) :   0.9754

Dispersion correction           -0.013969658
FINAL SINGLE POINT ENERGY     -1339.854200943269

DIPOLE MOMENT
-------------
                                X             Y             Z
Electronic contribution:    -24.15402      -5.59819       4.40306
Nuclear contribution   :     24.70109       5.64360      -4.28185
                        -----------------------------------------
Total Dipole Moment    :      0.54707       0.04541       0.12120
                        -----------------------------------------
Magnitude (a.u.)       :      0.56217
Magnitude (Debye)      :      1.42892

Rotational constants in cm-1:     0.019303     0.007978     0.006563
Rotational constants in MHz :   578.693634   239.163311   196.767852

                             ****ORCA TERMINATED NORMALLY****
TOTAL RUN TIME: 0 days 0 hours 0 minutes 28 seconds 176 msec
