                         Program Version 4.2.1 -  RELEASE  -
|  1> ! wB97X-D3 SP def2-SVP
|  2> %pal
|  3> nprocs 16
|  4> end
|  5>
|  6> * xyz 0 1
|  7> S 	 -34.8328 	 58.2564 	 109.62
|  8> C 	 -33.9909 	 59.6719 	 110.064
|  9> C 	 -32.6652 	 59.4283 	 110.282
| 10> C 	 -32.3106 	 58.0577 	 109.987
| 11> C 	 -33.3979 	 57.3098 	 109.563
| 12> H 	 -31.4139 	 57.5108 	 110.165
| 13> C 	 -31.7328 	 60.5303 	 110.822
| 14> H 	 -31.919 	 61.4232 	 110.24
| 15> H 	 -30.7403 	 60.2187 	 110.612
| 16> C 	 -32.0058 	 60.7766 	 112.417
| 17> H 	 -33.0787 	 60.8821 	 112.577
| 18> H 	 -31.6422 	 60.1344 	 113.142
| 19> C 	 -31.4249 	 62.114 	 112.846
| 20> H 	 -31.3744 	 62.2386 	 113.92
| 21> H 	 -30.3773 	 62.1969 	 112.517
| 22> H 	 -32.0552 	 62.9126 	 112.409
| 23> S 	 -34.3993 	 54.9393 	 110.603
| 24> C 	 -33.7079 	 53.4255 	 110.157
| 25> C 	 -32.808 	 53.5823 	 109.104
| 26> C 	 -32.5829 	 54.9508 	 108.72
| 27> C 	 -33.377 	 55.8401 	 109.451
| 28> H 	 -32.3145 	 52.6463 	 108.742
| 29> C 	 -31.57 	 55.3319 	 107.691
| 30> H 	 -30.635 	 55.007 	 108.139
| 31> H 	 -31.4395 	 56.4467 	 107.65
| 32> C 	 -31.8074 	 54.7567 	 106.317
| 33> H 	 -32.6778 	 55.1615 	 105.823
| 34> H 	 -31.9888 	 53.6484 	 106.4
| 35> C 	 -30.6182 	 54.9802 	 105.398
| 36> H 	 -30.5756 	 56.0931 	 105.247
| 37> H 	 -30.8591 	 54.436 	 104.456
| 38> H 	 -29.667 	 54.6091 	 105.751
| 39> H 	 -34.3831 	 60.6832 	 110.097
| 40> H 	 -33.9001 	 52.463 	 110.644
| 41> *
| 42>
| 43>                          ****END OF INPUT****

CARTESIAN COORDINATES (ANGSTROEM)
---------------------------------
  S    -34.832800   58.256400  109.620000
  C    -33.990900   59.671900  110.064000
  C    -32.665200   59.428300  110.282000
  C    -32.310600   58.057700  109.987000
  C    -33.397900   57.309800  109.563000
  H    -31.413900   57.510800  110.165000
  C    -31.732800   60.530300  110.822000
  H    -31.919000   61.423200  110.240000
  H    -30.740300   60.218700  110.612000
  C    -32.005800   60.776600  112.417000
  H    -33.078700   60.882100  112.577000
  H    -31.642200   60.134400  113.142000
  C    -31.424900   62.114000  112.846000
  H    -31.374400   62.238600  113.920000
  H    -30.377300   62.196900  112.517000
  H    -32.055200   62.912600  112.409000
  S    -34.399300   54.939300  110.603000
  C    -33.707900   53.425500  110.157000
  C    -32.808000   53.582300  109.104000
  C    -32.582900   54.950800  108.720000
  C    -33.377000   55.840100  109.451000
  H    -32.314500   52.646300  108.742000
  C    -31.570000   55.331900  107.691000
  H    -30.635000   55.007000  108.139000
  H    -31.439500   56.446700  107.650000
  C    -31.807400   54.756700  106.317000
  H    -32.677800   55.161500  105.823000
  H    -31.988800   53.648400  106.400000
  C    -30.618200   54.980200  105.398000
  H    -30.575600   56.093100  105.247000
  H    -30.859100   54.436000  104.456000
  H    -29.667000   54.609100  105.751000
  H    -34.383100   60.683200  110.097000
  H    -33.900100   52.463000  110.644000

 Total Charge           Charge          ....    0
 Multiplicity           Mult            ....    1
 Number of Electrons    NEL             ....  134
 Basis Dimension        Dim             ....  322

ORBITAL ENERGIES
----------------

  NO   OCC          E(Eh)            E(eV)
   0   2.0000     -88.965831     -2420.8833
   1   2.0000     -88.962274     -2420.7866
   2   2.0000     -10.329096      -281.0690
   3   2.0000     -10.326807      -281.0067
   4   2.0000     -10.317539      -280.7545
   5   2.0000     -10.307069      -280.4696
   6   2.0000     -10.305206      -280.4189
   7   2.0000     -10.300108      -280.2802
   8   2.0000     -10.298986      -280.2497
   9   2.0000     -10.297242      -280.2022
  10   2.0000     -10.293010      -280.0870
  11   2.0000     -10.289679      -279.9964
  12   2.0000     -10.285226      -279.8752
  13   2.0000     -10.284894      -279.8662
  14   2.0000     -10.280396      -279.7438
  15   2.0000     -10.276084      -279.6264
  16   2.0000      -8.081721      -219.9148
  17   2.0000      -8.077034      -219.7873
  18   2.0000      -6.040130      -164.3603
  19   2.0000      -6.036000      -164.2479
  20   2.0000      -6.035529      -164.2351
  21   2.0000      -6.032577      -164.1548
  22   2.0000      -6.031461      -164.1244
  23   2.0000      -6.027878      -164.0269
  24   2.0000      -1.008935       -27.4545
  25   2.0000      -0.984727       -26.7958
  26   2.0000      -0.913663       -24.8620
  27   2.0000      -0.904019       -24.5996
  28   2.0000      -0.869307       -23.6551
  29   2.0000      -0.853918       -23.2363
  30   2.0000      -0.847301       -23.0562
  31   2.0000      -0.813292       -22.1308
  32   2.0000      -0.779051       -21.1990
  33   2.0000      -0.767774       -20.8922
  34   2.0000      -0.701600       -19.0915
  35   2.0000      -0.699584       -19.0367
  36   2.0000      -0.693639       -18.8749
  37   2.0000      -0.656218       -17.8566
  38   2.0000      -0.643856       -17.5202
  39   2.0000      -0.613910       -16.7053
  40   2.0000      -0.594222       -16.1696
  41   2.0000      -0.570928       -15.5357
  42   2.0000      -0.562882       -15.3168
  43   2.0000      -0.560282       -15.2460
  44   2.0000      -0.529965       -14.4211
  45   2.0000      -0.524222       -14.2648
  46   2.0000      -0.517890       -14.0925
  47   2.0000      -0.512933       -13.9576
  48   2.0000      -0.508134       -13.8270
  49   2.0000      -0.501413       -13.6441
  50   2.0000      -0.497790       -13.5455
  51   2.0000      -0.473874       -12.8948
  52   2.0000      -0.468296       -12.7430
  53   2.0000      -0.459979       -12.5167
  54   2.0000      -0.459358       -12.4998
  55   2.0000      -0.446589       -12.1523
  56   2.0000      -0.441197       -12.0056
  57   2.0000      -0.441106       -12.0031
  58   2.0000      -0.433882       -11.8065
  59   2.0000      -0.424337       -11.5468
  60   2.0000      -0.420179       -11.4336
  61   2.0000      -0.415637       -11.3101
  62   2.0000      -0.411679       -11.2024
  63   2.0000      -0.347557        -9.4575
  64   2.0000      -0.328631        -8.9425
  65   2.0000      -0.326281        -8.8786
  66   2.0000      -0.292727        -7.9655
  67   0.0000       0.038528         1.0484
  68   0.0000       0.066544         1.8108
  69   0.0000       0.122731         3.3397
  70   0.0000       0.125302         3.4096
  71   0.0000       0.131792         3.5862

MULLIKEN ATOMIC CHARGES
-----------------------
   0 S :    0.123233
   1 C :   -0.113751
   2 C :   -0.108199
   3 C :    0.046362
   4 C :   -0.166346
   5 H :    0.007275
   6 C :    0.092166
   7 H :    0.030084
   8 H :    0.014903
   9 C :   -0.045014
  10 H :    0.028337
  11 H :    0.022662
  12 C :   -0.075042
  13 H :    0.030418
  14 H :    0.029784
  15 H :    0.033347
  16 S :    0.101744
  17 C :   -0.105307
  18 C :   -0.062234
  19 C :   -0.026159
  20 C :   -0.158950
  21 H :    0.035937
  22 C :    0.068890
  23 H :    0.023932
  24 H :    0.025850
  25 C :   -0.091107
  26 H :    0.034908
  27 H :    0.029600
  28 C :   -0.046630
  29 H :    0.037925
  30 H :    0.039600
  31 H :    0.028293
  32 H :    0.047763
  33 H :    0.065726
Sum of atomic charges:    0.0000000

LOEWDIN ATOMIC CHARGES
----------------------
   0 S :    0.436883
   1 C :   -0.213926
   2 C :   -0.064853
   3 C :   -0.060146
   4 C :   -0.209409
   5 H :    0.028032
   6 C :   -0.016305
   7 H :    0.031813
   8 H :    0.023222
   9 C :   -0.029506
  10 H :    0.024492
  11 H :    0.016843
  12 C :   -0.069060
  13 H :    0.022445
  14 H :    0.023579
  15 H :    0.024120
  16 S :    0.399203
  17 C :   -0.196865
  18 C :   -0.082845
  19 C :   -0.055562
  20 C :   -0.190503
  21 H :    0.038267
  22 C :   -0.039089
  23 H :    0.032426
  24 H :    0.034096
  25 C :   -0.042689
  26 H :    0.027517
  27 H :    0.025227
  28 C :   -0.065163
  29 H :    0.030550
  30 H :    0.031259
  31 H :    0.019078
  32 H :    0.031335
  33 H :    0.035535

  Mayer bond orders larger than 0.100000
B(  0-S ,  1-C ) :   1.1467 B(  0-S ,  4-C ) :   1.1707 B(  1-C ,  2-C ) :   1.6055
B(  1-C , 32-H ) :   0.9676 B(  2-C ,  3-C ) :   1.2509 B(  2-C ,  6-C ) :   1.0200
B(  3-C ,  4-C ) :   1.5554 B(  3-C ,  5-H ) :   0.9972 B(  4-C , 20-C ) :   1.0218
B(  6-C ,  7-H ) :   0.9500 B(  6-C ,  8-H ) :   0.9412 B(  6-C ,  9-C ) :   1.0368
B(  9-C , 10-H ) :   0.9653 B(  9-C , 11-H ) :   0.9640 B(  9-C , 12-C ) :   1.0795
B( 12-C , 13-H ) :   0.9761 B( 12-C , 14-H ) :   0.9730 B( 12-C , 15-H ) :   0.9805
B( 16-S , 17-C ) :   1.1656 B( 16-S , 20-C ) :   1.1326 B( 17-C , 18-C ) :   1.6134
B( 17-C , 33-H ) :   0.9648 B( 18-C , 19-C ) :   1.2251 B( 18-C , 21-H ) :   0.9831
B( 19-C , 20-C ) :   1.6063 B( 19-C , 22-C ) :   1.0458 B( 22-C , 23-H ) :   0.9298
B( 22-C , 24-H ) :   0.9280 B( 22-C , 25-C ) :   1.0644 B( 25-C , 26-H ) :   0.9518
B( 25-C , 27-H ) :   0.9557 B( 25-C , 28-C ) :   1.0862 B( 28-C , 29-H ) :   0.9730
B( 28-C , 30-H ) :   0.9735 B( 28-C , 31-H ) :   0.9765

Dispersion correction           -0.013338438
FINAL SINGLE POINT ENERGY     -1339.880333053382

DIPOLE MOMENT
-------------
                                X             Y             Z
Electronic contribution:    -19.98238     -10.52883       4.71027
Nuclear contribution   :     20.58328      10.59611      -4.67346
                        -----------------------------------------
Total Dipole Moment    :      0.60091       0.06728       0.03681
                        -----------------------------------------
Magnitude (a.u.)       :      0.60578
Magnitude (Debye)      :      1.53978

Rotational constants in cm-1:     0.019872     0.007126     0.006103
Rotational constants in MHz :   595.761218   213.621752   182.959445

                             ****ORCA TERMINATED NORMALLY****
TOTAL RUN TIME: 0 days 0 hours 0 minutes 28 seconds 728 msec
