                         Program Version 4.2.1 -  RELEASE  -
|  1> ! wB97X-D3 SP def2-SVP
|  2> %pal
|  3> nprocs 16
|  4> end
|  5>
|  6> * xyz 0 1
|  7> S 	 -42.3755 	 38.3077 	 77.3761
|  8> C 	 -42.5746 	 38.2625 	 79.0769
|  9> C 	 -41.3691 	 37.9868 	 79.6848
| 10> C 	 -40.362 	 37.5547 	 78.7752
| 11> C 	 -40.7949 	 37.5785 	 77.4556
| 12> H 	 -39.3086 	 37.4053 	 78.9261
| 13> C 	 -41.0886 	 37.9262 	 81.1926
| 14> H 	 -41.9018 	 38.2955 	 81.8252
| 15> H 	 -40.3452 	 38.6404 	 81.2669
| 16> C 	 -40.7034 	 36.591 	 81.7873
| 17> H 	 -39.7345 	 36.2157 	 81.3661
| 18> H 	 -40.5147 	 36.7229 	 82.8207
| 19> C 	 -41.8502 	 35.5957 	 81.5935
| 20> H 	 -42.4598 	 35.4293 	 82.432
| 21> H 	 -42.5302 	 35.8815 	 80.8129
| 22> H 	 -41.5598 	 34.6217 	 81.3706
| 23> S 	 -39.6902 	 39.0983 	 75.4307
| 24> C 	 -38.4292 	 38.4537 	 74.3903
| 25> C 	 -38.0639 	 37.1966 	 74.8805
| 26> C 	 -38.8672 	 36.645 	 75.9221
| 27> C 	 -39.8543 	 37.5311 	 76.3046
| 28> H 	 -37.2132 	 36.6769 	 74.5767
| 29> C 	 -38.608 	 35.2546 	 76.4873
| 30> H 	 -38.6005 	 35.2259 	 77.5773
| 31> H 	 -37.5752 	 34.9571 	 76.2387
| 32> C 	 -39.5345 	 34.2308 	 75.8007
| 33> H 	 -40.4857 	 34.5352 	 76.2408
| 34> H 	 -39.4117 	 33.2706 	 76.199
| 35> C 	 -39.4921 	 34.1327 	 74.2632
| 36> H 	 -39.9225 	 35.0678 	 73.8859
| 37> H 	 -40.1981 	 33.3766 	 73.8212
| 38> H 	 -38.4636 	 34.0466 	 73.8849
| 39> H 	 -43.3952 	 38.5879 	 79.6328
| 40> H 	 -37.8028 	 39.0211 	 73.6695
| 41> *
| 42>
| 43>                          ****END OF INPUT****

CARTESIAN COORDINATES (ANGSTROEM)
---------------------------------
  S    -42.375500   38.307700   77.376100
  C    -42.574600   38.262500   79.076900
  C    -41.369100   37.986800   79.684800
  C    -40.362000   37.554700   78.775200
  C    -40.794900   37.578500   77.455600
  H    -39.308600   37.405300   78.926100
  C    -41.088600   37.926200   81.192600
  H    -41.901800   38.295500   81.825200
  H    -40.345200   38.640400   81.266900
  C    -40.703400   36.591000   81.787300
  H    -39.734500   36.215700   81.366100
  H    -40.514700   36.722900   82.820700
  C    -41.850200   35.595700   81.593500
  H    -42.459800   35.429300   82.432000
  H    -42.530200   35.881500   80.812900
  H    -41.559800   34.621700   81.370600
  S    -39.690200   39.098300   75.430700
  C    -38.429200   38.453700   74.390300
  C    -38.063900   37.196600   74.880500
  C    -38.867200   36.645000   75.922100
  C    -39.854300   37.531100   76.304600
  H    -37.213200   36.676900   74.576700
  C    -38.608000   35.254600   76.487300
  H    -38.600500   35.225900   77.577300
  H    -37.575200   34.957100   76.238700
  C    -39.534500   34.230800   75.800700
  H    -40.485700   34.535200   76.240800
  H    -39.411700   33.270600   76.199000
  C    -39.492100   34.132700   74.263200
  H    -39.922500   35.067800   73.885900
  H    -40.198100   33.376600   73.821200
  H    -38.463600   34.046600   73.884900
  H    -43.395200   38.587900   79.632800
  H    -37.802800   39.021100   73.669500

 Total Charge           Charge          ....    0
 Multiplicity           Mult            ....    1
 Number of Electrons    NEL             ....  134
 Basis Dimension        Dim             ....  322

ORBITAL ENERGIES
----------------

  NO   OCC          E(Eh)            E(eV)
   0   2.0000     -88.968235     -2420.9487
   1   2.0000     -88.965095     -2420.8633
   2   2.0000     -10.332602      -281.1644
   3   2.0000     -10.330776      -281.1147
   4   2.0000     -10.321750      -280.8691
   5   2.0000     -10.309533      -280.5367
   6   2.0000     -10.302956      -280.3577
   7   2.0000     -10.301833      -280.3271
   8   2.0000     -10.296286      -280.1762
   9   2.0000     -10.293830      -280.1094
  10   2.0000     -10.290266      -280.0124
  11   2.0000     -10.285388      -279.8796
  12   2.0000     -10.285249      -279.8759
  13   2.0000     -10.280260      -279.7401
  14   2.0000     -10.279411      -279.7170
  15   2.0000     -10.260501      -279.2024
  16   2.0000      -8.083516      -219.9637
  17   2.0000      -8.078843      -219.8365
  18   2.0000      -6.041962      -164.4102
  19   2.0000      -6.037942      -164.3008
  20   2.0000      -6.037509      -164.2890
  21   2.0000      -6.034297      -164.2016
  22   2.0000      -6.033491      -164.1796
  23   2.0000      -6.029471      -164.0702
  24   2.0000      -1.008846       -27.4521
  25   2.0000      -0.983495       -26.7623
  26   2.0000      -0.915695       -24.9173
  27   2.0000      -0.907195       -24.6860
  28   2.0000      -0.868464       -23.6321
  29   2.0000      -0.849934       -23.1279
  30   2.0000      -0.841621       -22.9017
  31   2.0000      -0.811474       -22.0813
  32   2.0000      -0.787143       -21.4192
  33   2.0000      -0.778763       -21.1912
  34   2.0000      -0.710102       -19.3228
  35   2.0000      -0.704293       -19.1648
  36   2.0000      -0.689642       -18.7661
  37   2.0000      -0.665177       -18.1004
  38   2.0000      -0.646017       -17.5790
  39   2.0000      -0.618281       -16.8243
  40   2.0000      -0.592826       -16.1316
  41   2.0000      -0.568971       -15.4825
  42   2.0000      -0.562191       -15.2980
  43   2.0000      -0.551712       -15.0128
  44   2.0000      -0.547190       -14.8898
  45   2.0000      -0.539612       -14.6836
  46   2.0000      -0.514536       -14.0012
  47   2.0000      -0.509703       -13.8697
  48   2.0000      -0.501385       -13.6434
  49   2.0000      -0.489548       -13.3213
  50   2.0000      -0.486152       -13.2289
  51   2.0000      -0.478572       -13.0226
  52   2.0000      -0.475617       -12.9422
  53   2.0000      -0.464823       -12.6485
  54   2.0000      -0.458554       -12.4779
  55   2.0000      -0.451419       -12.2837
  56   2.0000      -0.445640       -12.1265
  57   2.0000      -0.443128       -12.0581
  58   2.0000      -0.431447       -11.7403
  59   2.0000      -0.420766       -11.4496
  60   2.0000      -0.417599       -11.3634
  61   2.0000      -0.414759       -11.2862
  62   2.0000      -0.408044       -11.1034
  63   2.0000      -0.348183        -9.4746
  64   2.0000      -0.332083        -9.0364
  65   2.0000      -0.326935        -8.8963
  66   2.0000      -0.295236        -8.0338
  67   0.0000       0.028581         0.7777
  68   0.0000       0.062482         1.7002
  69   0.0000       0.104922         2.8551
  70   0.0000       0.124577         3.3899
  71   0.0000       0.133731         3.6390

MULLIKEN ATOMIC CHARGES
-----------------------
   0 S :    0.112790
   1 C :   -0.070240
   2 C :   -0.110273
   3 C :    0.025704
   4 C :   -0.145475
   5 H :    0.022299
   6 C :    0.075501
   7 H :    0.015643
   8 H :    0.013431
   9 C :   -0.043774
  10 H :    0.027823
  11 H :    0.022547
  12 C :   -0.009015
  13 H :    0.010797
  14 H :    0.025993
  15 H :    0.008593
  16 S :    0.091782
  17 C :   -0.090900
  18 C :   -0.018499
  19 C :   -0.066959
  20 C :   -0.162736
  21 H :   -0.009058
  22 C :    0.080717
  23 H :    0.030839
  24 H :    0.008827
  25 C :   -0.048813
  26 H :    0.026155
  27 H :    0.012449
  28 C :   -0.063276
  29 H :    0.043499
  30 H :    0.046829
  31 H :    0.036204
  32 H :    0.025571
  33 H :    0.075026
Sum of atomic charges:    0.0000000

LOEWDIN ATOMIC CHARGES
----------------------
   0 S :    0.428070
   1 C :   -0.200583
   2 C :   -0.058894
   3 C :   -0.057205
   4 C :   -0.203226
   5 H :    0.031654
   6 C :   -0.029087
   7 H :    0.029500
   8 H :    0.022780
   9 C :   -0.034858
  10 H :    0.024624
  11 H :    0.022087
  12 C :   -0.062007
  13 H :    0.020915
  14 H :    0.026551
  15 H :    0.019924
  16 S :    0.383408
  17 C :   -0.195099
  18 C :   -0.062594
  19 C :   -0.061940
  20 C :   -0.175464
  21 H :    0.016847
  22 C :   -0.026648
  23 H :    0.031309
  24 H :    0.025497
  25 C :   -0.038282
  26 H :    0.026819
  27 H :    0.012934
  28 C :   -0.070346
  29 H :    0.029962
  30 H :    0.036357
  31 H :    0.025648
  32 H :    0.020297
  33 H :    0.041048

  Mayer bond orders larger than 0.100000
B(  0-S ,  1-C ) :   1.1458 B(  0-S ,  4-C ) :   1.1639 B(  1-C ,  2-C ) :   1.5930
B(  1-C , 32-H ) :   0.9745 B(  2-C ,  3-C ) :   1.2496 B(  2-C ,  6-C ) :   1.0165
B(  3-C ,  4-C ) :   1.5544 B(  3-C ,  5-H ) :   0.9911 B(  4-C , 20-C ) :   1.0203
B(  6-C ,  7-H ) :   0.9465 B(  6-C ,  8-H ) :   0.9285 B(  6-C ,  9-C ) :   1.0894
B(  9-C , 10-H ) :   0.9562 B(  9-C , 11-H ) :   0.9558 B(  9-C , 12-C ) :   1.0586
B( 12-C , 13-H ) :   0.9714 B( 12-C , 14-H ) :   0.9794 B( 12-C , 15-H ) :   0.9715
B( 16-S , 17-C ) :   1.1412 B( 16-S , 20-C ) :   1.1431 B( 17-C , 18-C ) :   1.5974
B( 17-C , 33-H ) :   0.9638 B( 18-C , 19-C ) :   1.2620 B( 18-C , 21-H ) :   0.9882
B( 19-C , 20-C ) :   1.6086 B( 19-C , 22-C ) :   1.0332 B( 22-C , 23-H ) :   0.9400
B( 22-C , 24-H ) :   0.9324 B( 22-C , 25-C ) :   1.0624 B( 25-C , 26-H ) :   0.9585
B( 25-C , 27-H ) :   0.9584 B( 25-C , 28-C ) :   1.0685 B( 28-C , 29-H ) :   0.9703
B( 28-C , 30-H ) :   0.9730 B( 28-C , 31-H ) :   0.9748

Dispersion correction           -0.015023334
FINAL SINGLE POINT ENERGY     -1339.862758290476

DIPOLE MOMENT
-------------
                                X             Y             Z
Electronic contribution:     -4.15371      20.41434     -12.20854
Nuclear contribution   :      4.55687     -20.65398      12.72959
                        -----------------------------------------
Total Dipole Moment    :      0.40315      -0.23963       0.52106
                        -----------------------------------------
Magnitude (a.u.)       :      0.70104
Magnitude (Debye)      :      1.78190

Rotational constants in cm-1:     0.020104     0.008795     0.007248
Rotational constants in MHz :   602.697511   263.658688   217.284809

                             ****ORCA TERMINATED NORMALLY****
TOTAL RUN TIME: 0 days 0 hours 0 minutes 29 seconds 358 msec
