                         Program Version 4.2.1 -  RELEASE  -
|  1> ! wB97X-D3 SP def2-SVP
|  2> %pal
|  3> nprocs 16
|  4> end
|  5>
|  6> * xyz 0 1
|  7> S 	 -0.787864 	 -25.9414 	 63.1194
|  8> C 	 -1.9738 	 -26.1005 	 64.3418
|  9> C 	 -3.23973 	 -26.3766 	 63.7606
| 10> C 	 -3.20166 	 -26.5164 	 62.296
| 11> C 	 -1.92355 	 -26.4577 	 61.8473
| 12> H 	 -4.04857 	 -26.7771 	 61.685
| 13> C 	 -4.57086 	 -26.3916 	 64.4876
| 14> H 	 -4.4759 	 -26.3457 	 65.5924
| 15> H 	 -5.04272 	 -27.3818 	 64.2236
| 16> C 	 -5.55493 	 -25.232 	 64.004
| 17> H 	 -5.14218 	 -24.2792 	 64.3128
| 18> H 	 -5.78368 	 -25.221 	 62.9603
| 19> C 	 -6.92524 	 -25.3544 	 64.6932
| 20> H 	 -7.7475 	 -24.7823 	 64.2671
| 21> H 	 -7.3011 	 -26.3789 	 64.3925
| 22> H 	 -6.79516 	 -25.4742 	 65.7895
| 23> S 	 -0.134436 	 -27.8049 	 60.4382
| 24> C 	 -0.254743 	 -27.8607 	 58.6986
| 25> C 	 -1.34152 	 -27.15 	 58.2356
| 26> C 	 -2.1428 	 -26.7127 	 59.3223
| 27> C 	 -1.51819 	 -26.8698 	 60.5452
| 28> H 	 -1.63067 	 -26.8312 	 57.2352
| 29> C 	 -3.25684 	 -25.7569 	 58.9083
| 30> H 	 -4.09029 	 -25.5826 	 59.6362
| 31> H 	 -3.74674 	 -26.2682 	 58.0159
| 32> C 	 -2.80785 	 -24.3672 	 58.3987
| 33> H 	 -3.29733 	 -23.8399 	 57.6115
| 34> H 	 -1.92917 	 -24.6096 	 57.8651
| 35> C 	 -2.63264 	 -23.2967 	 59.4914
| 36> H 	 -1.93025 	 -23.5636 	 60.2475
| 37> H 	 -3.55695 	 -23.145 	 59.969
| 38> H 	 -2.298 	 -22.3357 	 59.0442
| 39> H 	 -1.80563 	 -25.7593 	 65.3526
| 40> H 	 0.534874 	 -28.2357 	 58.1123
| 41> *
| 42>
| 43>                          ****END OF INPUT****

CARTESIAN COORDINATES (ANGSTROEM)
---------------------------------
  S     -0.787864  -25.941400   63.119400
  C     -1.973800  -26.100500   64.341800
  C     -3.239730  -26.376600   63.760600
  C     -3.201660  -26.516400   62.296000
  C     -1.923550  -26.457700   61.847300
  H     -4.048570  -26.777100   61.685000
  C     -4.570860  -26.391600   64.487600
  H     -4.475900  -26.345700   65.592400
  H     -5.042720  -27.381800   64.223600
  C     -5.554930  -25.232000   64.004000
  H     -5.142180  -24.279200   64.312800
  H     -5.783680  -25.221000   62.960300
  C     -6.925240  -25.354400   64.693200
  H     -7.747500  -24.782300   64.267100
  H     -7.301100  -26.378900   64.392500
  H     -6.795160  -25.474200   65.789500
  S     -0.134436  -27.804900   60.438200
  C     -0.254743  -27.860700   58.698600
  C     -1.341520  -27.150000   58.235600
  C     -2.142800  -26.712700   59.322300
  C     -1.518190  -26.869800   60.545200
  H     -1.630670  -26.831200   57.235200
  C     -3.256840  -25.756900   58.908300
  H     -4.090290  -25.582600   59.636200
  H     -3.746740  -26.268200   58.015900
  C     -2.807850  -24.367200   58.398700
  H     -3.297330  -23.839900   57.611500
  H     -1.929170  -24.609600   57.865100
  C     -2.632640  -23.296700   59.491400
  H     -1.930250  -23.563600   60.247500
  H     -3.556950  -23.145000   59.969000
  H     -2.298000  -22.335700   59.044200
  H     -1.805630  -25.759300   65.352600
  H      0.534874  -28.235700   58.112300

 Total Charge           Charge          ....    0
 Multiplicity           Mult            ....    1
 Number of Electrons    NEL             ....  134
 Basis Dimension        Dim             ....  322

ORBITAL ENERGIES
----------------

  NO   OCC          E(Eh)            E(eV)
   0   2.0000     -88.967148     -2420.9192
   1   2.0000     -88.966955     -2420.9139
   2   2.0000     -10.328024      -281.0398
   3   2.0000     -10.320538      -280.8361
   4   2.0000     -10.316378      -280.7229
   5   2.0000     -10.313252      -280.6379
   6   2.0000     -10.309830      -280.5447
   7   2.0000     -10.303430      -280.3706
   8   2.0000     -10.300705      -280.2964
   9   2.0000     -10.297823      -280.2180
  10   2.0000     -10.295560      -280.1564
  11   2.0000     -10.295217      -280.1471
  12   2.0000     -10.289762      -279.9986
  13   2.0000     -10.283911      -279.8395
  14   2.0000     -10.277702      -279.6705
  15   2.0000     -10.267956      -279.4053
  16   2.0000      -8.083431      -219.9613
  17   2.0000      -8.082086      -219.9247
  18   2.0000      -6.041775      -164.4050
  19   2.0000      -6.040746      -164.3771
  20   2.0000      -6.037629      -164.2922
  21   2.0000      -6.036520      -164.2621
  22   2.0000      -6.034302      -164.2017
  23   2.0000      -6.032722      -164.1587
  24   2.0000      -1.018775       -27.7223
  25   2.0000      -0.987083       -26.8599
  26   2.0000      -0.909679       -24.7536
  27   2.0000      -0.904419       -24.6105
  28   2.0000      -0.878167       -23.8961
  29   2.0000      -0.855955       -23.2917
  30   2.0000      -0.846374       -23.0310
  31   2.0000      -0.814808       -22.1721
  32   2.0000      -0.778069       -21.1723
  33   2.0000      -0.764013       -20.7898
  34   2.0000      -0.708988       -19.2925
  35   2.0000      -0.699446       -19.0329
  36   2.0000      -0.696762       -18.9599
  37   2.0000      -0.672196       -18.2914
  38   2.0000      -0.644020       -17.5247
  39   2.0000      -0.623084       -16.9550
  40   2.0000      -0.603773       -16.4295
  41   2.0000      -0.565011       -15.3747
  42   2.0000      -0.561000       -15.2656
  43   2.0000      -0.553599       -15.0642
  44   2.0000      -0.535089       -14.5605
  45   2.0000      -0.525447       -14.2981
  46   2.0000      -0.514198       -13.9920
  47   2.0000      -0.510859       -13.9012
  48   2.0000      -0.506822       -13.7913
  49   2.0000      -0.500115       -13.6088
  50   2.0000      -0.491575       -13.3764
  51   2.0000      -0.485706       -13.2167
  52   2.0000      -0.469158       -12.7664
  53   2.0000      -0.463149       -12.6029
  54   2.0000      -0.456494       -12.4218
  55   2.0000      -0.451653       -12.2901
  56   2.0000      -0.447322       -12.1722
  57   2.0000      -0.439056       -11.9473
  58   2.0000      -0.435462       -11.8495
  59   2.0000      -0.425978       -11.5915
  60   2.0000      -0.418766       -11.3952
  61   2.0000      -0.415100       -11.2955
  62   2.0000      -0.402316       -10.9476
  63   2.0000      -0.362676        -9.8689
  64   2.0000      -0.334581        -9.1044
  65   2.0000      -0.323061        -8.7909
  66   2.0000      -0.285704        -7.7744
  67   0.0000       0.026683         0.7261
  68   0.0000       0.076801         2.0899
  69   0.0000       0.106546         2.8993
  70   0.0000       0.113523         3.0891
  71   0.0000       0.126187         3.4337

MULLIKEN ATOMIC CHARGES
-----------------------
   0 S :    0.107941
   1 C :   -0.110501
   2 C :   -0.086206
   3 C :    0.018142
   4 C :   -0.118838
   5 H :    0.021689
   6 C :    0.012284
   7 H :    0.030599
   8 H :    0.040127
   9 C :   -0.061588
  10 H :    0.034119
  11 H :    0.027557
  12 C :   -0.064776
  13 H :    0.044614
  14 H :    0.008335
  15 H :    0.039202
  16 S :    0.122795
  17 C :   -0.078558
  18 C :   -0.022097
  19 C :   -0.029637
  20 C :   -0.138174
  21 H :    0.026750
  22 C :   -0.012298
  23 H :    0.023891
  24 H :    0.034918
  25 C :   -0.029298
  26 H :    0.016011
  27 H :   -0.006773
  28 C :   -0.027808
  29 H :    0.030015
  30 H :    0.018131
  31 H :    0.030865
  32 H :    0.054884
  33 H :    0.043682
Sum of atomic charges:   -0.0000000

LOEWDIN ATOMIC CHARGES
----------------------
   0 S :    0.399638
   1 C :   -0.216171
   2 C :   -0.055752
   3 C :   -0.053652
   4 C :   -0.180618
   5 H :    0.032283
   6 C :   -0.036206
   7 H :    0.031187
   8 H :    0.035703
   9 C :   -0.034982
  10 H :    0.022290
  11 H :    0.019858
  12 C :   -0.079097
  13 H :    0.029183
  14 H :    0.025374
  15 H :    0.028458
  16 S :    0.449810
  17 C :   -0.184983
  18 C :   -0.056832
  19 C :   -0.070991
  20 C :   -0.216927
  21 H :    0.034266
  22 C :   -0.037623
  23 H :    0.024730
  24 H :    0.039156
  25 C :   -0.045459
  26 H :    0.023332
  27 H :    0.015507
  28 C :   -0.055911
  29 H :    0.020984
  30 H :    0.017090
  31 H :    0.030004
  32 H :    0.028967
  33 H :    0.017383

  Mayer bond orders larger than 0.100000
B(  0-S ,  1-C ) :   1.1256 B(  0-S ,  4-C ) :   1.1331 B(  1-C ,  2-C ) :   1.6083
B(  1-C , 32-H ) :   0.9701 B(  2-C ,  3-C ) :   1.2136 B(  2-C ,  6-C ) :   1.0411
B(  3-C ,  4-C ) :   1.5892 B(  3-C ,  5-H ) :   0.9927 B(  4-C , 20-C ) :   1.0571
B(  6-C ,  7-H ) :   0.9491 B(  6-C ,  8-H ) :   0.9381 B(  6-C ,  9-C ) :   1.0506
B(  9-C , 10-H ) :   0.9590 B(  9-C , 11-H ) :   0.9568 B(  9-C , 12-C ) :   1.0816
B( 12-C , 13-H ) :   0.9726 B( 12-C , 14-H ) :   0.9701 B( 12-C , 15-H ) :   0.9733
B( 16-S , 17-C ) :   1.1552 B( 16-S , 20-C ) :   1.1732 B( 17-C , 18-C ) :   1.5708
B( 17-C , 33-H ) :   0.9768 B( 18-C , 19-C ) :   1.2611 B( 18-C , 21-H ) :   0.9864
B( 19-C , 20-C ) :   1.5585 B( 19-C , 22-C ) :   1.0594 B( 22-C , 23-H ) :   0.9482
B( 22-C , 24-H ) :   0.9304 B( 22-C , 25-C ) :   1.0512 B( 25-C , 26-H ) :   0.9561
B( 25-C , 27-H ) :   0.9461 B( 25-C , 28-C ) :   1.0821 B( 28-C , 29-H ) :   0.9778
B( 28-C , 30-H ) :   0.9751 B( 28-C , 31-H ) :   0.9727

Dispersion correction           -0.014588675
FINAL SINGLE POINT ENERGY     -1339.858536748140

DIPOLE MOMENT
-------------
                                X             Y             Z
Electronic contribution:     25.12689     -13.66116       0.05540
Nuclear contribution   :    -25.61921      13.91014      -0.22610
                        -----------------------------------------
Total Dipole Moment    :     -0.49232       0.24897      -0.17069
                        -----------------------------------------
Magnitude (a.u.)       :      0.57750
Magnitude (Debye)      :      1.46788

Rotational constants in cm-1:     0.019356     0.008892     0.007179
Rotational constants in MHz :   580.277101   266.564804   215.211362

                             ****ORCA TERMINATED NORMALLY****
TOTAL RUN TIME: 0 days 0 hours 0 minutes 35 seconds 908 msec
