                         Program Version 4.2.1 -  RELEASE  -
|  1> ! wB97X-D3 SP def2-SVP
|  2> %pal
|  3> nprocs 16
|  4> end
|  5>
|  6> * xyz 0 1
|  7> S 	 -12.2238 	 70.2822 	 48.2902
|  8> C 	 -12.5247 	 69.1557 	 47.0041
|  9> C 	 -13.7673 	 69.4661 	 46.3506
| 10> C 	 -14.5066 	 70.552 	 46.9712
| 11> C 	 -13.7775 	 71.0907 	 48.0058
| 12> H 	 -15.5015 	 70.8778 	 46.6597
| 13> C 	 -14.3861 	 68.6852 	 45.1983
| 14> H 	 -15.4238 	 68.9383 	 45.2088
| 15> H 	 -14.2831 	 67.6225 	 45.6081
| 16> C 	 -13.5335 	 68.8409 	 43.8646
| 17> H 	 -13.2399 	 69.8588 	 43.6354
| 18> H 	 -12.6485 	 68.3461 	 44.0602
| 19> C 	 -14.2579 	 68.2019 	 42.7081
| 20> H 	 -15.0599 	 68.8613 	 42.3503
| 21> H 	 -13.4542 	 67.9417 	 41.9707
| 22> H 	 -14.8813 	 67.3338 	 42.7841
| 23> S 	 -14.5015 	 71.5621 	 50.5788
| 24> C 	 -15.2502 	 73.0302 	 51.0473
| 25> C 	 -15.3254 	 73.9367 	 49.9694
| 26> C 	 -14.8517 	 73.396 	 48.7092
| 27> C 	 -14.3404 	 72.0793 	 48.9024
| 28> H 	 -15.738 	 74.9701 	 50.1038
| 29> C 	 -14.7798 	 74.1832 	 47.4531
| 30> H 	 -14.3252 	 73.4052 	 46.7958
| 31> H 	 -14.0585 	 75.0094 	 47.549
| 32> C 	 -16.1794 	 74.6647 	 47.025
| 33> H 	 -16.5443 	 75.4928 	 47.6529
| 34> H 	 -16.9763 	 74.0256 	 47.2692
| 35> C 	 -16.2361 	 75.0642 	 45.4717
| 36> H 	 -16.2023 	 74.1723 	 44.8363
| 37> H 	 -15.3862 	 75.6342 	 45.2651
| 38> H 	 -17.1559 	 75.61 	 45.2774
| 39> H 	 -11.8852 	 68.3579 	 46.7205
| 40> H 	 -15.5279 	 73.3495 	 52.0544
| 41> *
| 42>
| 43>                          ****END OF INPUT****

CARTESIAN COORDINATES (ANGSTROEM)
---------------------------------
  S    -12.223800   70.282200   48.290200
  C    -12.524700   69.155700   47.004100
  C    -13.767300   69.466100   46.350600
  C    -14.506600   70.552000   46.971200
  C    -13.777500   71.090700   48.005800
  H    -15.501500   70.877800   46.659700
  C    -14.386100   68.685200   45.198300
  H    -15.423800   68.938300   45.208800
  H    -14.283100   67.622500   45.608100
  C    -13.533500   68.840900   43.864600
  H    -13.239900   69.858800   43.635400
  H    -12.648500   68.346100   44.060200
  C    -14.257900   68.201900   42.708100
  H    -15.059900   68.861300   42.350300
  H    -13.454200   67.941700   41.970700
  H    -14.881300   67.333800   42.784100
  S    -14.501500   71.562100   50.578800
  C    -15.250200   73.030200   51.047300
  C    -15.325400   73.936700   49.969400
  C    -14.851700   73.396000   48.709200
  C    -14.340400   72.079300   48.902400
  H    -15.738000   74.970100   50.103800
  C    -14.779800   74.183200   47.453100
  H    -14.325200   73.405200   46.795800
  H    -14.058500   75.009400   47.549000
  C    -16.179400   74.664700   47.025000
  H    -16.544300   75.492800   47.652900
  H    -16.976300   74.025600   47.269200
  C    -16.236100   75.064200   45.471700
  H    -16.202300   74.172300   44.836300
  H    -15.386200   75.634200   45.265100
  H    -17.155900   75.610000   45.277400
  H    -11.885200   68.357900   46.720500
  H    -15.527900   73.349500   52.054400

 Total Charge           Charge          ....    0
 Multiplicity           Mult            ....    1
 Number of Electrons    NEL             ....  134
 Basis Dimension        Dim             ....  322

ORBITAL ENERGIES
----------------

  NO   OCC          E(Eh)            E(eV)
   0   2.0000     -88.970699     -2421.0158
   1   2.0000     -88.964772     -2420.8545
   2   2.0000     -10.328892      -281.0634
   3   2.0000     -10.325723      -280.9772
   4   2.0000     -10.316022      -280.7132
   5   2.0000     -10.315206      -280.6910
   6   2.0000     -10.305212      -280.4191
   7   2.0000     -10.305070      -280.4152
   8   2.0000     -10.297052      -280.1970
   9   2.0000     -10.297036      -280.1966
  10   2.0000     -10.296143      -280.1723
  11   2.0000     -10.292979      -280.0862
  12   2.0000     -10.287306      -279.9318
  13   2.0000     -10.286241      -279.9028
  14   2.0000     -10.277643      -279.6689
  15   2.0000     -10.277571      -279.6669
  16   2.0000      -8.084770      -219.9978
  17   2.0000      -8.079712      -219.8601
  18   2.0000      -6.043286      -164.4462
  19   2.0000      -6.039335      -164.3387
  20   2.0000      -6.038135      -164.3060
  21   2.0000      -6.035610      -164.2373
  22   2.0000      -6.034082      -164.1957
  23   2.0000      -6.030663      -164.1027
  24   2.0000      -1.001233       -27.2449
  25   2.0000      -0.976434       -26.5701
  26   2.0000      -0.907716       -24.7002
  27   2.0000      -0.906625       -24.6705
  28   2.0000      -0.866250       -23.5719
  29   2.0000      -0.853277       -23.2188
  30   2.0000      -0.843989       -22.9661
  31   2.0000      -0.808834       -22.0095
  32   2.0000      -0.777630       -21.1604
  33   2.0000      -0.761565       -20.7232
  34   2.0000      -0.713366       -19.4117
  35   2.0000      -0.712677       -19.3929
  36   2.0000      -0.694385       -18.8952
  37   2.0000      -0.653883       -17.7931
  38   2.0000      -0.639662       -17.4061
  39   2.0000      -0.612349       -16.6629
  40   2.0000      -0.588550       -16.0153
  41   2.0000      -0.565853       -15.3976
  42   2.0000      -0.556843       -15.1525
  43   2.0000      -0.549980       -14.9657
  44   2.0000      -0.532356       -14.4861
  45   2.0000      -0.530631       -14.4392
  46   2.0000      -0.516144       -14.0450
  47   2.0000      -0.511486       -13.9183
  48   2.0000      -0.501944       -13.6586
  49   2.0000      -0.497909       -13.5488
  50   2.0000      -0.495389       -13.4802
  51   2.0000      -0.473586       -12.8869
  52   2.0000      -0.471796       -12.8382
  53   2.0000      -0.469659       -12.7801
  54   2.0000      -0.459461       -12.5026
  55   2.0000      -0.456984       -12.4352
  56   2.0000      -0.445058       -12.1106
  57   2.0000      -0.438920       -11.9436
  58   2.0000      -0.432737       -11.7754
  59   2.0000      -0.420068       -11.4306
  60   2.0000      -0.418309       -11.3828
  61   2.0000      -0.413761       -11.2590
  62   2.0000      -0.406019       -11.0483
  63   2.0000      -0.344982        -9.3874
  64   2.0000      -0.326454        -8.8833
  65   2.0000      -0.321134        -8.7385
  66   2.0000      -0.288724        -7.8566
  67   0.0000       0.031427         0.8552
  68   0.0000       0.065416         1.7801
  69   0.0000       0.117820         3.2061
  70   0.0000       0.120240         3.2719
  71   0.0000       0.126791         3.4502

MULLIKEN ATOMIC CHARGES
-----------------------
   0 S :    0.125800
   1 C :   -0.117088
   2 C :   -0.122695
   3 C :    0.037558
   4 C :   -0.162064
   5 H :    0.027212
   6 C :    0.033630
   7 H :    0.016592
   8 H :    0.049293
   9 C :   -0.014539
  10 H :    0.037457
  11 H :    0.006258
  12 C :   -0.054570
  13 H :    0.028871
  14 H :    0.041952
  15 H :    0.020540
  16 S :    0.120509
  17 C :   -0.091307
  18 C :   -0.069010
  19 C :   -0.044399
  20 C :   -0.179027
  21 H :    0.035165
  22 C :    0.080931
  23 H :    0.031437
  24 H :    0.048953
  25 C :   -0.097908
  26 H :    0.023107
  27 H :    0.016189
  28 C :   -0.025646
  29 H :    0.035967
  30 H :    0.023814
  31 H :    0.035546
  32 H :    0.041224
  33 H :    0.060248
Sum of atomic charges:   -0.0000000

LOEWDIN ATOMIC CHARGES
----------------------
   0 S :    0.409701
   1 C :   -0.213228
   2 C :   -0.055453
   3 C :   -0.059278
   4 C :   -0.198176
   5 H :    0.037386
   6 C :   -0.034334
   7 H :    0.021279
   8 H :    0.044771
   9 C :   -0.026601
  10 H :    0.029296
  11 H :    0.013529
  12 C :   -0.077101
  13 H :    0.028972
  14 H :    0.034260
  15 H :    0.022518
  16 S :    0.423561
  17 C :   -0.207033
  18 C :   -0.081541
  19 C :   -0.053282
  20 C :   -0.203325
  21 H :    0.035995
  22 C :   -0.037305
  23 H :    0.037438
  24 H :    0.038540
  25 C :   -0.040535
  26 H :    0.025603
  27 H :    0.016908
  28 C :   -0.055356
  29 H :    0.026324
  30 H :    0.016216
  31 H :    0.026227
  32 H :    0.021010
  33 H :    0.033011

  Mayer bond orders larger than 0.100000
B(  0-S ,  1-C ) :   1.1366 B(  0-S ,  4-C ) :   1.1555 B(  1-C ,  2-C ) :   1.5803
B(  1-C , 32-H ) :   0.9753 B(  2-C ,  3-C ) :   1.2558 B(  2-C ,  6-C ) :   1.0152
B(  3-C ,  4-C ) :   1.5525 B(  3-C ,  5-H ) :   0.9893 B(  4-C , 20-C ) :   1.0371
B(  6-C ,  7-H ) :   0.9529 B(  6-C ,  8-H ) :   0.9436 B(  6-C ,  9-C ) :   1.0396
B(  9-C , 10-H ) :   0.9599 B(  9-C , 11-H ) :   0.9564 B(  9-C , 12-C ) :   1.0780
B( 12-C , 13-H ) :   0.9743 B( 12-C , 14-H ) :   0.9749 B( 12-C , 15-H ) :   0.9744
B( 16-S , 17-C ) :   1.1680 B( 16-S , 20-C ) :   1.1543 B( 17-C , 18-C ) :   1.5928
B( 17-C , 20-C ) :   0.1016 B( 17-C , 33-H ) :   0.9655 B( 18-C , 19-C ) :   1.2458
B( 18-C , 21-H ) :   0.9803 B( 19-C , 20-C ) :   1.5622 B( 19-C , 22-C ) :   1.0496
B( 22-C , 23-H ) :   0.9371 B( 22-C , 24-H ) :   0.9295 B( 22-C , 25-C ) :   1.0385
B( 25-C , 26-H ) :   0.9520 B( 25-C , 27-H ) :   0.9632 B( 25-C , 28-C ) :   1.0730
B( 28-C , 29-H ) :   0.9799 B( 28-C , 30-H ) :   0.9769 B( 28-C , 31-H ) :   0.9771

Dispersion correction           -0.013727666
FINAL SINGLE POINT ENERGY     -1339.859008660497

DIPOLE MOMENT
-------------
                                X             Y             Z
Electronic contribution:     10.43218      -3.78718      28.27650
Nuclear contribution   :    -10.73565       3.87995     -28.76245
                        -----------------------------------------
Total Dipole Moment    :     -0.30347       0.09276      -0.48595
                        -----------------------------------------
Magnitude (a.u.)       :      0.58038
Magnitude (Debye)      :      1.47522

Rotational constants in cm-1:     0.017388     0.008453     0.006171
Rotational constants in MHz :   521.268195   253.423107   185.005248

                             ****ORCA TERMINATED NORMALLY****
TOTAL RUN TIME: 0 days 0 hours 0 minutes 30 seconds 652 msec
