                         Program Version 4.2.1 -  RELEASE  -
|  1> ! wB97X-D3 SP def2-SVP
|  2> %pal
|  3> nprocs 16
|  4> end
|  5>
|  6> * xyz 0 1
|  7> S 	 26.3494 	 32.6275 	 57.165
|  8> C 	 24.9361 	 31.6894 	 56.6651
|  9> C 	 24.5928 	 32.0229 	 55.3374
| 10> C 	 25.6476 	 32.818 	 54.7367
| 11> C 	 26.7174 	 33.1561 	 55.5003
| 12> H 	 25.6542 	 33.1817 	 53.7618
| 13> C 	 23.3744 	 31.6146 	 54.5103
| 14> H 	 22.9281 	 32.5295 	 54.1505
| 15> H 	 22.5794 	 31.1273 	 55.103
| 16> C 	 23.6154 	 30.8602 	 53.2552
| 17> H 	 24.1075 	 31.476 	 52.5212
| 18> H 	 24.2843 	 30.0067 	 53.4878
| 19> C 	 22.4303 	 30.201 	 52.5613
| 20> H 	 22.5915 	 29.8981 	 51.5335
| 21> H 	 22.0845 	 29.4133 	 53.0794
| 22> H 	 21.7141 	 31.0035 	 52.5081
| 23> S 	 27.8619 	 35.5092 	 54.7972
| 24> C 	 29.5203 	 35.4545 	 54.2766
| 25> C 	 29.9972 	 34.1505 	 54.1889
| 26> C 	 29.0726 	 33.1613 	 54.5799
| 27> C 	 27.9151 	 33.7789 	 55.0358
| 28> H 	 30.9704 	 33.8699 	 53.764
| 29> C 	 29.4297 	 31.6722 	 54.6419
| 30> H 	 28.931 	 31.3194 	 55.5275
| 31> H 	 30.4759 	 31.5881 	 54.9334
| 32> C 	 29.2176 	 30.9054 	 53.2982
| 33> H 	 29.708 	 29.9454 	 53.2771
| 34> H 	 29.8088 	 31.3776 	 52.5463
| 35> C 	 27.8614 	 30.7098 	 52.7543
| 36> H 	 27.3914 	 31.6105 	 52.4303
| 37> H 	 27.2881 	 30.1836 	 53.5196
| 38> H 	 27.902 	 30.1274 	 51.836
| 39> H 	 24.3122 	 31.2251 	 57.2843
| 40> H 	 30.0302 	 36.3021 	 53.9017
| 41> *
| 42>
| 43>                          ****END OF INPUT****

CARTESIAN COORDINATES (ANGSTROEM)
---------------------------------
  S     26.349400   32.627500   57.165000
  C     24.936100   31.689400   56.665100
  C     24.592800   32.022900   55.337400
  C     25.647600   32.818000   54.736700
  C     26.717400   33.156100   55.500300
  H     25.654200   33.181700   53.761800
  C     23.374400   31.614600   54.510300
  H     22.928100   32.529500   54.150500
  H     22.579400   31.127300   55.103000
  C     23.615400   30.860200   53.255200
  H     24.107500   31.476000   52.521200
  H     24.284300   30.006700   53.487800
  C     22.430300   30.201000   52.561300
  H     22.591500   29.898100   51.533500
  H     22.084500   29.413300   53.079400
  H     21.714100   31.003500   52.508100
  S     27.861900   35.509200   54.797200
  C     29.520300   35.454500   54.276600
  C     29.997200   34.150500   54.188900
  C     29.072600   33.161300   54.579900
  C     27.915100   33.778900   55.035800
  H     30.970400   33.869900   53.764000
  C     29.429700   31.672200   54.641900
  H     28.931000   31.319400   55.527500
  H     30.475900   31.588100   54.933400
  C     29.217600   30.905400   53.298200
  H     29.708000   29.945400   53.277100
  H     29.808800   31.377600   52.546300
  C     27.861400   30.709800   52.754300
  H     27.391400   31.610500   52.430300
  H     27.288100   30.183600   53.519600
  H     27.902000   30.127400   51.836000
  H     24.312200   31.225100   57.284300
  H     30.030200   36.302100   53.901700

 Total Charge           Charge          ....    0
 Multiplicity           Mult            ....    1
 Number of Electrons    NEL             ....  134
 Basis Dimension        Dim             ....  322

ORBITAL ENERGIES
----------------

  NO   OCC          E(Eh)            E(eV)
   0   2.0000     -88.969670     -2420.9878
   1   2.0000     -88.961666     -2420.7700
   2   2.0000     -10.322450      -280.8882
   3   2.0000     -10.321887      -280.8728
   4   2.0000     -10.315292      -280.6934
   5   2.0000     -10.311797      -280.5983
   6   2.0000     -10.308309      -280.5034
   7   2.0000     -10.301804      -280.3263
   8   2.0000     -10.293573      -280.1024
   9   2.0000     -10.293520      -280.1009
  10   2.0000     -10.292819      -280.0818
  11   2.0000     -10.285790      -279.8906
  12   2.0000     -10.279865      -279.7293
  13   2.0000     -10.279219      -279.7118
  14   2.0000     -10.267597      -279.3955
  15   2.0000     -10.266252      -279.3589
  16   2.0000      -8.084571      -219.9924
  17   2.0000      -8.075459      -219.7444
  18   2.0000      -6.042906      -164.4358
  19   2.0000      -6.039150      -164.3336
  20   2.0000      -6.035423      -164.2322
  21   2.0000      -6.034087      -164.1959
  22   2.0000      -6.030099      -164.0873
  23   2.0000      -6.026130      -163.9793
  24   2.0000      -1.006714       -27.3941
  25   2.0000      -0.979933       -26.6653
  26   2.0000      -0.917725       -24.9726
  27   2.0000      -0.909242       -24.7417
  28   2.0000      -0.873502       -23.7692
  29   2.0000      -0.858414       -23.3586
  30   2.0000      -0.845473       -23.0065
  31   2.0000      -0.813618       -22.1397
  32   2.0000      -0.788231       -21.4489
  33   2.0000      -0.777675       -21.1616
  34   2.0000      -0.708708       -19.2849
  35   2.0000      -0.697863       -18.9898
  36   2.0000      -0.696268       -18.9464
  37   2.0000      -0.665038       -18.0966
  38   2.0000      -0.647478       -17.6188
  39   2.0000      -0.618020       -16.8172
  40   2.0000      -0.597580       -16.2610
  41   2.0000      -0.580003       -15.7827
  42   2.0000      -0.564183       -15.3522
  43   2.0000      -0.550781       -14.9875
  44   2.0000      -0.549768       -14.9600
  45   2.0000      -0.525379       -14.2963
  46   2.0000      -0.518941       -14.1211
  47   2.0000      -0.516765       -14.0619
  48   2.0000      -0.508963       -13.8496
  49   2.0000      -0.498129       -13.5548
  50   2.0000      -0.491093       -13.3633
  51   2.0000      -0.483419       -13.1545
  52   2.0000      -0.475757       -12.9460
  53   2.0000      -0.464589       -12.6421
  54   2.0000      -0.458477       -12.4758
  55   2.0000      -0.450264       -12.2523
  56   2.0000      -0.447499       -12.1771
  57   2.0000      -0.438433       -11.9304
  58   2.0000      -0.427374       -11.6294
  59   2.0000      -0.424553       -11.5527
  60   2.0000      -0.423607       -11.5269
  61   2.0000      -0.410020       -11.1572
  62   2.0000      -0.403593       -10.9823
  63   2.0000      -0.338142        -9.2013
  64   2.0000      -0.328519        -8.9395
  65   2.0000      -0.316650        -8.6165
  66   2.0000      -0.310194        -8.4408
  67   0.0000       0.042137         1.1466
  68   0.0000       0.051379         1.3981
  69   0.0000       0.107852         2.9348
  70   0.0000       0.120763         3.2861
  71   0.0000       0.123736         3.3670

MULLIKEN ATOMIC CHARGES
-----------------------
   0 S :    0.091228
   1 C :   -0.057460
   2 C :   -0.078814
   3 C :    0.064140
   4 C :   -0.167736
   5 H :   -0.015694
   6 C :    0.088462
   7 H :    0.022800
   8 H :    0.019810
   9 C :   -0.110641
  10 H :    0.025649
  11 H :    0.030225
  12 C :    0.008791
  13 H :    0.031301
  14 H :    0.010975
  15 H :    0.010482
  16 S :    0.129551
  17 C :   -0.074861
  18 C :   -0.035723
  19 C :   -0.018676
  20 C :   -0.219094
  21 H :    0.019488
  22 C :    0.107058
  23 H :    0.023017
  24 H :    0.019047
  25 C :   -0.051935
  26 H :    0.017261
  27 H :    0.001315
  28 C :   -0.014998
  29 H :    0.019774
  30 H :    0.041469
  31 H :    0.022586
  32 H :   -0.003051
  33 H :    0.044257
Sum of atomic charges:    0.0000000

LOEWDIN ATOMIC CHARGES
----------------------
   0 S :    0.376395
   1 C :   -0.166933
   2 C :   -0.050272
   3 C :   -0.048474
   4 C :   -0.192475
   5 H :    0.016984
   6 C :   -0.036138
   7 H :    0.033434
   8 H :    0.030740
   9 C :   -0.044694
  10 H :    0.019839
  11 H :    0.023972
  12 C :   -0.048193
  13 H :    0.030548
  14 H :    0.007871
  15 H :    0.021669
  16 S :    0.423495
  17 C :   -0.184731
  18 C :   -0.069544
  19 C :   -0.046741
  20 C :   -0.206549
  21 H :    0.032586
  22 C :   -0.022704
  23 H :    0.028732
  24 H :    0.034930
  25 C :   -0.042794
  26 H :    0.024877
  27 H :    0.019289
  28 C :   -0.059974
  29 H :    0.018052
  30 H :    0.028757
  31 H :    0.028575
  32 H :   -0.000701
  33 H :    0.020174

  Mayer bond orders larger than 0.100000
B(  0-S ,  1-C ) :   1.1394 B(  0-S ,  4-C ) :   1.1074 B(  1-C ,  2-C ) :   1.6080
B(  1-C , 32-H ) :   0.9822 B(  2-C ,  3-C ) :   1.2074 B(  2-C ,  6-C ) :   1.0389
B(  3-C ,  4-C ) :   1.6324 B(  3-C ,  5-H ) :   0.9968 B(  4-C , 20-C ) :   1.0306
B(  6-C ,  7-H ) :   0.9235 B(  6-C ,  8-H ) :   0.9453 B(  6-C ,  9-C ) :   1.0649
B(  9-C , 10-H ) :   0.9513 B(  9-C , 11-H ) :   0.9575 B(  9-C , 12-C ) :   1.0899
B( 12-C , 13-H ) :   0.9721 B( 12-C , 14-H ) :   0.9759 B( 12-C , 15-H ) :   0.9718
B( 16-S , 17-C ) :   1.1582 B( 16-S , 20-C ) :   1.1633 B( 17-C , 18-C ) :   1.5861
B( 17-C , 20-C ) :   0.1053 B( 17-C , 33-H ) :   0.9730 B( 18-C , 19-C ) :   1.2748
B( 18-C , 21-H ) :   0.9796 B( 19-C , 20-C ) :   1.5757 B( 19-C , 22-C ) :   1.0244
B( 22-C , 23-H ) :   0.9353 B( 22-C , 24-H ) :   0.9346 B( 22-C , 25-C ) :   1.0595
B( 25-C , 26-H ) :   0.9507 B( 25-C , 27-H ) :   0.9469 B( 25-C , 28-C ) :   1.1011
B( 28-C , 29-H ) :   0.9699 B( 28-C , 30-H ) :   0.9720 B( 28-C , 31-H ) :   0.9634

Dispersion correction           -0.015852428
FINAL SINGLE POINT ENERGY     -1339.859268368604

DIPOLE MOMENT
-------------
                                X             Y             Z
Electronic contribution:      8.96365      20.63539      18.28246
Nuclear contribution   :     -9.02043     -20.96178     -18.91254
                        -----------------------------------------
Total Dipole Moment    :     -0.05678      -0.32639      -0.63007
                        -----------------------------------------
Magnitude (a.u.)       :      0.71186
Magnitude (Debye)      :      1.80942

Rotational constants in cm-1:     0.018953     0.008976     0.007754
Rotational constants in MHz :   568.207087   269.084211   232.460440

                             ****ORCA TERMINATED NORMALLY****
TOTAL RUN TIME: 0 days 0 hours 0 minutes 38 seconds 578 msec
