                         Program Version 4.2.1 -  RELEASE  -
|  1> ! wB97X-D3 SP def2-SVP
|  2> %pal
|  3> nprocs 16
|  4> end
|  5>
|  6> * xyz 0 1
|  7> S 	 11.894 	 -9.00958 	 70.1197
|  8> C 	 10.1407 	 -8.49082 	 70.0703
|  9> C 	 9.41047 	 -9.18352 	 69.0449
| 10> C 	 10.2506 	 -10.12 	 68.5195
| 11> C 	 11.5263 	 -10.3082 	 68.9922
| 12> H 	 9.86414 	 -10.7393 	 67.6857
| 13> C 	 7.94833 	 -8.90537 	 68.5878
| 14> H 	 7.72281 	 -9.42894 	 67.6774
| 15> H 	 7.80811 	 -7.80252 	 68.4073
| 16> C 	 6.70924 	 -9.25838 	 69.418
| 17> H 	 6.76311 	 -10.3104 	 69.7737
| 18> H 	 6.65783 	 -8.65451 	 70.3316
| 19> C 	 5.348 	 -9.14936 	 68.6052
| 20> H 	 5.4197 	 -9.74624 	 67.7373
| 21> H 	 4.45132 	 -9.47112 	 69.1326
| 22> H 	 5.09374 	 -8.20324 	 68.2096
| 23> S 	 13.5535 	 -12.1291 	 69.8813
| 24> C 	 14.3214 	 -13.0855 	 68.6576
| 25> C 	 13.8883 	 -12.7641 	 67.3827
| 26> C 	 12.8357 	 -11.7672 	 67.3621
| 27> C 	 12.5616 	 -11.3407 	 68.6249
| 28> H 	 14.2214 	 -13.3211 	 66.464
| 29> C 	 12.2146 	 -11.2533 	 66.0539
| 30> H 	 13.0111 	 -10.9784 	 65.3465
| 31> H 	 11.6784 	 -10.3102 	 66.3854
| 32> C 	 11.3597 	 -12.3791 	 65.4204
| 33> H 	 10.5489 	 -12.4093 	 66.1115
| 34> H 	 11.8561 	 -13.4131 	 65.4239
| 35> C 	 10.9581 	 -12.0739 	 64.0445
| 36> H 	 11.7935 	 -11.7042 	 63.4188
| 37> H 	 10.2324 	 -11.2395 	 64.0304
| 38> H 	 10.4092 	 -12.832 	 63.5435
| 39> H 	 9.72004 	 -7.67756 	 70.5467
| 40> H 	 15.0109 	 -13.9314 	 68.8689
| 41> *
| 42>
| 43>                          ****END OF INPUT****

CARTESIAN COORDINATES (ANGSTROEM)
---------------------------------
  S     11.894000   -9.009580   70.119700
  C     10.140700   -8.490820   70.070300
  C      9.410470   -9.183520   69.044900
  C     10.250600  -10.120000   68.519500
  C     11.526300  -10.308200   68.992200
  H      9.864140  -10.739300   67.685700
  C      7.948330   -8.905370   68.587800
  H      7.722810   -9.428940   67.677400
  H      7.808110   -7.802520   68.407300
  C      6.709240   -9.258380   69.418000
  H      6.763110  -10.310400   69.773700
  H      6.657830   -8.654510   70.331600
  C      5.348000   -9.149360   68.605200
  H      5.419700   -9.746240   67.737300
  H      4.451320   -9.471120   69.132600
  H      5.093740   -8.203240   68.209600
  S     13.553500  -12.129100   69.881300
  C     14.321400  -13.085500   68.657600
  C     13.888300  -12.764100   67.382700
  C     12.835700  -11.767200   67.362100
  C     12.561600  -11.340700   68.624900
  H     14.221400  -13.321100   66.464000
  C     12.214600  -11.253300   66.053900
  H     13.011100  -10.978400   65.346500
  H     11.678400  -10.310200   66.385400
  C     11.359700  -12.379100   65.420400
  H     10.548900  -12.409300   66.111500
  H     11.856100  -13.413100   65.423900
  C     10.958100  -12.073900   64.044500
  H     11.793500  -11.704200   63.418800
  H     10.232400  -11.239500   64.030400
  H     10.409200  -12.832000   63.543500
  H      9.720040   -7.677560   70.546700
  H     15.010900  -13.931400   68.868900

 Total Charge           Charge          ....    0
 Multiplicity           Mult            ....    1
 Number of Electrons    NEL             ....  134
 Basis Dimension        Dim             ....  322

ORBITAL ENERGIES
----------------

  NO   OCC          E(Eh)            E(eV)
   0   2.0000     -88.972141     -2421.0550
   1   2.0000     -88.969077     -2420.9717
   2   2.0000     -10.333778      -281.1964
   3   2.0000     -10.330810      -281.1156
   4   2.0000     -10.321830      -280.8713
   5   2.0000     -10.319532      -280.8087
   6   2.0000     -10.308180      -280.4998
   7   2.0000     -10.303978      -280.3855
   8   2.0000     -10.302893      -280.3560
   9   2.0000     -10.299343      -280.2594
  10   2.0000     -10.299247      -280.2568
  11   2.0000     -10.296422      -280.1799
  12   2.0000     -10.291106      -280.0352
  13   2.0000     -10.288931      -279.9760
  14   2.0000     -10.278694      -279.6975
  15   2.0000     -10.275397      -279.6078
  16   2.0000      -8.085118      -220.0072
  17   2.0000      -8.083529      -219.9640
  18   2.0000      -6.043601      -164.4547
  19   2.0000      -6.042080      -164.4134
  20   2.0000      -6.039963      -164.3558
  21   2.0000      -6.038233      -164.3087
  22   2.0000      -6.035911      -164.2455
  23   2.0000      -6.034098      -164.1962
  24   2.0000      -1.002675       -27.2842
  25   2.0000      -0.981524       -26.7086
  26   2.0000      -0.915361       -24.9082
  27   2.0000      -0.907135       -24.6844
  28   2.0000      -0.865230       -23.5441
  29   2.0000      -0.856955       -23.3189
  30   2.0000      -0.841568       -22.9002
  31   2.0000      -0.809629       -22.0311
  32   2.0000      -0.787771       -21.4364
  33   2.0000      -0.776069       -21.1179
  34   2.0000      -0.707012       -19.2388
  35   2.0000      -0.700154       -19.0522
  36   2.0000      -0.694494       -18.8981
  37   2.0000      -0.657125       -17.8813
  38   2.0000      -0.641565       -17.4579
  39   2.0000      -0.619413       -16.8551
  40   2.0000      -0.594899       -16.1880
  41   2.0000      -0.573151       -15.5962
  42   2.0000      -0.568992       -15.4831
  43   2.0000      -0.558300       -15.1921
  44   2.0000      -0.532408       -14.4876
  45   2.0000      -0.522154       -14.2085
  46   2.0000      -0.517425       -14.0798
  47   2.0000      -0.507084       -13.7985
  48   2.0000      -0.505056       -13.7433
  49   2.0000      -0.493669       -13.4334
  50   2.0000      -0.489739       -13.3265
  51   2.0000      -0.474604       -12.9146
  52   2.0000      -0.470586       -12.8053
  53   2.0000      -0.463489       -12.6122
  54   2.0000      -0.456957       -12.4344
  55   2.0000      -0.455773       -12.4022
  56   2.0000      -0.447851       -12.1867
  57   2.0000      -0.434079       -11.8119
  58   2.0000      -0.433721       -11.8021
  59   2.0000      -0.430365       -11.7108
  60   2.0000      -0.423666       -11.5285
  61   2.0000      -0.422589       -11.4992
  62   2.0000      -0.411689       -11.2026
  63   2.0000      -0.345899        -9.4124
  64   2.0000      -0.339320        -9.2334
  65   2.0000      -0.331584        -9.0229
  66   2.0000      -0.288742        -7.8571
  67   0.0000       0.025322         0.6890
  68   0.0000       0.067448         1.8354
  69   0.0000       0.095069         2.5869
  70   0.0000       0.120607         3.2819
  71   0.0000       0.127745         3.4761

MULLIKEN ATOMIC CHARGES
-----------------------
   0 S :    0.106611
   1 C :   -0.091818
   2 C :   -0.061981
   3 C :   -0.003963
   4 C :   -0.146915
   5 H :    0.002862
   6 C :    0.049259
   7 H :    0.012019
   8 H :    0.045057
   9 C :   -0.076430
  10 H :    0.037293
  11 H :    0.032191
  12 C :   -0.042331
  13 H :    0.014911
  14 H :    0.038802
  15 H :    0.017059
  16 S :    0.116807
  17 C :   -0.106524
  18 C :   -0.037972
  19 C :   -0.056794
  20 C :   -0.144716
  21 H :    0.035759
  22 C :    0.038372
  23 H :    0.030219
  24 H :    0.054319
  25 C :   -0.082940
  26 H :    0.017785
  27 H :    0.046411
  28 C :   -0.006853
  29 H :    0.031174
  30 H :    0.014318
  31 H :    0.028071
  32 H :    0.015903
  33 H :    0.074035
Sum of atomic charges:    0.0000000

LOEWDIN ATOMIC CHARGES
----------------------
   0 S :    0.385642
   1 C :   -0.161397
   2 C :   -0.058537
   3 C :   -0.079864
   4 C :   -0.187482
   5 H :    0.030146
   6 C :   -0.033501
   7 H :    0.026931
   8 H :    0.041287
   9 C :   -0.038139
  10 H :    0.027927
  11 H :    0.020305
  12 C :   -0.063332
  13 H :    0.018848
  14 H :    0.031875
  15 H :    0.018211
  16 S :    0.395401
  17 C :   -0.194050
  18 C :   -0.076242
  19 C :   -0.054038
  20 C :   -0.192614
  21 H :    0.038019
  22 C :   -0.028988
  23 H :    0.029063
  24 H :    0.041131
  25 C :   -0.045567
  26 H :    0.019108
  27 H :    0.034601
  28 C :   -0.069938
  29 H :    0.028638
  30 H :    0.026983
  31 H :    0.022235
  32 H :    0.007764
  33 H :    0.039573

  Mayer bond orders larger than 0.100000
B(  0-S ,  1-C ) :   1.1516 B(  0-S ,  4-C ) :   1.1508 B(  1-C ,  2-C ) :   1.5527
B(  1-C ,  4-C ) :   0.1218 B(  1-C , 32-H ) :   0.9757 B(  2-C ,  3-C ) :   1.3303
B(  2-C ,  6-C ) :   1.0087 B(  3-C ,  4-C ) :   1.5425 B(  3-C ,  5-H ) :   0.9775
B(  4-C , 20-C ) :   1.0158 B(  6-C ,  7-H ) :   0.9446 B(  6-C ,  8-H ) :   0.9405
B(  6-C ,  9-C ) :   1.0613 B(  9-C , 10-H ) :   0.9563 B(  9-C , 11-H ) :   0.9581
B(  9-C , 12-C ) :   1.0681 B( 12-C , 13-H ) :   0.9738 B( 12-C , 14-H ) :   0.9759
B( 12-C , 15-H ) :   0.9778 B( 16-S , 17-C ) :   1.1445 B( 16-S , 20-C ) :   1.1232
B( 17-C , 18-C ) :   1.6345 B( 17-C , 33-H ) :   0.9614 B( 18-C , 19-C ) :   1.2200
B( 18-C , 21-H ) :   0.9769 B( 19-C , 20-C ) :   1.6431 B( 19-C , 22-C ) :   1.0299
B( 22-C , 23-H ) :   0.9385 B( 22-C , 24-H ) :   0.9316 B( 22-C , 25-C ) :   1.0408
B( 25-C , 26-H ) :   0.9487 B( 25-C , 27-H ) :   0.9587 B( 25-C , 28-C ) :   1.0966
B( 28-C , 29-H ) :   0.9700 B( 28-C , 30-H ) :   0.9639 B( 28-C , 31-H ) :   0.9702

Dispersion correction           -0.013617099
FINAL SINGLE POINT ENERGY     -1339.859116881755

DIPOLE MOMENT
-------------
                                X             Y             Z
Electronic contribution:     25.76942      -0.14520      20.09126
Nuclear contribution   :    -26.27621       0.02662     -20.72876
                        -----------------------------------------
Total Dipole Moment    :     -0.50679      -0.11858      -0.63750
                        -----------------------------------------
Magnitude (a.u.)       :      0.82299
Magnitude (Debye)      :      2.09187

Rotational constants in cm-1:     0.017123     0.008263     0.006115
Rotational constants in MHz :   513.322459   247.722120   183.336330

                             ****ORCA TERMINATED NORMALLY****
TOTAL RUN TIME: 0 days 0 hours 0 minutes 33 seconds 722 msec
