                         Program Version 4.2.1 -  RELEASE  -
|  1> ! wB97X-D3 SP def2-SVP
|  2> %pal
|  3> nprocs 16
|  4> end
|  5>
|  6> * xyz 0 1
|  7> S 	 52.1036 	 21.6553 	 93.1931
|  8> C 	 50.4662 	 21.8 	 92.5909
|  9> C 	 50.0826 	 20.6116 	 92.0089
| 10> C 	 51.1992 	 19.7674 	 91.7467
| 11> C 	 52.4305 	 20.2139 	 92.2274
| 12> H 	 51.2044 	 18.7712 	 91.2727
| 13> C 	 48.633 	 20.3139 	 91.6756
| 14> H 	 48.61 	 20.1313 	 90.5886
| 15> H 	 48.0938 	 21.2266 	 91.8023
| 16> C 	 48.1653 	 19.0735 	 92.4843
| 17> H 	 47.2366 	 18.7216 	 92.0335
| 18> H 	 48.8715 	 18.1991 	 92.4116
| 19> C 	 47.8236 	 19.5654 	 93.9371
| 20> H 	 48.8003 	 19.8039 	 94.3925
| 21> H 	 47.1817 	 20.399 	 94.0008
| 22> H 	 47.5465 	 18.643 	 94.4889
| 23> S 	 54.1441 	 19.1595 	 94.1233
| 24> C 	 55.1972 	 17.8105 	 93.6706
| 25> C 	 55.092 	 17.5393 	 92.3195
| 26> C 	 54.1852 	 18.3773 	 91.663
| 27> C 	 53.5647 	 19.3149 	 92.4879
| 28> H 	 55.5837 	 16.5669 	 92.0218
| 29> C 	 53.8742 	 18.2828 	 90.1588
| 30> H 	 52.8052 	 17.9507 	 89.9404
| 31> H 	 54.28 	 17.4059 	 89.7623
| 32> C 	 54.5002 	 19.303 	 89.1797
| 33> H 	 55.6027 	 19.2931 	 89.2858
| 34> H 	 54.0129 	 20.2306 	 89.416
| 35> C 	 54.1308 	 18.9438 	 87.762
| 36> H 	 54.4079 	 19.8113 	 87.1124
| 37> H 	 53.1438 	 18.7322 	 87.6343
| 38> H 	 54.6343 	 18.0236 	 87.3234
| 39> H 	 49.8091 	 22.6366 	 92.8952
| 40> H 	 55.5067 	 17.0875 	 94.4095
| 41> *
| 42>
| 43>                          ****END OF INPUT****

CARTESIAN COORDINATES (ANGSTROEM)
---------------------------------
  S     52.103600   21.655300   93.193100
  C     50.466200   21.800000   92.590900
  C     50.082600   20.611600   92.008900
  C     51.199200   19.767400   91.746700
  C     52.430500   20.213900   92.227400
  H     51.204400   18.771200   91.272700
  C     48.633000   20.313900   91.675600
  H     48.610000   20.131300   90.588600
  H     48.093800   21.226600   91.802300
  C     48.165300   19.073500   92.484300
  H     47.236600   18.721600   92.033500
  H     48.871500   18.199100   92.411600
  C     47.823600   19.565400   93.937100
  H     48.800300   19.803900   94.392500
  H     47.181700   20.399000   94.000800
  H     47.546500   18.643000   94.488900
  S     54.144100   19.159500   94.123300
  C     55.197200   17.810500   93.670600
  C     55.092000   17.539300   92.319500
  C     54.185200   18.377300   91.663000
  C     53.564700   19.314900   92.487900
  H     55.583700   16.566900   92.021800
  C     53.874200   18.282800   90.158800
  H     52.805200   17.950700   89.940400
  H     54.280000   17.405900   89.762300
  C     54.500200   19.303000   89.179700
  H     55.602700   19.293100   89.285800
  H     54.012900   20.230600   89.416000
  C     54.130800   18.943800   87.762000
  H     54.407900   19.811300   87.112400
  H     53.143800   18.732200   87.634300
  H     54.634300   18.023600   87.323400
  H     49.809100   22.636600   92.895200
  H     55.506700   17.087500   94.409500

 Total Charge           Charge          ....    0
 Multiplicity           Mult            ....    1
 Number of Electrons    NEL             ....  134
 Basis Dimension        Dim             ....  322

ORBITAL ENERGIES
----------------

  NO   OCC          E(Eh)            E(eV)
   0   2.0000     -88.965824     -2420.8831
   1   2.0000     -88.964171     -2420.8382
   2   2.0000     -10.333408      -281.1863
   3   2.0000     -10.331246      -281.1275
   4   2.0000     -10.317752      -280.7603
   5   2.0000     -10.314710      -280.6775
   6   2.0000     -10.303424      -280.3704
   7   2.0000     -10.302579      -280.3474
   8   2.0000     -10.298974      -280.2493
   9   2.0000     -10.298760      -280.2435
  10   2.0000     -10.296657      -280.1863
  11   2.0000     -10.293417      -280.0981
  12   2.0000     -10.287851      -279.9466
  13   2.0000     -10.284157      -279.8462
  14   2.0000     -10.279309      -279.7142
  15   2.0000     -10.273882      -279.5666
  16   2.0000      -8.080459      -219.8805
  17   2.0000      -8.078796      -219.8352
  18   2.0000      -6.038836      -164.3251
  19   2.0000      -6.037333      -164.2842
  20   2.0000      -6.034954      -164.2195
  21   2.0000      -6.033425      -164.1778
  22   2.0000      -6.031373      -164.1220
  23   2.0000      -6.029414      -164.0687
  24   2.0000      -1.007966       -27.4282
  25   2.0000      -0.985622       -26.8201
  26   2.0000      -0.911275       -24.7971
  27   2.0000      -0.908519       -24.7221
  28   2.0000      -0.869463       -23.6593
  29   2.0000      -0.852474       -23.1970
  30   2.0000      -0.840587       -22.8735
  31   2.0000      -0.814851       -22.1732
  32   2.0000      -0.780023       -21.2255
  33   2.0000      -0.770736       -20.9728
  34   2.0000      -0.711283       -19.3550
  35   2.0000      -0.698041       -18.9947
  36   2.0000      -0.690565       -18.7912
  37   2.0000      -0.659123       -17.9357
  38   2.0000      -0.640184       -17.4203
  39   2.0000      -0.619982       -16.8706
  40   2.0000      -0.594190       -16.1687
  41   2.0000      -0.568862       -15.4795
  42   2.0000      -0.564107       -15.3501
  43   2.0000      -0.550463       -14.9789
  44   2.0000      -0.535204       -14.5636
  45   2.0000      -0.527746       -14.3607
  46   2.0000      -0.522243       -14.2110
  47   2.0000      -0.516493       -14.0545
  48   2.0000      -0.502321       -13.6688
  49   2.0000      -0.498276       -13.5588
  50   2.0000      -0.488103       -13.2820
  51   2.0000      -0.480375       -13.0717
  52   2.0000      -0.466294       -12.6885
  53   2.0000      -0.465033       -12.6542
  54   2.0000      -0.453864       -12.3503
  55   2.0000      -0.449175       -12.2227
  56   2.0000      -0.443261       -12.0617
  57   2.0000      -0.438786       -11.9400
  58   2.0000      -0.434471       -11.8226
  59   2.0000      -0.422726       -11.5030
  60   2.0000      -0.419398       -11.4124
  61   2.0000      -0.408056       -11.1038
  62   2.0000      -0.401960       -10.9379
  63   2.0000      -0.356344        -9.6966
  64   2.0000      -0.335659        -9.1337
  65   2.0000      -0.325331        -8.8527
  66   2.0000      -0.286068        -7.7843
  67   0.0000       0.022766         0.6195
  68   0.0000       0.063162         1.7187
  69   0.0000       0.102649         2.7932
  70   0.0000       0.125812         3.4235
  71   0.0000       0.134316         3.6549

MULLIKEN ATOMIC CHARGES
-----------------------
   0 S :    0.082828
   1 C :   -0.128307
   2 C :   -0.105075
   3 C :    0.006679
   4 C :   -0.116066
   5 H :    0.020157
   6 C :    0.085908
   7 H :    0.034638
   8 H :    0.010547
   9 C :   -0.092516
  10 H :    0.028123
  11 H :    0.048775
  12 C :   -0.044217
  13 H :    0.038469
  14 H :    0.035430
  15 H :    0.039053
  16 S :    0.094935
  17 C :   -0.115661
  18 C :   -0.048899
  19 C :   -0.035696
  20 C :   -0.132785
  21 H :    0.047081
  22 C :    0.032904
  23 H :    0.027080
  24 H :   -0.025756
  25 C :   -0.024723
  26 H :    0.044390
  27 H :    0.035384
  28 C :   -0.055160
  29 H :    0.042512
  30 H :    0.005549
  31 H :    0.031974
  32 H :    0.065998
  33 H :    0.066447
Sum of atomic charges:   -0.0000000

LOEWDIN ATOMIC CHARGES
----------------------
   0 S :    0.391776
   1 C :   -0.197804
   2 C :   -0.066400
   3 C :   -0.059345
   4 C :   -0.192729
   5 H :    0.032184
   6 C :   -0.028420
   7 H :    0.032242
   8 H :    0.024927
   9 C :   -0.037717
  10 H :    0.019572
  11 H :    0.032793
  12 C :   -0.062620
  13 H :    0.030062
  14 H :    0.019001
  15 H :    0.031332
  16 S :    0.402182
  17 C :   -0.190385
  18 C :   -0.073686
  19 C :   -0.071506
  20 C :   -0.187601
  21 H :    0.047468
  22 C :   -0.047257
  23 H :    0.034862
  24 H :    0.017500
  25 C :   -0.029783
  26 H :    0.033807
  27 H :    0.023984
  28 C :   -0.065655
  29 H :    0.034598
  30 H :    0.008142
  31 H :    0.029513
  32 H :    0.035520
  33 H :    0.029442

  Mayer bond orders larger than 0.100000
B(  0-S ,  1-C ) :   1.1424 B(  0-S ,  4-C ) :   1.1480 B(  1-C ,  2-C ) :   1.5848
B(  1-C , 32-H ) :   0.9660 B(  2-C ,  3-C ) :   1.2626 B(  2-C ,  6-C ) :   1.0202
B(  3-C ,  4-C ) :   1.5450 B(  3-C ,  5-H ) :   0.9836 B(  4-C , 20-C ) :   1.0553
B(  6-C ,  7-H ) :   0.9391 B(  6-C ,  8-H ) :   0.9451 B(  6-C ,  9-C ) :   1.0556
B(  9-C , 10-H ) :   0.9581 B(  9-C , 11-H ) :   0.9606 B(  9-C , 12-C ) :   1.0586
B( 12-C , 13-H ) :   0.9784 B( 12-C , 14-H ) :   0.9780 B( 12-C , 15-H ) :   0.9729
B( 16-S , 17-C ) :   1.1550 B( 16-S , 20-C ) :   1.1564 B( 17-C , 18-C ) :   1.6038
B( 17-C , 33-H ) :   0.9619 B( 18-C , 19-C ) :   1.2750 B( 18-C , 21-H ) :   0.9789
B( 19-C , 20-C ) :   1.5740 B( 19-C , 22-C ) :   1.0338 B( 22-C , 23-H ) :   0.9318
B( 22-C , 24-H ) :   0.9212 B( 22-C , 25-C ) :   1.0560 B( 25-C , 26-H ) :   0.9528
B( 25-C , 27-H ) :   0.9555 B( 25-C , 28-C ) :   1.0870 B( 28-C , 29-H ) :   0.9720
B( 28-C , 30-H ) :   0.9732 B( 28-C , 31-H ) :   0.9720

Dispersion correction           -0.014351376
FINAL SINGLE POINT ENERGY     -1339.851005172863

DIPOLE MOMENT
-------------
                                X             Y             Z
Electronic contribution:     12.96029       8.13061      16.87711
Nuclear contribution   :    -13.53907      -8.69306     -17.17954
                        -----------------------------------------
Total Dipole Moment    :     -0.57878      -0.56245      -0.30243
                        -----------------------------------------
Magnitude (a.u.)       :      0.86186
Magnitude (Debye)      :      2.19068

Rotational constants in cm-1:     0.017376     0.009021     0.007429
Rotational constants in MHz :   520.907762   270.430623   222.710379

                             ****ORCA TERMINATED NORMALLY****
TOTAL RUN TIME: 0 days 0 hours 0 minutes 30 seconds 89 msec
