                         Program Version 4.2.1 -  RELEASE  -
|  1> ! wB97X-D3 SP def2-SVP
|  2> %pal
|  3> nprocs 16
|  4> end
|  5>
|  6> * xyz 0 1
|  7> S 	 -101.906 	 48.0536 	 119.476
|  8> C 	 -103.01 	 49.3367 	 119.846
|  9> C 	 -103.975 	 48.9439 	 120.821
| 10> C 	 -103.536 	 47.7249 	 121.446
| 11> C 	 -102.454 	 47.1635 	 120.863
| 12> H 	 -103.971 	 47.1287 	 122.251
| 13> C 	 -105.121 	 49.7562 	 121.317
| 14> H 	 -105.987 	 49.5565 	 120.657
| 15> H 	 -104.765 	 50.7711 	 121.052
| 16> C 	 -105.376 	 49.6775 	 122.804
| 17> H 	 -106.239 	 50.3536 	 122.892
| 18> H 	 -105.748 	 48.7438 	 123.2
| 19> C 	 -104.142 	 50.1951 	 123.653
| 20> H 	 -103.224 	 49.6639 	 123.393
| 21> H 	 -104.021 	 51.2435 	 123.481
| 22> H 	 -104.192 	 50.0757 	 124.728
| 23> S 	 -102.229 	 44.4088 	 120.445
| 24> C 	 -100.878 	 43.5477 	 121.088
| 25> C 	 -100.264 	 44.302 	 122.069
| 26> C 	 -100.722 	 45.6362 	 122.068
| 27> C 	 -101.766 	 45.9125 	 121.218
| 28> H 	 -99.4649 	 43.9381 	 122.635
| 29> C 	 -100.108 	 46.5614 	 123.159
| 30> H 	 -100.377 	 47.6455 	 122.882
| 31> H 	 -98.9827 	 46.5277 	 123.08
| 32> C 	 -100.507 	 46.3529 	 124.608
| 33> H 	 -99.6342 	 46.4374 	 125.24
| 34> H 	 -100.857 	 45.3955 	 124.934
| 35> C 	 -101.481 	 47.4344 	 125.13
| 36> H 	 -101.088 	 48.4229 	 125.016
| 37> H 	 -101.52 	 47.2311 	 126.237
| 38> H 	 -102.458 	 47.402 	 124.718
| 39> H 	 -103.151 	 50.2944 	 119.296
| 40> H 	 -100.773 	 42.5086 	 120.925
| 41> *
| 42>
| 43>                          ****END OF INPUT****

CARTESIAN COORDINATES (ANGSTROEM)
---------------------------------
  S    -101.906000   48.053600  119.476000
  C    -103.010000   49.336700  119.846000
  C    -103.975000   48.943900  120.821000
  C    -103.536000   47.724900  121.446000
  C    -102.454000   47.163500  120.863000
  H    -103.971000   47.128700  122.251000
  C    -105.121000   49.756200  121.317000
  H    -105.987000   49.556500  120.657000
  H    -104.765000   50.771100  121.052000
  C    -105.376000   49.677500  122.804000
  H    -106.239000   50.353600  122.892000
  H    -105.748000   48.743800  123.200000
  C    -104.142000   50.195100  123.653000
  H    -103.224000   49.663900  123.393000
  H    -104.021000   51.243500  123.481000
  H    -104.192000   50.075700  124.728000
  S    -102.229000   44.408800  120.445000
  C    -100.878000   43.547700  121.088000
  C    -100.264000   44.302000  122.069000
  C    -100.722000   45.636200  122.068000
  C    -101.766000   45.912500  121.218000
  H    -99.464900   43.938100  122.635000
  C    -100.108000   46.561400  123.159000
  H    -100.377000   47.645500  122.882000
  H    -98.982700   46.527700  123.080000
  C    -100.507000   46.352900  124.608000
  H    -99.634200   46.437400  125.240000
  H    -100.857000   45.395500  124.934000
  C    -101.481000   47.434400  125.130000
  H    -101.088000   48.422900  125.016000
  H    -101.520000   47.231100  126.237000
  H    -102.458000   47.402000  124.718000
  H    -103.151000   50.294400  119.296000
  H    -100.773000   42.508600  120.925000

 Total Charge           Charge          ....    0
 Multiplicity           Mult            ....    1
 Number of Electrons    NEL             ....  134
 Basis Dimension        Dim             ....  322

ORBITAL ENERGIES
----------------

  NO   OCC          E(Eh)            E(eV)
   0   2.0000     -88.965525     -2420.8750
   1   2.0000     -88.960654     -2420.7425
   2   2.0000     -10.323264      -280.9103
   3   2.0000     -10.322287      -280.8837
   4   2.0000     -10.316957      -280.7387
   5   2.0000     -10.313040      -280.6321
   6   2.0000     -10.302399      -280.3425
   7   2.0000     -10.300124      -280.2806
   8   2.0000     -10.297842      -280.2185
   9   2.0000     -10.295305      -280.1495
  10   2.0000     -10.292380      -280.0699
  11   2.0000     -10.290959      -280.0312
  12   2.0000     -10.286219      -279.9022
  13   2.0000     -10.281404      -279.7712
  14   2.0000     -10.277164      -279.6559
  15   2.0000     -10.273911      -279.5673
  16   2.0000      -8.080584      -219.8839
  17   2.0000      -8.076113      -219.7622
  18   2.0000      -6.039037      -164.3306
  19   2.0000      -6.035071      -164.2226
  20   2.0000      -6.034566      -164.2089
  21   2.0000      -6.031346      -164.1213
  22   2.0000      -6.030427      -164.0963
  23   2.0000      -6.026982      -164.0025
  24   2.0000      -1.008178       -27.4339
  25   2.0000      -0.987146       -26.8616
  26   2.0000      -0.915577       -24.9141
  27   2.0000      -0.903814       -24.5940
  28   2.0000      -0.866188       -23.5702
  29   2.0000      -0.848158       -23.0795
  30   2.0000      -0.842739       -22.9321
  31   2.0000      -0.816405       -22.2155
  32   2.0000      -0.780972       -21.2513
  33   2.0000      -0.771329       -20.9889
  34   2.0000      -0.713136       -19.4054
  35   2.0000      -0.699641       -19.0382
  36   2.0000      -0.688506       -18.7352
  37   2.0000      -0.663208       -18.0468
  38   2.0000      -0.640261       -17.4224
  39   2.0000      -0.619137       -16.8476
  40   2.0000      -0.598824       -16.2948
  41   2.0000      -0.567589       -15.4449
  42   2.0000      -0.560848       -15.2615
  43   2.0000      -0.551615       -15.0102
  44   2.0000      -0.532679       -14.4949
  45   2.0000      -0.524821       -14.2811
  46   2.0000      -0.519979       -14.1493
  47   2.0000      -0.512870       -13.9559
  48   2.0000      -0.499693       -13.5973
  49   2.0000      -0.496206       -13.5025
  50   2.0000      -0.486738       -13.2448
  51   2.0000      -0.476149       -12.9567
  52   2.0000      -0.472054       -12.8453
  53   2.0000      -0.464668       -12.6443
  54   2.0000      -0.456307       -12.4167
  55   2.0000      -0.448251       -12.1975
  56   2.0000      -0.445177       -12.1139
  57   2.0000      -0.443172       -12.0593
  58   2.0000      -0.434604       -11.8262
  59   2.0000      -0.426972       -11.6185
  60   2.0000      -0.415841       -11.3156
  61   2.0000      -0.411762       -11.2046
  62   2.0000      -0.406713       -11.0672
  63   2.0000      -0.335806        -9.1378
  64   2.0000      -0.327797        -8.9198
  65   2.0000      -0.319716        -8.6999
  66   2.0000      -0.308427        -8.3927
  67   0.0000       0.049330         1.3423
  68   0.0000       0.051094         1.3903
  69   0.0000       0.114136         3.1058
  70   0.0000       0.123567         3.3624
  71   0.0000       0.129811         3.5323

MULLIKEN ATOMIC CHARGES
-----------------------
   0 S :    0.137576
   1 C :   -0.132661
   2 C :   -0.129595
   3 C :    0.037419
   4 C :   -0.177073
   5 H :    0.017504
   6 C :    0.075965
   7 H :    0.053855
   8 H :    0.017639
   9 C :   -0.067509
  10 H :    0.030195
  11 H :    0.032896
  12 C :   -0.056377
  13 H :    0.044264
  14 H :    0.026823
  15 H :    0.032673
  16 S :    0.103846
  17 C :   -0.081215
  18 C :   -0.005972
  19 C :   -0.005941
  20 C :   -0.189676
  21 H :    0.000027
  22 C :    0.019290
  23 H :    0.039188
  24 H :    0.037017
  25 C :   -0.031673
  26 H :    0.013092
  27 H :    0.018195
  28 C :   -0.063939
  29 H :    0.030980
  30 H :    0.030515
  31 H :    0.032871
  32 H :    0.059560
  33 H :    0.050242
Sum of atomic charges:    0.0000000

LOEWDIN ATOMIC CHARGES
----------------------
   0 S :    0.425317
   1 C :   -0.216894
   2 C :   -0.062608
   3 C :   -0.065080
   4 C :   -0.203472
   5 H :    0.036087
   6 C :   -0.039323
   7 H :    0.041255
   8 H :    0.036357
   9 C :   -0.040288
  10 H :    0.030302
  11 H :    0.021107
  12 C :   -0.063651
  13 H :    0.027543
  14 H :    0.023020
  15 H :    0.025823
  16 S :    0.413381
  17 C :   -0.177923
  18 C :   -0.066534
  19 C :   -0.055992
  20 C :   -0.212104
  21 H :    0.022796
  22 C :   -0.037950
  23 H :    0.037421
  24 H :    0.035289
  25 C :   -0.044650
  26 H :    0.025600
  27 H :    0.021261
  28 C :   -0.058390
  29 H :    0.019007
  30 H :    0.031842
  31 H :    0.016025
  32 H :    0.034390
  33 H :    0.021036

  Mayer bond orders larger than 0.100000
B(  0-S ,  1-C ) :   1.1541 B(  0-S ,  4-C ) :   1.1500 B(  1-C ,  2-C ) :   1.6028
B(  1-C , 32-H ) :   0.9591 B(  2-C ,  3-C ) :   1.2149 B(  2-C ,  6-C ) :   1.0138
B(  3-C ,  4-C ) :   1.6279 B(  3-C ,  5-H ) :   0.9865 B(  4-C , 20-C ) :   0.9943
B(  6-C ,  7-H ) :   0.9248 B(  6-C ,  8-H ) :   0.9394 B(  6-C ,  9-C ) :   1.0800
B(  9-C , 10-H ) :   0.9542 B(  9-C , 11-H ) :   0.9524 B(  9-C , 12-C ) :   1.0620
B( 12-C , 13-H ) :   0.9745 B( 12-C , 14-H ) :   0.9745 B( 12-C , 15-H ) :   0.9771
B( 16-S , 17-C ) :   1.1815 B( 16-S , 20-C ) :   1.1453 B( 17-C , 18-C ) :   1.5666
B( 17-C , 20-C ) :   0.1009 B( 17-C , 33-H ) :   0.9728 B( 18-C , 19-C ) :   1.2598
B( 18-C , 21-H ) :   1.0027 B( 19-C , 20-C ) :   1.6058 B( 19-C , 22-C ) :   1.0408
B( 22-C , 23-H ) :   0.9440 B( 22-C , 24-H ) :   0.9424 B( 22-C , 25-C ) :   1.0424
B( 25-C , 26-H ) :   0.9512 B( 25-C , 27-H ) :   0.9589 B( 25-C , 28-C ) :   1.0940
B( 28-C , 29-H ) :   0.9753 B( 28-C , 30-H ) :   0.9718 B( 28-C , 31-H ) :   0.9774

Dispersion correction           -0.015833313
FINAL SINGLE POINT ENERGY     -1339.871220193626

DIPOLE MOMENT
-------------
                                X             Y             Z
Electronic contribution:      4.37995     -14.60271     -24.59926
Nuclear contribution   :     -4.49327      14.78210      25.16533
                        -----------------------------------------
Total Dipole Moment    :     -0.11331       0.17939       0.56608
                        -----------------------------------------
Magnitude (a.u.)       :      0.60453
Magnitude (Debye)      :      1.53660

Rotational constants in cm-1:     0.018209     0.010185     0.007698
Rotational constants in MHz :   545.877913   305.326061   230.772679

                             ****ORCA TERMINATED NORMALLY****
TOTAL RUN TIME: 0 days 0 hours 0 minutes 33 seconds 916 msec
