                         Program Version 4.2.1 -  RELEASE  -
|  1> ! wB97X-D3 SP def2-SVP
|  2> %pal
|  3> nprocs 16
|  4> end
|  5>
|  6> * xyz 0 1
|  7> S 	 34.8511 	 -1.61467 	 74.6821
|  8> C 	 34.8073 	 -1.3151 	 72.9368
|  9> C 	 34.3241 	 -0.0705768 	 72.629
| 10> C 	 33.8118 	 0.57883 	 73.7955
| 11> C 	 33.9304 	 -0.176731 	 74.9931
| 12> H 	 33.2967 	 1.53779 	 73.7575
| 13> C 	 34.3658 	 0.490321 	 71.2289
| 14> H 	 33.3203 	 0.664213 	 70.914
| 15> H 	 34.7744 	 -0.348365 	 70.5933
| 16> C 	 35.1517 	 1.80118 	 70.9714
| 17> H 	 36.1666 	 1.56469 	 71.4866
| 18> H 	 35.372 	 1.94839 	 69.9488
| 19> C 	 34.5528 	 2.94955 	 71.6976
| 20> H 	 33.5353 	 3.11512 	 71.5377
| 21> H 	 34.6277 	 2.94625 	 72.835
| 22> H 	 35.09 	 3.74907 	 71.1983
| 23> S 	 32.7589 	 -0.963069 	 77.3107
| 24> C 	 32.497 	 0.174586 	 78.5345
| 25> C 	 33.0209 	 1.41336 	 78.284
| 26> C 	 33.7363 	 1.4159 	 77.0508
| 27> C 	 33.6031 	 0.182169 	 76.3976
| 28> H 	 33.0734 	 2.13941 	 79.037
| 29> C 	 34.4273 	 2.68778 	 76.55
| 30> H 	 34.1096 	 3.45115 	 77.2394
| 31> H 	 33.9311 	 3.03278 	 75.654
| 32> C 	 35.9565 	 2.71808 	 76.3573
| 33> H 	 36.0815 	 3.59275 	 75.7178
| 34> H 	 36.2249 	 1.98849 	 75.6509
| 35> C 	 36.862 	 2.76549 	 77.5567
| 36> H 	 36.6769 	 3.56975 	 78.2915
| 37> H 	 37.8524 	 2.95868 	 77.0886
| 38> H 	 36.8377 	 1.82728 	 78.1544
| 39> H 	 35.3624 	 -1.92442 	 72.2414
| 40> H 	 32.1071 	 -0.24446 	 79.4941
| 41> *
| 42>
| 43>                          ****END OF INPUT****

CARTESIAN COORDINATES (ANGSTROEM)
---------------------------------
  S     34.851100   -1.614670   74.682100
  C     34.807300   -1.315100   72.936800
  C     34.324100   -0.070577   72.629000
  C     33.811800    0.578830   73.795500
  C     33.930400   -0.176731   74.993100
  H     33.296700    1.537790   73.757500
  C     34.365800    0.490321   71.228900
  H     33.320300    0.664213   70.914000
  H     34.774400   -0.348365   70.593300
  C     35.151700    1.801180   70.971400
  H     36.166600    1.564690   71.486600
  H     35.372000    1.948390   69.948800
  C     34.552800    2.949550   71.697600
  H     33.535300    3.115120   71.537700
  H     34.627700    2.946250   72.835000
  H     35.090000    3.749070   71.198300
  S     32.758900   -0.963069   77.310700
  C     32.497000    0.174586   78.534500
  C     33.020900    1.413360   78.284000
  C     33.736300    1.415900   77.050800
  C     33.603100    0.182169   76.397600
  H     33.073400    2.139410   79.037000
  C     34.427300    2.687780   76.550000
  H     34.109600    3.451150   77.239400
  H     33.931100    3.032780   75.654000
  C     35.956500    2.718080   76.357300
  H     36.081500    3.592750   75.717800
  H     36.224900    1.988490   75.650900
  C     36.862000    2.765490   77.556700
  H     36.676900    3.569750   78.291500
  H     37.852400    2.958680   77.088600
  H     36.837700    1.827280   78.154400
  H     35.362400   -1.924420   72.241400
  H     32.107100   -0.244460   79.494100

 Total Charge           Charge          ....    0
 Multiplicity           Mult            ....    1
 Number of Electrons    NEL             ....  134
 Basis Dimension        Dim             ....  322

ORBITAL ENERGIES
----------------

  NO   OCC          E(Eh)            E(eV)
   0   2.0000     -88.965008     -2420.8609
   1   2.0000     -88.964885     -2420.8576
   2   2.0000     -10.333157      -281.1795
   3   2.0000     -10.321827      -280.8712
   4   2.0000     -10.313611      -280.6476
   5   2.0000     -10.310486      -280.5626
   6   2.0000     -10.302660      -280.3496
   7   2.0000     -10.299796      -280.2717
   8   2.0000     -10.296809      -280.1904
   9   2.0000     -10.295675      -280.1596
  10   2.0000     -10.291564      -280.0477
  11   2.0000     -10.288942      -279.9763
  12   2.0000     -10.288183      -279.9557
  13   2.0000     -10.281045      -279.7615
  14   2.0000     -10.278838      -279.7014
  15   2.0000     -10.277214      -279.6572
  16   2.0000      -8.082270      -219.9297
  17   2.0000      -8.079560      -219.8560
  18   2.0000      -6.040325      -164.3656
  19   2.0000      -6.037965      -164.3014
  20   2.0000      -6.036365      -164.2579
  21   2.0000      -6.034130      -164.1970
  22   2.0000      -6.033410      -164.1774
  23   2.0000      -6.030393      -164.0953
  24   2.0000      -1.013526       -27.5794
  25   2.0000      -0.986592       -26.8465
  26   2.0000      -0.916048       -24.9269
  27   2.0000      -0.908320       -24.7166
  28   2.0000      -0.871726       -23.7209
  29   2.0000      -0.855785       -23.2871
  30   2.0000      -0.843234       -22.9456
  31   2.0000      -0.813612       -22.1395
  32   2.0000      -0.788477       -21.4556
  33   2.0000      -0.773041       -21.0355
  34   2.0000      -0.708618       -19.2825
  35   2.0000      -0.700599       -19.0643
  36   2.0000      -0.686267       -18.6743
  37   2.0000      -0.666568       -18.1382
  38   2.0000      -0.635555       -17.2943
  39   2.0000      -0.616155       -16.7664
  40   2.0000      -0.597017       -16.2457
  41   2.0000      -0.572058       -15.5665
  42   2.0000      -0.554875       -15.0989
  43   2.0000      -0.548448       -14.9240
  44   2.0000      -0.542845       -14.7716
  45   2.0000      -0.534567       -14.5463
  46   2.0000      -0.523512       -14.2455
  47   2.0000      -0.514561       -14.0019
  48   2.0000      -0.502235       -13.6665
  49   2.0000      -0.495170       -13.4743
  50   2.0000      -0.485210       -13.2032
  51   2.0000      -0.482600       -13.1322
  52   2.0000      -0.479308       -13.0426
  53   2.0000      -0.471657       -12.8344
  54   2.0000      -0.461438       -12.5564
  55   2.0000      -0.449159       -12.2222
  56   2.0000      -0.443978       -12.0813
  57   2.0000      -0.436406       -11.8752
  58   2.0000      -0.429821       -11.6960
  59   2.0000      -0.426121       -11.5953
  60   2.0000      -0.415150       -11.2968
  61   2.0000      -0.411062       -11.1856
  62   2.0000      -0.408976       -11.1288
  63   2.0000      -0.346428        -9.4268
  64   2.0000      -0.331925        -9.0321
  65   2.0000      -0.329022        -8.9531
  66   2.0000      -0.291155        -7.9227
  67   0.0000       0.030040         0.8174
  68   0.0000       0.075373         2.0510
  69   0.0000       0.109697         2.9850
  70   0.0000       0.119517         3.2522
  71   0.0000       0.127368         3.4659

MULLIKEN ATOMIC CHARGES
-----------------------
   0 S :    0.098886
   1 C :   -0.120394
   2 C :   -0.092004
   3 C :    0.011013
   4 C :   -0.134041
   5 H :    0.013073
   6 C :    0.034819
   7 H :    0.037036
   8 H :    0.023589
   9 C :   -0.068103
  10 H :    0.037196
  11 H :    0.033486
  12 C :   -0.044610
  13 H :    0.013822
  14 H :    0.052783
  15 H :    0.032409
  16 S :    0.133647
  17 C :   -0.114715
  18 C :   -0.009120
  19 C :   -0.053928
  20 C :   -0.166703
  21 H :    0.003210
  22 C :    0.082670
  23 H :   -0.004973
  24 H :    0.016457
  25 C :   -0.035710
  26 H :    0.011558
  27 H :    0.020175
  28 C :   -0.045327
  29 H :    0.029145
  30 H :    0.040856
  31 H :    0.048111
  32 H :    0.043616
  33 H :    0.072073
Sum of atomic charges:   -0.0000000

LOEWDIN ATOMIC CHARGES
----------------------
   0 S :    0.401238
   1 C :   -0.192576
   2 C :   -0.064125
   3 C :   -0.073132
   4 C :   -0.193258
   5 H :    0.027758
   6 C :   -0.037579
   7 H :    0.029545
   8 H :    0.033344
   9 C :   -0.040465
  10 H :    0.037671
  11 H :    0.021127
  12 C :   -0.070717
  13 H :    0.012718
  14 H :    0.036214
  15 H :    0.033353
  16 S :    0.462422
  17 C :   -0.204770
  18 C :   -0.069085
  19 C :   -0.052910
  20 C :   -0.231376
  21 H :    0.024414
  22 C :   -0.031767
  23 H :    0.025955
  24 H :    0.028899
  25 C :   -0.042784
  26 H :    0.027180
  27 H :    0.022256
  28 C :   -0.068032
  29 H :    0.024993
  30 H :    0.035948
  31 H :    0.031472
  32 H :    0.023234
  33 H :    0.032834

  Mayer bond orders larger than 0.100000
B(  0-S ,  1-C ) :   1.1324 B(  0-S ,  4-C ) :   1.1776 B(  1-C ,  2-C ) :   1.6224
B(  1-C ,  4-C ) :   0.1004 B(  1-C , 32-H ) :   0.9627 B(  2-C ,  3-C ) :   1.2487
B(  2-C ,  6-C ) :   1.0254 B(  3-C ,  4-C ) :   1.5513 B(  3-C ,  5-H ) :   0.9920
B(  4-C , 20-C ) :   1.0009 B(  6-C ,  7-H ) :   0.9404 B(  6-C ,  8-H ) :   0.9397
B(  6-C ,  9-C ) :   1.0607 B(  9-C , 10-H ) :   0.9488 B(  9-C , 11-H ) :   0.9617
B(  9-C , 12-C ) :   1.0760 B( 12-C , 13-H ) :   0.9742 B( 12-C , 14-H ) :   0.9638
B( 12-C , 15-H ) :   0.9684 B( 16-S , 17-C ) :   1.1952 B( 16-S , 20-C ) :   1.1806
B( 17-C , 18-C ) :   1.5620 B( 17-C , 33-H ) :   0.9608 B( 18-C , 19-C ) :   1.2832
B( 18-C , 21-H ) :   0.9979 B( 19-C , 20-C ) :   1.5572 B( 19-C , 22-C ) :   1.0303
B( 22-C , 23-H ) :   0.9270 B( 22-C , 24-H ) :   0.9305 B( 22-C , 25-C ) :   1.0758
B( 25-C , 26-H ) :   0.9465 B( 25-C , 27-H ) :   0.9514 B( 25-C , 28-C ) :   1.0750
B( 28-C , 29-H ) :   0.9743 B( 28-C , 30-H ) :   0.9712 B( 28-C , 31-H ) :   0.9753

Dispersion correction           -0.015261638
FINAL SINGLE POINT ENERGY     -1339.870998494049

DIPOLE MOMENT
-------------
                                X             Y             Z
Electronic contribution:    -10.87938     -23.36438      11.27838
Nuclear contribution   :     11.08759      23.98443     -11.50350
                        -----------------------------------------
Total Dipole Moment    :      0.20822       0.62006      -0.22512
                        -----------------------------------------
Magnitude (a.u.)       :      0.69174
Magnitude (Debye)      :      1.75826

Rotational constants in cm-1:     0.018285     0.009781     0.007591
Rotational constants in MHz :   548.160988   293.230333   227.569244

                             ****ORCA TERMINATED NORMALLY****
TOTAL RUN TIME: 0 days 0 hours 0 minutes 31 seconds 676 msec
