                         Program Version 4.2.1 -  RELEASE  -
|  1> ! wB97X-D3 SP def2-SVP
|  2> %pal
|  3> nprocs 16
|  4> end
|  5>
|  6> * xyz 0 1
|  7> S 	 10.8207 	 24.1941 	 65.2129
|  8> C 	 11.8107 	 22.9636 	 65.8346
|  9> C 	 11.2386 	 22.318 	 66.8954
| 10> C 	 9.82286 	 22.643 	 67.0333
| 11> C 	 9.50129 	 23.7859 	 66.3229
| 12> H 	 9.10338 	 22.1065 	 67.6185
| 13> C 	 11.9379 	 21.2727 	 67.7142
| 14> H 	 11.7603 	 21.5808 	 68.7554
| 15> H 	 13.0396 	 21.2571 	 67.5824
| 16> C 	 11.4892 	 19.8244 	 67.5624
| 17> H 	 12.3335 	 19.1096 	 67.7662
| 18> H 	 10.7379 	 19.6581 	 68.265
| 19> C 	 10.9833 	 19.4197 	 66.1969
| 20> H 	 10.6191 	 18.378 	 66.3713
| 21> H 	 10.3015 	 20.1865 	 65.7575
| 22> H 	 11.8468 	 19.4618 	 65.5532
| 23> S 	 7.84763 	 25.8191 	 67.2138
| 24> C 	 6.3319 	 26.1005 	 66.4096
| 25> C 	 6.01911 	 25.0067 	 65.6022
| 26> C 	 7.02138 	 24.0082 	 65.5226
| 27> C 	 8.15074 	 24.3962 	 66.2343
| 28> H 	 5.05518 	 25.0659 	 65.063
| 29> C 	 6.97232 	 22.8832 	 64.5761
| 30> H 	 7.86902 	 22.2336 	 64.7098
| 31> H 	 6.97553 	 23.2883 	 63.5482
| 32> C 	 5.76502 	 21.9641 	 64.7199
| 33> H 	 4.91259 	 22.5042 	 64.3844
| 34> H 	 5.66433 	 21.6701 	 65.7851
| 35> C 	 5.81144 	 20.6773 	 63.8899
| 36> H 	 6.82684 	 20.1849 	 64.0878
| 37> H 	 5.86209 	 20.8137 	 62.8289
| 38> H 	 4.93283 	 20.0609 	 64.0614
| 39> H 	 12.7485 	 22.6901 	 65.3854
| 40> H 	 5.71658 	 27.0575 	 66.397
| 41> *
| 42>
| 43>                          ****END OF INPUT****

CARTESIAN COORDINATES (ANGSTROEM)
---------------------------------
  S     10.820700   24.194100   65.212900
  C     11.810700   22.963600   65.834600
  C     11.238600   22.318000   66.895400
  C      9.822860   22.643000   67.033300
  C      9.501290   23.785900   66.322900
  H      9.103380   22.106500   67.618500
  C     11.937900   21.272700   67.714200
  H     11.760300   21.580800   68.755400
  H     13.039600   21.257100   67.582400
  C     11.489200   19.824400   67.562400
  H     12.333500   19.109600   67.766200
  H     10.737900   19.658100   68.265000
  C     10.983300   19.419700   66.196900
  H     10.619100   18.378000   66.371300
  H     10.301500   20.186500   65.757500
  H     11.846800   19.461800   65.553200
  S      7.847630   25.819100   67.213800
  C      6.331900   26.100500   66.409600
  C      6.019110   25.006700   65.602200
  C      7.021380   24.008200   65.522600
  C      8.150740   24.396200   66.234300
  H      5.055180   25.065900   65.063000
  C      6.972320   22.883200   64.576100
  H      7.869020   22.233600   64.709800
  H      6.975530   23.288300   63.548200
  C      5.765020   21.964100   64.719900
  H      4.912590   22.504200   64.384400
  H      5.664330   21.670100   65.785100
  C      5.811440   20.677300   63.889900
  H      6.826840   20.184900   64.087800
  H      5.862090   20.813700   62.828900
  H      4.932830   20.060900   64.061400
  H     12.748500   22.690100   65.385400
  H      5.716580   27.057500   66.397000

 Total Charge           Charge          ....    0
 Multiplicity           Mult            ....    1
 Number of Electrons    NEL             ....  134
 Basis Dimension        Dim             ....  322

ORBITAL ENERGIES
----------------

  NO   OCC          E(Eh)            E(eV)
   0   2.0000     -88.964770     -2420.8545
   1   2.0000     -88.964105     -2420.8364
   2   2.0000     -10.331248      -281.1275
   3   2.0000     -10.325658      -280.9754
   4   2.0000     -10.320833      -280.8441
   5   2.0000     -10.310210      -280.5551
   6   2.0000     -10.301315      -280.3130
   7   2.0000     -10.301146      -280.3084
   8   2.0000     -10.299777      -280.2712
   9   2.0000     -10.294485      -280.1272
  10   2.0000     -10.290232      -280.0115
  11   2.0000     -10.289186      -279.9830
  12   2.0000     -10.283464      -279.8273
  13   2.0000     -10.280190      -279.7382
  14   2.0000     -10.279082      -279.7080
  15   2.0000     -10.276495      -279.6377
  16   2.0000      -8.080222      -219.8740
  17   2.0000      -8.078965      -219.8398
  18   2.0000      -6.038718      -164.3219
  19   2.0000      -6.037401      -164.2860
  20   2.0000      -6.034585      -164.2094
  21   2.0000      -6.033416      -164.1776
  22   2.0000      -6.030979      -164.1113
  23   2.0000      -6.029835      -164.0802
  24   2.0000      -1.007032       -27.4027
  25   2.0000      -0.987994       -26.8847
  26   2.0000      -0.914891       -24.8954
  27   2.0000      -0.913103       -24.8468
  28   2.0000      -0.867948       -23.6181
  29   2.0000      -0.851948       -23.1827
  30   2.0000      -0.848009       -23.0755
  31   2.0000      -0.814119       -22.1533
  32   2.0000      -0.782802       -21.3011
  33   2.0000      -0.771123       -20.9833
  34   2.0000      -0.701877       -19.0990
  35   2.0000      -0.694429       -18.8964
  36   2.0000      -0.688212       -18.7272
  37   2.0000      -0.651430       -17.7263
  38   2.0000      -0.645706       -17.5705
  39   2.0000      -0.618511       -16.8305
  40   2.0000      -0.595114       -16.1939
  41   2.0000      -0.572634       -15.5822
  42   2.0000      -0.563301       -15.3282
  43   2.0000      -0.560635       -15.2557
  44   2.0000      -0.550969       -14.9926
  45   2.0000      -0.525381       -14.2964
  46   2.0000      -0.516404       -14.0521
  47   2.0000      -0.512360       -13.9420
  48   2.0000      -0.508258       -13.8304
  49   2.0000      -0.499062       -13.5802
  50   2.0000      -0.490179       -13.3384
  51   2.0000      -0.478758       -13.0277
  52   2.0000      -0.469443       -12.7742
  53   2.0000      -0.459867       -12.5136
  54   2.0000      -0.457778       -12.4568
  55   2.0000      -0.449103       -12.2207
  56   2.0000      -0.445840       -12.1319
  57   2.0000      -0.433706       -11.8017
  58   2.0000      -0.427105       -11.6221
  59   2.0000      -0.423175       -11.5152
  60   2.0000      -0.417641       -11.3646
  61   2.0000      -0.415702       -11.3118
  62   2.0000      -0.409586       -11.1454
  63   2.0000      -0.334441        -9.1006
  64   2.0000      -0.330124        -8.9831
  65   2.0000      -0.320007        -8.7078
  66   2.0000      -0.308476        -8.3941
  67   0.0000       0.043976         1.1967
  68   0.0000       0.053645         1.4598
  69   0.0000       0.106041         2.8855
  70   0.0000       0.123835         3.3697
  71   0.0000       0.124933         3.3996

MULLIKEN ATOMIC CHARGES
-----------------------
   0 S :    0.122380
   1 C :   -0.115224
   2 C :   -0.118071
   3 C :    0.050736
   4 C :   -0.164934
   5 H :    0.016668
   6 C :    0.075870
   7 H :    0.037141
   8 H :    0.024248
   9 C :   -0.100063
  10 H :    0.035322
  11 H :    0.013214
  12 C :   -0.045534
  13 H :    0.049479
  14 H :    0.049630
  15 H :    0.016303
  16 S :    0.118275
  17 C :   -0.125197
  18 C :   -0.064562
  19 C :    0.032897
  20 C :   -0.209025
  21 H :    0.030689
  22 C :    0.058011
  23 H :    0.025619
  24 H :    0.041746
  25 C :   -0.095649
  26 H :    0.021749
  27 H :    0.037256
  28 C :   -0.043357
  29 H :    0.031311
  30 H :    0.017836
  31 H :    0.043645
  32 H :    0.048011
  33 H :    0.083578
Sum of atomic charges:   -0.0000000

LOEWDIN ATOMIC CHARGES
----------------------
   0 S :    0.417491
   1 C :   -0.205003
   2 C :   -0.069123
   3 C :   -0.047328
   4 C :   -0.196714
   5 H :    0.030658
   6 C :   -0.039777
   7 H :    0.037535
   8 H :    0.032857
   9 C :   -0.046926
  10 H :    0.032259
  11 H :    0.009752
  12 C :   -0.069350
  13 H :    0.035691
  14 H :    0.029184
  15 H :    0.019676
  16 S :    0.411330
  17 C :   -0.204327
  18 C :   -0.077867
  19 C :   -0.058624
  20 C :   -0.202369
  21 H :    0.035445
  22 C :   -0.035151
  23 H :    0.031961
  24 H :    0.038046
  25 C :   -0.040784
  26 H :    0.016682
  27 H :    0.029191
  28 C :   -0.069365
  29 H :    0.031996
  30 H :    0.018730
  31 H :    0.028873
  32 H :    0.027722
  33 H :    0.047629

  Mayer bond orders larger than 0.100000
B(  0-S ,  1-C ) :   1.1535 B(  0-S ,  4-C ) :   1.1423 B(  1-C ,  2-C ) :   1.6138
B(  1-C , 32-H ) :   0.9679 B(  2-C ,  3-C ) :   1.2038 B(  2-C ,  6-C ) :   1.0408
B(  3-C ,  4-C ) :   1.6043 B(  3-C ,  5-H ) :   0.9985 B(  4-C , 20-C ) :   1.0043
B(  6-C ,  7-H ) :   0.9394 B(  6-C ,  8-H ) :   0.9443 B(  6-C ,  9-C ) :   1.0540
B(  9-C , 10-H ) :   0.9603 B(  9-C , 11-H ) :   0.9548 B(  9-C , 12-C ) :   1.0918
B( 12-C , 13-H ) :   0.9726 B( 12-C , 14-H ) :   0.9613 B( 12-C , 15-H ) :   0.9762
B( 16-S , 17-C ) :   1.1563 B( 16-S , 20-C ) :   1.1592 B( 17-C , 18-C ) :   1.6173
B( 17-C , 20-C ) :   0.1021 B( 17-C , 33-H ) :   0.9582 B( 18-C , 19-C ) :   1.2199
B( 18-C , 21-H ) :   0.9853 B( 19-C , 20-C ) :   1.5812 B( 19-C , 22-C ) :   1.0679
B( 22-C , 23-H ) :   0.9282 B( 22-C , 24-H ) :   0.9300 B( 22-C , 25-C ) :   1.0616
B( 25-C , 26-H ) :   0.9507 B( 25-C , 27-H ) :   0.9578 B( 25-C , 28-C ) :   1.0940
B( 28-C , 29-H ) :   0.9713 B( 28-C , 30-H ) :   0.9709 B( 28-C , 31-H ) :   0.9736

Dispersion correction           -0.014843740
FINAL SINGLE POINT ENERGY     -1339.874050584527

DIPOLE MOMENT
-------------
                                X             Y             Z
Electronic contribution:      3.73831      27.66001       4.72309
Nuclear contribution   :     -3.87793     -28.17364      -4.89779
                        -----------------------------------------
Total Dipole Moment    :     -0.13962      -0.51364      -0.17470
                        -----------------------------------------
Magnitude (a.u.)       :      0.56021
Magnitude (Debye)      :      1.42394

Rotational constants in cm-1:     0.017202     0.009463     0.007111
Rotational constants in MHz :   515.705947   283.705323   213.167650

                             ****ORCA TERMINATED NORMALLY****
TOTAL RUN TIME: 0 days 0 hours 0 minutes 35 seconds 844 msec
