                         Program Version 4.2.1 -  RELEASE  -
|  1> ! wB97X-D3 SP def2-SVP
|  2> %pal
|  3> nprocs 16
|  4> end
|  5>
|  6> * xyz 0 1
|  7> S 	 -12.906 	 -10.9184 	 84.4224
|  8> C 	 -14.3649 	 -11.8232 	 84.0351
|  9> C 	 -15.5236 	 -11.0777 	 84.2593
| 10> C 	 -15.2025 	 -9.7924 	 84.8036
| 11> C 	 -13.834 	 -9.56593 	 84.9797
| 12> H 	 -15.998 	 -9.04654 	 85.0869
| 13> C 	 -16.9083 	 -11.6773 	 84.0406
| 14> H 	 -16.6622 	 -12.6493 	 83.6657
| 15> H 	 -17.4866 	 -11.0856 	 83.3347
| 16> C 	 -17.7977 	 -11.7991 	 85.2034
| 17> H 	 -17.262 	 -12.4051 	 86.0162
| 18> H 	 -18.0256 	 -10.8052 	 85.5863
| 19> C 	 -19.1295 	 -12.6277 	 84.948
| 20> H 	 -19.9206 	 -12.2764 	 85.5953
| 21> H 	 -19.5878 	 -12.6147 	 83.9092
| 22> H 	 -18.9873 	 -13.6908 	 85.2349
| 23> S 	 -11.9358 	 -8.74394 	 86.7533
| 24> C 	 -11.6674 	 -7.05744 	 87.0209
| 25> C 	 -12.5801 	 -6.35933 	 86.2957
| 26> C 	 -13.4098 	 -7.07847 	 85.4519
| 27> C 	 -13.2244 	 -8.4338 	 85.6721
| 28> H 	 -12.6095 	 -5.29446 	 86.3887
| 29> C 	 -14.4301 	 -6.32832 	 84.5719
| 30> H 	 -14.4518 	 -5.33644 	 84.9779
| 31> H 	 -15.4872 	 -6.60054 	 84.673
| 32> C 	 -14.1414 	 -6.30008 	 83.0351
| 33> H 	 -14.399 	 -7.25154 	 82.5209
| 34> H 	 -13.0671 	 -6.27828 	 82.9513
| 35> C 	 -14.9412 	 -5.211 	 82.4741
| 36> H 	 -14.7229 	 -4.30473 	 83.0092
| 37> H 	 -16.0281 	 -5.30588 	 82.4998
| 38> H 	 -14.6558 	 -5.0336 	 81.356
| 39> H 	 -14.2706 	 -12.7715 	 83.5299
| 40> H 	 -10.9939 	 -6.58988 	 87.6742
| 41> *
| 42>
| 43>                          ****END OF INPUT****

CARTESIAN COORDINATES (ANGSTROEM)
---------------------------------
  S    -12.906000  -10.918400   84.422400
  C    -14.364900  -11.823200   84.035100
  C    -15.523600  -11.077700   84.259300
  C    -15.202500   -9.792400   84.803600
  C    -13.834000   -9.565930   84.979700
  H    -15.998000   -9.046540   85.086900
  C    -16.908300  -11.677300   84.040600
  H    -16.662200  -12.649300   83.665700
  H    -17.486600  -11.085600   83.334700
  C    -17.797700  -11.799100   85.203400
  H    -17.262000  -12.405100   86.016200
  H    -18.025600  -10.805200   85.586300
  C    -19.129500  -12.627700   84.948000
  H    -19.920600  -12.276400   85.595300
  H    -19.587800  -12.614700   83.909200
  H    -18.987300  -13.690800   85.234900
  S    -11.935800   -8.743940   86.753300
  C    -11.667400   -7.057440   87.020900
  C    -12.580100   -6.359330   86.295700
  C    -13.409800   -7.078470   85.451900
  C    -13.224400   -8.433800   85.672100
  H    -12.609500   -5.294460   86.388700
  C    -14.430100   -6.328320   84.571900
  H    -14.451800   -5.336440   84.977900
  H    -15.487200   -6.600540   84.673000
  C    -14.141400   -6.300080   83.035100
  H    -14.399000   -7.251540   82.520900
  H    -13.067100   -6.278280   82.951300
  C    -14.941200   -5.211000   82.474100
  H    -14.722900   -4.304730   83.009200
  H    -16.028100   -5.305880   82.499800
  H    -14.655800   -5.033600   81.356000
  H    -14.270600  -12.771500   83.529900
  H    -10.993900   -6.589880   87.674200

 Total Charge           Charge          ....    0
 Multiplicity           Mult            ....    1
 Number of Electrons    NEL             ....  134
 Basis Dimension        Dim             ....  322

ORBITAL ENERGIES
----------------

  NO   OCC          E(Eh)            E(eV)
   0   2.0000     -88.967137     -2420.9189
   1   2.0000     -88.967012     -2420.9155
   2   2.0000     -10.329549      -281.0813
   3   2.0000     -10.323467      -280.9158
   4   2.0000     -10.314211      -280.6640
   5   2.0000     -10.307318      -280.4764
   6   2.0000     -10.303875      -280.3827
   7   2.0000     -10.298873      -280.2466
   8   2.0000     -10.297083      -280.1979
   9   2.0000     -10.292370      -280.0696
  10   2.0000     -10.292267      -280.0668
  11   2.0000     -10.287568      -279.9390
  12   2.0000     -10.287152      -279.9276
  13   2.0000     -10.282847      -279.8105
  14   2.0000     -10.281683      -279.7788
  15   2.0000     -10.279534      -279.7203
  16   2.0000      -8.082814      -219.9446
  17   2.0000      -8.081865      -219.9187
  18   2.0000      -6.041121      -164.3873
  19   2.0000      -6.040283      -164.3645
  20   2.0000      -6.037115      -164.2782
  21   2.0000      -6.036316      -164.2565
  22   2.0000      -6.033786      -164.1877
  23   2.0000      -6.032768      -164.1600
  24   2.0000      -1.014727       -27.6121
  25   2.0000      -0.987453       -26.8700
  26   2.0000      -0.916295       -24.9336
  27   2.0000      -0.913040       -24.8451
  28   2.0000      -0.869709       -23.6660
  29   2.0000      -0.858206       -23.3530
  30   2.0000      -0.842520       -22.9261
  31   2.0000      -0.813322       -22.1316
  32   2.0000      -0.781800       -21.2739
  33   2.0000      -0.771890       -21.0042
  34   2.0000      -0.709955       -19.3189
  35   2.0000      -0.699089       -19.0232
  36   2.0000      -0.689255       -18.7556
  37   2.0000      -0.662868       -18.0376
  38   2.0000      -0.638793       -17.3825
  39   2.0000      -0.621847       -16.9213
  40   2.0000      -0.602961       -16.4074
  41   2.0000      -0.577811       -15.7230
  42   2.0000      -0.563130       -15.3235
  43   2.0000      -0.559535       -15.2257
  44   2.0000      -0.524502       -14.2724
  45   2.0000      -0.518919       -14.1205
  46   2.0000      -0.518108       -14.0984
  47   2.0000      -0.509003       -13.8507
  48   2.0000      -0.503590       -13.7034
  49   2.0000      -0.501663       -13.6509
  50   2.0000      -0.493822       -13.4376
  51   2.0000      -0.482151       -13.1200
  52   2.0000      -0.471098       -12.8192
  53   2.0000      -0.469413       -12.7734
  54   2.0000      -0.457460       -12.4481
  55   2.0000      -0.452166       -12.3041
  56   2.0000      -0.449429       -12.2296
  57   2.0000      -0.437589       -11.9074
  58   2.0000      -0.428869       -11.6701
  59   2.0000      -0.424501       -11.5513
  60   2.0000      -0.421424       -11.4675
  61   2.0000      -0.412997       -11.2382
  62   2.0000      -0.404745       -11.0137
  63   2.0000      -0.349906        -9.5214
  64   2.0000      -0.335249        -9.1226
  65   2.0000      -0.332035        -9.0351
  66   2.0000      -0.288382        -7.8473
  67   0.0000       0.028821         0.7843
  68   0.0000       0.076923         2.0932
  69   0.0000       0.114609         3.1187
  70   0.0000       0.120725         3.2851
  71   0.0000       0.141328         3.8457

MULLIKEN ATOMIC CHARGES
-----------------------
   0 S :    0.112996
   1 C :   -0.149325
   2 C :   -0.083679
   3 C :    0.000402
   4 C :   -0.143506
   5 H :    0.031492
   6 C :    0.127586
   7 H :    0.003962
   8 H :    0.027196
   9 C :   -0.108162
  10 H :    0.042267
  11 H :    0.031890
  12 C :   -0.079875
  13 H :    0.032219
  14 H :    0.040741
  15 H :    0.041885
  16 S :    0.121241
  17 C :   -0.066098
  18 C :   -0.038620
  19 C :    0.000624
  20 C :   -0.162693
  21 H :    0.003783
  22 C :    0.036575
  23 H :    0.002460
  24 H :    0.021940
  25 C :   -0.040160
  26 H :    0.039938
  27 H :    0.028373
  28 C :   -0.057941
  29 H :    0.018400
  30 H :    0.034050
  31 H :    0.044012
  32 H :    0.053703
  33 H :    0.032323
Sum of atomic charges:   -0.0000000

LOEWDIN ATOMIC CHARGES
----------------------
   0 S :    0.410762
   1 C :   -0.198402
   2 C :   -0.058584
   3 C :   -0.071000
   4 C :   -0.198117
   5 H :    0.038585
   6 C :   -0.031709
   7 H :    0.027177
   8 H :    0.031667
   9 C :   -0.043683
  10 H :    0.034328
  11 H :    0.020340
  12 C :   -0.077271
  13 H :    0.025465
  14 H :    0.030039
  15 H :    0.029702
  16 S :    0.438493
  17 C :   -0.191420
  18 C :   -0.069215
  19 C :   -0.063264
  20 C :   -0.206846
  21 H :    0.025649
  22 C :   -0.026567
  23 H :    0.024523
  24 H :    0.027629
  25 C :   -0.042761
  26 H :    0.030961
  27 H :    0.024022
  28 C :   -0.070761
  29 H :    0.019535
  30 H :    0.026592
  31 H :    0.036873
  32 H :    0.024432
  33 H :    0.022825

  Mayer bond orders larger than 0.100000
B(  0-S ,  1-C ) :   1.1421 B(  0-S ,  4-C ) :   1.1661 B(  1-C ,  2-C ) :   1.5899
B(  1-C , 32-H ) :   0.9665 B(  2-C ,  3-C ) :   1.2610 B(  2-C ,  6-C ) :   1.0290
B(  3-C ,  4-C ) :   1.5530 B(  3-C ,  5-H ) :   0.9837 B(  4-C , 20-C ) :   1.0441
B(  6-C ,  7-H ) :   0.9364 B(  6-C ,  8-H ) :   0.9256 B(  6-C ,  9-C ) :   1.0804
B(  9-C , 10-H ) :   0.9570 B(  9-C , 11-H ) :   0.9575 B(  9-C , 12-C ) :   1.0598
B( 12-C , 13-H ) :   0.9769 B( 12-C , 14-H ) :   0.9772 B( 12-C , 15-H ) :   0.9800
B( 16-S , 17-C ) :   1.1531 B( 16-S , 20-C ) :   1.1737 B( 17-C , 18-C ) :   1.5863
B( 17-C , 33-H ) :   0.9747 B( 18-C , 19-C ) :   1.2923 B( 18-C , 21-H ) :   0.9864
B( 19-C , 20-C ) :   1.5497 B( 19-C , 22-C ) :   1.0221 B( 22-C , 23-H ) :   0.9429
B( 22-C , 24-H ) :   0.9386 B( 22-C , 25-C ) :   1.0464 B( 25-C , 26-H ) :   0.9487
B( 25-C , 27-H ) :   0.9577 B( 25-C , 28-C ) :   1.0848 B( 28-C , 29-H ) :   0.9740
B( 28-C , 30-H ) :   0.9709 B( 28-C , 31-H ) :   0.9688

Dispersion correction           -0.013563169
FINAL SINGLE POINT ENERGY     -1339.877701963547

DIPOLE MOMENT
-------------
                                X             Y             Z
Electronic contribution:     25.75250      -4.98116      10.30280
Nuclear contribution   :    -26.28192       5.24387     -10.41363
                        -----------------------------------------
Total Dipole Moment    :     -0.52942       0.26271      -0.11082
                        -----------------------------------------
Magnitude (a.u.)       :      0.60132
Magnitude (Debye)      :      1.52843

Rotational constants in cm-1:     0.017620     0.008112     0.006600
Rotational constants in MHz :   528.244946   243.199138   197.873086

                             ****ORCA TERMINATED NORMALLY****
TOTAL RUN TIME: 0 days 0 hours 0 minutes 32 seconds 112 msec
