                         Program Version 4.2.1 -  RELEASE  -
|  1> ! wB97X-D3 SP def2-SVP
|  2> %pal
|  3> nprocs 16
|  4> end
|  5>
|  6> * xyz 0 1
|  7> S 	 -5.89852 	 -15.6748 	 70.5619
|  8> C 	 -5.09657 	 -16.823 	 69.5431
|  9> C 	 -4.83589 	 -16.3324 	 68.2826
| 10> C 	 -5.49548 	 -15.0703 	 68.0817
| 11> C 	 -6.0745 	 -14.533 	 69.239
| 12> H 	 -5.4485 	 -14.4325 	 67.1762
| 13> C 	 -4.16966 	 -17.1429 	 67.1306
| 14> H 	 -3.22963 	 -17.5985 	 67.5536
| 15> H 	 -3.90092 	 -16.5457 	 66.251
| 16> C 	 -4.92693 	 -18.3012 	 66.5457
| 17> H 	 -4.48442 	 -18.7205 	 65.6395
| 18> H 	 -5.12063 	 -19.0778 	 67.2919
| 19> C 	 -6.36788 	 -17.8593 	 66.0613
| 20> H 	 -7.00451 	 -17.4661 	 66.9163
| 21> H 	 -6.25064 	 -17.0637 	 65.3904
| 22> H 	 -6.89087 	 -18.6522 	 65.5928
| 23> S 	 -8.55043 	 -13.1438 	 69.3755
| 24> C 	 -8.47252 	 -11.3726 	 69.7009
| 25> C 	 -7.15423 	 -10.9368 	 69.6289
| 26> C 	 -6.27132 	 -12.0034 	 69.3726
| 27> C 	 -6.78982 	 -13.2484 	 69.2748
| 28> H 	 -6.89916 	 -9.84877 	 69.8604
| 29> C 	 -4.75785 	 -11.8502 	 69.3541
| 30> H 	 -4.55558 	 -10.782 	 69.2536
| 31> H 	 -4.35205 	 -12.2297 	 68.4212
| 32> C 	 -3.98794 	 -12.2626 	 70.6171
| 33> H 	 -4.42244 	 -13.193 	 71.0166
| 34> H 	 -4.18525 	 -11.5754 	 71.4252
| 35> C 	 -2.52675 	 -12.3574 	 70.4266
| 36> H 	 -2.27019 	 -12.9801 	 69.5669
| 37> H 	 -2.15649 	 -12.7226 	 71.4035
| 38> H 	 -2.15878 	 -11.3722 	 70.2272
| 39> H 	 -4.84457 	 -17.8534 	 69.8132
| 40> H 	 -9.32661 	 -10.807 	 70.1482
| 41> *
| 42>
| 43>                          ****END OF INPUT****

CARTESIAN COORDINATES (ANGSTROEM)
---------------------------------
  S     -5.898520  -15.674800   70.561900
  C     -5.096570  -16.823000   69.543100
  C     -4.835890  -16.332400   68.282600
  C     -5.495480  -15.070300   68.081700
  C     -6.074500  -14.533000   69.239000
  H     -5.448500  -14.432500   67.176200
  C     -4.169660  -17.142900   67.130600
  H     -3.229630  -17.598500   67.553600
  H     -3.900920  -16.545700   66.251000
  C     -4.926930  -18.301200   66.545700
  H     -4.484420  -18.720500   65.639500
  H     -5.120630  -19.077800   67.291900
  C     -6.367880  -17.859300   66.061300
  H     -7.004510  -17.466100   66.916300
  H     -6.250640  -17.063700   65.390400
  H     -6.890870  -18.652200   65.592800
  S     -8.550430  -13.143800   69.375500
  C     -8.472520  -11.372600   69.700900
  C     -7.154230  -10.936800   69.628900
  C     -6.271320  -12.003400   69.372600
  C     -6.789820  -13.248400   69.274800
  H     -6.899160   -9.848770   69.860400
  C     -4.757850  -11.850200   69.354100
  H     -4.555580  -10.782000   69.253600
  H     -4.352050  -12.229700   68.421200
  C     -3.987940  -12.262600   70.617100
  H     -4.422440  -13.193000   71.016600
  H     -4.185250  -11.575400   71.425200
  C     -2.526750  -12.357400   70.426600
  H     -2.270190  -12.980100   69.566900
  H     -2.156490  -12.722600   71.403500
  H     -2.158780  -11.372200   70.227200
  H     -4.844570  -17.853400   69.813200
  H     -9.326610  -10.807000   70.148200

 Total Charge           Charge          ....    0
 Multiplicity           Mult            ....    1
 Number of Electrons    NEL             ....  134
 Basis Dimension        Dim             ....  322

ORBITAL ENERGIES
----------------

  NO   OCC          E(Eh)            E(eV)
   0   2.0000     -88.973419     -2421.0898
   1   2.0000     -88.963238     -2420.8128
   2   2.0000     -10.332858      -281.1714
   3   2.0000     -10.326863      -281.0082
   4   2.0000     -10.323085      -280.9054
   5   2.0000     -10.318010      -280.7673
   6   2.0000     -10.307364      -280.4776
   7   2.0000     -10.302575      -280.3473
   8   2.0000     -10.301257      -280.3115
   9   2.0000     -10.299806      -280.2720
  10   2.0000     -10.297132      -280.1992
  11   2.0000     -10.287523      -279.9377
  12   2.0000     -10.282833      -279.8101
  13   2.0000     -10.273592      -279.5586
  14   2.0000     -10.269713      -279.4531
  15   2.0000     -10.269514      -279.4477
  16   2.0000      -8.087483      -220.0716
  17   2.0000      -8.077093      -219.7889
  18   2.0000      -6.046006      -164.5202
  19   2.0000      -6.041944      -164.4097
  20   2.0000      -6.038392      -164.3130
  21   2.0000      -6.035681      -164.2392
  22   2.0000      -6.031716      -164.1313
  23   2.0000      -6.027820      -164.0253
  24   2.0000      -1.005694       -27.3663
  25   2.0000      -0.984600       -26.7923
  26   2.0000      -0.910297       -24.7704
  27   2.0000      -0.907805       -24.7026
  28   2.0000      -0.868034       -23.6204
  29   2.0000      -0.850712       -23.1490
  30   2.0000      -0.844044       -22.9676
  31   2.0000      -0.812738       -22.1157
  32   2.0000      -0.781891       -21.2763
  33   2.0000      -0.768626       -20.9154
  34   2.0000      -0.702333       -19.1115
  35   2.0000      -0.696155       -18.9434
  36   2.0000      -0.687951       -18.7201
  37   2.0000      -0.659927       -17.9575
  38   2.0000      -0.641258       -17.4495
  39   2.0000      -0.607925       -16.5425
  40   2.0000      -0.592010       -16.1094
  41   2.0000      -0.578885       -15.7523
  42   2.0000      -0.561153       -15.2698
  43   2.0000      -0.549045       -14.9403
  44   2.0000      -0.545332       -14.8392
  45   2.0000      -0.530406       -14.4331
  46   2.0000      -0.511830       -13.9276
  47   2.0000      -0.506106       -13.7718
  48   2.0000      -0.502903       -13.6847
  49   2.0000      -0.499977       -13.6051
  50   2.0000      -0.483624       -13.1601
  51   2.0000      -0.477579       -12.9956
  52   2.0000      -0.472428       -12.8554
  53   2.0000      -0.464491       -12.6394
  54   2.0000      -0.460817       -12.5395
  55   2.0000      -0.444718       -12.1014
  56   2.0000      -0.441725       -12.0199
  57   2.0000      -0.440621       -11.9899
  58   2.0000      -0.432036       -11.7563
  59   2.0000      -0.421890       -11.4802
  60   2.0000      -0.416734       -11.3399
  61   2.0000      -0.408628       -11.1193
  62   2.0000      -0.400221       -10.8906
  63   2.0000      -0.338531        -9.2119
  64   2.0000      -0.332044        -9.0354
  65   2.0000      -0.324155        -8.8207
  66   2.0000      -0.310097        -8.4382
  67   0.0000       0.030147         0.8203
  68   0.0000       0.056661         1.5418
  69   0.0000       0.111254         3.0274
  70   0.0000       0.118881         3.2349
  71   0.0000       0.132888         3.6161

MULLIKEN ATOMIC CHARGES
-----------------------
   0 S :    0.140544
   1 C :   -0.130239
   2 C :   -0.075300
   3 C :    0.028714
   4 C :   -0.179420
   5 H :    0.031447
   6 C :    0.052825
   7 H :    0.040793
   8 H :    0.028593
   9 C :   -0.079425
  10 H :    0.038038
  11 H :    0.027202
  12 C :   -0.067626
  13 H :    0.053074
  14 H :    0.010262
  15 H :    0.029173
  16 S :    0.092475
  17 C :   -0.130585
  18 C :   -0.041593
  19 C :   -0.038339
  20 C :   -0.166158
  21 H :    0.051113
  22 C :    0.086412
  23 H :   -0.003146
  24 H :    0.016084
  25 C :   -0.062330
  26 H :    0.015630
  27 H :    0.012704
  28 C :   -0.008785
  29 H :    0.033771
  30 H :    0.039150
  31 H :    0.016247
  32 H :    0.055219
  33 H :    0.083477
Sum of atomic charges:    0.0000000

LOEWDIN ATOMIC CHARGES
----------------------
   0 S :    0.427208
   1 C :   -0.199995
   2 C :   -0.067237
   3 C :   -0.054970
   4 C :   -0.197754
   5 H :    0.037367
   6 C :   -0.036636
   7 H :    0.038444
   8 H :    0.031936
   9 C :   -0.040346
  10 H :    0.027785
  11 H :    0.019494
  12 C :   -0.065038
  13 H :    0.034546
  14 H :    0.011217
  15 H :    0.018299
  16 S :    0.375506
  17 C :   -0.174562
  18 C :   -0.079789
  19 C :   -0.060299
  20 C :   -0.199503
  21 H :    0.048634
  22 C :   -0.033020
  23 H :    0.024737
  24 H :    0.026350
  25 C :   -0.044020
  26 H :    0.012629
  27 H :    0.021341
  28 C :   -0.056931
  29 H :    0.026053
  30 H :    0.034360
  31 H :    0.019245
  32 H :    0.033415
  33 H :    0.041536

  Mayer bond orders larger than 0.100000
B(  0-S ,  1-C ) :   1.1585 B(  0-S ,  4-C ) :   1.1444 B(  1-C ,  2-C ) :   1.5987
B(  1-C , 32-H ) :   0.9647 B(  2-C ,  3-C ) :   1.2439 B(  2-C ,  6-C ) :   1.0181
B(  3-C ,  4-C ) :   1.5863 B(  3-C ,  5-H ) :   0.9805 B(  4-C , 20-C ) :   1.0342
B(  6-C ,  7-H ) :   0.9385 B(  6-C ,  8-H ) :   0.9467 B(  6-C ,  9-C ) :   1.0811
B(  9-C , 10-H ) :   0.9573 B(  9-C , 11-H ) :   0.9560 B(  9-C , 12-C ) :   1.0707
B( 12-C , 13-H ) :   0.9728 B( 12-C , 14-H ) :   0.9779 B( 12-C , 15-H ) :   0.9771
B( 16-S , 17-C ) :   1.1600 B( 16-S , 20-C ) :   1.1179 B( 17-C , 18-C ) :   1.6012
B( 17-C , 33-H ) :   0.9583 B( 18-C , 19-C ) :   1.2565 B( 18-C , 21-H ) :   0.9774
B( 19-C , 20-C ) :   1.6258 B( 19-C , 22-C ) :   1.0406 B( 22-C , 23-H ) :   0.9223
B( 22-C , 24-H ) :   0.9335 B( 22-C , 25-C ) :   1.0546 B( 25-C , 26-H ) :   0.9555
B( 25-C , 27-H ) :   0.9463 B( 25-C , 28-C ) :   1.0897 B( 28-C , 29-H ) :   0.9748
B( 28-C , 30-H ) :   0.9695 B( 28-C , 31-H ) :   0.9724

Dispersion correction           -0.015499555
FINAL SINGLE POINT ENERGY     -1339.876841285295

DIPOLE MOMENT
-------------
                                X             Y             Z
Electronic contribution:    -17.07250       4.46698       9.74962
Nuclear contribution   :     17.48116      -4.41446      -9.89728
                        -----------------------------------------
Total Dipole Moment    :      0.40866       0.05252      -0.14766
                        -----------------------------------------
Magnitude (a.u.)       :      0.43768
Magnitude (Debye)      :      1.11249

Rotational constants in cm-1:     0.019304     0.009127     0.007435
Rotational constants in MHz :   578.709249   273.617943   222.905756

                             ****ORCA TERMINATED NORMALLY****
TOTAL RUN TIME: 0 days 0 hours 0 minutes 33 seconds 656 msec
