                         Program Version 4.2.1 -  RELEASE  -
|  1> ! wB97X-D3 SP def2-SVP
|  2> %pal
|  3> nprocs 16
|  4> end
|  5>
|  6> * xyz 0 1
|  7> S 	 62.0417 	 -6.71757 	 88.4526
|  8> C 	 61.8621 	 -5.27399 	 89.3628
|  9> C 	 61.0545 	 -4.34889 	 88.8187
| 10> C 	 60.686 	 -4.78184 	 87.5363
| 11> C 	 61.3205 	 -5.9101 	 87.0548
| 12> H 	 60.0164 	 -4.22022 	 86.9322
| 13> C 	 60.4466 	 -3.10149 	 89.5029
| 14> H 	 60.7106 	 -2.27299 	 88.8714
| 15> H 	 61.0301 	 -2.97569 	 90.4123
| 16> C 	 58.9653 	 -3.12684 	 89.7982
| 17> H 	 58.6128 	 -2.21783 	 90.2661
| 18> H 	 58.3648 	 -3.21381 	 88.9306
| 19> C 	 58.6554 	 -4.31817 	 90.7119
| 20> H 	 59.5891 	 -4.41386 	 91.3146
| 21> H 	 57.8655 	 -4.26103 	 91.4865
| 22> H 	 58.6068 	 -5.22847 	 90.0724
| 23> S 	 60.7082 	 -8.11585 	 85.7475
| 24> C 	 60.3469 	 -8.04742 	 84.0498
| 25> C 	 60.6301 	 -6.79781 	 83.529
| 26> C 	 61.0097 	 -5.79414 	 84.5101
| 27> C 	 61.1424 	 -6.4231 	 85.7257
| 28> H 	 60.5661 	 -6.6322 	 82.4884
| 29> C 	 61.1828 	 -4.38882 	 84.0435
| 30> H 	 60.7323 	 -3.64757 	 84.7071
| 31> H 	 60.5942 	 -4.31383 	 83.1495
| 32> C 	 62.679 	 -3.97162 	 83.8556
| 33> H 	 62.6647 	 -2.88183 	 83.5437
| 34> H 	 63.2932 	 -4.49005 	 83.0252
| 35> C 	 63.5714 	 -4.17122 	 85.1383
| 36> H 	 64.5855 	 -3.75307 	 85.0308
| 37> H 	 63.6743 	 -5.1877 	 85.3777
| 38> H 	 63.2684 	 -3.77087 	 86.1234
| 39> H 	 62.1885 	 -5.04429 	 90.4014
| 40> H 	 59.8134 	 -8.76589 	 83.4254
| 41> *
| 42>
| 43>                          ****END OF INPUT****

CARTESIAN COORDINATES (ANGSTROEM)
---------------------------------
  S     62.041700   -6.717570   88.452600
  C     61.862100   -5.273990   89.362800
  C     61.054500   -4.348890   88.818700
  C     60.686000   -4.781840   87.536300
  C     61.320500   -5.910100   87.054800
  H     60.016400   -4.220220   86.932200
  C     60.446600   -3.101490   89.502900
  H     60.710600   -2.272990   88.871400
  H     61.030100   -2.975690   90.412300
  C     58.965300   -3.126840   89.798200
  H     58.612800   -2.217830   90.266100
  H     58.364800   -3.213810   88.930600
  C     58.655400   -4.318170   90.711900
  H     59.589100   -4.413860   91.314600
  H     57.865500   -4.261030   91.486500
  H     58.606800   -5.228470   90.072400
  S     60.708200   -8.115850   85.747500
  C     60.346900   -8.047420   84.049800
  C     60.630100   -6.797810   83.529000
  C     61.009700   -5.794140   84.510100
  C     61.142400   -6.423100   85.725700
  H     60.566100   -6.632200   82.488400
  C     61.182800   -4.388820   84.043500
  H     60.732300   -3.647570   84.707100
  H     60.594200   -4.313830   83.149500
  C     62.679000   -3.971620   83.855600
  H     62.664700   -2.881830   83.543700
  H     63.293200   -4.490050   83.025200
  C     63.571400   -4.171220   85.138300
  H     64.585500   -3.753070   85.030800
  H     63.674300   -5.187700   85.377700
  H     63.268400   -3.770870   86.123400
  H     62.188500   -5.044290   90.401400
  H     59.813400   -8.765890   83.425400

 Total Charge           Charge          ....    0
 Multiplicity           Mult            ....    1
 Number of Electrons    NEL             ....  134
 Basis Dimension        Dim             ....  322

ORBITAL ENERGIES
----------------

  NO   OCC          E(Eh)            E(eV)
   0   2.0000     -88.968882     -2420.9663
   1   2.0000     -88.966748     -2420.9083
   2   2.0000     -10.325959      -280.9836
   3   2.0000     -10.325644      -280.9750
   4   2.0000     -10.315994      -280.7125
   5   2.0000     -10.307979      -280.4944
   6   2.0000     -10.304856      -280.4094
   7   2.0000     -10.303808      -280.3809
   8   2.0000     -10.297311      -280.2041
   9   2.0000     -10.294517      -280.1281
  10   2.0000     -10.291315      -280.0409
  11   2.0000     -10.291210      -280.0381
  12   2.0000     -10.283693      -279.8335
  13   2.0000     -10.283632      -279.8318
  14   2.0000     -10.278782      -279.6999
  15   2.0000     -10.270169      -279.4655
  16   2.0000      -8.083674      -219.9679
  17   2.0000      -8.081962      -219.9214
  18   2.0000      -6.042277      -164.4187
  19   2.0000      -6.040580      -164.3725
  20   2.0000      -6.038502      -164.3160
  21   2.0000      -6.036481      -164.2610
  22   2.0000      -6.033999      -164.1934
  23   2.0000      -6.032507      -164.1529
  24   2.0000      -1.013970       -27.5915
  25   2.0000      -0.989799       -26.9338
  26   2.0000      -0.917150       -24.9569
  27   2.0000      -0.906062       -24.6552
  28   2.0000      -0.873554       -23.7706
  29   2.0000      -0.849398       -23.1133
  30   2.0000      -0.842315       -22.9206
  31   2.0000      -0.810258       -22.0482
  32   2.0000      -0.785606       -21.3774
  33   2.0000      -0.776646       -21.1336
  34   2.0000      -0.712835       -19.3972
  35   2.0000      -0.699542       -19.0355
  36   2.0000      -0.691256       -18.8100
  37   2.0000      -0.668530       -18.1916
  38   2.0000      -0.631810       -17.1924
  39   2.0000      -0.625980       -17.0338
  40   2.0000      -0.596180       -16.2229
  41   2.0000      -0.567134       -15.4325
  42   2.0000      -0.557583       -15.1726
  43   2.0000      -0.547901       -14.9091
  44   2.0000      -0.546985       -14.8842
  45   2.0000      -0.535020       -14.5586
  46   2.0000      -0.513793       -13.9810
  47   2.0000      -0.504092       -13.7170
  48   2.0000      -0.503057       -13.6889
  49   2.0000      -0.491818       -13.3831
  50   2.0000      -0.485165       -13.2020
  51   2.0000      -0.477319       -12.9885
  52   2.0000      -0.474190       -12.9034
  53   2.0000      -0.461446       -12.5566
  54   2.0000      -0.454263       -12.3611
  55   2.0000      -0.445690       -12.1278
  56   2.0000      -0.442069       -12.0293
  57   2.0000      -0.439089       -11.9482
  58   2.0000      -0.432865       -11.7788
  59   2.0000      -0.428447       -11.6586
  60   2.0000      -0.423033       -11.5113
  61   2.0000      -0.418877       -11.3982
  62   2.0000      -0.411934       -11.2093
  63   2.0000      -0.354976        -9.6594
  64   2.0000      -0.334006        -9.0888
  65   2.0000      -0.328973        -8.9518
  66   2.0000      -0.283845        -7.7238
  67   0.0000       0.026614         0.7242
  68   0.0000       0.071400         1.9429
  69   0.0000       0.099793         2.7155
  70   0.0000       0.120329         3.2743
  71   0.0000       0.138863         3.7787

MULLIKEN ATOMIC CHARGES
-----------------------
   0 S :    0.120319
   1 C :   -0.111669
   2 C :   -0.120060
   3 C :    0.010982
   4 C :   -0.133480
   5 H :   -0.010105
   6 C :    0.095126
   7 H :    0.026032
   8 H :    0.013465
   9 C :   -0.032111
  10 H :    0.027509
  11 H :    0.021778
  12 C :   -0.079639
  13 H :    0.012390
  14 H :    0.044421
  15 H :    0.054505
  16 S :    0.103338
  17 C :   -0.081786
  18 C :   -0.040755
  19 C :   -0.054694
  20 C :   -0.149553
  21 H :    0.003777
  22 C :    0.112141
  23 H :    0.027279
  24 H :    0.016333
  25 C :   -0.100166
  26 H :    0.040562
  27 H :    0.046914
  28 C :   -0.061985
  29 H :    0.032626
  30 H :    0.033168
  31 H :    0.030905
  32 H :    0.042661
  33 H :    0.059768
Sum of atomic charges:    0.0000000

LOEWDIN ATOMIC CHARGES
----------------------
   0 S :    0.404038
   1 C :   -0.208801
   2 C :   -0.074617
   3 C :   -0.058129
   4 C :   -0.192528
   5 H :    0.018868
   6 C :   -0.021600
   7 H :    0.028959
   8 H :    0.027458
   9 C :   -0.039256
  10 H :    0.026655
  11 H :    0.018578
  12 C :   -0.072251
  13 H :    0.023702
  14 H :    0.027504
  15 H :    0.034199
  16 S :    0.409701
  17 C :   -0.195631
  18 C :   -0.061046
  19 C :   -0.054362
  20 C :   -0.188882
  21 H :    0.022391
  22 C :   -0.030786
  23 H :    0.033408
  24 H :    0.031358
  25 C :   -0.040367
  26 H :    0.027659
  27 H :    0.034754
  28 C :   -0.076750
  29 H :    0.029080
  30 H :    0.019290
  31 H :    0.027582
  32 H :    0.034520
  33 H :    0.035300

  Mayer bond orders larger than 0.100000
B(  0-S ,  1-C ) :   1.1368 B(  0-S ,  4-C ) :   1.1239 B(  1-C ,  2-C ) :   1.6466
B(  1-C , 32-H ) :   0.9442 B(  2-C ,  3-C ) :   1.2518 B(  2-C ,  6-C ) :   1.0102
B(  3-C ,  4-C ) :   1.5632 B(  3-C ,  5-H ) :   1.0000 B(  4-C , 20-C ) :   1.0690
B(  6-C ,  7-H ) :   0.9333 B(  6-C ,  8-H ) :   0.9364 B(  6-C ,  9-C ) :   1.0860
B(  9-C , 10-H ) :   0.9532 B(  9-C , 11-H ) :   0.9559 B(  9-C , 12-C ) :   1.0595
B( 12-C , 13-H ) :   0.9781 B( 12-C , 14-H ) :   0.9760 B( 12-C , 15-H ) :   0.9721
B( 16-S , 17-C ) :   1.1385 B( 16-S , 20-C ) :   1.1354 B( 17-C , 18-C ) :   1.6423
B( 17-C , 33-H ) :   0.9640 B( 18-C , 19-C ) :   1.2147 B( 18-C , 21-H ) :   0.9885
B( 19-C , 20-C ) :   1.6140 B( 19-C , 22-C ) :   1.0476 B( 22-C , 23-H ) :   0.9323
B( 22-C , 24-H ) :   0.9250 B( 22-C , 25-C ) :   1.0605 B( 25-C , 26-H ) :   0.9586
B( 25-C , 27-H ) :   0.9568 B( 25-C , 28-C ) :   1.0645 B( 28-C , 29-H ) :   0.9741
B( 28-C , 30-H ) :   0.9715 B( 28-C , 31-H ) :   0.9741

Dispersion correction           -0.015999136
FINAL SINGLE POINT ENERGY     -1339.860749400141

DIPOLE MOMENT
-------------
                                X             Y             Z
Electronic contribution:      2.50513     -21.35779      -2.88547
Nuclear contribution   :     -2.86344      21.98374       2.70026
                        -----------------------------------------
Total Dipole Moment    :     -0.35830       0.62595      -0.18521
                        -----------------------------------------
Magnitude (a.u.)       :      0.74465
Magnitude (Debye)      :      1.89274

Rotational constants in cm-1:     0.020157     0.009206     0.008030
Rotational constants in MHz :   604.290284   275.977900   240.720853

                             ****ORCA TERMINATED NORMALLY****
TOTAL RUN TIME: 0 days 0 hours 0 minutes 33 seconds 73 msec
