                         Program Version 4.2.1 -  RELEASE  -
|  1> ! wB97X-D3 SP def2-SVP
|  2> %pal
|  3> nprocs 16
|  4> end
|  5>
|  6> * xyz 0 1
|  7> S 	 -41.1669 	 26.7875 	 88.3131
|  8> C 	 -41.8518 	 27.9487 	 89.4838
|  9> C 	 -42.0326 	 29.2207 	 88.8213
| 10> C 	 -41.5366 	 29.1123 	 87.459
| 11> C 	 -41.05 	 27.9327 	 87.0623
| 12> H 	 -41.4735 	 29.7899 	 86.6136
| 13> C 	 -42.6352 	 30.5189 	 89.2301
| 14> H 	 -42.261 	 31.3713 	 88.6351
| 15> H 	 -42.29 	 30.6936 	 90.2827
| 16> C 	 -44.1893 	 30.5485 	 89.1607
| 17> H 	 -44.5951 	 30.0746 	 88.3133
| 18> H 	 -44.6207 	 30.0607 	 89.9805
| 19> C 	 -44.6698 	 32.0474 	 89.2699
| 20> H 	 -44.5023 	 32.6253 	 88.3512
| 21> H 	 -45.7229 	 32.0886 	 89.4749
| 22> H 	 -44.0831 	 32.5395 	 89.9549
| 23> S 	 -42.3177 	 26.5864 	 85.0861
| 24> C 	 -41.4863 	 26.3566 	 83.5486
| 25> C 	 -40.4269 	 27.2438 	 83.4049
| 26> C 	 -40.035 	 27.8684 	 84.6601
| 27> C 	 -40.9228 	 27.5103 	 85.6891
| 28> H 	 -39.9286 	 27.343 	 82.3776
| 29> C 	 -38.8283 	 28.7995 	 84.6646
| 30> H 	 -37.9807 	 28.4758 	 83.9182
| 31> H 	 -38.424 	 28.7617 	 85.6715
| 32> C 	 -39.2089 	 30.2232 	 84.5115
| 33> H 	 -38.3209 	 30.8748 	 84.7956
| 34> H 	 -40.0305 	 30.4641 	 85.156
| 35> C 	 -39.6854 	 30.5087 	 83.0153
| 36> H 	 -39.7774 	 31.5192 	 82.7023
| 37> H 	 -40.6288 	 29.979 	 82.8805
| 38> H 	 -39.0291 	 30.0186 	 82.2741
| 39> H 	 -42.0921 	 27.7531 	 90.5008
| 40> H 	 -41.9538 	 25.7706 	 82.7762
| 41> *
| 42>
| 43>                          ****END OF INPUT****

CARTESIAN COORDINATES (ANGSTROEM)
---------------------------------
  S    -41.166900   26.787500   88.313100
  C    -41.851800   27.948700   89.483800
  C    -42.032600   29.220700   88.821300
  C    -41.536600   29.112300   87.459000
  C    -41.050000   27.932700   87.062300
  H    -41.473500   29.789900   86.613600
  C    -42.635200   30.518900   89.230100
  H    -42.261000   31.371300   88.635100
  H    -42.290000   30.693600   90.282700
  C    -44.189300   30.548500   89.160700
  H    -44.595100   30.074600   88.313300
  H    -44.620700   30.060700   89.980500
  C    -44.669800   32.047400   89.269900
  H    -44.502300   32.625300   88.351200
  H    -45.722900   32.088600   89.474900
  H    -44.083100   32.539500   89.954900
  S    -42.317700   26.586400   85.086100
  C    -41.486300   26.356600   83.548600
  C    -40.426900   27.243800   83.404900
  C    -40.035000   27.868400   84.660100
  C    -40.922800   27.510300   85.689100
  H    -39.928600   27.343000   82.377600
  C    -38.828300   28.799500   84.664600
  H    -37.980700   28.475800   83.918200
  H    -38.424000   28.761700   85.671500
  C    -39.208900   30.223200   84.511500
  H    -38.320900   30.874800   84.795600
  H    -40.030500   30.464100   85.156000
  C    -39.685400   30.508700   83.015300
  H    -39.777400   31.519200   82.702300
  H    -40.628800   29.979000   82.880500
  H    -39.029100   30.018600   82.274100
  H    -42.092100   27.753100   90.500800
  H    -41.953800   25.770600   82.776200

 Total Charge           Charge          ....    0
 Multiplicity           Mult            ....    1
 Number of Electrons    NEL             ....  134
 Basis Dimension        Dim             ....  322

ORBITAL ENERGIES
----------------

  NO   OCC          E(Eh)            E(eV)
   0   2.0000     -88.964303     -2420.8417
   1   2.0000     -88.964077     -2420.8356
   2   2.0000     -10.330142      -281.0975
   3   2.0000     -10.325338      -280.9667
   4   2.0000     -10.317989      -280.7668
   5   2.0000     -10.315834      -280.7081
   6   2.0000     -10.313087      -280.6334
   7   2.0000     -10.311481      -280.5897
   8   2.0000     -10.303096      -280.3615
   9   2.0000     -10.299135      -280.2537
  10   2.0000     -10.298705      -280.2420
  11   2.0000     -10.292333      -280.0686
  12   2.0000     -10.288111      -279.9537
  13   2.0000     -10.282257      -279.7944
  14   2.0000     -10.276283      -279.6319
  15   2.0000     -10.272702      -279.5344
  16   2.0000      -8.079137      -219.8445
  17   2.0000      -8.078708      -219.8328
  18   2.0000      -6.037696      -164.2941
  19   2.0000      -6.037224      -164.2812
  20   2.0000      -6.033499      -164.1799
  21   2.0000      -6.033356      -164.1760
  22   2.0000      -6.030040      -164.0857
  23   2.0000      -6.029231      -164.0637
  24   2.0000      -1.008857       -27.4524
  25   2.0000      -0.978157       -26.6170
  26   2.0000      -0.914123       -24.8745
  27   2.0000      -0.911365       -24.7995
  28   2.0000      -0.868397       -23.6303
  29   2.0000      -0.847987       -23.0749
  30   2.0000      -0.838448       -22.8153
  31   2.0000      -0.811380       -22.0788
  32   2.0000      -0.783360       -21.3163
  33   2.0000      -0.772493       -21.0206
  34   2.0000      -0.714595       -19.4451
  35   2.0000      -0.706002       -19.2113
  36   2.0000      -0.685806       -18.6617
  37   2.0000      -0.658024       -17.9058
  38   2.0000      -0.653018       -17.7695
  39   2.0000      -0.609681       -16.5903
  40   2.0000      -0.596846       -16.2410
  41   2.0000      -0.568165       -15.4606
  42   2.0000      -0.559474       -15.2241
  43   2.0000      -0.551307       -15.0018
  44   2.0000      -0.543689       -14.7945
  45   2.0000      -0.529434       -14.4066
  46   2.0000      -0.522131       -14.2079
  47   2.0000      -0.511467       -13.9177
  48   2.0000      -0.504369       -13.7246
  49   2.0000      -0.491282       -13.3685
  50   2.0000      -0.483989       -13.1700
  51   2.0000      -0.476450       -12.9649
  52   2.0000      -0.471519       -12.8307
  53   2.0000      -0.463336       -12.6080
  54   2.0000      -0.454670       -12.3722
  55   2.0000      -0.450148       -12.2491
  56   2.0000      -0.443983       -12.0814
  57   2.0000      -0.440968       -11.9994
  58   2.0000      -0.438222       -11.9246
  59   2.0000      -0.423844       -11.5334
  60   2.0000      -0.421246       -11.4627
  61   2.0000      -0.418731       -11.3943
  62   2.0000      -0.409604       -11.1459
  63   2.0000      -0.340906        -9.2765
  64   2.0000      -0.328447        -8.9375
  65   2.0000      -0.319448        -8.6926
  66   2.0000      -0.303020        -8.2456
  67   0.0000       0.032506         0.8845
  68   0.0000       0.057339         1.5603
  69   0.0000       0.103862         2.8262
  70   0.0000       0.117174         3.1885
  71   0.0000       0.128043         3.4842

MULLIKEN ATOMIC CHARGES
-----------------------
   0 S :    0.106207
   1 C :   -0.111018
   2 C :   -0.068102
   3 C :    0.029616
   4 C :   -0.167616
   5 H :    0.002282
   6 C :    0.031237
   7 H :    0.034511
   8 H :    0.036145
   9 C :   -0.028442
  10 H :    0.025428
  11 H :    0.016003
  12 C :   -0.037953
  13 H :    0.028315
  14 H :    0.034547
  15 H :    0.011758
  16 S :    0.108978
  17 C :   -0.092941
  18 C :   -0.064118
  19 C :   -0.039146
  20 C :   -0.171817
  21 H :    0.051884
  22 C :    0.056386
  23 H :    0.055648
  24 H :    0.027541
  25 C :   -0.068901
  26 H :    0.045041
  27 H :    0.022238
  28 C :   -0.064049
  29 H :    0.034544
  30 H :    0.039130
  31 H :    0.018085
  32 H :    0.042164
  33 H :    0.056414
Sum of atomic charges:    0.0000000

LOEWDIN ATOMIC CHARGES
----------------------
   0 S :    0.419257
   1 C :   -0.186668
   2 C :   -0.054325
   3 C :   -0.065162
   4 C :   -0.229690
   5 H :    0.029104
   6 C :   -0.037503
   7 H :    0.034569
   8 H :    0.037711
   9 C :   -0.022528
  10 H :    0.018946
  11 H :    0.017334
  12 C :   -0.056600
  13 H :    0.026001
  14 H :    0.024896
  15 H :    0.011986
  16 S :    0.390625
  17 C :   -0.178897
  18 C :   -0.079739
  19 C :   -0.052079
  20 C :   -0.190663
  21 H :    0.045234
  22 C :   -0.039208
  23 H :    0.044676
  24 H :    0.034164
  25 C :   -0.036175
  26 H :    0.031252
  27 H :    0.018638
  28 C :   -0.070207
  29 H :    0.018984
  30 H :    0.027418
  31 H :    0.021964
  32 H :    0.022725
  33 H :    0.023958

  Mayer bond orders larger than 0.100000
B(  0-S ,  1-C ) :   1.1509 B(  0-S ,  4-C ) :   1.1477 B(  1-C ,  2-C ) :   1.5653
B(  1-C , 32-H ) :   0.9813 B(  2-C ,  3-C ) :   1.2248 B(  2-C ,  6-C ) :   1.0381
B(  3-C ,  4-C ) :   1.6133 B(  3-C ,  5-H ) :   0.9813 B(  4-C , 20-C ) :   1.0101
B(  6-C ,  7-H ) :   0.9522 B(  6-C ,  8-H ) :   0.9291 B(  6-C ,  9-C ) :   1.0557
B(  9-C , 10-H ) :   0.9625 B(  9-C , 11-H ) :   0.9552 B(  9-C , 12-C ) :   1.0771
B( 12-C , 13-H ) :   0.9769 B( 12-C , 14-H ) :   0.9762 B( 12-C , 15-H ) :   0.9740
B( 16-S , 17-C ) :   1.1438 B( 16-S , 20-C ) :   1.1472 B( 17-C , 18-C ) :   1.6310
B( 17-C , 33-H ) :   0.9694 B( 18-C , 19-C ) :   1.2117 B( 18-C , 21-H ) :   0.9747
B( 19-C , 20-C ) :   1.6153 B( 19-C , 22-C ) :   1.0410 B( 22-C , 23-H ) :   0.9431
B( 22-C , 24-H ) :   0.9185 B( 22-C , 25-C ) :   1.0814 B( 25-C , 26-H ) :   0.9541
B( 25-C , 27-H ) :   0.9517 B( 25-C , 28-C ) :   1.0608 B( 28-C , 29-H ) :   0.9782
B( 28-C , 30-H ) :   0.9725 B( 28-C , 31-H ) :   0.9760

Dispersion correction           -0.014561644
FINAL SINGLE POINT ENERGY     -1339.848705177889

DIPOLE MOMENT
-------------
                                X             Y             Z
Electronic contribution:      1.42435     -25.47534       1.97182
Nuclear contribution   :     -1.53423      26.07550      -2.08698
                        -----------------------------------------
Total Dipole Moment    :     -0.10988       0.60016      -0.11516
                        -----------------------------------------
Magnitude (a.u.)       :      0.62090
Magnitude (Debye)      :      1.57821

Rotational constants in cm-1:     0.018411     0.008451     0.007160
Rotational constants in MHz :   551.961024   253.351564   214.662202

                             ****ORCA TERMINATED NORMALLY****
TOTAL RUN TIME: 0 days 0 hours 0 minutes 31 seconds 645 msec
