                         Program Version 4.2.1 -  RELEASE  -
|  1> ! wB97X-D3 SP def2-SVP
|  2> %pal
|  3> nprocs 16
|  4> end
|  5>
|  6> * xyz 0 1
|  7> S 	 12.5714 	 32.7036 	 62.0369
|  8> C 	 14.2787 	 32.3122 	 62.2496
|  9> C 	 15.0594 	 33.031 	 61.3633
| 10> C 	 14.302 	 34.1054 	 60.7862
| 11> C 	 12.9576 	 34.0308 	 60.9443
| 12> H 	 14.7506 	 34.9903 	 60.2726
| 13> C 	 16.545 	 32.9528 	 61.2761
| 14> H 	 16.7565 	 31.8816 	 61.0535
| 15> H 	 16.9123 	 33.0923 	 62.2389
| 16> C 	 17.297 	 33.7808 	 60.2357
| 17> H 	 16.6654 	 33.7049 	 59.34
| 18> H 	 17.3769 	 34.8003 	 60.5444
| 19> C 	 18.5947 	 33.1745 	 59.8168
| 20> H 	 19.4426 	 33.4191 	 60.4646
| 21> H 	 18.504 	 32.0936 	 59.591
| 22> H 	 18.8893 	 33.6678 	 58.9473
| 23> S 	 10.8192 	 35.6452 	 61.506
| 24> C 	 10.1089 	 36.4659 	 60.1626
| 25> C 	 10.7646 	 36.3466 	 58.9403
| 26> C 	 11.8605 	 35.4326 	 59.0675
| 27> C 	 12.0235 	 34.9798 	 60.3567
| 28> H 	 10.4219 	 36.8238 	 58.0751
| 29> C 	 12.8326 	 35.1954 	 57.9274
| 30> H 	 13.5753 	 34.43 	 58.1904
| 31> H 	 13.5186 	 36.0613 	 57.8383
| 32> C 	 12.3762 	 34.9237 	 56.473
| 33> H 	 13.2672 	 34.9653 	 55.8313
| 34> H 	 11.705 	 35.6667 	 56.1771
| 35> C 	 11.592 	 33.5446 	 56.455
| 36> H 	 12.1407 	 32.6405 	 56.4108
| 37> H 	 11.0806 	 33.6412 	 55.4535
| 38> H 	 10.9309 	 33.6403 	 57.2901
| 39> H 	 14.7719 	 31.7191 	 62.9304
| 40> H 	 9.22272 	 37.1002 	 60.3606
| 41> *
| 42>
| 43>                          ****END OF INPUT****

CARTESIAN COORDINATES (ANGSTROEM)
---------------------------------
  S     12.571400   32.703600   62.036900
  C     14.278700   32.312200   62.249600
  C     15.059400   33.031000   61.363300
  C     14.302000   34.105400   60.786200
  C     12.957600   34.030800   60.944300
  H     14.750600   34.990300   60.272600
  C     16.545000   32.952800   61.276100
  H     16.756500   31.881600   61.053500
  H     16.912300   33.092300   62.238900
  C     17.297000   33.780800   60.235700
  H     16.665400   33.704900   59.340000
  H     17.376900   34.800300   60.544400
  C     18.594700   33.174500   59.816800
  H     19.442600   33.419100   60.464600
  H     18.504000   32.093600   59.591000
  H     18.889300   33.667800   58.947300
  S     10.819200   35.645200   61.506000
  C     10.108900   36.465900   60.162600
  C     10.764600   36.346600   58.940300
  C     11.860500   35.432600   59.067500
  C     12.023500   34.979800   60.356700
  H     10.421900   36.823800   58.075100
  C     12.832600   35.195400   57.927400
  H     13.575300   34.430000   58.190400
  H     13.518600   36.061300   57.838300
  C     12.376200   34.923700   56.473000
  H     13.267200   34.965300   55.831300
  H     11.705000   35.666700   56.177100
  C     11.592000   33.544600   56.455000
  H     12.140700   32.640500   56.410800
  H     11.080600   33.641200   55.453500
  H     10.930900   33.640300   57.290100
  H     14.771900   31.719100   62.930400
  H      9.222720   37.100200   60.360600

 Total Charge           Charge          ....    0
 Multiplicity           Mult            ....    1
 Number of Electrons    NEL             ....  134
 Basis Dimension        Dim             ....  322

ORBITAL ENERGIES
----------------

  NO   OCC          E(Eh)            E(eV)
   0   2.0000     -88.966337     -2420.8971
   1   2.0000     -88.965431     -2420.8724
   2   2.0000     -10.326468      -280.9975
   3   2.0000     -10.322228      -280.8821
   4   2.0000     -10.320833      -280.8441
   5   2.0000     -10.308125      -280.4984
   6   2.0000     -10.305576      -280.4290
   7   2.0000     -10.296106      -280.1713
   8   2.0000     -10.294242      -280.1206
   9   2.0000     -10.290203      -280.0107
  10   2.0000     -10.288579      -279.9665
  11   2.0000     -10.286566      -279.9117
  12   2.0000     -10.284775      -279.8630
  13   2.0000     -10.284037      -279.8429
  14   2.0000     -10.275187      -279.6021
  15   2.0000     -10.273806      -279.5645
  16   2.0000      -8.081232      -219.9015
  17   2.0000      -8.079322      -219.8495
  18   2.0000      -6.039504      -164.3433
  19   2.0000      -6.038000      -164.3023
  20   2.0000      -6.035912      -164.2455
  21   2.0000      -6.034011      -164.1938
  22   2.0000      -6.032034      -164.1400
  23   2.0000      -6.029874      -164.0812
  24   2.0000      -1.004796       -27.3419
  25   2.0000      -0.982861       -26.7450
  26   2.0000      -0.919174       -25.0120
  27   2.0000      -0.905554       -24.6414
  28   2.0000      -0.872881       -23.7523
  29   2.0000      -0.852049       -23.1854
  30   2.0000      -0.845893       -23.0179
  31   2.0000      -0.812999       -22.1228
  32   2.0000      -0.783886       -21.3306
  33   2.0000      -0.773659       -21.0523
  34   2.0000      -0.714120       -19.4322
  35   2.0000      -0.698873       -19.0173
  36   2.0000      -0.691330       -18.8120
  37   2.0000      -0.661266       -17.9940
  38   2.0000      -0.636461       -17.3190
  39   2.0000      -0.617233       -16.7958
  40   2.0000      -0.601737       -16.3741
  41   2.0000      -0.584175       -15.8962
  42   2.0000      -0.568141       -15.4599
  43   2.0000      -0.551943       -15.0191
  44   2.0000      -0.538112       -14.6428
  45   2.0000      -0.527601       -14.3568
  46   2.0000      -0.514081       -13.9888
  47   2.0000      -0.509139       -13.8544
  48   2.0000      -0.501190       -13.6381
  49   2.0000      -0.495651       -13.4874
  50   2.0000      -0.489067       -13.3082
  51   2.0000      -0.483538       -13.1577
  52   2.0000      -0.471972       -12.8430
  53   2.0000      -0.467928       -12.7330
  54   2.0000      -0.458711       -12.4822
  55   2.0000      -0.456712       -12.4278
  56   2.0000      -0.450763       -12.2659
  57   2.0000      -0.437246       -11.8981
  58   2.0000      -0.427727       -11.6390
  59   2.0000      -0.425565       -11.5802
  60   2.0000      -0.420016       -11.4292
  61   2.0000      -0.415403       -11.3037
  62   2.0000      -0.407352       -11.0846
  63   2.0000      -0.341382        -9.2895
  64   2.0000      -0.333565        -9.0768
  65   2.0000      -0.324553        -8.8315
  66   2.0000      -0.290147        -7.8953
  67   0.0000       0.028654         0.7797
  68   0.0000       0.073317         1.9951
  69   0.0000       0.105319         2.8659
  70   0.0000       0.120357         3.2751
  71   0.0000       0.135515         3.6876

MULLIKEN ATOMIC CHARGES
-----------------------
   0 S :    0.115805
   1 C :   -0.086932
   2 C :   -0.090677
   3 C :   -0.031291
   4 C :   -0.108455
   5 H :    0.038110
   6 C :    0.062872
   7 H :    0.024800
   8 H :    0.021443
   9 C :   -0.081380
  10 H :    0.028595
  11 H :    0.034065
  12 C :   -0.010318
  13 H :    0.029117
  14 H :    0.039330
  15 H :    0.009549
  16 S :    0.108277
  17 C :   -0.099885
  18 C :   -0.010961
  19 C :    0.000040
  20 C :   -0.188069
  21 H :    0.002956
  22 C :   -0.001210
  23 H :    0.024890
  24 H :    0.037223
  25 C :   -0.051677
  26 H :    0.032857
  27 H :    0.015384
  28 C :   -0.053991
  29 H :    0.037035
  30 H :    0.033311
  31 H :    0.045361
  32 H :    0.007167
  33 H :    0.066658
Sum of atomic charges:    0.0000000

LOEWDIN ATOMIC CHARGES
----------------------
   0 S :    0.391189
   1 C :   -0.185563
   2 C :   -0.058305
   3 C :   -0.073253
   4 C :   -0.198913
   5 H :    0.038113
   6 C :   -0.036539
   7 H :    0.037800
   8 H :    0.024057
   9 C :   -0.040705
  10 H :    0.028512
  11 H :    0.022982
  12 C :   -0.060632
  13 H :    0.026634
  14 H :    0.031573
  15 H :    0.019994
  16 S :    0.397231
  17 C :   -0.180225
  18 C :   -0.066796
  19 C :   -0.049153
  20 C :   -0.181728
  21 H :    0.024203
  22 C :   -0.045734
  23 H :    0.030310
  24 H :    0.035040
  25 C :   -0.030474
  26 H :    0.027677
  27 H :    0.011310
  28 C :   -0.059519
  29 H :    0.019865
  30 H :    0.031750
  31 H :    0.025644
  32 H :    0.014134
  33 H :    0.029522

  Mayer bond orders larger than 0.100000
B(  0-S ,  1-C ) :   1.1215 B(  0-S ,  4-C ) :   1.1245 B(  1-C ,  2-C ) :   1.6233
B(  1-C , 32-H ) :   0.9806 B(  2-C ,  3-C ) :   1.2318 B(  2-C ,  6-C ) :   1.0148
B(  3-C ,  4-C ) :   1.5889 B(  3-C ,  5-H ) :   0.9792 B(  4-C , 20-C ) :   1.0495
B(  6-C ,  7-H ) :   0.9333 B(  6-C ,  8-H ) :   0.9320 B(  6-C ,  9-C ) :   1.0817
B(  9-C , 10-H ) :   0.9555 B(  9-C , 11-H ) :   0.9431 B(  9-C , 12-C ) :   1.1012
B( 12-C , 13-H ) :   0.9697 B( 12-C , 14-H ) :   0.9702 B( 12-C , 15-H ) :   0.9676
B( 16-S , 17-C ) :   1.1696 B( 16-S , 20-C ) :   1.1251 B( 17-C , 18-C ) :   1.6097
B( 17-C , 33-H ) :   0.9618 B( 18-C , 19-C ) :   1.2012 B( 18-C , 21-H ) :   1.0036
B( 19-C , 20-C ) :   1.6219 B( 19-C , 22-C ) :   1.0453 B( 22-C , 23-H ) :   0.9296
B( 22-C , 24-H ) :   0.9332 B( 22-C , 25-C ) :   1.0798 B( 25-C , 26-H ) :   0.9520
B( 25-C , 27-H ) :   0.9591 B( 25-C , 28-C ) :   1.0587 B( 28-C , 29-H ) :   0.9803
B( 28-C , 30-H ) :   0.9798 B( 28-C , 31-H ) :   0.9784

Dispersion correction           -0.014038522
FINAL SINGLE POINT ENERGY     -1339.858276928282

DIPOLE MOMENT
-------------
                                X             Y             Z
Electronic contribution:    -20.72043       2.47601      20.62457
Nuclear contribution   :     21.33418      -2.17793     -21.08088
                        -----------------------------------------
Total Dipole Moment    :      0.61375       0.29808      -0.45631
                        -----------------------------------------
Magnitude (a.u.)       :      0.82083
Magnitude (Debye)      :      2.08638

Rotational constants in cm-1:     0.017225     0.008964     0.006882
Rotational constants in MHz :   516.386157   268.726254   206.322178

                             ****ORCA TERMINATED NORMALLY****
TOTAL RUN TIME: 0 days 0 hours 0 minutes 33 seconds 956 msec
