                         Program Version 4.2.1 -  RELEASE  -
|  1> ! wB97X-D3 SP def2-SVP
|  2> %pal
|  3> nprocs 16
|  4> end
|  5>
|  6> * xyz 0 1
|  7> S 	 -99.205 	 53.0706 	 115.199
|  8> C 	 -97.7607 	 53.9264 	 114.866
|  9> C 	 -97.1025 	 54.3686 	 116.051
| 10> C 	 -97.9797 	 54.233 	 117.153
| 11> C 	 -99.2018 	 53.6317 	 116.853
| 12> H 	 -97.8397 	 54.6084 	 118.148
| 13> C 	 -95.6879 	 54.8298 	 116.151
| 14> H 	 -95.1384 	 54.7099 	 115.186
| 15> H 	 -95.1397 	 54.2531 	 116.852
| 16> C 	 -95.452 	 56.2684 	 116.657
| 17> H 	 -96.1846 	 56.4143 	 117.522
| 18> H 	 -94.4158 	 56.4913 	 117.051
| 19> C 	 -95.7712 	 57.3348 	 115.647
| 20> H 	 -95.1795 	 57.1875 	 114.666
| 21> H 	 -96.7905 	 57.1615 	 115.274
| 22> H 	 -95.7301 	 58.3709 	 115.966
| 23> S 	 -101.116 	 51.6818 	 117.426
| 24> C 	 -102.234 	 51.8279 	 118.729
| 25> C 	 -102.033 	 52.992 	 119.368
| 26> C 	 -100.8 	 53.6982 	 119.001
| 27> C 	 -100.223 	 53.1929 	 117.832
| 28> H 	 -102.666 	 53.2643 	 120.162
| 29> C 	 -100.431 	 55.0421 	 119.758
| 30> H 	 -101.346 	 55.5743 	 119.712
| 31> H 	 -99.8515 	 55.6279 	 119.012
| 32> C 	 -99.7419 	 54.9678 	 121.097
| 33> H 	 -100.353 	 54.3854 	 121.843
| 34> H 	 -99.7525 	 56.034 	 121.324
| 35> C 	 -98.3668 	 54.3413 	 120.991
| 36> H 	 -97.7521 	 54.4811 	 121.87
| 37> H 	 -97.6834 	 54.7396 	 120.246
| 38> H 	 -98.366 	 53.2298 	 120.984
| 39> H 	 -97.2158 	 53.9057 	 114.012
| 40> H 	 -103.119 	 51.2172 	 118.866
| 41> *
| 42>
| 43>                          ****END OF INPUT****

CARTESIAN COORDINATES (ANGSTROEM)
---------------------------------
  S    -99.205000   53.070600  115.199000
  C    -97.760700   53.926400  114.866000
  C    -97.102500   54.368600  116.051000
  C    -97.979700   54.233000  117.153000
  C    -99.201800   53.631700  116.853000
  H    -97.839700   54.608400  118.148000
  C    -95.687900   54.829800  116.151000
  H    -95.138400   54.709900  115.186000
  H    -95.139700   54.253100  116.852000
  C    -95.452000   56.268400  116.657000
  H    -96.184600   56.414300  117.522000
  H    -94.415800   56.491300  117.051000
  C    -95.771200   57.334800  115.647000
  H    -95.179500   57.187500  114.666000
  H    -96.790500   57.161500  115.274000
  H    -95.730100   58.370900  115.966000
  S    -101.116000   51.681800  117.426000
  C    -102.234000   51.827900  118.729000
  C    -102.033000   52.992000  119.368000
  C    -100.800000   53.698200  119.001000
  C    -100.223000   53.192900  117.832000
  H    -102.666000   53.264300  120.162000
  C    -100.431000   55.042100  119.758000
  H    -101.346000   55.574300  119.712000
  H    -99.851500   55.627900  119.012000
  C    -99.741900   54.967800  121.097000
  H    -100.353000   54.385400  121.843000
  H    -99.752500   56.034000  121.324000
  C    -98.366800   54.341300  120.991000
  H    -97.752100   54.481100  121.870000
  H    -97.683400   54.739600  120.246000
  H    -98.366000   53.229800  120.984000
  H    -97.215800   53.905700  114.012000
  H    -103.119000   51.217200  118.866000

 Total Charge           Charge          ....    0
 Multiplicity           Mult            ....    1
 Number of Electrons    NEL             ....  134
 Basis Dimension        Dim             ....  322

ORBITAL ENERGIES
----------------

  NO   OCC          E(Eh)            E(eV)
   0   2.0000     -88.973945     -2421.1041
   1   2.0000     -88.957881     -2420.6670
   2   2.0000     -10.336078      -281.2590
   3   2.0000     -10.334727      -281.2222
   4   2.0000     -10.311836      -280.5993
   5   2.0000     -10.310259      -280.5564
   6   2.0000     -10.308958      -280.5210
   7   2.0000     -10.306480      -280.4536
   8   2.0000     -10.295965      -280.1675
   9   2.0000     -10.295519      -280.1553
  10   2.0000     -10.295316      -280.1498
  11   2.0000     -10.294504      -280.1277
  12   2.0000     -10.293351      -280.0963
  13   2.0000     -10.288172      -279.9554
  14   2.0000     -10.280248      -279.7398
  15   2.0000     -10.278506      -279.6924
  16   2.0000      -8.088751      -220.1061
  17   2.0000      -8.072891      -219.6745
  18   2.0000      -6.047163      -164.5517
  19   2.0000      -6.043301      -164.4466
  20   2.0000      -6.039548      -164.3445
  21   2.0000      -6.031559      -164.1271
  22   2.0000      -6.027347      -164.0124
  23   2.0000      -6.023480      -163.9072
  24   2.0000      -1.006986       -27.4015
  25   2.0000      -0.984497       -26.7895
  26   2.0000      -0.915857       -24.9217
  27   2.0000      -0.911220       -24.7956
  28   2.0000      -0.869799       -23.6684
  29   2.0000      -0.853740       -23.2314
  30   2.0000      -0.841106       -22.8877
  31   2.0000      -0.817536       -22.2463
  32   2.0000      -0.786356       -21.3978
  33   2.0000      -0.778897       -21.1949
  34   2.0000      -0.712326       -19.3834
  35   2.0000      -0.695943       -18.9376
  36   2.0000      -0.691832       -18.8257
  37   2.0000      -0.657131       -17.8814
  38   2.0000      -0.642453       -17.4820
  39   2.0000      -0.626089       -17.0367
  40   2.0000      -0.595979       -16.2174
  41   2.0000      -0.573758       -15.6128
  42   2.0000      -0.556775       -15.1506
  43   2.0000      -0.552243       -15.0273
  44   2.0000      -0.545758       -14.8508
  45   2.0000      -0.539702       -14.6860
  46   2.0000      -0.517857       -14.0916
  47   2.0000      -0.513967       -13.9857
  48   2.0000      -0.507629       -13.8133
  49   2.0000      -0.498230       -13.5575
  50   2.0000      -0.487418       -13.2633
  51   2.0000      -0.477671       -12.9981
  52   2.0000      -0.470014       -12.7897
  53   2.0000      -0.466941       -12.7061
  54   2.0000      -0.461587       -12.5604
  55   2.0000      -0.451206       -12.2779
  56   2.0000      -0.445605       -12.1255
  57   2.0000      -0.441450       -12.0125
  58   2.0000      -0.431130       -11.7316
  59   2.0000      -0.423067       -11.5122
  60   2.0000      -0.420841       -11.4517
  61   2.0000      -0.410950       -11.1825
  62   2.0000      -0.399605       -10.8738
  63   2.0000      -0.360538        -9.8107
  64   2.0000      -0.333842        -9.0843
  65   2.0000      -0.324601        -8.8328
  66   2.0000      -0.285226        -7.7614
  67   0.0000       0.021920         0.5965
  68   0.0000       0.072446         1.9714
  69   0.0000       0.111838         3.0433
  70   0.0000       0.116907         3.1812
  71   0.0000       0.127997         3.4830

MULLIKEN ATOMIC CHARGES
-----------------------
   0 S :    0.128980
   1 C :   -0.046078
   2 C :   -0.100214
   3 C :    0.044503
   4 C :   -0.120653
   5 H :   -0.036704
   6 C :    0.088319
   7 H :    0.021790
   8 H :    0.031543
   9 C :   -0.115231
  10 H :    0.033143
  11 H :    0.042038
  12 C :   -0.067391
  13 H :    0.027035
  14 H :    0.025715
  15 H :    0.042991
  16 S :    0.059384
  17 C :   -0.069639
  18 C :   -0.024068
  19 C :   -0.081270
  20 C :   -0.126134
  21 H :    0.004486
  22 C :    0.021571
  23 H :    0.021177
  24 H :    0.019952
  25 C :   -0.008045
  26 H :    0.040539
  27 H :    0.036884
  28 C :   -0.063161
  29 H :    0.016541
  30 H :    0.034984
  31 H :    0.049585
  32 H :    0.004400
  33 H :    0.063027
Sum of atomic charges:    0.0000000

LOEWDIN ATOMIC CHARGES
----------------------
   0 S :    0.438158
   1 C :   -0.194451
   2 C :   -0.055945
   3 C :   -0.057035
   4 C :   -0.193743
   5 H :    0.021040
   6 C :   -0.032405
   7 H :    0.033322
   8 H :    0.033971
   9 C :   -0.050505
  10 H :    0.027920
  11 H :    0.028590
  12 C :   -0.079862
  13 H :    0.028750
  14 H :    0.024948
  15 H :    0.024833
  16 S :    0.373809
  17 C :   -0.189741
  18 C :   -0.072328
  19 C :   -0.060599
  20 C :   -0.173677
  21 H :    0.022327
  22 C :   -0.034773
  23 H :    0.026914
  24 H :    0.030501
  25 C :   -0.039687
  26 H :    0.033879
  27 H :    0.031840
  28 C :   -0.075435
  29 H :    0.027219
  30 H :    0.023031
  31 H :    0.037995
  32 H :    0.005657
  33 H :    0.035481

  Mayer bond orders larger than 0.100000
B(  0-S ,  1-C ) :   1.1649 B(  0-S ,  4-C ) :   1.1594 B(  1-C ,  2-C ) :   1.5545
B(  1-C , 32-H ) :   0.9736 B(  2-C ,  3-C ) :   1.2727 B(  2-C ,  6-C ) :   1.0426
B(  3-C ,  4-C ) :   1.5358 B(  3-C ,  5-H ) :   0.9917 B(  4-C , 20-C ) :   1.0647
B(  6-C ,  7-H ) :   0.9404 B(  6-C ,  8-H ) :   0.9335 B(  6-C ,  9-C ) :   1.0561
B(  9-C , 10-H ) :   0.9546 B(  9-C , 11-H ) :   0.9567 B(  9-C , 12-C ) :   1.0768
B( 12-C , 13-H ) :   0.9699 B( 12-C , 14-H ) :   0.9725 B( 12-C , 15-H ) :   0.9749
B( 16-S , 17-C ) :   1.1370 B( 16-S , 20-C ) :   1.1170 B( 17-C , 18-C ) :   1.6477
B( 17-C , 33-H ) :   0.9637 B( 18-C , 19-C ) :   1.2196 B( 18-C , 21-H ) :   0.9918
B( 19-C , 20-C ) :   1.6137 B( 19-C , 22-C ) :   1.0109 B( 22-C , 23-H ) :   0.9415
B( 22-C , 24-H ) :   0.9411 B( 22-C , 25-C ) :   1.0649 B( 25-C , 26-H ) :   0.9520
B( 25-C , 27-H ) :   0.9506 B( 25-C , 28-C ) :   1.0810 B( 28-C , 29-H ) :   0.9626
B( 28-C , 30-H ) :   0.9674 B( 28-C , 31-H ) :   0.9704

Dispersion correction           -0.014689952
FINAL SINGLE POINT ENERGY     -1339.861198246359

DIPOLE MOMENT
-------------
                                X             Y             Z
Electronic contribution:    -17.42474     -20.05101     -12.44523
Nuclear contribution   :     17.68530      20.44325      12.94707
                        -----------------------------------------
Total Dipole Moment    :      0.26056       0.39224       0.50183
                        -----------------------------------------
Magnitude (a.u.)       :      0.68817
Magnitude (Debye)      :      1.74919

Rotational constants in cm-1:     0.019146     0.009268     0.006721
Rotational constants in MHz :   573.985356   277.854319   201.488410

                             ****ORCA TERMINATED NORMALLY****
TOTAL RUN TIME: 0 days 0 hours 0 minutes 35 seconds 823 msec
