                         Program Version 4.2.1 -  RELEASE  -
|  1> ! wB97X-D3 SP def2-SVP
|  2> %pal
|  3> nprocs 16
|  4> end
|  5>
|  6> * xyz 0 1
|  7> S 	 44.807 	 19.0424 	 84.0645
|  8> C 	 43.2634 	 19.9443 	 84.1399
|  9> C 	 42.1768 	 19.1164 	 83.8092
| 10> C 	 42.6273 	 17.7641 	 83.5399
| 11> C 	 44.0169 	 17.5868 	 83.5963
| 12> H 	 41.8251 	 17.0476 	 83.3314
| 13> C 	 40.7027 	 19.4381 	 83.719
| 14> H 	 40.5911 	 20.472 	 83.8622
| 15> H 	 40.3496 	 19.1302 	 84.7047
| 16> C 	 39.8318 	 18.9296 	 82.5973
| 17> H 	 40.2215 	 19.1797 	 81.579
| 18> H 	 39.8431 	 17.8451 	 82.5405
| 19> C 	 38.4258 	 19.3761 	 82.6743
| 20> H 	 38.15 	 19.0643 	 83.6521
| 21> H 	 38.3062 	 20.467 	 82.6048
| 22> H 	 37.7385 	 18.9082 	 81.97
| 23> S 	 46.3405 	 16.6868 	 82.4696
| 24> C 	 46.5159 	 14.9994 	 82.0069
| 25> C 	 45.4348 	 14.2472 	 82.4337
| 26> C 	 44.3585 	 14.9977 	 82.9892
| 27> C 	 44.7225 	 16.3931 	 83.1249
| 28> H 	 45.378 	 13.2157 	 82.2212
| 29> C 	 42.991 	 14.3264 	 83.4225
| 30> H 	 43.0303 	 13.3166 	 83.0994
| 31> H 	 42.1937 	 14.8409 	 82.8311
| 32> C 	 42.5994 	 14.4548 	 84.8942
| 33> H 	 42.3749 	 15.5379 	 85.1902
| 34> H 	 43.3413 	 14.0687 	 85.5839
| 35> C 	 41.362 	 13.5608 	 85.2437
| 36> H 	 41.4537 	 12.6009 	 84.7066
| 37> H 	 40.444 	 14.023 	 85.0588
| 38> H 	 41.3902 	 13.3298 	 86.3436
| 39> H 	 43.2549 	 21.023 	 84.2539
| 40> H 	 47.4443 	 14.5428 	 81.688
| 41> *
| 42>
| 43>                          ****END OF INPUT****

CARTESIAN COORDINATES (ANGSTROEM)
---------------------------------
  S     44.807000   19.042400   84.064500
  C     43.263400   19.944300   84.139900
  C     42.176800   19.116400   83.809200
  C     42.627300   17.764100   83.539900
  C     44.016900   17.586800   83.596300
  H     41.825100   17.047600   83.331400
  C     40.702700   19.438100   83.719000
  H     40.591100   20.472000   83.862200
  H     40.349600   19.130200   84.704700
  C     39.831800   18.929600   82.597300
  H     40.221500   19.179700   81.579000
  H     39.843100   17.845100   82.540500
  C     38.425800   19.376100   82.674300
  H     38.150000   19.064300   83.652100
  H     38.306200   20.467000   82.604800
  H     37.738500   18.908200   81.970000
  S     46.340500   16.686800   82.469600
  C     46.515900   14.999400   82.006900
  C     45.434800   14.247200   82.433700
  C     44.358500   14.997700   82.989200
  C     44.722500   16.393100   83.124900
  H     45.378000   13.215700   82.221200
  C     42.991000   14.326400   83.422500
  H     43.030300   13.316600   83.099400
  H     42.193700   14.840900   82.831100
  C     42.599400   14.454800   84.894200
  H     42.374900   15.537900   85.190200
  H     43.341300   14.068700   85.583900
  C     41.362000   13.560800   85.243700
  H     41.453700   12.600900   84.706600
  H     40.444000   14.023000   85.058800
  H     41.390200   13.329800   86.343600
  H     43.254900   21.023000   84.253900
  H     47.444300   14.542800   81.688000

 Total Charge           Charge          ....    0
 Multiplicity           Mult            ....    1
 Number of Electrons    NEL             ....  134
 Basis Dimension        Dim             ....  322

ORBITAL ENERGIES
----------------

  NO   OCC          E(Eh)            E(eV)
   0   2.0000     -88.969383     -2420.9800
   1   2.0000     -88.967706     -2420.9344
   2   2.0000     -10.336072      -281.2588
   3   2.0000     -10.334639      -281.2198
   4   2.0000     -10.319478      -280.8073
   5   2.0000     -10.316782      -280.7339
   6   2.0000     -10.313188      -280.6361
   7   2.0000     -10.307940      -280.4933
   8   2.0000     -10.300592      -280.2934
   9   2.0000     -10.295572      -280.1568
  10   2.0000     -10.292756      -280.0801
  11   2.0000     -10.292156      -280.0638
  12   2.0000     -10.289960      -280.0040
  13   2.0000     -10.289731      -279.9978
  14   2.0000     -10.278698      -279.6976
  15   2.0000     -10.277029      -279.6522
  16   2.0000      -8.083807      -219.9716
  17   2.0000      -8.081835      -219.9179
  18   2.0000      -6.042458      -164.4236
  19   2.0000      -6.040318      -164.3654
  20   2.0000      -6.038374      -164.3125
  21   2.0000      -6.036377      -164.2582
  22   2.0000      -6.034425      -164.2050
  23   2.0000      -6.032722      -164.1587
  24   2.0000      -1.000892       -27.2356
  25   2.0000      -0.976342       -26.5676
  26   2.0000      -0.924076       -25.1454
  27   2.0000      -0.902342       -24.5540
  28   2.0000      -0.872734       -23.7483
  29   2.0000      -0.849203       -23.1080
  30   2.0000      -0.846110       -23.0238
  31   2.0000      -0.810081       -22.0434
  32   2.0000      -0.785475       -21.3739
  33   2.0000      -0.771602       -20.9964
  34   2.0000      -0.712425       -19.3861
  35   2.0000      -0.700964       -19.0742
  36   2.0000      -0.687465       -18.7069
  37   2.0000      -0.661875       -18.0105
  38   2.0000      -0.635482       -17.2923
  39   2.0000      -0.627517       -17.0756
  40   2.0000      -0.591373       -16.0921
  41   2.0000      -0.571650       -15.5554
  42   2.0000      -0.568429       -15.4677
  43   2.0000      -0.563746       -15.3403
  44   2.0000      -0.535097       -14.5607
  45   2.0000      -0.518864       -14.1190
  46   2.0000      -0.515596       -14.0301
  47   2.0000      -0.508142       -13.8273
  48   2.0000      -0.504906       -13.7392
  49   2.0000      -0.499622       -13.5954
  50   2.0000      -0.493579       -13.4310
  51   2.0000      -0.484975       -13.1968
  52   2.0000      -0.477489       -12.9931
  53   2.0000      -0.465077       -12.6554
  54   2.0000      -0.457580       -12.4514
  55   2.0000      -0.452706       -12.3187
  56   2.0000      -0.446371       -12.1464
  57   2.0000      -0.435789       -11.8584
  58   2.0000      -0.435398       -11.8478
  59   2.0000      -0.426350       -11.6016
  60   2.0000      -0.421140       -11.4598
  61   2.0000      -0.414113       -11.2686
  62   2.0000      -0.411905       -11.2085
  63   2.0000      -0.354183        -9.6378
  64   2.0000      -0.334299        -9.0967
  65   2.0000      -0.327908        -8.9228
  66   2.0000      -0.278886        -7.5889
  67   0.0000       0.015730         0.4280
  68   0.0000       0.077814         2.1174
  69   0.0000       0.102466         2.7882
  70   0.0000       0.116552         3.1715
  71   0.0000       0.131720         3.5843

MULLIKEN ATOMIC CHARGES
-----------------------
   0 S :    0.101972
   1 C :   -0.141652
   2 C :   -0.087878
   3 C :   -0.016744
   4 C :   -0.084901
   5 H :    0.005553
   6 C :    0.090684
   7 H :   -0.009784
   8 H :    0.030776
   9 C :   -0.056706
  10 H :    0.032254
  11 H :    0.019693
  12 C :   -0.028630
  13 H :    0.009297
  14 H :    0.035389
  15 H :    0.037601
  16 S :    0.094426
  17 C :   -0.087626
  18 C :   -0.025920
  19 C :   -0.047006
  20 C :   -0.140938
  21 H :    0.005575
  22 C :    0.081480
  23 H :    0.004050
  24 H :    0.041845
  25 C :   -0.098034
  26 H :    0.052935
  27 H :    0.033256
  28 C :   -0.055583
  29 H :    0.030609
  30 H :    0.023409
  31 H :    0.038293
  32 H :    0.051657
  33 H :    0.060647
Sum of atomic charges:    0.0000000

LOEWDIN ATOMIC CHARGES
----------------------
   0 S :    0.402971
   1 C :   -0.197157
   2 C :   -0.049871
   3 C :   -0.071948
   4 C :   -0.200374
   5 H :    0.028123
   6 C :   -0.036011
   7 H :    0.024539
   8 H :    0.040637
   9 C :   -0.045168
  10 H :    0.029005
  11 H :    0.021351
  12 C :   -0.058981
  13 H :    0.019885
  14 H :    0.027374
  15 H :    0.030031
  16 S :    0.399712
  17 C :   -0.189648
  18 C :   -0.067945
  19 C :   -0.051613
  20 C :   -0.184872
  21 H :    0.025096
  22 C :   -0.027667
  23 H :    0.022126
  24 H :    0.035732
  25 C :   -0.046935
  26 H :    0.033855
  27 H :    0.024461
  28 C :   -0.063948
  29 H :    0.025461
  30 H :    0.011934
  31 H :    0.032791
  32 H :    0.026717
  33 H :    0.030337

  Mayer bond orders larger than 0.100000
B(  0-S ,  1-C ) :   1.1196 B(  0-S ,  4-C ) :   1.1608 B(  1-C ,  2-C ) :   1.5955
B(  1-C , 32-H ) :   0.9687 B(  2-C ,  3-C ) :   1.2774 B(  2-C ,  6-C ) :   1.0224
B(  3-C ,  4-C ) :   1.5106 B(  3-C ,  5-H ) :   0.9861 B(  4-C , 20-C ) :   1.0866
B(  6-C ,  7-H ) :   0.9309 B(  6-C ,  8-H ) :   0.9212 B(  6-C ,  9-C ) :   1.0591
B(  9-C , 10-H ) :   0.9520 B(  9-C , 11-H ) :   0.9441 B(  9-C , 12-C ) :   1.0938
B( 12-C , 13-H ) :   0.9718 B( 12-C , 14-H ) :   0.9744 B( 12-C , 15-H ) :   0.9711
B( 16-S , 17-C ) :   1.1518 B( 16-S , 20-C ) :   1.1559 B( 17-C , 18-C ) :   1.5900
B( 17-C , 20-C ) :   0.1079 B( 17-C , 33-H ) :   0.9641 B( 18-C , 19-C ) :   1.2915
B( 18-C , 21-H ) :   0.9874 B( 19-C , 20-C ) :   1.5253 B( 19-C , 22-C ) :   1.0285
B( 22-C , 23-H ) :   0.9329 B( 22-C , 24-H ) :   0.9331 B( 22-C , 25-C ) :   1.0678
B( 25-C , 26-H ) :   0.9499 B( 25-C , 27-H ) :   0.9608 B( 25-C , 28-C ) :   1.0706
B( 28-C , 29-H ) :   0.9747 B( 28-C , 30-H ) :   0.9791 B( 28-C , 31-H ) :   0.9796

Dispersion correction           -0.013806672
FINAL SINGLE POINT ENERGY     -1339.872540858662

DIPOLE MOMENT
-------------
                                X             Y             Z
Electronic contribution:     31.32806       7.63115      -3.61719
Nuclear contribution   :    -32.05552      -7.89254       3.60391
                        -----------------------------------------
Total Dipole Moment    :     -0.72747      -0.26138      -0.01328
                        -----------------------------------------
Magnitude (a.u.)       :      0.77311
Magnitude (Debye)      :      1.96510

Rotational constants in cm-1:     0.016295     0.009222     0.006755
Rotational constants in MHz :   488.520007   276.481540   202.519827

                             ****ORCA TERMINATED NORMALLY****
TOTAL RUN TIME: 0 days 0 hours 0 minutes 30 seconds 423 msec
