                         Program Version 4.2.1 -  RELEASE  -
|  1> ! wB97X-D3 SP def2-SVP
|  2> %pal
|  3> nprocs 16
|  4> end
|  5>
|  6> * xyz 0 1
|  7> S 	 -38.3185 	 0.420511 	 100.118
|  8> C 	 -39.5414 	 -0.745937 	 100.519
|  9> C 	 -39.1964 	 -2.06362 	 100.174
| 10> C 	 -37.8963 	 -2.04928 	 99.5362
| 11> C 	 -37.31 	 -0.840028 	 99.4527
| 12> H 	 -37.3713 	 -2.97801 	 99.2969
| 13> C 	 -40.0419 	 -3.29142 	 100.331
| 14> H 	 -41.144 	 -3.03333 	 100.529
| 15> H 	 -39.7745 	 -3.81488 	 101.182
| 16> C 	 -39.8584 	 -4.28449 	 99.1844
| 17> H 	 -38.8224 	 -4.6228 	 99.1584
| 18> H 	 -40.4077 	 -5.19685 	 99.5268
| 19> C 	 -40.3574 	 -3.88649 	 97.8281
| 20> H 	 -41.4301 	 -3.96605 	 97.7369
| 21> H 	 -39.9864 	 -2.90278 	 97.5511
| 22> H 	 -39.9442 	 -4.56279 	 97.0529
| 23> S 	 -34.8432 	 0.0759044 	 100.568
| 24> C 	 -33.4222 	 0.192107 	 99.4536
| 25> C 	 -33.7052 	 -0.454733 	 98.2752
| 26> C 	 -35.0328 	 -0.937986 	 98.1543
| 27> C 	 -35.8648 	 -0.656487 	 99.2299
| 28> H 	 -32.9116 	 -0.607197 	 97.6013
| 29> C 	 -35.3509 	 -1.67855 	 96.8886
| 30> H 	 -36.429 	 -1.76445 	 96.7526
| 31> H 	 -35.0236 	 -2.71259 	 96.9531
| 32> C 	 -34.5746 	 -1.20634 	 95.6045
| 33> H 	 -33.5031 	 -1.38344 	 95.747
| 34> H 	 -34.6098 	 -0.138578 	 95.5762
| 35> C 	 -34.8747 	 -1.95932 	 94.2985
| 36> H 	 -34.3533 	 -1.42988 	 93.4333
| 37> H 	 -35.9326 	 -2.06792 	 94.0849
| 38> H 	 -34.4514 	 -2.97058 	 94.4401
| 39> H 	 -40.5042 	 -0.486959 	 100.947
| 40> H 	 -32.497 	 0.644435 	 99.7413
| 41> *
| 42>
| 43>                          ****END OF INPUT****

CARTESIAN COORDINATES (ANGSTROEM)
---------------------------------
  S    -38.318500    0.420511  100.118000
  C    -39.541400   -0.745937  100.519000
  C    -39.196400   -2.063620  100.174000
  C    -37.896300   -2.049280   99.536200
  C    -37.310000   -0.840028   99.452700
  H    -37.371300   -2.978010   99.296900
  C    -40.041900   -3.291420  100.331000
  H    -41.144000   -3.033330  100.529000
  H    -39.774500   -3.814880  101.182000
  C    -39.858400   -4.284490   99.184400
  H    -38.822400   -4.622800   99.158400
  H    -40.407700   -5.196850   99.526800
  C    -40.357400   -3.886490   97.828100
  H    -41.430100   -3.966050   97.736900
  H    -39.986400   -2.902780   97.551100
  H    -39.944200   -4.562790   97.052900
  S    -34.843200    0.075904  100.568000
  C    -33.422200    0.192107   99.453600
  C    -33.705200   -0.454733   98.275200
  C    -35.032800   -0.937986   98.154300
  C    -35.864800   -0.656487   99.229900
  H    -32.911600   -0.607197   97.601300
  C    -35.350900   -1.678550   96.888600
  H    -36.429000   -1.764450   96.752600
  H    -35.023600   -2.712590   96.953100
  C    -34.574600   -1.206340   95.604500
  H    -33.503100   -1.383440   95.747000
  H    -34.609800   -0.138578   95.576200
  C    -34.874700   -1.959320   94.298500
  H    -34.353300   -1.429880   93.433300
  H    -35.932600   -2.067920   94.084900
  H    -34.451400   -2.970580   94.440100
  H    -40.504200   -0.486959  100.947000
  H    -32.497000    0.644435   99.741300

 Total Charge           Charge          ....    0
 Multiplicity           Mult            ....    1
 Number of Electrons    NEL             ....  134
 Basis Dimension        Dim             ....  322

ORBITAL ENERGIES
----------------

  NO   OCC          E(Eh)            E(eV)
   0   2.0000     -88.968177     -2420.9472
   1   2.0000     -88.960449     -2420.7369
   2   2.0000     -10.333386      -281.1857
   3   2.0000     -10.326684      -281.0034
   4   2.0000     -10.319605      -280.8107
   5   2.0000     -10.316964      -280.7389
   6   2.0000     -10.303907      -280.3836
   7   2.0000     -10.302418      -280.3430
   8   2.0000     -10.294511      -280.1279
   9   2.0000     -10.293459      -280.0992
  10   2.0000     -10.290943      -280.0308
  11   2.0000     -10.288630      -279.9679
  12   2.0000     -10.287545      -279.9383
  13   2.0000     -10.287320      -279.9322
  14   2.0000     -10.286488      -279.9096
  15   2.0000     -10.275170      -279.6016
  16   2.0000      -8.083169      -219.9542
  17   2.0000      -8.073264      -219.6847
  18   2.0000      -6.041691      -164.4028
  19   2.0000      -6.037654      -164.2929
  20   2.0000      -6.033864      -164.1898
  21   2.0000      -6.032031      -164.1399
  22   2.0000      -6.028154      -164.0344
  23   2.0000      -6.023752      -163.9146
  24   2.0000      -1.003565       -27.3084
  25   2.0000      -0.976665       -26.5764
  26   2.0000      -0.918097       -24.9827
  27   2.0000      -0.903112       -24.5749
  28   2.0000      -0.868305       -23.6278
  29   2.0000      -0.849639       -23.1198
  30   2.0000      -0.843257       -22.9462
  31   2.0000      -0.816571       -22.2200
  32   2.0000      -0.785888       -21.3851
  33   2.0000      -0.770666       -20.9709
  34   2.0000      -0.707736       -19.2585
  35   2.0000      -0.701922       -19.1003
  36   2.0000      -0.691082       -18.8053
  37   2.0000      -0.653928       -17.7943
  38   2.0000      -0.640766       -17.4361
  39   2.0000      -0.626594       -17.0505
  40   2.0000      -0.598953       -16.2983
  41   2.0000      -0.570008       -15.5107
  42   2.0000      -0.564036       -15.3482
  43   2.0000      -0.557030       -15.1576
  44   2.0000      -0.542334       -14.7577
  45   2.0000      -0.528018       -14.3681
  46   2.0000      -0.515643       -14.0314
  47   2.0000      -0.511096       -13.9076
  48   2.0000      -0.498967       -13.5776
  49   2.0000      -0.496069       -13.4987
  50   2.0000      -0.487018       -13.2524
  51   2.0000      -0.478846       -13.0301
  52   2.0000      -0.471158       -12.8209
  53   2.0000      -0.464734       -12.6460
  54   2.0000      -0.459847       -12.5131
  55   2.0000      -0.448150       -12.1948
  56   2.0000      -0.446633       -12.1535
  57   2.0000      -0.441775       -12.0213
  58   2.0000      -0.428499       -11.6600
  59   2.0000      -0.423105       -11.5133
  60   2.0000      -0.418958       -11.4004
  61   2.0000      -0.415706       -11.3119
  62   2.0000      -0.412495       -11.2246
  63   2.0000      -0.348363        -9.4795
  64   2.0000      -0.328108        -8.9283
  65   2.0000      -0.323924        -8.8144
  66   2.0000      -0.294691        -8.0190
  67   0.0000       0.030118         0.8196
  68   0.0000       0.064617         1.7583
  69   0.0000       0.107714         2.9311
  70   0.0000       0.122174         3.3245
  71   0.0000       0.127611         3.4725

MULLIKEN ATOMIC CHARGES
-----------------------
   0 S :    0.124754
   1 C :   -0.126847
   2 C :   -0.103851
   3 C :    0.022389
   4 C :   -0.147346
   5 H :    0.020809
   6 C :    0.110316
   7 H :    0.030545
   8 H :    0.019621
   9 C :   -0.125064
  10 H :    0.027346
  11 H :    0.026089
  12 C :   -0.017783
  13 H :    0.031537
  14 H :    0.036867
  15 H :    0.028363
  16 S :    0.071657
  17 C :   -0.087659
  18 C :   -0.019527
  19 C :   -0.007217
  20 C :   -0.158155
  21 H :    0.003802
  22 C :    0.078961
  23 H :    0.023050
  24 H :    0.025799
  25 C :   -0.123450
  26 H :    0.030279
  27 H :    0.028533
  28 C :   -0.046663
  29 H :    0.052448
  30 H :    0.036225
  31 H :    0.034124
  32 H :    0.046780
  33 H :    0.053267
Sum of atomic charges:    0.0000000

LOEWDIN ATOMIC CHARGES
----------------------
   0 S :    0.417985
   1 C :   -0.195486
   2 C :   -0.062845
   3 C :   -0.056305
   4 C :   -0.203898
   5 H :    0.033440
   6 C :   -0.032478
   7 H :    0.039213
   8 H :    0.026238
   9 C :   -0.047323
  10 H :    0.022111
  11 H :    0.029549
  12 C :   -0.065777
  13 H :    0.024988
  14 H :    0.025783
  15 H :    0.031260
  16 S :    0.337659
  17 C :   -0.152722
  18 C :   -0.068485
  19 C :   -0.057873
  20 C :   -0.166691
  21 H :    0.025093
  22 C :   -0.033048
  23 H :    0.027708
  24 H :    0.032677
  25 C :   -0.045656
  26 H :    0.023058
  27 H :    0.016779
  28 C :   -0.066048
  29 H :    0.039457
  30 H :    0.021549
  31 H :    0.028129
  32 H :    0.026386
  33 H :    0.025573

  Mayer bond orders larger than 0.100000
B(  0-S ,  1-C ) :   1.1479 B(  0-S ,  4-C ) :   1.1440 B(  1-C ,  2-C ) :   1.6097
B(  1-C , 32-H ) :   0.9664 B(  2-C ,  3-C ) :   1.2433 B(  2-C ,  6-C ) :   1.0207
B(  3-C ,  4-C ) :   1.5860 B(  3-C ,  5-H ) :   0.9844 B(  4-C , 20-C ) :   1.0285
B(  6-C ,  7-H ) :   0.9428 B(  6-C ,  8-H ) :   0.9191 B(  6-C ,  9-C ) :   1.0890
B(  9-C , 10-H ) :   0.9467 B(  9-C , 11-H ) :   0.9502 B(  9-C , 12-C ) :   1.0846
B( 12-C , 13-H ) :   0.9739 B( 12-C , 14-H ) :   0.9724 B( 12-C , 15-H ) :   0.9703
B( 16-S , 17-C ) :   1.1336 B( 16-S , 20-C ) :   1.1092 B( 17-C , 18-C ) :   1.6224
B( 17-C , 33-H ) :   0.9693 B( 18-C , 19-C ) :   1.2199 B( 18-C , 21-H ) :   0.9961
B( 19-C , 20-C ) :   1.6227 B( 19-C , 22-C ) :   1.0577 B( 22-C , 23-H ) :   0.9335
B( 22-C , 24-H ) :   0.9252 B( 22-C , 25-C ) :   1.0563 B( 25-C , 26-H ) :   0.9449
B( 25-C , 27-H ) :   0.9657 B( 25-C , 28-C ) :   1.0735 B( 28-C , 29-H ) :   0.9722
B( 28-C , 30-H ) :   0.9784 B( 28-C , 31-H ) :   0.9740

Dispersion correction           -0.013872176
FINAL SINGLE POINT ENERGY     -1339.877470775255

DIPOLE MOMENT
-------------
                                X             Y             Z
Electronic contribution:      5.26485      19.45200      21.31793
Nuclear contribution   :     -5.31090     -20.11660     -21.64841
                        -----------------------------------------
Total Dipole Moment    :     -0.04604      -0.66460      -0.33048
                        -----------------------------------------
Magnitude (a.u.)       :      0.74366
Magnitude (Debye)      :      1.89023

Rotational constants in cm-1:     0.016274     0.009302     0.006608
Rotational constants in MHz :   487.881352   278.861986   198.115104

                             ****ORCA TERMINATED NORMALLY****
TOTAL RUN TIME: 0 days 0 hours 0 minutes 29 seconds 862 msec
