                         Program Version 4.2.1 -  RELEASE  -
|  1> ! wB97X-D3 SP def2-SVP
|  2> %pal
|  3> nprocs 16
|  4> end
|  5>
|  6> * xyz 0 1
|  7> S 	 10.1179 	 21.108 	 56.8359
|  8> C 	 9.99473 	 19.4435 	 56.2427
|  9> C 	 8.95988 	 18.7924 	 56.8674
| 10> C 	 8.07013 	 19.6861 	 57.6136
| 11> C 	 8.50144 	 21.0189 	 57.6384
| 12> H 	 7.15971 	 19.3188 	 58.0864
| 13> C 	 8.72315 	 17.2861 	 56.9273
| 14> H 	 8.73826 	 17.0572 	 55.9303
| 15> H 	 7.78334 	 17.1534 	 57.3477
| 16> C 	 9.87523 	 16.4473 	 57.5773
| 17> H 	 9.58956 	 15.4072 	 57.5422
| 18> H 	 10.7795 	 16.4085 	 56.9696
| 19> C 	 10.1718 	 16.9592 	 58.9725
| 20> H 	 10.5608 	 17.9072 	 58.9624
| 21> H 	 9.31308 	 17.101 	 59.5247
| 22> H 	 10.936 	 16.2948 	 59.5085
| 23> S 	 8.57877 	 23.5567 	 58.857
| 24> C 	 7.12655 	 24.3589 	 59.322
| 25> C 	 6.06822 	 23.5458 	 59.0288
| 26> C 	 6.40933 	 22.3563 	 58.3799
| 27> C 	 7.7715 	 22.1431 	 58.1981
| 28> H 	 5.04079 	 23.7852 	 59.1954
| 29> C 	 5.34087 	 21.4229 	 57.9092
| 30> H 	 5.66196 	 20.7665 	 57.0722
| 31> H 	 4.61665 	 22.1151 	 57.4603
| 32> C 	 4.66439 	 20.6333 	 59.0137
| 33> H 	 4.45314 	 21.2915 	 59.8268
| 34> H 	 5.38222 	 20.0044 	 59.5387
| 35> C 	 3.39522 	 19.934 	 58.3861
| 36> H 	 2.70638 	 20.628 	 57.8966
| 37> H 	 2.88791 	 19.5288 	 59.2511
| 38> H 	 3.72074 	 19.1697 	 57.7568
| 39> H 	 10.6711 	 18.8665 	 55.5922
| 40> H 	 7.00961 	 25.3582 	 59.7244
| 41> *
| 42>
| 43>                          ****END OF INPUT****

CARTESIAN COORDINATES (ANGSTROEM)
---------------------------------
  S     10.117900   21.108000   56.835900
  C      9.994730   19.443500   56.242700
  C      8.959880   18.792400   56.867400
  C      8.070130   19.686100   57.613600
  C      8.501440   21.018900   57.638400
  H      7.159710   19.318800   58.086400
  C      8.723150   17.286100   56.927300
  H      8.738260   17.057200   55.930300
  H      7.783340   17.153400   57.347700
  C      9.875230   16.447300   57.577300
  H      9.589560   15.407200   57.542200
  H     10.779500   16.408500   56.969600
  C     10.171800   16.959200   58.972500
  H     10.560800   17.907200   58.962400
  H      9.313080   17.101000   59.524700
  H     10.936000   16.294800   59.508500
  S      8.578770   23.556700   58.857000
  C      7.126550   24.358900   59.322000
  C      6.068220   23.545800   59.028800
  C      6.409330   22.356300   58.379900
  C      7.771500   22.143100   58.198100
  H      5.040790   23.785200   59.195400
  C      5.340870   21.422900   57.909200
  H      5.661960   20.766500   57.072200
  H      4.616650   22.115100   57.460300
  C      4.664390   20.633300   59.013700
  H      4.453140   21.291500   59.826800
  H      5.382220   20.004400   59.538700
  C      3.395220   19.934000   58.386100
  H      2.706380   20.628000   57.896600
  H      2.887910   19.528800   59.251100
  H      3.720740   19.169700   57.756800
  H     10.671100   18.866500   55.592200
  H      7.009610   25.358200   59.724400

 Total Charge           Charge          ....    0
 Multiplicity           Mult            ....    1
 Number of Electrons    NEL             ....  134
 Basis Dimension        Dim             ....  322

ORBITAL ENERGIES
----------------

  NO   OCC          E(Eh)            E(eV)
   0   2.0000     -88.968752     -2420.9628
   1   2.0000     -88.964257     -2420.8405
   2   2.0000     -10.340658      -281.3836
   3   2.0000     -10.328444      -281.0512
   4   2.0000     -10.317840      -280.7627
   5   2.0000     -10.317212      -280.7456
   6   2.0000     -10.301228      -280.3107
   7   2.0000     -10.299922      -280.2751
   8   2.0000     -10.295832      -280.1638
   9   2.0000     -10.287636      -279.9408
  10   2.0000     -10.287484      -279.9367
  11   2.0000     -10.286856      -279.9196
  12   2.0000     -10.286504      -279.9100
  13   2.0000     -10.283244      -279.8213
  14   2.0000     -10.279574      -279.7214
  15   2.0000     -10.264656      -279.3155
  16   2.0000      -8.081966      -219.9215
  17   2.0000      -8.079383      -219.8512
  18   2.0000      -6.040860      -164.3802
  19   2.0000      -6.037913      -164.3000
  20   2.0000      -6.036835      -164.2706
  21   2.0000      -6.033697      -164.1852
  22   2.0000      -6.032236      -164.1455
  23   2.0000      -6.030231      -164.0909
  24   2.0000      -1.008095       -27.4317
  25   2.0000      -0.981444       -26.7064
  26   2.0000      -0.913983       -24.8707
  27   2.0000      -0.912712       -24.8362
  28   2.0000      -0.871529       -23.7155
  29   2.0000      -0.852016       -23.1845
  30   2.0000      -0.843097       -22.9418
  31   2.0000      -0.815100       -22.1800
  32   2.0000      -0.784347       -21.3432
  33   2.0000      -0.774224       -21.0677
  34   2.0000      -0.714414       -19.4402
  35   2.0000      -0.712415       -19.3858
  36   2.0000      -0.702484       -19.1156
  37   2.0000      -0.667482       -18.1631
  38   2.0000      -0.630586       -17.1591
  39   2.0000      -0.617564       -16.8048
  40   2.0000      -0.599209       -16.3053
  41   2.0000      -0.573511       -15.6060
  42   2.0000      -0.561280       -15.2732
  43   2.0000      -0.552865       -15.0442
  44   2.0000      -0.543743       -14.7960
  45   2.0000      -0.528408       -14.3787
  46   2.0000      -0.518115       -14.0986
  47   2.0000      -0.516931       -14.0664
  48   2.0000      -0.506664       -13.7870
  49   2.0000      -0.505319       -13.7504
  50   2.0000      -0.491259       -13.3678
  51   2.0000      -0.482518       -13.1300
  52   2.0000      -0.478798       -13.0287
  53   2.0000      -0.469579       -12.7779
  54   2.0000      -0.462369       -12.5817
  55   2.0000      -0.455736       -12.4012
  56   2.0000      -0.443065       -12.0564
  57   2.0000      -0.438129       -11.9221
  58   2.0000      -0.433519       -11.7967
  59   2.0000      -0.427831       -11.6419
  60   2.0000      -0.421694       -11.4749
  61   2.0000      -0.413987       -11.2652
  62   2.0000      -0.402835       -10.9617
  63   2.0000      -0.361171        -9.8280
  64   2.0000      -0.331580        -9.0227
  65   2.0000      -0.324471        -8.8293
  66   2.0000      -0.283898        -7.7253
  67   0.0000       0.018116         0.4930
  68   0.0000       0.077133         2.0989
  69   0.0000       0.105154         2.8614
  70   0.0000       0.127855         3.4791
  71   0.0000       0.129230         3.5165

MULLIKEN ATOMIC CHARGES
-----------------------
   0 S :    0.105618
   1 C :   -0.119825
   2 C :   -0.149174
   3 C :   -0.003727
   4 C :   -0.110264
   5 H :    0.009219
   6 C :    0.144923
   7 H :    0.007682
   8 H :    0.003650
   9 C :   -0.063699
  10 H :    0.023950
  11 H :    0.019298
  12 C :   -0.004158
  13 H :    0.021337
  14 H :    0.005887
  15 H :    0.040669
  16 S :    0.097153
  17 C :   -0.078624
  18 C :   -0.013861
  19 C :   -0.063031
  20 C :   -0.115453
  21 H :    0.004443
  22 C :    0.012415
  23 H :    0.034652
  24 H :    0.020437
  25 C :   -0.069509
  26 H :    0.006845
  27 H :    0.021389
  28 C :   -0.000136
  29 H :    0.039192
  30 H :    0.031465
  31 H :    0.026537
  32 H :    0.052478
  33 H :    0.062221
Sum of atomic charges:    0.0000000

LOEWDIN ATOMIC CHARGES
----------------------
   0 S :    0.373404
   1 C :   -0.198716
   2 C :   -0.059735
   3 C :   -0.066440
   4 C :   -0.167781
   5 H :    0.029230
   6 C :   -0.016358
   7 H :    0.024177
   8 H :    0.019635
   9 C :   -0.033057
  10 H :    0.022698
  11 H :    0.022431
  12 C :   -0.058218
  13 H :    0.018217
  14 H :    0.015043
  15 H :    0.035417
  16 S :    0.412818
  17 C :   -0.188631
  18 C :   -0.074075
  19 C :   -0.061124
  20 C :   -0.198138
  21 H :    0.027342
  22 C :   -0.039712
  23 H :    0.031133
  24 H :    0.030800
  25 C :   -0.038944
  26 H :    0.018325
  27 H :    0.022249
  28 C :   -0.050691
  29 H :    0.029400
  30 H :    0.027121
  31 H :    0.018063
  32 H :    0.037250
  33 H :    0.036867

  Mayer bond orders larger than 0.100000
B(  0-S ,  1-C ) :   1.1102 B(  0-S ,  4-C ) :   1.1207 B(  1-C ,  2-C ) :   1.6428
B(  1-C , 32-H ) :   0.9638 B(  2-C ,  3-C ) :   1.2203 B(  2-C ,  6-C ) :   1.0085
B(  3-C ,  4-C ) :   1.5614 B(  3-C ,  5-H ) :   0.9873 B(  4-C , 20-C ) :   1.0967
B(  6-C ,  7-H ) :   0.9235 B(  6-C ,  8-H ) :   0.9437 B(  6-C ,  9-C ) :   1.0788
B(  9-C , 10-H ) :   0.9561 B(  9-C , 11-H ) :   0.9528 B(  9-C , 12-C ) :   1.0756
B( 12-C , 13-H ) :   0.9669 B( 12-C , 14-H ) :   0.9742 B( 12-C , 15-H ) :   0.9728
B( 16-S , 17-C ) :   1.1729 B( 16-S , 20-C ) :   1.1221 B( 17-C , 18-C ) :   1.5536
B( 17-C , 33-H ) :   0.9694 B( 18-C , 19-C ) :   1.3028 B( 18-C , 21-H ) :   0.9907
B( 19-C , 20-C ) :   1.5555 B( 19-C , 22-C ) :   1.0363 B( 22-C , 23-H ) :   0.9372
B( 22-C , 24-H ) :   0.9331 B( 22-C , 25-C ) :   1.0624 B( 25-C , 26-H ) :   0.9502
B( 25-C , 27-H ) :   0.9482 B( 25-C , 28-C ) :   1.0627 B( 28-C , 29-H ) :   0.9773
B( 28-C , 30-H ) :   0.9750 B( 28-C , 31-H ) :   0.9766

Dispersion correction           -0.014713281
FINAL SINGLE POINT ENERGY     -1339.861327953605

DIPOLE MOMENT
-------------
                                X             Y             Z
Electronic contribution:     14.47255      23.25458      -3.32059
Nuclear contribution   :    -15.08439     -23.74095       3.38187
                        -----------------------------------------
Total Dipole Moment    :     -0.61184      -0.48637       0.06129
                        -----------------------------------------
Magnitude (a.u.)       :      0.78400
Magnitude (Debye)      :      1.99278

Rotational constants in cm-1:     0.017913     0.009255     0.006808
Rotational constants in MHz :   537.006548   277.454147   204.106975

                             ****ORCA TERMINATED NORMALLY****
TOTAL RUN TIME: 0 days 0 hours 0 minutes 36 seconds 200 msec
