                         Program Version 4.2.1 -  RELEASE  -
|  1> ! wB97X-D3 SP def2-SVP
|  2> %pal
|  3> nprocs 16
|  4> end
|  5>
|  6> * xyz 0 1
|  7> S 	 27.8457 	 32.4282 	 57.8168
|  8> C 	 27.4378 	 30.8377 	 57.3033
|  9> C 	 27.8342 	 30.6256 	 55.9876
| 10> C 	 28.8045 	 31.576 	 55.5787
| 11> C 	 28.9981 	 32.6415 	 56.473
| 12> H 	 29.2981 	 31.5278 	 54.5935
| 13> C 	 27.5671 	 29.4342 	 55.0838
| 14> H 	 28.4725 	 28.866 	 55.1107
| 15> H 	 27.4341 	 29.7912 	 54.0485
| 16> C 	 26.3993 	 28.5113 	 55.3678
| 17> H 	 26.5066 	 28.0617 	 56.4208
| 18> H 	 25.5013 	 29.1437 	 55.228
| 19> C 	 26.3625 	 27.4234 	 54.3121
| 20> H 	 25.4242 	 26.8493 	 54.3029
| 21> H 	 26.4689 	 27.752 	 53.2738
| 22> H 	 27.157 	 26.7493 	 54.5137
| 23> S 	 28.9837 	 35.4358 	 56.6927
| 24> C 	 30.4581 	 36.3669 	 56.3546
| 25> C 	 31.5262 	 35.487 	 56.0942
| 26> C 	 31.1281 	 34.0994 	 56.2039
| 27> C 	 29.7677 	 33.8964 	 56.3915
| 28> H 	 32.538 	 35.8251 	 55.8899
| 29> C 	 32.1206 	 32.9913 	 56.1225
| 30> H 	 31.5589 	 32.081 	 56.3586
| 31> H 	 32.6615 	 33.1354 	 57.062
| 32> C 	 32.9635 	 32.9694 	 54.8134
| 33> H 	 33.6616 	 32.1811 	 55.053
| 34> H 	 33.5595 	 33.8996 	 54.6956
| 35> C 	 32.2166 	 32.5615 	 53.5212
| 36> H 	 32.8229 	 32.7221 	 52.6965
| 37> H 	 31.3302 	 33.0926 	 53.2988
| 38> H 	 31.9051 	 31.554 	 53.5456
| 39> H 	 26.7228 	 30.1579 	 57.7686
| 40> H 	 30.4095 	 37.49 	 56.2781
| 41> *
| 42>
| 43>                          ****END OF INPUT****

CARTESIAN COORDINATES (ANGSTROEM)
---------------------------------
  S     27.845700   32.428200   57.816800
  C     27.437800   30.837700   57.303300
  C     27.834200   30.625600   55.987600
  C     28.804500   31.576000   55.578700
  C     28.998100   32.641500   56.473000
  H     29.298100   31.527800   54.593500
  C     27.567100   29.434200   55.083800
  H     28.472500   28.866000   55.110700
  H     27.434100   29.791200   54.048500
  C     26.399300   28.511300   55.367800
  H     26.506600   28.061700   56.420800
  H     25.501300   29.143700   55.228000
  C     26.362500   27.423400   54.312100
  H     25.424200   26.849300   54.302900
  H     26.468900   27.752000   53.273800
  H     27.157000   26.749300   54.513700
  S     28.983700   35.435800   56.692700
  C     30.458100   36.366900   56.354600
  C     31.526200   35.487000   56.094200
  C     31.128100   34.099400   56.203900
  C     29.767700   33.896400   56.391500
  H     32.538000   35.825100   55.889900
  C     32.120600   32.991300   56.122500
  H     31.558900   32.081000   56.358600
  H     32.661500   33.135400   57.062000
  C     32.963500   32.969400   54.813400
  H     33.661600   32.181100   55.053000
  H     33.559500   33.899600   54.695600
  C     32.216600   32.561500   53.521200
  H     32.822900   32.722100   52.696500
  H     31.330200   33.092600   53.298800
  H     31.905100   31.554000   53.545600
  H     26.722800   30.157900   57.768600
  H     30.409500   37.490000   56.278100

 Total Charge           Charge          ....    0
 Multiplicity           Mult            ....    1
 Number of Electrons    NEL             ....  134
 Basis Dimension        Dim             ....  322

ORBITAL ENERGIES
----------------

  NO   OCC          E(Eh)            E(eV)
   0   2.0000     -88.964468     -2420.8462
   1   2.0000     -88.962396     -2420.7899
   2   2.0000     -10.336051      -281.2583
   3   2.0000     -10.328430      -281.0509
   4   2.0000     -10.326008      -280.9850
   5   2.0000     -10.312689      -280.6225
   6   2.0000     -10.299879      -280.2739
   7   2.0000     -10.299667      -280.2682
   8   2.0000     -10.298901      -280.2474
   9   2.0000     -10.297835      -280.2183
  10   2.0000     -10.295298      -280.1493
  11   2.0000     -10.293105      -280.0896
  12   2.0000     -10.290956      -280.0311
  13   2.0000     -10.287196      -279.9288
  14   2.0000     -10.277992      -279.6784
  15   2.0000     -10.267713      -279.3987
  16   2.0000      -8.079126      -219.8442
  17   2.0000      -8.076770      -219.7801
  18   2.0000      -6.037624      -164.2921
  19   2.0000      -6.035396      -164.2315
  20   2.0000      -6.033703      -164.1854
  21   2.0000      -6.031284      -164.1196
  22   2.0000      -6.029836      -164.0802
  23   2.0000      -6.027479      -164.0160
  24   2.0000      -1.001866       -27.2622
  25   2.0000      -0.980532       -26.6816
  26   2.0000      -0.917093       -24.9554
  27   2.0000      -0.905575       -24.6419
  28   2.0000      -0.866053       -23.5665
  29   2.0000      -0.852084       -23.1864
  30   2.0000      -0.846473       -23.0337
  31   2.0000      -0.811774       -22.0895
  32   2.0000      -0.783237       -21.3129
  33   2.0000      -0.771594       -20.9961
  34   2.0000      -0.710794       -19.3417
  35   2.0000      -0.706184       -19.2163
  36   2.0000      -0.689029       -18.7494
  37   2.0000      -0.657136       -17.8816
  38   2.0000      -0.634136       -17.2557
  39   2.0000      -0.612183       -16.6584
  40   2.0000      -0.592443       -16.1212
  41   2.0000      -0.583031       -15.8651
  42   2.0000      -0.565967       -15.4007
  43   2.0000      -0.551530       -15.0079
  44   2.0000      -0.536867       -14.6089
  45   2.0000      -0.526174       -14.3179
  46   2.0000      -0.514157       -13.9909
  47   2.0000      -0.511086       -13.9073
  48   2.0000      -0.504592       -13.7307
  49   2.0000      -0.499420       -13.5899
  50   2.0000      -0.490646       -13.3512
  51   2.0000      -0.476454       -12.9650
  52   2.0000      -0.474860       -12.9216
  53   2.0000      -0.465817       -12.6755
  54   2.0000      -0.458857       -12.4861
  55   2.0000      -0.450513       -12.2591
  56   2.0000      -0.446574       -12.1519
  57   2.0000      -0.439136       -11.9495
  58   2.0000      -0.428988       -11.6733
  59   2.0000      -0.426037       -11.5931
  60   2.0000      -0.425018       -11.5653
  61   2.0000      -0.421667       -11.4741
  62   2.0000      -0.405868       -11.0442
  63   2.0000      -0.347564        -9.4577
  64   2.0000      -0.328071        -8.9273
  65   2.0000      -0.324388        -8.8271
  66   2.0000      -0.287269        -7.8170
  67   0.0000       0.031171         0.8482
  68   0.0000       0.062622         1.7040
  69   0.0000       0.108018         2.9393
  70   0.0000       0.123409         3.3581
  71   0.0000       0.130636         3.5548

MULLIKEN ATOMIC CHARGES
-----------------------
   0 S :    0.106007
   1 C :   -0.112999
   2 C :   -0.074637
   3 C :    0.017559
   4 C :   -0.155344
   5 H :    0.015591
   6 C :    0.008667
   7 H :    0.031874
   8 H :    0.031372
   9 C :   -0.094647
  10 H :    0.049165
  11 H :    0.039300
  12 C :   -0.030055
  13 H :    0.035587
  14 H :    0.025815
  15 H :    0.021012
  16 S :    0.089843
  17 C :   -0.122432
  18 C :   -0.018318
  19 C :   -0.077609
  20 C :   -0.136965
  21 H :    0.023610
  22 C :    0.064111
  23 H :    0.020711
  24 H :    0.036332
  25 C :   -0.071061
  26 H :    0.029730
  27 H :    0.037604
  28 C :    0.008110
  29 H :    0.017450
  30 H :    0.025546
  31 H :    0.019039
  32 H :    0.053045
  33 H :    0.086989
Sum of atomic charges:    0.0000000

LOEWDIN ATOMIC CHARGES
----------------------
   0 S :    0.405075
   1 C :   -0.211853
   2 C :   -0.066138
   3 C :   -0.063108
   4 C :   -0.180350
   5 H :    0.034602
   6 C :   -0.037528
   7 H :    0.029855
   8 H :    0.034507
   9 C :   -0.047674
  10 H :    0.033549
  11 H :    0.028547
  12 C :   -0.064523
  13 H :    0.029037
  14 H :    0.025879
  15 H :    0.020450
  16 S :    0.386902
  17 C :   -0.181815
  18 C :   -0.071685
  19 C :   -0.059502
  20 C :   -0.210020
  21 H :    0.031217
  22 C :   -0.039136
  23 H :    0.032067
  24 H :    0.039422
  25 C :   -0.033676
  26 H :    0.026557
  27 H :    0.026471
  28 C :   -0.054015
  29 H :    0.021435
  30 H :    0.022073
  31 H :    0.021317
  32 H :    0.030116
  33 H :    0.041947

  Mayer bond orders larger than 0.100000
B(  0-S ,  1-C ) :   1.1475 B(  0-S ,  4-C ) :   1.1473 B(  1-C ,  2-C ) :   1.5977
B(  1-C ,  4-C ) :   0.1041 B(  1-C , 32-H ) :   0.9618 B(  2-C ,  3-C ) :   1.2619
B(  2-C ,  6-C ) :   1.0070 B(  3-C ,  4-C ) :   1.5508 B(  3-C ,  5-H ) :   0.9934
B(  4-C , 20-C ) :   1.0408 B(  6-C ,  7-H ) :   0.9439 B(  6-C ,  8-H ) :   0.9430
B(  6-C ,  9-C ) :   1.0717 B(  9-C , 10-H ) :   0.9465 B(  9-C , 11-H ) :   0.9572
B(  9-C , 12-C ) :   1.0872 B( 12-C , 13-H ) :   0.9728 B( 12-C , 14-H ) :   0.9725
B( 12-C , 15-H ) :   0.9736 B( 16-S , 17-C ) :   1.1587 B( 16-S , 20-C ) :   1.1261
B( 17-C , 18-C ) :   1.5848 B( 17-C , 33-H ) :   0.9627 B( 18-C , 19-C ) :   1.2373
B( 18-C , 21-H ) :   0.9916 B( 19-C , 20-C ) :   1.5910 B( 19-C , 22-C ) :   1.0409
B( 22-C , 23-H ) :   0.9314 B( 22-C , 24-H ) :   0.9275 B( 22-C , 25-C ) :   1.0589
B( 25-C , 26-H ) :   0.9552 B( 25-C , 27-H ) :   0.9601 B( 25-C , 28-C ) :   1.0717
B( 28-C , 29-H ) :   0.9694 B( 28-C , 30-H ) :   0.9748 B( 28-C , 31-H ) :   0.9714

Dispersion correction           -0.014215823
FINAL SINGLE POINT ENERGY     -1339.876621125004

DIPOLE MOMENT
-------------
                                X             Y             Z
Electronic contribution:     -6.04293      22.28185      16.95198
Nuclear contribution   :      6.38544     -22.74582     -17.48122
                        -----------------------------------------
Total Dipole Moment    :      0.34251      -0.46397      -0.52924
                        -----------------------------------------
Magnitude (a.u.)       :      0.78274
Magnitude (Debye)      :      1.98956

Rotational constants in cm-1:     0.021194     0.007737     0.006132
Rotational constants in MHz :   635.366516   231.964350   183.843227

                             ****ORCA TERMINATED NORMALLY****
TOTAL RUN TIME: 0 days 0 hours 0 minutes 34 seconds 736 msec
