                         Program Version 4.2.1 -  RELEASE  -
|  1> ! wB97X-D3 SP def2-SVP
|  2> %pal
|  3> nprocs 16
|  4> end
|  5>
|  6> * xyz 0 1
|  7> S 	 -7.93018 	 60.0633 	 52.964
|  8> C 	 -8.44809 	 60.0968 	 54.6166
|  9> C 	 -7.52908 	 60.6937 	 55.469
| 10> C 	 -6.63214 	 61.4976 	 54.6502
| 11> C 	 -6.76533 	 61.2426 	 53.3038
| 12> H 	 -5.85492 	 62.1416 	 54.9804
| 13> C 	 -7.58063 	 60.6224 	 56.9396
| 14> H 	 -8.55594 	 60.8814 	 57.3763
| 15> H 	 -6.98783 	 61.4414 	 57.2254
| 16> C 	 -6.83682 	 59.3601 	 57.5199
| 17> H 	 -7.08411 	 58.5345 	 56.8593
| 18> H 	 -5.74462 	 59.4796 	 57.4528
| 19> C 	 -7.1871 	 59.1229 	 58.9695
| 20> H 	 -6.80549 	 58.1495 	 59.3327
| 21> H 	 -6.80408 	 59.8632 	 59.654
| 22> H 	 -8.28915 	 59.1472 	 59.0284
| 23> S 	 -4.96923 	 60.6857 	 51.3065
| 24> C 	 -4.17662 	 61.9512 	 50.5165
| 25> C 	 -4.62923 	 63.1967 	 50.9437
| 26> C 	 -5.58238 	 63.147 	 51.9218
| 27> C 	 -5.97469 	 61.8238 	 52.2382
| 28> H 	 -4.1921 	 64.1036 	 50.5203
| 29> C 	 -6.03416 	 64.3937 	 52.5993
| 30> H 	 -5.18969 	 65.1038 	 52.5793
| 31> H 	 -6.18079 	 64.1877 	 53.6354
| 32> C 	 -7.27957 	 65.0842 	 51.902
| 33> H 	 -8.144 	 64.3696 	 51.922
| 34> H 	 -7.10295 	 65.2387 	 50.8799
| 35> C 	 -7.5622 	 66.4906 	 52.4809
| 36> H 	 -6.57944 	 66.9998 	 52.5047
| 37> H 	 -7.97983 	 66.3591 	 53.5436
| 38> H 	 -8.26843 	 66.9679 	 51.8446
| 39> H 	 -9.35281 	 59.6117 	 54.9161
| 40> H 	 -3.45684 	 61.8861 	 49.7148
| 41> *
| 42>
| 43>                          ****END OF INPUT****

CARTESIAN COORDINATES (ANGSTROEM)
---------------------------------
  S     -7.930180   60.063300   52.964000
  C     -8.448090   60.096800   54.616600
  C     -7.529080   60.693700   55.469000
  C     -6.632140   61.497600   54.650200
  C     -6.765330   61.242600   53.303800
  H     -5.854920   62.141600   54.980400
  C     -7.580630   60.622400   56.939600
  H     -8.555940   60.881400   57.376300
  H     -6.987830   61.441400   57.225400
  C     -6.836820   59.360100   57.519900
  H     -7.084110   58.534500   56.859300
  H     -5.744620   59.479600   57.452800
  C     -7.187100   59.122900   58.969500
  H     -6.805490   58.149500   59.332700
  H     -6.804080   59.863200   59.654000
  H     -8.289150   59.147200   59.028400
  S     -4.969230   60.685700   51.306500
  C     -4.176620   61.951200   50.516500
  C     -4.629230   63.196700   50.943700
  C     -5.582380   63.147000   51.921800
  C     -5.974690   61.823800   52.238200
  H     -4.192100   64.103600   50.520300
  C     -6.034160   64.393700   52.599300
  H     -5.189690   65.103800   52.579300
  H     -6.180790   64.187700   53.635400
  C     -7.279570   65.084200   51.902000
  H     -8.144000   64.369600   51.922000
  H     -7.102950   65.238700   50.879900
  C     -7.562200   66.490600   52.480900
  H     -6.579440   66.999800   52.504700
  H     -7.979830   66.359100   53.543600
  H     -8.268430   66.967900   51.844600
  H     -9.352810   59.611700   54.916100
  H     -3.456840   61.886100   49.714800

 Total Charge           Charge          ....    0
 Multiplicity           Mult            ....    1
 Number of Electrons    NEL             ....  134
 Basis Dimension        Dim             ....  322

ORBITAL ENERGIES
----------------

  NO   OCC          E(Eh)            E(eV)
   0   2.0000     -88.965842     -2420.8836
   1   2.0000     -88.963569     -2420.8218
   2   2.0000     -10.324021      -280.9309
   3   2.0000     -10.320628      -280.8386
   4   2.0000     -10.310039      -280.5504
   5   2.0000     -10.307869      -280.4914
   6   2.0000     -10.302147      -280.3357
   7   2.0000     -10.296172      -280.1731
   8   2.0000     -10.292214      -280.0654
   9   2.0000     -10.288667      -279.9689
  10   2.0000     -10.288439      -279.9627
  11   2.0000     -10.287977      -279.9501
  12   2.0000     -10.284444      -279.8539
  13   2.0000     -10.284325      -279.8507
  14   2.0000     -10.282570      -279.8029
  15   2.0000     -10.279565      -279.7212
  16   2.0000      -8.081006      -219.8953
  17   2.0000      -8.080062      -219.8697
  18   2.0000      -6.039244      -164.3362
  19   2.0000      -6.038284      -164.3101
  20   2.0000      -6.035347      -164.2301
  21   2.0000      -6.034515      -164.2075
  22   2.0000      -6.032137      -164.1428
  23   2.0000      -6.030825      -164.1071
  24   2.0000      -1.012395       -27.5487
  25   2.0000      -0.989868       -26.9357
  26   2.0000      -0.915696       -24.9174
  27   2.0000      -0.905750       -24.6467
  28   2.0000      -0.868641       -23.6369
  29   2.0000      -0.855253       -23.2726
  30   2.0000      -0.850736       -23.1497
  31   2.0000      -0.810846       -22.0642
  32   2.0000      -0.783641       -21.3240
  33   2.0000      -0.768333       -20.9074
  34   2.0000      -0.703743       -19.1498
  35   2.0000      -0.700664       -19.0660
  36   2.0000      -0.692422       -18.8418
  37   2.0000      -0.662030       -18.0147
  38   2.0000      -0.646062       -17.5802
  39   2.0000      -0.618265       -16.8238
  40   2.0000      -0.596176       -16.2228
  41   2.0000      -0.570930       -15.5358
  42   2.0000      -0.561023       -15.2662
  43   2.0000      -0.553884       -15.0719
  44   2.0000      -0.530612       -14.4387
  45   2.0000      -0.523969       -14.2579
  46   2.0000      -0.522691       -14.2231
  47   2.0000      -0.509953       -13.8765
  48   2.0000      -0.508862       -13.8468
  49   2.0000      -0.499815       -13.6007
  50   2.0000      -0.491808       -13.3828
  51   2.0000      -0.480491       -13.0748
  52   2.0000      -0.469880       -12.7861
  53   2.0000      -0.461092       -12.5470
  54   2.0000      -0.455823       -12.4036
  55   2.0000      -0.452531       -12.3140
  56   2.0000      -0.442689       -12.0462
  57   2.0000      -0.439510       -11.9597
  58   2.0000      -0.437276       -11.8989
  59   2.0000      -0.430847       -11.7239
  60   2.0000      -0.421190       -11.4612
  61   2.0000      -0.416978       -11.3465
  62   2.0000      -0.412206       -11.2167
  63   2.0000      -0.340519        -9.2660
  64   2.0000      -0.332664        -9.0523
  65   2.0000      -0.328336        -8.9345
  66   2.0000      -0.284817        -7.7503
  67   0.0000       0.035677         0.9708
  68   0.0000       0.061843         1.6828
  69   0.0000       0.113757         3.0955
  70   0.0000       0.123584         3.3629
  71   0.0000       0.127009         3.4561

MULLIKEN ATOMIC CHARGES
-----------------------
   0 S :    0.123262
   1 C :   -0.120434
   2 C :   -0.102600
   3 C :    0.041659
   4 C :   -0.155968
   5 H :    0.002754
   6 C :    0.085574
   7 H :    0.036880
   8 H :   -0.004428
   9 C :   -0.075445
  10 H :    0.032970
  11 H :    0.033760
  12 C :   -0.036561
  13 H :    0.038055
  14 H :    0.029942
  15 H :    0.027758
  16 S :    0.116116
  17 C :   -0.080137
  18 C :   -0.064924
  19 C :   -0.013681
  20 C :   -0.164280
  21 H :    0.015200
  22 C :    0.076025
  23 H :    0.013432
  24 H :    0.008451
  25 C :   -0.074637
  26 H :    0.041219
  27 H :    0.011603
  28 C :   -0.048572
  29 H :    0.035578
  30 H :    0.046435
  31 H :    0.037664
  32 H :    0.038087
  33 H :    0.049245
Sum of atomic charges:   -0.0000000

LOEWDIN ATOMIC CHARGES
----------------------
   0 S :    0.434429
   1 C :   -0.195066
   2 C :   -0.055904
   3 C :   -0.058451
   4 C :   -0.219354
   5 H :    0.024961
   6 C :   -0.037210
   7 H :    0.035964
   8 H :    0.025073
   9 C :   -0.034487
  10 H :    0.022222
  11 H :    0.027600
  12 C :   -0.066476
  13 H :    0.029691
  14 H :    0.023203
  15 H :    0.025323
  16 S :    0.428052
  17 C :   -0.206833
  18 C :   -0.078064
  19 C :   -0.058788
  20 C :   -0.197586
  21 H :    0.032466
  22 C :   -0.027354
  23 H :    0.029476
  24 H :    0.023297
  25 C :   -0.035004
  26 H :    0.029739
  27 H :    0.014111
  28 C :   -0.065896
  29 H :    0.027720
  30 H :    0.034065
  31 H :    0.021412
  32 H :    0.018993
  33 H :    0.028678

  Mayer bond orders larger than 0.100000
B(  0-S ,  1-C ) :   1.1499 B(  0-S ,  4-C ) :   1.1657 B(  1-C ,  2-C ) :   1.5890
B(  1-C , 32-H ) :   0.9783 B(  2-C ,  3-C ) :   1.2282 B(  2-C ,  6-C ) :   1.0387
B(  3-C ,  4-C ) :   1.5801 B(  3-C ,  5-H ) :   0.9941 B(  4-C , 20-C ) :   1.0123
B(  6-C ,  7-H ) :   0.9466 B(  6-C ,  8-H ) :   0.9219 B(  6-C ,  9-C ) :   1.0367
B(  9-C , 10-H ) :   0.9659 B(  9-C , 11-H ) :   0.9531 B(  9-C , 12-C ) :   1.0838
B( 12-C , 13-H ) :   0.9725 B( 12-C , 14-H ) :   0.9736 B( 12-C , 15-H ) :   0.9769
B( 16-S , 17-C ) :   1.1891 B( 16-S , 20-C ) :   1.1605 B( 17-C , 18-C ) :   1.5559
B( 17-C , 20-C ) :   0.1197 B( 17-C , 33-H ) :   0.9659 B( 18-C , 19-C ) :   1.3077
B( 18-C , 21-H ) :   0.9891 B( 19-C , 20-C ) :   1.5373 B( 19-C , 22-C ) :   1.0476
B( 22-C , 23-H ) :   0.9347 B( 22-C , 24-H ) :   0.9294 B( 22-C , 25-C ) :   1.0536
B( 25-C , 26-H ) :   0.9570 B( 25-C , 27-H ) :   0.9578 B( 25-C , 28-C ) :   1.0757
B( 28-C , 29-H ) :   0.9732 B( 28-C , 30-H ) :   0.9764 B( 28-C , 31-H ) :   0.9763

Dispersion correction           -0.013589936
FINAL SINGLE POINT ENERGY     -1339.873690507305

DIPOLE MOMENT
-------------
                                X             Y             Z
Electronic contribution:      4.19103     -13.51774     -19.69804
Nuclear contribution   :     -4.08739      13.88426      20.11966
                        -----------------------------------------
Total Dipole Moment    :      0.10364       0.36653       0.42162
                        -----------------------------------------
Magnitude (a.u.)       :      0.56820
Magnitude (Debye)      :      1.44424

Rotational constants in cm-1:     0.019036     0.007603     0.006375
Rotational constants in MHz :   570.697996   227.944484   191.120625

                             ****ORCA TERMINATED NORMALLY****
TOTAL RUN TIME: 0 days 0 hours 0 minutes 32 seconds 757 msec
