                         Program Version 4.2.1 -  RELEASE  -
|  1> ! wB97X-D3 SP def2-SVP
|  2> %pal
|  3> nprocs 16
|  4> end
|  5>
|  6> * xyz 0 1
|  7> S 	 -59.2262 	 52.4809 	 134.569
|  8> C 	 -57.6771 	 53.1614 	 135.015
|  9> C 	 -56.7678 	 52.1739 	 135.234
| 10> C 	 -57.3741 	 50.8552 	 135.375
| 11> C 	 -58.7287 	 50.8899 	 135.181
| 12> H 	 -56.9069 	 49.8742 	 135.442
| 13> C 	 -55.3083 	 52.3862 	 135.277
| 14> H 	 -54.9058 	 51.6894 	 136.044
| 15> H 	 -55.0912 	 53.3968 	 135.639
| 16> C 	 -54.5884 	 52.1391 	 133.931
| 17> H 	 -55.1353 	 52.6579 	 133.089
| 18> H 	 -53.5666 	 52.5627 	 133.846
| 19> C 	 -54.4655 	 50.6322 	 133.568
| 20> H 	 -53.9472 	 50.4718 	 132.665
| 21> H 	 -53.7461 	 50.1491 	 134.229
| 22> H 	 -55.4817 	 50.1687 	 133.587
| 23> S 	 -59.895 	 48.816 	 133.804
| 24> C 	 -60.6581 	 47.4809 	 134.597
| 25> C 	 -60.7652 	 47.7731 	 135.964
| 26> C 	 -60.0971 	 49.0105 	 136.337
| 27> C 	 -59.6188 	 49.7546 	 135.229
| 28> H 	 -61.3716 	 47.0718 	 136.5
| 29> C 	 -60.0115 	 49.4436 	 137.814
| 30> H 	 -59.045 	 49.9397 	 138.041
| 31> H 	 -60.2242 	 48.5844 	 138.438
| 32> C 	 -60.9296 	 50.6833 	 137.951
| 33> H 	 -61.8705 	 50.1932 	 138.116
| 34> H 	 -60.9214 	 51.2937 	 137.127
| 35> C 	 -60.5662 	 51.5673 	 139.11
| 36> H 	 -59.7414 	 52.1823 	 138.852
| 37> H 	 -60.3368 	 50.8971 	 140.017
| 38> H 	 -61.4497 	 52.2654 	 139.304
| 39> H 	 -57.4846 	 54.2147 	 134.804
| 40> H 	 -61.1936 	 46.6802 	 134.094
| 41> *
| 42>
| 43>                          ****END OF INPUT****

CARTESIAN COORDINATES (ANGSTROEM)
---------------------------------
  S    -59.226200   52.480900  134.569000
  C    -57.677100   53.161400  135.015000
  C    -56.767800   52.173900  135.234000
  C    -57.374100   50.855200  135.375000
  C    -58.728700   50.889900  135.181000
  H    -56.906900   49.874200  135.442000
  C    -55.308300   52.386200  135.277000
  H    -54.905800   51.689400  136.044000
  H    -55.091200   53.396800  135.639000
  C    -54.588400   52.139100  133.931000
  H    -55.135300   52.657900  133.089000
  H    -53.566600   52.562700  133.846000
  C    -54.465500   50.632200  133.568000
  H    -53.947200   50.471800  132.665000
  H    -53.746100   50.149100  134.229000
  H    -55.481700   50.168700  133.587000
  S    -59.895000   48.816000  133.804000
  C    -60.658100   47.480900  134.597000
  C    -60.765200   47.773100  135.964000
  C    -60.097100   49.010500  136.337000
  C    -59.618800   49.754600  135.229000
  H    -61.371600   47.071800  136.500000
  C    -60.011500   49.443600  137.814000
  H    -59.045000   49.939700  138.041000
  H    -60.224200   48.584400  138.438000
  C    -60.929600   50.683300  137.951000
  H    -61.870500   50.193200  138.116000
  H    -60.921400   51.293700  137.127000
  C    -60.566200   51.567300  139.110000
  H    -59.741400   52.182300  138.852000
  H    -60.336800   50.897100  140.017000
  H    -61.449700   52.265400  139.304000
  H    -57.484600   54.214700  134.804000
  H    -61.193600   46.680200  134.094000

 Total Charge           Charge          ....    0
 Multiplicity           Mult            ....    1
 Number of Electrons    NEL             ....  134
 Basis Dimension        Dim             ....  322

ORBITAL ENERGIES
----------------

  NO   OCC          E(Eh)            E(eV)
   0   2.0000     -88.964791     -2420.8550
   1   2.0000     -88.963159     -2420.8106
   2   2.0000     -10.331402      -281.1317
   3   2.0000     -10.324250      -280.9371
   4   2.0000     -10.318478      -280.7801
   5   2.0000     -10.316410      -280.7238
   6   2.0000     -10.311349      -280.5861
   7   2.0000     -10.303634      -280.3761
   8   2.0000     -10.299699      -280.2691
   9   2.0000     -10.296882      -280.1924
  10   2.0000     -10.294521      -280.1282
  11   2.0000     -10.294053      -280.1154
  12   2.0000     -10.289453      -279.9902
  13   2.0000     -10.276619      -279.6410
  14   2.0000     -10.276330      -279.6332
  15   2.0000     -10.266855      -279.3753
  16   2.0000      -8.079429      -219.8524
  17   2.0000      -8.078443      -219.8256
  18   2.0000      -6.037990      -164.3021
  19   2.0000      -6.036893      -164.2722
  20   2.0000      -6.034110      -164.1965
  21   2.0000      -6.032575      -164.1547
  22   2.0000      -6.029974      -164.0839
  23   2.0000      -6.029521      -164.0716
  24   2.0000      -1.007820       -27.4242
  25   2.0000      -0.985320       -26.8119
  26   2.0000      -0.911801       -24.8114
  27   2.0000      -0.909960       -24.7613
  28   2.0000      -0.872964       -23.7546
  29   2.0000      -0.845463       -23.0062
  30   2.0000      -0.843357       -22.9489
  31   2.0000      -0.818755       -22.2795
  32   2.0000      -0.780494       -21.2383
  33   2.0000      -0.765596       -20.8329
  34   2.0000      -0.704083       -19.1591
  35   2.0000      -0.700028       -19.0487
  36   2.0000      -0.684877       -18.6364
  37   2.0000      -0.658782       -17.9264
  38   2.0000      -0.649071       -17.6621
  39   2.0000      -0.616460       -16.7747
  40   2.0000      -0.590526       -16.0690
  41   2.0000      -0.577134       -15.7046
  42   2.0000      -0.569821       -15.5056
  43   2.0000      -0.552477       -15.0337
  44   2.0000      -0.541918       -14.7463
  45   2.0000      -0.525023       -14.2866
  46   2.0000      -0.514717       -14.0062
  47   2.0000      -0.513271       -13.9668
  48   2.0000      -0.502591       -13.6762
  49   2.0000      -0.498170       -13.5559
  50   2.0000      -0.491022       -13.3614
  51   2.0000      -0.482054       -13.1173
  52   2.0000      -0.479625       -13.0513
  53   2.0000      -0.464725       -12.6458
  54   2.0000      -0.458577       -12.4785
  55   2.0000      -0.446116       -12.1394
  56   2.0000      -0.438377       -11.9288
  57   2.0000      -0.430830       -11.7235
  58   2.0000      -0.427476       -11.6322
  59   2.0000      -0.423034       -11.5113
  60   2.0000      -0.417078       -11.3493
  61   2.0000      -0.414994       -11.2926
  62   2.0000      -0.403441       -10.9782
  63   2.0000      -0.338362        -9.2073
  64   2.0000      -0.326320        -8.8796
  65   2.0000      -0.319264        -8.6876
  66   2.0000      -0.308308        -8.3895
  67   0.0000       0.037378         1.0171
  68   0.0000       0.049620         1.3502
  69   0.0000       0.105051         2.8586
  70   0.0000       0.123661         3.3650
  71   0.0000       0.130344         3.5469

MULLIKEN ATOMIC CHARGES
-----------------------
   0 S :    0.097700
   1 C :   -0.115602
   2 C :   -0.096858
   3 C :    0.054994
   4 C :   -0.185042
   5 H :    0.033349
   6 C :    0.074985
   7 H :    0.030039
   8 H :    0.024581
   9 C :   -0.090956
  10 H :    0.034546
  11 H :    0.034108
  12 C :   -0.055417
  13 H :    0.020750
  14 H :    0.022203
  15 H :    0.054465
  16 S :    0.110727
  17 C :   -0.110800
  18 C :   -0.040844
  19 C :   -0.044557
  20 C :   -0.162739
  21 H :    0.017218
  22 C :    0.077196
  23 H :    0.022617
  24 H :    0.030013
  25 C :   -0.037246
  26 H :    0.016461
  27 H :    0.015694
  28 C :   -0.075000
  29 H :    0.036755
  30 H :    0.039231
  31 H :    0.043443
  32 H :    0.057217
  33 H :    0.066769
Sum of atomic charges:    0.0000000

LOEWDIN ATOMIC CHARGES
----------------------
   0 S :    0.387201
   1 C :   -0.188687
   2 C :   -0.064686
   3 C :   -0.053145
   4 C :   -0.189353
   5 H :    0.039293
   6 C :   -0.036781
   7 H :    0.033880
   8 H :    0.032732
   9 C :   -0.043404
  10 H :    0.027789
  11 H :    0.026028
  12 C :   -0.070382
  13 H :    0.020880
  14 H :    0.024315
  15 H :    0.032163
  16 S :    0.428821
  17 C :   -0.196684
  18 C :   -0.079183
  19 C :   -0.040478
  20 C :   -0.228642
  21 H :    0.029213
  22 C :   -0.028976
  23 H :    0.032362
  24 H :    0.028650
  25 C :   -0.033644
  26 H :    0.020217
  27 H :    0.010227
  28 C :   -0.069544
  29 H :    0.019339
  30 H :    0.030708
  31 H :    0.035316
  32 H :    0.030945
  33 H :    0.033507

  Mayer bond orders larger than 0.100000
B(  0-S ,  1-C ) :   1.1276 B(  0-S ,  4-C ) :   1.1370 B(  1-C ,  2-C ) :   1.6366
B(  1-C , 32-H ) :   0.9693 B(  2-C ,  3-C ) :   1.1878 B(  2-C ,  6-C ) :   1.0406
B(  3-C ,  4-C ) :   1.6162 B(  3-C ,  5-H ) :   0.9911 B(  4-C , 20-C ) :   1.0128
B(  6-C ,  7-H ) :   0.9406 B(  6-C ,  8-H ) :   0.9371 B(  6-C ,  9-C ) :   1.0521
B(  9-C , 10-H ) :   0.9569 B(  9-C , 11-H ) :   0.9582 B(  9-C , 12-C ) :   1.0810
B( 12-C , 13-H ) :   0.9699 B( 12-C , 14-H ) :   0.9726 B( 12-C , 15-H ) :   0.9716
B( 16-S , 17-C ) :   1.1853 B( 16-S , 20-C ) :   1.1576 B( 17-C , 18-C ) :   1.5796
B( 17-C , 20-C ) :   0.1086 B( 17-C , 33-H ) :   0.9646 B( 18-C , 19-C ) :   1.2550
B( 18-C , 21-H ) :   0.9949 B( 19-C , 20-C ) :   1.5569 B( 19-C , 22-C ) :   1.0536
B( 22-C , 23-H ) :   0.9350 B( 22-C , 24-H ) :   0.9382 B( 22-C , 25-C ) :   1.0451
B( 25-C , 26-H ) :   0.9533 B( 25-C , 27-H ) :   0.9609 B( 25-C , 28-C ) :   1.0910
B( 28-C , 29-H ) :   0.9735 B( 28-C , 30-H ) :   0.9724 B( 28-C , 31-H ) :   0.9708

Dispersion correction           -0.015117939
FINAL SINGLE POINT ENERGY     -1339.861918485265

DIPOLE MOMENT
-------------
                                X             Y             Z
Electronic contribution:    -12.30550      -3.27933     -12.12075
Nuclear contribution   :     12.67598       3.19120      12.27424
                        -----------------------------------------
Total Dipole Moment    :      0.37049      -0.08813       0.15349
                        -----------------------------------------
Magnitude (a.u.)       :      0.41059
Magnitude (Debye)      :      1.04365

Rotational constants in cm-1:     0.018461     0.009377     0.007600
Rotational constants in MHz :   553.439024   281.121679   227.845352

                             ****ORCA TERMINATED NORMALLY****
TOTAL RUN TIME: 0 days 0 hours 0 minutes 35 seconds 398 msec
