                         Program Version 4.2.1 -  RELEASE  -
|  1> ! wB97X-D3 SP def2-SVP
|  2> %pal
|  3> nprocs 16
|  4> end
|  5>
|  6> * xyz 0 1
|  7> S 	 -88.471 	 44.2665 	 112.074
|  8> C 	 -87.8242 	 44.8391 	 113.562
|  9> C 	 -88.7913 	 45.5472 	 114.326
| 10> C 	 -90.0592 	 45.523 	 113.697
| 11> C 	 -90.0484 	 44.8142 	 112.56
| 12> H 	 -90.9816 	 46.006 	 114.101
| 13> C 	 -88.5843 	 46.3664 	 115.563
| 14> H 	 -89.4886 	 46.8135 	 115.952
| 15> H 	 -87.8992 	 47.1391 	 115.198
| 16> C 	 -87.8535 	 45.4545 	 116.565
| 17> H 	 -86.8538 	 45.1777 	 116.203
| 18> H 	 -87.6325 	 46.0072 	 117.507
| 19> C 	 -88.6131 	 44.1767 	 116.995
| 20> H 	 -88.0076 	 43.3877 	 117.457
| 21> H 	 -89.4254 	 44.4597 	 117.725
| 22> H 	 -89.0741 	 43.6807 	 116.183
| 23> S 	 -91.3297 	 44.4279 	 110.104
| 24> C 	 -93.0743 	 44.3067 	 110.099
| 25> C 	 -93.5531 	 44.1422 	 111.377
| 26> C 	 -92.5572 	 44.0465 	 112.423
| 27> C 	 -91.2965 	 44.3009 	 111.926
| 28> H 	 -94.6679 	 44.1373 	 111.441
| 29> C 	 -92.928 	 43.9246 	 113.888
| 30> H 	 -93.4384 	 44.899 	 114.282
| 31> H 	 -91.8983 	 43.7336 	 114.387
| 32> C 	 -93.7806 	 42.8054 	 114.344
| 33> H 	 -93.108 	 41.9471 	 114.314
| 34> H 	 -94.5438 	 42.6091 	 113.56
| 35> C 	 -94.2879 	 42.8647 	 115.78
| 36> H 	 -93.5366 	 43.3033 	 116.461
| 37> H 	 -94.4307 	 41.9293 	 116.324
| 38> H 	 -95.1858 	 43.4888 	 115.909
| 39> H 	 -86.7666 	 44.8542 	 113.84
| 40> H 	 -93.7245 	 44.3939 	 109.231
| 41> *
| 42>
| 43>                          ****END OF INPUT****

CARTESIAN COORDINATES (ANGSTROEM)
---------------------------------
  S    -88.471000   44.266500  112.074000
  C    -87.824200   44.839100  113.562000
  C    -88.791300   45.547200  114.326000
  C    -90.059200   45.523000  113.697000
  C    -90.048400   44.814200  112.560000
  H    -90.981600   46.006000  114.101000
  C    -88.584300   46.366400  115.563000
  H    -89.488600   46.813500  115.952000
  H    -87.899200   47.139100  115.198000
  C    -87.853500   45.454500  116.565000
  H    -86.853800   45.177700  116.203000
  H    -87.632500   46.007200  117.507000
  C    -88.613100   44.176700  116.995000
  H    -88.007600   43.387700  117.457000
  H    -89.425400   44.459700  117.725000
  H    -89.074100   43.680700  116.183000
  S    -91.329700   44.427900  110.104000
  C    -93.074300   44.306700  110.099000
  C    -93.553100   44.142200  111.377000
  C    -92.557200   44.046500  112.423000
  C    -91.296500   44.300900  111.926000
  H    -94.667900   44.137300  111.441000
  C    -92.928000   43.924600  113.888000
  H    -93.438400   44.899000  114.282000
  H    -91.898300   43.733600  114.387000
  C    -93.780600   42.805400  114.344000
  H    -93.108000   41.947100  114.314000
  H    -94.543800   42.609100  113.560000
  C    -94.287900   42.864700  115.780000
  H    -93.536600   43.303300  116.461000
  H    -94.430700   41.929300  116.324000
  H    -95.185800   43.488800  115.909000
  H    -86.766600   44.854200  113.840000
  H    -93.724500   44.393900  109.231000

 Total Charge           Charge          ....    0
 Multiplicity           Mult            ....    1
 Number of Electrons    NEL             ....  134
 Basis Dimension        Dim             ....  322

ORBITAL ENERGIES
----------------

  NO   OCC          E(Eh)            E(eV)
   0   2.0000     -88.970095     -2420.9994
   1   2.0000     -88.960238     -2420.7311
   2   2.0000     -10.334184      -281.2074
   3   2.0000     -10.325277      -280.9651
   4   2.0000     -10.318344      -280.7764
   5   2.0000     -10.316309      -280.7210
   6   2.0000     -10.310432      -280.5611
   7   2.0000     -10.302979      -280.3583
   8   2.0000     -10.301174      -280.3092
   9   2.0000     -10.297680      -280.2141
  10   2.0000     -10.294545      -280.1288
  11   2.0000     -10.292304      -280.0678
  12   2.0000     -10.290159      -280.0095
  13   2.0000     -10.285313      -279.8776
  14   2.0000     -10.282803      -279.8093
  15   2.0000     -10.276350      -279.6337
  16   2.0000      -8.085355      -220.0137
  17   2.0000      -8.074498      -219.7183
  18   2.0000      -6.043844      -164.4613
  19   2.0000      -6.039848      -164.3526
  20   2.0000      -6.036066      -164.2497
  21   2.0000      -6.033112      -164.1693
  22   2.0000      -6.029208      -164.0631
  23   2.0000      -6.025046      -163.9498
  24   2.0000      -1.008968       -27.4554
  25   2.0000      -0.982166       -26.7261
  26   2.0000      -0.915556       -24.9135
  27   2.0000      -0.913700       -24.8630
  28   2.0000      -0.866984       -23.5918
  29   2.0000      -0.851069       -23.1588
  30   2.0000      -0.845371       -23.0037
  31   2.0000      -0.812103       -22.0984
  32   2.0000      -0.783859       -21.3299
  33   2.0000      -0.773893       -21.0587
  34   2.0000      -0.707310       -19.2469
  35   2.0000      -0.699540       -19.0354
  36   2.0000      -0.688406       -18.7325
  37   2.0000      -0.653970       -17.7954
  38   2.0000      -0.637059       -17.3353
  39   2.0000      -0.614803       -16.7296
  40   2.0000      -0.593358       -16.1461
  41   2.0000      -0.575241       -15.6531
  42   2.0000      -0.570079       -15.5126
  43   2.0000      -0.555248       -15.1091
  44   2.0000      -0.538824       -14.6621
  45   2.0000      -0.520262       -14.1571
  46   2.0000      -0.515712       -14.0332
  47   2.0000      -0.507060       -13.7978
  48   2.0000      -0.504280       -13.7222
  49   2.0000      -0.498666       -13.5694
  50   2.0000      -0.492185       -13.3930
  51   2.0000      -0.480030       -13.0623
  52   2.0000      -0.469848       -12.7852
  53   2.0000      -0.463622       -12.6158
  54   2.0000      -0.458979       -12.4895
  55   2.0000      -0.450960       -12.2712
  56   2.0000      -0.445200       -12.1145
  57   2.0000      -0.442488       -12.0407
  58   2.0000      -0.425271       -11.5722
  59   2.0000      -0.421421       -11.4674
  60   2.0000      -0.419243       -11.4082
  61   2.0000      -0.411835       -11.2066
  62   2.0000      -0.407848       -11.0981
  63   2.0000      -0.350467        -9.5367
  64   2.0000      -0.333027        -9.0621
  65   2.0000      -0.329330        -8.9615
  66   2.0000      -0.286661        -7.8004
  67   0.0000       0.025633         0.6975
  68   0.0000       0.069775         1.8987
  69   0.0000       0.101071         2.7503
  70   0.0000       0.118172         3.2156
  71   0.0000       0.127312         3.4643

MULLIKEN ATOMIC CHARGES
-----------------------
   0 S :    0.131411
   1 C :   -0.124318
   2 C :   -0.146232
   3 C :   -0.028830
   4 C :   -0.095554
   5 H :    0.037443
   6 C :    0.119397
   7 H :    0.023814
   8 H :    0.047958
   9 C :   -0.105129
  10 H :    0.026177
  11 H :    0.029518
  12 C :   -0.054999
  13 H :    0.035515
  14 H :    0.032465
  15 H :    0.033102
  16 S :    0.068369
  17 C :   -0.088599
  18 C :   -0.064039
  19 C :   -0.022019
  20 C :   -0.126320
  21 H :    0.036455
  22 C :   -0.037500
  23 H :    0.052794
  24 H :    0.058187
  25 C :   -0.047725
  26 H :    0.022524
  27 H :    0.031421
  28 C :   -0.052568
  29 H :    0.019909
  30 H :    0.036311
  31 H :    0.037430
  32 H :    0.052263
  33 H :    0.061366
Sum of atomic charges:   -0.0000000

LOEWDIN ATOMIC CHARGES
----------------------
   0 S :    0.426706
   1 C :   -0.217678
   2 C :   -0.057600
   3 C :   -0.070057
   4 C :   -0.199178
   5 H :    0.044134
   6 C :   -0.026592
   7 H :    0.028668
   8 H :    0.043378
   9 C :   -0.043696
  10 H :    0.021648
  11 H :    0.024261
  12 C :   -0.069917
  13 H :    0.029458
  14 H :    0.029249
  15 H :    0.017085
  16 S :    0.357932
  17 C :   -0.181359
  18 C :   -0.081490
  19 C :   -0.061547
  20 C :   -0.160435
  21 H :    0.038177
  22 C :   -0.048741
  23 H :    0.037289
  24 H :    0.044416
  25 C :   -0.053313
  26 H :    0.028425
  27 H :    0.024986
  28 C :   -0.072432
  29 H :    0.029044
  30 H :    0.030773
  31 H :    0.026446
  32 H :    0.028246
  33 H :    0.033715

  Mayer bond orders larger than 0.100000
B(  0-S ,  1-C ) :   1.1481 B(  0-S ,  4-C ) :   1.1550 B(  1-C ,  2-C ) :   1.5789
B(  1-C , 32-H ) :   0.9655 B(  2-C ,  3-C ) :   1.2553 B(  2-C ,  6-C ) :   1.0070
B(  3-C ,  4-C ) :   1.5749 B(  3-C ,  5-H ) :   0.9917 B(  4-C , 20-C ) :   0.9932
B(  6-C ,  7-H ) :   0.9496 B(  6-C ,  8-H ) :   0.9316 B(  6-C ,  9-C ) :   1.0710
B(  9-C , 10-H ) :   0.9558 B(  9-C , 11-H ) :   0.9591 B(  9-C , 12-C ) :   1.0674
B( 12-C , 13-H ) :   0.9741 B( 12-C , 14-H ) :   0.9764 B( 12-C , 15-H ) :   0.9741
B( 16-S , 17-C ) :   1.1371 B( 16-S , 20-C ) :   1.1097 B( 17-C , 18-C ) :   1.6671
B( 17-C , 33-H ) :   0.9645 B( 18-C , 19-C ) :   1.1819 B( 18-C , 21-H ) :   0.9813
B( 19-C , 20-C ) :   1.6490 B( 19-C , 22-C ) :   1.0318 B( 22-C , 23-H ) :   0.9370
B( 22-C , 24-H ) :   0.9352 B( 22-C , 25-C ) :   1.0607 B( 25-C , 26-H ) :   0.9501
B( 25-C , 27-H ) :   0.9576 B( 25-C , 28-C ) :   1.0766 B( 28-C , 29-H ) :   0.9683
B( 28-C , 30-H ) :   0.9757 B( 28-C , 31-H ) :   0.9741

Dispersion correction           -0.014438370
FINAL SINGLE POINT ENERGY     -1339.864676504154

DIPOLE MOMENT
-------------
                                X             Y             Z
Electronic contribution:      7.45593       2.29402     -30.10619
Nuclear contribution   :     -7.72466      -2.06305      30.78246
                        -----------------------------------------
Total Dipole Moment    :     -0.26873       0.23097       0.67627
                        -----------------------------------------
Magnitude (a.u.)       :      0.76348
Magnitude (Debye)      :      1.94061

Rotational constants in cm-1:     0.016703     0.009980     0.006756
Rotational constants in MHz :   500.729142   299.205368   202.526046

                             ****ORCA TERMINATED NORMALLY****
TOTAL RUN TIME: 0 days 0 hours 0 minutes 34 seconds 579 msec
