                         Program Version 4.2.1 -  RELEASE  -
|  1> ! wB97X-D3 SP def2-SVP
|  2> %pal
|  3> nprocs 16
|  4> end
|  5>
|  6> * xyz 0 1
|  7> S 	 49.6188 	 5.4204 	 89.3285
|  8> C 	 51.2085 	 5.59103 	 88.6371
|  9> C 	 52.1337 	 5.17774 	 89.5466
| 10> C 	 51.5848 	 4.55785 	 90.7049
| 11> C 	 50.2076 	 4.47468 	 90.7011
| 12> H 	 52.2209 	 4.09201 	 91.488
| 13> C 	 53.625 	 5.40807 	 89.377
| 14> H 	 54.1522 	 5.44759 	 90.3114
| 15> H 	 53.6824 	 6.36035 	 88.8529
| 16> C 	 54.1039 	 4.33096 	 88.4256
| 17> H 	 54.0227 	 3.43879 	 89.0163
| 18> H 	 53.5406 	 4.21109 	 87.5546
| 19> C 	 55.5144 	 4.56397 	 88.0276
| 20> H 	 55.9898 	 3.50876 	 87.914
| 21> H 	 55.3952 	 5.0444 	 87.0831
| 22> H 	 56.0059 	 5.17654 	 88.7872
| 23> S 	 47.8246 	 4.53517 	 91.9177
| 24> C 	 47.2984 	 3.15734 	 92.8383
| 25> C 	 48.2336 	 2.14394 	 92.8825
| 26> C 	 49.4734 	 2.51489 	 92.2587
| 27> C 	 49.3409 	 3.7556 	 91.6155
| 28> H 	 48.162 	 1.27398 	 93.5063
| 29> C 	 50.6121 	 1.47226 	 92.1494
| 30> H 	 50.5114 	 0.918799 	 93.0344
| 31> H 	 51.534 	 1.96309 	 92.3282
| 32> C 	 50.4026 	 0.507627 	 91.0185
| 33> H 	 49.5218 	 -0.193994 	 91.1619
| 34> H 	 51.2547 	 -0.194022 	 90.9318
| 35> C 	 50.226 	 1.28927 	 89.6764
| 36> H 	 50.9006 	 2.05382 	 89.5711
| 37> H 	 49.1448 	 1.65077 	 89.5473
| 38> H 	 50.4741 	 0.80491 	 88.7401
| 39> H 	 51.4109 	 6.29126 	 87.8164
| 40> H 	 46.3247 	 2.95108 	 93.1
| 41> *
| 42>
| 43>                          ****END OF INPUT****

CARTESIAN COORDINATES (ANGSTROEM)
---------------------------------
  S     49.618800    5.420400   89.328500
  C     51.208500    5.591030   88.637100
  C     52.133700    5.177740   89.546600
  C     51.584800    4.557850   90.704900
  C     50.207600    4.474680   90.701100
  H     52.220900    4.092010   91.488000
  C     53.625000    5.408070   89.377000
  H     54.152200    5.447590   90.311400
  H     53.682400    6.360350   88.852900
  C     54.103900    4.330960   88.425600
  H     54.022700    3.438790   89.016300
  H     53.540600    4.211090   87.554600
  C     55.514400    4.563970   88.027600
  H     55.989800    3.508760   87.914000
  H     55.395200    5.044400   87.083100
  H     56.005900    5.176540   88.787200
  S     47.824600    4.535170   91.917700
  C     47.298400    3.157340   92.838300
  C     48.233600    2.143940   92.882500
  C     49.473400    2.514890   92.258700
  C     49.340900    3.755600   91.615500
  H     48.162000    1.273980   93.506300
  C     50.612100    1.472260   92.149400
  H     50.511400    0.918799   93.034400
  H     51.534000    1.963090   92.328200
  C     50.402600    0.507627   91.018500
  H     49.521800   -0.193994   91.161900
  H     51.254700   -0.194022   90.931800
  C     50.226000    1.289270   89.676400
  H     50.900600    2.053820   89.571100
  H     49.144800    1.650770   89.547300
  H     50.474100    0.804910   88.740100
  H     51.410900    6.291260   87.816400
  H     46.324700    2.951080   93.100000

 Total Charge           Charge          ....    0
 Multiplicity           Mult            ....    1
 Number of Electrons    NEL             ....  134
 Basis Dimension        Dim             ....  322

ORBITAL ENERGIES
----------------

  NO   OCC          E(Eh)            E(eV)
   0   2.0000     -88.968305     -2420.9507
   1   2.0000     -88.962111     -2420.7821
   2   2.0000     -10.329683      -281.0850
   3   2.0000     -10.326752      -281.0052
   4   2.0000     -10.310227      -280.5556
   5   2.0000     -10.309227      -280.5283
   6   2.0000     -10.304881      -280.4101
   7   2.0000     -10.295552      -280.1562
   8   2.0000     -10.294368      -280.1240
   9   2.0000     -10.292842      -280.0825
  10   2.0000     -10.292497      -280.0731
  11   2.0000     -10.287864      -279.9470
  12   2.0000     -10.287181      -279.9284
  13   2.0000     -10.276619      -279.6410
  14   2.0000     -10.270330      -279.4699
  15   2.0000     -10.264797      -279.3193
  16   2.0000      -8.083574      -219.9652
  17   2.0000      -8.076783      -219.7804
  18   2.0000      -6.041985      -164.4108
  19   2.0000      -6.038036      -164.3033
  20   2.0000      -6.035413      -164.2319
  21   2.0000      -6.034394      -164.2042
  22   2.0000      -6.031328      -164.1208
  23   2.0000      -6.027376      -164.0132
  24   2.0000      -1.009013       -27.4566
  25   2.0000      -0.986653       -26.8482
  26   2.0000      -0.924284       -25.1511
  27   2.0000      -0.912026       -24.8175
  28   2.0000      -0.873723       -23.7752
  29   2.0000      -0.847546       -23.0629
  30   2.0000      -0.842520       -22.9261
  31   2.0000      -0.814664       -22.1681
  32   2.0000      -0.786158       -21.3924
  33   2.0000      -0.770129       -20.9563
  34   2.0000      -0.707572       -19.2540
  35   2.0000      -0.697834       -18.9890
  36   2.0000      -0.694369       -18.8947
  37   2.0000      -0.667368       -18.1600
  38   2.0000      -0.637520       -17.3478
  39   2.0000      -0.621203       -16.9038
  40   2.0000      -0.596893       -16.2423
  41   2.0000      -0.586545       -15.9607
  42   2.0000      -0.557482       -15.1699
  43   2.0000      -0.548606       -14.9283
  44   2.0000      -0.543026       -14.7765
  45   2.0000      -0.531116       -14.4524
  46   2.0000      -0.518621       -14.1124
  47   2.0000      -0.511469       -13.9178
  48   2.0000      -0.505623       -13.7587
  49   2.0000      -0.499099       -13.5812
  50   2.0000      -0.493427       -13.4268
  51   2.0000      -0.477050       -12.9812
  52   2.0000      -0.469351       -12.7717
  53   2.0000      -0.464517       -12.6402
  54   2.0000      -0.462122       -12.5750
  55   2.0000      -0.450258       -12.2521
  56   2.0000      -0.446609       -12.1528
  57   2.0000      -0.434657       -11.8276
  58   2.0000      -0.428848       -11.6695
  59   2.0000      -0.419000       -11.4016
  60   2.0000      -0.415224       -11.2988
  61   2.0000      -0.409883       -11.1535
  62   2.0000      -0.409737       -11.1495
  63   2.0000      -0.352034        -9.5793
  64   2.0000      -0.336161        -9.1474
  65   2.0000      -0.324699        -8.8355
  66   2.0000      -0.285261        -7.7623
  67   0.0000       0.021196         0.5768
  68   0.0000       0.076549         2.0830
  69   0.0000       0.101498         2.7619
  70   0.0000       0.125093         3.4040
  71   0.0000       0.133323         3.6279

MULLIKEN ATOMIC CHARGES
-----------------------
   0 S :    0.096441
   1 C :   -0.127047
   2 C :   -0.123784
   3 C :    0.011601
   4 C :   -0.122208
   5 H :    0.018225
   6 C :    0.078232
   7 H :    0.027728
   8 H :    0.015979
   9 C :   -0.074366
  10 H :    0.011435
  11 H :    0.018849
  12 C :   -0.024399
  13 H :    0.045400
  14 H :    0.030279
  15 H :    0.035278
  16 S :    0.112763
  17 C :   -0.039796
  18 C :   -0.045735
  19 C :   -0.102609
  20 C :   -0.157839
  21 H :    0.018662
  22 C :    0.156353
  23 H :   -0.007797
  24 H :    0.011647
  25 C :   -0.067462
  26 H :    0.040897
  27 H :    0.032638
  28 C :   -0.040663
  29 H :    0.010526
  30 H :    0.057534
  31 H :    0.014477
  32 H :    0.058695
  33 H :    0.030067
Sum of atomic charges:   -0.0000000

LOEWDIN ATOMIC CHARGES
----------------------
   0 S :    0.394394
   1 C :   -0.211350
   2 C :   -0.060189
   3 C :   -0.077064
   4 C :   -0.183765
   5 H :    0.033214
   6 C :   -0.023372
   7 H :    0.027709
   8 H :    0.026656
   9 C :   -0.039900
  10 H :    0.017866
  11 H :    0.017246
  12 C :   -0.064992
  13 H :    0.039302
  14 H :    0.023551
  15 H :    0.024057
  16 S :    0.423592
  17 C :   -0.179249
  18 C :   -0.063759
  19 C :   -0.050167
  20 C :   -0.199746
  21 H :    0.029995
  22 C :   -0.026517
  23 H :    0.026159
  24 H :    0.024799
  25 C :   -0.038380
  26 H :    0.032988
  27 H :    0.026652
  28 C :   -0.072376
  29 H :    0.012887
  30 H :    0.039532
  31 H :    0.023749
  32 H :    0.033177
  33 H :    0.013299

  Mayer bond orders larger than 0.100000
B(  0-S ,  1-C ) :   1.1257 B(  0-S ,  4-C ) :   1.1542 B(  1-C ,  2-C ) :   1.6126
B(  1-C ,  4-C ) :   0.1006 B(  1-C , 32-H ) :   0.9620 B(  2-C ,  3-C ) :   1.2643
B(  2-C ,  6-C ) :   1.0177 B(  3-C ,  4-C ) :   1.5466 B(  3-C ,  5-H ) :   0.9919
B(  4-C , 20-C ) :   1.0675 B(  6-C ,  7-H ) :   0.9410 B(  6-C ,  8-H ) :   0.9376
B(  6-C ,  9-C ) :   1.0717 B(  9-C , 10-H ) :   0.9540 B(  9-C , 11-H ) :   0.9643
B(  9-C , 12-C ) :   1.0675 B( 12-C , 13-H ) :   0.9745 B( 12-C , 14-H ) :   0.9808
B( 12-C , 15-H ) :   0.9723 B( 16-S , 17-C ) :   1.1512 B( 16-S , 20-C ) :   1.1556
B( 17-C , 18-C ) :   1.6166 B( 17-C , 33-H ) :   0.9698 B( 18-C , 19-C ) :   1.2569
B( 18-C , 21-H ) :   0.9829 B( 19-C , 20-C ) :   1.5730 B( 19-C , 22-C ) :   1.0314
B( 22-C , 23-H ) :   0.9125 B( 22-C , 24-H ) :   0.9355 B( 22-C , 25-C ) :   1.0723
B( 25-C , 26-H ) :   0.9558 B( 25-C , 27-H ) :   0.9556 B( 25-C , 28-C ) :   1.0682
B( 28-C , 29-H ) :   0.9734 B( 28-C , 30-H ) :   0.9707 B( 28-C , 31-H ) :   0.9693

Dispersion correction           -0.015836327
FINAL SINGLE POINT ENERGY     -1339.850746798859

DIPOLE MOMENT
-------------
                                X             Y             Z
Electronic contribution:    -23.60742      13.14206       8.49123
Nuclear contribution   :     24.12124     -13.54761      -8.41656
                        -----------------------------------------
Total Dipole Moment    :      0.51382      -0.40554       0.07467
                        -----------------------------------------
Magnitude (a.u.)       :      0.65883
Magnitude (Debye)      :      1.67461

Rotational constants in cm-1:     0.023321     0.008814     0.007137
Rotational constants in MHz :   699.150063   264.231289   213.971449

                             ****ORCA TERMINATED NORMALLY****
TOTAL RUN TIME: 0 days 0 hours 0 minutes 33 seconds 36 msec
