                         Program Version 4.2.1 -  RELEASE  -
|  1> ! wB97X-D3 SP def2-SVP
|  2> %pal
|  3> nprocs 16
|  4> end
|  5>
|  6> * xyz 0 1
|  7> S 	 13.3751 	 -12.6152 	 95.3419
|  8> C 	 13.948 	 -10.9601 	 95.4303
|  9> C 	 13.0783 	 -10.1716 	 94.7754
| 10> C 	 11.9884 	 -10.8246 	 94.1668
| 11> C 	 11.9776 	 -12.2201 	 94.3637
| 12> H 	 11.1507 	 -10.4074 	 93.5272
| 13> C 	 13.214 	 -8.62531 	 94.6909
| 14> H 	 13.3634 	 -8.29585 	 93.6346
| 15> H 	 14.158 	 -8.42282 	 95.214
| 16> C 	 12.0789 	 -7.9167 	 95.4034
| 17> H 	 12.0493 	 -6.83008 	 95.2154
| 18> H 	 11.1865 	 -8.31741 	 95.0156
| 19> C 	 12.164 	 -8.06564 	 96.9398
| 20> H 	 12.5381 	 -9.06764 	 97.2168
| 21> H 	 12.8352 	 -7.38134 	 97.4968
| 22> H 	 11.1802 	 -7.94923 	 97.4098
| 23> S 	 11.4341 	 -14.9226 	 94.2477
| 24> C 	 9.86956 	 -15.455 	 93.6893
| 25> C 	 8.98322 	 -14.4066 	 93.3625
| 26> C 	 9.63973 	 -13.1405 	 93.5036
| 27> C 	 10.9386 	 -13.22 	 94
| 28> H 	 7.96579 	 -14.5489 	 92.9725
| 29> C 	 8.78969 	 -11.9485 	 93.117
| 30> H 	 7.8081 	 -12.2562 	 92.7979
| 31> H 	 9.2078 	 -11.4476 	 92.2505
| 32> C 	 8.45971 	 -10.9397 	 94.2526
| 33> H 	 9.30619 	 -10.3311 	 94.4663
| 34> H 	 8.2184 	 -11.5621 	 95.1368
| 35> C 	 7.18224 	 -10.0717 	 94.0063
| 36> H 	 6.23121 	 -10.5863 	 93.9338
| 37> H 	 7.2867 	 -9.57626 	 93.0255
| 38> H 	 7.11184 	 -9.31426 	 94.7795
| 39> H 	 14.8907 	 -10.7255 	 95.8743
| 40> H 	 9.65398 	 -16.5227 	 93.4941
| 41> *
| 42>
| 43>                          ****END OF INPUT****

CARTESIAN COORDINATES (ANGSTROEM)
---------------------------------
  S     13.375100  -12.615200   95.341900
  C     13.948000  -10.960100   95.430300
  C     13.078300  -10.171600   94.775400
  C     11.988400  -10.824600   94.166800
  C     11.977600  -12.220100   94.363700
  H     11.150700  -10.407400   93.527200
  C     13.214000   -8.625310   94.690900
  H     13.363400   -8.295850   93.634600
  H     14.158000   -8.422820   95.214000
  C     12.078900   -7.916700   95.403400
  H     12.049300   -6.830080   95.215400
  H     11.186500   -8.317410   95.015600
  C     12.164000   -8.065640   96.939800
  H     12.538100   -9.067640   97.216800
  H     12.835200   -7.381340   97.496800
  H     11.180200   -7.949230   97.409800
  S     11.434100  -14.922600   94.247700
  C      9.869560  -15.455000   93.689300
  C      8.983220  -14.406600   93.362500
  C      9.639730  -13.140500   93.503600
  C     10.938600  -13.220000   94.000000
  H      7.965790  -14.548900   92.972500
  C      8.789690  -11.948500   93.117000
  H      7.808100  -12.256200   92.797900
  H      9.207800  -11.447600   92.250500
  C      8.459710  -10.939700   94.252600
  H      9.306190  -10.331100   94.466300
  H      8.218400  -11.562100   95.136800
  C      7.182240  -10.071700   94.006300
  H      6.231210  -10.586300   93.933800
  H      7.286700   -9.576260   93.025500
  H      7.111840   -9.314260   94.779500
  H     14.890700  -10.725500   95.874300
  H      9.653980  -16.522700   93.494100

 Total Charge           Charge          ....    0
 Multiplicity           Mult            ....    1
 Number of Electrons    NEL             ....  134
 Basis Dimension        Dim             ....  322

ORBITAL ENERGIES
----------------

  NO   OCC          E(Eh)            E(eV)
   0   2.0000     -88.971496     -2421.0375
   1   2.0000     -88.963907     -2420.8310
   2   2.0000     -10.338110      -281.3143
   3   2.0000     -10.337829      -281.3066
   4   2.0000     -10.326532      -280.9992
   5   2.0000     -10.312212      -280.6096
   6   2.0000     -10.310332      -280.5584
   7   2.0000     -10.302357      -280.3414
   8   2.0000     -10.299508      -280.2639
   9   2.0000     -10.297933      -280.2210
  10   2.0000     -10.294357      -280.1237
  11   2.0000     -10.293893      -280.1111
  12   2.0000     -10.288184      -279.9557
  13   2.0000     -10.284323      -279.8507
  14   2.0000     -10.282281      -279.7951
  15   2.0000     -10.276919      -279.6492
  16   2.0000      -8.085652      -220.0218
  17   2.0000      -8.078773      -219.8346
  18   2.0000      -6.044181      -164.4705
  19   2.0000      -6.040295      -164.3648
  20   2.0000      -6.037343      -164.2845
  21   2.0000      -6.036385      -164.2584
  22   2.0000      -6.033214      -164.1721
  23   2.0000      -6.029505      -164.0712
  24   2.0000      -1.006174       -27.3794
  25   2.0000      -0.985123       -26.8066
  26   2.0000      -0.911318       -24.7982
  27   2.0000      -0.907690       -24.6995
  28   2.0000      -0.866901       -23.5896
  29   2.0000      -0.853233       -23.2177
  30   2.0000      -0.839014       -22.8307
  31   2.0000      -0.811174       -22.0732
  32   2.0000      -0.782858       -21.3026
  33   2.0000      -0.773690       -21.0532
  34   2.0000      -0.710437       -19.3320
  35   2.0000      -0.702433       -19.1142
  36   2.0000      -0.688395       -18.7322
  37   2.0000      -0.666316       -18.1314
  38   2.0000      -0.641769       -17.4634
  39   2.0000      -0.619101       -16.8466
  40   2.0000      -0.597307       -16.2535
  41   2.0000      -0.569772       -15.5043
  42   2.0000      -0.565506       -15.3882
  43   2.0000      -0.550320       -14.9750
  44   2.0000      -0.534653       -14.5486
  45   2.0000      -0.522311       -14.2128
  46   2.0000      -0.517192       -14.0735
  47   2.0000      -0.513925       -13.9846
  48   2.0000      -0.509270       -13.8579
  49   2.0000      -0.496324       -13.5056
  50   2.0000      -0.489474       -13.3193
  51   2.0000      -0.484899       -13.1948
  52   2.0000      -0.475306       -12.9337
  53   2.0000      -0.463321       -12.6076
  54   2.0000      -0.458336       -12.4719
  55   2.0000      -0.449940       -12.2435
  56   2.0000      -0.440492       -11.9864
  57   2.0000      -0.434706       -11.8290
  58   2.0000      -0.431844       -11.7511
  59   2.0000      -0.426444       -11.6041
  60   2.0000      -0.422819       -11.5055
  61   2.0000      -0.415057       -11.2943
  62   2.0000      -0.405396       -11.0314
  63   2.0000      -0.363183        -9.8827
  64   2.0000      -0.339113        -9.2277
  65   2.0000      -0.330414        -8.9910
  66   2.0000      -0.283376        -7.7111
  67   0.0000       0.015509         0.4220
  68   0.0000       0.081883         2.2282
  69   0.0000       0.092476         2.5164
  70   0.0000       0.123465         3.3597
  71   0.0000       0.129604         3.5267

MULLIKEN ATOMIC CHARGES
-----------------------
   0 S :    0.079296
   1 C :   -0.118784
   2 C :   -0.079688
   3 C :   -0.030672
   4 C :   -0.107366
   5 H :    0.036930
   6 C :    0.061674
   7 H :    0.045524
   8 H :    0.008972
   9 C :   -0.030336
  10 H :    0.033153
  11 H :    0.016139
  12 C :   -0.080409
  13 H :    0.033797
  14 H :    0.033132
  15 H :    0.032937
  16 S :    0.101924
  17 C :   -0.094206
  18 C :   -0.042213
  19 C :   -0.067657
  20 C :   -0.112610
  21 H :    0.034793
  22 C :    0.063216
  23 H :   -0.001138
  24 H :    0.038194
  25 C :   -0.078048
  26 H :    0.025244
  27 H :    0.039740
  28 C :   -0.059056
  29 H :    0.034767
  30 H :    0.025314
  31 H :    0.038497
  32 H :    0.046793
  33 H :    0.072147
Sum of atomic charges:   -0.0000000

LOEWDIN ATOMIC CHARGES
----------------------
   0 S :    0.394234
   1 C :   -0.190906
   2 C :   -0.068646
   3 C :   -0.085488
   4 C :   -0.182669
   5 H :    0.040831
   6 C :   -0.027042
   7 H :    0.034942
   8 H :    0.024907
   9 C :   -0.039123
  10 H :    0.028791
  11 H :    0.014913
  12 C :   -0.071998
  13 H :    0.025910
  14 H :    0.026328
  15 H :    0.027327
  16 S :    0.397562
  17 C :   -0.183457
  18 C :   -0.072003
  19 C :   -0.052031
  20 C :   -0.183216
  21 H :    0.038495
  22 C :   -0.032482
  23 H :    0.026711
  24 H :    0.029313
  25 C :   -0.036191
  26 H :    0.013251
  27 H :    0.031272
  28 C :   -0.067268
  29 H :    0.023426
  30 H :    0.024245
  31 H :    0.027770
  32 H :    0.028138
  33 H :    0.034158

  Mayer bond orders larger than 0.100000
B(  0-S ,  1-C ) :   1.1234 B(  0-S ,  4-C ) :   1.1642 B(  1-C ,  2-C ) :   1.6079
B(  1-C , 32-H ) :   0.9764 B(  2-C ,  3-C ) :   1.2531 B(  2-C ,  6-C ) :   1.0111
B(  3-C ,  4-C ) :   1.5647 B(  3-C ,  5-H ) :   0.9755 B(  4-C , 20-C ) :   1.0670
B(  6-C ,  7-H ) :   0.9446 B(  6-C ,  8-H ) :   0.9451 B(  6-C ,  9-C ) :   1.0654
B(  9-C , 10-H ) :   0.9533 B(  9-C , 11-H ) :   0.9612 B(  9-C , 12-C ) :   1.0658
B( 12-C , 13-H ) :   0.9785 B( 12-C , 14-H ) :   0.9759 B( 12-C , 15-H ) :   0.9742
B( 16-S , 17-C ) :   1.1731 B( 16-S , 20-C ) :   1.1240 B( 17-C , 18-C ) :   1.5850
B( 17-C , 33-H ) :   0.9618 B( 18-C , 19-C ) :   1.2618 B( 18-C , 21-H ) :   0.9845
B( 19-C , 20-C ) :   1.5857 B( 19-C , 22-C ) :   1.0484 B( 22-C , 23-H ) :   0.9331
B( 22-C , 24-H ) :   0.9244 B( 22-C , 25-C ) :   1.0574 B( 25-C , 26-H ) :   0.9536
B( 25-C , 27-H ) :   0.9544 B( 25-C , 28-C ) :   1.0866 B( 28-C , 29-H ) :   0.9750
B( 28-C , 30-H ) :   0.9747 B( 28-C , 31-H ) :   0.9755

Dispersion correction           -0.014686242
FINAL SINGLE POINT ENERGY     -1339.886102626946

DIPOLE MOMENT
-------------
                                X             Y             Z
Electronic contribution:     14.61904     -27.46291      -2.11988
Nuclear contribution   :    -15.09291      27.87749       1.90314
                        -----------------------------------------
Total Dipole Moment    :     -0.47387       0.41457      -0.21674
                        -----------------------------------------
Magnitude (a.u.)       :      0.66588
Magnitude (Debye)      :      1.69253

Rotational constants in cm-1:     0.017484     0.010198     0.006871
Rotational constants in MHz :   524.157950   305.717612   205.999397

                             ****ORCA TERMINATED NORMALLY****
TOTAL RUN TIME: 0 days 0 hours 0 minutes 35 seconds 692 msec
