                         Program Version 4.2.1 -  RELEASE  -
|  1> ! wB97X-D3 SP def2-SVP
|  2> %pal
|  3> nprocs 16
|  4> end
|  5>
|  6> * xyz 0 1
|  7> S 	 -37.523 	 -2.70539 	 97.6835
|  8> C 	 -36.0057 	 -2.10204 	 98.2601
|  9> C 	 -35.7443 	 -0.853503 	 97.9122
| 10> C 	 -36.7865 	 -0.293635 	 97.0931
| 11> C 	 -37.8128 	 -1.2106 	 96.8135
| 12> H 	 -36.8814 	 0.672446 	 96.6056
| 13> C 	 -34.5061 	 -0.149663 	 98.2696
| 14> H 	 -33.8165 	 -0.172578 	 97.4094
| 15> H 	 -34.0212 	 -0.737397 	 99.1436
| 16> C 	 -34.6344 	 1.27364 	 98.7377
| 17> H 	 -35.0537 	 1.81099 	 97.8373
| 18> H 	 -35.3376 	 1.3855 	 99.612
| 19> C 	 -33.2289 	 1.90215 	 99.1371
| 20> H 	 -32.4555 	 1.83502 	 98.4021
| 21> H 	 -33.3084 	 2.96237 	 99.3869
| 22> H 	 -32.9402 	 1.20659 	 99.958
| 23> S 	 -40.481 	 -0.874143 	 96.7947
| 24> C 	 -41.328 	 -0.444493 	 95.3263
| 25> C 	 -40.4248 	 -0.499427 	 94.2293
| 26> C 	 -39.0641 	 -0.744317 	 94.5827
| 27> C 	 -38.9431 	 -0.911582 	 95.9497
| 28> H 	 -40.9192 	 -0.357734 	 93.274
| 29> C 	 -37.969 	 -0.799898 	 93.4862
| 30> H 	 -36.9162 	 -0.899538 	 93.9517
| 31> H 	 -38.1115 	 0.167423 	 92.9423
| 32> C 	 -38.1716 	 -1.98973 	 92.5213
| 33> H 	 -37.5075 	 -1.95229 	 91.6289
| 34> H 	 -39.207 	 -1.95063 	 92.2422
| 35> C 	 -37.7948 	 -3.37076 	 93.3238
| 36> H 	 -38.3889 	 -3.43393 	 94.232
| 37> H 	 -36.8019 	 -3.3464 	 93.5591
| 38> H 	 -38.0706 	 -4.20599 	 92.5953
| 39> H 	 -35.2135 	 -2.6887 	 98.729
| 40> H 	 -42.3646 	 -0.479719 	 95.2917
| 41> *
| 42>
| 43>                          ****END OF INPUT****

CARTESIAN COORDINATES (ANGSTROEM)
---------------------------------
  S    -37.523000   -2.705390   97.683500
  C    -36.005700   -2.102040   98.260100
  C    -35.744300   -0.853503   97.912200
  C    -36.786500   -0.293635   97.093100
  C    -37.812800   -1.210600   96.813500
  H    -36.881400    0.672446   96.605600
  C    -34.506100   -0.149663   98.269600
  H    -33.816500   -0.172578   97.409400
  H    -34.021200   -0.737397   99.143600
  C    -34.634400    1.273640   98.737700
  H    -35.053700    1.810990   97.837300
  H    -35.337600    1.385500   99.612000
  C    -33.228900    1.902150   99.137100
  H    -32.455500    1.835020   98.402100
  H    -33.308400    2.962370   99.386900
  H    -32.940200    1.206590   99.958000
  S    -40.481000   -0.874143   96.794700
  C    -41.328000   -0.444493   95.326300
  C    -40.424800   -0.499427   94.229300
  C    -39.064100   -0.744317   94.582700
  C    -38.943100   -0.911582   95.949700
  H    -40.919200   -0.357734   93.274000
  C    -37.969000   -0.799898   93.486200
  H    -36.916200   -0.899538   93.951700
  H    -38.111500    0.167423   92.942300
  C    -38.171600   -1.989730   92.521300
  H    -37.507500   -1.952290   91.628900
  H    -39.207000   -1.950630   92.242200
  C    -37.794800   -3.370760   93.323800
  H    -38.388900   -3.433930   94.232000
  H    -36.801900   -3.346400   93.559100
  H    -38.070600   -4.205990   92.595300
  H    -35.213500   -2.688700   98.729000
  H    -42.364600   -0.479719   95.291700

 Total Charge           Charge          ....    0
 Multiplicity           Mult            ....    1
 Number of Electrons    NEL             ....  134
 Basis Dimension        Dim             ....  322

ORBITAL ENERGIES
----------------

  NO   OCC          E(Eh)            E(eV)
   0   2.0000     -88.967172     -2420.9198
   1   2.0000     -88.963546     -2420.8212
   2   2.0000     -10.328563      -281.0545
   3   2.0000     -10.327166      -281.0165
   4   2.0000     -10.316603      -280.7290
   5   2.0000     -10.310368      -280.5594
   6   2.0000     -10.306077      -280.4426
   7   2.0000     -10.304610      -280.4027
   8   2.0000     -10.299857      -280.2733
   9   2.0000     -10.296289      -280.1763
  10   2.0000     -10.295636      -280.1585
  11   2.0000     -10.295181      -280.1461
  12   2.0000     -10.292708      -280.0788
  13   2.0000     -10.292357      -280.0693
  14   2.0000     -10.284195      -279.8472
  15   2.0000     -10.276336      -279.6333
  16   2.0000      -8.082027      -219.9231
  17   2.0000      -8.078553      -219.8286
  18   2.0000      -6.040531      -164.3712
  19   2.0000      -6.036969      -164.2743
  20   2.0000      -6.036544      -164.2627
  21   2.0000      -6.032960      -164.1652
  22   2.0000      -6.032748      -164.1594
  23   2.0000      -6.029461      -164.0700
  24   2.0000      -1.008463       -27.4417
  25   2.0000      -0.986445       -26.8425
  26   2.0000      -0.915617       -24.9152
  27   2.0000      -0.900375       -24.5004
  28   2.0000      -0.870938       -23.6994
  29   2.0000      -0.846409       -23.0320
  30   2.0000      -0.839726       -22.8501
  31   2.0000      -0.811274       -22.0759
  32   2.0000      -0.778909       -21.1952
  33   2.0000      -0.772595       -21.0234
  34   2.0000      -0.711049       -19.3486
  35   2.0000      -0.695605       -18.9284
  36   2.0000      -0.687548       -18.7091
  37   2.0000      -0.660731       -17.9794
  38   2.0000      -0.641355       -17.4521
  39   2.0000      -0.616172       -16.7669
  40   2.0000      -0.595955       -16.2168
  41   2.0000      -0.574460       -15.6318
  42   2.0000      -0.564030       -15.3480
  43   2.0000      -0.545353       -14.8398
  44   2.0000      -0.538436       -14.6516
  45   2.0000      -0.523008       -14.2318
  46   2.0000      -0.515786       -14.0353
  47   2.0000      -0.511985       -13.9318
  48   2.0000      -0.503886       -13.7114
  49   2.0000      -0.499138       -13.5822
  50   2.0000      -0.489012       -13.3067
  51   2.0000      -0.477395       -12.9906
  52   2.0000      -0.471221       -12.8226
  53   2.0000      -0.460523       -12.5315
  54   2.0000      -0.459064       -12.4918
  55   2.0000      -0.448042       -12.1918
  56   2.0000      -0.443047       -12.0559
  57   2.0000      -0.436500       -11.8778
  58   2.0000      -0.430608       -11.7174
  59   2.0000      -0.425624       -11.5818
  60   2.0000      -0.422942       -11.5088
  61   2.0000      -0.411211       -11.1896
  62   2.0000      -0.408523       -11.1165
  63   2.0000      -0.336328        -9.1519
  64   2.0000      -0.333590        -9.0774
  65   2.0000      -0.329002        -8.9526
  66   2.0000      -0.301709        -8.2099
  67   0.0000       0.037335         1.0159
  68   0.0000       0.059817         1.6277
  69   0.0000       0.116517         3.1706
  70   0.0000       0.121355         3.3022
  71   0.0000       0.127196         3.4612

MULLIKEN ATOMIC CHARGES
-----------------------
   0 S :    0.123562
   1 C :   -0.127806
   2 C :   -0.032017
   3 C :    0.030133
   4 C :   -0.167390
   5 H :    0.018144
   6 C :    0.033232
   7 H :    0.044062
   8 H :    0.021688
   9 C :   -0.134424
  10 H :    0.038525
  11 H :    0.051623
  12 C :   -0.035789
  13 H :    0.022893
  14 H :    0.046586
  15 H :    0.032560
  16 S :    0.102614
  17 C :   -0.080880
  18 C :   -0.070768
  19 C :    0.007416
  20 C :   -0.214320
  21 H :    0.028357
  22 C :    0.041109
  23 H :    0.046138
  24 H :    0.045790
  25 C :   -0.089067
  26 H :    0.044476
  27 H :    0.028057
  28 C :   -0.055219
  29 H :    0.043804
  30 H :    0.021691
  31 H :    0.047803
  32 H :    0.044911
  33 H :    0.042505
Sum of atomic charges:   -0.0000000

LOEWDIN ATOMIC CHARGES
----------------------
   0 S :    0.406877
   1 C :   -0.200001
   2 C :   -0.074499
   3 C :   -0.055714
   4 C :   -0.201503
   5 H :    0.032652
   6 C :   -0.041333
   7 H :    0.036090
   8 H :    0.032781
   9 C :   -0.046264
  10 H :    0.023983
  11 H :    0.032448
  12 C :   -0.064897
  13 H :    0.018532
  14 H :    0.029403
  15 H :    0.030428
  16 S :    0.408829
  17 C :   -0.178638
  18 C :   -0.070305
  19 C :   -0.057235
  20 C :   -0.199856
  21 H :    0.031851
  22 C :   -0.035719
  23 H :    0.037748
  24 H :    0.036193
  25 C :   -0.036799
  26 H :    0.027069
  27 H :    0.016648
  28 C :   -0.054699
  29 H :    0.024934
  30 H :    0.009183
  31 H :    0.034546
  32 H :    0.033590
  33 H :    0.013675

  Mayer bond orders larger than 0.100000
B(  0-S ,  1-C ) :   1.1199 B(  0-S ,  4-C ) :   1.1456 B(  1-C ,  2-C ) :   1.6726
B(  1-C , 32-H ) :   0.9559 B(  2-C ,  3-C ) :   1.1895 B(  2-C ,  6-C ) :   1.0285
B(  3-C ,  4-C ) :   1.5973 B(  3-C ,  5-H ) :   0.9954 B(  4-C , 20-C ) :   1.0271
B(  6-C ,  7-H ) :   0.9291 B(  6-C ,  8-H ) :   0.9394 B(  6-C ,  9-C ) :   1.0636
B(  9-C , 10-H ) :   0.9475 B(  9-C , 11-H ) :   0.9605 B(  9-C , 12-C ) :   1.0692
B( 12-C , 13-H ) :   0.9769 B( 12-C , 14-H ) :   0.9756 B( 12-C , 15-H ) :   0.9755
B( 16-S , 17-C ) :   1.1632 B( 16-S , 20-C ) :   1.1627 B( 17-C , 18-C ) :   1.6015
B( 17-C , 20-C ) :   0.1098 B( 17-C , 33-H ) :   0.9760 B( 18-C , 19-C ) :   1.2217
B( 18-C , 21-H ) :   0.9875 B( 19-C , 20-C ) :   1.5988 B( 19-C , 22-C ) :   1.0198
B( 22-C , 23-H ) :   0.9421 B( 22-C , 24-H ) :   0.9363 B( 22-C , 25-C ) :   1.0685
B( 25-C , 26-H ) :   0.9598 B( 25-C , 27-H ) :   0.9596 B( 25-C , 28-C ) :   1.0542
B( 28-C , 29-H ) :   0.9801 B( 28-C , 30-H ) :   0.9793 B( 28-C , 31-H ) :   0.9772

Dispersion correction           -0.014512198
FINAL SINGLE POINT ENERGY     -1339.868225961034

DIPOLE MOMENT
-------------
                                X             Y             Z
Electronic contribution:    -19.48639      -6.96894       7.39287
Nuclear contribution   :     19.86528       7.17948      -7.78070
                        -----------------------------------------
Total Dipole Moment    :      0.37890       0.21054      -0.38782
                        -----------------------------------------
Magnitude (a.u.)       :      0.58163
Magnitude (Debye)      :      1.47839

Rotational constants in cm-1:     0.020294     0.007595     0.007163
Rotational constants in MHz :   608.391190   227.692778   214.729873

                             ****ORCA TERMINATED NORMALLY****
TOTAL RUN TIME: 0 days 0 hours 0 minutes 29 seconds 834 msec
