                         Program Version 4.2.1 -  RELEASE  -
|  1> ! wB97X-D3 SP def2-SVP
|  2> %pal
|  3> nprocs 16
|  4> end
|  5>
|  6> * xyz 0 1
|  7> S 	 10.2352 	 -8.64176 	 63.6023
|  8> C 	 10.2076 	 -8.32716 	 65.2606
|  9> C 	 9.54194 	 -9.31363 	 65.9793
| 10> C 	 9.19673 	 -10.4884 	 65.1896
| 11> C 	 9.60733 	 -10.2918 	 63.869
| 12> H 	 8.80459 	 -11.377 	 65.5784
| 13> C 	 9.27813 	 -9.37922 	 67.469
| 14> H 	 8.66826 	 -10.2752 	 67.6083
| 15> H 	 8.72075 	 -8.53453 	 67.9351
| 16> C 	 10.5205 	 -9.59072 	 68.3123
| 17> H 	 10.2367 	 -10.228 	 69.1623
| 18> H 	 11.3025 	 -10.2372 	 67.7875
| 19> C 	 11.1577 	 -8.32401 	 68.8214
| 20> H 	 10.4214 	 -7.71335 	 69.2714
| 21> H 	 11.8668 	 -8.59105 	 69.6424
| 22> H 	 11.6219 	 -7.74785 	 68.0294
| 23> S 	 11.3716 	 -11.1671 	 62.0734
| 24> C 	 11.1314 	 -12.6257 	 61.1301
| 25> C 	 9.97311 	 -13.2643 	 61.5753
| 26> C 	 9.32728 	 -12.5891 	 62.6373
| 27> C 	 9.82981 	 -11.2756 	 62.8151
| 28> H 	 9.75722 	 -14.2232 	 61.2149
| 29> C 	 8.20845 	 -13.2744 	 63.2676
| 30> H 	 7.53956 	 -13.6362 	 62.5525
| 31> H 	 7.5232 	 -12.6069 	 63.7328
| 32> C 	 8.64548 	 -14.4744 	 64.1565
| 33> H 	 9.37625 	 -14.2064 	 64.9836
| 34> H 	 9.09909 	 -15.2659 	 63.5295
| 35> C 	 7.42344 	 -15.1221 	 64.7725
| 36> H 	 6.619 	 -15.377 	 63.9975
| 37> H 	 6.96875 	 -14.4909 	 65.5966
| 38> H 	 7.83776 	 -15.9261 	 65.3349
| 39> H 	 10.6008 	 -7.44202 	 65.7222
| 40> H 	 11.8019 	 -13.0281 	 60.4004
| 41> *
| 42>
| 43>                          ****END OF INPUT****

CARTESIAN COORDINATES (ANGSTROEM)
---------------------------------
  S     10.235200   -8.641760   63.602300
  C     10.207600   -8.327160   65.260600
  C      9.541940   -9.313630   65.979300
  C      9.196730  -10.488400   65.189600
  C      9.607330  -10.291800   63.869000
  H      8.804590  -11.377000   65.578400
  C      9.278130   -9.379220   67.469000
  H      8.668260  -10.275200   67.608300
  H      8.720750   -8.534530   67.935100
  C     10.520500   -9.590720   68.312300
  H     10.236700  -10.228000   69.162300
  H     11.302500  -10.237200   67.787500
  C     11.157700   -8.324010   68.821400
  H     10.421400   -7.713350   69.271400
  H     11.866800   -8.591050   69.642400
  H     11.621900   -7.747850   68.029400
  S     11.371600  -11.167100   62.073400
  C     11.131400  -12.625700   61.130100
  C      9.973110  -13.264300   61.575300
  C      9.327280  -12.589100   62.637300
  C      9.829810  -11.275600   62.815100
  H      9.757220  -14.223200   61.214900
  C      8.208450  -13.274400   63.267600
  H      7.539560  -13.636200   62.552500
  H      7.523200  -12.606900   63.732800
  C      8.645480  -14.474400   64.156500
  H      9.376250  -14.206400   64.983600
  H      9.099090  -15.265900   63.529500
  C      7.423440  -15.122100   64.772500
  H      6.619000  -15.377000   63.997500
  H      6.968750  -14.490900   65.596600
  H      7.837760  -15.926100   65.334900
  H     10.600800   -7.442020   65.722200
  H     11.801900  -13.028100   60.400400

 Total Charge           Charge          ....    0
 Multiplicity           Mult            ....    1
 Number of Electrons    NEL             ....  134
 Basis Dimension        Dim             ....  322

ORBITAL ENERGIES
----------------

  NO   OCC          E(Eh)            E(eV)
   0   2.0000     -88.966702     -2420.9070
   1   2.0000     -88.962976     -2420.8056
   2   2.0000     -10.332939      -281.1736
   3   2.0000     -10.324169      -280.9349
   4   2.0000     -10.313819      -280.6533
   5   2.0000     -10.308416      -280.5062
   6   2.0000     -10.301643      -280.3220
   7   2.0000     -10.298388      -280.2334
   8   2.0000     -10.296133      -280.1720
   9   2.0000     -10.295333      -280.1503
  10   2.0000     -10.290488      -280.0184
  11   2.0000     -10.286937      -279.9218
  12   2.0000     -10.285750      -279.8895
  13   2.0000     -10.285303      -279.8773
  14   2.0000     -10.280588      -279.7490
  15   2.0000     -10.274627      -279.5868
  16   2.0000      -8.081999      -219.9224
  17   2.0000      -8.078088      -219.8159
  18   2.0000      -6.040471      -164.3696
  19   2.0000      -6.036536      -164.2625
  20   2.0000      -6.036424      -164.2595
  21   2.0000      -6.032760      -164.1597
  22   2.0000      -6.032503      -164.1527
  23   2.0000      -6.028874      -164.0540
  24   2.0000      -1.009185       -27.4613
  25   2.0000      -0.984769       -26.7969
  26   2.0000      -0.918052       -24.9815
  27   2.0000      -0.912705       -24.8360
  28   2.0000      -0.869745       -23.6670
  29   2.0000      -0.857914       -23.3450
  30   2.0000      -0.850278       -23.1372
  31   2.0000      -0.812533       -22.1101
  32   2.0000      -0.780718       -21.2444
  33   2.0000      -0.770691       -20.9716
  34   2.0000      -0.701359       -19.0850
  35   2.0000      -0.695806       -18.9338
  36   2.0000      -0.692932       -18.8556
  37   2.0000      -0.667528       -18.1644
  38   2.0000      -0.642018       -17.4702
  39   2.0000      -0.623036       -16.9537
  40   2.0000      -0.603854       -16.4317
  41   2.0000      -0.572296       -15.5730
  42   2.0000      -0.565695       -15.3933
  43   2.0000      -0.547836       -14.9074
  44   2.0000      -0.538340       -14.6490
  45   2.0000      -0.535795       -14.5797
  46   2.0000      -0.521027       -14.1779
  47   2.0000      -0.510661       -13.8958
  48   2.0000      -0.503955       -13.7133
  49   2.0000      -0.499015       -13.5789
  50   2.0000      -0.493486       -13.4284
  51   2.0000      -0.488524       -13.2934
  52   2.0000      -0.470589       -12.8054
  53   2.0000      -0.467920       -12.7328
  54   2.0000      -0.453434       -12.3386
  55   2.0000      -0.450204       -12.2507
  56   2.0000      -0.447748       -12.1838
  57   2.0000      -0.433185       -11.7876
  58   2.0000      -0.432536       -11.7699
  59   2.0000      -0.424479       -11.5507
  60   2.0000      -0.421050       -11.4574
  61   2.0000      -0.414946       -11.2913
  62   2.0000      -0.408997       -11.1294
  63   2.0000      -0.357281        -9.7221
  64   2.0000      -0.326531        -8.8853
  65   2.0000      -0.323505        -8.8030
  66   2.0000      -0.280184        -7.6242
  67   0.0000       0.021550         0.5864
  68   0.0000       0.077824         2.1177
  69   0.0000       0.106128         2.8879
  70   0.0000       0.111392         3.0311
  71   0.0000       0.127736         3.4759

MULLIKEN ATOMIC CHARGES
-----------------------
   0 S :    0.116612
   1 C :   -0.114882
   2 C :   -0.084884
   3 C :    0.033861
   4 C :   -0.144868
   5 H :   -0.005625
   6 C :    0.059839
   7 H :    0.013728
   8 H :    0.036835
   9 C :   -0.107015
  10 H :    0.023495
  11 H :    0.038024
  12 C :   -0.025134
  13 H :    0.012206
  14 H :    0.040169
  15 H :    0.031685
  16 S :    0.097921
  17 C :   -0.085830
  18 C :   -0.010161
  19 C :   -0.046022
  20 C :   -0.079991
  21 H :   -0.003915
  22 C :    0.083611
  23 H :    0.001724
  24 H :    0.000778
  25 C :   -0.114595
  26 H :    0.045864
  27 H :    0.036620
  28 C :   -0.053745
  29 H :    0.050373
  30 H :    0.032241
  31 H :    0.028424
  32 H :    0.042220
  33 H :    0.050440
Sum of atomic charges:   -0.0000000

LOEWDIN ATOMIC CHARGES
----------------------
   0 S :    0.418089
   1 C :   -0.219525
   2 C :   -0.057303
   3 C :   -0.052680
   4 C :   -0.176038
   5 H :    0.022409
   6 C :   -0.038451
   7 H :    0.030460
   8 H :    0.033926
   9 C :   -0.050165
  10 H :    0.023178
  11 H :    0.031042
  12 C :   -0.064171
  13 H :    0.015847
  14 H :    0.034644
  15 H :    0.022438
  16 S :    0.426833
  17 C :   -0.185613
  18 C :   -0.059664
  19 C :   -0.056232
  20 C :   -0.214508
  21 H :    0.020733
  22 C :   -0.039836
  23 H :    0.027672
  24 H :    0.025030
  25 C :   -0.038171
  26 H :    0.032100
  27 H :    0.026781
  28 C :   -0.074113
  29 H :    0.034620
  30 H :    0.027585
  31 H :    0.022874
  32 H :    0.024423
  33 H :    0.025783

  Mayer bond orders larger than 0.100000
B(  0-S ,  1-C ) :   1.1404 B(  0-S ,  4-C ) :   1.1558 B(  1-C ,  2-C ) :   1.6007
B(  1-C , 32-H ) :   0.9696 B(  2-C ,  3-C ) :   1.2423 B(  2-C ,  6-C ) :   1.0362
B(  3-C ,  4-C ) :   1.5561 B(  3-C ,  5-H ) :   0.9968 B(  4-C , 20-C ) :   1.0454
B(  6-C ,  7-H ) :   0.9381 B(  6-C ,  8-H ) :   0.9400 B(  6-C ,  9-C ) :   1.0637
B(  9-C , 10-H ) :   0.9560 B(  9-C , 11-H ) :   0.9528 B(  9-C , 12-C ) :   1.0876
B( 12-C , 13-H ) :   0.9725 B( 12-C , 14-H ) :   0.9701 B( 12-C , 15-H ) :   0.9731
B( 16-S , 17-C ) :   1.1667 B( 16-S , 20-C ) :   1.1570 B( 17-C , 18-C ) :   1.5613
B( 17-C , 20-C ) :   0.1020 B( 17-C , 33-H ) :   0.9734 B( 18-C , 19-C ) :   1.2728
B( 18-C , 21-H ) :   0.9994 B( 19-C , 20-C ) :   1.5269 B( 19-C , 22-C ) :   1.0713
B( 22-C , 23-H ) :   0.9218 B( 22-C , 24-H ) :   0.9343 B( 22-C , 25-C ) :   1.0476
B( 25-C , 26-H ) :   0.9548 B( 25-C , 27-H ) :   0.9534 B( 25-C , 28-C ) :   1.0880
B( 28-C , 29-H ) :   0.9694 B( 28-C , 30-H ) :   0.9727 B( 28-C , 31-H ) :   0.9717

Dispersion correction           -0.014069486
FINAL SINGLE POINT ENERGY     -1339.860824605732

DIPOLE MOMENT
-------------
                                X             Y             Z
Electronic contribution:      8.33604      11.93466     -23.25171
Nuclear contribution   :     -8.48288     -12.51536      23.78650
                        -----------------------------------------
Total Dipole Moment    :     -0.14684      -0.58071       0.53479
                        -----------------------------------------
Magnitude (a.u.)       :      0.80298
Magnitude (Debye)      :      2.04102

Rotational constants in cm-1:     0.018369     0.008798     0.006589
Rotational constants in MHz :   550.681975   263.765761   197.546243

                             ****ORCA TERMINATED NORMALLY****
TOTAL RUN TIME: 0 days 0 hours 0 minutes 35 seconds 115 msec
