                         Program Version 4.2.1 -  RELEASE  -
|  1> ! wB97X-D3 SP def2-SVP
|  2> %pal
|  3> nprocs 16
|  4> end
|  5>
|  6> * xyz 0 1
|  7> S 	 -51.0273 	 64.7387 	 127.74
|  8> C 	 -51.2104 	 63.5938 	 126.377
|  9> C 	 -50.3462 	 62.5518 	 126.514
| 10> C 	 -49.4912 	 62.6983 	 127.607
| 11> C 	 -49.6977 	 63.8077 	 128.35
| 12> H 	 -48.6302 	 62.07 	 127.862
| 13> C 	 -50.2018 	 61.3871 	 125.588
| 14> H 	 -49.199 	 60.8932 	 125.76
| 15> H 	 -50.17 	 61.7773 	 124.633
| 16> C 	 -51.4655 	 60.4582 	 125.508
| 17> H 	 -51.7491 	 60.0822 	 126.538
| 18> H 	 -52.3351 	 61.0625 	 125.359
| 19> C 	 -51.3426 	 59.3745 	 124.492
| 20> H 	 -52.2309 	 58.8154 	 124.416
| 21> H 	 -51.0835 	 59.7993 	 123.528
| 22> H 	 -50.6498 	 58.5928 	 124.704
| 23> S 	 -48.6499 	 66.0694 	 129.435
| 24> C 	 -47.5524 	 66.0382 	 130.792
| 25> C 	 -47.1874 	 64.7471 	 131.068
| 26> C 	 -48.0689 	 63.7965 	 130.431
| 27> C 	 -48.8091 	 64.3372 	 129.381
| 28> H 	 -46.5573 	 64.6176 	 131.894
| 29> C 	 -48.0196 	 62.4006 	 130.834
| 30> H 	 -47.0127 	 62.2429 	 131.218
| 31> H 	 -48.1443 	 61.7205 	 129.942
| 32> C 	 -48.97 	 62.1139 	 131.961
| 33> H 	 -48.8855 	 62.9034 	 132.698
| 34> H 	 -48.6493 	 61.1221 	 132.408
| 35> C 	 -50.5327 	 62.0973 	 131.701
| 36> H 	 -50.7214 	 63.0197 	 131.167
| 37> H 	 -51.0357 	 62.0504 	 132.639
| 38> H 	 -50.8942 	 61.1994 	 131.101
| 39> H 	 -51.8663 	 63.8225 	 125.507
| 40> H 	 -47.1702 	 66.925 	 131.333
| 41> *
| 42>
| 43>                          ****END OF INPUT****

CARTESIAN COORDINATES (ANGSTROEM)
---------------------------------
  S    -51.027300   64.738700  127.740000
  C    -51.210400   63.593800  126.377000
  C    -50.346200   62.551800  126.514000
  C    -49.491200   62.698300  127.607000
  C    -49.697700   63.807700  128.350000
  H    -48.630200   62.070000  127.862000
  C    -50.201800   61.387100  125.588000
  H    -49.199000   60.893200  125.760000
  H    -50.170000   61.777300  124.633000
  C    -51.465500   60.458200  125.508000
  H    -51.749100   60.082200  126.538000
  H    -52.335100   61.062500  125.359000
  C    -51.342600   59.374500  124.492000
  H    -52.230900   58.815400  124.416000
  H    -51.083500   59.799300  123.528000
  H    -50.649800   58.592800  124.704000
  S    -48.649900   66.069400  129.435000
  C    -47.552400   66.038200  130.792000
  C    -47.187400   64.747100  131.068000
  C    -48.068900   63.796500  130.431000
  C    -48.809100   64.337200  129.381000
  H    -46.557300   64.617600  131.894000
  C    -48.019600   62.400600  130.834000
  H    -47.012700   62.242900  131.218000
  H    -48.144300   61.720500  129.942000
  C    -48.970000   62.113900  131.961000
  H    -48.885500   62.903400  132.698000
  H    -48.649300   61.122100  132.408000
  C    -50.532700   62.097300  131.701000
  H    -50.721400   63.019700  131.167000
  H    -51.035700   62.050400  132.639000
  H    -50.894200   61.199400  131.101000
  H    -51.866300   63.822500  125.507000
  H    -47.170200   66.925000  131.333000

 Total Charge           Charge          ....    0
 Multiplicity           Mult            ....    1
 Number of Electrons    NEL             ....  134
 Basis Dimension        Dim             ....  322

ORBITAL ENERGIES
----------------

  NO   OCC          E(Eh)            E(eV)
   0   2.0000     -88.965816     -2420.8829
   1   2.0000     -88.960790     -2420.7462
   2   2.0000     -10.326007      -280.9849
   3   2.0000     -10.325827      -280.9800
   4   2.0000     -10.318557      -280.7822
   5   2.0000     -10.317110      -280.7428
   6   2.0000     -10.300841      -280.3001
   7   2.0000     -10.296620      -280.1853
   8   2.0000     -10.290004      -280.0053
   9   2.0000     -10.289785      -279.9993
  10   2.0000     -10.288788      -279.9722
  11   2.0000     -10.287143      -279.9274
  12   2.0000     -10.286990      -279.9232
  13   2.0000     -10.286966      -279.9226
  14   2.0000     -10.274926      -279.5949
  15   2.0000     -10.270811      -279.4830
  16   2.0000      -8.080349      -219.8775
  17   2.0000      -8.076087      -219.7615
  18   2.0000      -6.038863      -164.3258
  19   2.0000      -6.034944      -164.2192
  20   2.0000      -6.034614      -164.2102
  21   2.0000      -6.031044      -164.1130
  22   2.0000      -6.030396      -164.0954
  23   2.0000      -6.026896      -164.0002
  24   2.0000      -1.012786       -27.5593
  25   2.0000      -0.989502       -26.9257
  26   2.0000      -0.916210       -24.9313
  27   2.0000      -0.912788       -24.8382
  28   2.0000      -0.874578       -23.7985
  29   2.0000      -0.852830       -23.2067
  30   2.0000      -0.841366       -22.8947
  31   2.0000      -0.819659       -22.3041
  32   2.0000      -0.784667       -21.3519
  33   2.0000      -0.773733       -21.0543
  34   2.0000      -0.710031       -19.3209
  35   2.0000      -0.703466       -19.1423
  36   2.0000      -0.686486       -18.6802
  37   2.0000      -0.663761       -18.0618
  38   2.0000      -0.641294       -17.4505
  39   2.0000      -0.624793       -17.0015
  40   2.0000      -0.597010       -16.2455
  41   2.0000      -0.571426       -15.5493
  42   2.0000      -0.557951       -15.1826
  43   2.0000      -0.552137       -15.0244
  44   2.0000      -0.539801       -14.6887
  45   2.0000      -0.526343       -14.3225
  46   2.0000      -0.518906       -14.1202
  47   2.0000      -0.512444       -13.9443
  48   2.0000      -0.506330       -13.7779
  49   2.0000      -0.500126       -13.6091
  50   2.0000      -0.495308       -13.4780
  51   2.0000      -0.483517       -13.1572
  52   2.0000      -0.476755       -12.9732
  53   2.0000      -0.464711       -12.6454
  54   2.0000      -0.463439       -12.6108
  55   2.0000      -0.453351       -12.3363
  56   2.0000      -0.442323       -12.0362
  57   2.0000      -0.437673       -11.9097
  58   2.0000      -0.432908       -11.7800
  59   2.0000      -0.422591       -11.4993
  60   2.0000      -0.415866       -11.3163
  61   2.0000      -0.412626       -11.2281
  62   2.0000      -0.401993       -10.9388
  63   2.0000      -0.353067        -9.6075
  64   2.0000      -0.333860        -9.0848
  65   2.0000      -0.327143        -8.9020
  66   2.0000      -0.287762        -7.8304
  67   0.0000       0.023747         0.6462
  68   0.0000       0.080715         2.1964
  69   0.0000       0.103103         2.8056
  70   0.0000       0.118504         3.2247
  71   0.0000       0.137613         3.7446

MULLIKEN ATOMIC CHARGES
-----------------------
   0 S :    0.100272
   1 C :   -0.168666
   2 C :   -0.044755
   3 C :   -0.012927
   4 C :   -0.109483
   5 H :    0.018207
   6 C :    0.100362
   7 H :    0.033250
   8 H :    0.001458
   9 C :   -0.090698
  10 H :    0.025182
  11 H :    0.016367
  12 C :    0.012852
  13 H :    0.018585
  14 H :    0.022412
  15 H :    0.021002
  16 S :    0.088509
  17 C :   -0.109533
  18 C :    0.004500
  19 C :   -0.110423
  20 C :   -0.119553
  21 H :    0.006604
  22 C :    0.091374
  23 H :    0.017832
  24 H :    0.026028
  25 C :   -0.097635
  26 H :    0.021874
  27 H :    0.033692
  28 C :   -0.050195
  29 H :    0.042280
  30 H :    0.033441
  31 H :    0.039693
  32 H :    0.066474
  33 H :    0.071619
Sum of atomic charges:    0.0000000

LOEWDIN ATOMIC CHARGES
----------------------
   0 S :    0.391717
   1 C :   -0.189915
   2 C :   -0.063051
   3 C :   -0.068633
   4 C :   -0.192984
   5 H :    0.034219
   6 C :   -0.027076
   7 H :    0.036854
   8 H :    0.021056
   9 C :   -0.039469
  10 H :    0.027267
  11 H :    0.020839
  12 C :   -0.060963
  13 H :    0.024396
  14 H :    0.025326
  15 H :    0.024197
  16 S :    0.403707
  17 C :   -0.182849
  18 C :   -0.070125
  19 C :   -0.061066
  20 C :   -0.199998
  21 H :    0.023716
  22 C :   -0.041600
  23 H :    0.035179
  24 H :    0.032241
  25 C :   -0.039388
  26 H :    0.022741
  27 H :    0.025761
  28 C :   -0.064462
  29 H :    0.025583
  30 H :    0.021934
  31 H :    0.029597
  32 H :    0.036670
  33 H :    0.038581

  Mayer bond orders larger than 0.100000
B(  0-S ,  1-C ) :   1.1196 B(  0-S ,  4-C ) :   1.1432 B(  1-C ,  2-C ) :   1.6058
B(  1-C , 32-H ) :   0.9666 B(  2-C ,  3-C ) :   1.2496 B(  2-C ,  6-C ) :   1.0203
B(  3-C ,  4-C ) :   1.5868 B(  3-C ,  5-H ) :   0.9886 B(  4-C , 20-C ) :   1.0495
B(  6-C ,  7-H ) :   0.9476 B(  6-C ,  8-H ) :   0.9237 B(  6-C ,  9-C ) :   1.0498
B(  9-C , 10-H ) :   0.9533 B(  9-C , 11-H ) :   0.9531 B(  9-C , 12-C ) :   1.0899
B( 12-C , 13-H ) :   0.9676 B( 12-C , 14-H ) :   0.9709 B( 12-C , 15-H ) :   0.9715
B( 16-S , 17-C ) :   1.1616 B( 16-S , 20-C ) :   1.1240 B( 17-C , 18-C ) :   1.6156
B( 17-C , 33-H ) :   0.9622 B( 18-C , 19-C ) :   1.2383 B( 18-C , 21-H ) :   0.9870
B( 19-C , 20-C ) :   1.5830 B( 19-C , 22-C ) :   1.0596 B( 22-C , 23-H ) :   0.9190
B( 22-C , 24-H ) :   0.9342 B( 22-C , 25-C ) :   1.0692 B( 25-C , 26-H ) :   0.9547
B( 25-C , 27-H ) :   0.9551 B( 25-C , 28-C ) :   1.0711 B( 28-C , 29-H ) :   0.9740
B( 28-C , 30-H ) :   0.9752 B( 28-C , 31-H ) :   0.9773

Dispersion correction           -0.014466821
FINAL SINGLE POINT ENERGY     -1339.870184214374

DIPOLE MOMENT
-------------
                                X             Y             Z
Electronic contribution:      4.00738      26.39789       1.91426
Nuclear contribution   :     -3.81478     -26.92786      -1.93190
                        -----------------------------------------
Total Dipole Moment    :      0.19261      -0.52997      -0.01764
                        -----------------------------------------
Magnitude (a.u.)       :      0.56416
Magnitude (Debye)      :      1.43397

Rotational constants in cm-1:     0.022370     0.007967     0.006693
Rotational constants in MHz :   670.632862   238.852984   200.636765

                             ****ORCA TERMINATED NORMALLY****
TOTAL RUN TIME: 0 days 0 hours 0 minutes 35 seconds 596 msec
