                         Program Version 4.2.1 -  RELEASE  -
|  1> ! wB97X-D3 SP def2-SVP
|  2> %pal
|  3> nprocs 16
|  4> end
|  5>
|  6> * xyz 0 1
|  7> S 	 37.9975 	 13.7316 	 82.7616
|  8> C 	 36.8233 	 14.8177 	 83.5223
|  9> C 	 36.8713 	 14.7591 	 84.9121
| 10> C 	 37.8524 	 13.8487 	 85.3888
| 11> C 	 38.646 	 13.3209 	 84.3849
| 12> H 	 38.0807 	 13.5796 	 86.3899
| 13> C 	 36.238 	 15.729 	 85.8591
| 14> H 	 35.8548 	 15.2476 	 86.7479
| 15> H 	 35.3318 	 16.0484 	 85.3253
| 16> C 	 37.2082 	 16.8256 	 86.2743
| 17> H 	 37.6648 	 17.1522 	 85.3575
| 18> H 	 36.5463 	 17.641 	 86.5971
| 19> C 	 38.2251 	 16.4997 	 87.3347
| 20> H 	 38.9452 	 15.8237 	 86.8831
| 21> H 	 38.7118 	 17.3311 	 87.631
| 22> H 	 37.9674 	 16.0057 	 88.2871
| 23> S 	 40.2511 	 11.4592 	 83.1082
| 24> C 	 41.7381 	 10.8831 	 83.8531
| 25> C 	 41.788 	 11.3225 	 85.1367
| 26> C 	 40.6832 	 12.1556 	 85.5775
| 27> C 	 39.7925 	 12.406 	 84.5323
| 28> H 	 42.6726 	 11.0657 	 85.6635
| 29> C 	 40.7468 	 12.827 	 86.9221
| 30> H 	 40.35 	 13.8481 	 86.7976
| 31> H 	 41.7907 	 12.8209 	 87.2795
| 32> C 	 39.8717 	 12.0493 	 87.9911
| 33> H 	 38.8193 	 12.0449 	 87.7193
| 34> H 	 39.9107 	 12.5531 	 88.9347
| 35> C 	 40.2497 	 10.6036 	 88.2407
| 36> H 	 41.3032 	 10.4295 	 88.354
| 37> H 	 39.8261 	 9.93723 	 87.4608
| 38> H 	 39.7654 	 10.2969 	 89.1819
| 39> H 	 36.3355 	 15.6168 	 82.9597
| 40> H 	 42.5239 	 10.2286 	 83.4692
| 41> *
| 42>
| 43>                          ****END OF INPUT****

CARTESIAN COORDINATES (ANGSTROEM)
---------------------------------
  S     37.997500   13.731600   82.761600
  C     36.823300   14.817700   83.522300
  C     36.871300   14.759100   84.912100
  C     37.852400   13.848700   85.388800
  C     38.646000   13.320900   84.384900
  H     38.080700   13.579600   86.389900
  C     36.238000   15.729000   85.859100
  H     35.854800   15.247600   86.747900
  H     35.331800   16.048400   85.325300
  C     37.208200   16.825600   86.274300
  H     37.664800   17.152200   85.357500
  H     36.546300   17.641000   86.597100
  C     38.225100   16.499700   87.334700
  H     38.945200   15.823700   86.883100
  H     38.711800   17.331100   87.631000
  H     37.967400   16.005700   88.287100
  S     40.251100   11.459200   83.108200
  C     41.738100   10.883100   83.853100
  C     41.788000   11.322500   85.136700
  C     40.683200   12.155600   85.577500
  C     39.792500   12.406000   84.532300
  H     42.672600   11.065700   85.663500
  C     40.746800   12.827000   86.922100
  H     40.350000   13.848100   86.797600
  H     41.790700   12.820900   87.279500
  C     39.871700   12.049300   87.991100
  H     38.819300   12.044900   87.719300
  H     39.910700   12.553100   88.934700
  C     40.249700   10.603600   88.240700
  H     41.303200   10.429500   88.354000
  H     39.826100    9.937230   87.460800
  H     39.765400   10.296900   89.181900
  H     36.335500   15.616800   82.959700
  H     42.523900   10.228600   83.469200

 Total Charge           Charge          ....    0
 Multiplicity           Mult            ....    1
 Number of Electrons    NEL             ....  134
 Basis Dimension        Dim             ....  322

ORBITAL ENERGIES
----------------

  NO   OCC          E(Eh)            E(eV)
   0   2.0000     -88.968013     -2420.9427
   1   2.0000     -88.963749     -2420.8267
   2   2.0000     -10.337035      -281.2850
   3   2.0000     -10.333358      -281.1850
   4   2.0000     -10.316775      -280.7337
   5   2.0000     -10.315977      -280.7120
   6   2.0000     -10.306845      -280.4635
   7   2.0000     -10.301092      -280.3070
   8   2.0000     -10.299966      -280.2763
   9   2.0000     -10.292270      -280.0669
  10   2.0000     -10.289768      -279.9988
  11   2.0000     -10.288361      -279.9605
  12   2.0000     -10.287127      -279.9270
  13   2.0000     -10.285732      -279.8890
  14   2.0000     -10.276578      -279.6399
  15   2.0000     -10.271707      -279.5074
  16   2.0000      -8.081547      -219.9101
  17   2.0000      -8.078053      -219.8150
  18   2.0000      -6.040243      -164.3634
  19   2.0000      -6.036775      -164.2690
  20   2.0000      -6.036340      -164.2572
  21   2.0000      -6.032631      -164.1562
  22   2.0000      -6.032082      -164.1413
  23   2.0000      -6.028603      -164.0466
  24   2.0000      -1.002593       -27.2819
  25   2.0000      -0.980946       -26.6929
  26   2.0000      -0.917921       -24.9779
  27   2.0000      -0.907993       -24.7077
  28   2.0000      -0.870073       -23.6759
  29   2.0000      -0.852639       -23.2015
  30   2.0000      -0.844179       -22.9713
  31   2.0000      -0.821669       -22.3588
  32   2.0000      -0.786763       -21.4089
  33   2.0000      -0.773422       -21.0459
  34   2.0000      -0.708948       -19.2915
  35   2.0000      -0.705971       -19.2105
  36   2.0000      -0.690931       -18.8012
  37   2.0000      -0.664123       -18.0717
  38   2.0000      -0.639437       -17.4000
  39   2.0000      -0.620540       -16.8858
  40   2.0000      -0.589127       -16.0310
  41   2.0000      -0.577027       -15.7017
  42   2.0000      -0.560132       -15.2420
  43   2.0000      -0.554404       -15.0861
  44   2.0000      -0.547121       -14.8879
  45   2.0000      -0.537055       -14.6140
  46   2.0000      -0.515779       -14.0351
  47   2.0000      -0.511723       -13.9247
  48   2.0000      -0.508584       -13.8393
  49   2.0000      -0.499933       -13.6039
  50   2.0000      -0.490296       -13.3416
  51   2.0000      -0.484304       -13.1786
  52   2.0000      -0.478808       -13.0290
  53   2.0000      -0.465000       -12.6533
  54   2.0000      -0.457309       -12.4440
  55   2.0000      -0.447727       -12.1833
  56   2.0000      -0.442068       -12.0293
  57   2.0000      -0.437967       -11.9177
  58   2.0000      -0.432699       -11.7743
  59   2.0000      -0.430107       -11.7038
  60   2.0000      -0.424913       -11.5625
  61   2.0000      -0.411812       -11.2060
  62   2.0000      -0.409443       -11.1415
  63   2.0000      -0.360976        -9.8227
  64   2.0000      -0.334175        -9.0934
  65   2.0000      -0.326210        -8.8766
  66   2.0000      -0.282928        -7.6989
  67   0.0000       0.016333         0.4444
  68   0.0000       0.081032         2.2050
  69   0.0000       0.096746         2.6326
  70   0.0000       0.120058         3.2669
  71   0.0000       0.134073         3.6483

MULLIKEN ATOMIC CHARGES
-----------------------
   0 S :    0.094650
   1 C :   -0.121837
   2 C :   -0.089884
   3 C :    0.003896
   4 C :   -0.104810
   5 H :   -0.020294
   6 C :    0.067334
   7 H :    0.018597
   8 H :    0.020954
   9 C :   -0.048359
  10 H :    0.023374
  11 H :    0.028752
  12 C :    0.001247
  13 H :    0.026962
  14 H :    0.007308
  15 H :    0.027560
  16 S :    0.082924
  17 C :   -0.082712
  18 C :   -0.039743
  19 C :   -0.046228
  20 C :   -0.122680
  21 H :    0.004861
  22 C :    0.052525
  23 H :    0.039044
  24 H :    0.032052
  25 C :   -0.085738
  26 H :    0.037973
  27 H :    0.024853
  28 C :   -0.056047
  29 H :    0.025302
  30 H :    0.050098
  31 H :    0.030236
  32 H :    0.057663
  33 H :    0.060168
Sum of atomic charges:   -0.0000000

LOEWDIN ATOMIC CHARGES
----------------------
   0 S :    0.372726
   1 C :   -0.195932
   2 C :   -0.059489
   3 C :   -0.062262
   4 C :   -0.164016
   5 H :    0.022920
   6 C :   -0.033390
   7 H :    0.027795
   8 H :    0.032100
   9 C :   -0.032739
  10 H :    0.026435
  11 H :    0.026816
  12 C :   -0.060991
  13 H :    0.025613
  14 H :    0.014889
  15 H :    0.029639
  16 S :    0.382092
  17 C :   -0.184608
  18 C :   -0.070906
  19 C :   -0.059295
  20 C :   -0.183826
  21 H :    0.025302
  22 C :   -0.029644
  23 H :    0.032404
  24 H :    0.033983
  25 C :   -0.041222
  26 H :    0.022786
  27 H :    0.018984
  28 C :   -0.067403
  29 H :    0.018518
  30 H :    0.032425
  31 H :    0.030479
  32 H :    0.030533
  33 H :    0.039286

  Mayer bond orders larger than 0.100000
B(  0-S ,  1-C ) :   1.1197 B(  0-S ,  4-C ) :   1.1338 B(  1-C ,  2-C ) :   1.6293
B(  1-C , 32-H ) :   0.9617 B(  2-C ,  3-C ) :   1.2135 B(  2-C ,  6-C ) :   1.0445
B(  3-C ,  4-C ) :   1.5747 B(  3-C ,  5-H ) :   0.9948 B(  4-C , 20-C ) :   1.0762
B(  6-C ,  7-H ) :   0.9340 B(  6-C ,  8-H ) :   0.9361 B(  6-C ,  9-C ) :   1.0586
B(  9-C , 10-H ) :   0.9504 B(  9-C , 11-H ) :   0.9544 B(  9-C , 12-C ) :   1.0852
B( 12-C , 13-H ) :   0.9642 B( 12-C , 14-H ) :   0.9598 B( 12-C , 15-H ) :   0.9717
B( 16-S , 17-C ) :   1.1235 B( 16-S , 20-C ) :   1.1270 B( 17-C , 18-C ) :   1.6609
B( 17-C , 33-H ) :   0.9632 B( 18-C , 19-C ) :   1.2141 B( 18-C , 21-H ) :   0.9908
B( 19-C , 20-C ) :   1.5913 B( 19-C , 22-C ) :   1.0407 B( 22-C , 23-H ) :   0.9359
B( 22-C , 24-H ) :   0.9392 B( 22-C , 25-C ) :   1.0630 B( 25-C , 26-H ) :   0.9499
B( 25-C , 27-H ) :   0.9602 B( 25-C , 28-C ) :   1.0837 B( 28-C , 29-H ) :   0.9767
B( 28-C , 30-H ) :   0.9738 B( 28-C , 31-H ) :   0.9704

Dispersion correction           -0.015727598
FINAL SINGLE POINT ENERGY     -1339.878744816933

DIPOLE MOMENT
-------------
                                X             Y             Z
Electronic contribution:      0.98961      -8.45573     -27.23564
Nuclear contribution   :     -0.78720       8.78488      28.02070
                        -----------------------------------------
Total Dipole Moment    :      0.20241       0.32915       0.78507
                        -----------------------------------------
Magnitude (a.u.)       :      0.87501
Magnitude (Debye)      :      2.22410

Rotational constants in cm-1:     0.018114     0.010549     0.007313
Rotational constants in MHz :   543.041342   316.248605   219.250676

                             ****ORCA TERMINATED NORMALLY****
TOTAL RUN TIME: 0 days 0 hours 0 minutes 30 seconds 916 msec
