                         Program Version 4.2.1 -  RELEASE  -
|  1> ! wB97X-D3 SP def2-SVP
|  2> %pal
|  3> nprocs 16
|  4> end
|  5>
|  6> * xyz 0 1
|  7> S 	 13.7999 	 21.829 	 39.9492
|  8> C 	 14.8498 	 21.9723 	 38.543
|  9> C 	 14.9672 	 20.7414 	 37.9018
| 10> C 	 14.0389 	 19.8125 	 38.3864
| 11> C 	 13.2957 	 20.2736 	 39.4606
| 12> H 	 13.7782 	 18.8422 	 38.083
| 13> C 	 15.5825 	 20.5668 	 36.4959
| 14> H 	 15.6724 	 19.4628 	 36.3929
| 15> H 	 16.5447 	 21.1102 	 36.513
| 16> C 	 14.6932 	 21.0686 	 35.2827
| 17> H 	 15.1938 	 20.7275 	 34.3291
| 18> H 	 13.6575 	 20.7387 	 35.1683
| 19> C 	 14.6415 	 22.6136 	 35.2985
| 20> H 	 14.0556 	 22.9828 	 34.4027
| 21> H 	 14.1139 	 22.9202 	 36.209
| 22> H 	 15.7078 	 23.0319 	 35.3635
| 23> S 	 12.1562 	 19.4873 	 41.8561
| 24> C 	 10.6865 	 18.6087 	 41.7557
| 25> C 	 10.1627 	 18.6671 	 40.4832
| 26> C 	 11.0441 	 19.1925 	 39.459
| 27> C 	 12.1624 	 19.6271 	 40.0823
| 28> H 	 9.23778 	 18.0993 	 40.4059
| 29> C 	 10.7431 	 19.0855 	 37.9418
| 30> H 	 9.79499 	 18.5444 	 37.8127
| 31> H 	 11.4826 	 18.3677 	 37.5961
| 32> C 	 10.6803 	 20.3197 	 37.026
| 33> H 	 10.9591 	 20.02 	 35.9831
| 34> H 	 11.4719 	 21.0688 	 37.1747
| 35> C 	 9.27232 	 20.9535 	 37.0775
| 36> H 	 9.27994 	 21.9683 	 36.6195
| 37> H 	 8.92967 	 21.0511 	 38.0466
| 38> H 	 8.60724 	 20.4001 	 36.4405
| 39> H 	 15.3479 	 22.8263 	 38.2064
| 40> H 	 10.1609 	 18.087 	 42.5245
| 41> *
| 42>
| 43>                          ****END OF INPUT****

CARTESIAN COORDINATES (ANGSTROEM)
---------------------------------
  S     13.799900   21.829000   39.949200
  C     14.849800   21.972300   38.543000
  C     14.967200   20.741400   37.901800
  C     14.038900   19.812500   38.386400
  C     13.295700   20.273600   39.460600
  H     13.778200   18.842200   38.083000
  C     15.582500   20.566800   36.495900
  H     15.672400   19.462800   36.392900
  H     16.544700   21.110200   36.513000
  C     14.693200   21.068600   35.282700
  H     15.193800   20.727500   34.329100
  H     13.657500   20.738700   35.168300
  C     14.641500   22.613600   35.298500
  H     14.055600   22.982800   34.402700
  H     14.113900   22.920200   36.209000
  H     15.707800   23.031900   35.363500
  S     12.156200   19.487300   41.856100
  C     10.686500   18.608700   41.755700
  C     10.162700   18.667100   40.483200
  C     11.044100   19.192500   39.459000
  C     12.162400   19.627100   40.082300
  H      9.237780   18.099300   40.405900
  C     10.743100   19.085500   37.941800
  H      9.794990   18.544400   37.812700
  H     11.482600   18.367700   37.596100
  C     10.680300   20.319700   37.026000
  H     10.959100   20.020000   35.983100
  H     11.471900   21.068800   37.174700
  C      9.272320   20.953500   37.077500
  H      9.279940   21.968300   36.619500
  H      8.929670   21.051100   38.046600
  H      8.607240   20.400100   36.440500
  H     15.347900   22.826300   38.206400
  H     10.160900   18.087000   42.524500

 Total Charge           Charge          ....    0
 Multiplicity           Mult            ....    1
 Number of Electrons    NEL             ....  134
 Basis Dimension        Dim             ....  322

ORBITAL ENERGIES
----------------

  NO   OCC          E(Eh)            E(eV)
   0   2.0000     -88.966357     -2420.8977
   1   2.0000     -88.966218     -2420.8939
   2   2.0000     -10.323291      -280.9110
   3   2.0000     -10.320616      -280.8382
   4   2.0000     -10.312007      -280.6040
   5   2.0000     -10.310384      -280.5598
   6   2.0000     -10.308001      -280.4950
   7   2.0000     -10.302725      -280.3514
   8   2.0000     -10.300436      -280.2891
   9   2.0000     -10.299579      -280.2658
  10   2.0000     -10.296506      -280.1822
  11   2.0000     -10.292547      -280.0744
  12   2.0000     -10.291748      -280.0527
  13   2.0000     -10.287140      -279.9273
  14   2.0000     -10.285463      -279.8817
  15   2.0000     -10.272339      -279.5246
  16   2.0000      -8.081610      -219.9118
  17   2.0000      -8.081347      -219.9046
  18   2.0000      -6.039951      -164.3554
  19   2.0000      -6.039832      -164.3522
  20   2.0000      -6.035997      -164.2478
  21   2.0000      -6.035947      -164.2465
  22   2.0000      -6.032613      -164.1557
  23   2.0000      -6.031913      -164.1367
  24   2.0000      -1.012715       -27.5574
  25   2.0000      -0.987706       -26.8768
  26   2.0000      -0.907457       -24.6932
  27   2.0000      -0.905734       -24.6463
  28   2.0000      -0.867884       -23.6163
  29   2.0000      -0.854111       -23.2416
  30   2.0000      -0.845555       -23.0087
  31   2.0000      -0.810689       -22.0600
  32   2.0000      -0.786370       -21.3982
  33   2.0000      -0.773442       -21.0464
  34   2.0000      -0.713069       -19.4036
  35   2.0000      -0.697598       -18.9826
  36   2.0000      -0.691200       -18.8085
  37   2.0000      -0.659685       -17.9509
  38   2.0000      -0.646180       -17.5835
  39   2.0000      -0.616471       -16.7750
  40   2.0000      -0.590893       -16.0790
  41   2.0000      -0.564549       -15.3622
  42   2.0000      -0.558184       -15.1890
  43   2.0000      -0.545316       -14.8388
  44   2.0000      -0.542076       -14.7506
  45   2.0000      -0.536371       -14.5954
  46   2.0000      -0.523618       -14.2484
  47   2.0000      -0.516040       -14.0422
  48   2.0000      -0.503019       -13.6878
  49   2.0000      -0.487051       -13.2533
  50   2.0000      -0.486219       -13.2307
  51   2.0000      -0.483891       -13.1673
  52   2.0000      -0.472257       -12.8508
  53   2.0000      -0.467042       -12.7089
  54   2.0000      -0.458020       -12.4634
  55   2.0000      -0.446198       -12.1417
  56   2.0000      -0.443836       -12.0774
  57   2.0000      -0.441582       -12.0160
  58   2.0000      -0.434557       -11.8249
  59   2.0000      -0.427114       -11.6224
  60   2.0000      -0.420834       -11.4515
  61   2.0000      -0.413228       -11.2445
  62   2.0000      -0.410131       -11.1602
  63   2.0000      -0.345114        -9.3910
  64   2.0000      -0.334254        -9.0955
  65   2.0000      -0.332830        -9.0568
  66   2.0000      -0.290322        -7.9001
  67   0.0000       0.035547         0.9673
  68   0.0000       0.061002         1.6599
  69   0.0000       0.108416         2.9502
  70   0.0000       0.118391         3.2216
  71   0.0000       0.125449         3.4136

MULLIKEN ATOMIC CHARGES
-----------------------
   0 S :    0.123884
   1 C :   -0.115422
   2 C :   -0.046426
   3 C :    0.028154
   4 C :   -0.161304
   5 H :   -0.018404
   6 C :    0.028840
   7 H :    0.038015
   8 H :    0.038977
   9 C :   -0.065194
  10 H :    0.038517
  11 H :    0.032234
  12 C :   -0.112235
  13 H :    0.048643
  14 H :    0.048264
  15 H :    0.037862
  16 S :    0.117088
  17 C :   -0.084284
  18 C :   -0.052584
  19 C :   -0.005473
  20 C :   -0.181757
  21 H :    0.015886
  22 C :    0.067823
  23 H :    0.017738
  24 H :    0.032555
  25 C :   -0.077764
  26 H :    0.026298
  27 H :    0.044252
  28 C :   -0.025668
  29 H :    0.029912
  30 H :    0.030822
  31 H :    0.027372
  32 H :    0.026796
  33 H :    0.046585
Sum of atomic charges:   -0.0000000

LOEWDIN ATOMIC CHARGES
----------------------
   0 S :    0.422716
   1 C :   -0.190364
   2 C :   -0.066369
   3 C :   -0.063410
   4 C :   -0.201449
   5 H :    0.022089
   6 C :   -0.028178
   7 H :    0.033780
   8 H :    0.033275
   9 C :   -0.043698
  10 H :    0.028388
  11 H :    0.024246
  12 C :   -0.078917
  13 H :    0.032052
  14 H :    0.023363
  15 H :    0.027813
  16 S :    0.399202
  17 C :   -0.192788
  18 C :   -0.075359
  19 C :   -0.051323
  20 C :   -0.189304
  21 H :    0.029609
  22 C :   -0.029034
  23 H :    0.034128
  24 H :    0.033181
  25 C :   -0.044430
  26 H :    0.027770
  27 H :    0.026928
  28 C :   -0.057359
  29 H :    0.031504
  30 H :    0.016488
  31 H :    0.022719
  32 H :    0.014691
  33 H :    0.028037

  Mayer bond orders larger than 0.100000
B(  0-S ,  1-C ) :   1.1465 B(  0-S ,  4-C ) :   1.1646 B(  1-C ,  2-C ) :   1.5813
B(  1-C ,  4-C ) :   0.1043 B(  1-C , 32-H ) :   0.9745 B(  2-C ,  3-C ) :   1.2222
B(  2-C ,  6-C ) :   1.0368 B(  3-C ,  4-C ) :   1.5736 B(  3-C ,  5-H ) :   1.0128
B(  4-C , 20-C ) :   1.0313 B(  6-C ,  7-H ) :   0.9450 B(  6-C ,  8-H ) :   0.9422
B(  6-C ,  9-C ) :   1.0487 B(  9-C , 10-H ) :   0.9564 B(  9-C , 11-H ) :   0.9585
B(  9-C , 12-C ) :   1.0697 B( 12-C , 13-H ) :   0.9711 B( 12-C , 14-H ) :   0.9705
B( 12-C , 15-H ) :   0.9748 B( 16-S , 17-C ) :   1.1360 B( 16-S , 20-C ) :   1.1267
B( 17-C , 18-C ) :   1.6671 B( 17-C , 33-H ) :   0.9675 B( 18-C , 19-C ) :   1.1886
B( 18-C , 21-H ) :   0.9824 B( 19-C , 20-C ) :   1.6487 B( 19-C , 22-C ) :   1.0212
B( 22-C , 23-H ) :   0.9355 B( 22-C , 24-H ) :   0.9357 B( 22-C , 25-C ) :   1.0576
B( 25-C , 26-H ) :   0.9519 B( 25-C , 27-H ) :   0.9617 B( 25-C , 28-C ) :   1.0696
B( 28-C , 29-H ) :   0.9729 B( 28-C , 30-H ) :   0.9817 B( 28-C , 31-H ) :   0.9753

Dispersion correction           -0.016056865
FINAL SINGLE POINT ENERGY     -1339.866129939378

DIPOLE MOMENT
-------------
                                X             Y             Z
Electronic contribution:      4.13378      -3.47118      29.14358
Nuclear contribution   :     -4.43094       3.21963     -29.81563
                        -----------------------------------------
Total Dipole Moment    :     -0.29715      -0.25156      -0.67205
                        -----------------------------------------
Magnitude (a.u.)       :      0.77668
Magnitude (Debye)      :      1.97416

Rotational constants in cm-1:     0.020388     0.009867     0.007658
Rotational constants in MHz :   611.215596   295.813618   229.590778

                             ****ORCA TERMINATED NORMALLY****
TOTAL RUN TIME: 0 days 0 hours 0 minutes 38 seconds 196 msec
