                         Program Version 4.2.1 -  RELEASE  -
|  1> ! wB97X-D3 SP def2-SVP
|  2> %pal
|  3> nprocs 16
|  4> end
|  5>
|  6> * xyz 0 1
|  7> S 	 2.90878 	 -10.4072 	 77.4042
|  8> C 	 4.33525 	 -10.0203 	 78.188
|  9> C 	 4.6699 	 -10.8209 	 79.2717
| 10> C 	 3.60971 	 -11.6593 	 79.6103
| 11> C 	 2.59526 	 -11.6593 	 78.6969
| 12> H 	 3.66115 	 -12.3759 	 80.3945
| 13> C 	 5.97661 	 -10.7021 	 80.0765
| 14> H 	 6.74577 	 -10.3183 	 79.3693
| 15> H 	 6.2708 	 -11.7279 	 80.4455
| 16> C 	 5.89004 	 -9.84161 	 81.3802
| 17> H 	 5.57009 	 -8.84463 	 81.1082
| 18> H 	 5.00404 	 -10.0715 	 82.0135
| 19> C 	 7.17903 	 -9.63861 	 82.1589
| 20> H 	 7.98792 	 -9.24219 	 81.516
| 21> H 	 7.10491 	 -8.90526 	 82.944
| 22> H 	 7.51589 	 -10.6299 	 82.5652
| 23> S 	 -0.105519 	 -11.5406 	 77.9188
| 24> C 	 -1.28481 	 -12.656 	 78.6129
| 25> C 	 -0.595757 	 -13.4887 	 79.5112
| 26> C 	 0.771633 	 -13.2002 	 79.6626
| 27> C 	 1.2535 	 -12.1997 	 78.857
| 28> H 	 -1.16612 	 -14.3294 	 79.9578
| 29> C 	 1.57503 	 -14.1637 	 80.5
| 30> H 	 2.66815 	 -14.0762 	 80.3224
| 31> H 	 1.36668 	 -15.1622 	 80.1182
| 32> C 	 1.25849 	 -14.1068 	 82.0215
| 33> H 	 0.191776 	 -14.0303 	 82.1098
| 34> H 	 1.74952 	 -13.2792 	 82.3972
| 35> C 	 1.70024 	 -15.4794 	 82.7095
| 36> H 	 1.53587 	 -15.3574 	 83.7324
| 37> H 	 2.70314 	 -15.7342 	 82.505
| 38> H 	 1.10636 	 -16.3133 	 82.4088
| 39> H 	 5.00714 	 -9.32993 	 77.7462
| 40> H 	 -2.40496 	 -12.7349 	 78.3352
| 41> *
| 42>
| 43>                          ****END OF INPUT****

CARTESIAN COORDINATES (ANGSTROEM)
---------------------------------
  S      2.908780  -10.407200   77.404200
  C      4.335250  -10.020300   78.188000
  C      4.669900  -10.820900   79.271700
  C      3.609710  -11.659300   79.610300
  C      2.595260  -11.659300   78.696900
  H      3.661150  -12.375900   80.394500
  C      5.976610  -10.702100   80.076500
  H      6.745770  -10.318300   79.369300
  H      6.270800  -11.727900   80.445500
  C      5.890040   -9.841610   81.380200
  H      5.570090   -8.844630   81.108200
  H      5.004040  -10.071500   82.013500
  C      7.179030   -9.638610   82.158900
  H      7.987920   -9.242190   81.516000
  H      7.104910   -8.905260   82.944000
  H      7.515890  -10.629900   82.565200
  S     -0.105519  -11.540600   77.918800
  C     -1.284810  -12.656000   78.612900
  C     -0.595757  -13.488700   79.511200
  C      0.771633  -13.200200   79.662600
  C      1.253500  -12.199700   78.857000
  H     -1.166120  -14.329400   79.957800
  C      1.575030  -14.163700   80.500000
  H      2.668150  -14.076200   80.322400
  H      1.366680  -15.162200   80.118200
  C      1.258490  -14.106800   82.021500
  H      0.191776  -14.030300   82.109800
  H      1.749520  -13.279200   82.397200
  C      1.700240  -15.479400   82.709500
  H      1.535870  -15.357400   83.732400
  H      2.703140  -15.734200   82.505000
  H      1.106360  -16.313300   82.408800
  H      5.007140   -9.329930   77.746200
  H     -2.404960  -12.734900   78.335200

 Total Charge           Charge          ....    0
 Multiplicity           Mult            ....    1
 Number of Electrons    NEL             ....  134
 Basis Dimension        Dim             ....  322

ORBITAL ENERGIES
----------------

  NO   OCC          E(Eh)            E(eV)
   0   2.0000     -88.969716     -2420.9891
   1   2.0000     -88.963844     -2420.8293
   2   2.0000     -10.333759      -281.1959
   3   2.0000     -10.328902      -281.0637
   4   2.0000     -10.327169      -281.0165
   5   2.0000     -10.308989      -280.5218
   6   2.0000     -10.305350      -280.4228
   7   2.0000     -10.299681      -280.2686
   8   2.0000     -10.296461      -280.1810
   9   2.0000     -10.295723      -280.1609
  10   2.0000     -10.291444      -280.0444
  11   2.0000     -10.290104      -280.0080
  12   2.0000     -10.288474      -279.9636
  13   2.0000     -10.284653      -279.8596
  14   2.0000     -10.283657      -279.8325
  15   2.0000     -10.271884      -279.5122
  16   2.0000      -8.084904      -220.0014
  17   2.0000      -8.077800      -219.8081
  18   2.0000      -6.043194      -164.4437
  19   2.0000      -6.039526      -164.3439
  20   2.0000      -6.036524      -164.2622
  21   2.0000      -6.035687      -164.2394
  22   2.0000      -6.032340      -164.1483
  23   2.0000      -6.028462      -164.0428
  24   2.0000      -1.009498       -27.4698
  25   2.0000      -0.986212       -26.8362
  26   2.0000      -0.906676       -24.6719
  27   2.0000      -0.903989       -24.5988
  28   2.0000      -0.872476       -23.7413
  29   2.0000      -0.859466       -23.3873
  30   2.0000      -0.845917       -23.0186
  31   2.0000      -0.813767       -22.1437
  32   2.0000      -0.780641       -21.2423
  33   2.0000      -0.768631       -20.9155
  34   2.0000      -0.711808       -19.3693
  35   2.0000      -0.699793       -19.0423
  36   2.0000      -0.697166       -18.9709
  37   2.0000      -0.666866       -18.1464
  38   2.0000      -0.641215       -17.4484
  39   2.0000      -0.627288       -17.0694
  40   2.0000      -0.593872       -16.1601
  41   2.0000      -0.568343       -15.4654
  42   2.0000      -0.562047       -15.2941
  43   2.0000      -0.550950       -14.9921
  44   2.0000      -0.528427       -14.3792
  45   2.0000      -0.524637       -14.2761
  46   2.0000      -0.516767       -14.0619
  47   2.0000      -0.512676       -13.9506
  48   2.0000      -0.504646       -13.7321
  49   2.0000      -0.499612       -13.5951
  50   2.0000      -0.496019       -13.4974
  51   2.0000      -0.479470       -13.0470
  52   2.0000      -0.473352       -12.8806
  53   2.0000      -0.467676       -12.7261
  54   2.0000      -0.462658       -12.5896
  55   2.0000      -0.449544       -12.2327
  56   2.0000      -0.443815       -12.0768
  57   2.0000      -0.438392       -11.9293
  58   2.0000      -0.436726       -11.8839
  59   2.0000      -0.433416       -11.7939
  60   2.0000      -0.426573       -11.6076
  61   2.0000      -0.408596       -11.1184
  62   2.0000      -0.406077       -11.0499
  63   2.0000      -0.367980       -10.0133
  64   2.0000      -0.337342        -9.1795
  65   2.0000      -0.327483        -8.9113
  66   2.0000      -0.277082        -7.5398
  67   0.0000       0.018313         0.4983
  68   0.0000       0.081978         2.2307
  69   0.0000       0.092220         2.5094
  70   0.0000       0.117977         3.2103
  71   0.0000       0.132275         3.5994

MULLIKEN ATOMIC CHARGES
-----------------------
   0 S :    0.111053
   1 C :   -0.107503
   2 C :   -0.075995
   3 C :    0.005292
   4 C :   -0.115538
   5 H :   -0.000886
   6 C :    0.052526
   7 H :    0.033120
   8 H :    0.031169
   9 C :   -0.076609
  10 H :    0.009019
  11 H :    0.029190
  12 C :   -0.040584
  13 H :    0.030347
  14 H :    0.035620
  15 H :    0.033966
  16 S :    0.081419
  17 C :   -0.134933
  18 C :   -0.051501
  19 C :   -0.028958
  20 C :   -0.098702
  21 H :    0.035120
  22 C :    0.003082
  23 H :    0.021535
  24 H :    0.025035
  25 C :   -0.037666
  26 H :    0.027144
  27 H :    0.018527
  28 C :   -0.015935
  29 H :    0.023422
  30 H :    0.022603
  31 H :    0.023674
  32 H :    0.035580
  33 H :    0.096366
Sum of atomic charges:   -0.0000000

LOEWDIN ATOMIC CHARGES
----------------------
   0 S :    0.410732
   1 C :   -0.204319
   2 C :   -0.068423
   3 C :   -0.052869
   4 C :   -0.161541
   5 H :    0.026942
   6 C :   -0.029294
   7 H :    0.034191
   8 H :    0.032658
   9 C :   -0.055028
  10 H :    0.020178
  11 H :    0.028937
  12 C :   -0.067300
  13 H :    0.028275
  14 H :    0.026517
  15 H :    0.026461
  16 S :    0.380728
  17 C :   -0.201277
  18 C :   -0.077127
  19 C :   -0.073013
  20 C :   -0.183059
  21 H :    0.036953
  22 C :   -0.033604
  23 H :    0.025340
  24 H :    0.029903
  25 C :   -0.017839
  26 H :    0.021839
  27 H :    0.013684
  28 C :   -0.052404
  29 H :    0.019217
  30 H :    0.018497
  31 H :    0.023132
  32 H :    0.018319
  33 H :    0.054592

  Mayer bond orders larger than 0.100000
B(  0-S ,  1-C ) :   1.1783 B(  0-S ,  4-C ) :   1.1249 B(  1-C ,  2-C ) :   1.5795
B(  1-C , 32-H ) :   0.9631 B(  2-C ,  3-C ) :   1.2782 B(  2-C ,  6-C ) :   1.0299
B(  3-C ,  4-C ) :   1.5696 B(  3-C ,  5-H ) :   0.9802 B(  4-C , 20-C ) :   1.0858
B(  6-C ,  7-H ) :   0.9410 B(  6-C ,  8-H ) :   0.9411 B(  6-C ,  9-C ) :   1.0527
B(  9-C , 10-H ) :   0.9489 B(  9-C , 11-H ) :   0.9543 B(  9-C , 12-C ) :   1.0845
B( 12-C , 13-H ) :   0.9724 B( 12-C , 14-H ) :   0.9730 B( 12-C , 15-H ) :   0.9753
B( 16-S , 17-C ) :   1.1511 B( 16-S , 20-C ) :   1.1167 B( 17-C , 18-C ) :   1.5922
B( 17-C , 33-H ) :   0.9569 B( 18-C , 19-C ) :   1.2586 B( 18-C , 21-H ) :   0.9833
B( 19-C , 20-C ) :   1.5940 B( 19-C , 22-C ) :   1.0297 B( 22-C , 23-H ) :   0.9380
B( 22-C , 24-H ) :   0.9450 B( 22-C , 25-C ) :   1.0500 B( 25-C , 26-H ) :   0.9612
B( 25-C , 27-H ) :   0.9569 B( 25-C , 28-C ) :   1.0763 B( 28-C , 29-H ) :   0.9759
B( 28-C , 30-H ) :   0.9779 B( 28-C , 31-H ) :   0.9763

Dispersion correction           -0.013486083
FINAL SINGLE POINT ENERGY     -1339.871323912154

DIPOLE MOMENT
-------------
                                X             Y             Z
Electronic contribution:    -16.67754       8.51617     -26.07475
Nuclear contribution   :     16.95646      -8.78525      26.59686
                        -----------------------------------------
Total Dipole Moment    :      0.27892      -0.26908       0.52211
                        -----------------------------------------
Magnitude (a.u.)       :      0.65023
Magnitude (Debye)      :      1.65275

Rotational constants in cm-1:     0.016479     0.008864     0.006070
Rotational constants in MHz :   494.030749   265.747249   181.979243

                             ****ORCA TERMINATED NORMALLY****
TOTAL RUN TIME: 0 days 0 hours 0 minutes 32 seconds 787 msec
