                         Program Version 4.2.1 -  RELEASE  -
|  1> ! wB97X-D3 SP def2-SVP
|  2> %pal
|  3> nprocs 16
|  4> end
|  5>
|  6> * xyz 0 1
|  7> S 	 -6.09457 	 48.0677 	 30.9995
|  8> C 	 -4.3939 	 47.7766 	 31.5409
|  9> C 	 -3.89573 	 48.8459 	 32.3027
| 10> C 	 -4.94108 	 49.7672 	 32.6393
| 11> C 	 -6.19024 	 49.5184 	 32.0479
| 12> H 	 -4.80334 	 50.7403 	 33.1007
| 13> C 	 -2.48845 	 48.9524 	 32.8896
| 14> H 	 -2.39098 	 49.7346 	 33.6329
| 15> H 	 -1.76955 	 49.2259 	 32.0951
| 16> C 	 -2.04392 	 47.7945 	 33.7448
| 17> H 	 -2.69199 	 47.8749 	 34.6314
| 18> H 	 -2.31746 	 46.8852 	 33.2731
| 19> C 	 -0.558382 	 47.9252 	 34.198
| 20> H 	 0.134678 	 47.1872 	 33.7589
| 21> H 	 -0.0768794 	 48.925 	 34.0786
| 22> H 	 -0.723629 	 47.5289 	 35.2119
| 23> S 	 -8.57318 	 50.3612 	 30.9214
| 24> C 	 -9.59457 	 51.4078 	 31.808
| 25> C 	 -9.18934 	 51.6733 	 33.0567
| 26> C 	 -7.89125 	 51.113 	 33.2772
| 27> C 	 -7.38352 	 50.3615 	 32.2103
| 28> H 	 -9.8221 	 52.2397 	 33.7818
| 29> C 	 -7.321 	 51.2144 	 34.7166
| 30> H 	 -7.73264 	 52.2266 	 35.1093
| 31> H 	 -6.19451 	 51.0422 	 34.7793
| 32> C 	 -8.0329 	 50.2217 	 35.6762
| 33> H 	 -7.87654 	 49.163 	 35.3026
| 34> H 	 -9.09328 	 50.359 	 35.7533
| 35> C 	 -7.54088 	 50.4355 	 37.0816
| 36> H 	 -7.81274 	 51.4678 	 37.4002
| 37> H 	 -6.5259 	 50.0588 	 37.2024
| 38> H 	 -8.14566 	 49.8117 	 37.809
| 39> H 	 -3.81158 	 46.8828 	 31.2794
| 40> H 	 -10.5807 	 51.6201 	 31.4154
| 41> *
| 42>
| 43>                          ****END OF INPUT****

CARTESIAN COORDINATES (ANGSTROEM)
---------------------------------
  S     -6.094570   48.067700   30.999500
  C     -4.393900   47.776600   31.540900
  C     -3.895730   48.845900   32.302700
  C     -4.941080   49.767200   32.639300
  C     -6.190240   49.518400   32.047900
  H     -4.803340   50.740300   33.100700
  C     -2.488450   48.952400   32.889600
  H     -2.390980   49.734600   33.632900
  H     -1.769550   49.225900   32.095100
  C     -2.043920   47.794500   33.744800
  H     -2.691990   47.874900   34.631400
  H     -2.317460   46.885200   33.273100
  C     -0.558382   47.925200   34.198000
  H      0.134678   47.187200   33.758900
  H     -0.076879   48.925000   34.078600
  H     -0.723629   47.528900   35.211900
  S     -8.573180   50.361200   30.921400
  C     -9.594570   51.407800   31.808000
  C     -9.189340   51.673300   33.056700
  C     -7.891250   51.113000   33.277200
  C     -7.383520   50.361500   32.210300
  H     -9.822100   52.239700   33.781800
  C     -7.321000   51.214400   34.716600
  H     -7.732640   52.226600   35.109300
  H     -6.194510   51.042200   34.779300
  C     -8.032900   50.221700   35.676200
  H     -7.876540   49.163000   35.302600
  H     -9.093280   50.359000   35.753300
  C     -7.540880   50.435500   37.081600
  H     -7.812740   51.467800   37.400200
  H     -6.525900   50.058800   37.202400
  H     -8.145660   49.811700   37.809000
  H     -3.811580   46.882800   31.279400
  H    -10.580700   51.620100   31.415400

 Total Charge           Charge          ....    0
 Multiplicity           Mult            ....    1
 Number of Electrons    NEL             ....  134
 Basis Dimension        Dim             ....  322

ORBITAL ENERGIES
----------------

  NO   OCC          E(Eh)            E(eV)
   0   2.0000     -88.971942     -2421.0496
   1   2.0000     -88.963206     -2420.8119
   2   2.0000     -10.338879      -281.3352
   3   2.0000     -10.330904      -281.1182
   4   2.0000     -10.323539      -280.9178
   5   2.0000     -10.312351      -280.6133
   6   2.0000     -10.308175      -280.4997
   7   2.0000     -10.308007      -280.4951
   8   2.0000     -10.306621      -280.4574
   9   2.0000     -10.295671      -280.1595
  10   2.0000     -10.295502      -280.1549
  11   2.0000     -10.291183      -280.0373
  12   2.0000     -10.287002      -279.9236
  13   2.0000     -10.285674      -279.8874
  14   2.0000     -10.284962      -279.8680
  15   2.0000     -10.282048      -279.7888
  16   2.0000      -8.084695      -219.9957
  17   2.0000      -8.079146      -219.8447
  18   2.0000      -6.043416      -164.4497
  19   2.0000      -6.039585      -164.3455
  20   2.0000      -6.037607      -164.2916
  21   2.0000      -6.035247      -164.2274
  22   2.0000      -6.033507      -164.1801
  23   2.0000      -6.029896      -164.0818
  24   2.0000      -1.006994       -27.4017
  25   2.0000      -0.978126       -26.6162
  26   2.0000      -0.915013       -24.8988
  27   2.0000      -0.908223       -24.7140
  28   2.0000      -0.869135       -23.6504
  29   2.0000      -0.852901       -23.2086
  30   2.0000      -0.843222       -22.9452
  31   2.0000      -0.811529       -22.0828
  32   2.0000      -0.780045       -21.2261
  33   2.0000      -0.767205       -20.8767
  34   2.0000      -0.705124       -19.1874
  35   2.0000      -0.697257       -18.9733
  36   2.0000      -0.684232       -18.6189
  37   2.0000      -0.662596       -18.0301
  38   2.0000      -0.636085       -17.3088
  39   2.0000      -0.616353       -16.7718
  40   2.0000      -0.597323       -16.2540
  41   2.0000      -0.579335       -15.7645
  42   2.0000      -0.570837       -15.5333
  43   2.0000      -0.557372       -15.1669
  44   2.0000      -0.528868       -14.3912
  45   2.0000      -0.518520       -14.1096
  46   2.0000      -0.517190       -14.0735
  47   2.0000      -0.511048       -13.9063
  48   2.0000      -0.503489       -13.7006
  49   2.0000      -0.496131       -13.5004
  50   2.0000      -0.484268       -13.1776
  51   2.0000      -0.477744       -13.0001
  52   2.0000      -0.475373       -12.9356
  53   2.0000      -0.463430       -12.6106
  54   2.0000      -0.458823       -12.4852
  55   2.0000      -0.455182       -12.3861
  56   2.0000      -0.445898       -12.1335
  57   2.0000      -0.431173       -11.7328
  58   2.0000      -0.425139       -11.5686
  59   2.0000      -0.419399       -11.4124
  60   2.0000      -0.417263       -11.3543
  61   2.0000      -0.413855       -11.2616
  62   2.0000      -0.410690       -11.1754
  63   2.0000      -0.359676        -9.7873
  64   2.0000      -0.335137        -9.1195
  65   2.0000      -0.329175        -8.9573
  66   2.0000      -0.282078        -7.6757
  67   0.0000       0.019485         0.5302
  68   0.0000       0.073269         1.9937
  69   0.0000       0.100014         2.7215
  70   0.0000       0.115916         3.1542
  71   0.0000       0.131159         3.5690

MULLIKEN ATOMIC CHARGES
-----------------------
   0 S :    0.102777
   1 C :   -0.148052
   2 C :   -0.054184
   3 C :   -0.020375
   4 C :   -0.108635
   5 H :    0.030159
   6 C :    0.044521
   7 H :    0.013401
   8 H :    0.044821
   9 C :   -0.075308
  10 H :    0.031330
  11 H :    0.016922
  12 C :   -0.070354
  13 H :    0.039843
  14 H :    0.054228
  15 H :    0.039660
  16 S :    0.090675
  17 C :   -0.075818
  18 C :   -0.043860
  19 C :   -0.035429
  20 C :   -0.141626
  21 H :    0.039184
  22 C :    0.005185
  23 H :    0.032444
  24 H :    0.043127
  25 C :   -0.089958
  26 H :    0.043368
  27 H :    0.021198
  28 C :   -0.051087
  29 H :    0.033786
  30 H :    0.040795
  31 H :    0.029979
  32 H :    0.062805
  33 H :    0.054481
Sum of atomic charges:    0.0000000

LOEWDIN ATOMIC CHARGES
----------------------
   0 S :    0.367231
   1 C :   -0.185629
   2 C :   -0.056399
   3 C :   -0.072526
   4 C :   -0.173928
   5 H :    0.032032
   6 C :   -0.038365
   7 H :    0.027166
   8 H :    0.032900
   9 C :   -0.036234
  10 H :    0.026476
  11 H :    0.013363
  12 C :   -0.076936
  13 H :    0.029593
  14 H :    0.033342
  15 H :    0.036626
  16 S :    0.409923
  17 C :   -0.185258
  18 C :   -0.078369
  19 C :   -0.055995
  20 C :   -0.200139
  21 H :    0.043811
  22 C :   -0.038054
  23 H :    0.038352
  24 H :    0.035574
  25 C :   -0.048596
  26 H :    0.030461
  27 H :    0.018667
  28 C :   -0.071783
  29 H :    0.028784
  30 H :    0.025117
  31 H :    0.030068
  32 H :    0.031716
  33 H :    0.027011

  Mayer bond orders larger than 0.100000
B(  0-S ,  1-C ) :   1.1206 B(  0-S ,  4-C ) :   1.1319 B(  1-C ,  2-C ) :   1.6056
B(  1-C ,  4-C ) :   0.1020 B(  1-C , 32-H ) :   0.9657 B(  2-C ,  3-C ) :   1.2495
B(  2-C ,  6-C ) :   1.0166 B(  3-C ,  4-C ) :   1.5778 B(  3-C ,  5-H ) :   0.9794
B(  4-C , 20-C ) :   1.0820 B(  6-C ,  7-H ) :   0.9541 B(  6-C ,  8-H ) :   0.9372
B(  6-C ,  9-C ) :   1.0537 B(  9-C , 10-H ) :   0.9719 B(  9-C , 11-H ) :   0.9599
B(  9-C , 12-C ) :   1.0426 B( 12-C , 13-H ) :   0.9771 B( 12-C , 14-H ) :   0.9764
B( 12-C , 15-H ) :   0.9803 B( 16-S , 17-C ) :   1.1698 B( 16-S , 20-C ) :   1.1235
B( 17-C , 18-C ) :   1.6183 B( 17-C , 33-H ) :   0.9627 B( 18-C , 19-C ) :   1.2377
B( 18-C , 21-H ) :   0.9852 B( 19-C , 20-C ) :   1.5931 B( 19-C , 22-C ) :   1.0365
B( 22-C , 23-H ) :   0.9339 B( 22-C , 24-H ) :   0.9413 B( 22-C , 25-C ) :   1.0589
B( 25-C , 26-H ) :   0.9532 B( 25-C , 27-H ) :   0.9553 B( 25-C , 28-C ) :   1.0890
B( 28-C , 29-H ) :   0.9696 B( 28-C , 30-H ) :   0.9739 B( 28-C , 31-H ) :   0.9717

Dispersion correction           -0.013347524
FINAL SINGLE POINT ENERGY     -1339.858868460447

DIPOLE MOMENT
-------------
                                X             Y             Z
Electronic contribution:    -17.34395       0.34210     -26.37974
Nuclear contribution   :     17.50158      -0.26977      27.01409
                        -----------------------------------------
Total Dipole Moment    :      0.15763       0.07233       0.63435
                        -----------------------------------------
Magnitude (a.u.)       :      0.65763
Magnitude (Debye)      :      1.67157

Rotational constants in cm-1:     0.018430     0.008152     0.006077
Rotational constants in MHz :   552.519171   244.392952   182.183564

                             ****ORCA TERMINATED NORMALLY****
TOTAL RUN TIME: 0 days 0 hours 0 minutes 32 seconds 896 msec
