                         Program Version 4.2.1 -  RELEASE  -
|  1> ! wB97X-D3 SP def2-SVP
|  2> %pal
|  3> nprocs 16
|  4> end
|  5>
|  6> * xyz 0 1
|  7> S 	 -30.4241 	 56.8621 	 102.207
|  8> C 	 -30.3492 	 55.7948 	 100.857
|  9> C 	 -31.587 	 55.4211 	 100.484
| 10> C 	 -32.5827 	 55.7957 	 101.44
| 11> C 	 -32.1543 	 56.6868 	 102.34
| 12> H 	 -33.6338 	 55.5177 	 101.352
| 13> C 	 -31.8217 	 54.5712 	 99.2579
| 14> H 	 -32.3234 	 53.6857 	 99.7218
| 15> H 	 -30.8985 	 54.2012 	 98.928
| 16> C 	 -32.5541 	 55.1977 	 97.9997
| 17> H 	 -33.3812 	 55.7573 	 98.3045
| 18> H 	 -31.8388 	 55.9244 	 97.5519
| 19> C 	 -32.9029 	 54.0575 	 97.0417
| 20> H 	 -32.009 	 53.5007 	 96.8237
| 21> H 	 -33.7558 	 53.424 	 97.4391
| 22> H 	 -33.2634 	 54.626 	 96.2235
| 23> S 	 -34.4111 	 56.3211 	 103.89
| 24> C 	 -34.8245 	 57.4951 	 105.172
| 25> C 	 -33.7752 	 58.3544 	 105.413
| 26> C 	 -32.7419 	 58.1696 	 104.369
| 27> C 	 -32.9997 	 57.2151 	 103.421
| 28> H 	 -33.7511 	 59.165 	 106.16
| 29> C 	 -31.6044 	 59.2043 	 104.312
| 30> H 	 -30.6786 	 58.8049 	 103.883
| 31> H 	 -31.4418 	 59.2431 	 105.366
| 32> C 	 -31.9154 	 60.537 	 103.806
| 33> H 	 -32.7895 	 60.9835 	 104.279
| 34> H 	 -32.2038 	 60.3693 	 102.735
| 35> C 	 -30.6471 	 61.3758 	 103.863
| 36> H 	 -30.8075 	 62.3118 	 103.355
| 37> H 	 -29.8299 	 60.835 	 103.388
| 38> H 	 -30.3356 	 61.532 	 104.977
| 39> H 	 -29.4301 	 55.3799 	 100.435
| 40> H 	 -35.671 	 57.4199 	 105.901
| 41> *
| 42>
| 43>                          ****END OF INPUT****

CARTESIAN COORDINATES (ANGSTROEM)
---------------------------------
  S    -30.424100   56.862100  102.207000
  C    -30.349200   55.794800  100.857000
  C    -31.587000   55.421100  100.484000
  C    -32.582700   55.795700  101.440000
  C    -32.154300   56.686800  102.340000
  H    -33.633800   55.517700  101.352000
  C    -31.821700   54.571200   99.257900
  H    -32.323400   53.685700   99.721800
  H    -30.898500   54.201200   98.928000
  C    -32.554100   55.197700   97.999700
  H    -33.381200   55.757300   98.304500
  H    -31.838800   55.924400   97.551900
  C    -32.902900   54.057500   97.041700
  H    -32.009000   53.500700   96.823700
  H    -33.755800   53.424000   97.439100
  H    -33.263400   54.626000   96.223500
  S    -34.411100   56.321100  103.890000
  C    -34.824500   57.495100  105.172000
  C    -33.775200   58.354400  105.413000
  C    -32.741900   58.169600  104.369000
  C    -32.999700   57.215100  103.421000
  H    -33.751100   59.165000  106.160000
  C    -31.604400   59.204300  104.312000
  H    -30.678600   58.804900  103.883000
  H    -31.441800   59.243100  105.366000
  C    -31.915400   60.537000  103.806000
  H    -32.789500   60.983500  104.279000
  H    -32.203800   60.369300  102.735000
  C    -30.647100   61.375800  103.863000
  H    -30.807500   62.311800  103.355000
  H    -29.829900   60.835000  103.388000
  H    -30.335600   61.532000  104.977000
  H    -29.430100   55.379900  100.435000
  H    -35.671000   57.419900  105.901000

 Total Charge           Charge          ....    0
 Multiplicity           Mult            ....    1
 Number of Electrons    NEL             ....  134
 Basis Dimension        Dim             ....  322

ORBITAL ENERGIES
----------------

  NO   OCC          E(Eh)            E(eV)
   0   2.0000     -88.964685     -2420.8522
   1   2.0000     -88.963674     -2420.8246
   2   2.0000     -10.327601      -281.0283
   3   2.0000     -10.325562      -280.9728
   4   2.0000     -10.325433      -280.9693
   5   2.0000     -10.306683      -280.4591
   6   2.0000     -10.302622      -280.3486
   7   2.0000     -10.301149      -280.3085
   8   2.0000     -10.293120      -280.0900
   9   2.0000     -10.287936      -279.9490
  10   2.0000     -10.287852      -279.9467
  11   2.0000     -10.287580      -279.9393
  12   2.0000     -10.281227      -279.7664
  13   2.0000     -10.280422      -279.7445
  14   2.0000     -10.280102      -279.7358
  15   2.0000     -10.279641      -279.7233
  16   2.0000      -8.079010      -219.8410
  17   2.0000      -8.078702      -219.8326
  18   2.0000      -6.037815      -164.2973
  19   2.0000      -6.037367      -164.2851
  20   2.0000      -6.033684      -164.1849
  21   2.0000      -6.033186      -164.1713
  22   2.0000      -6.029368      -164.0674
  23   2.0000      -6.029267      -164.0647
  24   2.0000      -1.013686       -27.5838
  25   2.0000      -0.986815       -26.8526
  26   2.0000      -0.918495       -24.9935
  27   2.0000      -0.908906       -24.7326
  28   2.0000      -0.875731       -23.8299
  29   2.0000      -0.854307       -23.2469
  30   2.0000      -0.841217       -22.8907
  31   2.0000      -0.821105       -22.3434
  32   2.0000      -0.777670       -21.1615
  33   2.0000      -0.765640       -20.8341
  34   2.0000      -0.706584       -19.2271
  35   2.0000      -0.699676       -19.0392
  36   2.0000      -0.688230       -18.7277
  37   2.0000      -0.671467       -18.2716
  38   2.0000      -0.635935       -17.3047
  39   2.0000      -0.619215       -16.8497
  40   2.0000      -0.596073       -16.2200
  41   2.0000      -0.568468       -15.4688
  42   2.0000      -0.566625       -15.4187
  43   2.0000      -0.559141       -15.2150
  44   2.0000      -0.528965       -14.3939
  45   2.0000      -0.526042       -14.3143
  46   2.0000      -0.523318       -14.2402
  47   2.0000      -0.511737       -13.9251
  48   2.0000      -0.503995       -13.7144
  49   2.0000      -0.502343       -13.6694
  50   2.0000      -0.491050       -13.3622
  51   2.0000      -0.475898       -12.9498
  52   2.0000      -0.472614       -12.8605
  53   2.0000      -0.465435       -12.6651
  54   2.0000      -0.459400       -12.5009
  55   2.0000      -0.455054       -12.3826
  56   2.0000      -0.447047       -12.1648
  57   2.0000      -0.441829       -12.0228
  58   2.0000      -0.432620       -11.7722
  59   2.0000      -0.429304       -11.6820
  60   2.0000      -0.418009       -11.3746
  61   2.0000      -0.404791       -11.0149
  62   2.0000      -0.397059       -10.8045
  63   2.0000      -0.365481        -9.9453
  64   2.0000      -0.328645        -8.9429
  65   2.0000      -0.326667        -8.8891
  66   2.0000      -0.288260        -7.8440
  67   0.0000       0.027385         0.7452
  68   0.0000       0.083892         2.2828
  69   0.0000       0.110230         2.9995
  70   0.0000       0.123546         3.3619
  71   0.0000       0.128184         3.4881

MULLIKEN ATOMIC CHARGES
-----------------------
   0 S :    0.080798
   1 C :   -0.119755
   2 C :   -0.078001
   3 C :   -0.043117
   4 C :   -0.063113
   5 H :    0.022834
   6 C :    0.054547
   7 H :    0.032672
   8 H :   -0.011261
   9 C :   -0.063221
  10 H :    0.018933
  11 H :    0.035600
  12 C :   -0.030035
  13 H :    0.036129
  14 H :    0.048709
  15 H :    0.029065
  16 S :    0.074248
  17 C :   -0.093866
  18 C :   -0.029567
  19 C :   -0.117776
  20 C :   -0.081629
  21 H :    0.036480
  22 C :    0.023270
  23 H :    0.022022
  24 H :    0.007649
  25 C :   -0.036252
  26 H :    0.023949
  27 H :    0.029403
  28 C :   -0.044398
  29 H :    0.036294
  30 H :    0.032756
  31 H :    0.037773
  32 H :    0.053620
  33 H :    0.075240
Sum of atomic charges:   -0.0000000

LOEWDIN ATOMIC CHARGES
----------------------
   0 S :    0.414467
   1 C :   -0.204848
   2 C :   -0.067169
   3 C :   -0.075786
   4 C :   -0.181964
   5 H :    0.028967
   6 C :   -0.033370
   7 H :    0.035933
   8 H :    0.016134
   9 C :   -0.028772
  10 H :    0.013529
  11 H :    0.029791
  12 C :   -0.059433
  13 H :    0.024274
  14 H :    0.035655
  15 H :    0.023688
  16 S :    0.392227
  17 C :   -0.179575
  18 C :   -0.068972
  19 C :   -0.061018
  20 C :   -0.193688
  21 H :    0.037352
  22 C :   -0.043411
  23 H :    0.015605
  24 H :    0.025558
  25 C :   -0.045514
  26 H :    0.023184
  27 H :    0.030652
  28 C :   -0.062559
  29 H :    0.023147
  30 H :    0.025935
  31 H :    0.034059
  32 H :    0.034297
  33 H :    0.041625

  Mayer bond orders larger than 0.100000
B(  0-S ,  1-C ) :   1.1212 B(  0-S ,  4-C ) :   1.1255 B(  1-C ,  2-C ) :   1.6422
B(  1-C , 32-H ) :   0.9632 B(  2-C ,  3-C ) :   1.2244 B(  2-C ,  6-C ) :   1.0234
B(  3-C ,  4-C ) :   1.5810 B(  3-C ,  5-H ) :   0.9895 B(  4-C , 20-C ) :   1.0880
B(  6-C ,  7-H ) :   0.9439 B(  6-C ,  8-H ) :   0.9360 B(  6-C ,  9-C ) :   1.0466
B(  9-C , 10-H ) :   0.9616 B(  9-C , 11-H ) :   0.9543 B(  9-C , 12-C ) :   1.0751
B( 12-C , 13-H ) :   0.9744 B( 12-C , 14-H ) :   0.9758 B( 12-C , 15-H ) :   0.9741
B( 16-S , 17-C ) :   1.1317 B( 16-S , 20-C ) :   1.1074 B( 17-C , 18-C ) :   1.6452
B( 17-C , 33-H ) :   0.9589 B( 18-C , 19-C ) :   1.2112 B( 18-C , 21-H ) :   0.9825
B( 19-C , 20-C ) :   1.6309 B( 19-C , 22-C ) :   1.0299 B( 22-C , 23-H ) :   0.9376
B( 22-C , 24-H ) :   0.9201 B( 22-C , 25-C ) :   1.0761 B( 25-C , 26-H ) :   0.9481
B( 25-C , 27-H ) :   0.9452 B( 25-C , 28-C ) :   1.0808 B( 28-C , 29-H ) :   0.9721
B( 28-C , 30-H ) :   0.9718 B( 28-C , 31-H ) :   0.9733

Dispersion correction           -0.013507388
FINAL SINGLE POINT ENERGY     -1339.865262681026

DIPOLE MOMENT
-------------
                                X             Y             Z
Electronic contribution:     -3.63841      -6.01679      13.81040
Nuclear contribution   :      3.64574       6.08485     -14.00023
                        -----------------------------------------
Total Dipole Moment    :      0.00733       0.06806      -0.18983
                        -----------------------------------------
Magnitude (a.u.)       :      0.20179
Magnitude (Debye)      :      0.51292

Rotational constants in cm-1:     0.020766     0.007630     0.006221
Rotational constants in MHz :   622.562738   228.733605   186.501563

                             ****ORCA TERMINATED NORMALLY****
TOTAL RUN TIME: 0 days 0 hours 0 minutes 27 seconds 266 msec
