                         Program Version 4.2.1 -  RELEASE  -
|  1> ! wB97X-D3 SP def2-SVP
|  2> %pal
|  3> nprocs 16
|  4> end
|  5>
|  6> * xyz 0 1
|  7> S 	 -1.53491 	 76.7552 	 49.7871
|  8> C 	 -1.46833 	 78.275 	 50.6457
|  9> C 	 -2.70853 	 78.9182 	 50.4777
| 10> C 	 -3.67225 	 78.1509 	 49.7395
| 11> C 	 -3.22742 	 76.8546 	 49.5015
| 12> H 	 -4.59649 	 78.5743 	 49.3683
| 13> C 	 -2.92258 	 80.3517 	 50.8467
| 14> H 	 -2.82079 	 80.3942 	 51.8992
| 15> H 	 -3.93124 	 80.592 	 50.7505
| 16> C 	 -2.00717 	 81.2178 	 50.0386
| 17> H 	 -0.955772 	 81.2167 	 50.2993
| 18> H 	 -2.04141 	 80.9134 	 49.0073
| 19> C 	 -2.50019 	 82.7137 	 50.0923
| 20> H 	 -3.5653 	 82.779 	 49.8596
| 21> H 	 -2.31254 	 83.1421 	 51.1201
| 22> H 	 -1.85944 	 83.3326 	 49.4797
| 23> S 	 -3.05068 	 74.9674 	 47.5164
| 24> C 	 -4.48883 	 74.0382 	 46.9861
| 25> C 	 -5.58077 	 74.5644 	 47.6491
| 26> C 	 -5.30132 	 75.6373 	 48.6021
| 27> C 	 -3.94792 	 75.8806 	 48.6853
| 28> H 	 -6.54466 	 74.1955 	 47.4208
| 29> C 	 -6.38604 	 76.261 	 49.3593
| 30> H 	 -6.04721 	 76.9698 	 50.1519
| 31> H 	 -6.92522 	 75.447 	 49.849
| 32> C 	 -7.32731 	 76.9923 	 48.366
| 33> H 	 -7.7427 	 76.3348 	 47.7014
| 34> H 	 -6.73569 	 77.7404 	 47.824
| 35> C 	 -8.59424 	 77.6127 	 49.0087
| 36> H 	 -8.33272 	 78.2204 	 49.8648
| 37> H 	 -9.2984 	 76.7781 	 49.277
| 38> H 	 -9.2493 	 78.1669 	 48.3166
| 39> H 	 -0.646833 	 78.6655 	 51.0633
| 40> H 	 -4.35148 	 73.3114 	 46.1903
| 41> *
| 42>
| 43>                          ****END OF INPUT****

CARTESIAN COORDINATES (ANGSTROEM)
---------------------------------
  S     -1.534910   76.755200   49.787100
  C     -1.468330   78.275000   50.645700
  C     -2.708530   78.918200   50.477700
  C     -3.672250   78.150900   49.739500
  C     -3.227420   76.854600   49.501500
  H     -4.596490   78.574300   49.368300
  C     -2.922580   80.351700   50.846700
  H     -2.820790   80.394200   51.899200
  H     -3.931240   80.592000   50.750500
  C     -2.007170   81.217800   50.038600
  H     -0.955772   81.216700   50.299300
  H     -2.041410   80.913400   49.007300
  C     -2.500190   82.713700   50.092300
  H     -3.565300   82.779000   49.859600
  H     -2.312540   83.142100   51.120100
  H     -1.859440   83.332600   49.479700
  S     -3.050680   74.967400   47.516400
  C     -4.488830   74.038200   46.986100
  C     -5.580770   74.564400   47.649100
  C     -5.301320   75.637300   48.602100
  C     -3.947920   75.880600   48.685300
  H     -6.544660   74.195500   47.420800
  C     -6.386040   76.261000   49.359300
  H     -6.047210   76.969800   50.151900
  H     -6.925220   75.447000   49.849000
  C     -7.327310   76.992300   48.366000
  H     -7.742700   76.334800   47.701400
  H     -6.735690   77.740400   47.824000
  C     -8.594240   77.612700   49.008700
  H     -8.332720   78.220400   49.864800
  H     -9.298400   76.778100   49.277000
  H     -9.249300   78.166900   48.316600
  H     -0.646833   78.665500   51.063300
  H     -4.351480   73.311400   46.190300

 Total Charge           Charge          ....    0
 Multiplicity           Mult            ....    1
 Number of Electrons    NEL             ....  134
 Basis Dimension        Dim             ....  322

ORBITAL ENERGIES
----------------

  NO   OCC          E(Eh)            E(eV)
   0   2.0000     -88.966496     -2420.9014
   1   2.0000     -88.958679     -2420.6887
   2   2.0000     -10.328909      -281.0639
   3   2.0000     -10.325390      -280.9681
   4   2.0000     -10.322995      -280.9030
   5   2.0000     -10.306186      -280.4456
   6   2.0000     -10.301133      -280.3081
   7   2.0000     -10.299874      -280.2738
   8   2.0000     -10.297418      -280.2070
   9   2.0000     -10.294624      -280.1310
  10   2.0000     -10.292564      -280.0749
  11   2.0000     -10.284967      -279.8682
  12   2.0000     -10.283881      -279.8386
  13   2.0000     -10.283293      -279.8226
  14   2.0000     -10.281807      -279.7822
  15   2.0000     -10.279386      -279.7163
  16   2.0000      -8.081536      -219.9098
  17   2.0000      -8.073612      -219.6942
  18   2.0000      -6.040075      -164.3588
  19   2.0000      -6.035964      -164.2469
  20   2.0000      -6.032286      -164.1469
  21   2.0000      -6.032253      -164.1460
  22   2.0000      -6.028060      -164.0319
  23   2.0000      -6.024263      -163.9285
  24   2.0000      -1.009108       -27.4592
  25   2.0000      -0.983611       -26.7654
  26   2.0000      -0.919850       -25.0304
  27   2.0000      -0.912965       -24.8430
  28   2.0000      -0.868841       -23.6424
  29   2.0000      -0.851775       -23.1780
  30   2.0000      -0.843197       -22.9445
  31   2.0000      -0.816456       -22.2169
  32   2.0000      -0.779616       -21.2144
  33   2.0000      -0.771580       -20.9958
  34   2.0000      -0.711647       -19.3649
  35   2.0000      -0.705218       -19.1899
  36   2.0000      -0.698605       -19.0100
  37   2.0000      -0.667136       -18.1537
  38   2.0000      -0.645965       -17.5776
  39   2.0000      -0.621176       -16.9031
  40   2.0000      -0.601224       -16.3601
  41   2.0000      -0.574370       -15.6294
  42   2.0000      -0.571581       -15.5535
  43   2.0000      -0.562431       -15.3045
  44   2.0000      -0.533007       -14.5039
  45   2.0000      -0.529928       -14.4201
  46   2.0000      -0.521906       -14.2018
  47   2.0000      -0.516925       -14.0663
  48   2.0000      -0.506882       -13.7930
  49   2.0000      -0.499559       -13.5937
  50   2.0000      -0.498135       -13.5549
  51   2.0000      -0.480683       -13.0801
  52   2.0000      -0.469597       -12.7784
  53   2.0000      -0.468056       -12.7365
  54   2.0000      -0.458143       -12.4667
  55   2.0000      -0.449305       -12.2262
  56   2.0000      -0.443973       -12.0811
  57   2.0000      -0.441040       -12.0013
  58   2.0000      -0.430486       -11.7141
  59   2.0000      -0.425940       -11.5904
  60   2.0000      -0.422986       -11.5100
  61   2.0000      -0.418093       -11.3769
  62   2.0000      -0.409642       -11.1469
  63   2.0000      -0.355796        -9.6817
  64   2.0000      -0.328554        -8.9404
  65   2.0000      -0.322347        -8.7715
  66   2.0000      -0.285826        -7.7777
  67   0.0000       0.022724         0.6183
  68   0.0000       0.081026         2.2048
  69   0.0000       0.101531         2.7628
  70   0.0000       0.124639         3.3916
  71   0.0000       0.132169         3.5965

MULLIKEN ATOMIC CHARGES
-----------------------
   0 S :    0.104854
   1 C :   -0.066692
   2 C :   -0.133759
   3 C :   -0.000753
   4 C :   -0.108663
   5 H :    0.018244
   6 C :    0.152084
   7 H :    0.019475
   8 H :   -0.015727
   9 C :   -0.073305
  10 H :    0.030527
  11 H :    0.033851
  12 C :   -0.065141
  13 H :    0.039342
  14 H :    0.029589
  15 H :    0.030053
  16 S :    0.068463
  17 C :   -0.101604
  18 C :   -0.004753
  19 C :   -0.050014
  20 C :   -0.117426
  21 H :    0.006387
  22 C :    0.059437
  23 H :    0.033720
  24 H :    0.028818
  25 C :   -0.074822
  26 H :    0.010898
  27 H :    0.034059
  28 C :   -0.053221
  29 H :    0.033097
  30 H :    0.029510
  31 H :    0.035955
  32 H :   -0.002342
  33 H :    0.069856
Sum of atomic charges:   -0.0000000

LOEWDIN ATOMIC CHARGES
----------------------
   0 S :    0.427599
   1 C :   -0.184425
   2 C :   -0.048879
   3 C :   -0.068113
   4 C :   -0.197688
   5 H :    0.030076
   6 C :   -0.030981
   7 H :    0.031849
   8 H :    0.020122
   9 C :   -0.033069
  10 H :    0.024305
  11 H :    0.025418
  12 C :   -0.067642
  13 H :    0.023453
  14 H :    0.027932
  15 H :    0.021913
  16 S :    0.376663
  17 C :   -0.167731
  18 C :   -0.058187
  19 C :   -0.061887
  20 C :   -0.194629
  21 H :    0.022463
  22 C :   -0.033325
  23 H :    0.033738
  24 H :    0.034177
  25 C :   -0.031341
  26 H :    0.011366
  27 H :    0.024489
  28 C :   -0.069661
  29 H :    0.020064
  30 H :    0.030107
  31 H :    0.028197
  32 H :    0.001559
  33 H :    0.032065

  Mayer bond orders larger than 0.100000
B(  0-S ,  1-C ) :   1.1414 B(  0-S ,  4-C ) :   1.1819 B(  1-C ,  2-C ) :   1.5488
B(  1-C ,  4-C ) :   0.1022 B(  1-C , 32-H ) :   0.9961 B(  2-C ,  3-C ) :   1.2925
B(  2-C ,  6-C ) :   1.0307 B(  3-C ,  4-C ) :   1.4949 B(  3-C ,  5-H ) :   0.9894
B(  4-C , 20-C ) :   1.0602 B(  6-C ,  7-H ) :   0.9195 B(  6-C ,  8-H ) :   0.9359
B(  6-C ,  9-C ) :   1.0582 B(  9-C , 10-H ) :   0.9528 B(  9-C , 11-H ) :   0.9603
B(  9-C , 12-C ) :   1.0848 B( 12-C , 13-H ) :   0.9779 B( 12-C , 14-H ) :   0.9748
B( 12-C , 15-H ) :   0.9756 B( 16-S , 17-C ) :   1.1305 B( 16-S , 20-C ) :   1.1327
B( 17-C , 18-C ) :   1.6070 B( 17-C , 33-H ) :   0.9763 B( 18-C , 19-C ) :   1.2089
B( 18-C , 21-H ) :   0.9960 B( 19-C , 20-C ) :   1.6103 B( 19-C , 22-C ) :   1.0671
B( 22-C , 23-H ) :   0.9323 B( 22-C , 24-H ) :   0.9243 B( 22-C , 25-C ) :   1.0557
B( 25-C , 26-H ) :   0.9566 B( 25-C , 27-H ) :   0.9565 B( 25-C , 28-C ) :   1.0829
B( 28-C , 29-H ) :   0.9759 B( 28-C , 30-H ) :   0.9739 B( 28-C , 31-H ) :   0.9743

Dispersion correction           -0.013865568
FINAL SINGLE POINT ENERGY     -1339.868626126079

DIPOLE MOMENT
-------------
                                X             Y             Z
Electronic contribution:     17.49292     -23.63111      -4.82973
Nuclear contribution   :    -18.00910      24.11675       4.77190
                        -----------------------------------------
Total Dipole Moment    :     -0.51618       0.48563      -0.05782
                        -----------------------------------------
Magnitude (a.u.)       :      0.71107
Magnitude (Debye)      :      1.80741

Rotational constants in cm-1:     0.017804     0.008711     0.006323
Rotational constants in MHz :   533.743524   261.143856   189.545832

                             ****ORCA TERMINATED NORMALLY****
TOTAL RUN TIME: 0 days 0 hours 0 minutes 32 seconds 91 msec
