                         Program Version 4.2.1 -  RELEASE  -
|  1> ! wB97X-D3 SP def2-SVP
|  2> %pal
|  3> nprocs 16
|  4> end
|  5>
|  6> * xyz 0 1
|  7> S 	 -28.9415 	 57.5866 	 112.412
|  8> C 	 -28.5368 	 58.1799 	 110.776
|  9> C 	 -28.6317 	 57.1451 	 109.851
| 10> C 	 -29.2481 	 55.9557 	 110.483
| 11> C 	 -29.2988 	 55.9666 	 111.877
| 12> H 	 -29.5287 	 55.0444 	 109.983
| 13> C 	 -28.4638 	 57.2594 	 108.352
| 14> H 	 -28.1187 	 56.2769 	 108.085
| 15> H 	 -27.5223 	 57.8778 	 108.209
| 16> C 	 -29.5665 	 57.9243 	 107.53
| 17> H 	 -30.525 	 57.5895 	 107.761
| 18> H 	 -29.6503 	 59.0287 	 107.792
| 19> C 	 -29.3638 	 57.7246 	 105.958
| 20> H 	 -29.3994 	 56.6311 	 105.744
| 21> H 	 -30.1122 	 58.3118 	 105.393
| 22> H 	 -28.4528 	 58.0523 	 105.582
| 23> S 	 -31.0313 	 55.1826 	 113.863
| 24> C 	 -31.2412 	 53.4782 	 114.207
| 25> C 	 -30.302 	 52.7671 	 113.446
| 26> C 	 -29.4361 	 53.5511 	 112.633
| 27> C 	 -29.7029 	 54.9007 	 112.731
| 28> H 	 -30.3009 	 51.7726 	 113.564
| 29> C 	 -28.3774 	 52.8414 	 111.748
| 30> H 	 -27.7237 	 52.2986 	 112.387
| 31> H 	 -27.706 	 53.567 	 111.278
| 32> C 	 -28.8544 	 51.8768 	 110.675
| 33> H 	 -29.8231 	 52.2033 	 110.358
| 34> H 	 -29.1135 	 50.9261 	 111.07
| 35> C 	 -28.0297 	 51.6561 	 109.426
| 36> H 	 -26.9887 	 51.3972 	 109.69
| 37> H 	 -28.0567 	 52.587 	 108.819
| 38> H 	 -28.3895 	 50.9017 	 108.78
| 39> H 	 -28.1256 	 59.1808 	 110.552
| 40> H 	 -31.7156 	 52.997 	 114.987
| 41> *
| 42>
| 43>                          ****END OF INPUT****

CARTESIAN COORDINATES (ANGSTROEM)
---------------------------------
  S    -28.941500   57.586600  112.412000
  C    -28.536800   58.179900  110.776000
  C    -28.631700   57.145100  109.851000
  C    -29.248100   55.955700  110.483000
  C    -29.298800   55.966600  111.877000
  H    -29.528700   55.044400  109.983000
  C    -28.463800   57.259400  108.352000
  H    -28.118700   56.276900  108.085000
  H    -27.522300   57.877800  108.209000
  C    -29.566500   57.924300  107.530000
  H    -30.525000   57.589500  107.761000
  H    -29.650300   59.028700  107.792000
  C    -29.363800   57.724600  105.958000
  H    -29.399400   56.631100  105.744000
  H    -30.112200   58.311800  105.393000
  H    -28.452800   58.052300  105.582000
  S    -31.031300   55.182600  113.863000
  C    -31.241200   53.478200  114.207000
  C    -30.302000   52.767100  113.446000
  C    -29.436100   53.551100  112.633000
  C    -29.702900   54.900700  112.731000
  H    -30.300900   51.772600  113.564000
  C    -28.377400   52.841400  111.748000
  H    -27.723700   52.298600  112.387000
  H    -27.706000   53.567000  111.278000
  C    -28.854400   51.876800  110.675000
  H    -29.823100   52.203300  110.358000
  H    -29.113500   50.926100  111.070000
  C    -28.029700   51.656100  109.426000
  H    -26.988700   51.397200  109.690000
  H    -28.056700   52.587000  108.819000
  H    -28.389500   50.901700  108.780000
  H    -28.125600   59.180800  110.552000
  H    -31.715600   52.997000  114.987000

 Total Charge           Charge          ....    0
 Multiplicity           Mult            ....    1
 Number of Electrons    NEL             ....  134
 Basis Dimension        Dim             ....  322

ORBITAL ENERGIES
----------------

  NO   OCC          E(Eh)            E(eV)
   0   2.0000     -88.966638     -2420.9053
   1   2.0000     -88.964367     -2420.8435
   2   2.0000     -10.329408      -281.0775
   3   2.0000     -10.328834      -281.0618
   4   2.0000     -10.322500      -280.8895
   5   2.0000     -10.316578      -280.7284
   6   2.0000     -10.308439      -280.5069
   7   2.0000     -10.308335      -280.5041
   8   2.0000     -10.298133      -280.2264
   9   2.0000     -10.297668      -280.2138
  10   2.0000     -10.294428      -280.1256
  11   2.0000     -10.291743      -280.0526
  12   2.0000     -10.287705      -279.9427
  13   2.0000     -10.283247      -279.8214
  14   2.0000     -10.280301      -279.7412
  15   2.0000     -10.278820      -279.7009
  16   2.0000      -8.081024      -219.8958
  17   2.0000      -8.078682      -219.8321
  18   2.0000      -6.039611      -164.3462
  19   2.0000      -6.037336      -164.2843
  20   2.0000      -6.035469      -164.2335
  21   2.0000      -6.033173      -164.1710
  22   2.0000      -6.031790      -164.1333
  23   2.0000      -6.029380      -164.0678
  24   2.0000      -1.005758       -27.3681
  25   2.0000      -0.979083       -26.6422
  26   2.0000      -0.911570       -24.8051
  27   2.0000      -0.908756       -24.7285
  28   2.0000      -0.872275       -23.7358
  29   2.0000      -0.853982       -23.2380
  30   2.0000      -0.840668       -22.8758
  31   2.0000      -0.814208       -22.1557
  32   2.0000      -0.786052       -21.3896
  33   2.0000      -0.776460       -21.1286
  34   2.0000      -0.713171       -19.4064
  35   2.0000      -0.709228       -19.2991
  36   2.0000      -0.702396       -19.1132
  37   2.0000      -0.668302       -18.1854
  38   2.0000      -0.640506       -17.4291
  39   2.0000      -0.616114       -16.7653
  40   2.0000      -0.598405       -16.2834
  41   2.0000      -0.568399       -15.4669
  42   2.0000      -0.567160       -15.4332
  43   2.0000      -0.555076       -15.1044
  44   2.0000      -0.532177       -14.4813
  45   2.0000      -0.527550       -14.3554
  46   2.0000      -0.521742       -14.1973
  47   2.0000      -0.517663       -14.0863
  48   2.0000      -0.510895       -13.9022
  49   2.0000      -0.500858       -13.6290
  50   2.0000      -0.493386       -13.4257
  51   2.0000      -0.481416       -13.1000
  52   2.0000      -0.468765       -12.7558
  53   2.0000      -0.464672       -12.6444
  54   2.0000      -0.461444       -12.5565
  55   2.0000      -0.455097       -12.3838
  56   2.0000      -0.445423       -12.1206
  57   2.0000      -0.441348       -12.0097
  58   2.0000      -0.429536       -11.6883
  59   2.0000      -0.424941       -11.5632
  60   2.0000      -0.418574       -11.3900
  61   2.0000      -0.412571       -11.2266
  62   2.0000      -0.410044       -11.1579
  63   2.0000      -0.348526        -9.4839
  64   2.0000      -0.332954        -9.0601
  65   2.0000      -0.326238        -8.8774
  66   2.0000      -0.294925        -8.0253
  67   0.0000       0.022666         0.6168
  68   0.0000       0.070522         1.9190
  69   0.0000       0.110765         3.0141
  70   0.0000       0.118310         3.2194
  71   0.0000       0.121151         3.2967

MULLIKEN ATOMIC CHARGES
-----------------------
   0 S :    0.097431
   1 C :   -0.125699
   2 C :   -0.106645
   3 C :    0.026149
   4 C :   -0.153512
   5 H :    0.005895
   6 C :    0.055287
   7 H :    0.015701
   8 H :    0.030447
   9 C :   -0.035373
  10 H :    0.018256
  11 H :    0.032908
  12 C :   -0.050360
  13 H :    0.038551
  14 H :    0.041035
  15 H :    0.014578
  16 S :    0.105457
  17 C :   -0.053873
  18 C :   -0.017164
  19 C :   -0.030595
  20 C :   -0.132458
  21 H :   -0.029192
  22 C :    0.099044
  23 H :    0.020741
  24 H :    0.020654
  25 C :   -0.058163
  26 H :    0.010850
  27 H :    0.010041
  28 C :   -0.043572
  29 H :    0.033515
  30 H :    0.029155
  31 H :    0.028322
  32 H :    0.065497
  33 H :    0.037091
Sum of atomic charges:   -0.0000000

LOEWDIN ATOMIC CHARGES
----------------------
   0 S :    0.390119
   1 C :   -0.187668
   2 C :   -0.063565
   3 C :   -0.057833
   4 C :   -0.199737
   5 H :    0.025441
   6 C :   -0.041338
   7 H :    0.026651
   8 H :    0.039853
   9 C :   -0.032946
  10 H :    0.014888
  11 H :    0.032479
  12 C :   -0.061271
  13 H :    0.030574
  14 H :    0.031289
  15 H :    0.011712
  16 S :    0.404705
  17 C :   -0.172739
  18 C :   -0.052184
  19 C :   -0.047326
  20 C :   -0.195254
  21 H :    0.008221
  22 C :   -0.026907
  23 H :    0.028904
  24 H :    0.030546
  25 C :   -0.046513
  26 H :    0.019598
  27 H :    0.017149
  28 C :   -0.059667
  29 H :    0.026263
  30 H :    0.026862
  31 H :    0.023347
  32 H :    0.036639
  33 H :    0.019709

  Mayer bond orders larger than 0.100000
B(  0-S ,  1-C ) :   1.1310 B(  0-S ,  4-C ) :   1.1358 B(  1-C ,  2-C ) :   1.6134
B(  1-C , 32-H ) :   0.9670 B(  2-C ,  3-C ) :   1.2149 B(  2-C ,  6-C ) :   1.0373
B(  3-C ,  4-C ) :   1.5826 B(  3-C ,  5-H ) :   0.9888 B(  4-C , 20-C ) :   1.0548
B(  6-C ,  7-H ) :   0.9399 B(  6-C ,  8-H ) :   0.9346 B(  6-C ,  9-C ) :   1.0519
B(  9-C , 10-H ) :   0.9615 B(  9-C , 11-H ) :   0.9525 B(  9-C , 12-C ) :   1.0664
B( 12-C , 13-H ) :   0.9781 B( 12-C , 14-H ) :   0.9763 B( 12-C , 15-H ) :   0.9798
B( 16-S , 17-C ) :   1.1533 B( 16-S , 20-C ) :   1.1360 B( 17-C , 18-C ) :   1.6005
B( 17-C , 20-C ) :   0.1033 B( 17-C , 33-H ) :   0.9735 B( 18-C , 19-C ) :   1.2432
B( 18-C , 21-H ) :   1.0083 B( 19-C , 20-C ) :   1.5852 B( 19-C , 22-C ) :   1.0468
B( 22-C , 23-H ) :   0.9268 B( 22-C , 24-H ) :   0.9399 B( 22-C , 25-C ) :   1.0462
B( 25-C , 26-H ) :   0.9562 B( 25-C , 27-H ) :   0.9460 B( 25-C , 28-C ) :   1.1005
B( 28-C , 29-H ) :   0.9747 B( 28-C , 30-H ) :   0.9733 B( 28-C , 31-H ) :   0.9714

Dispersion correction           -0.014006337
FINAL SINGLE POINT ENERGY     -1339.860172518457

DIPOLE MOMENT
-------------
                                X             Y             Z
Electronic contribution:     -7.26121       9.49110      29.58920
Nuclear contribution   :      7.42268      -9.95842     -30.20057
                        -----------------------------------------
Total Dipole Moment    :      0.16147      -0.46732      -0.61137
                        -----------------------------------------
Magnitude (a.u.)       :      0.78628
Magnitude (Debye)      :      1.99856

Rotational constants in cm-1:     0.016840     0.008688     0.006395
Rotational constants in MHz :   504.843169   260.447925   191.705590

                             ****ORCA TERMINATED NORMALLY****
TOTAL RUN TIME: 0 days 0 hours 0 minutes 29 seconds 158 msec
