                         Program Version 4.2.1 -  RELEASE  -
|  1> ! wB97X-D3 SP def2-SVP
|  2> %pal
|  3> nprocs 16
|  4> end
|  5>
|  6> * xyz 0 1
|  7> S 	 -114.478 	 54.7648 	 110.361
|  8> C 	 -113.684 	 53.5161 	 109.383
|  9> C 	 -112.619 	 52.9951 	 109.974
| 10> C 	 -112.376 	 53.5242 	 111.315
| 11> C 	 -113.325 	 54.4682 	 111.708
| 12> H 	 -111.635 	 53.0927 	 111.978
| 13> C 	 -111.793 	 51.8119 	 109.391
| 14> H 	 -112.56 	 51.0899 	 109.032
| 15> H 	 -111.214 	 51.3747 	 110.267
| 16> C 	 -110.874 	 52.0464 	 108.185
| 17> H 	 -110.562 	 51.0814 	 108.009
| 18> H 	 -111.317 	 52.415 	 107.26
| 19> C 	 -109.68 	 52.969 	 108.555
| 20> H 	 -109.053 	 52.4284 	 109.317
| 21> H 	 -109.024 	 53.289 	 107.681
| 22> H 	 -110.108 	 53.8905 	 109.09
| 23> S 	 -113.014 	 56.9223 	 112.894
| 24> C 	 -113.38 	 57.0586 	 114.584
| 25> C 	 -113.497 	 55.8329 	 115.217
| 26> C 	 -113.522 	 54.8028 	 114.233
| 27> C 	 -113.433 	 55.2593 	 112.944
| 28> H 	 -113.713 	 55.6971 	 116.27
| 29> C 	 -113.862 	 53.3555 	 114.641
| 30> H 	 -113.343 	 53.0393 	 115.612
| 31> H 	 -113.435 	 52.7089 	 113.907
| 32> C 	 -115.336 	 53.1364 	 114.887
| 33> H 	 -115.817 	 53.7245 	 114.117
| 34> H 	 -115.613 	 53.5573 	 115.833
| 35> C 	 -115.8 	 51.6635 	 114.763
| 36> H 	 -115.326 	 51.0143 	 115.437
| 37> H 	 -115.625 	 51.1596 	 113.825
| 38> H 	 -116.964 	 51.6523 	 114.812
| 39> H 	 -113.959 	 53.1128 	 108.407
| 40> H 	 -113.258 	 57.9515 	 115.24
| 41> *
| 42>
| 43>                          ****END OF INPUT****

CARTESIAN COORDINATES (ANGSTROEM)
---------------------------------
  S    -114.478000   54.764800  110.361000
  C    -113.684000   53.516100  109.383000
  C    -112.619000   52.995100  109.974000
  C    -112.376000   53.524200  111.315000
  C    -113.325000   54.468200  111.708000
  H    -111.635000   53.092700  111.978000
  C    -111.793000   51.811900  109.391000
  H    -112.560000   51.089900  109.032000
  H    -111.214000   51.374700  110.267000
  C    -110.874000   52.046400  108.185000
  H    -110.562000   51.081400  108.009000
  H    -111.317000   52.415000  107.260000
  C    -109.680000   52.969000  108.555000
  H    -109.053000   52.428400  109.317000
  H    -109.024000   53.289000  107.681000
  H    -110.108000   53.890500  109.090000
  S    -113.014000   56.922300  112.894000
  C    -113.380000   57.058600  114.584000
  C    -113.497000   55.832900  115.217000
  C    -113.522000   54.802800  114.233000
  C    -113.433000   55.259300  112.944000
  H    -113.713000   55.697100  116.270000
  C    -113.862000   53.355500  114.641000
  H    -113.343000   53.039300  115.612000
  H    -113.435000   52.708900  113.907000
  C    -115.336000   53.136400  114.887000
  H    -115.817000   53.724500  114.117000
  H    -115.613000   53.557300  115.833000
  C    -115.800000   51.663500  114.763000
  H    -115.326000   51.014300  115.437000
  H    -115.625000   51.159600  113.825000
  H    -116.964000   51.652300  114.812000
  H    -113.959000   53.112800  108.407000
  H    -113.258000   57.951500  115.240000

 Total Charge           Charge          ....    0
 Multiplicity           Mult            ....    1
 Number of Electrons    NEL             ....  134
 Basis Dimension        Dim             ....  322

ORBITAL ENERGIES
----------------

  NO   OCC          E(Eh)            E(eV)
   0   2.0000     -88.969089     -2420.9720
   1   2.0000     -88.965647     -2420.8783
   2   2.0000     -10.336653      -281.2746
   3   2.0000     -10.321980      -280.8753
   4   2.0000     -10.318764      -280.7878
   5   2.0000     -10.310029      -280.5502
   6   2.0000     -10.304129      -280.3896
   7   2.0000     -10.300824      -280.2997
   8   2.0000     -10.300581      -280.2931
   9   2.0000     -10.296841      -280.1913
  10   2.0000     -10.293296      -280.0948
  11   2.0000     -10.289522      -279.9921
  12   2.0000     -10.289085      -279.9802
  13   2.0000     -10.284187      -279.8470
  14   2.0000     -10.280091      -279.7355
  15   2.0000     -10.278309      -279.6870
  16   2.0000      -8.084578      -219.9926
  17   2.0000      -8.079318      -219.8494
  18   2.0000      -6.042985      -164.4380
  19   2.0000      -6.039153      -164.3337
  20   2.0000      -6.038099      -164.3050
  21   2.0000      -6.035206      -164.2263
  22   2.0000      -6.033970      -164.1927
  23   2.0000      -6.029844      -164.0804
  24   2.0000      -1.009731       -27.4762
  25   2.0000      -0.983236       -26.7552
  26   2.0000      -0.908301       -24.7161
  27   2.0000      -0.907722       -24.7004
  28   2.0000      -0.869719       -23.6663
  29   2.0000      -0.848868       -23.0989
  30   2.0000      -0.839051       -22.8317
  31   2.0000      -0.813496       -22.1364
  32   2.0000      -0.778468       -21.1832
  33   2.0000      -0.769360       -20.9354
  34   2.0000      -0.705031       -19.1849
  35   2.0000      -0.701042       -19.0763
  36   2.0000      -0.694316       -18.8933
  37   2.0000      -0.663255       -18.0481
  38   2.0000      -0.632155       -17.2018
  39   2.0000      -0.612572       -16.6689
  40   2.0000      -0.592978       -16.1358
  41   2.0000      -0.575106       -15.6494
  42   2.0000      -0.560123       -15.2417
  43   2.0000      -0.546249       -14.8642
  44   2.0000      -0.542327       -14.7575
  45   2.0000      -0.521263       -14.1843
  46   2.0000      -0.514932       -14.0120
  47   2.0000      -0.509063       -13.8523
  48   2.0000      -0.496700       -13.5159
  49   2.0000      -0.494992       -13.4694
  50   2.0000      -0.483264       -13.1503
  51   2.0000      -0.478639       -13.0244
  52   2.0000      -0.471755       -12.8371
  53   2.0000      -0.468579       -12.7507
  54   2.0000      -0.459711       -12.5094
  55   2.0000      -0.446285       -12.1440
  56   2.0000      -0.438676       -11.9370
  57   2.0000      -0.436900       -11.8887
  58   2.0000      -0.433897       -11.8069
  59   2.0000      -0.425160       -11.5692
  60   2.0000      -0.416113       -11.3230
  61   2.0000      -0.413149       -11.2424
  62   2.0000      -0.411219       -11.1898
  63   2.0000      -0.342573        -9.3219
  64   2.0000      -0.332712        -9.0536
  65   2.0000      -0.328791        -8.9469
  66   2.0000      -0.303593        -8.2612
  67   0.0000       0.035676         0.9708
  68   0.0000       0.061745         1.6802
  69   0.0000       0.109688         2.9848
  70   0.0000       0.111418         3.0318
  71   0.0000       0.130088         3.5399

MULLIKEN ATOMIC CHARGES
-----------------------
   0 S :    0.098963
   1 C :   -0.102643
   2 C :   -0.105318
   3 C :    0.067383
   4 C :   -0.189277
   5 H :    0.018434
   6 C :   -0.004717
   7 H :    0.042983
   8 H :    0.035921
   9 C :   -0.001322
  10 H :    0.012980
  11 H :    0.029839
  12 C :   -0.119812
  13 H :    0.031237
  14 H :    0.054502
  15 H :    0.056344
  16 S :    0.136799
  17 C :   -0.093664
  18 C :   -0.039203
  19 C :   -0.053574
  20 C :   -0.150424
  21 H :    0.025759
  22 C :    0.061150
  23 H :    0.026448
  24 H :    0.005673
  25 C :   -0.035695
  26 H :    0.029262
  27 H :    0.022032
  28 C :   -0.055235
  29 H :    0.020064
  30 H :    0.025664
  31 H :    0.044916
  32 H :    0.037650
  33 H :    0.066883
Sum of atomic charges:   -0.0000000

LOEWDIN ATOMIC CHARGES
----------------------
   0 S :    0.372434
   1 C :   -0.188003
   2 C :   -0.076269
   3 C :   -0.058170
   4 C :   -0.175909
   5 H :    0.030631
   6 C :   -0.031261
   7 H :    0.037424
   8 H :    0.036550
   9 C :   -0.038760
  10 H :    0.015204
  11 H :    0.024828
  12 C :   -0.081098
  13 H :    0.025208
  14 H :    0.032202
  15 H :    0.035545
  16 S :    0.435946
  17 C :   -0.193897
  18 C :   -0.069931
  19 C :   -0.051981
  20 C :   -0.225311
  21 H :    0.034000
  22 C :   -0.034136
  23 H :    0.033769
  24 H :    0.019923
  25 C :   -0.037073
  26 H :    0.025792
  27 H :    0.020607
  28 C :   -0.067407
  29 H :    0.014724
  30 H :    0.023903
  31 H :    0.039710
  32 H :    0.033154
  33 H :    0.037652

  Mayer bond orders larger than 0.100000
B(  0-S ,  1-C ) :   1.1076 B(  0-S ,  4-C ) :   1.1325 B(  1-C ,  2-C ) :   1.7003
B(  1-C , 32-H ) :   0.9580 B(  2-C ,  3-C ) :   1.1998 B(  2-C ,  6-C ) :   0.9967
B(  3-C ,  4-C ) :   1.6144 B(  3-C ,  5-H ) :   0.9887 B(  4-C , 20-C ) :   1.0054
B(  6-C ,  7-H ) :   0.9443 B(  6-C ,  8-H ) :   0.9467 B(  6-C ,  9-C ) :   1.0709
B(  9-C , 10-H ) :   0.9528 B(  9-C , 11-H ) :   0.9571 B(  9-C , 12-C ) :   1.0603
B( 12-C , 13-H ) :   0.9757 B( 12-C , 14-H ) :   0.9752 B( 12-C , 15-H ) :   0.9777
B( 16-S , 17-C ) :   1.1647 B( 16-S , 20-C ) :   1.1531 B( 17-C , 18-C ) :   1.6050
B( 17-C , 33-H ) :   0.9585 B( 18-C , 19-C ) :   1.2509 B( 18-C , 21-H ) :   0.9912
B( 19-C , 20-C ) :   1.6068 B( 19-C , 22-C ) :   1.0548 B( 22-C , 23-H ) :   0.9346
B( 22-C , 24-H ) :   0.9318 B( 22-C , 25-C ) :   1.0598 B( 25-C , 26-H ) :   0.9571
B( 25-C , 27-H ) :   0.9532 B( 25-C , 28-C ) :   1.0824 B( 28-C , 29-H ) :   0.9755
B( 28-C , 30-H ) :   0.9750 B( 28-C , 31-H ) :   0.9745

Dispersion correction           -0.014320207
FINAL SINGLE POINT ENERGY     -1339.867468719567

DIPOLE MOMENT
-------------
                                X             Y             Z
Electronic contribution:     -5.25086      21.74343      -0.10806
Nuclear contribution   :      5.49415     -22.34286       0.27174
                        -----------------------------------------
Total Dipole Moment    :      0.24329      -0.59943       0.16369
                        -----------------------------------------
Magnitude (a.u.)       :      0.66731
Magnitude (Debye)      :      1.69616

Rotational constants in cm-1:     0.018920     0.008198     0.006940
Rotational constants in MHz :   567.193209   245.766569   208.047241

                             ****ORCA TERMINATED NORMALLY****
TOTAL RUN TIME: 0 days 0 hours 0 minutes 34 seconds 389 msec
