                         Program Version 4.2.1 -  RELEASE  -
|  1> ! wB97X-D3 SP def2-SVP
|  2> %pal
|  3> nprocs 16
|  4> end
|  5>
|  6> * xyz 0 1
|  7> S 	 -21.292 	 58.5671 	 105.714
|  8> C 	 -23.0248 	 58.0652 	 105.629
|  9> C 	 -23.4836 	 57.7518 	 106.863
| 10> C 	 -22.4982 	 58.0138 	 107.914
| 11> C 	 -21.2344 	 58.4143 	 107.511
| 12> H 	 -22.7431 	 57.9519 	 108.895
| 13> C 	 -24.9828 	 57.484 	 107.118
| 14> H 	 -25.0956 	 56.7413 	 107.879
| 15> H 	 -25.288 	 56.9524 	 106.208
| 16> C 	 -25.8613 	 58.6687 	 107.515
| 17> H 	 -26.8545 	 58.1818 	 107.704
| 18> H 	 -25.3951 	 59.0177 	 108.468
| 19> C 	 -25.9409 	 59.7303 	 106.456
| 20> H 	 -25.8306 	 59.4381 	 105.401
| 21> H 	 -26.9263 	 60.1075 	 106.598
| 22> H 	 -25.2559 	 60.5278 	 106.698
| 23> S 	 -19.411 	 60.3022 	 107.932
| 24> C 	 -18.0255 	 60.0262 	 108.972
| 25> C 	 -18.3123 	 58.9691 	 109.84
| 26> C 	 -19.5612 	 58.3253 	 109.489
| 27> C 	 -20.1749 	 58.7836 	 108.341
| 28> H 	 -17.7332 	 58.6112 	 110.673
| 29> C 	 -20.0147 	 57.0936 	 110.272
| 30> H 	 -19.0966 	 56.569 	 110.325
| 31> H 	 -20.5692 	 56.4829 	 109.538
| 32> C 	 -20.6425 	 57.1611 	 111.654
| 33> H 	 -20.0878 	 57.9623 	 112.092
| 34> H 	 -20.4159 	 56.2935 	 112.274
| 35> C 	 -22.133 	 57.4814 	 111.696
| 36> H 	 -22.3416 	 58.5033 	 111.15
| 37> H 	 -22.5971 	 57.4608 	 112.626
| 38> H 	 -22.6999 	 56.7863 	 111.063
| 39> H 	 -23.548 	 57.9728 	 104.705
| 40> H 	 -17.1022 	 60.5423 	 109.008
| 41> *
| 42>
| 43>                          ****END OF INPUT****

CARTESIAN COORDINATES (ANGSTROEM)
---------------------------------
  S    -21.292000   58.567100  105.714000
  C    -23.024800   58.065200  105.629000
  C    -23.483600   57.751800  106.863000
  C    -22.498200   58.013800  107.914000
  C    -21.234400   58.414300  107.511000
  H    -22.743100   57.951900  108.895000
  C    -24.982800   57.484000  107.118000
  H    -25.095600   56.741300  107.879000
  H    -25.288000   56.952400  106.208000
  C    -25.861300   58.668700  107.515000
  H    -26.854500   58.181800  107.704000
  H    -25.395100   59.017700  108.468000
  C    -25.940900   59.730300  106.456000
  H    -25.830600   59.438100  105.401000
  H    -26.926300   60.107500  106.598000
  H    -25.255900   60.527800  106.698000
  S    -19.411000   60.302200  107.932000
  C    -18.025500   60.026200  108.972000
  C    -18.312300   58.969100  109.840000
  C    -19.561200   58.325300  109.489000
  C    -20.174900   58.783600  108.341000
  H    -17.733200   58.611200  110.673000
  C    -20.014700   57.093600  110.272000
  H    -19.096600   56.569000  110.325000
  H    -20.569200   56.482900  109.538000
  C    -20.642500   57.161100  111.654000
  H    -20.087800   57.962300  112.092000
  H    -20.415900   56.293500  112.274000
  C    -22.133000   57.481400  111.696000
  H    -22.341600   58.503300  111.150000
  H    -22.597100   57.460800  112.626000
  H    -22.699900   56.786300  111.063000
  H    -23.548000   57.972800  104.705000
  H    -17.102200   60.542300  109.008000

 Total Charge           Charge          ....    0
 Multiplicity           Mult            ....    1
 Number of Electrons    NEL             ....  134
 Basis Dimension        Dim             ....  322

ORBITAL ENERGIES
----------------

  NO   OCC          E(Eh)            E(eV)
   0   2.0000     -88.963415     -2420.8176
   1   2.0000     -88.961370     -2420.7620
   2   2.0000     -10.333181      -281.1802
   3   2.0000     -10.323534      -280.9176
   4   2.0000     -10.319963      -280.8205
   5   2.0000     -10.317758      -280.7605
   6   2.0000     -10.304952      -280.4120
   7   2.0000     -10.301839      -280.3273
   8   2.0000     -10.297730      -280.2155
   9   2.0000     -10.292611      -280.0762
  10   2.0000     -10.291700      -280.0514
  11   2.0000     -10.289500      -279.9915
  12   2.0000     -10.287692      -279.9423
  13   2.0000     -10.285489      -279.8824
  14   2.0000     -10.283614      -279.8314
  15   2.0000     -10.271900      -279.5126
  16   2.0000      -8.076609      -219.7757
  17   2.0000      -8.076435      -219.7710
  18   2.0000      -6.035444      -164.2328
  19   2.0000      -6.035138      -164.2245
  20   2.0000      -6.031363      -164.1217
  21   2.0000      -6.030870      -164.1083
  22   2.0000      -6.027041      -164.0041
  23   2.0000      -6.026958      -164.0019
  24   2.0000      -1.006543       -27.3894
  25   2.0000      -0.977689       -26.6043
  26   2.0000      -0.914389       -24.8818
  27   2.0000      -0.910195       -24.7677
  28   2.0000      -0.878096       -23.8942
  29   2.0000      -0.849900       -23.1269
  30   2.0000      -0.839766       -22.8512
  31   2.0000      -0.817971       -22.2581
  32   2.0000      -0.784746       -21.3540
  33   2.0000      -0.778193       -21.1757
  34   2.0000      -0.719072       -19.5669
  35   2.0000      -0.701418       -19.0866
  36   2.0000      -0.691793       -18.8246
  37   2.0000      -0.667627       -18.1671
  38   2.0000      -0.645377       -17.5616
  39   2.0000      -0.621001       -16.8983
  40   2.0000      -0.591564       -16.0973
  41   2.0000      -0.570882       -15.5345
  42   2.0000      -0.562189       -15.2979
  43   2.0000      -0.551471       -15.0063
  44   2.0000      -0.547815       -14.9068
  45   2.0000      -0.537984       -14.6393
  46   2.0000      -0.520448       -14.1621
  47   2.0000      -0.519092       -14.1252
  48   2.0000      -0.513023       -13.9601
  49   2.0000      -0.499311       -13.5869
  50   2.0000      -0.493296       -13.4233
  51   2.0000      -0.486150       -13.2288
  52   2.0000      -0.473486       -12.8842
  53   2.0000      -0.458277       -12.4703
  54   2.0000      -0.453906       -12.3514
  55   2.0000      -0.451552       -12.2874
  56   2.0000      -0.443147       -12.0587
  57   2.0000      -0.434404       -11.8207
  58   2.0000      -0.429018       -11.6742
  59   2.0000      -0.422865       -11.5067
  60   2.0000      -0.418532       -11.3888
  61   2.0000      -0.409010       -11.1297
  62   2.0000      -0.406793       -11.0694
  63   2.0000      -0.352144        -9.5823
  64   2.0000      -0.329278        -8.9601
  65   2.0000      -0.323171        -8.7939
  66   2.0000      -0.291806        -7.9404
  67   0.0000       0.016278         0.4429
  68   0.0000       0.075267         2.0481
  69   0.0000       0.101898         2.7728
  70   0.0000       0.117885         3.2078
  71   0.0000       0.131377         3.5750

MULLIKEN ATOMIC CHARGES
-----------------------
   0 S :    0.091359
   1 C :   -0.126815
   2 C :   -0.067905
   3 C :    0.082364
   4 C :   -0.117585
   5 H :   -0.080020
   6 C :    0.042474
   7 H :    0.012397
   8 H :    0.018945
   9 C :   -0.075727
  10 H :    0.041436
  11 H :    0.037327
  12 C :   -0.019826
  13 H :    0.034547
  14 H :    0.023681
  15 H :    0.041257
  16 S :    0.096569
  17 C :   -0.068462
  18 C :   -0.021718
  19 C :   -0.064610
  20 C :   -0.148242
  21 H :    0.018077
  22 C :    0.035585
  23 H :    0.011653
  24 H :    0.019936
  25 C :   -0.005620
  26 H :    0.012434
  27 H :    0.032661
  28 C :   -0.064162
  29 H :    0.052291
  30 H :    0.028097
  31 H :    0.029916
  32 H :    0.047762
  33 H :    0.049927
Sum of atomic charges:    0.0000000

LOEWDIN ATOMIC CHARGES
----------------------
   0 S :    0.355099
   1 C :   -0.163051
   2 C :   -0.064365
   3 C :   -0.040214
   4 C :   -0.180573
   5 H :    0.005351
   6 C :   -0.034751
   7 H :    0.022612
   8 H :    0.027200
   9 C :   -0.039726
  10 H :    0.030628
  11 H :    0.031896
  12 C :   -0.067803
  13 H :    0.027167
  14 H :    0.026710
  15 H :    0.031553
  16 S :    0.404830
  17 C :   -0.174121
  18 C :   -0.069292
  19 C :   -0.055236
  20 C :   -0.197834
  21 H :    0.029776
  22 C :   -0.037934
  23 H :    0.029575
  24 H :    0.029747
  25 C :   -0.038701
  26 H :    0.022831
  27 H :    0.028639
  28 C :   -0.067832
  29 H :    0.037713
  30 H :    0.017214
  31 H :    0.022012
  32 H :    0.025274
  33 H :    0.025605

  Mayer bond orders larger than 0.100000
B(  0-S ,  1-C ) :   1.1161 B(  0-S ,  4-C ) :   1.1032 B(  1-C ,  2-C ) :   1.6354
B(  1-C , 32-H ) :   0.9710 B(  2-C ,  3-C ) :   1.2090 B(  2-C ,  6-C ) :   1.0249
B(  3-C ,  4-C ) :   1.5691 B(  3-C ,  5-H ) :   1.0073 B(  4-C , 20-C ) :   1.1202
B(  6-C ,  7-H ) :   0.9376 B(  6-C ,  8-H ) :   0.9426 B(  6-C ,  9-C ) :   1.0716
B(  9-C , 10-H ) :   0.9593 B(  9-C , 11-H ) :   0.9523 B(  9-C , 12-C ) :   1.0646
B( 12-C , 13-H ) :   0.9779 B( 12-C , 14-H ) :   0.9724 B( 12-C , 15-H ) :   0.9725
B( 16-S , 17-C ) :   1.1513 B( 16-S , 20-C ) :   1.1200 B( 17-C , 18-C ) :   1.5814
B( 17-C , 20-C ) :   0.1013 B( 17-C , 33-H ) :   0.9758 B( 18-C , 19-C ) :   1.2485
B( 18-C , 21-H ) :   0.9880 B( 19-C , 20-C ) :   1.5771 B( 19-C , 22-C ) :   1.0392
B( 22-C , 23-H ) :   0.9269 B( 22-C , 24-H ) :   0.9383 B( 22-C , 25-C ) :   1.0609
B( 25-C , 26-H ) :   0.9484 B( 25-C , 27-H ) :   0.9523 B( 25-C , 28-C ) :   1.0862
B( 28-C , 29-H ) :   0.9663 B( 28-C , 30-H ) :   0.9693 B( 28-C , 31-H ) :   0.9696

Dispersion correction           -0.015039350
FINAL SINGLE POINT ENERGY     -1339.852484467870

DIPOLE MOMENT
-------------
                                X             Y             Z
Electronic contribution:     20.31595       7.34630     -13.79030
Nuclear contribution   :    -20.72323      -7.63805      14.33458
                        -----------------------------------------
Total Dipole Moment    :     -0.40728      -0.29175       0.54429
                        -----------------------------------------
Magnitude (a.u.)       :      0.73976
Magnitude (Debye)      :      1.88032

Rotational constants in cm-1:     0.019137     0.009187     0.007084
Rotational constants in MHz :   573.727555   275.426458   212.364876

                             ****ORCA TERMINATED NORMALLY****
TOTAL RUN TIME: 0 days 0 hours 0 minutes 33 seconds 223 msec
