                         Program Version 4.2.1 -  RELEASE  -
|  1> ! wB97X-D3 SP def2-SVP
|  2> %pal
|  3> nprocs 16
|  4> end
|  5>
|  6> * xyz 0 1
|  7> S 	 3.99101 	 -12.3391 	 59.4999
|  8> C 	 3.43341 	 -11.7843 	 61.057
|  9> C 	 2.31546 	 -12.5096 	 61.4078
| 10> C 	 2.13485 	 -13.7238 	 60.6734
| 11> C 	 3.12625 	 -13.9036 	 59.7309
| 12> H 	 1.3536 	 -14.4591 	 60.7767
| 13> C 	 1.40901 	 -12.1446 	 62.5223
| 14> H 	 0.546825 	 -11.7752 	 62.0271
| 15> H 	 1.83114 	 -11.2853 	 63.0269
| 16> C 	 1.13016 	 -13.2993 	 63.4711
| 17> H 	 0.749511 	 -14.1952 	 62.9904
| 18> H 	 2.05581 	 -13.6272 	 63.8773
| 19> C 	 0.274399 	 -12.9087 	 64.6205
| 20> H 	 -0.780657 	 -12.8056 	 64.2994
| 21> H 	 0.300236 	 -13.6246 	 65.4115
| 22> H 	 0.491929 	 -11.9687 	 65.0564
| 23> S 	 3.89503 	 -14.7672 	 57.3127
| 24> C 	 3.92132 	 -16.4732 	 56.92
| 25> C 	 3.43576 	 -17.2369 	 57.9528
| 26> C 	 3.05784 	 -16.4863 	 59.1037
| 27> C 	 3.33799 	 -15.104 	 58.9183
| 28> H 	 3.31548 	 -18.3001 	 57.7708
| 29> C 	 2.56487 	 -17.2284 	 60.356
| 30> H 	 2.25021 	 -18.1927 	 59.897
| 31> H 	 1.61355 	 -16.9125 	 60.6644
| 32> C 	 3.54628 	 -17.3542 	 61.5877
| 33> H 	 3.99302 	 -16.344 	 61.8188
| 34> H 	 4.44789 	 -17.9859 	 61.2925
| 35> C 	 2.86795 	 -18.0498 	 62.8212
| 36> H 	 2.37731 	 -19.0469 	 62.5764
| 37> H 	 2.09948 	 -17.3662 	 63.1309
| 38> H 	 3.56937 	 -18.3551 	 63.6416
| 39> H 	 3.73759 	 -10.8869 	 61.5034
| 40> H 	 4.15336 	 -16.7888 	 55.8657
| 41> *
| 42>
| 43>                          ****END OF INPUT****

CARTESIAN COORDINATES (ANGSTROEM)
---------------------------------
  S      3.991010  -12.339100   59.499900
  C      3.433410  -11.784300   61.057000
  C      2.315460  -12.509600   61.407800
  C      2.134850  -13.723800   60.673400
  C      3.126250  -13.903600   59.730900
  H      1.353600  -14.459100   60.776700
  C      1.409010  -12.144600   62.522300
  H      0.546825  -11.775200   62.027100
  H      1.831140  -11.285300   63.026900
  C      1.130160  -13.299300   63.471100
  H      0.749511  -14.195200   62.990400
  H      2.055810  -13.627200   63.877300
  C      0.274399  -12.908700   64.620500
  H     -0.780657  -12.805600   64.299400
  H      0.300236  -13.624600   65.411500
  H      0.491929  -11.968700   65.056400
  S      3.895030  -14.767200   57.312700
  C      3.921320  -16.473200   56.920000
  C      3.435760  -17.236900   57.952800
  C      3.057840  -16.486300   59.103700
  C      3.337990  -15.104000   58.918300
  H      3.315480  -18.300100   57.770800
  C      2.564870  -17.228400   60.356000
  H      2.250210  -18.192700   59.897000
  H      1.613550  -16.912500   60.664400
  C      3.546280  -17.354200   61.587700
  H      3.993020  -16.344000   61.818800
  H      4.447890  -17.985900   61.292500
  C      2.867950  -18.049800   62.821200
  H      2.377310  -19.046900   62.576400
  H      2.099480  -17.366200   63.130900
  H      3.569370  -18.355100   63.641600
  H      3.737590  -10.886900   61.503400
  H      4.153360  -16.788800   55.865700

 Total Charge           Charge          ....    0
 Multiplicity           Mult            ....    1
 Number of Electrons    NEL             ....  134
 Basis Dimension        Dim             ....  322

ORBITAL ENERGIES
----------------

  NO   OCC          E(Eh)            E(eV)
   0   2.0000     -88.965315     -2420.8693
   1   2.0000     -88.961191     -2420.7571
   2   2.0000     -10.333517      -281.1893
   3   2.0000     -10.331782      -281.1421
   4   2.0000     -10.319680      -280.8128
   5   2.0000     -10.311161      -280.5809
   6   2.0000     -10.307527      -280.4821
   7   2.0000     -10.301828      -280.3270
   8   2.0000     -10.297212      -280.2014
   9   2.0000     -10.297062      -280.1973
  10   2.0000     -10.295671      -280.1595
  11   2.0000     -10.291818      -280.0546
  12   2.0000     -10.289303      -279.9862
  13   2.0000     -10.283719      -279.8342
  14   2.0000     -10.279729      -279.7257
  15   2.0000     -10.270480      -279.4740
  16   2.0000      -8.080668      -219.8862
  17   2.0000      -8.075491      -219.7453
  18   2.0000      -6.039062      -164.3312
  19   2.0000      -6.035061      -164.2224
  20   2.0000      -6.034243      -164.2001
  21   2.0000      -6.031565      -164.1272
  22   2.0000      -6.030450      -164.0969
  23   2.0000      -6.025637      -163.9659
  24   2.0000      -1.005810       -27.3695
  25   2.0000      -0.984498       -26.7896
  26   2.0000      -0.919777       -25.0284
  27   2.0000      -0.898952       -24.4617
  28   2.0000      -0.872990       -23.7553
  29   2.0000      -0.850989       -23.1566
  30   2.0000      -0.846702       -23.0399
  31   2.0000      -0.817489       -22.2450
  32   2.0000      -0.779736       -21.2177
  33   2.0000      -0.768498       -20.9119
  34   2.0000      -0.713839       -19.4245
  35   2.0000      -0.702591       -19.1185
  36   2.0000      -0.691570       -18.8186
  37   2.0000      -0.663476       -18.0541
  38   2.0000      -0.639681       -17.4066
  39   2.0000      -0.623455       -16.9651
  40   2.0000      -0.596005       -16.2181
  41   2.0000      -0.570948       -15.5363
  42   2.0000      -0.562165       -15.2973
  43   2.0000      -0.550975       -14.9928
  44   2.0000      -0.535872       -14.5818
  45   2.0000      -0.518905       -14.1201
  46   2.0000      -0.514780       -14.0079
  47   2.0000      -0.513703       -13.9786
  48   2.0000      -0.508699       -13.8424
  49   2.0000      -0.502057       -13.6617
  50   2.0000      -0.491706       -13.3800
  51   2.0000      -0.482673       -13.1342
  52   2.0000      -0.473427       -12.8826
  53   2.0000      -0.466956       -12.7065
  54   2.0000      -0.455058       -12.3828
  55   2.0000      -0.450573       -12.2607
  56   2.0000      -0.443670       -12.0729
  57   2.0000      -0.441394       -12.0109
  58   2.0000      -0.435368       -11.8470
  59   2.0000      -0.426727       -11.6118
  60   2.0000      -0.421237       -11.4624
  61   2.0000      -0.413358       -11.2480
  62   2.0000      -0.408818       -11.1245
  63   2.0000      -0.358457        -9.7541
  64   2.0000      -0.335867        -9.1394
  65   2.0000      -0.321078        -8.7370
  66   2.0000      -0.279978        -7.6186
  67   0.0000       0.015806         0.4301
  68   0.0000       0.075020         2.0414
  69   0.0000       0.094509         2.5717
  70   0.0000       0.121023         3.2932
  71   0.0000       0.133235         3.6255

MULLIKEN ATOMIC CHARGES
-----------------------
   0 S :    0.084640
   1 C :   -0.094939
   2 C :   -0.096558
   3 C :   -0.003951
   4 C :   -0.099542
   5 H :    0.011523
   6 C :    0.119031
   7 H :    0.026135
   8 H :    0.004623
   9 C :   -0.072948
  10 H :    0.025576
  11 H :    0.016756
  12 C :   -0.008197
  13 H :    0.022225
  14 H :    0.023601
  15 H :    0.012430
  16 S :    0.092689
  17 C :   -0.114348
  18 C :   -0.036697
  19 C :   -0.053387
  20 C :   -0.144819
  21 H :    0.025438
  22 C :    0.088662
  23 H :    0.009126
  24 H :    0.000955
  25 C :   -0.082505
  26 H :    0.056247
  27 H :    0.039402
  28 C :   -0.078877
  29 H :    0.037622
  30 H :    0.035450
  31 H :    0.051145
  32 H :    0.026515
  33 H :    0.076976
Sum of atomic charges:   -0.0000000

LOEWDIN ATOMIC CHARGES
----------------------
   0 S :    0.365790
   1 C :   -0.190746
   2 C :   -0.055286
   3 C :   -0.065053
   4 C :   -0.166780
   5 H :    0.030047
   6 C :   -0.026765
   7 H :    0.031366
   8 H :    0.028965
   9 C :   -0.039865
  10 H :    0.023202
  11 H :    0.022754
  12 C :   -0.059669
  13 H :    0.027096
  14 H :    0.022749
  15 H :    0.018634
  16 S :    0.414362
  17 C :   -0.194023
  18 C :   -0.073566
  19 C :   -0.059751
  20 C :   -0.192886
  21 H :    0.035663
  22 C :   -0.034209
  23 H :    0.035383
  24 H :    0.015910
  25 C :   -0.043005
  26 H :    0.034111
  27 H :    0.029874
  28 C :   -0.076416
  29 H :    0.031465
  30 H :    0.020498
  31 H :    0.033948
  32 H :    0.017505
  33 H :    0.038694

  Mayer bond orders larger than 0.100000
B(  0-S ,  1-C ) :   1.1098 B(  0-S ,  4-C ) :   1.1281 B(  1-C ,  2-C ) :   1.6202
B(  1-C , 32-H ) :   0.9783 B(  2-C ,  3-C ) :   1.1987 B(  2-C ,  6-C ) :   1.0377
B(  3-C ,  4-C ) :   1.5754 B(  3-C ,  5-H ) :   1.0007 B(  4-C , 20-C ) :   1.0847
B(  6-C ,  7-H ) :   0.9203 B(  6-C ,  8-H ) :   0.9352 B(  6-C ,  9-C ) :   1.0681
B(  9-C , 10-H ) :   0.9483 B(  9-C , 11-H ) :   0.9534 B(  9-C , 12-C ) :   1.1009
B( 12-C , 13-H ) :   0.9712 B( 12-C , 14-H ) :   0.9720 B( 12-C , 15-H ) :   0.9702
B( 16-S , 17-C ) :   1.1571 B( 16-S , 20-C ) :   1.1647 B( 17-C , 18-C ) :   1.5972
B( 17-C , 33-H ) :   0.9620 B( 18-C , 19-C ) :   1.2656 B( 18-C , 21-H ) :   0.9875
B( 19-C , 20-C ) :   1.5424 B( 19-C , 22-C ) :   1.0361 B( 22-C , 23-H ) :   0.9262
B( 22-C , 24-H ) :   0.9342 B( 22-C , 25-C ) :   1.0384 B( 25-C , 26-H ) :   0.9602
B( 25-C , 27-H ) :   0.9582 B( 25-C , 28-C ) :   1.0609 B( 28-C , 29-H ) :   0.9756
B( 28-C , 30-H ) :   0.9782 B( 28-C , 31-H ) :   0.9755

Dispersion correction           -0.014207519
FINAL SINGLE POINT ENERGY     -1339.866228008161

DIPOLE MOMENT
-------------
                                X             Y             Z
Electronic contribution:     13.07408      10.82684     -28.52105
Nuclear contribution   :    -13.55847     -11.17814      28.97658
                        -----------------------------------------
Total Dipole Moment    :     -0.48440      -0.35130       0.45553
                        -----------------------------------------
Magnitude (a.u.)       :      0.75203
Magnitude (Debye)      :      1.91152

Rotational constants in cm-1:     0.016953     0.009810     0.006677
Rotational constants in MHz :   508.241186   294.098782   200.161983

                             ****ORCA TERMINATED NORMALLY****
TOTAL RUN TIME: 0 days 0 hours 0 minutes 30 seconds 654 msec
