                         Program Version 4.2.1 -  RELEASE  -
|  1> ! wB97X-D3 SP def2-SVP
|  2> %pal
|  3> nprocs 16
|  4> end
|  5>
|  6> * xyz 0 1
|  7> S 	 -4.48731 	 -5.56227 	 81.8856
|  8> C 	 -4.89665 	 -7.17093 	 82.1817
|  9> C 	 -4.68902 	 -7.57261 	 83.5169
| 10> C 	 -4.22142 	 -6.4476 	 84.3114
| 11> C 	 -4.03452 	 -5.3068 	 83.617
| 12> H 	 -3.87566 	 -6.46197 	 85.4031
| 13> C 	 -5.03052 	 -8.90149 	 83.9495
| 14> H 	 -4.00212 	 -9.37928 	 84.0351
| 15> H 	 -5.44205 	 -9.53655 	 83.1679
| 16> C 	 -5.99762 	 -9.02353 	 85.1173
| 17> H 	 -5.79976 	 -9.89681 	 85.8274
| 18> H 	 -5.81708 	 -8.17701 	 85.7979
| 19> C 	 -7.44652 	 -9.08364 	 84.7677
| 20> H 	 -7.64472 	 -10.1376 	 84.5106
| 21> H 	 -7.9534 	 -8.74708 	 85.6455
| 22> H 	 -7.74106 	 -8.3853 	 83.962
| 23> S 	 -2.3756 	 -3.17087 	 82.9766
| 24> C 	 -1.85857 	 -2.16322 	 84.3025
| 25> C 	 -2.52427 	 -2.48036 	 85.4642
| 26> C 	 -3.4109 	 -3.57987 	 85.3808
| 27> C 	 -3.42677 	 -4.1042 	 84.0694
| 28> H 	 -2.26241 	 -1.7349 	 86.2634
| 29> C 	 -4.20358 	 -4.07902 	 86.6201
| 30> H 	 -3.9892 	 -3.40447 	 87.4807
| 31> H 	 -3.86192 	 -5.05944 	 86.977
| 32> C 	 -5.74442 	 -3.89543 	 86.39
| 33> H 	 -6.28241 	 -4.32672 	 87.2161
| 34> H 	 -6.08756 	 -4.56418 	 85.5503
| 35> C 	 -6.23972 	 -2.44047 	 86.1734
| 36> H 	 -7.29371 	 -2.33305 	 86.1584
| 37> H 	 -5.81882 	 -2.1653 	 85.2139
| 38> H 	 -5.87472 	 -1.81221 	 87.0032
| 39> H 	 -5.33943 	 -7.89963 	 81.5104
| 40> H 	 -1.1922 	 -1.3744 	 84.2259
| 41> *
| 42>
| 43>                          ****END OF INPUT****

CARTESIAN COORDINATES (ANGSTROEM)
---------------------------------
  S     -4.487310   -5.562270   81.885600
  C     -4.896650   -7.170930   82.181700
  C     -4.689020   -7.572610   83.516900
  C     -4.221420   -6.447600   84.311400
  C     -4.034520   -5.306800   83.617000
  H     -3.875660   -6.461970   85.403100
  C     -5.030520   -8.901490   83.949500
  H     -4.002120   -9.379280   84.035100
  H     -5.442050   -9.536550   83.167900
  C     -5.997620   -9.023530   85.117300
  H     -5.799760   -9.896810   85.827400
  H     -5.817080   -8.177010   85.797900
  C     -7.446520   -9.083640   84.767700
  H     -7.644720  -10.137600   84.510600
  H     -7.953400   -8.747080   85.645500
  H     -7.741060   -8.385300   83.962000
  S     -2.375600   -3.170870   82.976600
  C     -1.858570   -2.163220   84.302500
  C     -2.524270   -2.480360   85.464200
  C     -3.410900   -3.579870   85.380800
  C     -3.426770   -4.104200   84.069400
  H     -2.262410   -1.734900   86.263400
  C     -4.203580   -4.079020   86.620100
  H     -3.989200   -3.404470   87.480700
  H     -3.861920   -5.059440   86.977000
  C     -5.744420   -3.895430   86.390000
  H     -6.282410   -4.326720   87.216100
  H     -6.087560   -4.564180   85.550300
  C     -6.239720   -2.440470   86.173400
  H     -7.293710   -2.333050   86.158400
  H     -5.818820   -2.165300   85.213900
  H     -5.874720   -1.812210   87.003200
  H     -5.339430   -7.899630   81.510400
  H     -1.192200   -1.374400   84.225900

 Total Charge           Charge          ....    0
 Multiplicity           Mult            ....    1
 Number of Electrons    NEL             ....  134
 Basis Dimension        Dim             ....  322

ORBITAL ENERGIES
----------------

  NO   OCC          E(Eh)            E(eV)
   0   2.0000     -88.968145     -2420.9463
   1   2.0000     -88.964293     -2420.8415
   2   2.0000     -10.330773      -281.1146
   3   2.0000     -10.327546      -281.0268
   4   2.0000     -10.310651      -280.5671
   5   2.0000     -10.309988      -280.5490
   6   2.0000     -10.309853      -280.5454
   7   2.0000     -10.304740      -280.4062
   8   2.0000     -10.300636      -280.2946
   9   2.0000     -10.299874      -280.2738
  10   2.0000     -10.295870      -280.1649
  11   2.0000     -10.290133      -280.0088
  12   2.0000     -10.288365      -279.9607
  13   2.0000     -10.286982      -279.9230
  14   2.0000     -10.276520      -279.6383
  15   2.0000     -10.273525      -279.5568
  16   2.0000      -8.082461      -219.9349
  17   2.0000      -8.079409      -219.8519
  18   2.0000      -6.040913      -164.3816
  19   2.0000      -6.037930      -164.3004
  20   2.0000      -6.037061      -164.2768
  21   2.0000      -6.033943      -164.1919
  22   2.0000      -6.033268      -164.1736
  23   2.0000      -6.030063      -164.0864
  24   2.0000      -1.007168       -27.4064
  25   2.0000      -0.983804       -26.7707
  26   2.0000      -0.920313       -25.0430
  27   2.0000      -0.901872       -24.5412
  28   2.0000      -0.876456       -23.8496
  29   2.0000      -0.854716       -23.2580
  30   2.0000      -0.844355       -22.9761
  31   2.0000      -0.819140       -22.2899
  32   2.0000      -0.784859       -21.3571
  33   2.0000      -0.768702       -20.9175
  34   2.0000      -0.715211       -19.4619
  35   2.0000      -0.693076       -18.8596
  36   2.0000      -0.686108       -18.6700
  37   2.0000      -0.657974       -17.9044
  38   2.0000      -0.640952       -17.4412
  39   2.0000      -0.619254       -16.8508
  40   2.0000      -0.591345       -16.0913
  41   2.0000      -0.569523       -15.4975
  42   2.0000      -0.561542       -15.2803
  43   2.0000      -0.551180       -14.9984
  44   2.0000      -0.547794       -14.9062
  45   2.0000      -0.538393       -14.6504
  46   2.0000      -0.515309       -14.0223
  47   2.0000      -0.510846       -13.9008
  48   2.0000      -0.505935       -13.7672
  49   2.0000      -0.492866       -13.4116
  50   2.0000      -0.488277       -13.2867
  51   2.0000      -0.477588       -12.9958
  52   2.0000      -0.471385       -12.8270
  53   2.0000      -0.465593       -12.6694
  54   2.0000      -0.463887       -12.6230
  55   2.0000      -0.449075       -12.2200
  56   2.0000      -0.442397       -12.0382
  57   2.0000      -0.438981       -11.9453
  58   2.0000      -0.429826       -11.6961
  59   2.0000      -0.418147       -11.3784
  60   2.0000      -0.414743       -11.2857
  61   2.0000      -0.413439       -11.2502
  62   2.0000      -0.405571       -11.0361
  63   2.0000      -0.363746        -9.8980
  64   2.0000      -0.336493        -9.1564
  65   2.0000      -0.323647        -8.8069
  66   2.0000      -0.278768        -7.5857
  67   0.0000       0.021024         0.5721
  68   0.0000       0.076506         2.0818
  69   0.0000       0.106428         2.8960
  70   0.0000       0.120858         3.2887
  71   0.0000       0.128854         3.5063

MULLIKEN ATOMIC CHARGES
-----------------------
   0 S :    0.108173
   1 C :   -0.094830
   2 C :   -0.115769
   3 C :   -0.012783
   4 C :   -0.137493
   5 H :    0.038259
   6 C :    0.061787
   7 H :    0.048371
   8 H :    0.005172
   9 C :   -0.106880
  10 H :    0.032793
  11 H :    0.020620
  12 C :   -0.029371
  13 H :    0.041383
  14 H :    0.030034
  15 H :    0.038914
  16 S :    0.110190
  17 C :   -0.078131
  18 C :   -0.054174
  19 C :   -0.039534
  20 C :   -0.134439
  21 H :    0.035853
  22 C :    0.055309
  23 H :    0.021395
  24 H :    0.045960
  25 C :   -0.102219
  26 H :    0.016246
  27 H :    0.045586
  28 C :   -0.030245
  29 H :    0.031449
  30 H :    0.048035
  31 H :    0.027702
  32 H :    0.044625
  33 H :    0.028012
Sum of atomic charges:   -0.0000000

LOEWDIN ATOMIC CHARGES
----------------------
   0 S :    0.396746
   1 C :   -0.217734
   2 C :   -0.065473
   3 C :   -0.068697
   4 C :   -0.176581
   5 H :    0.046277
   6 C :   -0.049519
   7 H :    0.047724
   8 H :    0.028743
   9 C :   -0.051636
  10 H :    0.032197
  11 H :    0.019546
  12 C :   -0.062897
  13 H :    0.028967
  14 H :    0.027579
  15 H :    0.028761
  16 S :    0.398732
  17 C :   -0.179640
  18 C :   -0.078849
  19 C :   -0.057180
  20 C :   -0.186747
  21 H :    0.043647
  22 C :   -0.029355
  23 H :    0.033399
  24 H :    0.029201
  25 C :   -0.045441
  26 H :    0.015393
  27 H :    0.028178
  28 C :   -0.058210
  29 H :    0.022669
  30 H :    0.028998
  31 H :    0.025566
  32 H :    0.030701
  33 H :    0.014936

  Mayer bond orders larger than 0.100000
B(  0-S ,  1-C ) :   1.1401 B(  0-S ,  4-C ) :   1.1125 B(  1-C ,  2-C ) :   1.6094
B(  1-C , 32-H ) :   0.9619 B(  2-C ,  3-C ) :   1.2137 B(  2-C ,  6-C ) :   1.0582
B(  3-C ,  4-C ) :   1.6091 B(  3-C ,  5-H ) :   0.9675 B(  4-C , 20-C ) :   1.1065
B(  6-C ,  7-H ) :   0.9196 B(  6-C ,  8-H ) :   0.9388 B(  6-C ,  9-C ) :   1.0426
B(  9-C , 10-H ) :   0.9526 B(  9-C , 11-H ) :   0.9651 B(  9-C , 12-C ) :   1.0784
B( 12-C , 13-H ) :   0.9746 B( 12-C , 14-H ) :   0.9704 B( 12-C , 15-H ) :   0.9758
B( 16-S , 17-C ) :   1.1469 B( 16-S , 20-C ) :   1.1399 B( 17-C , 18-C ) :   1.6264
B( 17-C , 20-C ) :   0.1057 B( 17-C , 33-H ) :   0.9741 B( 18-C , 19-C ) :   1.2418
B( 18-C , 21-H ) :   0.9824 B( 19-C , 20-C ) :   1.5543 B( 19-C , 22-C ) :   1.0223
B( 22-C , 23-H ) :   0.9378 B( 22-C , 24-H ) :   0.9402 B( 22-C , 25-C ) :   1.0590
B( 25-C , 26-H ) :   0.9583 B( 25-C , 27-H ) :   0.9563 B( 25-C , 28-C ) :   1.0667
B( 28-C , 29-H ) :   0.9751 B( 28-C , 30-H ) :   0.9761 B( 28-C , 31-H ) :   0.9752

Dispersion correction           -0.015159829
FINAL SINGLE POINT ENERGY     -1339.868699674834

DIPOLE MOMENT
-------------
                                X             Y             Z
Electronic contribution:     17.23022      10.88322     -19.11191
Nuclear contribution   :    -17.38028     -11.12304      19.73685
                        -----------------------------------------
Total Dipole Moment    :     -0.15007      -0.23982       0.62494
                        -----------------------------------------
Magnitude (a.u.)       :      0.68599
Magnitude (Debye)      :      1.74365

Rotational constants in cm-1:     0.020168     0.009322     0.007279
Rotational constants in MHz :   604.634885   279.455661   218.205816

                             ****ORCA TERMINATED NORMALLY****
TOTAL RUN TIME: 0 days 0 hours 0 minutes 36 seconds 476 msec
