                         Program Version 4.2.1 -  RELEASE  -
|  1> ! wB97X-D3 SP def2-SVP
|  2> %pal
|  3> nprocs 16
|  4> end
|  5>
|  6> * xyz 0 1
|  7> S 	 -81.7751 	 45.2679 	 137.467
|  8> C 	 -81.664 	 44.5928 	 139.124
|  9> C 	 -80.3585 	 44.0155 	 139.306
| 10> C 	 -79.517 	 44.2979 	 138.21
| 11> C 	 -80.1085 	 44.9953 	 137.136
| 12> H 	 -78.4625 	 44.0594 	 138.194
| 13> C 	 -79.7396 	 43.3335 	 140.545
| 14> H 	 -80.4742 	 43.4139 	 141.319
| 15> H 	 -78.952 	 44.0533 	 140.88
| 16> C 	 -79.1798 	 41.8588 	 140.434
| 17> H 	 -78.5493 	 41.7053 	 139.518
| 18> H 	 -78.4469 	 41.652 	 141.166
| 19> C 	 -80.1576 	 40.7273 	 140.662
| 20> H 	 -80.9979 	 40.7856 	 140.012
| 21> H 	 -79.6664 	 39.8122 	 140.36
| 22> H 	 -80.5501 	 40.5565 	 141.618
| 23> S 	 -79.9612 	 47.2474 	 135.535
| 24> C 	 -78.5865 	 47.4519 	 134.523
| 25> C 	 -77.9525 	 46.2398 	 134.285
| 26> C 	 -78.3733 	 45.247 	 135.222
| 27> C 	 -79.3898 	 45.6806 	 136.094
| 28> H 	 -77.0856 	 46.2214 	 133.582
| 29> C 	 -77.6298 	 43.9331 	 135.335
| 30> H 	 -77.1799 	 43.937 	 136.326
| 31> H 	 -76.7211 	 44.0296 	 134.695
| 32> C 	 -78.3424 	 42.5933 	 135.089
| 33> H 	 -79.3201 	 42.5988 	 135.584
| 34> H 	 -77.7401 	 41.7311 	 135.435
| 35> C 	 -78.9367 	 42.3586 	 133.654
| 36> H 	 -79.481 	 41.4361 	 133.56
| 37> H 	 -78.11 	 42.3197 	 132.972
| 38> H 	 -79.6335 	 43.2325 	 133.298
| 39> H 	 -82.4326 	 44.286 	 139.761
| 40> H 	 -78.3596 	 48.3466 	 133.828
| 41> *
| 42>
| 43>                          ****END OF INPUT****

CARTESIAN COORDINATES (ANGSTROEM)
---------------------------------
  S    -81.775100   45.267900  137.467000
  C    -81.664000   44.592800  139.124000
  C    -80.358500   44.015500  139.306000
  C    -79.517000   44.297900  138.210000
  C    -80.108500   44.995300  137.136000
  H    -78.462500   44.059400  138.194000
  C    -79.739600   43.333500  140.545000
  H    -80.474200   43.413900  141.319000
  H    -78.952000   44.053300  140.880000
  C    -79.179800   41.858800  140.434000
  H    -78.549300   41.705300  139.518000
  H    -78.446900   41.652000  141.166000
  C    -80.157600   40.727300  140.662000
  H    -80.997900   40.785600  140.012000
  H    -79.666400   39.812200  140.360000
  H    -80.550100   40.556500  141.618000
  S    -79.961200   47.247400  135.535000
  C    -78.586500   47.451900  134.523000
  C    -77.952500   46.239800  134.285000
  C    -78.373300   45.247000  135.222000
  C    -79.389800   45.680600  136.094000
  H    -77.085600   46.221400  133.582000
  C    -77.629800   43.933100  135.335000
  H    -77.179900   43.937000  136.326000
  H    -76.721100   44.029600  134.695000
  C    -78.342400   42.593300  135.089000
  H    -79.320100   42.598800  135.584000
  H    -77.740100   41.731100  135.435000
  C    -78.936700   42.358600  133.654000
  H    -79.481000   41.436100  133.560000
  H    -78.110000   42.319700  132.972000
  H    -79.633500   43.232500  133.298000
  H    -82.432600   44.286000  139.761000
  H    -78.359600   48.346600  133.828000

 Total Charge           Charge          ....    0
 Multiplicity           Mult            ....    1
 Number of Electrons    NEL             ....  134
 Basis Dimension        Dim             ....  322

ORBITAL ENERGIES
----------------

  NO   OCC          E(Eh)            E(eV)
   0   2.0000     -88.972294     -2421.0592
   1   2.0000     -88.968044     -2420.9436
   2   2.0000     -10.332302      -281.1562
   3   2.0000     -10.329860      -281.0898
   4   2.0000     -10.321839      -280.8715
   5   2.0000     -10.318047      -280.7683
   6   2.0000     -10.308436      -280.5068
   7   2.0000     -10.307354      -280.4774
   8   2.0000     -10.301309      -280.3129
   9   2.0000     -10.298227      -280.2290
  10   2.0000     -10.294610      -280.1306
  11   2.0000     -10.292939      -280.0851
  12   2.0000     -10.291483      -280.0455
  13   2.0000     -10.288198      -279.9561
  14   2.0000     -10.278930      -279.7039
  15   2.0000     -10.269088      -279.4361
  16   2.0000      -8.086241      -220.0378
  17   2.0000      -8.082998      -219.9496
  18   2.0000      -6.044860      -164.4890
  19   2.0000      -6.041461      -164.3965
  20   2.0000      -6.040745      -164.3770
  21   2.0000      -6.037539      -164.2898
  22   2.0000      -6.037050      -164.2765
  23   2.0000      -6.033711      -164.1856
  24   2.0000      -1.008490       -27.4424
  25   2.0000      -0.981857       -26.7177
  26   2.0000      -0.907165       -24.6852
  27   2.0000      -0.903234       -24.5783
  28   2.0000      -0.870872       -23.6976
  29   2.0000      -0.850599       -23.1460
  30   2.0000      -0.845535       -23.0082
  31   2.0000      -0.809999       -22.0412
  32   2.0000      -0.785517       -21.3750
  33   2.0000      -0.773426       -21.0460
  34   2.0000      -0.712822       -19.3969
  35   2.0000      -0.706448       -19.2234
  36   2.0000      -0.685565       -18.6552
  37   2.0000      -0.657444       -17.8900
  38   2.0000      -0.633442       -17.2368
  39   2.0000      -0.620612       -16.8877
  40   2.0000      -0.589264       -16.0347
  41   2.0000      -0.565502       -15.3881
  42   2.0000      -0.551277       -15.0010
  43   2.0000      -0.544449       -14.8152
  44   2.0000      -0.540549       -14.7091
  45   2.0000      -0.534007       -14.5311
  46   2.0000      -0.521696       -14.1961
  47   2.0000      -0.516797       -14.0628
  48   2.0000      -0.504033       -13.7154
  49   2.0000      -0.490132       -13.3372
  50   2.0000      -0.486106       -13.2276
  51   2.0000      -0.478168       -13.0116
  52   2.0000      -0.470101       -12.7921
  53   2.0000      -0.465353       -12.6629
  54   2.0000      -0.462665       -12.5898
  55   2.0000      -0.448436       -12.2026
  56   2.0000      -0.445902       -12.1336
  57   2.0000      -0.437643       -11.9089
  58   2.0000      -0.434639       -11.8271
  59   2.0000      -0.427485       -11.6325
  60   2.0000      -0.420385       -11.4392
  61   2.0000      -0.412864       -11.2346
  62   2.0000      -0.397284       -10.8106
  63   2.0000      -0.353499        -9.6192
  64   2.0000      -0.333599        -9.0777
  65   2.0000      -0.329951        -8.9784
  66   2.0000      -0.280824        -7.6416
  67   0.0000       0.016417         0.4467
  68   0.0000       0.066951         1.8218
  69   0.0000       0.102540         2.7903
  70   0.0000       0.120707         3.2846
  71   0.0000       0.127589         3.4719

MULLIKEN ATOMIC CHARGES
-----------------------
   0 S :    0.106913
   1 C :   -0.095492
   2 C :   -0.106719
   3 C :    0.008230
   4 C :   -0.125383
   5 H :    0.004519
   6 C :    0.052916
   7 H :    0.005954
   8 H :    0.050122
   9 C :   -0.056286
  10 H :    0.032020
  11 H :    0.016048
  12 C :   -0.015531
  13 H :    0.018272
  14 H :    0.021148
  15 H :    0.023072
  16 S :    0.115241
  17 C :   -0.123426
  18 C :   -0.053385
  19 C :   -0.049705
  20 C :   -0.131773
  21 H :    0.040166
  22 C :    0.054799
  23 H :    0.033480
  24 H :    0.016156
  25 C :   -0.074010
  26 H :    0.045904
  27 H :    0.039559
  28 C :   -0.085861
  29 H :    0.038119
  30 H :    0.016685
  31 H :    0.055420
  32 H :    0.036568
  33 H :    0.086261
Sum of atomic charges:    0.0000000

LOEWDIN ATOMIC CHARGES
----------------------
   0 S :    0.411807
   1 C :   -0.196972
   2 C :   -0.053567
   3 C :   -0.065495
   4 C :   -0.201002
   5 H :    0.025655
   6 C :   -0.032061
   7 H :    0.023670
   8 H :    0.044063
   9 C :   -0.041829
  10 H :    0.031396
  11 H :    0.022515
  12 C :   -0.059759
  13 H :    0.020149
  14 H :    0.030198
  15 H :    0.018203
  16 S :    0.417928
  17 C :   -0.210732
  18 C :   -0.081072
  19 C :   -0.056026
  20 C :   -0.196478
  21 H :    0.040313
  22 C :   -0.039194
  23 H :    0.033281
  24 H :    0.031203
  25 C :   -0.047422
  26 H :    0.030942
  27 H :    0.028818
  28 C :   -0.071095
  29 H :    0.023108
  30 H :    0.011982
  31 H :    0.039921
  32 H :    0.017562
  33 H :    0.049992

  Mayer bond orders larger than 0.100000
B(  0-S ,  1-C ) :   1.1341 B(  0-S ,  4-C ) :   1.1618 B(  1-C ,  2-C ) :   1.5637
B(  1-C ,  4-C ) :   0.1084 B(  1-C , 32-H ) :   0.9669 B(  2-C ,  3-C ) :   1.2971
B(  2-C ,  6-C ) :   1.0217 B(  3-C ,  4-C ) :   1.5058 B(  3-C ,  5-H ) :   0.9895
B(  4-C , 20-C ) :   1.0948 B(  6-C ,  7-H ) :   0.9444 B(  6-C ,  8-H ) :   0.9447
B(  6-C ,  9-C ) :   1.0496 B(  9-C , 10-H ) :   0.9588 B(  9-C , 11-H ) :   0.9532
B(  9-C , 12-C ) :   1.0834 B( 12-C , 13-H ) :   0.9767 B( 12-C , 14-H ) :   0.9683
B( 12-C , 15-H ) :   0.9758 B( 16-S , 17-C ) :   1.1729 B( 16-S , 20-C ) :   1.1333
B( 17-C , 18-C ) :   1.5951 B( 17-C , 20-C ) :   0.1002 B( 17-C , 33-H ) :   0.9531
B( 18-C , 19-C ) :   1.2700 B( 18-C , 21-H ) :   0.9799 B( 19-C , 20-C ) :   1.5438
B( 19-C , 22-C ) :   1.0332 B( 22-C , 23-H ) :   0.9345 B( 22-C , 24-H ) :   0.9359
B( 22-C , 25-C ) :   1.0594 B( 25-C , 26-H ) :   0.9591 B( 25-C , 27-H ) :   0.9557
B( 25-C , 28-C ) :   1.0618 B( 28-C , 29-H ) :   0.9769 B( 28-C , 30-H ) :   0.9776
B( 28-C , 31-H ) :   0.9751

Dispersion correction           -0.014532145
FINAL SINGLE POINT ENERGY     -1339.851798952007

DIPOLE MOMENT
-------------
                                X             Y             Z
Electronic contribution:    -10.65344      25.93538      -6.02047
Nuclear contribution   :     11.19375     -26.44291       6.18893
                        -----------------------------------------
Total Dipole Moment    :      0.54032      -0.50753       0.16846
                        -----------------------------------------
Magnitude (a.u.)       :      0.76020
Magnitude (Debye)      :      1.93227

Rotational constants in cm-1:     0.019346     0.008865     0.007004
Rotational constants in MHz :   579.968563   265.767279   209.978722

                             ****ORCA TERMINATED NORMALLY****
TOTAL RUN TIME: 0 days 0 hours 0 minutes 34 seconds 161 msec
