                         Program Version 4.2.1 -  RELEASE  -
|  1> ! wB97X-D3 SP def2-SVP
|  2> %pal
|  3> nprocs 16
|  4> end
|  5>
|  6> * xyz 0 1
|  7> S 	 -88.0899 	 48.4464 	 128.188
|  8> C 	 -89.0431 	 48.6392 	 126.75
|  9> C 	 -88.3458 	 48.164 	 125.658
| 10> C 	 -87.0345 	 47.8167 	 125.979
| 11> C 	 -86.6409 	 47.9604 	 127.274
| 12> H 	 -86.4717 	 47.3531 	 125.139
| 13> C 	 -89.0126 	 47.9795 	 124.303
| 14> H 	 -88.3417 	 48.2054 	 123.458
| 15> H 	 -89.8654 	 48.6456 	 124.247
| 16> C 	 -89.4891 	 46.5863 	 123.959
| 17> H 	 -89.7221 	 46.321 	 122.944
| 18> H 	 -88.6966 	 45.9651 	 124.276
| 19> C 	 -90.6297 	 46.2133 	 124.897
| 20> H 	 -90.643 	 45.0603 	 124.849
| 21> H 	 -90.6056 	 46.4885 	 125.884
| 22> H 	 -91.5759 	 46.6387 	 124.466
| 23> S 	 -85.783 	 46.2881 	 129.28
| 24> C 	 -84.0657 	 45.8937 	 129.436
| 25> C 	 -83.3742 	 46.7129 	 128.482
| 26> C 	 -84.1181 	 47.5173 	 127.591
| 27> C 	 -85.4417 	 47.4065 	 127.893
| 28> H 	 -82.3407 	 46.6483 	 128.455
| 29> C 	 -83.4992 	 48.3249 	 126.467
| 30> H 	 -84.1656 	 48.506 	 125.629
| 31> H 	 -82.6144 	 47.779 	 126.106
| 32> C 	 -82.8705 	 49.6779 	 126.935
| 33> H 	 -82.3652 	 50.1511 	 126.086
| 34> H 	 -82.0612 	 49.4477 	 127.656
| 35> C 	 -83.9485 	 50.6912 	 127.461
| 36> H 	 -83.4927 	 51.7145 	 127.395
| 37> H 	 -84.1837 	 50.4308 	 128.513
| 38> H 	 -84.8104 	 50.6257 	 126.868
| 39> H 	 -90.0253 	 49.017 	 126.812
| 40> H 	 -83.6738 	 45.3156 	 130.258
| 41> *
| 42>
| 43>                          ****END OF INPUT****

CARTESIAN COORDINATES (ANGSTROEM)
---------------------------------
  S    -88.089900   48.446400  128.188000
  C    -89.043100   48.639200  126.750000
  C    -88.345800   48.164000  125.658000
  C    -87.034500   47.816700  125.979000
  C    -86.640900   47.960400  127.274000
  H    -86.471700   47.353100  125.139000
  C    -89.012600   47.979500  124.303000
  H    -88.341700   48.205400  123.458000
  H    -89.865400   48.645600  124.247000
  C    -89.489100   46.586300  123.959000
  H    -89.722100   46.321000  122.944000
  H    -88.696600   45.965100  124.276000
  C    -90.629700   46.213300  124.897000
  H    -90.643000   45.060300  124.849000
  H    -90.605600   46.488500  125.884000
  H    -91.575900   46.638700  124.466000
  S    -85.783000   46.288100  129.280000
  C    -84.065700   45.893700  129.436000
  C    -83.374200   46.712900  128.482000
  C    -84.118100   47.517300  127.591000
  C    -85.441700   47.406500  127.893000
  H    -82.340700   46.648300  128.455000
  C    -83.499200   48.324900  126.467000
  H    -84.165600   48.506000  125.629000
  H    -82.614400   47.779000  126.106000
  C    -82.870500   49.677900  126.935000
  H    -82.365200   50.151100  126.086000
  H    -82.061200   49.447700  127.656000
  C    -83.948500   50.691200  127.461000
  H    -83.492700   51.714500  127.395000
  H    -84.183700   50.430800  128.513000
  H    -84.810400   50.625700  126.868000
  H    -90.025300   49.017000  126.812000
  H    -83.673800   45.315600  130.258000

 Total Charge           Charge          ....    0
 Multiplicity           Mult            ....    1
 Number of Electrons    NEL             ....  134
 Basis Dimension        Dim             ....  322

ORBITAL ENERGIES
----------------

  NO   OCC          E(Eh)            E(eV)
   0   2.0000     -88.966730     -2420.9078
   1   2.0000     -88.964956     -2420.8595
   2   2.0000     -10.332209      -281.1537
   3   2.0000     -10.331808      -281.1428
   4   2.0000     -10.325139      -280.9613
   5   2.0000     -10.314800      -280.6800
   6   2.0000     -10.304113      -280.3892
   7   2.0000     -10.299410      -280.2612
   8   2.0000     -10.297223      -280.2017
   9   2.0000     -10.295438      -280.1531
  10   2.0000     -10.294430      -280.1257
  11   2.0000     -10.290786      -280.0265
  12   2.0000     -10.290098      -280.0078
  13   2.0000     -10.278232      -279.6849
  14   2.0000     -10.274555      -279.5848
  15   2.0000     -10.273405      -279.5536
  16   2.0000      -8.081395      -219.9059
  17   2.0000      -8.078525      -219.8278
  18   2.0000      -6.039926      -164.3547
  19   2.0000      -6.037084      -164.2774
  20   2.0000      -6.035889      -164.2449
  21   2.0000      -6.033200      -164.1717
  22   2.0000      -6.032142      -164.1429
  23   2.0000      -6.029277      -164.0650
  24   2.0000      -1.008941       -27.4547
  25   2.0000      -0.983363       -26.7587
  26   2.0000      -0.918421       -24.9915
  27   2.0000      -0.903907       -24.5966
  28   2.0000      -0.868959       -23.6456
  29   2.0000      -0.851318       -23.1655
  30   2.0000      -0.844126       -22.9698
  31   2.0000      -0.809570       -22.0295
  32   2.0000      -0.782984       -21.3061
  33   2.0000      -0.774957       -21.0877
  34   2.0000      -0.710131       -19.3237
  35   2.0000      -0.696056       -18.9406
  36   2.0000      -0.694265       -18.8919
  37   2.0000      -0.665659       -18.1135
  38   2.0000      -0.644305       -17.5324
  39   2.0000      -0.630179       -17.1480
  40   2.0000      -0.599362       -16.3095
  41   2.0000      -0.571680       -15.5562
  42   2.0000      -0.552179       -15.0256
  43   2.0000      -0.545631       -14.8474
  44   2.0000      -0.544207       -14.8086
  45   2.0000      -0.540835       -14.7169
  46   2.0000      -0.524243       -14.2654
  47   2.0000      -0.509462       -13.8632
  48   2.0000      -0.505345       -13.7511
  49   2.0000      -0.498738       -13.5714
  50   2.0000      -0.487391       -13.2626
  51   2.0000      -0.482516       -13.1299
  52   2.0000      -0.475461       -12.9379
  53   2.0000      -0.467410       -12.7189
  54   2.0000      -0.458483       -12.4759
  55   2.0000      -0.452415       -12.3108
  56   2.0000      -0.437270       -11.8987
  57   2.0000      -0.432683       -11.7739
  58   2.0000      -0.425780       -11.5861
  59   2.0000      -0.422052       -11.4846
  60   2.0000      -0.415354       -11.3024
  61   2.0000      -0.413457       -11.2507
  62   2.0000      -0.409210       -11.1352
  63   2.0000      -0.353185        -9.6106
  64   2.0000      -0.332712        -9.0535
  65   2.0000      -0.330410        -8.9909
  66   2.0000      -0.289473        -7.8770
  67   0.0000       0.023816         0.6481
  68   0.0000       0.061519         1.6740
  69   0.0000       0.106184         2.8894
  70   0.0000       0.120340         3.2746
  71   0.0000       0.130629         3.5546

MULLIKEN ATOMIC CHARGES
-----------------------
   0 S :    0.095064
   1 C :   -0.118316
   2 C :   -0.096877
   3 C :    0.025086
   4 C :   -0.124763
   5 H :    0.024916
   6 C :    0.072856
   7 H :    0.023967
   8 H :    0.013346
   9 C :   -0.025790
  10 H :    0.035593
  11 H :    0.008279
  12 C :   -0.081670
  13 H :    0.037249
  14 H :    0.026082
  15 H :    0.027214
  16 S :    0.089273
  17 C :   -0.097075
  18 C :   -0.026768
  19 C :    0.003932
  20 C :   -0.167751
  21 H :   -0.011050
  22 C :    0.069288
  23 H :    0.029735
  24 H :    0.027336
  25 C :   -0.106706
  26 H :    0.030082
  27 H :    0.031907
  28 C :   -0.049818
  29 H :    0.042537
  30 H :    0.052066
  31 H :    0.031111
  32 H :    0.041562
  33 H :    0.068105
Sum of atomic charges:    0.0000000

LOEWDIN ATOMIC CHARGES
----------------------
   0 S :    0.401159
   1 C :   -0.181742
   2 C :   -0.069046
   3 C :   -0.065821
   4 C :   -0.190308
   5 H :    0.037918
   6 C :   -0.029642
   7 H :    0.030199
   8 H :    0.024945
   9 C :   -0.039381
  10 H :    0.026339
  11 H :    0.018071
  12 C :   -0.063240
  13 H :    0.034860
  14 H :    0.008522
  15 H :    0.025216
  16 S :    0.371953
  17 C :   -0.183415
  18 C :   -0.055833
  19 C :   -0.061044
  20 C :   -0.165624
  21 H :    0.014034
  22 C :   -0.027167
  23 H :    0.028753
  24 H :    0.036056
  25 C :   -0.039274
  26 H :    0.021694
  27 H :    0.022944
  28 C :   -0.064258
  29 H :    0.032176
  30 H :    0.032363
  31 H :    0.017462
  32 H :    0.020263
  33 H :    0.030868

  Mayer bond orders larger than 0.100000
B(  0-S ,  1-C ) :   1.1569 B(  0-S ,  4-C ) :   1.1427 B(  1-C ,  2-C ) :   1.5608
B(  1-C ,  4-C ) :   0.1011 B(  1-C , 32-H ) :   0.9763 B(  2-C ,  3-C ) :   1.3106
B(  2-C ,  6-C ) :   1.0338 B(  3-C ,  4-C ) :   1.5305 B(  3-C ,  5-H ) :   0.9790
B(  4-C , 20-C ) :   1.0457 B(  6-C ,  7-H ) :   0.9375 B(  6-C ,  8-H ) :   0.9418
B(  6-C ,  9-C ) :   1.0671 B(  9-C , 10-H ) :   0.9579 B(  9-C , 11-H ) :   0.9535
B(  9-C , 12-C ) :   1.0692 B( 12-C , 13-H ) :   0.9765 B( 12-C , 14-H ) :   0.9791
B( 12-C , 15-H ) :   0.9762 B( 16-S , 17-C ) :   1.1410 B( 16-S , 20-C ) :   1.1394
B( 17-C , 18-C ) :   1.5882 B( 17-C , 20-C ) :   0.1099 B( 17-C , 33-H ) :   0.9731
B( 18-C , 19-C ) :   1.2400 B( 18-C , 21-H ) :   0.9914 B( 19-C , 20-C ) :   1.6016
B( 19-C , 22-C ) :   1.0413 B( 22-C , 23-H ) :   0.9396 B( 22-C , 24-H ) :   0.9289
B( 22-C , 25-C ) :   1.0814 B( 25-C , 26-H ) :   0.9599 B( 25-C , 27-H ) :   0.9586
B( 25-C , 28-C ) :   1.0596 B( 28-C , 29-H ) :   0.9774 B( 28-C , 30-H ) :   0.9763
B( 28-C , 31-H ) :   0.9779

Dispersion correction           -0.014962805
FINAL SINGLE POINT ENERGY     -1339.864923533691

DIPOLE MOMENT
-------------
                                X             Y             Z
Electronic contribution:     -0.03510      -4.99713      17.81451
Nuclear contribution   :      0.26253       4.98640     -18.36682
                        -----------------------------------------
Total Dipole Moment    :      0.22743      -0.01073      -0.55231
                        -----------------------------------------
Magnitude (a.u.)       :      0.59739
Magnitude (Debye)      :      1.51846

Rotational constants in cm-1:     0.020912     0.008442     0.007450
Rotational constants in MHz :   626.937925   253.098558   223.337135

                             ****ORCA TERMINATED NORMALLY****
TOTAL RUN TIME: 0 days 0 hours 0 minutes 35 seconds 122 msec
