                         Program Version 4.2.1 -  RELEASE  -
|  1> ! wB97X-D3 SP def2-SVP
|  2> %pal
|  3> nprocs 16
|  4> end
|  5>
|  6> * xyz 0 1
|  7> S 	 28.5048 	 -13.3909 	 77.3902
|  8> C 	 28.5636 	 -13.2033 	 75.6376
|  9> C 	 27.3812 	 -12.5934 	 75.1541
| 10> C 	 26.4894 	 -12.2958 	 76.2211
| 11> C 	 26.8685 	 -12.7404 	 77.4554
| 12> H 	 25.5367 	 -11.7992 	 76.2524
| 13> C 	 27.1861 	 -12.1221 	 73.7496
| 14> H 	 28.1862 	 -11.8154 	 73.3667
| 15> H 	 26.5982 	 -11.1929 	 73.6743
| 16> C 	 26.6512 	 -13.2459 	 72.8597
| 17> H 	 26.5795 	 -12.8235 	 71.8732
| 18> H 	 27.4495 	 -14.0263 	 72.9033
| 19> C 	 25.3011 	 -13.7861 	 73.3666
| 20> H 	 24.92 	 -14.4409 	 72.5251
| 21> H 	 25.3484 	 -14.3022 	 74.3543
| 22> H 	 24.5943 	 -12.9839 	 73.378
| 23> S 	 25.269 	 -14.0241 	 79.3518
| 24> C 	 24.1544 	 -12.9673 	 80.3244
| 25> C 	 24.4748 	 -11.6201 	 80.1236
| 26> C 	 25.5539 	 -11.3667 	 79.2187
| 27> C 	 26.0936 	 -12.5685 	 78.7356
| 28> H 	 23.6772 	 -10.9643 	 80.5769
| 29> C 	 25.8807 	 -9.93108 	 78.7554
| 30> H 	 26.7264 	 -9.96071 	 78.1645
| 31> H 	 26.0972 	 -9.40375 	 79.6572
| 32> C 	 24.763 	 -9.29783 	 77.9481
| 33> H 	 23.8263 	 -9.22143 	 78.517
| 34> H 	 24.5778 	 -9.82945 	 77.0594
| 35> C 	 25.1414 	 -7.87804 	 77.5617
| 36> H 	 25.5695 	 -7.28586 	 78.3769
| 37> H 	 24.2867 	 -7.34309 	 77.1047
| 38> H 	 25.9496 	 -7.9077 	 76.7669
| 39> H 	 29.5002 	 -13.4192 	 75.232
| 40> H 	 23.3611 	 -13.3398 	 80.9109
| 41> *
| 42>
| 43>                          ****END OF INPUT****

CARTESIAN COORDINATES (ANGSTROEM)
---------------------------------
  S     28.504800  -13.390900   77.390200
  C     28.563600  -13.203300   75.637600
  C     27.381200  -12.593400   75.154100
  C     26.489400  -12.295800   76.221100
  C     26.868500  -12.740400   77.455400
  H     25.536700  -11.799200   76.252400
  C     27.186100  -12.122100   73.749600
  H     28.186200  -11.815400   73.366700
  H     26.598200  -11.192900   73.674300
  C     26.651200  -13.245900   72.859700
  H     26.579500  -12.823500   71.873200
  H     27.449500  -14.026300   72.903300
  C     25.301100  -13.786100   73.366600
  H     24.920000  -14.440900   72.525100
  H     25.348400  -14.302200   74.354300
  H     24.594300  -12.983900   73.378000
  S     25.269000  -14.024100   79.351800
  C     24.154400  -12.967300   80.324400
  C     24.474800  -11.620100   80.123600
  C     25.553900  -11.366700   79.218700
  C     26.093600  -12.568500   78.735600
  H     23.677200  -10.964300   80.576900
  C     25.880700   -9.931080   78.755400
  H     26.726400   -9.960710   78.164500
  H     26.097200   -9.403750   79.657200
  C     24.763000   -9.297830   77.948100
  H     23.826300   -9.221430   78.517000
  H     24.577800   -9.829450   77.059400
  C     25.141400   -7.878040   77.561700
  H     25.569500   -7.285860   78.376900
  H     24.286700   -7.343090   77.104700
  H     25.949600   -7.907700   76.766900
  H     29.500200  -13.419200   75.232000
  H     23.361100  -13.339800   80.910900

 Total Charge           Charge          ....    0
 Multiplicity           Mult            ....    1
 Number of Electrons    NEL             ....  134
 Basis Dimension        Dim             ....  322

ORBITAL ENERGIES
----------------

  NO   OCC          E(Eh)            E(eV)
   0   2.0000     -88.965817     -2420.8830
   1   2.0000     -88.962027     -2420.7798
   2   2.0000     -10.332753      -281.1685
   3   2.0000     -10.327981      -281.0386
   4   2.0000     -10.323292      -280.9111
   5   2.0000     -10.316633      -280.7298
   6   2.0000     -10.311408      -280.5877
   7   2.0000     -10.307112      -280.4708
   8   2.0000     -10.302536      -280.3462
   9   2.0000     -10.291206      -280.0380
  10   2.0000     -10.291002      -280.0324
  11   2.0000     -10.287392      -279.9342
  12   2.0000     -10.286392      -279.9070
  13   2.0000     -10.285182      -279.8740
  14   2.0000     -10.284109      -279.8448
  15   2.0000     -10.279308      -279.7142
  16   2.0000      -8.079041      -219.8419
  17   2.0000      -8.076693      -219.7780
  18   2.0000      -6.037628      -164.2922
  19   2.0000      -6.035022      -164.2213
  20   2.0000      -6.033800      -164.1880
  21   2.0000      -6.031187      -164.1169
  22   2.0000      -6.029753      -164.0779
  23   2.0000      -6.027685      -164.0216
  24   2.0000      -0.998290       -27.1648
  25   2.0000      -0.975656       -26.5489
  26   2.0000      -0.915575       -24.9140
  27   2.0000      -0.912228       -24.8230
  28   2.0000      -0.862090       -23.4587
  29   2.0000      -0.848396       -23.0860
  30   2.0000      -0.843174       -22.9439
  31   2.0000      -0.814168       -22.1546
  32   2.0000      -0.781398       -21.2629
  33   2.0000      -0.769599       -20.9419
  34   2.0000      -0.703808       -19.1516
  35   2.0000      -0.698628       -19.0106
  36   2.0000      -0.693426       -18.8691
  37   2.0000      -0.656436       -17.8625
  38   2.0000      -0.651474       -17.7275
  39   2.0000      -0.611605       -16.6426
  40   2.0000      -0.595808       -16.2128
  41   2.0000      -0.578196       -15.7335
  42   2.0000      -0.574242       -15.6259
  43   2.0000      -0.541130       -14.7249
  44   2.0000      -0.538953       -14.6657
  45   2.0000      -0.530590       -14.4381
  46   2.0000      -0.517682       -14.0868
  47   2.0000      -0.515946       -14.0396
  48   2.0000      -0.505128       -13.7452
  49   2.0000      -0.491004       -13.3609
  50   2.0000      -0.486800       -13.2465
  51   2.0000      -0.474249       -12.9050
  52   2.0000      -0.472865       -12.8673
  53   2.0000      -0.464243       -12.6327
  54   2.0000      -0.456358       -12.4181
  55   2.0000      -0.445290       -12.1170
  56   2.0000      -0.440346       -11.9824
  57   2.0000      -0.436677       -11.8826
  58   2.0000      -0.425957       -11.5909
  59   2.0000      -0.424892       -11.5619
  60   2.0000      -0.422058       -11.4848
  61   2.0000      -0.420908       -11.4535
  62   2.0000      -0.416394       -11.3307
  63   2.0000      -0.340319        -9.2606
  64   2.0000      -0.329558        -8.9677
  65   2.0000      -0.323998        -8.8164
  66   2.0000      -0.301498        -8.2042
  67   0.0000       0.036359         0.9894
  68   0.0000       0.052942         1.4406
  69   0.0000       0.109022         2.9666
  70   0.0000       0.112280         3.0553
  71   0.0000       0.125936         3.4269

MULLIKEN ATOMIC CHARGES
-----------------------
   0 S :    0.093632
   1 C :   -0.117594
   2 C :   -0.058400
   3 C :    0.042056
   4 C :   -0.182371
   5 H :   -0.002047
   6 C :    0.039730
   7 H :    0.025428
   8 H :    0.028874
   9 C :   -0.063537
  10 H :    0.027146
  11 H :    0.034141
  12 C :   -0.066372
  13 H :    0.040070
  14 H :    0.071785
  15 H :    0.018075
  16 S :    0.090247
  17 C :   -0.106557
  18 C :   -0.055290
  19 C :   -0.043422
  20 C :   -0.140625
  21 H :    0.047534
  22 C :    0.135901
  23 H :    0.006158
  24 H :    0.025673
  25 C :   -0.058144
  26 H :    0.030522
  27 H :    0.018106
  28 C :   -0.072762
  29 H :    0.033501
  30 H :    0.041300
  31 H :    0.031105
  32 H :    0.037057
  33 H :    0.049078
Sum of atomic charges:   -0.0000000

LOEWDIN ATOMIC CHARGES
----------------------
   0 S :    0.393839
   1 C :   -0.178335
   2 C :   -0.059327
   3 C :   -0.064865
   4 C :   -0.195460
   5 H :    0.030308
   6 C :   -0.039420
   7 H :    0.032699
   8 H :    0.028490
   9 C :   -0.037926
  10 H :    0.020816
  11 H :    0.027049
  12 C :   -0.071080
  13 H :    0.034489
  14 H :    0.037086
  15 H :    0.017861
  16 S :    0.366920
  17 C :   -0.157660
  18 C :   -0.079304
  19 C :   -0.048029
  20 C :   -0.194631
  21 H :    0.044413
  22 C :   -0.014142
  23 H :    0.020955
  24 H :    0.032463
  25 C :   -0.034268
  26 H :    0.025016
  27 H :    0.017626
  28 C :   -0.069306
  29 H :    0.024044
  30 H :    0.028486
  31 H :    0.028049
  32 H :    0.012460
  33 H :    0.020683

  Mayer bond orders larger than 0.100000
B(  0-S ,  1-C ) :   1.1626 B(  0-S ,  4-C ) :   1.1546 B(  1-C ,  2-C ) :   1.5602
B(  1-C ,  4-C ) :   0.1024 B(  1-C , 32-H ) :   0.9854 B(  2-C ,  3-C ) :   1.2282
B(  2-C ,  6-C ) :   1.0172 B(  3-C ,  4-C ) :   1.5981 B(  3-C ,  5-H ) :   0.9989
B(  4-C , 20-C ) :   0.9792 B(  6-C ,  7-H ) :   0.9424 B(  6-C ,  8-H ) :   0.9488
B(  6-C ,  9-C ) :   1.0693 B(  9-C , 10-H ) :   0.9553 B(  9-C , 11-H ) :   0.9562
B(  9-C , 12-C ) :   1.0783 B( 12-C , 13-H ) :   0.9730 B( 12-C , 14-H ) :   0.9685
B( 12-C , 15-H ) :   0.9741 B( 16-S , 17-C ) :   1.1396 B( 16-S , 20-C ) :   1.1409
B( 17-C , 18-C ) :   1.6401 B( 17-C , 33-H ) :   0.9736 B( 18-C , 19-C ) :   1.2057
B( 18-C , 21-H ) :   0.9774 B( 19-C , 20-C ) :   1.6146 B( 19-C , 22-C ) :   1.0370
B( 22-C , 23-H ) :   0.9295 B( 22-C , 24-H ) :   0.9284 B( 22-C , 25-C ) :   1.0750
B( 25-C , 26-H ) :   0.9528 B( 25-C , 27-H ) :   0.9500 B( 25-C , 28-C ) :   1.0891
B( 28-C , 29-H ) :   0.9738 B( 28-C , 30-H ) :   0.9734 B( 28-C , 31-H ) :   0.9742

Dispersion correction           -0.015002923
FINAL SINGLE POINT ENERGY     -1339.872488814666

DIPOLE MOMENT
-------------
                                X             Y             Z
Electronic contribution:      8.42851     -17.00338      18.19216
Nuclear contribution   :     -8.81858      17.66706     -18.59326
                        -----------------------------------------
Total Dipole Moment    :     -0.39007       0.66369      -0.40110
                        -----------------------------------------
Magnitude (a.u.)       :      0.86805
Magnitude (Debye)      :      2.20642

Rotational constants in cm-1:     0.016440     0.009392     0.007680
Rotational constants in MHz :   492.864787   281.560858   230.234360

                             ****ORCA TERMINATED NORMALLY****
TOTAL RUN TIME: 0 days 0 hours 0 minutes 30 seconds 962 msec
