                         Program Version 4.2.1 -  RELEASE  -
|  1> ! wB97X-D3 SP def2-SVP
|  2> %pal
|  3> nprocs 16
|  4> end
|  5>
|  6> * xyz 0 1
|  7> S 	 -18.7049 	 -7.07928 	 83.9254
|  8> C 	 -17.3427 	 -7.0433 	 82.8381
|  9> C 	 -16.1132 	 -7.01919 	 83.3983
| 10> C 	 -16.325 	 -7.1522 	 84.8441
| 11> C 	 -17.6155 	 -7.17124 	 85.2584
| 12> H 	 -15.5902 	 -7.30039 	 85.6025
| 13> C 	 -14.8065 	 -7.31361 	 82.7101
| 14> H 	 -14.2622 	 -6.40849 	 82.8782
| 15> H 	 -14.881 	 -7.3413 	 81.6667
| 16> C 	 -14.0249 	 -8.42083 	 83.4078
| 17> H 	 -13.7874 	 -8.07033 	 84.4219
| 18> H 	 -14.7384 	 -9.30319 	 83.4614
| 19> C 	 -12.7257 	 -8.72801 	 82.7403
| 20> H 	 -12.3514 	 -9.67087 	 83.0596
| 21> H 	 -12.9113 	 -8.85139 	 81.7202
| 22> H 	 -11.9067 	 -8.01117 	 82.8919
| 23> S 	 -19.106 	 -8.9399 	 86.9364
| 24> C 	 -18.9571 	 -8.71676 	 88.685
| 25> C 	 -18.4428 	 -7.48133 	 88.9264
| 26> C 	 -17.8797 	 -6.80885 	 87.7834
| 27> C 	 -18.1351 	 -7.4737 	 86.6067
| 28> H 	 -18.493 	 -7.05137 	 89.9913
| 29> C 	 -17.2776 	 -5.43892 	 87.907
| 30> H 	 -17.9889 	 -4.77227 	 88.3599
| 31> H 	 -17.1501 	 -5.02158 	 86.9193
| 32> C 	 -16.1715 	 -5.3437 	 88.8864
| 33> H 	 -15.696 	 -6.37935 	 89.001
| 34> H 	 -16.5884 	 -5.10286 	 89.8821
| 35> C 	 -15.0415 	 -4.37472 	 88.6116
| 36> H 	 -14.326 	 -4.2659 	 89.3917
| 37> H 	 -15.3157 	 -3.41616 	 88.1723
| 38> H 	 -14.4487 	 -4.70868 	 87.7827
| 39> H 	 -17.4671 	 -7.35478 	 81.7664
| 40> H 	 -19.344 	 -9.36799 	 89.416
| 41> *
| 42>
| 43>                          ****END OF INPUT****

CARTESIAN COORDINATES (ANGSTROEM)
---------------------------------
  S    -18.704900   -7.079280   83.925400
  C    -17.342700   -7.043300   82.838100
  C    -16.113200   -7.019190   83.398300
  C    -16.325000   -7.152200   84.844100
  C    -17.615500   -7.171240   85.258400
  H    -15.590200   -7.300390   85.602500
  C    -14.806500   -7.313610   82.710100
  H    -14.262200   -6.408490   82.878200
  H    -14.881000   -7.341300   81.666700
  C    -14.024900   -8.420830   83.407800
  H    -13.787400   -8.070330   84.421900
  H    -14.738400   -9.303190   83.461400
  C    -12.725700   -8.728010   82.740300
  H    -12.351400   -9.670870   83.059600
  H    -12.911300   -8.851390   81.720200
  H    -11.906700   -8.011170   82.891900
  S    -19.106000   -8.939900   86.936400
  C    -18.957100   -8.716760   88.685000
  C    -18.442800   -7.481330   88.926400
  C    -17.879700   -6.808850   87.783400
  C    -18.135100   -7.473700   86.606700
  H    -18.493000   -7.051370   89.991300
  C    -17.277600   -5.438920   87.907000
  H    -17.988900   -4.772270   88.359900
  H    -17.150100   -5.021580   86.919300
  C    -16.171500   -5.343700   88.886400
  H    -15.696000   -6.379350   89.001000
  H    -16.588400   -5.102860   89.882100
  C    -15.041500   -4.374720   88.611600
  H    -14.326000   -4.265900   89.391700
  H    -15.315700   -3.416160   88.172300
  H    -14.448700   -4.708680   87.782700
  H    -17.467100   -7.354780   81.766400
  H    -19.344000   -9.367990   89.416000

 Total Charge           Charge          ....    0
 Multiplicity           Mult            ....    1
 Number of Electrons    NEL             ....  134
 Basis Dimension        Dim             ....  322

ORBITAL ENERGIES
----------------

  NO   OCC          E(Eh)            E(eV)
   0   2.0000     -88.962576     -2420.7948
   1   2.0000     -88.960681     -2420.7432
   2   2.0000     -10.328489      -281.0525
   3   2.0000     -10.323635      -280.9204
   4   2.0000     -10.317025      -280.7405
   5   2.0000     -10.310080      -280.5515
   6   2.0000     -10.301966      -280.3307
   7   2.0000     -10.301136      -280.3082
   8   2.0000     -10.298487      -280.2361
   9   2.0000     -10.291766      -280.0532
  10   2.0000     -10.290971      -280.0316
  11   2.0000     -10.287769      -279.9444
  12   2.0000     -10.286665      -279.9144
  13   2.0000     -10.282116      -279.7906
  14   2.0000     -10.271471      -279.5009
  15   2.0000     -10.271096      -279.4907
  16   2.0000      -8.076679      -219.7776
  17   2.0000      -8.076529      -219.7735
  18   2.0000      -6.035403      -164.2317
  19   2.0000      -6.035027      -164.2214
  20   2.0000      -6.031389      -164.1224
  21   2.0000      -6.031029      -164.1127
  22   2.0000      -6.027111      -164.0060
  23   2.0000      -6.027107      -164.0059
  24   2.0000      -1.007607       -27.4184
  25   2.0000      -0.985266       -26.8105
  26   2.0000      -0.922071       -25.0908
  27   2.0000      -0.916481       -24.9387
  28   2.0000      -0.872893       -23.7526
  29   2.0000      -0.852692       -23.2029
  30   2.0000      -0.844136       -22.9701
  31   2.0000      -0.817722       -22.2514
  32   2.0000      -0.789484       -21.4830
  33   2.0000      -0.780431       -21.2366
  34   2.0000      -0.710901       -19.3446
  35   2.0000      -0.699053       -19.0222
  36   2.0000      -0.689887       -18.7728
  37   2.0000      -0.652316       -17.7504
  38   2.0000      -0.643447       -17.5091
  39   2.0000      -0.619400       -16.8547
  40   2.0000      -0.602494       -16.3947
  41   2.0000      -0.574906       -15.6440
  42   2.0000      -0.564427       -15.3588
  43   2.0000      -0.563878       -15.3439
  44   2.0000      -0.537053       -14.6140
  45   2.0000      -0.528568       -14.3831
  46   2.0000      -0.517767       -14.0892
  47   2.0000      -0.516024       -14.0417
  48   2.0000      -0.509284       -13.8583
  49   2.0000      -0.499220       -13.5845
  50   2.0000      -0.485765       -13.2183
  51   2.0000      -0.480089       -13.0639
  52   2.0000      -0.477433       -12.9916
  53   2.0000      -0.463354       -12.6085
  54   2.0000      -0.459934       -12.5154
  55   2.0000      -0.452225       -12.3057
  56   2.0000      -0.444114       -12.0849
  57   2.0000      -0.435727       -11.8567
  58   2.0000      -0.432965       -11.7816
  59   2.0000      -0.426747       -11.6124
  60   2.0000      -0.421506       -11.4698
  61   2.0000      -0.420422       -11.4403
  62   2.0000      -0.398854       -10.8534
  63   2.0000      -0.342578        -9.3220
  64   2.0000      -0.328526        -8.9396
  65   2.0000      -0.325858        -8.8671
  66   2.0000      -0.301001        -8.1907
  67   0.0000       0.037448         1.0190
  68   0.0000       0.069035         1.8785
  69   0.0000       0.110856         3.0166
  70   0.0000       0.124049         3.3756
  71   0.0000       0.125895         3.4258

MULLIKEN ATOMIC CHARGES
-----------------------
   0 S :    0.101113
   1 C :   -0.146091
   2 C :   -0.072929
   3 C :    0.023546
   4 C :   -0.179545
   5 H :   -0.003544
   6 C :    0.117580
   7 H :    0.016357
   8 H :    0.001987
   9 C :   -0.126420
  10 H :    0.037442
  11 H :    0.052480
  12 C :    0.016526
  13 H :    0.019620
  14 H :    0.009479
  15 H :    0.035576
  16 S :    0.093074
  17 C :   -0.083334
  18 C :   -0.045553
  19 C :   -0.047833
  20 C :   -0.141005
  21 H :    0.048858
  22 C :    0.118877
  23 H :    0.025949
  24 H :    0.025323
  25 C :   -0.122328
  26 H :    0.042501
  27 H :    0.030220
  28 C :   -0.018451
  29 H :    0.029650
  30 H :    0.020615
  31 H :    0.010116
  32 H :    0.063413
  33 H :    0.046731
Sum of atomic charges:    0.0000000

LOEWDIN ATOMIC CHARGES
----------------------
   0 S :    0.401183
   1 C :   -0.202514
   2 C :   -0.059983
   3 C :   -0.055805
   4 C :   -0.200094
   5 H :    0.024190
   6 C :   -0.027198
   7 H :    0.033876
   8 H :    0.020972
   9 C :   -0.040035
  10 H :    0.026758
  11 H :    0.034266
  12 C :   -0.059491
  13 H :    0.025504
  14 H :    0.017480
  15 H :    0.030011
  16 S :    0.372952
  17 C :   -0.167007
  18 C :   -0.078028
  19 C :   -0.052995
  20 C :   -0.189877
  21 H :    0.044498
  22 C :   -0.036650
  23 H :    0.038942
  24 H :    0.030184
  25 C :   -0.048139
  26 H :    0.030491
  27 H :    0.023130
  28 C :   -0.067746
  29 H :    0.024036
  30 H :    0.024918
  31 H :    0.023415
  32 H :    0.034566
  33 H :    0.024186

  Mayer bond orders larger than 0.100000
B(  0-S ,  1-C ) :   1.1331 B(  0-S ,  4-C ) :   1.1305 B(  1-C ,  2-C ) :   1.6742
B(  1-C , 32-H ) :   0.9502 B(  2-C ,  3-C ) :   1.1761 B(  2-C ,  6-C ) :   1.0285
B(  3-C ,  4-C ) :   1.6560 B(  3-C ,  5-H ) :   0.9914 B(  4-C , 20-C ) :   1.0088
B(  6-C ,  7-H ) :   0.9119 B(  6-C ,  8-H ) :   0.9460 B(  6-C ,  9-C ) :   1.0712
B(  9-C , 10-H ) :   0.9415 B(  9-C , 11-H ) :   0.9599 B(  9-C , 12-C ) :   1.0924
B( 12-C , 13-H ) :   0.9671 B( 12-C , 14-H ) :   0.9698 B( 12-C , 15-H ) :   0.9725
B( 16-S , 17-C ) :   1.1377 B( 16-S , 20-C ) :   1.1121 B( 17-C , 18-C ) :   1.6425
B( 17-C , 33-H ) :   0.9740 B( 18-C , 19-C ) :   1.2041 B( 18-C , 21-H ) :   0.9734
B( 19-C , 20-C ) :   1.6320 B( 19-C , 22-C ) :   1.0678 B( 22-C , 23-H ) :   0.9269
B( 22-C , 24-H ) :   0.9404 B( 22-C , 25-C ) :   1.0178 B( 25-C , 26-H ) :   0.9677
B( 25-C , 27-H ) :   0.9543 B( 25-C , 28-C ) :   1.0910 B( 28-C , 29-H ) :   0.9732
B( 28-C , 30-H ) :   0.9704 B( 28-C , 31-H ) :   0.9689

Dispersion correction           -0.013934736
FINAL SINGLE POINT ENERGY     -1339.859890437109

DIPOLE MOMENT
-------------
                                X             Y             Z
Electronic contribution:    -26.93170      -7.86810      -2.02708
Nuclear contribution   :     27.58490       7.93678       2.20680
                        -----------------------------------------
Total Dipole Moment    :      0.65321       0.06868       0.17973
                        -----------------------------------------
Magnitude (a.u.)       :      0.68095
Magnitude (Debye)      :      1.73085

Rotational constants in cm-1:     0.016279     0.008787     0.007052
Rotational constants in MHz :   488.033807   263.416468   211.426062

                             ****ORCA TERMINATED NORMALLY****
TOTAL RUN TIME: 0 days 0 hours 0 minutes 34 seconds 14 msec
