                         Program Version 4.2.1 -  RELEASE  -
|  1> ! wB97X-D3 SP def2-SVP
|  2> %pal
|  3> nprocs 16
|  4> end
|  5>
|  6> * xyz 0 1
|  7> S 	 41.4318 	 15.723 	 50.1295
|  8> C 	 41.5617 	 16.5665 	 51.6742
|  9> C 	 41.484 	 15.5565 	 52.7109
| 10> C 	 41.3088 	 14.2282 	 52.3048
| 11> C 	 41.3005 	 14.137 	 50.9416
| 12> H 	 41.3521 	 13.2741 	 52.8826
| 13> C 	 41.6336 	 15.7983 	 54.2291
| 14> H 	 41.2088 	 14.9746 	 54.7263
| 15> H 	 40.9973 	 16.6642 	 54.4907
| 16> C 	 43.1063 	 15.9257 	 54.6281
| 17> H 	 43.6068 	 15.088 	 54.2018
| 18> H 	 43.6891 	 16.867 	 54.3364
| 19> C 	 43.3095 	 15.6955 	 56.1599
| 20> H 	 43.0866 	 16.6876 	 56.6145
| 21> H 	 42.6101 	 15.0046 	 56.6242
| 22> H 	 44.3827 	 15.5498 	 56.4667
| 23> S 	 39.5435 	 12.2435 	 50.0478
| 24> C 	 40.144 	 10.9228 	 49.1177
| 25> C 	 41.4476 	 11.1108 	 48.7274
| 26> C 	 42.0201 	 12.2801 	 49.2865
| 27> C 	 41.154 	 12.9612 	 50.1636
| 28> H 	 41.9729 	 10.4764 	 48.0954
| 29> C 	 43.3689 	 12.7296 	 48.8693
| 30> H 	 43.4406 	 13.8612 	 49.0359
| 31> H 	 43.4225 	 12.7403 	 47.7892
| 32> C 	 44.6226 	 12.0638 	 49.474
| 33> H 	 44.6913 	 12.5115 	 50.4921
| 34> H 	 45.4785 	 12.5422 	 48.9422
| 35> C 	 44.7344 	 10.4657 	 49.5596
| 36> H 	 43.9641 	 10.0199 	 50.1214
| 37> H 	 45.7194 	 10.1953 	 49.9613
| 38> H 	 44.7218 	 10.0931 	 48.443
| 39> H 	 41.685 	 17.6243 	 51.752
| 40> H 	 39.6979 	 10.0803 	 48.6256
| 41> *
| 42>
| 43>                          ****END OF INPUT****

CARTESIAN COORDINATES (ANGSTROEM)
---------------------------------
  S     41.431800   15.723000   50.129500
  C     41.561700   16.566500   51.674200
  C     41.484000   15.556500   52.710900
  C     41.308800   14.228200   52.304800
  C     41.300500   14.137000   50.941600
  H     41.352100   13.274100   52.882600
  C     41.633600   15.798300   54.229100
  H     41.208800   14.974600   54.726300
  H     40.997300   16.664200   54.490700
  C     43.106300   15.925700   54.628100
  H     43.606800   15.088000   54.201800
  H     43.689100   16.867000   54.336400
  C     43.309500   15.695500   56.159900
  H     43.086600   16.687600   56.614500
  H     42.610100   15.004600   56.624200
  H     44.382700   15.549800   56.466700
  S     39.543500   12.243500   50.047800
  C     40.144000   10.922800   49.117700
  C     41.447600   11.110800   48.727400
  C     42.020100   12.280100   49.286500
  C     41.154000   12.961200   50.163600
  H     41.972900   10.476400   48.095400
  C     43.368900   12.729600   48.869300
  H     43.440600   13.861200   49.035900
  H     43.422500   12.740300   47.789200
  C     44.622600   12.063800   49.474000
  H     44.691300   12.511500   50.492100
  H     45.478500   12.542200   48.942200
  C     44.734400   10.465700   49.559600
  H     43.964100   10.019900   50.121400
  H     45.719400   10.195300   49.961300
  H     44.721800   10.093100   48.443000
  H     41.685000   17.624300   51.752000
  H     39.697900   10.080300   48.625600

 Total Charge           Charge          ....    0
 Multiplicity           Mult            ....    1
 Number of Electrons    NEL             ....  134
 Basis Dimension        Dim             ....  322

ORBITAL ENERGIES
----------------

  NO   OCC          E(Eh)            E(eV)
   0   2.0000     -88.968495     -2420.9558
   1   2.0000     -88.967739     -2420.9353
   2   2.0000     -10.326477      -280.9977
   3   2.0000     -10.323184      -280.9081
   4   2.0000     -10.321761      -280.8694
   5   2.0000     -10.311962      -280.6028
   6   2.0000     -10.308149      -280.4990
   7   2.0000     -10.299260      -280.2571
   8   2.0000     -10.296114      -280.1715
   9   2.0000     -10.293920      -280.1118
  10   2.0000     -10.290141      -280.0090
  11   2.0000     -10.289946      -280.0037
  12   2.0000     -10.289939      -280.0035
  13   2.0000     -10.289149      -279.9820
  14   2.0000     -10.282846      -279.8105
  15   2.0000     -10.281998      -279.7874
  16   2.0000      -8.082258      -219.9294
  17   2.0000      -8.081975      -219.9217
  18   2.0000      -6.040790      -164.3783
  19   2.0000      -6.040448      -164.3689
  20   2.0000      -6.036779      -164.2691
  21   2.0000      -6.036513      -164.2619
  22   2.0000      -6.033005      -164.1664
  23   2.0000      -6.032984      -164.1658
  24   2.0000      -1.006172       -27.3793
  25   2.0000      -0.981257       -26.7014
  26   2.0000      -0.907702       -24.6998
  27   2.0000      -0.901167       -24.5220
  28   2.0000      -0.871053       -23.7026
  29   2.0000      -0.849637       -23.1198
  30   2.0000      -0.841258       -22.8918
  31   2.0000      -0.813013       -22.1232
  32   2.0000      -0.782285       -21.2871
  33   2.0000      -0.765100       -20.8194
  34   2.0000      -0.710291       -19.3280
  35   2.0000      -0.698013       -18.9939
  36   2.0000      -0.686839       -18.6898
  37   2.0000      -0.665729       -18.1154
  38   2.0000      -0.646463       -17.5912
  39   2.0000      -0.615060       -16.7366
  40   2.0000      -0.588832       -16.0229
  41   2.0000      -0.566840       -15.4245
  42   2.0000      -0.559205       -15.2167
  43   2.0000      -0.543519       -14.7899
  44   2.0000      -0.536316       -14.5939
  45   2.0000      -0.526925       -14.3383
  46   2.0000      -0.516824       -14.0635
  47   2.0000      -0.513800       -13.9812
  48   2.0000      -0.504198       -13.7199
  49   2.0000      -0.494561       -13.4577
  50   2.0000      -0.488206       -13.2848
  51   2.0000      -0.479802       -13.0561
  52   2.0000      -0.470148       -12.7934
  53   2.0000      -0.462534       -12.5862
  54   2.0000      -0.454007       -12.3542
  55   2.0000      -0.447656       -12.1813
  56   2.0000      -0.445071       -12.1110
  57   2.0000      -0.440547       -11.9879
  58   2.0000      -0.435139       -11.8407
  59   2.0000      -0.422006       -11.4834
  60   2.0000      -0.418374       -11.3845
  61   2.0000      -0.405600       -11.0369
  62   2.0000      -0.401435       -10.9236
  63   2.0000      -0.342006        -9.3065
  64   2.0000      -0.332128        -9.0376
  65   2.0000      -0.321107        -8.7378
  66   2.0000      -0.297246        -8.0885
  67   0.0000       0.031320         0.8523
  68   0.0000       0.055487         1.5099
  69   0.0000       0.106778         2.9056
  70   0.0000       0.117922         3.2088
  71   0.0000       0.126269         3.4360

MULLIKEN ATOMIC CHARGES
-----------------------
   0 S :    0.112842
   1 C :   -0.118812
   2 C :   -0.101760
   3 C :    0.026179
   4 C :   -0.169056
   5 H :    0.045055
   6 C :    0.090095
   7 H :    0.004113
   8 H :    0.034171
   9 C :   -0.070033
  10 H :    0.022354
  11 H :    0.047610
  12 C :   -0.082676
  13 H :    0.023460
  14 H :    0.035431
  15 H :    0.044737
  16 S :    0.131973
  17 C :   -0.052121
  18 C :   -0.037450
  19 C :   -0.002435
  20 C :   -0.192935
  21 H :   -0.011701
  22 C :    0.027440
  23 H :    0.022862
  24 H :    0.024761
  25 C :   -0.079936
  26 H :    0.031612
  27 H :    0.033596
  28 C :   -0.065262
  29 H :    0.047749
  30 H :    0.043537
  31 H :    0.040065
  32 H :    0.049806
  33 H :    0.044731
Sum of atomic charges:   -0.0000000

LOEWDIN ATOMIC CHARGES
----------------------
   0 S :    0.399566
   1 C :   -0.197848
   2 C :   -0.053606
   3 C :   -0.066630
   4 C :   -0.186238
   5 H :    0.050148
   6 C :   -0.027614
   7 H :    0.022055
   8 H :    0.032127
   9 C :   -0.042553
  10 H :    0.018830
  11 H :    0.034779
  12 C :   -0.077870
  13 H :    0.025030
  14 H :    0.021819
  15 H :    0.031443
  16 S :    0.422052
  17 C :   -0.195204
  18 C :   -0.064486
  19 C :   -0.051206
  20 C :   -0.209221
  21 H :    0.018850
  22 C :   -0.049788
  23 H :    0.034295
  24 H :    0.028364
  25 C :   -0.044248
  26 H :    0.025865
  27 H :    0.028591
  28 C :   -0.068198
  29 H :    0.018934
  30 H :    0.029908
  31 H :    0.034166
  32 H :    0.024922
  33 H :    0.032965

  Mayer bond orders larger than 0.100000
B(  0-S ,  1-C ) :   1.1450 B(  0-S ,  4-C ) :   1.1519 B(  1-C ,  2-C ) :   1.5544
B(  1-C ,  4-C ) :   0.1155 B(  1-C , 32-H ) :   0.9832 B(  2-C ,  3-C ) :   1.2602
B(  2-C ,  6-C ) :   1.0300 B(  3-C ,  4-C ) :   1.5730 B(  3-C ,  5-H ) :   0.9829
B(  4-C , 20-C ) :   1.0528 B(  6-C ,  7-H ) :   0.9399 B(  6-C ,  8-H ) :   0.9384
B(  6-C ,  9-C ) :   1.0586 B(  9-C , 10-H ) :   0.9579 B(  9-C , 11-H ) :   0.9579
B(  9-C , 12-C ) :   1.0721 B( 12-C , 13-H ) :   0.9764 B( 12-C , 14-H ) :   0.9759
B( 12-C , 15-H ) :   0.9763 B( 16-S , 17-C ) :   1.1594 B( 16-S , 20-C ) :   1.1386
B( 17-C , 18-C ) :   1.5939 B( 17-C , 33-H ) :   0.9622 B( 18-C , 19-C ) :   1.2639
B( 18-C , 21-H ) :   0.9972 B( 19-C , 20-C ) :   1.5571 B( 19-C , 22-C ) :   1.0505
B( 22-C , 23-H ) :   0.9239 B( 22-C , 24-H ) :   0.9352 B( 22-C , 25-C ) :   1.0706
B( 25-C , 26-H ) :   0.9561 B( 25-C , 27-H ) :   0.9552 B( 25-C , 28-C ) :   1.0666
B( 28-C , 29-H ) :   0.9735 B( 28-C , 30-H ) :   0.9743 B( 28-C , 31-H ) :   0.9752

Dispersion correction           -0.014339847
FINAL SINGLE POINT ENERGY     -1339.857569362548

DIPOLE MOMENT
-------------
                                X             Y             Z
Electronic contribution:    -20.76701       2.09824     -14.30201
Nuclear contribution   :     21.19622      -2.18225      14.45479
                        -----------------------------------------
Total Dipole Moment    :      0.42921      -0.08401       0.15278
                        -----------------------------------------
Magnitude (a.u.)       :      0.46327
Magnitude (Debye)      :      1.17754

Rotational constants in cm-1:     0.018912     0.007901     0.006939
Rotational constants in MHz :   566.962843   236.862398   208.020370

                             ****ORCA TERMINATED NORMALLY****
TOTAL RUN TIME: 0 days 0 hours 0 minutes 34 seconds 160 msec
