                         Program Version 4.2.1 -  RELEASE  -
|  1> ! wB97X-D3 SP def2-SVP
|  2> %pal
|  3> nprocs 16
|  4> end
|  5>
|  6> * xyz 0 1
|  7> S 	 -68.8308 	 37.9672 	 130.557
|  8> C 	 -68.603 	 39.0953 	 129.185
|  9> C 	 -68.453 	 40.3928 	 129.625
| 10> C 	 -68.0832 	 40.43 	 131.002
| 11> C 	 -68.3032 	 39.2801 	 131.7
| 12> H 	 -67.7503 	 41.2263 	 131.594
| 13> C 	 -68.4181 	 41.5845 	 128.703
| 14> H 	 -68.338 	 41.2512 	 127.68
| 15> H 	 -67.452 	 41.9799 	 128.88
| 16> C 	 -69.3528 	 42.8087 	 128.824
| 17> H 	 -69.1554 	 43.5172 	 128.017
| 18> H 	 -70.4051 	 42.4965 	 128.689
| 19> C 	 -69.2867 	 43.4608 	 130.164
| 20> H 	 -69.9459 	 44.3669 	 130.202
| 21> H 	 -69.6697 	 42.6973 	 130.845
| 22> H 	 -68.2238 	 43.6748 	 130.337
| 23> S 	 -69.6976 	 39.8108 	 134.078
| 24> C 	 -69.0801 	 39.2619 	 135.566
| 25> C 	 -67.8763 	 38.6485 	 135.417
| 26> C 	 -67.4638 	 38.6003 	 134.056
| 27> C 	 -68.3245 	 39.1496 	 133.168
| 28> H 	 -67.2849 	 38.2075 	 136.201
| 29> C 	 -66.192 	 37.7913 	 133.654
| 30> H 	 -65.3936 	 37.9613 	 134.403
| 31> H 	 -65.8818 	 38.0135 	 132.659
| 32> C 	 -66.6247 	 36.3157 	 133.75
| 33> H 	 -67.1546 	 36.1155 	 134.652
| 34> H 	 -65.6348 	 35.8696 	 133.899
| 35> C 	 -67.2502 	 35.7927 	 132.502
| 36> H 	 -68.2323 	 36.2064 	 132.388
| 37> H 	 -67.3155 	 34.6797 	 132.498
| 38> H 	 -66.7849 	 35.9962 	 131.594
| 39> H 	 -68.8223 	 38.7994 	 128.199
| 40> H 	 -69.503 	 39.4541 	 136.567
| 41> *
| 42>
| 43>                          ****END OF INPUT****

CARTESIAN COORDINATES (ANGSTROEM)
---------------------------------
  S    -68.830800   37.967200  130.557000
  C    -68.603000   39.095300  129.185000
  C    -68.453000   40.392800  129.625000
  C    -68.083200   40.430000  131.002000
  C    -68.303200   39.280100  131.700000
  H    -67.750300   41.226300  131.594000
  C    -68.418100   41.584500  128.703000
  H    -68.338000   41.251200  127.680000
  H    -67.452000   41.979900  128.880000
  C    -69.352800   42.808700  128.824000
  H    -69.155400   43.517200  128.017000
  H    -70.405100   42.496500  128.689000
  C    -69.286700   43.460800  130.164000
  H    -69.945900   44.366900  130.202000
  H    -69.669700   42.697300  130.845000
  H    -68.223800   43.674800  130.337000
  S    -69.697600   39.810800  134.078000
  C    -69.080100   39.261900  135.566000
  C    -67.876300   38.648500  135.417000
  C    -67.463800   38.600300  134.056000
  C    -68.324500   39.149600  133.168000
  H    -67.284900   38.207500  136.201000
  C    -66.192000   37.791300  133.654000
  H    -65.393600   37.961300  134.403000
  H    -65.881800   38.013500  132.659000
  C    -66.624700   36.315700  133.750000
  H    -67.154600   36.115500  134.652000
  H    -65.634800   35.869600  133.899000
  C    -67.250200   35.792700  132.502000
  H    -68.232300   36.206400  132.388000
  H    -67.315500   34.679700  132.498000
  H    -66.784900   35.996200  131.594000
  H    -68.822300   38.799400  128.199000
  H    -69.503000   39.454100  136.567000

 Total Charge           Charge          ....    0
 Multiplicity           Mult            ....    1
 Number of Electrons    NEL             ....  134
 Basis Dimension        Dim             ....  322

ORBITAL ENERGIES
----------------

  NO   OCC          E(Eh)            E(eV)
   0   2.0000     -88.963263     -2420.8134
   1   2.0000     -88.961377     -2420.7621
   2   2.0000     -10.332008      -281.1482
   3   2.0000     -10.321538      -280.8633
   4   2.0000     -10.316714      -280.7321
   5   2.0000     -10.314996      -280.6853
   6   2.0000     -10.305102      -280.4161
   7   2.0000     -10.298054      -280.2243
   8   2.0000     -10.291057      -280.0339
   9   2.0000     -10.289670      -279.9961
  10   2.0000     -10.288146      -279.9547
  11   2.0000     -10.287549      -279.9384
  12   2.0000     -10.285523      -279.8833
  13   2.0000     -10.277643      -279.6689
  14   2.0000     -10.276718      -279.6437
  15   2.0000     -10.262646      -279.2608
  16   2.0000      -8.076871      -219.7828
  17   2.0000      -8.076111      -219.7621
  18   2.0000      -6.035417      -164.2321
  19   2.0000      -6.034786      -164.2149
  20   2.0000      -6.031204      -164.1174
  21   2.0000      -6.031022      -164.1124
  22   2.0000      -6.027600      -164.0193
  23   2.0000      -6.026638      -163.9932
  24   2.0000      -1.006821       -27.3970
  25   2.0000      -0.983839       -26.7716
  26   2.0000      -0.914926       -24.8964
  27   2.0000      -0.911617       -24.8064
  28   2.0000      -0.872007       -23.7285
  29   2.0000      -0.846849       -23.0439
  30   2.0000      -0.844912       -22.9912
  31   2.0000      -0.819441       -22.2981
  32   2.0000      -0.785808       -21.3829
  33   2.0000      -0.771618       -20.9968
  34   2.0000      -0.703856       -19.1529
  35   2.0000      -0.696291       -18.9471
  36   2.0000      -0.693864       -18.8810
  37   2.0000      -0.661384       -17.9972
  38   2.0000      -0.647625       -17.6228
  39   2.0000      -0.614026       -16.7085
  40   2.0000      -0.601653       -16.3718
  41   2.0000      -0.576689       -15.6925
  42   2.0000      -0.553374       -15.0581
  43   2.0000      -0.551209       -14.9992
  44   2.0000      -0.548359       -14.9216
  45   2.0000      -0.534393       -14.5416
  46   2.0000      -0.515823       -14.0363
  47   2.0000      -0.514082       -13.9889
  48   2.0000      -0.500723       -13.6254
  49   2.0000      -0.498938       -13.5768
  50   2.0000      -0.496312       -13.5053
  51   2.0000      -0.479908       -13.0590
  52   2.0000      -0.478671       -13.0253
  53   2.0000      -0.466090       -12.6830
  54   2.0000      -0.454722       -12.3736
  55   2.0000      -0.446890       -12.1605
  56   2.0000      -0.439865       -11.9693
  57   2.0000      -0.436666       -11.8823
  58   2.0000      -0.430429       -11.7126
  59   2.0000      -0.425683       -11.5834
  60   2.0000      -0.423168       -11.5150
  61   2.0000      -0.415795       -11.3144
  62   2.0000      -0.394663       -10.7393
  63   2.0000      -0.333678        -9.0799
  64   2.0000      -0.327347        -8.9076
  65   2.0000      -0.322805        -8.7840
  66   2.0000      -0.311879        -8.4867
  67   0.0000       0.038766         1.0549
  68   0.0000       0.059236         1.6119
  69   0.0000       0.103761         2.8235
  70   0.0000       0.115788         3.1508
  71   0.0000       0.133648         3.6368

MULLIKEN ATOMIC CHARGES
-----------------------
   0 S :    0.070221
   1 C :   -0.096119
   2 C :   -0.068794
   3 C :    0.052434
   4 C :   -0.152582
   5 H :   -0.002007
   6 C :    0.071943
   7 H :    0.011258
   8 H :    0.012913
   9 C :   -0.059918
  10 H :    0.029814
  11 H :    0.025528
  12 C :   -0.066694
  13 H :    0.047399
  14 H :    0.046961
  15 H :    0.029305
  16 S :    0.110076
  17 C :   -0.080456
  18 C :   -0.033887
  19 C :   -0.041542
  20 C :   -0.197735
  21 H :    0.012662
  22 C :    0.076504
  23 H :    0.028067
  24 H :    0.024554
  25 C :   -0.054778
  26 H :    0.022966
  27 H :    0.016533
  28 C :   -0.011027
  29 H :    0.029143
  30 H :    0.031197
  31 H :    0.012867
  32 H :    0.036115
  33 H :    0.067080
Sum of atomic charges:    0.0000000

LOEWDIN ATOMIC CHARGES
----------------------
   0 S :    0.371599
   1 C :   -0.167216
   2 C :   -0.057859
   3 C :   -0.050959
   4 C :   -0.169811
   5 H :    0.026549
   6 C :   -0.033983
   7 H :    0.030047
   8 H :    0.028196
   9 C :   -0.040899
  10 H :    0.024208
  11 H :    0.023290
  12 C :   -0.067801
  13 H :    0.033697
  14 H :    0.029325
  15 H :    0.022166
  16 S :    0.409638
  17 C :   -0.192226
  18 C :   -0.081458
  19 C :   -0.048657
  20 C :   -0.210436
  21 H :    0.029179
  22 C :   -0.015469
  23 H :    0.030943
  24 H :    0.024591
  25 C :   -0.036426
  26 H :    0.020288
  27 H :    0.022673
  28 C :   -0.065320
  29 H :    0.010574
  30 H :    0.032419
  31 H :    0.012489
  32 H :    0.017225
  33 H :    0.039425

  Mayer bond orders larger than 0.100000
B(  0-S ,  1-C ) :   1.1270 B(  0-S ,  4-C ) :   1.1070 B(  1-C ,  2-C ) :   1.6410
B(  1-C , 32-H ) :   0.9730 B(  2-C ,  3-C ) :   1.1783 B(  2-C ,  6-C ) :   1.0204
B(  3-C ,  4-C ) :   1.6451 B(  3-C ,  5-H ) :   0.9957 B(  4-C , 20-C ) :   1.0319
B(  6-C ,  7-H ) :   0.9388 B(  6-C ,  8-H ) :   0.9347 B(  6-C ,  9-C ) :   1.0688
B(  9-C , 10-H ) :   0.9525 B(  9-C , 11-H ) :   0.9535 B(  9-C , 12-C ) :   1.0818
B( 12-C , 13-H ) :   0.9685 B( 12-C , 14-H ) :   0.9700 B( 12-C , 15-H ) :   0.9750
B( 16-S , 17-C ) :   1.1738 B( 16-S , 20-C ) :   1.1128 B( 17-C , 18-C ) :   1.5963
B( 17-C , 33-H ) :   0.9608 B( 18-C , 19-C ) :   1.2499 B( 18-C , 21-H ) :   0.9896
B( 19-C , 20-C ) :   1.6339 B( 19-C , 22-C ) :   1.0445 B( 22-C , 23-H ) :   0.9400
B( 22-C , 24-H ) :   0.9360 B( 22-C , 25-C ) :   1.0630 B( 25-C , 26-H ) :   0.9552
B( 25-C , 27-H ) :   0.9517 B( 25-C , 28-C ) :   1.0872 B( 28-C , 29-H ) :   0.9657
B( 28-C , 30-H ) :   0.9661 B( 28-C , 31-H ) :   0.9705

Dispersion correction           -0.015544741
FINAL SINGLE POINT ENERGY     -1339.868832898906

DIPOLE MOMENT
-------------
                                X             Y             Z
Electronic contribution:     -7.17715      -4.08760       6.63696
Nuclear contribution   :      7.49535       4.29854      -6.66285
                        -----------------------------------------
Total Dipole Moment    :      0.31820       0.21094      -0.02589
                        -----------------------------------------
Magnitude (a.u.)       :      0.38264
Magnitude (Debye)      :      0.97260

Rotational constants in cm-1:     0.021597     0.009185     0.007245
Rotational constants in MHz :   647.462810   275.346868   217.191667

                             ****ORCA TERMINATED NORMALLY****
TOTAL RUN TIME: 0 days 0 hours 0 minutes 35 seconds 293 msec
