                         Program Version 4.2.1 -  RELEASE  -
|  1> ! wB97X-D3 SP def2-SVP
|  2> %pal
|  3> nprocs 16
|  4> end
|  5>
|  6> * xyz 0 1
|  7> S 	 10.8463 	 -9.48526 	 91.4411
|  8> C 	 10.9844 	 -8.37487 	 92.8037
|  9> C 	 9.98323 	 -7.40871 	 92.7552
| 10> C 	 9.25579 	 -7.55137 	 91.5271
| 11> C 	 9.49696 	 -8.66761 	 90.7649
| 12> H 	 8.39358 	 -6.97634 	 91.1159
| 13> C 	 9.75972 	 -6.35696 	 93.8423
| 14> H 	 8.78522 	 -5.89133 	 93.7227
| 15> H 	 10.4587 	 -5.58224 	 93.5879
| 16> C 	 10.0163 	 -6.73861 	 95.3036
| 17> H 	 9.10528 	 -7.30371 	 95.5334
| 18> H 	 10.9495 	 -7.29 	 95.4093
| 19> C 	 9.98527 	 -5.48704 	 96.2484
| 20> H 	 10.9513 	 -4.88596 	 96.1546
| 21> H 	 9.07882 	 -4.98506 	 96.1858
| 22> H 	 9.97323 	 -5.82651 	 97.2872
| 23> S 	 9.98017 	 -8.87546 	 88.176
| 24> C 	 8.75457 	 -9.46173 	 87.0711
| 25> C 	 7.53801 	 -9.5975 	 87.737
| 26> C 	 7.59772 	 -9.36737 	 89.131
| 27> C 	 8.9294 	 -9.10429 	 89.5165
| 28> H 	 6.64322 	 -9.73487 	 87.1533
| 29> C 	 6.35735 	 -9.53511 	 90.0539
| 30> H 	 6.06813 	 -8.52911 	 90.3119
| 31> H 	 6.69345 	 -10.0629 	 90.9222
| 32> C 	 5.04534 	 -10.2265 	 89.5681
| 33> H 	 5.37653 	 -11.2003 	 89.1473
| 34> H 	 4.65331 	 -9.71183 	 88.6837
| 35> C 	 3.95791 	 -10.3457 	 90.6365
| 36> H 	 3.64568 	 -9.39728 	 91.1418
| 37> H 	 4.3394 	 -10.9384 	 91.4076
| 38> H 	 3.11914 	 -11.0248 	 90.4819
| 39> H 	 11.8271 	 -8.55291 	 93.4451
| 40> H 	 8.86625 	 -9.35368 	 86.0083
| 41> *
| 42>
| 43>                          ****END OF INPUT****

CARTESIAN COORDINATES (ANGSTROEM)
---------------------------------
  S     10.846300   -9.485260   91.441100
  C     10.984400   -8.374870   92.803700
  C      9.983230   -7.408710   92.755200
  C      9.255790   -7.551370   91.527100
  C      9.496960   -8.667610   90.764900
  H      8.393580   -6.976340   91.115900
  C      9.759720   -6.356960   93.842300
  H      8.785220   -5.891330   93.722700
  H     10.458700   -5.582240   93.587900
  C     10.016300   -6.738610   95.303600
  H      9.105280   -7.303710   95.533400
  H     10.949500   -7.290000   95.409300
  C      9.985270   -5.487040   96.248400
  H     10.951300   -4.885960   96.154600
  H      9.078820   -4.985060   96.185800
  H      9.973230   -5.826510   97.287200
  S      9.980170   -8.875460   88.176000
  C      8.754570   -9.461730   87.071100
  C      7.538010   -9.597500   87.737000
  C      7.597720   -9.367370   89.131000
  C      8.929400   -9.104290   89.516500
  H      6.643220   -9.734870   87.153300
  C      6.357350   -9.535110   90.053900
  H      6.068130   -8.529110   90.311900
  H      6.693450  -10.062900   90.922200
  C      5.045340  -10.226500   89.568100
  H      5.376530  -11.200300   89.147300
  H      4.653310   -9.711830   88.683700
  C      3.957910  -10.345700   90.636500
  H      3.645680   -9.397280   91.141800
  H      4.339400  -10.938400   91.407600
  H      3.119140  -11.024800   90.481900
  H     11.827100   -8.552910   93.445100
  H      8.866250   -9.353680   86.008300

 Total Charge           Charge          ....    0
 Multiplicity           Mult            ....    1
 Number of Electrons    NEL             ....  134
 Basis Dimension        Dim             ....  322

ORBITAL ENERGIES
----------------

  NO   OCC          E(Eh)            E(eV)
   0   2.0000     -88.966351     -2420.8975
   1   2.0000     -88.956446     -2420.6280
   2   2.0000     -10.324222      -280.9364
   3   2.0000     -10.319978      -280.8209
   4   2.0000     -10.315130      -280.6890
   5   2.0000     -10.313514      -280.6450
   6   2.0000     -10.309974      -280.5487
   7   2.0000     -10.308166      -280.4995
   8   2.0000     -10.295366      -280.1511
   9   2.0000     -10.294403      -280.1249
  10   2.0000     -10.293668      -280.1050
  11   2.0000     -10.293173      -280.0915
  12   2.0000     -10.291530      -280.0468
  13   2.0000     -10.290197      -280.0105
  14   2.0000     -10.282946      -279.8132
  15   2.0000     -10.280242      -279.7396
  16   2.0000      -8.081605      -219.9117
  17   2.0000      -8.072153      -219.6544
  18   2.0000      -6.039975      -164.3561
  19   2.0000      -6.035974      -164.2472
  20   2.0000      -6.032525      -164.1533
  21   2.0000      -6.030446      -164.0968
  22   2.0000      -6.026385      -163.9863
  23   2.0000      -6.023215      -163.9000
  24   2.0000      -1.010301       -27.4917
  25   2.0000      -0.983967       -26.7751
  26   2.0000      -0.911615       -24.8063
  27   2.0000      -0.905836       -24.6491
  28   2.0000      -0.870349       -23.6834
  29   2.0000      -0.852836       -23.2068
  30   2.0000      -0.842773       -22.9330
  31   2.0000      -0.812786       -22.1170
  32   2.0000      -0.786205       -21.3937
  33   2.0000      -0.774300       -21.0698
  34   2.0000      -0.709611       -19.3095
  35   2.0000      -0.705395       -19.1948
  36   2.0000      -0.693796       -18.8792
  37   2.0000      -0.656888       -17.8748
  38   2.0000      -0.647969       -17.6321
  39   2.0000      -0.606961       -16.5162
  40   2.0000      -0.595170       -16.1954
  41   2.0000      -0.580995       -15.8097
  42   2.0000      -0.570465       -15.5231
  43   2.0000      -0.560773       -15.2594
  44   2.0000      -0.524314       -14.2673
  45   2.0000      -0.520602       -14.1663
  46   2.0000      -0.518443       -14.1075
  47   2.0000      -0.512201       -13.9377
  48   2.0000      -0.504382       -13.7249
  49   2.0000      -0.495425       -13.4812
  50   2.0000      -0.494407       -13.4535
  51   2.0000      -0.482480       -13.1289
  52   2.0000      -0.474010       -12.8985
  53   2.0000      -0.466132       -12.6841
  54   2.0000      -0.458945       -12.4885
  55   2.0000      -0.452075       -12.3016
  56   2.0000      -0.443557       -12.0698
  57   2.0000      -0.436092       -11.8667
  58   2.0000      -0.432762       -11.7761
  59   2.0000      -0.422430       -11.4949
  60   2.0000      -0.420211       -11.4345
  61   2.0000      -0.416881       -11.3439
  62   2.0000      -0.412621       -11.2280
  63   2.0000      -0.340335        -9.2610
  64   2.0000      -0.327903        -8.9227
  65   2.0000      -0.323281        -8.7969
  66   2.0000      -0.298126        -8.1124
  67   0.0000       0.034609         0.9418
  68   0.0000       0.063869         1.7380
  69   0.0000       0.116602         3.1729
  70   0.0000       0.125830         3.4240
  71   0.0000       0.133444         3.6312

MULLIKEN ATOMIC CHARGES
-----------------------
   0 S :    0.093215
   1 C :   -0.156561
   2 C :   -0.048538
   3 C :    0.024538
   4 C :   -0.195576
   5 H :    0.017310
   6 C :    0.082312
   7 H :    0.017308
   8 H :    0.028355
   9 C :   -0.092356
  10 H :    0.038659
  11 H :    0.039565
  12 C :   -0.047675
  13 H :    0.049647
  14 H :    0.022759
  15 H :    0.027497
  16 S :    0.123528
  17 C :   -0.080288
  18 C :   -0.061815
  19 C :   -0.013435
  20 C :   -0.171961
  21 H :    0.018706
  22 C :    0.077579
  23 H :    0.026934
  24 H :    0.036185
  25 C :   -0.088644
  26 H :    0.031948
  27 H :    0.030708
  28 C :   -0.017598
  29 H :    0.042054
  30 H :    0.002916
  31 H :    0.030668
  32 H :    0.055130
  33 H :    0.056928
Sum of atomic charges:   -0.0000000

LOEWDIN ATOMIC CHARGES
----------------------
   0 S :    0.408782
   1 C :   -0.191960
   2 C :   -0.059317
   3 C :   -0.074482
   4 C :   -0.219097
   5 H :    0.036165
   6 C :   -0.034443
   7 H :    0.028534
   8 H :    0.030695
   9 C :   -0.035754
  10 H :    0.029983
  11 H :    0.023955
  12 C :   -0.064806
  13 H :    0.035135
  14 H :    0.016196
  15 H :    0.028211
  16 S :    0.438105
  17 C :   -0.189597
  18 C :   -0.072181
  19 C :   -0.048703
  20 C :   -0.217747
  21 H :    0.029912
  22 C :   -0.025788
  23 H :    0.029763
  24 H :    0.032010
  25 C :   -0.043461
  26 H :    0.027881
  27 H :    0.019919
  28 C :   -0.075123
  29 H :    0.033843
  30 H :    0.021271
  31 H :    0.034865
  32 H :    0.021734
  33 H :    0.025498

  Mayer bond orders larger than 0.100000
B(  0-S ,  1-C ) :   1.1581 B(  0-S ,  4-C ) :   1.1606 B(  1-C ,  2-C ) :   1.5662
B(  1-C ,  4-C ) :   0.1020 B(  1-C , 32-H ) :   0.9791 B(  2-C ,  3-C ) :   1.2396
B(  2-C ,  6-C ) :   1.0079 B(  3-C ,  4-C ) :   1.5997 B(  3-C ,  5-H ) :   0.9861
B(  4-C , 20-C ) :   1.0065 B(  6-C ,  7-H ) :   0.9445 B(  6-C ,  8-H ) :   0.9333
B(  6-C ,  9-C ) :   1.0597 B(  9-C , 10-H ) :   0.9595 B(  9-C , 11-H ) :   0.9554
B(  9-C , 12-C ) :   1.0903 B( 12-C , 13-H ) :   0.9747 B( 12-C , 14-H ) :   0.9736
B( 12-C , 15-H ) :   0.9733 B( 16-S , 17-C ) :   1.1676 B( 16-S , 20-C ) :   1.1923
B( 17-C , 18-C ) :   1.5714 B( 17-C , 20-C ) :   0.1102 B( 17-C , 33-H ) :   0.9672
B( 18-C , 19-C ) :   1.2868 B( 18-C , 21-H ) :   0.9862 B( 19-C , 20-C ) :   1.5559
B( 19-C , 22-C ) :   1.0147 B( 22-C , 23-H ) :   0.9240 B( 22-C , 24-H ) :   0.9440
B( 22-C , 25-C ) :   1.0760 B( 25-C , 26-H ) :   0.9539 B( 25-C , 27-H ) :   0.9507
B( 25-C , 28-C ) :   1.0792 B( 28-C , 29-H ) :   0.9746 B( 28-C , 30-H ) :   0.9641
B( 28-C , 31-H ) :   0.9682

Dispersion correction           -0.013079107
FINAL SINGLE POINT ENERGY     -1339.861866733019

DIPOLE MOMENT
-------------
                                X             Y             Z
Electronic contribution:     18.96811      -7.00715     -19.63321
Nuclear contribution   :    -19.52406       7.35169      19.96187
                        -----------------------------------------
Total Dipole Moment    :     -0.55595       0.34454       0.32866
                        -----------------------------------------
Magnitude (a.u.)       :      0.73199
Magnitude (Debye)      :      1.86057

Rotational constants in cm-1:     0.018234     0.007320     0.005689
Rotational constants in MHz :   546.655465   219.454055   170.560540

                             ****ORCA TERMINATED NORMALLY****
TOTAL RUN TIME: 0 days 0 hours 0 minutes 31 seconds 290 msec
