                         Program Version 4.2.1 -  RELEASE  -
|  1> ! wB97X-D3 SP def2-SVP
|  2> %pal
|  3> nprocs 16
|  4> end
|  5>
|  6> * xyz 0 1
|  7> S 	 -1.74406 	 47.4668 	 35.4578
|  8> C 	 -0.862742 	 46.634 	 36.6819
|  9> C 	 -0.0913055 	 45.6069 	 36.1529
| 10> C 	 -0.129349 	 45.6294 	 34.7167
| 11> C 	 -0.82839 	 46.7019 	 34.1933
| 12> H 	 0.301474 	 44.9821 	 33.9893
| 13> C 	 0.617988 	 44.6033 	 37.0077
| 14> H 	 0.877431 	 43.7382 	 36.3481
| 15> H 	 -0.174526 	 44.2376 	 37.718
| 16> C 	 1.94454 	 45.0887 	 37.5679
| 17> H 	 2.61146 	 45.3899 	 36.7805
| 18> H 	 1.75936 	 46.0018 	 38.1156
| 19> C 	 2.67944 	 44.1373 	 38.4819
| 20> H 	 2.17913 	 44.146 	 39.5405
| 21> H 	 2.72879 	 43.0292 	 38.1727
| 22> H 	 3.65981 	 44.4605 	 38.7359
| 23> S 	 -1.22126 	 45.716 	 31.737
| 24> C 	 -1.05246 	 46.7428 	 30.3344
| 25> C 	 -0.845774 	 48.068 	 30.6807
| 26> C 	 -0.675678 	 48.2633 	 32.0791
| 27> C 	 -0.969789 	 47.0702 	 32.7856
| 28> H 	 -0.761267 	 48.7152 	 29.8959
| 29> C 	 -0.418166 	 49.6092 	 32.7153
| 30> H 	 0.218951 	 50.2316 	 32.0898
| 31> H 	 0.203943 	 49.4727 	 33.6408
| 32> C 	 -1.64736 	 50.4862 	 32.8717
| 33> H 	 -2.43459 	 49.8177 	 33.2884
| 34> H 	 -2.07214 	 50.8746 	 31.9375
| 35> C 	 -1.353 	 51.6372 	 33.852
| 36> H 	 -2.04033 	 52.4784 	 33.6418
| 37> H 	 -0.352262 	 52.0899 	 33.7576
| 38> H 	 -1.43888 	 51.3122 	 34.9209
| 39> H 	 -1.06102 	 46.8458 	 37.7281
| 40> H 	 -1.18264 	 46.5175 	 29.2885
| 41> *
| 42>
| 43>                          ****END OF INPUT****

CARTESIAN COORDINATES (ANGSTROEM)
---------------------------------
  S     -1.744060   47.466800   35.457800
  C     -0.862742   46.634000   36.681900
  C     -0.091305   45.606900   36.152900
  C     -0.129349   45.629400   34.716700
  C     -0.828390   46.701900   34.193300
  H      0.301474   44.982100   33.989300
  C      0.617988   44.603300   37.007700
  H      0.877431   43.738200   36.348100
  H     -0.174526   44.237600   37.718000
  C      1.944540   45.088700   37.567900
  H      2.611460   45.389900   36.780500
  H      1.759360   46.001800   38.115600
  C      2.679440   44.137300   38.481900
  H      2.179130   44.146000   39.540500
  H      2.728790   43.029200   38.172700
  H      3.659810   44.460500   38.735900
  S     -1.221260   45.716000   31.737000
  C     -1.052460   46.742800   30.334400
  C     -0.845774   48.068000   30.680700
  C     -0.675678   48.263300   32.079100
  C     -0.969789   47.070200   32.785600
  H     -0.761267   48.715200   29.895900
  C     -0.418166   49.609200   32.715300
  H      0.218951   50.231600   32.089800
  H      0.203943   49.472700   33.640800
  C     -1.647360   50.486200   32.871700
  H     -2.434590   49.817700   33.288400
  H     -2.072140   50.874600   31.937500
  C     -1.353000   51.637200   33.852000
  H     -2.040330   52.478400   33.641800
  H     -0.352262   52.089900   33.757600
  H     -1.438880   51.312200   34.920900
  H     -1.061020   46.845800   37.728100
  H     -1.182640   46.517500   29.288500

 Total Charge           Charge          ....    0
 Multiplicity           Mult            ....    1
 Number of Electrons    NEL             ....  134
 Basis Dimension        Dim             ....  322

ORBITAL ENERGIES
----------------

  NO   OCC          E(Eh)            E(eV)
   0   2.0000     -88.969366     -2420.9795
   1   2.0000     -88.964242     -2420.8401
   2   2.0000     -10.326848      -281.0078
   3   2.0000     -10.325871      -280.9812
   4   2.0000     -10.314680      -280.6767
   5   2.0000     -10.311176      -280.5814
   6   2.0000     -10.306788      -280.4620
   7   2.0000     -10.302484      -280.3448
   8   2.0000     -10.295720      -280.1608
   9   2.0000     -10.292147      -280.0636
  10   2.0000     -10.290475      -280.0181
  11   2.0000     -10.287203      -279.9290
  12   2.0000     -10.287131      -279.9271
  13   2.0000     -10.286040      -279.8974
  14   2.0000     -10.283860      -279.8380
  15   2.0000     -10.280223      -279.7391
  16   2.0000      -8.084043      -219.9780
  17   2.0000      -8.079486      -219.8540
  18   2.0000      -6.042501      -164.4248
  19   2.0000      -6.038499      -164.3159
  20   2.0000      -6.037907      -164.2998
  21   2.0000      -6.034931      -164.2188
  22   2.0000      -6.033911      -164.1911
  23   2.0000      -6.030355      -164.0943
  24   2.0000      -1.009239       -27.4628
  25   2.0000      -0.986419       -26.8418
  26   2.0000      -0.914139       -24.8750
  27   2.0000      -0.909057       -24.7367
  28   2.0000      -0.872454       -23.7407
  29   2.0000      -0.852332       -23.1931
  30   2.0000      -0.844965       -22.9927
  31   2.0000      -0.815854       -22.2005
  32   2.0000      -0.780257       -21.2319
  33   2.0000      -0.765429       -20.8284
  34   2.0000      -0.702759       -19.1231
  35   2.0000      -0.699032       -19.0216
  36   2.0000      -0.691032       -18.8039
  37   2.0000      -0.668022       -18.1778
  38   2.0000      -0.644555       -17.5392
  39   2.0000      -0.613466       -16.6933
  40   2.0000      -0.596118       -16.2212
  41   2.0000      -0.574238       -15.6258
  42   2.0000      -0.562760       -15.3135
  43   2.0000      -0.555013       -15.1027
  44   2.0000      -0.526677       -14.3316
  45   2.0000      -0.523266       -14.2388
  46   2.0000      -0.515320       -14.0226
  47   2.0000      -0.512425       -13.9438
  48   2.0000      -0.505896       -13.7661
  49   2.0000      -0.501397       -13.6437
  50   2.0000      -0.493908       -13.4399
  51   2.0000      -0.472070       -12.8457
  52   2.0000      -0.468999       -12.7621
  53   2.0000      -0.463608       -12.6154
  54   2.0000      -0.459222       -12.4961
  55   2.0000      -0.448653       -12.2085
  56   2.0000      -0.442424       -12.0390
  57   2.0000      -0.440498       -11.9866
  58   2.0000      -0.436648       -11.8818
  59   2.0000      -0.424345       -11.5470
  60   2.0000      -0.423690       -11.5292
  61   2.0000      -0.409059       -11.1311
  62   2.0000      -0.404414       -11.0047
  63   2.0000      -0.344295        -9.3687
  64   2.0000      -0.334556        -9.1037
  65   2.0000      -0.326751        -8.8913
  66   2.0000      -0.290757        -7.9119
  67   0.0000       0.028453         0.7742
  68   0.0000       0.072722         1.9789
  69   0.0000       0.105917         2.8821
  70   0.0000       0.116767         3.1774
  71   0.0000       0.130025         3.5382

MULLIKEN ATOMIC CHARGES
-----------------------
   0 S :    0.112003
   1 C :   -0.129576
   2 C :   -0.084838
   3 C :    0.033367
   4 C :   -0.162567
   5 H :    0.001546
   6 C :    0.050085
   7 H :    0.022289
   8 H :    0.047524
   9 C :   -0.038757
  10 H :    0.026931
  11 H :    0.018672
  12 C :   -0.071909
  13 H :    0.031795
  14 H :    0.045389
  15 H :    0.027700
  16 S :    0.114961
  17 C :   -0.087206
  18 C :   -0.004986
  19 C :   -0.009672
  20 C :   -0.159972
  21 H :   -0.019281
  22 C :    0.037364
  23 H :    0.013584
  24 H :    0.046087
  25 C :   -0.061446
  26 H :    0.028889
  27 H :    0.031449
  28 C :   -0.069399
  29 H :    0.033637
  30 H :    0.028695
  31 H :    0.048439
  32 H :    0.051154
  33 H :    0.048047
Sum of atomic charges:   -0.0000000

LOEWDIN ATOMIC CHARGES
----------------------
   0 S :    0.422905
   1 C :   -0.205153
   2 C :   -0.063366
   3 C :   -0.066119
   4 C :   -0.201979
   5 H :    0.021569
   6 C :   -0.037383
   7 H :    0.033795
   8 H :    0.039943
   9 C :   -0.044078
  10 H :    0.026700
  11 H :    0.023662
  12 C :   -0.076748
  13 H :    0.033089
  14 H :    0.032361
  15 H :    0.020009
  16 S :    0.428972
  17 C :   -0.187965
  18 C :   -0.057969
  19 C :   -0.047428
  20 C :   -0.207782
  21 H :    0.016462
  22 C :   -0.042389
  23 H :    0.028795
  24 H :    0.038521
  25 C :   -0.042087
  26 H :    0.022701
  27 H :    0.024464
  28 C :   -0.072458
  29 H :    0.027254
  30 H :    0.023516
  31 H :    0.032661
  32 H :    0.026302
  33 H :    0.029222

  Mayer bond orders larger than 0.100000
B(  0-S ,  1-C ) :   1.1544 B(  0-S ,  4-C ) :   1.1630 B(  1-C ,  2-C ) :   1.5797
B(  1-C , 32-H ) :   0.9734 B(  2-C ,  3-C ) :   1.2497 B(  2-C ,  6-C ) :   1.0210
B(  3-C ,  4-C ) :   1.5690 B(  3-C ,  5-H ) :   0.9964 B(  4-C , 20-C ) :   1.0243
B(  6-C ,  7-H ) :   0.9359 B(  6-C ,  8-H ) :   0.9428 B(  6-C ,  9-C ) :   1.0629
B(  9-C , 10-H ) :   0.9511 B(  9-C , 11-H ) :   0.9537 B(  9-C , 12-C ) :   1.0867
B( 12-C , 13-H ) :   0.9731 B( 12-C , 14-H ) :   0.9733 B( 12-C , 15-H ) :   0.9725
B( 16-S , 17-C ) :   1.1540 B( 16-S , 20-C ) :   1.1565 B( 17-C , 18-C ) :   1.6175
B( 17-C , 33-H ) :   0.9652 B( 18-C , 19-C ) :   1.2385 B( 18-C , 21-H ) :   1.0023
B( 19-C , 20-C ) :   1.5495 B( 19-C , 22-C ) :   1.0631 B( 22-C , 23-H ) :   0.9235
B( 22-C , 24-H ) :   0.9393 B( 22-C , 25-C ) :   1.0510 B( 25-C , 26-H ) :   0.9567
B( 25-C , 27-H ) :   0.9575 B( 25-C , 28-C ) :   1.0702 B( 28-C , 29-H ) :   0.9755
B( 28-C , 30-H ) :   0.9740 B( 28-C , 31-H ) :   0.9764

Dispersion correction           -0.014058005
FINAL SINGLE POINT ENERGY     -1339.879849404281

DIPOLE MOMENT
-------------
                                X             Y             Z
Electronic contribution:    -11.75045      -7.06743     -13.72702
Nuclear contribution   :     12.03770       7.20547      13.74249
                        -----------------------------------------
Total Dipole Moment    :      0.28725       0.13804       0.01547
                        -----------------------------------------
Magnitude (a.u.)       :      0.31907
Magnitude (Debye)      :      0.81102

Rotational constants in cm-1:     0.020100     0.007779     0.006313
Rotational constants in MHz :   602.580084   233.200636   189.253624

                             ****ORCA TERMINATED NORMALLY****
TOTAL RUN TIME: 0 days 0 hours 0 minutes 32 seconds 487 msec
