                         Program Version 4.2.1 -  RELEASE  -
|  1> ! wB97X-D3 SP def2-SVP
|  2> %pal
|  3> nprocs 16
|  4> end
|  5>
|  6> * xyz 0 1
|  7> S 	 6.18124 	 13.7373 	 86.4449
|  8> C 	 4.45051 	 13.5968 	 86.1811
|  9> C 	 3.94042 	 12.3313 	 86.4122
| 10> C 	 4.99175 	 11.4411 	 86.9083
| 11> C 	 6.2652 	 12.0446 	 86.9805
| 12> H 	 4.75642 	 10.4767 	 87.3371
| 13> C 	 2.55738 	 11.8676 	 86.0519
| 14> H 	 2.00973 	 12.7305 	 85.8479
| 15> H 	 1.98028 	 11.3735 	 86.8149
| 16> C 	 2.62903 	 11.0425 	 84.7854
| 17> H 	 2.95631 	 11.7052 	 83.9363
| 18> H 	 3.44833 	 10.2967 	 85.0091
| 19> C 	 1.29002 	 10.3754 	 84.3923
| 20> H 	 0.834833 	 9.86614 	 85.1565
| 21> H 	 0.741798 	 11.2958 	 84.1054
| 22> H 	 1.35868 	 9.78263 	 83.4928
| 23> S 	 8.31346 	 11.7307 	 88.8584
| 24> C 	 9.36986 	 10.4123 	 88.7677
| 25> C 	 9.16152 	 9.78814 	 87.5315
| 26> C 	 8.06053 	 10.198 	 86.758
| 27> C 	 7.48773 	 11.3198 	 87.3735
| 28> H 	 9.80429 	 8.87963 	 87.3145
| 29> C 	 7.61673 	 9.42088 	 85.4906
| 30> H 	 6.57994 	 9.1375 	 85.7293
| 31> H 	 8.23072 	 8.55294 	 85.2893
| 32> C 	 7.58191 	 10.1874 	 84.187
| 33> H 	 8.41653 	 10.8439 	 84.0724
| 34> H 	 6.85666 	 11.0344 	 84.1919
| 35> C 	 7.52131 	 9.21414 	 82.9611
| 36> H 	 8.30865 	 8.46673 	 83.0668
| 37> H 	 7.61597 	 9.64599 	 82.0389
| 38> H 	 6.61759 	 8.51756 	 83.0477
| 39> H 	 3.83029 	 14.3858 	 85.6697
| 40> H 	 10.0841 	 10.0831 	 89.4977
| 41> *
| 42>
| 43>                          ****END OF INPUT****

CARTESIAN COORDINATES (ANGSTROEM)
---------------------------------
  S      6.181240   13.737300   86.444900
  C      4.450510   13.596800   86.181100
  C      3.940420   12.331300   86.412200
  C      4.991750   11.441100   86.908300
  C      6.265200   12.044600   86.980500
  H      4.756420   10.476700   87.337100
  C      2.557380   11.867600   86.051900
  H      2.009730   12.730500   85.847900
  H      1.980280   11.373500   86.814900
  C      2.629030   11.042500   84.785400
  H      2.956310   11.705200   83.936300
  H      3.448330   10.296700   85.009100
  C      1.290020   10.375400   84.392300
  H      0.834833    9.866140   85.156500
  H      0.741798   11.295800   84.105400
  H      1.358680    9.782630   83.492800
  S      8.313460   11.730700   88.858400
  C      9.369860   10.412300   88.767700
  C      9.161520    9.788140   87.531500
  C      8.060530   10.198000   86.758000
  C      7.487730   11.319800   87.373500
  H      9.804290    8.879630   87.314500
  C      7.616730    9.420880   85.490600
  H      6.579940    9.137500   85.729300
  H      8.230720    8.552940   85.289300
  C      7.581910   10.187400   84.187000
  H      8.416530   10.843900   84.072400
  H      6.856660   11.034400   84.191900
  C      7.521310    9.214140   82.961100
  H      8.308650    8.466730   83.066800
  H      7.615970    9.645990   82.038900
  H      6.617590    8.517560   83.047700
  H      3.830290   14.385800   85.669700
  H     10.084100   10.083100   89.497700

 Total Charge           Charge          ....    0
 Multiplicity           Mult            ....    1
 Number of Electrons    NEL             ....  134
 Basis Dimension        Dim             ....  322

ORBITAL ENERGIES
----------------

  NO   OCC          E(Eh)            E(eV)
   0   2.0000     -88.969804     -2420.9914
   1   2.0000     -88.967204     -2420.9207
   2   2.0000     -10.335873      -281.2534
   3   2.0000     -10.327525      -281.0262
   4   2.0000     -10.319008      -280.7945
   5   2.0000     -10.314540      -280.6729
   6   2.0000     -10.306771      -280.4615
   7   2.0000     -10.303542      -280.3736
   8   2.0000     -10.299392      -280.2607
   9   2.0000     -10.295609      -280.1578
  10   2.0000     -10.294189      -280.1191
  11   2.0000     -10.291637      -280.0497
  12   2.0000     -10.285428      -279.8807
  13   2.0000     -10.281543      -279.7750
  14   2.0000     -10.278859      -279.7020
  15   2.0000     -10.275218      -279.6029
  16   2.0000      -8.083661      -219.9676
  17   2.0000      -8.082723      -219.9421
  18   2.0000      -6.042272      -164.4186
  19   2.0000      -6.040999      -164.3839
  20   2.0000      -6.038328      -164.3112
  21   2.0000      -6.036893      -164.2722
  22   2.0000      -6.034332      -164.2025
  23   2.0000      -6.033911      -164.1911
  24   2.0000      -1.005787       -27.3689
  25   2.0000      -0.981907       -26.7190
  26   2.0000      -0.917707       -24.9721
  27   2.0000      -0.907994       -24.7078
  28   2.0000      -0.864756       -23.5312
  29   2.0000      -0.850890       -23.1539
  30   2.0000      -0.844623       -22.9834
  31   2.0000      -0.808434       -21.9986
  32   2.0000      -0.784515       -21.3477
  33   2.0000      -0.774461       -21.0742
  34   2.0000      -0.709537       -19.3075
  35   2.0000      -0.698064       -18.9953
  36   2.0000      -0.689989       -18.7756
  37   2.0000      -0.655141       -17.8273
  38   2.0000      -0.637087       -17.3360
  39   2.0000      -0.621668       -16.9165
  40   2.0000      -0.598535       -16.2870
  41   2.0000      -0.575324       -15.6554
  42   2.0000      -0.562266       -15.3000
  43   2.0000      -0.559797       -15.2329
  44   2.0000      -0.528220       -14.3736
  45   2.0000      -0.522924       -14.2295
  46   2.0000      -0.518543       -14.1103
  47   2.0000      -0.514579       -14.0024
  48   2.0000      -0.503000       -13.6873
  49   2.0000      -0.499514       -13.5925
  50   2.0000      -0.486507       -13.2385
  51   2.0000      -0.481472       -13.1015
  52   2.0000      -0.466966       -12.7068
  53   2.0000      -0.460397       -12.5280
  54   2.0000      -0.458285       -12.4706
  55   2.0000      -0.449644       -12.2354
  56   2.0000      -0.447614       -12.1802
  57   2.0000      -0.443106       -12.0575
  58   2.0000      -0.436515       -11.8782
  59   2.0000      -0.427527       -11.6336
  60   2.0000      -0.423169       -11.5150
  61   2.0000      -0.412999       -11.2383
  62   2.0000      -0.399018       -10.8578
  63   2.0000      -0.336844        -9.1660
  64   2.0000      -0.333272        -9.0688
  65   2.0000      -0.328559        -8.9405
  66   2.0000      -0.297444        -8.0939
  67   0.0000       0.035771         0.9734
  68   0.0000       0.059731         1.6254
  69   0.0000       0.115003         3.1294
  70   0.0000       0.122178         3.3246
  71   0.0000       0.130977         3.5641

MULLIKEN ATOMIC CHARGES
-----------------------
   0 S :    0.115634
   1 C :   -0.135708
   2 C :   -0.110272
   3 C :    0.032813
   4 C :   -0.165103
   5 H :    0.024169
   6 C :    0.117091
   7 H :   -0.010396
   8 H :    0.025207
   9 C :   -0.140431
  10 H :    0.038119
  11 H :    0.033576
  12 C :    0.004721
  13 H :    0.021822
  14 H :    0.025533
  15 H :    0.038132
  16 S :    0.133500
  17 C :   -0.098964
  18 C :   -0.081120
  19 C :   -0.010867
  20 C :   -0.192195
  21 H :    0.032576
  22 C :    0.118214
  23 H :    0.033092
  24 H :    0.012458
  25 C :   -0.081099
  26 H :    0.013443
  27 H :    0.033855
  28 C :   -0.024059
  29 H :    0.016814
  30 H :    0.025338
  31 H :    0.030252
  32 H :    0.066087
  33 H :    0.057769
Sum of atomic charges:   -0.0000000

LOEWDIN ATOMIC CHARGES
----------------------
   0 S :    0.392322
   1 C :   -0.205890
   2 C :   -0.058023
   3 C :   -0.056973
   4 C :   -0.190968
   5 H :    0.030604
   6 C :   -0.031132
   7 H :    0.019397
   8 H :    0.029122
   9 C :   -0.041139
  10 H :    0.030444
  11 H :    0.021605
  12 C :   -0.057805
  13 H :    0.011077
  14 H :    0.032686
  15 H :    0.027871
  16 S :    0.443953
  17 C :   -0.210336
  18 C :   -0.084785
  19 C :   -0.049416
  20 C :   -0.213900
  21 H :    0.035410
  22 C :   -0.021511
  23 H :    0.037183
  24 H :    0.028867
  25 C :   -0.048854
  26 H :    0.019801
  27 H :    0.029084
  28 C :   -0.058262
  29 H :    0.023249
  30 H :    0.013170
  31 H :    0.032368
  32 H :    0.038707
  33 H :    0.032072

  Mayer bond orders larger than 0.100000
B(  0-S ,  1-C ) :   1.1299 B(  0-S ,  4-C ) :   1.1388 B(  1-C ,  2-C ) :   1.6466
B(  1-C , 32-H ) :   0.9507 B(  2-C ,  3-C ) :   1.2247 B(  2-C ,  6-C ) :   1.0411
B(  3-C ,  4-C ) :   1.5899 B(  3-C ,  5-H ) :   0.9851 B(  4-C , 20-C ) :   1.0282
B(  6-C ,  7-H ) :   0.9248 B(  6-C ,  8-H ) :   0.9379 B(  6-C ,  9-C ) :   1.0500
B(  9-C , 10-H ) :   0.9571 B(  9-C , 11-H ) :   0.9605 B(  9-C , 12-C ) :   1.0682
B( 12-C , 13-H ) :   0.9773 B( 12-C , 14-H ) :   0.9738 B( 12-C , 15-H ) :   0.9740
B( 16-S , 17-C ) :   1.1859 B( 16-S , 20-C ) :   1.1735 B( 17-C , 18-C ) :   1.5578
B( 17-C , 20-C ) :   0.1106 B( 17-C , 33-H ) :   0.9731 B( 18-C , 19-C ) :   1.2994
B( 18-C , 21-H ) :   0.9755 B( 19-C , 20-C ) :   1.5399 B( 19-C , 22-C ) :   1.0284
B( 22-C , 23-H ) :   0.9218 B( 22-C , 24-H ) :   0.9419 B( 22-C , 25-C ) :   1.0583
B( 25-C , 26-H ) :   0.9550 B( 25-C , 27-H ) :   0.9482 B( 25-C , 28-C ) :   1.0745
B( 28-C , 29-H ) :   0.9725 B( 28-C , 30-H ) :   0.9770 B( 28-C , 31-H ) :   0.9749

Dispersion correction           -0.014725700
FINAL SINGLE POINT ENERGY     -1339.866399582053

DIPOLE MOMENT
-------------
                                X             Y             Z
Electronic contribution:     16.05905      15.95887      21.77132
Nuclear contribution   :    -16.38945     -16.46873     -22.10264
                        -----------------------------------------
Total Dipole Moment    :     -0.33040      -0.50986      -0.33132
                        -----------------------------------------
Magnitude (a.u.)       :      0.69203
Magnitude (Debye)      :      1.75899

Rotational constants in cm-1:     0.017609     0.009075     0.007096
Rotational constants in MHz :   527.900888   272.068243   212.737483

                             ****ORCA TERMINATED NORMALLY****
TOTAL RUN TIME: 0 days 0 hours 0 minutes 35 seconds 996 msec
