                         Program Version 4.2.1 -  RELEASE  -
|  1> ! wB97X-D3 SP def2-SVP
|  2> %pal
|  3> nprocs 16
|  4> end
|  5>
|  6> * xyz 0 1
|  7> S 	 -48.2407 	 30.0956 	 92.2876
|  8> C 	 -48.4746 	 28.3831 	 92.4826
|  9> C 	 -49.2135 	 27.8419 	 91.4354
| 10> C 	 -49.5234 	 28.8186 	 90.3993
| 11> C 	 -49.0535 	 30.0965 	 90.7535
| 12> H 	 -50.0231 	 28.7202 	 89.4459
| 13> C 	 -49.571 	 26.3732 	 91.3814
| 14> H 	 -49.2911 	 25.9123 	 92.2963
| 15> H 	 -48.9164 	 25.9417 	 90.6725
| 16> C 	 -51.0568 	 26.0405 	 91.1182
| 17> H 	 -51.371 	 26.3469 	 90.0997
| 18> H 	 -51.1037 	 24.926 	 91.1337
| 19> C 	 -52.0312 	 26.5311 	 92.2041
| 20> H 	 -52.0071 	 27.6793 	 92.3385
| 21> H 	 -53.0481 	 26.3628 	 91.8315
| 22> H 	 -51.8229 	 26.126 	 93.2091
| 23> S 	 -47.6021 	 32.1776 	 89.6933
| 24> C 	 -48.4552 	 33.365 	 88.7278
| 25> C 	 -49.8469 	 33.1001 	 88.6803
| 26> C 	 -50.2366 	 31.9283 	 89.3975
| 27> C 	 -49.1457 	 31.2677 	 89.923
| 28> H 	 -50.5775 	 33.7803 	 88.3359
| 29> C 	 -51.7149 	 31.6465 	 89.5664
| 30> H 	 -52.0035 	 31.7264 	 90.6505
| 31> H 	 -51.8134 	 30.6134 	 89.3742
| 32> C 	 -52.8345 	 32.4045 	 88.7624
| 33> H 	 -52.4734 	 32.7909 	 87.7715
| 34> H 	 -53.2389 	 33.1732 	 89.4218
| 35> C 	 -53.9618 	 31.431 	 88.3731
| 36> H 	 -54.3651 	 30.9576 	 89.2774
| 37> H 	 -53.6018 	 30.6699 	 87.7068
| 38> H 	 -54.7213 	 31.9202 	 87.7958
| 39> H 	 -48.107 	 27.7395 	 93.2731
| 40> H 	 -47.8874 	 34.1771 	 88.2915
| 41> *
| 42>
| 43>                          ****END OF INPUT****

CARTESIAN COORDINATES (ANGSTROEM)
---------------------------------
  S    -48.240700   30.095600   92.287600
  C    -48.474600   28.383100   92.482600
  C    -49.213500   27.841900   91.435400
  C    -49.523400   28.818600   90.399300
  C    -49.053500   30.096500   90.753500
  H    -50.023100   28.720200   89.445900
  C    -49.571000   26.373200   91.381400
  H    -49.291100   25.912300   92.296300
  H    -48.916400   25.941700   90.672500
  C    -51.056800   26.040500   91.118200
  H    -51.371000   26.346900   90.099700
  H    -51.103700   24.926000   91.133700
  C    -52.031200   26.531100   92.204100
  H    -52.007100   27.679300   92.338500
  H    -53.048100   26.362800   91.831500
  H    -51.822900   26.126000   93.209100
  S    -47.602100   32.177600   89.693300
  C    -48.455200   33.365000   88.727800
  C    -49.846900   33.100100   88.680300
  C    -50.236600   31.928300   89.397500
  C    -49.145700   31.267700   89.923000
  H    -50.577500   33.780300   88.335900
  C    -51.714900   31.646500   89.566400
  H    -52.003500   31.726400   90.650500
  H    -51.813400   30.613400   89.374200
  C    -52.834500   32.404500   88.762400
  H    -52.473400   32.790900   87.771500
  H    -53.238900   33.173200   89.421800
  C    -53.961800   31.431000   88.373100
  H    -54.365100   30.957600   89.277400
  H    -53.601800   30.669900   87.706800
  H    -54.721300   31.920200   87.795800
  H    -48.107000   27.739500   93.273100
  H    -47.887400   34.177100   88.291500

 Total Charge           Charge          ....    0
 Multiplicity           Mult            ....    1
 Number of Electrons    NEL             ....  134
 Basis Dimension        Dim             ....  322

ORBITAL ENERGIES
----------------

  NO   OCC          E(Eh)            E(eV)
   0   2.0000     -88.966099     -2420.8906
   1   2.0000     -88.965814     -2420.8829
   2   2.0000     -10.325980      -280.9842
   3   2.0000     -10.325558      -280.9727
   4   2.0000     -10.322687      -280.8946
   5   2.0000     -10.309530      -280.5366
   6   2.0000     -10.305268      -280.4206
   7   2.0000     -10.301718      -280.3240
   8   2.0000     -10.297639      -280.2130
   9   2.0000     -10.295953      -280.1671
  10   2.0000     -10.294478      -280.1270
  11   2.0000     -10.293592      -280.1029
  12   2.0000     -10.292986      -280.0864
  13   2.0000     -10.284871      -279.8656
  14   2.0000     -10.284645      -279.8594
  15   2.0000     -10.278517      -279.6927
  16   2.0000      -8.080966      -219.8943
  17   2.0000      -8.079797      -219.8624
  18   2.0000      -6.039467      -164.3423
  19   2.0000      -6.038283      -164.3100
  20   2.0000      -6.035431      -164.2324
  21   2.0000      -6.034418      -164.2049
  22   2.0000      -6.031751      -164.1323
  23   2.0000      -6.030630      -164.1018
  24   2.0000      -1.001697       -27.2576
  25   2.0000      -0.976861       -26.5817
  26   2.0000      -0.909713       -24.7546
  27   2.0000      -0.907011       -24.6810
  28   2.0000      -0.865735       -23.5579
  29   2.0000      -0.854851       -23.2617
  30   2.0000      -0.840918       -22.8826
  31   2.0000      -0.808396       -21.9976
  32   2.0000      -0.783779       -21.3277
  33   2.0000      -0.771120       -20.9833
  34   2.0000      -0.708994       -19.2927
  35   2.0000      -0.699395       -19.0315
  36   2.0000      -0.688887       -18.7456
  37   2.0000      -0.658202       -17.9106
  38   2.0000      -0.639889       -17.4123
  39   2.0000      -0.614234       -16.7142
  40   2.0000      -0.602248       -16.3880
  41   2.0000      -0.568956       -15.4821
  42   2.0000      -0.557851       -15.1799
  43   2.0000      -0.555253       -15.1092
  44   2.0000      -0.532938       -14.5020
  45   2.0000      -0.530842       -14.4449
  46   2.0000      -0.519402       -14.1337
  47   2.0000      -0.507874       -13.8200
  48   2.0000      -0.504771       -13.7355
  49   2.0000      -0.496242       -13.5034
  50   2.0000      -0.485194       -13.2028
  51   2.0000      -0.478617       -13.0238
  52   2.0000      -0.467198       -12.7131
  53   2.0000      -0.465314       -12.6618
  54   2.0000      -0.453556       -12.3419
  55   2.0000      -0.450482       -12.2582
  56   2.0000      -0.442947       -12.0532
  57   2.0000      -0.438255       -11.9255
  58   2.0000      -0.436072       -11.8661
  59   2.0000      -0.429434       -11.6855
  60   2.0000      -0.424824       -11.5600
  61   2.0000      -0.418710       -11.3937
  62   2.0000      -0.408714       -11.1217
  63   2.0000      -0.341787        -9.3005
  64   2.0000      -0.331723        -9.0266
  65   2.0000      -0.325940        -8.8693
  66   2.0000      -0.287200        -7.8151
  67   0.0000       0.028068         0.7638
  68   0.0000       0.067458         1.8356
  69   0.0000       0.110484         3.0064
  70   0.0000       0.125112         3.4045
  71   0.0000       0.131800         3.5865

MULLIKEN ATOMIC CHARGES
-----------------------
   0 S :    0.123396
   1 C :   -0.123831
   2 C :   -0.103883
   3 C :    0.028784
   4 C :   -0.172343
   5 H :    0.018148
   6 C :    0.118662
   7 H :   -0.006705
   8 H :    0.030287
   9 C :   -0.092232
  10 H :    0.032979
  11 H :    0.034901
  12 C :   -0.079375
  13 H :    0.046349
  14 H :    0.038744
  15 H :    0.040560
  16 S :    0.100975
  17 C :   -0.096500
  18 C :   -0.020252
  19 C :   -0.029194
  20 C :   -0.184696
  21 H :    0.012775
  22 C :    0.081105
  23 H :    0.050135
  24 H :    0.003068
  25 C :   -0.095125
  26 H :    0.045835
  27 H :    0.044608
  28 C :   -0.056302
  29 H :    0.038022
  30 H :    0.030727
  31 H :    0.030431
  32 H :    0.045117
  33 H :    0.064828
Sum of atomic charges:   -0.0000000

LOEWDIN ATOMIC CHARGES
----------------------
   0 S :    0.414936
   1 C :   -0.213373
   2 C :   -0.056874
   3 C :   -0.064592
   4 C :   -0.199956
   5 H :    0.031038
   6 C :   -0.029969
   7 H :    0.022766
   8 H :    0.030335
   9 C :   -0.043316
  10 H :    0.023386
  11 H :    0.029547
  12 C :   -0.075305
  13 H :    0.034150
  14 H :    0.027991
  15 H :    0.027073
  16 S :    0.386662
  17 C :   -0.178013
  18 C :   -0.069243
  19 C :   -0.048734
  20 C :   -0.189828
  21 H :    0.023292
  22 C :   -0.035065
  23 H :    0.046413
  24 H :    0.023474
  25 C :   -0.040699
  26 H :    0.029487
  27 H :    0.027096
  28 C :   -0.061583
  29 H :    0.025894
  30 H :    0.022788
  31 H :    0.023766
  32 H :    0.029755
  33 H :    0.026699

  Mayer bond orders larger than 0.100000
B(  0-S ,  1-C ) :   1.1264 B(  0-S ,  4-C ) :   1.1609 B(  1-C ,  2-C ) :   1.6202
B(  1-C , 32-H ) :   0.9653 B(  2-C ,  3-C ) :   1.2131 B(  2-C ,  6-C ) :   1.0277
B(  3-C ,  4-C ) :   1.5681 B(  3-C ,  5-H ) :   0.9924 B(  4-C , 20-C ) :   1.0655
B(  6-C ,  7-H ) :   0.9337 B(  6-C ,  8-H ) :   0.9324 B(  6-C ,  9-C ) :   1.0718
B(  9-C , 10-H ) :   0.9569 B(  9-C , 11-H ) :   0.9551 B(  9-C , 12-C ) :   1.0717
B( 12-C , 13-H ) :   0.9734 B( 12-C , 14-H ) :   0.9737 B( 12-C , 15-H ) :   0.9746
B( 16-S , 17-C ) :   1.1684 B( 16-S , 20-C ) :   1.1273 B( 17-C , 18-C ) :   1.5663
B( 17-C , 20-C ) :   0.1058 B( 17-C , 33-H ) :   0.9698 B( 18-C , 19-C ) :   1.2708
B( 18-C , 21-H ) :   0.9840 B( 19-C , 20-C ) :   1.5989 B( 19-C , 22-C ) :   1.0248
B( 22-C , 23-H ) :   0.9205 B( 22-C , 24-H ) :   0.9318 B( 22-C , 25-C ) :   1.0531
B( 25-C , 26-H ) :   0.9565 B( 25-C , 27-H ) :   0.9558 B( 25-C , 28-C ) :   1.0903
B( 28-C , 29-H ) :   0.9751 B( 28-C , 30-H ) :   0.9750 B( 28-C , 31-H ) :   0.9730

Dispersion correction           -0.013893271
FINAL SINGLE POINT ENERGY     -1339.881541370129

DIPOLE MOMENT
-------------
                                X             Y             Z
Electronic contribution:     27.29478      13.20120       4.17206
Nuclear contribution   :    -27.90056     -13.42456      -4.36580
                        -----------------------------------------
Total Dipole Moment    :     -0.60578      -0.22336      -0.19374
                        -----------------------------------------
Magnitude (a.u.)       :      0.67409
Magnitude (Debye)      :      1.71340

Rotational constants in cm-1:     0.016217     0.009575     0.006508
Rotational constants in MHz :   486.187669   287.041993   195.119045

                             ****ORCA TERMINATED NORMALLY****
TOTAL RUN TIME: 0 days 0 hours 0 minutes 27 seconds 852 msec
