                         Program Version 4.2.1 -  RELEASE  -
|  1> ! wB97X-D3 SP def2-SVP
|  2> %pal
|  3> nprocs 16
|  4> end
|  5>
|  6> * xyz 0 1
|  7> S 	 68.2853 	 20.3223 	 70.5011
|  8> C 	 67.2648 	 19.0205 	 70.9866
|  9> C 	 66.5636 	 19.3578 	 72.1522
| 10> C 	 67.0263 	 20.5673 	 72.7154
| 11> C 	 68.0142 	 21.2073 	 72.0399
| 12> H 	 66.7259 	 20.9765 	 73.6318
| 13> C 	 65.6191 	 18.362 	 72.9295
| 14> H 	 64.5948 	 18.5399 	 72.6884
| 15> H 	 65.6887 	 18.4805 	 74.0193
| 16> C 	 65.9099 	 16.8824 	 72.4784
| 17> H 	 65.8254 	 16.8354 	 71.4275
| 18> H 	 66.9726 	 16.7217 	 72.7551
| 19> C 	 65.0074 	 15.8106 	 72.9399
| 20> H 	 65.0239 	 15.6332 	 74.0169
| 21> H 	 64.0335 	 15.8517 	 72.5465
| 22> H 	 65.4788 	 14.836 	 72.6312
| 23> S 	 68.1593 	 23.2985 	 73.9261
| 24> C 	 68.9949 	 24.7234 	 73.4708
| 25> C 	 69.5478 	 24.6216 	 72.2173
| 26> C 	 69.2679 	 23.4304 	 71.5165
| 27> C 	 68.5543 	 22.5616 	 72.3098
| 28> H 	 70.1252 	 25.5189 	 71.9032
| 29> C 	 69.841 	 23.2017 	 70.1065
| 30> H 	 68.9576 	 22.8778 	 69.546
| 31> H 	 70.583 	 22.3565 	 70.1399
| 32> C 	 70.4464 	 24.427 	 69.3922
| 33> H 	 71.4505 	 24.7781 	 69.8523
| 34> H 	 69.6296 	 25.1552 	 69.4446
| 35> C 	 70.6429 	 24.0539 	 67.9458
| 36> H 	 71.3159 	 24.844 	 67.617
| 37> H 	 69.7247 	 24.0893 	 67.3
| 38> H 	 71.2476 	 23.121 	 67.9105
| 39> H 	 67.0097 	 18.158 	 70.3914
| 40> H 	 68.9764 	 25.6346 	 74.09
| 41> *
| 42>
| 43>                          ****END OF INPUT****

CARTESIAN COORDINATES (ANGSTROEM)
---------------------------------
  S     68.285300   20.322300   70.501100
  C     67.264800   19.020500   70.986600
  C     66.563600   19.357800   72.152200
  C     67.026300   20.567300   72.715400
  C     68.014200   21.207300   72.039900
  H     66.725900   20.976500   73.631800
  C     65.619100   18.362000   72.929500
  H     64.594800   18.539900   72.688400
  H     65.688700   18.480500   74.019300
  C     65.909900   16.882400   72.478400
  H     65.825400   16.835400   71.427500
  H     66.972600   16.721700   72.755100
  C     65.007400   15.810600   72.939900
  H     65.023900   15.633200   74.016900
  H     64.033500   15.851700   72.546500
  H     65.478800   14.836000   72.631200
  S     68.159300   23.298500   73.926100
  C     68.994900   24.723400   73.470800
  C     69.547800   24.621600   72.217300
  C     69.267900   23.430400   71.516500
  C     68.554300   22.561600   72.309800
  H     70.125200   25.518900   71.903200
  C     69.841000   23.201700   70.106500
  H     68.957600   22.877800   69.546000
  H     70.583000   22.356500   70.139900
  C     70.446400   24.427000   69.392200
  H     71.450500   24.778100   69.852300
  H     69.629600   25.155200   69.444600
  C     70.642900   24.053900   67.945800
  H     71.315900   24.844000   67.617000
  H     69.724700   24.089300   67.300000
  H     71.247600   23.121000   67.910500
  H     67.009700   18.158000   70.391400
  H     68.976400   25.634600   74.090000

 Total Charge           Charge          ....    0
 Multiplicity           Mult            ....    1
 Number of Electrons    NEL             ....  134
 Basis Dimension        Dim             ....  322

ORBITAL ENERGIES
----------------

  NO   OCC          E(Eh)            E(eV)
   0   2.0000     -88.966301     -2420.8961
   1   2.0000     -88.965625     -2420.8777
   2   2.0000     -10.332867      -281.1716
   3   2.0000     -10.330915      -281.1185
   4   2.0000     -10.314632      -280.6754
   5   2.0000     -10.312117      -280.6070
   6   2.0000     -10.303233      -280.3652
   7   2.0000     -10.303063      -280.3606
   8   2.0000     -10.297785      -280.2170
   9   2.0000     -10.295581      -280.1570
  10   2.0000     -10.294691      -280.1328
  11   2.0000     -10.290790      -280.0266
  12   2.0000     -10.284196      -279.8472
  13   2.0000     -10.282951      -279.8133
  14   2.0000     -10.282167      -279.7920
  15   2.0000     -10.275235      -279.6034
  16   2.0000      -8.079997      -219.8679
  17   2.0000      -8.079969      -219.8671
  18   2.0000      -6.038596      -164.3186
  19   2.0000      -6.038543      -164.3171
  20   2.0000      -6.034639      -164.2109
  21   2.0000      -6.034631      -164.2107
  22   2.0000      -6.030747      -164.1050
  23   2.0000      -6.030627      -164.1017
  24   2.0000      -1.004091       -27.3227
  25   2.0000      -0.984290       -26.7839
  26   2.0000      -0.913804       -24.8659
  27   2.0000      -0.908418       -24.7193
  28   2.0000      -0.868009       -23.6197
  29   2.0000      -0.858306       -23.3557
  30   2.0000      -0.847678       -23.0665
  31   2.0000      -0.811459       -22.0809
  32   2.0000      -0.781753       -21.2726
  33   2.0000      -0.769620       -20.9424
  34   2.0000      -0.708766       -19.2865
  35   2.0000      -0.693426       -18.8691
  36   2.0000      -0.689363       -18.7585
  37   2.0000      -0.657013       -17.8782
  38   2.0000      -0.631449       -17.1826
  39   2.0000      -0.612101       -16.6561
  40   2.0000      -0.597696       -16.2641
  41   2.0000      -0.580402       -15.7935
  42   2.0000      -0.576506       -15.6875
  43   2.0000      -0.563436       -15.3319
  44   2.0000      -0.526957       -14.3392
  45   2.0000      -0.518475       -14.1084
  46   2.0000      -0.517202       -14.0738
  47   2.0000      -0.509995       -13.8777
  48   2.0000      -0.506082       -13.7712
  49   2.0000      -0.504000       -13.7145
  50   2.0000      -0.485892       -13.2218
  51   2.0000      -0.478304       -13.0153
  52   2.0000      -0.476459       -12.9651
  53   2.0000      -0.468047       -12.7362
  54   2.0000      -0.459964       -12.5162
  55   2.0000      -0.450033       -12.2460
  56   2.0000      -0.441920       -12.0252
  57   2.0000      -0.434593       -11.8259
  58   2.0000      -0.427557       -11.6344
  59   2.0000      -0.426099       -11.5947
  60   2.0000      -0.417717       -11.3667
  61   2.0000      -0.409843       -11.1524
  62   2.0000      -0.406423       -11.0593
  63   2.0000      -0.364175        -9.9097
  64   2.0000      -0.335075        -9.1179
  65   2.0000      -0.329027        -8.9533
  66   2.0000      -0.279203        -7.5975
  67   0.0000       0.022477         0.6116
  68   0.0000       0.085331         2.3220
  69   0.0000       0.104603         2.8464
  70   0.0000       0.120779         3.2866
  71   0.0000       0.135451         3.6858

MULLIKEN ATOMIC CHARGES
-----------------------
   0 S :    0.083475
   1 C :   -0.109805
   2 C :   -0.074723
   3 C :   -0.012529
   4 C :   -0.092832
   5 H :   -0.008822
   6 C :    0.086194
   7 H :    0.019962
   8 H :    0.034420
   9 C :   -0.129822
  10 H :    0.022501
  11 H :    0.042453
  12 C :   -0.013327
  13 H :    0.024134
  14 H :    0.030826
  15 H :    0.026233
  16 S :    0.082042
  17 C :   -0.092090
  18 C :   -0.066992
  19 C :   -0.047238
  20 C :   -0.126375
  21 H :    0.032465
  22 C :    0.014542
  23 H :    0.039947
  24 H :    0.054875
  25 C :   -0.112972
  26 H :    0.056372
  27 H :    0.035988
  28 C :   -0.031602
  29 H :    0.025160
  30 H :    0.055731
  31 H :    0.036795
  32 H :    0.049002
  33 H :    0.066012
Sum of atomic charges:   -0.0000000

LOEWDIN ATOMIC CHARGES
----------------------
   0 S :    0.404443
   1 C :   -0.209707
   2 C :   -0.058470
   3 C :   -0.069981
   4 C :   -0.167741
   5 H :    0.016126
   6 C :   -0.023868
   7 H :    0.024245
   8 H :    0.029919
   9 C :   -0.045257
  10 H :    0.017130
  11 H :    0.030166
  12 C :   -0.064915
  13 H :    0.024169
  14 H :    0.019334
  15 H :    0.037016
  16 S :    0.388907
  17 C :   -0.196832
  18 C :   -0.084383
  19 C :   -0.063448
  20 C :   -0.167175
  21 H :    0.038655
  22 C :   -0.042456
  23 H :    0.029319
  24 H :    0.034775
  25 C :   -0.049447
  26 H :    0.035927
  27 H :    0.028126
  28 C :   -0.069333
  29 H :    0.026738
  30 H :    0.034881
  31 H :    0.029891
  32 H :    0.027930
  33 H :    0.035317

  Mayer bond orders larger than 0.100000
B(  0-S ,  1-C ) :   1.1411 B(  0-S ,  4-C ) :   1.1261 B(  1-C ,  2-C ) :   1.6022
B(  1-C , 32-H ) :   0.9615 B(  2-C ,  3-C ) :   1.2681 B(  2-C ,  6-C ) :   1.0033
B(  3-C ,  4-C ) :   1.5748 B(  3-C ,  5-H ) :   0.9965 B(  4-C , 20-C ) :   1.0841
B(  6-C ,  7-H ) :   0.9297 B(  6-C ,  8-H ) :   0.9567 B(  6-C ,  9-C ) :   1.0770
B(  9-C , 10-H ) :   0.9456 B(  9-C , 11-H ) :   0.9579 B(  9-C , 12-C ) :   1.1002
B( 12-C , 13-H ) :   0.9700 B( 12-C , 14-H ) :   0.9719 B( 12-C , 15-H ) :   0.9645
B( 16-S , 17-C ) :   1.1545 B( 16-S , 20-C ) :   1.1255 B( 17-C , 18-C ) :   1.6175
B( 17-C , 33-H ) :   0.9588 B( 18-C , 19-C ) :   1.2414 B( 18-C , 21-H ) :   0.9813
B( 19-C , 20-C ) :   1.6075 B( 19-C , 22-C ) :   1.0026 B( 22-C , 23-H ) :   0.9284
B( 22-C , 24-H ) :   0.9321 B( 22-C , 25-C ) :   1.0915 B( 25-C , 26-H ) :   0.9466
B( 25-C , 27-H ) :   0.9480 B( 25-C , 28-C ) :   1.0880 B( 28-C , 29-H ) :   0.9708
B( 28-C , 30-H ) :   0.9718 B( 28-C , 31-H ) :   0.9688

Dispersion correction           -0.013020919
FINAL SINGLE POINT ENERGY     -1339.870218079476

DIPOLE MOMENT
-------------
                                X             Y             Z
Electronic contribution:      2.00493      10.12858       9.15092
Nuclear contribution   :     -2.09001     -10.07783      -9.32193
                        -----------------------------------------
Total Dipole Moment    :     -0.08508       0.05075      -0.17102
                        -----------------------------------------
Magnitude (a.u.)       :      0.19764
Magnitude (Debye)      :      0.50235

Rotational constants in cm-1:     0.024208     0.006829     0.005391
Rotational constants in MHz :   725.746055   204.724560   161.603655

                             ****ORCA TERMINATED NORMALLY****
TOTAL RUN TIME: 0 days 0 hours 0 minutes 29 seconds 900 msec
