                         Program Version 4.2.1 -  RELEASE  -
|  1> ! wB97X-D3 SP def2-SVP
|  2> %pal
|  3> nprocs 16
|  4> end
|  5>
|  6> * xyz 0 1
|  7> S 	 -5.68075 	 59.635 	 56.8753
|  8> C 	 -5.33743 	 60.5011 	 58.4753
|  9> C 	 -6.53131 	 60.9872 	 59.0355
| 10> C 	 -7.63898 	 60.8767 	 58.1324
| 11> C 	 -7.34523 	 60.2517 	 56.9598
| 12> H 	 -8.64788 	 61.0552 	 58.3881
| 13> C 	 -6.5736 	 61.4816 	 60.4643
| 14> H 	 -7.58108 	 61.3685 	 60.9364
| 15> H 	 -6.46064 	 62.6155 	 60.2808
| 16> C 	 -5.43609 	 60.9978 	 61.4711
| 17> H 	 -5.36832 	 59.885 	 61.455
| 18> H 	 -4.44771 	 61.3575 	 61.3123
| 19> C 	 -5.8113 	 61.5063 	 62.8706
| 20> H 	 -5.45485 	 60.7725 	 63.6168
| 21> H 	 -5.39414 	 62.5116 	 63.0416
| 22> H 	 -6.94359 	 61.4944 	 62.9988
| 23> S 	 -8.53555 	 58.4754 	 55.162
| 24> C 	 -9.62675 	 59.1388 	 54.0061
| 25> C 	 -9.85272 	 60.4494 	 54.1619
| 26> C 	 -8.99819 	 61.005 	 55.1602
| 27> C 	 -8.26207 	 60.0578 	 55.8407
| 28> H 	 -10.6129 	 60.9242 	 53.4606
| 29> C 	 -8.96381 	 62.5128 	 55.449
| 30> H 	 -9.34684 	 62.7792 	 56.4087
| 31> H 	 -9.6747 	 62.8802 	 54.6898
| 32> C 	 -7.56973 	 63.1641 	 55.2588
| 33> H 	 -7.20863 	 62.8675 	 54.2834
| 34> H 	 -6.906 	 62.8339 	 56.0806
| 35> C 	 -7.67484 	 64.6551 	 55.1454
| 36> H 	 -8.30849 	 64.9757 	 54.3444
| 37> H 	 -6.62941 	 64.9938 	 54.7993
| 38> H 	 -8.01737 	 65.0988 	 56.0497
| 39> H 	 -4.41201 	 60.4517 	 58.8998
| 40> H 	 -9.96884 	 58.6243 	 53.1057
| 41> *
| 42>
| 43>                          ****END OF INPUT****

CARTESIAN COORDINATES (ANGSTROEM)
---------------------------------
  S     -5.680750   59.635000   56.875300
  C     -5.337430   60.501100   58.475300
  C     -6.531310   60.987200   59.035500
  C     -7.638980   60.876700   58.132400
  C     -7.345230   60.251700   56.959800
  H     -8.647880   61.055200   58.388100
  C     -6.573600   61.481600   60.464300
  H     -7.581080   61.368500   60.936400
  H     -6.460640   62.615500   60.280800
  C     -5.436090   60.997800   61.471100
  H     -5.368320   59.885000   61.455000
  H     -4.447710   61.357500   61.312300
  C     -5.811300   61.506300   62.870600
  H     -5.454850   60.772500   63.616800
  H     -5.394140   62.511600   63.041600
  H     -6.943590   61.494400   62.998800
  S     -8.535550   58.475400   55.162000
  C     -9.626750   59.138800   54.006100
  C     -9.852720   60.449400   54.161900
  C     -8.998190   61.005000   55.160200
  C     -8.262070   60.057800   55.840700
  H    -10.612900   60.924200   53.460600
  C     -8.963810   62.512800   55.449000
  H     -9.346840   62.779200   56.408700
  H     -9.674700   62.880200   54.689800
  C     -7.569730   63.164100   55.258800
  H     -7.208630   62.867500   54.283400
  H     -6.906000   62.833900   56.080600
  C     -7.674840   64.655100   55.145400
  H     -8.308490   64.975700   54.344400
  H     -6.629410   64.993800   54.799300
  H     -8.017370   65.098800   56.049700
  H     -4.412010   60.451700   58.899800
  H     -9.968840   58.624300   53.105700

 Total Charge           Charge          ....    0
 Multiplicity           Mult            ....    1
 Number of Electrons    NEL             ....  134
 Basis Dimension        Dim             ....  322

ORBITAL ENERGIES
----------------

  NO   OCC          E(Eh)            E(eV)
   0   2.0000     -88.963836     -2420.8291
   1   2.0000     -88.962937     -2420.8046
   2   2.0000     -10.330474      -281.1065
   3   2.0000     -10.320107      -280.8244
   4   2.0000     -10.315245      -280.6921
   5   2.0000     -10.309545      -280.5370
   6   2.0000     -10.309254      -280.5291
   7   2.0000     -10.309014      -280.5225
   8   2.0000     -10.300028      -280.2780
   9   2.0000     -10.295907      -280.1659
  10   2.0000     -10.292982      -280.0863
  11   2.0000     -10.291899      -280.0568
  12   2.0000     -10.287937      -279.9490
  13   2.0000     -10.285736      -279.8891
  14   2.0000     -10.277122      -279.6547
  15   2.0000     -10.272127      -279.5188
  16   2.0000      -8.078497      -219.8271
  17   2.0000      -8.076915      -219.7840
  18   2.0000      -6.036917      -164.2729
  19   2.0000      -6.035523      -164.2349
  20   2.0000      -6.032933      -164.1644
  21   2.0000      -6.031890      -164.1361
  22   2.0000      -6.029273      -164.0649
  23   2.0000      -6.027442      -164.0150
  24   2.0000      -1.007221       -27.4079
  25   2.0000      -0.978080       -26.6149
  26   2.0000      -0.907893       -24.7050
  27   2.0000      -0.905553       -24.6413
  28   2.0000      -0.868375       -23.6297
  29   2.0000      -0.851647       -23.1745
  30   2.0000      -0.844527       -22.9808
  31   2.0000      -0.817355       -22.2414
  32   2.0000      -0.777137       -21.1470
  33   2.0000      -0.763727       -20.7821
  34   2.0000      -0.712069       -19.3764
  35   2.0000      -0.699842       -19.0437
  36   2.0000      -0.684293       -18.6206
  37   2.0000      -0.654751       -17.8167
  38   2.0000      -0.643695       -17.5158
  39   2.0000      -0.616614       -16.7789
  40   2.0000      -0.594268       -16.1709
  41   2.0000      -0.572384       -15.5754
  42   2.0000      -0.565805       -15.3963
  43   2.0000      -0.561528       -15.2799
  44   2.0000      -0.527575       -14.3561
  45   2.0000      -0.521560       -14.1924
  46   2.0000      -0.517087       -14.0707
  47   2.0000      -0.509192       -13.8558
  48   2.0000      -0.501489       -13.6462
  49   2.0000      -0.497321       -13.5328
  50   2.0000      -0.489430       -13.3181
  51   2.0000      -0.476694       -12.9715
  52   2.0000      -0.474061       -12.8999
  53   2.0000      -0.460053       -12.5187
  54   2.0000      -0.452405       -12.3106
  55   2.0000      -0.449378       -12.2282
  56   2.0000      -0.446823       -12.1587
  57   2.0000      -0.436708       -11.8834
  58   2.0000      -0.426093       -11.5946
  59   2.0000      -0.423614       -11.5271
  60   2.0000      -0.422872       -11.5069
  61   2.0000      -0.414853       -11.2887
  62   2.0000      -0.409651       -11.1472
  63   2.0000      -0.341702        -9.2982
  64   2.0000      -0.330473        -8.9926
  65   2.0000      -0.328496        -8.9388
  66   2.0000      -0.292766        -7.9666
  67   0.0000       0.028414         0.7732
  68   0.0000       0.069723         1.8972
  69   0.0000       0.100781         2.7424
  70   0.0000       0.125710         3.4208
  71   0.0000       0.132872         3.6156

MULLIKEN ATOMIC CHARGES
-----------------------
   0 S :    0.087271
   1 C :   -0.105742
   2 C :   -0.051479
   3 C :    0.033254
   4 C :   -0.145391
   5 H :    0.003927
   6 C :   -0.003274
   7 H :    0.040049
   8 H :    0.058684
   9 C :   -0.077904
  10 H :    0.045603
  11 H :    0.032443
  12 C :   -0.073870
  13 H :    0.039249
  14 H :    0.048749
  15 H :    0.034449
  16 S :    0.111897
  17 C :   -0.094436
  18 C :   -0.063233
  19 C :   -0.043499
  20 C :   -0.154946
  21 H :    0.045605
  22 C :    0.080786
  23 H :    0.020512
  24 H :    0.005798
  25 C :   -0.080394
  26 H :    0.020612
  27 H :    0.061492
  28 C :   -0.030152
  29 H :    0.017946
  30 H :    0.038403
  31 H :    0.023557
  32 H :    0.016106
  33 H :    0.057929
Sum of atomic charges:   -0.0000000

LOEWDIN ATOMIC CHARGES
----------------------
   0 S :    0.348537
   1 C :   -0.156884
   2 C :   -0.053558
   3 C :   -0.062926
   4 C :   -0.171250
   5 H :    0.028538
   6 C :   -0.041979
   7 H :    0.034503
   8 H :    0.049443
   9 C :   -0.043008
  10 H :    0.028983
  11 H :    0.021016
  12 C :   -0.069418
  13 H :    0.029940
  14 H :    0.028450
  15 H :    0.028625
  16 S :    0.411756
  17 C :   -0.193909
  18 C :   -0.086459
  19 C :   -0.054314
  20 C :   -0.207734
  21 H :    0.047639
  22 C :   -0.029200
  23 H :    0.021271
  24 H :    0.028180
  25 C :   -0.038825
  26 H :    0.023753
  27 H :    0.032321
  28 C :   -0.062477
  29 H :    0.018970
  30 H :    0.036755
  31 H :    0.016424
  32 H :    0.003254
  33 H :    0.033583

  Mayer bond orders larger than 0.100000
B(  0-S ,  1-C ) :   1.1020 B(  0-S ,  4-C ) :   1.1338 B(  1-C ,  2-C ) :   1.6265
B(  1-C ,  4-C ) :   0.1006 B(  1-C , 32-H ) :   0.9806 B(  2-C ,  3-C ) :   1.2020
B(  2-C ,  6-C ) :   1.0108 B(  3-C ,  4-C ) :   1.6104 B(  3-C ,  5-H ) :   1.0020
B(  4-C , 20-C ) :   1.0381 B(  6-C ,  7-H ) :   0.9515 B(  6-C ,  8-H ) :   0.9293
B(  6-C ,  9-C ) :   1.0596 B(  9-C , 10-H ) :   0.9631 B(  9-C , 11-H ) :   0.9509
B(  9-C , 12-C ) :   1.0754 B( 12-C , 13-H ) :   0.9741 B( 12-C , 14-H ) :   0.9788
B( 12-C , 15-H ) :   0.9762 B( 16-S , 17-C ) :   1.1572 B( 16-S , 20-C ) :   1.1326
B( 17-C , 18-C ) :   1.6450 B( 17-C , 33-H ) :   0.9562 B( 18-C , 19-C ) :   1.2398
B( 18-C , 21-H ) :   0.9768 B( 19-C , 20-C ) :   1.6047 B( 19-C , 22-C ) :   1.0337
B( 22-C , 23-H ) :   0.9321 B( 22-C , 24-H ) :   0.9342 B( 22-C , 25-C ) :   1.0663
B( 25-C , 26-H ) :   0.9548 B( 25-C , 27-H ) :   0.9504 B( 25-C , 28-C ) :   1.0975
B( 28-C , 29-H ) :   0.9720 B( 28-C , 30-H ) :   0.9739 B( 28-C , 31-H ) :   0.9727

Dispersion correction           -0.014311033
FINAL SINGLE POINT ENERGY     -1339.866154877268

DIPOLE MOMENT
-------------
                                X             Y             Z
Electronic contribution:     -2.10648     -22.08978     -16.15880
Nuclear contribution   :      1.93889      22.56327      16.50880
                        -----------------------------------------
Total Dipole Moment    :     -0.16759       0.47350       0.35000
                        -----------------------------------------
Magnitude (a.u.)       :      0.61220
Magnitude (Debye)      :      1.55608

Rotational constants in cm-1:     0.020508     0.007779     0.006490
Rotational constants in MHz :   614.824676   233.206517   194.578223

                             ****ORCA TERMINATED NORMALLY****
TOTAL RUN TIME: 0 days 0 hours 0 minutes 33 seconds 987 msec
