                         Program Version 4.2.1 -  RELEASE  -
|  1> ! wB97X-D3 SP def2-SVP
|  2> %pal
|  3> nprocs 16
|  4> end
|  5>
|  6> * xyz 0 1
|  7> S 	 67.6215 	 16.1143 	 73.3536
|  8> C 	 66.9533 	 14.9223 	 72.2343
|  9> C 	 65.615 	 15.0733 	 72.0963
| 10> C 	 64.9752 	 15.9518 	 73.0939
| 11> C 	 65.9442 	 16.4272 	 73.9928
| 12> H 	 63.9702 	 16.2392 	 73.2249
| 13> C 	 64.8106 	 14.3347 	 71.0205
| 14> H 	 65.6048 	 13.8433 	 70.4058
| 15> H 	 64.3566 	 14.9385 	 70.2138
| 16> C 	 63.7823 	 13.188 	 71.3649
| 17> H 	 62.8237 	 13.5142 	 71.7351
| 18> H 	 63.3797 	 12.8136 	 70.4109
| 19> C 	 64.3915 	 12.0494 	 72.1454
| 20> H 	 65.2987 	 11.5661 	 71.6843
| 21> H 	 64.6837 	 12.5105 	 73.1501
| 22> H 	 63.7755 	 11.1097 	 72.2785
| 23> S 	 65.0489 	 18.9631 	 74.428
| 24> C 	 65.1123 	 19.6382 	 76.0645
| 25> C 	 65.5124 	 18.7141 	 76.992
| 26> C 	 66.0208 	 17.4886 	 76.3721
| 27> C 	 65.7659 	 17.4294 	 75.0134
| 28> H 	 65.5233 	 19.077 	 78.0336
| 29> C 	 66.6966 	 16.3696 	 77.1742
| 30> H 	 66.8257 	 15.509 	 76.5453
| 31> H 	 66.0227 	 16.0077 	 77.9742
| 32> C 	 68.1432 	 16.6098 	 77.6239
| 33> H 	 68.4178 	 15.7869 	 78.2808
| 34> H 	 68.2334 	 17.554 	 78.2137
| 35> C 	 69.1492 	 16.6291 	 76.3976
| 36> H 	 68.8304 	 17.4465 	 75.7076
| 37> H 	 69.1858 	 15.7035 	 75.7565
| 38> H 	 70.116 	 16.9194 	 76.7506
| 39> H 	 67.5638 	 14.2282 	 71.7265
| 40> H 	 64.7345 	 20.5944 	 76.3665
| 41> *
| 42>
| 43>                          ****END OF INPUT****

CARTESIAN COORDINATES (ANGSTROEM)
---------------------------------
  S     67.621500   16.114300   73.353600
  C     66.953300   14.922300   72.234300
  C     65.615000   15.073300   72.096300
  C     64.975200   15.951800   73.093900
  C     65.944200   16.427200   73.992800
  H     63.970200   16.239200   73.224900
  C     64.810600   14.334700   71.020500
  H     65.604800   13.843300   70.405800
  H     64.356600   14.938500   70.213800
  C     63.782300   13.188000   71.364900
  H     62.823700   13.514200   71.735100
  H     63.379700   12.813600   70.410900
  C     64.391500   12.049400   72.145400
  H     65.298700   11.566100   71.684300
  H     64.683700   12.510500   73.150100
  H     63.775500   11.109700   72.278500
  S     65.048900   18.963100   74.428000
  C     65.112300   19.638200   76.064500
  C     65.512400   18.714100   76.992000
  C     66.020800   17.488600   76.372100
  C     65.765900   17.429400   75.013400
  H     65.523300   19.077000   78.033600
  C     66.696600   16.369600   77.174200
  H     66.825700   15.509000   76.545300
  H     66.022700   16.007700   77.974200
  C     68.143200   16.609800   77.623900
  H     68.417800   15.786900   78.280800
  H     68.233400   17.554000   78.213700
  C     69.149200   16.629100   76.397600
  H     68.830400   17.446500   75.707600
  H     69.185800   15.703500   75.756500
  H     70.116000   16.919400   76.750600
  H     67.563800   14.228200   71.726500
  H     64.734500   20.594400   76.366500

 Total Charge           Charge          ....    0
 Multiplicity           Mult            ....    1
 Number of Electrons    NEL             ....  134
 Basis Dimension        Dim             ....  322

ORBITAL ENERGIES
----------------

  NO   OCC          E(Eh)            E(eV)
   0   2.0000     -88.963830     -2420.8289
   1   2.0000     -88.963804     -2420.8282
   2   2.0000     -10.336696      -281.2758
   3   2.0000     -10.327963      -281.0382
   4   2.0000     -10.317913      -280.7647
   5   2.0000     -10.313655      -280.6488
   6   2.0000     -10.312596      -280.6200
   7   2.0000     -10.308971      -280.5214
   8   2.0000     -10.303268      -280.3662
   9   2.0000     -10.299510      -280.2639
  10   2.0000     -10.299497      -280.2636
  11   2.0000     -10.289922      -280.0030
  12   2.0000     -10.289365      -279.9879
  13   2.0000     -10.288890      -279.9749
  14   2.0000     -10.286351      -279.9058
  15   2.0000     -10.276711      -279.6435
  16   2.0000      -8.077753      -219.8068
  17   2.0000      -8.077278      -219.7939
  18   2.0000      -6.036414      -164.2592
  19   2.0000      -6.035922      -164.2458
  20   2.0000      -6.032444      -164.1511
  21   2.0000      -6.032254      -164.1460
  22   2.0000      -6.028304      -164.0385
  23   2.0000      -6.027647      -164.0206
  24   2.0000      -0.999021       -27.1847
  25   2.0000      -0.975774       -26.5522
  26   2.0000      -0.902608       -24.5612
  27   2.0000      -0.900574       -24.5059
  28   2.0000      -0.872452       -23.7406
  29   2.0000      -0.841656       -22.9026
  30   2.0000      -0.836840       -22.7716
  31   2.0000      -0.815718       -22.1968
  32   2.0000      -0.779051       -21.1991
  33   2.0000      -0.766684       -20.8625
  34   2.0000      -0.712168       -19.3791
  35   2.0000      -0.697011       -18.9666
  36   2.0000      -0.688523       -18.7357
  37   2.0000      -0.659156       -17.9366
  38   2.0000      -0.644414       -17.5354
  39   2.0000      -0.612426       -16.6650
  40   2.0000      -0.593483       -16.1495
  41   2.0000      -0.565767       -15.3953
  42   2.0000      -0.549022       -14.9396
  43   2.0000      -0.547262       -14.8918
  44   2.0000      -0.535531       -14.5725
  45   2.0000      -0.532963       -14.5026
  46   2.0000      -0.518227       -14.1017
  47   2.0000      -0.510701       -13.8969
  48   2.0000      -0.501179       -13.6378
  49   2.0000      -0.491654       -13.3786
  50   2.0000      -0.489370       -13.3164
  51   2.0000      -0.473336       -12.8801
  52   2.0000      -0.463588       -12.6149
  53   2.0000      -0.461325       -12.5533
  54   2.0000      -0.455139       -12.3850
  55   2.0000      -0.440316       -11.9816
  56   2.0000      -0.437933       -11.9168
  57   2.0000      -0.434430       -11.8215
  58   2.0000      -0.427632       -11.6365
  59   2.0000      -0.425057       -11.5664
  60   2.0000      -0.417815       -11.3693
  61   2.0000      -0.410245       -11.1633
  62   2.0000      -0.403145       -10.9701
  63   2.0000      -0.336119        -9.1463
  64   2.0000      -0.332972        -9.0606
  65   2.0000      -0.323908        -8.8140
  66   2.0000      -0.305510        -8.3133
  67   0.0000       0.027364         0.7446
  68   0.0000       0.058259         1.5853
  69   0.0000       0.091671         2.4945
  70   0.0000       0.111285         3.0282
  71   0.0000       0.127676         3.4742

MULLIKEN ATOMIC CHARGES
-----------------------
   0 S :    0.083541
   1 C :   -0.091980
   2 C :   -0.065229
   3 C :    0.051167
   4 C :   -0.135419
   5 H :    0.010004
   6 C :    0.028986
   7 H :    0.010267
   8 H :    0.043585
   9 C :   -0.034577
  10 H :    0.020507
  11 H :    0.012024
  12 C :   -0.103542
  13 H :    0.030410
  14 H :    0.056622
  15 H :    0.043589
  16 S :    0.098298
  17 C :   -0.085002
  18 C :   -0.040717
  19 C :   -0.025440
  20 C :   -0.176131
  21 H :    0.034886
  22 C :    0.061463
  23 H :    0.013923
  24 H :    0.040021
  25 C :   -0.072463
  26 H :    0.033709
  27 H :    0.033826
  28 C :   -0.082774
  29 H :    0.039721
  30 H :    0.050954
  31 H :    0.028586
  32 H :    0.037469
  33 H :    0.049719
Sum of atomic charges:    0.0000000

LOEWDIN ATOMIC CHARGES
----------------------
   0 S :    0.379587
   1 C :   -0.173988
   2 C :   -0.062267
   3 C :   -0.044532
   4 C :   -0.166660
   5 H :    0.027453
   6 C :   -0.039780
   7 H :    0.032382
   8 H :    0.037620
   9 C :   -0.051107
  10 H :    0.020897
  11 H :    0.025321
  12 C :   -0.084773
  13 H :    0.027105
  14 H :    0.036246
  15 H :    0.031973
  16 S :    0.376398
  17 C :   -0.170643
  18 C :   -0.074380
  19 C :   -0.044431
  20 C :   -0.196083
  21 H :    0.039672
  22 C :   -0.037909
  23 H :    0.027615
  24 H :    0.035721
  25 C :   -0.037762
  26 H :    0.024400
  27 H :    0.023662
  28 C :   -0.076134
  29 H :    0.023065
  30 H :    0.023865
  31 H :    0.020266
  32 H :    0.021041
  33 H :    0.026162

  Mayer bond orders larger than 0.100000
B(  0-S ,  1-C ) :   1.1137 B(  0-S ,  4-C ) :   1.1221 B(  1-C ,  2-C ) :   1.6571
B(  1-C , 32-H ) :   0.9718 B(  2-C ,  3-C ) :   1.1591 B(  2-C ,  6-C ) :   1.0249
B(  3-C ,  4-C ) :   1.5995 B(  3-C ,  5-H ) :   1.0104 B(  4-C , 20-C ) :   1.0645
B(  6-C ,  7-H ) :   0.9401 B(  6-C ,  8-H ) :   0.9433 B(  6-C ,  9-C ) :   1.0649
B(  9-C , 10-H ) :   0.9549 B(  9-C , 11-H ) :   0.9464 B(  9-C , 12-C ) :   1.0700
B( 12-C , 13-H ) :   0.9741 B( 12-C , 14-H ) :   0.9735 B( 12-C , 15-H ) :   0.9734
B( 16-S , 17-C ) :   1.1348 B( 16-S , 20-C ) :   1.1130 B( 17-C , 18-C ) :   1.6708
B( 17-C , 33-H ) :   0.9642 B( 18-C , 19-C ) :   1.1804 B( 18-C , 21-H ) :   0.9854
B( 19-C , 20-C ) :   1.6247 B( 19-C , 22-C ) :   1.0496 B( 22-C , 23-H ) :   0.9319
B( 22-C , 24-H ) :   0.9393 B( 22-C , 25-C ) :   1.0605 B( 25-C , 26-H ) :   0.9554
B( 25-C , 27-H ) :   0.9603 B( 25-C , 28-C ) :   1.0663 B( 28-C , 29-H ) :   0.9744
B( 28-C , 30-H ) :   0.9697 B( 28-C , 31-H ) :   0.9725

Dispersion correction           -0.015143412
FINAL SINGLE POINT ENERGY     -1339.863752688193

DIPOLE MOMENT
-------------
                                X             Y             Z
Electronic contribution:     -0.82886      18.15527      -1.49069
Nuclear contribution   :      0.61814     -18.38675       1.58992
                        -----------------------------------------
Total Dipole Moment    :     -0.21072      -0.23149       0.09923
                        -----------------------------------------
Magnitude (a.u.)       :      0.32838
Magnitude (Debye)      :      0.83467

Rotational constants in cm-1:     0.021155     0.008264     0.007123
Rotational constants in MHz :   634.198528   247.762385   213.534317

                             ****ORCA TERMINATED NORMALLY****
TOTAL RUN TIME: 0 days 0 hours 0 minutes 29 seconds 19 msec
