                         Program Version 4.2.1 -  RELEASE  -
|  1> ! wB97X-D3 SP def2-SVP
|  2> %pal
|  3> nprocs 16
|  4> end
|  5>
|  6> * xyz 0 1
|  7> S 	 17.8671 	 -7.22012 	 80.7084
|  8> C 	 17.1932 	 -7.87663 	 79.2149
|  9> C 	 16.1528 	 -8.77235 	 79.4696
| 10> C 	 16.142 	 -9.06652 	 80.8618
| 11> C 	 16.8323 	 -8.18449 	 81.6816
| 12> H 	 15.4655 	 -9.78928 	 81.3413
| 13> C 	 15.33 	 -9.49856 	 78.4623
| 14> H 	 14.9228 	 -8.99283 	 77.6073
| 15> H 	 14.5089 	 -9.98537 	 79.0443
| 16> C 	 15.9281 	 -10.8016 	 77.85
| 17> H 	 16.8689 	 -10.4807 	 77.5336
| 18> H 	 16.1411 	 -11.6519 	 78.5454
| 19> C 	 15.0824 	 -11.2778 	 76.6639
| 20> H 	 14.0871 	 -11.6804 	 76.8333
| 21> H 	 14.9283 	 -10.5079 	 75.9157
| 22> H 	 15.6335 	 -12.1186 	 76.1932
| 23> S 	 15.4314 	 -7.12656 	 83.8633
| 24> C 	 15.9421 	 -7.44872 	 85.5257
| 25> C 	 17.0008 	 -8.32388 	 85.4643
| 26> C 	 17.5001 	 -8.7225 	 84.1777
| 27> C 	 16.754 	 -8.10999 	 83.1607
| 28> H 	 17.3215 	 -8.72043 	 86.3835
| 29> C 	 18.7543 	 -9.58388 	 84.0817
| 30> H 	 19.3462 	 -9.34636 	 84.9749
| 31> H 	 19.3845 	 -9.19204 	 83.302
| 32> C 	 18.4981 	 -11.1214 	 84.0286
| 33> H 	 17.9167 	 -11.3627 	 83.1863
| 34> H 	 17.8729 	 -11.4928 	 84.8221
| 35> C 	 19.7695 	 -11.9442 	 84.0565
| 36> H 	 20.4065 	 -11.3356 	 83.4922
| 37> H 	 19.5956 	 -12.8514 	 83.4999
| 38> H 	 20.0023 	 -12.0053 	 85.1047
| 39> H 	 17.6924 	 -7.68357 	 78.2699
| 40> H 	 15.331 	 -7.25386 	 86.42
| 41> *
| 42>
| 43>                          ****END OF INPUT****

CARTESIAN COORDINATES (ANGSTROEM)
---------------------------------
  S     17.867100   -7.220120   80.708400
  C     17.193200   -7.876630   79.214900
  C     16.152800   -8.772350   79.469600
  C     16.142000   -9.066520   80.861800
  C     16.832300   -8.184490   81.681600
  H     15.465500   -9.789280   81.341300
  C     15.330000   -9.498560   78.462300
  H     14.922800   -8.992830   77.607300
  H     14.508900   -9.985370   79.044300
  C     15.928100  -10.801600   77.850000
  H     16.868900  -10.480700   77.533600
  H     16.141100  -11.651900   78.545400
  C     15.082400  -11.277800   76.663900
  H     14.087100  -11.680400   76.833300
  H     14.928300  -10.507900   75.915700
  H     15.633500  -12.118600   76.193200
  S     15.431400   -7.126560   83.863300
  C     15.942100   -7.448720   85.525700
  C     17.000800   -8.323880   85.464300
  C     17.500100   -8.722500   84.177700
  C     16.754000   -8.109990   83.160700
  H     17.321500   -8.720430   86.383500
  C     18.754300   -9.583880   84.081700
  H     19.346200   -9.346360   84.974900
  H     19.384500   -9.192040   83.302000
  C     18.498100  -11.121400   84.028600
  H     17.916700  -11.362700   83.186300
  H     17.872900  -11.492800   84.822100
  C     19.769500  -11.944200   84.056500
  H     20.406500  -11.335600   83.492200
  H     19.595600  -12.851400   83.499900
  H     20.002300  -12.005300   85.104700
  H     17.692400   -7.683570   78.269900
  H     15.331000   -7.253860   86.420000

 Total Charge           Charge          ....    0
 Multiplicity           Mult            ....    1
 Number of Electrons    NEL             ....  134
 Basis Dimension        Dim             ....  322

ORBITAL ENERGIES
----------------

  NO   OCC          E(Eh)            E(eV)
   0   2.0000     -88.965869     -2420.8844
   1   2.0000     -88.961979     -2420.7785
   2   2.0000     -10.333970      -281.2016
   3   2.0000     -10.328428      -281.0508
   4   2.0000     -10.319665      -280.8124
   5   2.0000     -10.318338      -280.7763
   6   2.0000     -10.308170      -280.4996
   7   2.0000     -10.305382      -280.4237
   8   2.0000     -10.295498      -280.1547
   9   2.0000     -10.294427      -280.1256
  10   2.0000     -10.293001      -280.0868
  11   2.0000     -10.288959      -279.9768
  12   2.0000     -10.287287      -279.9313
  13   2.0000     -10.281670      -279.7785
  14   2.0000     -10.276698      -279.6432
  15   2.0000     -10.268039      -279.4075
  16   2.0000      -8.080902      -219.8925
  17   2.0000      -8.075849      -219.7550
  18   2.0000      -6.039282      -164.3372
  19   2.0000      -6.035232      -164.2270
  20   2.0000      -6.034489      -164.2068
  21   2.0000      -6.031910      -164.1366
  22   2.0000      -6.030366      -164.0946
  23   2.0000      -6.026618      -163.9926
  24   2.0000      -1.003538       -27.3076
  25   2.0000      -0.980771       -26.6881
  26   2.0000      -0.914824       -24.8936
  27   2.0000      -0.909665       -24.7532
  28   2.0000      -0.866876       -23.5889
  29   2.0000      -0.852604       -23.2005
  30   2.0000      -0.848784       -23.0966
  31   2.0000      -0.810933       -22.0666
  32   2.0000      -0.782977       -21.3059
  33   2.0000      -0.771805       -21.0019
  34   2.0000      -0.705311       -19.1925
  35   2.0000      -0.704275       -19.1643
  36   2.0000      -0.693705       -18.8767
  37   2.0000      -0.658124       -17.9085
  38   2.0000      -0.645967       -17.5777
  39   2.0000      -0.621160       -16.9026
  40   2.0000      -0.595929       -16.2161
  41   2.0000      -0.572270       -15.5722
  42   2.0000      -0.569946       -15.5090
  43   2.0000      -0.562628       -15.3099
  44   2.0000      -0.535299       -14.5662
  45   2.0000      -0.523134       -14.2352
  46   2.0000      -0.519088       -14.1251
  47   2.0000      -0.509377       -13.8608
  48   2.0000      -0.506277       -13.7765
  49   2.0000      -0.501836       -13.6557
  50   2.0000      -0.486518       -13.2388
  51   2.0000      -0.480066       -13.0633
  52   2.0000      -0.471385       -12.8270
  53   2.0000      -0.463263       -12.6060
  54   2.0000      -0.460767       -12.5381
  55   2.0000      -0.452415       -12.3108
  56   2.0000      -0.441878       -12.0241
  57   2.0000      -0.438725       -11.9383
  58   2.0000      -0.435266       -11.8442
  59   2.0000      -0.426401       -11.6030
  60   2.0000      -0.417287       -11.3549
  61   2.0000      -0.415560       -11.3080
  62   2.0000      -0.406577       -11.0635
  63   2.0000      -0.332284        -9.0419
  64   2.0000      -0.325729        -8.8635
  65   2.0000      -0.318828        -8.6757
  66   2.0000      -0.313891        -8.5414
  67   0.0000       0.041800         1.1374
  68   0.0000       0.050800         1.3823
  69   0.0000       0.112361         3.0575
  70   0.0000       0.121197         3.2979
  71   0.0000       0.125424         3.4130

MULLIKEN ATOMIC CHARGES
-----------------------
   0 S :    0.118192
   1 C :   -0.139191
   2 C :   -0.044991
   3 C :    0.035840
   4 C :   -0.176366
   5 H :    0.019947
   6 C :    0.042397
   7 H :    0.029522
   8 H :    0.027849
   9 C :   -0.057055
  10 H :    0.003324
  11 H :    0.037045
  12 C :   -0.062168
  13 H :    0.032871
  14 H :    0.027159
  15 H :    0.036646
  16 S :    0.094701
  17 C :   -0.100986
  18 C :   -0.029502
  19 C :    0.001164
  20 C :   -0.194499
  21 H :   -0.000749
  22 C :    0.073006
  23 H :    0.016841
  24 H :    0.025249
  25 C :   -0.077312
  26 H :    0.011962
  27 H :    0.014824
  28 C :    0.015569
  29 H :    0.012795
  30 H :    0.033495
  31 H :    0.038310
  32 H :    0.058732
  33 H :    0.075379
Sum of atomic charges:    0.0000000

LOEWDIN ATOMIC CHARGES
----------------------
   0 S :    0.418680
   1 C :   -0.189131
   2 C :   -0.065250
   3 C :   -0.058030
   4 C :   -0.218634
   5 H :    0.032852
   6 C :   -0.036771
   7 H :    0.030729
   8 H :    0.038872
   9 C :   -0.034447
  10 H :    0.010608
  11 H :    0.028919
  12 C :   -0.070049
  13 H :    0.024451
  14 H :    0.022475
  15 H :    0.032878
  16 S :    0.382895
  17 C :   -0.186416
  18 C :   -0.069100
  19 C :   -0.049976
  20 C :   -0.188022
  21 H :    0.020102
  22 C :   -0.029115
  23 H :    0.032136
  24 H :    0.029593
  25 C :   -0.035868
  26 H :    0.015239
  27 H :    0.019832
  28 C :   -0.052125
  29 H :    0.017832
  30 H :    0.029736
  31 H :    0.027634
  32 H :    0.027152
  33 H :    0.040317

  Mayer bond orders larger than 0.100000
B(  0-S ,  1-C ) :   1.1611 B(  0-S ,  4-C ) :   1.1606 B(  1-C ,  2-C ) :   1.5550
B(  1-C ,  4-C ) :   0.1041 B(  1-C , 32-H ) :   0.9735 B(  2-C ,  3-C ) :   1.2662
B(  2-C ,  6-C ) :   1.0402 B(  3-C ,  4-C ) :   1.5816 B(  3-C ,  5-H ) :   0.9808
B(  4-C , 20-C ) :   1.0097 B(  6-C ,  7-H ) :   0.9493 B(  6-C ,  8-H ) :   0.9367
B(  6-C ,  9-C ) :   1.0484 B(  9-C , 10-H ) :   0.9538 B(  9-C , 11-H ) :   0.9568
B(  9-C , 12-C ) :   1.0805 B( 12-C , 13-H ) :   0.9772 B( 12-C , 14-H ) :   0.9725
B( 12-C , 15-H ) :   0.9722 B( 16-S , 17-C ) :   1.1410 B( 16-S , 20-C ) :   1.1489
B( 17-C , 18-C ) :   1.6243 B( 17-C , 33-H ) :   0.9626 B( 18-C , 19-C ) :   1.2403
B( 18-C , 21-H ) :   0.9874 B( 19-C , 20-C ) :   1.5952 B( 19-C , 22-C ) :   1.0355
B( 22-C , 23-H ) :   0.9382 B( 22-C , 24-H ) :   0.9290 B( 22-C , 25-C ) :   1.0572
B( 25-C , 26-H ) :   0.9548 B( 25-C , 27-H ) :   0.9591 B( 25-C , 28-C ) :   1.0734
B( 28-C , 29-H ) :   0.9748 B( 28-C , 30-H ) :   0.9724 B( 28-C , 31-H ) :   0.9808

Dispersion correction           -0.013517996
FINAL SINGLE POINT ENERGY     -1339.858681049207

DIPOLE MOMENT
-------------
                                X             Y             Z
Electronic contribution:     -3.63894      24.73852      10.25623
Nuclear contribution   :      3.67703     -25.44009     -10.36133
                        -----------------------------------------
Total Dipole Moment    :      0.03808      -0.70157      -0.10510
                        -----------------------------------------
Magnitude (a.u.)       :      0.71042
Magnitude (Debye)      :      1.80575

Rotational constants in cm-1:     0.017643     0.007697     0.006420
Rotational constants in MHz :   528.934515   230.750001   192.461819

                             ****ORCA TERMINATED NORMALLY****
TOTAL RUN TIME: 0 days 0 hours 0 minutes 29 seconds 191 msec
