                         Program Version 4.2.1 -  RELEASE  -
|  1> ! wB97X-D3 SP def2-SVP
|  2> %pal
|  3> nprocs 16
|  4> end
|  5>
|  6> * xyz 0 1
|  7> S 	 -38.9383 	 29.6841 	 91.6044
|  8> C 	 -39.3446 	 28.6883 	 92.8945
|  9> C 	 -40.4027 	 27.8888 	 92.544
| 10> C 	 -40.8347 	 28.0757 	 91.1522
| 11> C 	 -40.2507 	 29.1834 	 90.5785
| 12> H 	 -41.5611 	 27.5057 	 90.5697
| 13> C 	 -40.9184 	 26.7765 	 93.3982
| 14> H 	 -40.0933 	 26.0551 	 93.5344
| 15> H 	 -41.6829 	 26.1608 	 92.8911
| 16> C 	 -41.4691 	 27.2253 	 94.76
| 17> H 	 -41.6796 	 26.2938 	 95.2536
| 18> H 	 -40.7241 	 27.7303 	 95.3908
| 19> C 	 -42.6623 	 28.1531 	 94.6148
| 20> H 	 -42.606 	 28.9142 	 93.82
| 21> H 	 -43.4714 	 27.607 	 94.2525
| 22> H 	 -42.9833 	 28.5356 	 95.5451
| 23> S 	 -41.9101 	 30.3359 	 88.7509
| 24> C 	 -41.4766 	 30.5866 	 87.0753
| 25> C 	 -40.1152 	 30.3549 	 86.9514
| 26> C 	 -39.5405 	 29.6581 	 88.1139
| 27> C 	 -40.4208 	 29.6393 	 89.1623
| 28> H 	 -39.5695 	 30.3404 	 86.0104
| 29> C 	 -38.1353 	 29.0751 	 88.1044
| 30> H 	 -38.0038 	 28.4646 	 87.1566
| 31> H 	 -37.955 	 28.3524 	 88.8346
| 32> C 	 -37.0089 	 30.1563 	 88.3463
| 33> H 	 -36.11 	 29.6852 	 88.7616
| 34> H 	 -37.2428 	 30.7738 	 89.2047
| 35> C 	 -36.6569 	 31.1226 	 87.1658
| 36> H 	 -35.7751 	 31.7174 	 87.4762
| 37> H 	 -37.4384 	 31.9428 	 87.0592
| 38> H 	 -36.4163 	 30.5014 	 86.2951
| 39> H 	 -38.7464 	 28.4452 	 93.6897
| 40> H 	 -42.0844 	 30.8611 	 86.2139
| 41> *
| 42>
| 43>                          ****END OF INPUT****

CARTESIAN COORDINATES (ANGSTROEM)
---------------------------------
  S    -38.938300   29.684100   91.604400
  C    -39.344600   28.688300   92.894500
  C    -40.402700   27.888800   92.544000
  C    -40.834700   28.075700   91.152200
  C    -40.250700   29.183400   90.578500
  H    -41.561100   27.505700   90.569700
  C    -40.918400   26.776500   93.398200
  H    -40.093300   26.055100   93.534400
  H    -41.682900   26.160800   92.891100
  C    -41.469100   27.225300   94.760000
  H    -41.679600   26.293800   95.253600
  H    -40.724100   27.730300   95.390800
  C    -42.662300   28.153100   94.614800
  H    -42.606000   28.914200   93.820000
  H    -43.471400   27.607000   94.252500
  H    -42.983300   28.535600   95.545100
  S    -41.910100   30.335900   88.750900
  C    -41.476600   30.586600   87.075300
  C    -40.115200   30.354900   86.951400
  C    -39.540500   29.658100   88.113900
  C    -40.420800   29.639300   89.162300
  H    -39.569500   30.340400   86.010400
  C    -38.135300   29.075100   88.104400
  H    -38.003800   28.464600   87.156600
  H    -37.955000   28.352400   88.834600
  C    -37.008900   30.156300   88.346300
  H    -36.110000   29.685200   88.761600
  H    -37.242800   30.773800   89.204700
  C    -36.656900   31.122600   87.165800
  H    -35.775100   31.717400   87.476200
  H    -37.438400   31.942800   87.059200
  H    -36.416300   30.501400   86.295100
  H    -38.746400   28.445200   93.689700
  H    -42.084400   30.861100   86.213900

 Total Charge           Charge          ....    0
 Multiplicity           Mult            ....    1
 Number of Electrons    NEL             ....  134
 Basis Dimension        Dim             ....  322

ORBITAL ENERGIES
----------------

  NO   OCC          E(Eh)            E(eV)
   0   2.0000     -88.964606     -2420.8500
   1   2.0000     -88.963877     -2420.8302
   2   2.0000     -10.329361      -281.0762
   3   2.0000     -10.323318      -280.9118
   4   2.0000     -10.320204      -280.8270
   5   2.0000     -10.303714      -280.3783
   6   2.0000     -10.302317      -280.3403
   7   2.0000     -10.300216      -280.2831
   8   2.0000     -10.298278      -280.2304
   9   2.0000     -10.296289      -280.1763
  10   2.0000     -10.292966      -280.0858
  11   2.0000     -10.290750      -280.0255
  12   2.0000     -10.285857      -279.8924
  13   2.0000     -10.284223      -279.8479
  14   2.0000     -10.284023      -279.8425
  15   2.0000     -10.263993      -279.2974
  16   2.0000      -8.080364      -219.8779
  17   2.0000      -8.079554      -219.8559
  18   2.0000      -6.038795      -164.3240
  19   2.0000      -6.038092      -164.3048
  20   2.0000      -6.034620      -164.2104
  21   2.0000      -6.033805      -164.1882
  22   2.0000      -6.031233      -164.1182
  23   2.0000      -6.030327      -164.0935
  24   2.0000      -1.012535       -27.5525
  25   2.0000      -0.992280       -27.0013
  26   2.0000      -0.913744       -24.8642
  27   2.0000      -0.897613       -24.4253
  28   2.0000      -0.871476       -23.7141
  29   2.0000      -0.846313       -23.0293
  30   2.0000      -0.839893       -22.8547
  31   2.0000      -0.820225       -22.3194
  32   2.0000      -0.781700       -21.2711
  33   2.0000      -0.773334       -21.0435
  34   2.0000      -0.705911       -19.2088
  35   2.0000      -0.700723       -19.0676
  36   2.0000      -0.688644       -18.7390
  37   2.0000      -0.663430       -18.0528
  38   2.0000      -0.647969       -17.6321
  39   2.0000      -0.607034       -16.5182
  40   2.0000      -0.595076       -16.1928
  41   2.0000      -0.580204       -15.7881
  42   2.0000      -0.555734       -15.1223
  43   2.0000      -0.543801       -14.7976
  44   2.0000      -0.540805       -14.7161
  45   2.0000      -0.532973       -14.5029
  46   2.0000      -0.516364       -14.0510
  47   2.0000      -0.514554       -14.0017
  48   2.0000      -0.505365       -13.7517
  49   2.0000      -0.495629       -13.4868
  50   2.0000      -0.486541       -13.2395
  51   2.0000      -0.480696       -13.0804
  52   2.0000      -0.472449       -12.8560
  53   2.0000      -0.470478       -12.8023
  54   2.0000      -0.464761       -12.6468
  55   2.0000      -0.441688       -12.0189
  56   2.0000      -0.435311       -11.8454
  57   2.0000      -0.432884       -11.7794
  58   2.0000      -0.427314       -11.6278
  59   2.0000      -0.424240       -11.5442
  60   2.0000      -0.422211       -11.4889
  61   2.0000      -0.411566       -11.1993
  62   2.0000      -0.406520       -11.0620
  63   2.0000      -0.343359        -9.3433
  64   2.0000      -0.330508        -8.9936
  65   2.0000      -0.318342        -8.6625
  66   2.0000      -0.306644        -8.3442
  67   0.0000       0.036794         1.0012
  68   0.0000       0.071832         1.9546
  69   0.0000       0.107863         2.9351
  70   0.0000       0.125991         3.4284
  71   0.0000       0.133875         3.6429

MULLIKEN ATOMIC CHARGES
-----------------------
   0 S :    0.112796
   1 C :   -0.062795
   2 C :   -0.112165
   3 C :    0.032687
   4 C :   -0.145889
   5 H :    0.023358
   6 C :    0.029263
   7 H :    0.035666
   8 H :    0.020870
   9 C :   -0.062031
  10 H :    0.023241
  11 H :    0.027086
  12 C :   -0.004310
  13 H :    0.043073
  14 H :   -0.002739
  15 H :    0.023646
  16 S :    0.117328
  17 C :   -0.098201
  18 C :   -0.021895
  19 C :   -0.067878
  20 C :   -0.163358
  21 H :    0.025316
  22 C :    0.076324
  23 H :    0.035279
  24 H :    0.007971
  25 C :   -0.084075
  26 H :    0.023117
  27 H :    0.018092
  28 C :   -0.071154
  29 H :    0.034859
  30 H :    0.052427
  31 H :    0.041361
  32 H :    0.025339
  33 H :    0.067392
Sum of atomic charges:    0.0000000

LOEWDIN ATOMIC CHARGES
----------------------
   0 S :    0.445956
   1 C :   -0.206105
   2 C :   -0.065595
   3 C :   -0.058620
   4 C :   -0.204479
   5 H :    0.034292
   6 C :   -0.038821
   7 H :    0.033818
   8 H :    0.030077
   9 C :   -0.036965
  10 H :    0.022908
  11 H :    0.021157
  12 C :   -0.061661
  13 H :    0.034227
  14 H :    0.017132
  15 H :    0.021342
  16 S :    0.431222
  17 C :   -0.192455
  18 C :   -0.069296
  19 C :   -0.059455
  20 C :   -0.219099
  21 H :    0.029369
  22 C :   -0.033650
  23 H :    0.037555
  24 H :    0.021386
  25 C :   -0.044987
  26 H :    0.023576
  27 H :    0.019076
  28 C :   -0.076527
  29 H :    0.029885
  30 H :    0.035111
  31 H :    0.024478
  32 H :    0.017061
  33 H :    0.038087

  Mayer bond orders larger than 0.100000
B(  0-S ,  1-C ) :   1.1593 B(  0-S ,  4-C ) :   1.1611 B(  1-C ,  2-C ) :   1.5875
B(  1-C , 32-H ) :   0.9781 B(  2-C ,  3-C ) :   1.2408 B(  2-C ,  6-C ) :   1.0279
B(  3-C ,  4-C ) :   1.5770 B(  3-C ,  5-H ) :   0.9923 B(  4-C , 20-C ) :   0.9757
B(  6-C ,  7-H ) :   0.9357 B(  6-C ,  8-H ) :   0.9485 B(  6-C ,  9-C ) :   1.0770
B(  9-C , 10-H ) :   0.9551 B(  9-C , 11-H ) :   0.9586 B(  9-C , 12-C ) :   1.0705
B( 12-C , 13-H ) :   0.9735 B( 12-C , 14-H ) :   0.9674 B( 12-C , 15-H ) :   0.9731
B( 16-S , 17-C ) :   1.1502 B( 16-S , 20-C ) :   1.1591 B( 17-C , 18-C ) :   1.6088
B( 17-C , 33-H ) :   0.9691 B( 18-C , 19-C ) :   1.2419 B( 18-C , 21-H ) :   0.9752
B( 19-C , 20-C ) :   1.6227 B( 19-C , 22-C ) :   1.0509 B( 22-C , 23-H ) :   0.9409
B( 22-C , 24-H ) :   0.9302 B( 22-C , 25-C ) :   1.0582 B( 25-C , 26-H ) :   0.9596
B( 25-C , 27-H ) :   0.9495 B( 25-C , 28-C ) :   1.0789 B( 28-C , 29-H ) :   0.9715
B( 28-C , 30-H ) :   0.9717 B( 28-C , 31-H ) :   0.9774

Dispersion correction           -0.015041788
FINAL SINGLE POINT ENERGY     -1339.867040232461

DIPOLE MOMENT
-------------
                                X             Y             Z
Electronic contribution:     -6.13929       6.16947      -5.72372
Nuclear contribution   :      6.33416      -6.72154       5.70962
                        -----------------------------------------
Total Dipole Moment    :      0.19487      -0.55207      -0.01410
                        -----------------------------------------
Magnitude (a.u.)       :      0.58562
Magnitude (Debye)      :      1.48853

Rotational constants in cm-1:     0.024931     0.007817     0.006423
Rotational constants in MHz :   747.425049   234.340811   192.556455

                             ****ORCA TERMINATED NORMALLY****
TOTAL RUN TIME: 0 days 0 hours 0 minutes 29 seconds 591 msec
