                         Program Version 4.2.1 -  RELEASE  -
|  1> ! wB97X-D3 SP def2-SVP
|  2> %pal
|  3> nprocs 16
|  4> end
|  5>
|  6> * xyz 0 1
|  7> S 	 -4.5916 	 8.91105 	 84.0358
|  8> C 	 -5.0534 	 7.45591 	 83.2464
|  9> C 	 -5.69621 	 7.74469 	 82.0438
| 10> C 	 -5.79031 	 9.15476 	 81.7768
| 11> C 	 -5.09685 	 9.92968 	 82.6894
| 12> H 	 -6.3566 	 9.59506 	 80.9851
| 13> C 	 -6.17677 	 6.75239 	 81.0038
| 14> H 	 -7.25301 	 6.75487 	 81.0612
| 15> H 	 -5.86652 	 5.78531 	 81.3439
| 16> C 	 -5.61758 	 6.93343 	 79.6309
| 17> H 	 -6.23207 	 6.42012 	 78.8132
| 18> H 	 -5.90353 	 7.93912 	 79.1348
| 19> C 	 -4.09291 	 6.74405 	 79.5343
| 20> H 	 -3.65609 	 6.52327 	 78.5584
| 21> H 	 -3.60582 	 7.66167 	 79.7155
| 22> H 	 -3.68821 	 6.01385 	 80.2935
| 23> S 	 -2.95858 	 11.7108 	 83.1947
| 24> C 	 -3.13253 	 13.4269 	 82.7296
| 25> C 	 -4.41171 	 13.664 	 82.2362
| 26> C 	 -5.21692 	 12.4756 	 82.1169
| 27> C 	 -4.56788 	 11.3068 	 82.5958
| 28> H 	 -4.66915 	 14.6802 	 82.06
| 29> C 	 -6.70285 	 12.4908 	 81.6573
| 30> H 	 -7.08937 	 11.5808 	 82.0387
| 31> H 	 -6.8234 	 12.366 	 80.6872
| 32> C 	 -7.51209 	 13.6385 	 82.2406
| 33> H 	 -7.25693 	 14.4784 	 81.6493
| 34> H 	 -7.09181 	 13.813 	 83.2311
| 35> C 	 -9.04162 	 13.2835 	 82.2228
| 36> H 	 -9.50616 	 13.7846 	 81.3706
| 37> H 	 -9.44808 	 13.6041 	 83.1562
| 38> H 	 -9.23666 	 12.1197 	 82.0346
| 39> H 	 -4.76177 	 6.45299 	 83.5024
| 40> H 	 -2.4205 	 14.2024 	 82.9537
| 41> *
| 42>
| 43>                          ****END OF INPUT****

CARTESIAN COORDINATES (ANGSTROEM)
---------------------------------
  S     -4.591600    8.911050   84.035800
  C     -5.053400    7.455910   83.246400
  C     -5.696210    7.744690   82.043800
  C     -5.790310    9.154760   81.776800
  C     -5.096850    9.929680   82.689400
  H     -6.356600    9.595060   80.985100
  C     -6.176770    6.752390   81.003800
  H     -7.253010    6.754870   81.061200
  H     -5.866520    5.785310   81.343900
  C     -5.617580    6.933430   79.630900
  H     -6.232070    6.420120   78.813200
  H     -5.903530    7.939120   79.134800
  C     -4.092910    6.744050   79.534300
  H     -3.656090    6.523270   78.558400
  H     -3.605820    7.661670   79.715500
  H     -3.688210    6.013850   80.293500
  S     -2.958580   11.710800   83.194700
  C     -3.132530   13.426900   82.729600
  C     -4.411710   13.664000   82.236200
  C     -5.216920   12.475600   82.116900
  C     -4.567880   11.306800   82.595800
  H     -4.669150   14.680200   82.060000
  C     -6.702850   12.490800   81.657300
  H     -7.089370   11.580800   82.038700
  H     -6.823400   12.366000   80.687200
  C     -7.512090   13.638500   82.240600
  H     -7.256930   14.478400   81.649300
  H     -7.091810   13.813000   83.231100
  C     -9.041620   13.283500   82.222800
  H     -9.506160   13.784600   81.370600
  H     -9.448080   13.604100   83.156200
  H     -9.236660   12.119700   82.034600
  H     -4.761770    6.452990   83.502400
  H     -2.420500   14.202400   82.953700

 Total Charge           Charge          ....    0
 Multiplicity           Mult            ....    1
 Number of Electrons    NEL             ....  134
 Basis Dimension        Dim             ....  322

ORBITAL ENERGIES
----------------

  NO   OCC          E(Eh)            E(eV)
   0   2.0000     -88.968327     -2420.9513
   1   2.0000     -88.964322     -2420.8423
   2   2.0000     -10.334393      -281.2131
   3   2.0000     -10.334235      -281.2088
   4   2.0000     -10.321448      -280.8609
   5   2.0000     -10.312353      -280.6134
   6   2.0000     -10.308897      -280.5194
   7   2.0000     -10.301313      -280.3130
   8   2.0000     -10.297641      -280.2131
   9   2.0000     -10.296809      -280.1904
  10   2.0000     -10.294316      -280.1226
  11   2.0000     -10.289998      -280.0051
  12   2.0000     -10.289685      -279.9966
  13   2.0000     -10.282968      -279.8138
  14   2.0000     -10.276906      -279.6488
  15   2.0000     -10.275616      -279.6137
  16   2.0000      -8.081850      -219.9183
  17   2.0000      -8.079478      -219.8538
  18   2.0000      -6.040474      -164.3697
  19   2.0000      -6.038040      -164.3034
  20   2.0000      -6.036469      -164.2607
  21   2.0000      -6.033879      -164.1902
  22   2.0000      -6.032603      -164.1555
  23   2.0000      -6.030196      -164.0900
  24   2.0000      -1.003149       -27.2971
  25   2.0000      -0.979129       -26.6434
  26   2.0000      -0.914319       -24.8799
  27   2.0000      -0.909729       -24.7550
  28   2.0000      -0.866943       -23.5907
  29   2.0000      -0.846311       -23.0293
  30   2.0000      -0.838329       -22.8121
  31   2.0000      -0.816739       -22.2246
  32   2.0000      -0.784433       -21.3455
  33   2.0000      -0.772369       -21.0172
  34   2.0000      -0.710675       -19.3385
  35   2.0000      -0.707166       -19.2430
  36   2.0000      -0.693563       -18.8728
  37   2.0000      -0.653806       -17.7910
  38   2.0000      -0.639994       -17.4151
  39   2.0000      -0.625492       -17.0205
  40   2.0000      -0.597057       -16.2468
  41   2.0000      -0.572108       -15.5679
  42   2.0000      -0.567741       -15.4490
  43   2.0000      -0.563886       -15.3441
  44   2.0000      -0.530749       -14.4424
  45   2.0000      -0.525091       -14.2885
  46   2.0000      -0.518864       -14.1190
  47   2.0000      -0.506106       -13.7718
  48   2.0000      -0.505183       -13.7467
  49   2.0000      -0.492236       -13.3944
  50   2.0000      -0.490366       -13.3435
  51   2.0000      -0.478649       -13.0247
  52   2.0000      -0.468611       -12.7516
  53   2.0000      -0.465934       -12.6787
  54   2.0000      -0.457697       -12.4546
  55   2.0000      -0.450839       -12.2680
  56   2.0000      -0.446151       -12.1404
  57   2.0000      -0.440045       -11.9742
  58   2.0000      -0.437965       -11.9176
  59   2.0000      -0.425692       -11.5837
  60   2.0000      -0.425257       -11.5718
  61   2.0000      -0.411117       -11.1871
  62   2.0000      -0.390365       -10.6224
  63   2.0000      -0.353304        -9.6139
  64   2.0000      -0.331043        -9.0081
  65   2.0000      -0.326705        -8.8901
  66   2.0000      -0.286550        -7.7974
  67   0.0000       0.020007         0.5444
  68   0.0000       0.074754         2.0342
  69   0.0000       0.111293         3.0284
  70   0.0000       0.123082         3.3492
  71   0.0000       0.134982         3.6730

MULLIKEN ATOMIC CHARGES
-----------------------
   0 S :    0.101722
   1 C :   -0.100585
   2 C :   -0.135884
   3 C :    0.037303
   4 C :   -0.156685
   5 H :    0.007381
   6 C :    0.127722
   7 H :    0.035184
   8 H :    0.003668
   9 C :   -0.119470
  10 H :    0.029904
  11 H :    0.022773
  12 C :   -0.030168
  13 H :    0.029990
  14 H :    0.029330
  15 H :    0.036010
  16 S :    0.103997
  17 C :   -0.103984
  18 C :   -0.022474
  19 C :   -0.072806
  20 C :   -0.119798
  21 H :    0.013291
  22 C :    0.123533
  23 H :    0.002495
  24 H :    0.000675
  25 C :   -0.077969
  26 H :    0.027629
  27 H :    0.038434
  28 C :   -0.069803
  29 H :    0.040662
  30 H :    0.043504
  31 H :    0.051256
  32 H :    0.043140
  33 H :    0.060021
Sum of atomic charges:    0.0000000

LOEWDIN ATOMIC CHARGES
----------------------
   0 S :    0.409738
   1 C :   -0.210398
   2 C :   -0.061091
   3 C :   -0.060040
   4 C :   -0.181220
   5 H :    0.025872
   6 C :   -0.029795
   7 H :    0.035730
   8 H :    0.025579
   9 C :   -0.061808
  10 H :    0.031585
  11 H :    0.028784
  12 C :   -0.070039
  13 H :    0.029443
  14 H :    0.025216
  15 H :    0.031227
  16 S :    0.390154
  17 C :   -0.175476
  18 C :   -0.068585
  19 C :   -0.047401
  20 C :   -0.199430
  21 H :    0.028076
  22 C :   -0.020111
  23 H :    0.023164
  24 H :    0.007266
  25 C :   -0.035339
  26 H :    0.017858
  27 H :    0.026534
  28 C :   -0.065576
  29 H :    0.027270
  30 H :    0.024617
  31 H :    0.040263
  32 H :    0.028253
  33 H :    0.029678

  Mayer bond orders larger than 0.100000
B(  0-S ,  1-C ) :   1.1362 B(  0-S ,  4-C ) :   1.1531 B(  1-C ,  2-C ) :   1.6077
B(  1-C , 32-H ) :   0.9660 B(  2-C ,  3-C ) :   1.2458 B(  2-C ,  6-C ) :   1.0208
B(  3-C ,  4-C ) :   1.5535 B(  3-C ,  5-H ) :   0.9933 B(  4-C , 20-C ) :   1.0570
B(  6-C ,  7-H ) :   0.9304 B(  6-C ,  8-H ) :   0.9396 B(  6-C ,  9-C ) :   1.0837
B(  9-C , 10-H ) :   0.9538 B(  9-C , 11-H ) :   0.9466 B(  9-C , 12-C ) :   1.0499
B( 12-C , 13-H ) :   0.9734 B( 12-C , 14-H ) :   0.9713 B( 12-C , 15-H ) :   0.9795
B( 16-S , 17-C ) :   1.1473 B( 16-S , 20-C ) :   1.1378 B( 17-C , 18-C ) :   1.6044
B( 17-C , 33-H ) :   0.9676 B( 18-C , 19-C ) :   1.2457 B( 18-C , 21-H ) :   0.9956
B( 19-C , 20-C ) :   1.5730 B( 19-C , 22-C ) :   1.0275 B( 22-C , 23-H ) :   0.9246
B( 22-C , 24-H ) :   0.9269 B( 22-C , 25-C ) :   1.0653 B( 25-C , 26-H ) :   0.9530
B( 25-C , 27-H ) :   0.9671 B( 25-C , 28-C ) :   1.0566 B( 28-C , 29-H ) :   0.9766
B( 28-C , 30-H ) :   0.9786 B( 28-C , 31-H ) :   0.9802

Dispersion correction           -0.014232478
FINAL SINGLE POINT ENERGY     -1339.849003816265

DIPOLE MOMENT
-------------
                                X             Y             Z
Electronic contribution:     16.56530       2.28085      16.40318
Nuclear contribution   :    -16.96540      -2.10834     -16.89025
                        -----------------------------------------
Total Dipole Moment    :     -0.40010       0.17252      -0.48707
                        -----------------------------------------
Magnitude (a.u.)       :      0.65351
Magnitude (Debye)      :      1.66110

Rotational constants in cm-1:     0.017345     0.008737     0.007209
Rotational constants in MHz :   519.999205   261.922933   216.129948

                             ****ORCA TERMINATED NORMALLY****
TOTAL RUN TIME: 0 days 0 hours 0 minutes 34 seconds 444 msec
