                         Program Version 4.2.1 -  RELEASE  -
|  1> ! wB97X-D3 SP def2-SVP
|  2> %pal
|  3> nprocs 16
|  4> end
|  5>
|  6> * xyz 0 1
|  7> S 	 -29.8786 	 33.7157 	 40.7767
|  8> C 	 -28.5187 	 34.7737 	 40.61
|  9> C 	 -27.7628 	 34.6408 	 41.7178
| 10> C 	 -28.3831 	 33.8857 	 42.7588
| 11> C 	 -29.5997 	 33.4015 	 42.4259
| 12> H 	 -28.0228 	 33.7615 	 43.8043
| 13> C 	 -26.4298 	 35.263 	 41.9186
| 14> H 	 -26.0709 	 35.0166 	 42.9264
| 15> H 	 -26.5555 	 36.347 	 41.9138
| 16> C 	 -25.3926 	 35.0172 	 40.8544
| 17> H 	 -25.7522 	 35.4302 	 39.8625
| 18> H 	 -24.5484 	 35.5243 	 41.1711
| 19> C 	 -24.8292 	 33.5843 	 40.725
| 20> H 	 -23.9402 	 33.5812 	 40.0153
| 21> H 	 -24.4158 	 33.0369 	 41.6605
| 22> H 	 -25.7057 	 33.0566 	 40.2233
| 23> S 	 -31.4725 	 31.3426 	 42.2125
| 24> C 	 -31.5449 	 30.2524 	 43.5342
| 25> C 	 -31.0997 	 30.7985 	 44.694
| 26> C 	 -30.42 	 32.0122 	 44.4728
| 27> C 	 -30.4312 	 32.4214 	 43.1469
| 28> H 	 -31.3639 	 30.3489 	 45.6252
| 29> C 	 -29.8401 	 32.8578 	 45.701
| 30> H 	 -30.7124 	 33.216 	 46.3705
| 31> H 	 -29.4385 	 33.8633 	 45.4291
| 32> C 	 -28.858 	 32.1615 	 46.6569
| 33> H 	 -29.0989 	 31.1333 	 46.9694
| 34> H 	 -28.9082 	 32.7105 	 47.5967
| 35> C 	 -27.4244 	 32.1572 	 46.0826
| 36> H 	 -26.9587 	 33.0911 	 45.7641
| 37> H 	 -27.3767 	 31.6031 	 45.1072
| 38> H 	 -26.8236 	 31.5959 	 46.8198
| 39> H 	 -28.2306 	 35.3439 	 39.8062
| 40> H 	 -32.2477 	 29.4389 	 43.549
| 41> *
| 42>
| 43>                          ****END OF INPUT****

CARTESIAN COORDINATES (ANGSTROEM)
---------------------------------
  S    -29.878600   33.715700   40.776700
  C    -28.518700   34.773700   40.610000
  C    -27.762800   34.640800   41.717800
  C    -28.383100   33.885700   42.758800
  C    -29.599700   33.401500   42.425900
  H    -28.022800   33.761500   43.804300
  C    -26.429800   35.263000   41.918600
  H    -26.070900   35.016600   42.926400
  H    -26.555500   36.347000   41.913800
  C    -25.392600   35.017200   40.854400
  H    -25.752200   35.430200   39.862500
  H    -24.548400   35.524300   41.171100
  C    -24.829200   33.584300   40.725000
  H    -23.940200   33.581200   40.015300
  H    -24.415800   33.036900   41.660500
  H    -25.705700   33.056600   40.223300
  S    -31.472500   31.342600   42.212500
  C    -31.544900   30.252400   43.534200
  C    -31.099700   30.798500   44.694000
  C    -30.420000   32.012200   44.472800
  C    -30.431200   32.421400   43.146900
  H    -31.363900   30.348900   45.625200
  C    -29.840100   32.857800   45.701000
  H    -30.712400   33.216000   46.370500
  H    -29.438500   33.863300   45.429100
  C    -28.858000   32.161500   46.656900
  H    -29.098900   31.133300   46.969400
  H    -28.908200   32.710500   47.596700
  C    -27.424400   32.157200   46.082600
  H    -26.958700   33.091100   45.764100
  H    -27.376700   31.603100   45.107200
  H    -26.823600   31.595900   46.819800
  H    -28.230600   35.343900   39.806200
  H    -32.247700   29.438900   43.549000

 Total Charge           Charge          ....    0
 Multiplicity           Mult            ....    1
 Number of Electrons    NEL             ....  134
 Basis Dimension        Dim             ....  322

ORBITAL ENERGIES
----------------

  NO   OCC          E(Eh)            E(eV)
   0   2.0000     -88.965838     -2420.8835
   1   2.0000     -88.960039     -2420.7257
   2   2.0000     -10.331852      -281.1440
   3   2.0000     -10.325272      -280.9649
   4   2.0000     -10.312242      -280.6104
   5   2.0000     -10.309586      -280.5381
   6   2.0000     -10.308266      -280.5022
   7   2.0000     -10.302415      -280.3430
   8   2.0000     -10.292706      -280.0788
   9   2.0000     -10.291993      -280.0594
  10   2.0000     -10.290806      -280.0271
  11   2.0000     -10.290288      -280.0130
  12   2.0000     -10.288246      -279.9574
  13   2.0000     -10.286338      -279.9055
  14   2.0000     -10.284821      -279.8642
  15   2.0000     -10.282852      -279.8106
  16   2.0000      -8.081317      -219.9038
  17   2.0000      -8.076369      -219.7692
  18   2.0000      -6.039829      -164.3521
  19   2.0000      -6.035864      -164.2442
  20   2.0000      -6.034937      -164.2190
  21   2.0000      -6.031889      -164.1360
  22   2.0000      -6.030664      -164.1027
  23   2.0000      -6.026959      -164.0019
  24   2.0000      -1.018482       -27.7143
  25   2.0000      -0.996050       -27.1039
  26   2.0000      -0.918295       -24.9881
  27   2.0000      -0.903343       -24.5812
  28   2.0000      -0.873107       -23.7584
  29   2.0000      -0.852216       -23.1900
  30   2.0000      -0.842647       -22.9296
  31   2.0000      -0.819192       -22.2914
  32   2.0000      -0.781614       -21.2688
  33   2.0000      -0.775726       -21.1086
  34   2.0000      -0.708969       -19.2920
  35   2.0000      -0.702028       -19.1032
  36   2.0000      -0.692009       -18.8305
  37   2.0000      -0.659883       -17.9563
  38   2.0000      -0.639738       -17.4082
  39   2.0000      -0.616209       -16.7679
  40   2.0000      -0.598959       -16.2985
  41   2.0000      -0.582699       -15.8560
  42   2.0000      -0.552015       -15.0211
  43   2.0000      -0.548143       -14.9157
  44   2.0000      -0.546047       -14.8587
  45   2.0000      -0.528550       -14.3826
  46   2.0000      -0.518475       -14.1084
  47   2.0000      -0.516431       -14.0528
  48   2.0000      -0.505971       -13.7682
  49   2.0000      -0.502993       -13.6871
  50   2.0000      -0.491451       -13.3731
  51   2.0000      -0.476743       -12.9728
  52   2.0000      -0.474083       -12.9005
  53   2.0000      -0.468161       -12.7393
  54   2.0000      -0.464845       -12.6491
  55   2.0000      -0.447650       -12.1812
  56   2.0000      -0.445869       -12.1327
  57   2.0000      -0.437594       -11.9075
  58   2.0000      -0.427530       -11.6337
  59   2.0000      -0.419845       -11.4246
  60   2.0000      -0.418310       -11.3828
  61   2.0000      -0.407414       -11.0863
  62   2.0000      -0.402578       -10.9547
  63   2.0000      -0.364936        -9.9304
  64   2.0000      -0.336434        -9.1548
  65   2.0000      -0.322924        -8.7872
  66   2.0000      -0.286067        -7.7843
  67   0.0000       0.021178         0.5763
  68   0.0000       0.081376         2.2144
  69   0.0000       0.102500         2.7892
  70   0.0000       0.117740         3.2039
  71   0.0000       0.131505         3.5784

MULLIKEN ATOMIC CHARGES
-----------------------
   0 S :    0.082778
   1 C :   -0.076892
   2 C :   -0.081369
   3 C :   -0.013130
   4 C :   -0.073263
   5 H :   -0.015883
   6 C :    0.084442
   7 H :    0.010164
   8 H :    0.034729
   9 C :   -0.062444
  10 H :    0.037282
  11 H :    0.011586
  12 C :   -0.121348
  13 H :    0.042653
  14 H :    0.053762
  15 H :    0.053981
  16 S :    0.098863
  17 C :   -0.074010
  18 C :   -0.025793
  19 C :   -0.024748
  20 C :   -0.128087
  21 H :    0.013834
  22 C :   -0.017073
  23 H :    0.046750
  24 H :    0.034879
  25 C :   -0.052017
  26 H :    0.032487
  27 H :    0.027877
  28 C :   -0.084804
  29 H :    0.040816
  30 H :    0.042459
  31 H :    0.040834
  32 H :    0.007233
  33 H :    0.053452
Sum of atomic charges:   -0.0000000

LOEWDIN ATOMIC CHARGES
----------------------
   0 S :    0.421222
   1 C :   -0.189812
   2 C :   -0.064607
   3 C :   -0.078050
   4 C :   -0.194176
   5 H :    0.032328
   6 C :   -0.034480
   7 H :    0.028185
   8 H :    0.038117
   9 C :   -0.043222
  10 H :    0.030387
  11 H :    0.014790
  12 C :   -0.085976
  13 H :    0.029766
  14 H :    0.036069
  15 H :    0.033453
  16 S :    0.407756
  17 C :   -0.186575
  18 C :   -0.067142
  19 C :   -0.057372
  20 C :   -0.186668
  21 H :    0.031053
  22 C :   -0.040646
  23 H :    0.041848
  24 H :    0.031702
  25 C :   -0.044911
  26 H :    0.026859
  27 H :    0.025445
  28 C :   -0.077127
  29 H :    0.019684
  30 H :    0.032545
  31 H :    0.029588
  32 H :    0.014265
  33 H :    0.025704

  Mayer bond orders larger than 0.100000
B(  0-S ,  1-C ) :   1.1243 B(  0-S ,  4-C ) :   1.1595 B(  1-C ,  2-C ) :   1.6040
B(  1-C , 32-H ) :   0.9875 B(  2-C ,  3-C ) :   1.2463 B(  2-C ,  6-C ) :   1.0219
B(  3-C ,  4-C ) :   1.5717 B(  3-C ,  5-H ) :   0.9819 B(  4-C , 20-C ) :   1.0492
B(  6-C ,  7-H ) :   0.9402 B(  6-C ,  8-H ) :   0.9289 B(  6-C ,  9-C ) :   1.0907
B(  9-C , 10-H ) :   0.9518 B(  9-C , 11-H ) :   0.9508 B(  9-C , 12-C ) :   1.0647
B( 12-C , 13-H ) :   0.9747 B( 12-C , 14-H ) :   0.9722 B( 12-C , 15-H ) :   0.9757
B( 16-S , 17-C ) :   1.1668 B( 16-S , 20-C ) :   1.1347 B( 17-C , 18-C ) :   1.6081
B( 17-C , 33-H ) :   0.9609 B( 18-C , 19-C ) :   1.2543 B( 18-C , 21-H ) :   0.9946
B( 19-C , 20-C ) :   1.6014 B( 19-C , 22-C ) :   1.0073 B( 22-C , 23-H ) :   0.9454
B( 22-C , 24-H ) :   0.9470 B( 22-C , 25-C ) :   1.0672 B( 25-C , 26-H ) :   0.9561
B( 25-C , 27-H ) :   0.9533 B( 25-C , 28-C ) :   1.0747 B( 28-C , 29-H ) :   0.9677
B( 28-C , 30-H ) :   0.9727 B( 28-C , 31-H ) :   0.9721

Dispersion correction           -0.014648916
FINAL SINGLE POINT ENERGY     -1339.855356351957

DIPOLE MOMENT
-------------
                                X             Y             Z
Electronic contribution:    -25.01532      -4.50675     -12.55902
Nuclear contribution   :     25.38797       4.63373      13.15046
                        -----------------------------------------
Total Dipole Moment    :      0.37265       0.12698       0.59144
                        -----------------------------------------
Magnitude (a.u.)       :      0.71049
Magnitude (Debye)      :      1.80591

Rotational constants in cm-1:     0.018866     0.009379     0.007019
Rotational constants in MHz :   565.594448   281.188342   210.435812

                             ****ORCA TERMINATED NORMALLY****
TOTAL RUN TIME: 0 days 0 hours 0 minutes 34 seconds 601 msec
