                         Program Version 4.2.1 -  RELEASE  -
|  1> ! wB97X-D3 SP def2-SVP
|  2> %pal
|  3> nprocs 16
|  4> end
|  5>
|  6> * xyz 0 1
|  7> S 	 -15.8525 	 -9.5484 	 86.7758
|  8> C 	 -14.2213 	 -10.2825 	 86.6098
|  9> C 	 -13.8473 	 -10.9331 	 87.8027
| 10> C 	 -14.897 	 -10.8882 	 88.7865
| 11> C 	 -16.065 	 -10.2721 	 88.3867
| 12> H 	 -14.972 	 -11.3726 	 89.7616
| 13> C 	 -12.5711 	 -11.6986 	 87.9704
| 14> H 	 -12.2953 	 -11.6387 	 89.0314
| 15> H 	 -11.7901 	 -11.1115 	 87.428
| 16> C 	 -12.5238 	 -13.1929 	 87.5763
| 17> H 	 -13.1995 	 -13.8148 	 88.188
| 18> H 	 -12.969 	 -13.4035 	 86.6049
| 19> C 	 -11.1254 	 -13.8564 	 87.6508
| 20> H 	 -10.6944 	 -14.0918 	 88.6355
| 21> H 	 -11.1733 	 -14.7685 	 87.0881
| 22> H 	 -10.5097 	 -13.2012 	 87.0633
| 23> S 	 -18.3039 	 -11.2684 	 89.64
| 24> C 	 -19.2428 	 -10.1836 	 90.6957
| 25> C 	 -18.7065 	 -8.94076 	 90.7699
| 26> C 	 -17.5292 	 -8.82983 	 89.997
| 27> C 	 -17.1845 	 -9.99591 	 89.2798
| 28> H 	 -19.1149 	 -8.09274 	 91.3465
| 29> C 	 -16.6136 	 -7.62003 	 90.0783
| 30> H 	 -16.1512 	 -7.51206 	 89.0755
| 31> H 	 -15.8074 	 -7.80147 	 90.7603
| 32> C 	 -17.2794 	 -6.26671 	 90.4165
| 33> H 	 -17.472 	 -6.276 	 91.4509
| 34> H 	 -18.2063 	 -6.06279 	 89.8597
| 35> C 	 -16.3171 	 -5.0194 	 90.2536
| 36> H 	 -15.9675 	 -4.95927 	 89.2122
| 37> H 	 -15.2975 	 -5.12395 	 90.6769
| 38> H 	 -16.7712 	 -4.05427 	 90.4872
| 39> H 	 -13.6574 	 -10.1748 	 85.735
| 40> H 	 -20.1619 	 -10.4677 	 91.2634
| 41> *
| 42>
| 43>                          ****END OF INPUT****

CARTESIAN COORDINATES (ANGSTROEM)
---------------------------------
  S    -15.852500   -9.548400   86.775800
  C    -14.221300  -10.282500   86.609800
  C    -13.847300  -10.933100   87.802700
  C    -14.897000  -10.888200   88.786500
  C    -16.065000  -10.272100   88.386700
  H    -14.972000  -11.372600   89.761600
  C    -12.571100  -11.698600   87.970400
  H    -12.295300  -11.638700   89.031400
  H    -11.790100  -11.111500   87.428000
  C    -12.523800  -13.192900   87.576300
  H    -13.199500  -13.814800   88.188000
  H    -12.969000  -13.403500   86.604900
  C    -11.125400  -13.856400   87.650800
  H    -10.694400  -14.091800   88.635500
  H    -11.173300  -14.768500   87.088100
  H    -10.509700  -13.201200   87.063300
  S    -18.303900  -11.268400   89.640000
  C    -19.242800  -10.183600   90.695700
  C    -18.706500   -8.940760   90.769900
  C    -17.529200   -8.829830   89.997000
  C    -17.184500   -9.995910   89.279800
  H    -19.114900   -8.092740   91.346500
  C    -16.613600   -7.620030   90.078300
  H    -16.151200   -7.512060   89.075500
  H    -15.807400   -7.801470   90.760300
  C    -17.279400   -6.266710   90.416500
  H    -17.472000   -6.276000   91.450900
  H    -18.206300   -6.062790   89.859700
  C    -16.317100   -5.019400   90.253600
  H    -15.967500   -4.959270   89.212200
  H    -15.297500   -5.123950   90.676900
  H    -16.771200   -4.054270   90.487200
  H    -13.657400  -10.174800   85.735000
  H    -20.161900  -10.467700   91.263400

 Total Charge           Charge          ....    0
 Multiplicity           Mult            ....    1
 Number of Electrons    NEL             ....  134
 Basis Dimension        Dim             ....  322

ORBITAL ENERGIES
----------------

  NO   OCC          E(Eh)            E(eV)
   0   2.0000     -88.967395     -2420.9259
   1   2.0000     -88.967132     -2420.9187
   2   2.0000     -10.330104      -281.0964
   3   2.0000     -10.324551      -280.9453
   4   2.0000     -10.320513      -280.8354
   5   2.0000     -10.320501      -280.8351
   6   2.0000     -10.308880      -280.5189
   7   2.0000     -10.301472      -280.3173
   8   2.0000     -10.297169      -280.2002
   9   2.0000     -10.296573      -280.1840
  10   2.0000     -10.292287      -280.0674
  11   2.0000     -10.290025      -280.0058
  12   2.0000     -10.288104      -279.9535
  13   2.0000     -10.287874      -279.9473
  14   2.0000     -10.281228      -279.7664
  15   2.0000     -10.278180      -279.6835
  16   2.0000      -8.081542      -219.9099
  17   2.0000      -8.080612      -219.8846
  18   2.0000      -6.040010      -164.3570
  19   2.0000      -6.039192      -164.3348
  20   2.0000      -6.036065      -164.2497
  21   2.0000      -6.035275      -164.2282
  22   2.0000      -6.032390      -164.1497
  23   2.0000      -6.031431      -164.1236
  24   2.0000      -1.002384       -27.2763
  25   2.0000      -0.978569       -26.6282
  26   2.0000      -0.907679       -24.6992
  27   2.0000      -0.901965       -24.5437
  28   2.0000      -0.870466       -23.6866
  29   2.0000      -0.848374       -23.0854
  30   2.0000      -0.842875       -22.9358
  31   2.0000      -0.816526       -22.2188
  32   2.0000      -0.779990       -21.2246
  33   2.0000      -0.765714       -20.8361
  34   2.0000      -0.706896       -19.2356
  35   2.0000      -0.703535       -19.1442
  36   2.0000      -0.698246       -19.0002
  37   2.0000      -0.656251       -17.8575
  38   2.0000      -0.642783       -17.4910
  39   2.0000      -0.612560       -16.6686
  40   2.0000      -0.595429       -16.2025
  41   2.0000      -0.568769       -15.4770
  42   2.0000      -0.564803       -15.3691
  43   2.0000      -0.556767       -15.1504
  44   2.0000      -0.526730       -14.3330
  45   2.0000      -0.520866       -14.1735
  46   2.0000      -0.519845       -14.1457
  47   2.0000      -0.509814       -13.8727
  48   2.0000      -0.506433       -13.7808
  49   2.0000      -0.494762       -13.4632
  50   2.0000      -0.485715       -13.2170
  51   2.0000      -0.475686       -12.9441
  52   2.0000      -0.467914       -12.7326
  53   2.0000      -0.463471       -12.6117
  54   2.0000      -0.459440       -12.5020
  55   2.0000      -0.450816       -12.2673
  56   2.0000      -0.446056       -12.1378
  57   2.0000      -0.439226       -11.9519
  58   2.0000      -0.434231       -11.8160
  59   2.0000      -0.423010       -11.5107
  60   2.0000      -0.418678       -11.3928
  61   2.0000      -0.412402       -11.2220
  62   2.0000      -0.411348       -11.1933
  63   2.0000      -0.340054        -9.2533
  64   2.0000      -0.334398        -9.0994
  65   2.0000      -0.322151        -8.7662
  66   2.0000      -0.301564        -8.2060
  67   0.0000       0.037725         1.0265
  68   0.0000       0.053546         1.4571
  69   0.0000       0.110852         3.0164
  70   0.0000       0.118325         3.2198
  71   0.0000       0.129857         3.5336

MULLIKEN ATOMIC CHARGES
-----------------------
   0 S :    0.100736
   1 C :   -0.108667
   2 C :   -0.064807
   3 C :    0.041759
   4 C :   -0.164868
   5 H :    0.020391
   6 C :    0.060028
   7 H :    0.026478
   8 H :    0.027705
   9 C :   -0.072142
  10 H :    0.021889
  11 H :    0.022138
  12 C :   -0.033725
  13 H :    0.046372
  14 H :    0.027034
  15 H :    0.019218
  16 S :    0.112350
  17 C :   -0.101104
  18 C :   -0.033783
  19 C :   -0.043401
  20 C :   -0.190445
  21 H :    0.033873
  22 C :    0.077141
  23 H :    0.023829
  24 H :    0.037885
  25 C :   -0.088819
  26 H :    0.027106
  27 H :    0.043711
  28 C :   -0.062818
  29 H :    0.019469
  30 H :    0.027657
  31 H :    0.043645
  32 H :    0.035109
  33 H :    0.069054
Sum of atomic charges:    0.0000000

LOEWDIN ATOMIC CHARGES
----------------------
   0 S :    0.379541
   1 C :   -0.167677
   2 C :   -0.061043
   3 C :   -0.058154
   4 C :   -0.192159
   5 H :    0.035982
   6 C :   -0.039214
   7 H :    0.034162
   8 H :    0.034042
   9 C :   -0.043672
  10 H :    0.024416
  11 H :    0.024009
  12 C :   -0.062519
  13 H :    0.028119
  14 H :    0.027201
  15 H :    0.020990
  16 S :    0.408450
  17 C :   -0.181092
  18 C :   -0.078332
  19 C :   -0.054486
  20 C :   -0.215021
  21 H :    0.040941
  22 C :   -0.031779
  23 H :    0.029233
  24 H :    0.032603
  25 C :   -0.039126
  26 H :    0.015465
  27 H :    0.028868
  28 C :   -0.075991
  29 H :    0.024310
  30 H :    0.028616
  31 H :    0.027184
  32 H :    0.016954
  33 H :    0.039176

  Mayer bond orders larger than 0.100000
B(  0-S ,  1-C ) :   1.1378 B(  0-S ,  4-C ) :   1.1286 B(  1-C ,  2-C ) :   1.5922
B(  1-C , 32-H ) :   0.9817 B(  2-C ,  3-C ) :   1.2204 B(  2-C ,  6-C ) :   1.0394
B(  3-C ,  4-C ) :   1.6082 B(  3-C ,  5-H ) :   0.9868 B(  4-C , 20-C ) :   1.0205
B(  6-C ,  7-H ) :   0.9360 B(  6-C ,  8-H ) :   0.9374 B(  6-C ,  9-C ) :   1.0589
B(  9-C , 10-H ) :   0.9519 B(  9-C , 11-H ) :   0.9564 B(  9-C , 12-C ) :   1.0788
B( 12-C , 13-H ) :   0.9780 B( 12-C , 14-H ) :   0.9722 B( 12-C , 15-H ) :   0.9758
B( 16-S , 17-C ) :   1.1560 B( 16-S , 20-C ) :   1.1487 B( 17-C , 18-C ) :   1.5955
B( 17-C , 33-H ) :   0.9574 B( 18-C , 19-C ) :   1.2732 B( 18-C , 21-H ) :   0.9820
B( 19-C , 20-C ) :   1.5844 B( 19-C , 22-C ) :   1.0346 B( 22-C , 23-H ) :   0.9285
B( 22-C , 24-H ) :   0.9323 B( 22-C , 25-C ) :   1.0681 B( 25-C , 26-H ) :   0.9467
B( 25-C , 27-H ) :   0.9622 B( 25-C , 28-C ) :   1.0777 B( 28-C , 29-H ) :   0.9734
B( 28-C , 30-H ) :   0.9724 B( 28-C , 31-H ) :   0.9764

Dispersion correction           -0.013651974
FINAL SINGLE POINT ENERGY     -1339.880370024112

DIPOLE MOMENT
-------------
                                X             Y             Z
Electronic contribution:    -18.52309      -5.37179      -4.40991
Nuclear contribution   :     18.93172       5.43859       4.69021
                        -----------------------------------------
Total Dipole Moment    :      0.40863       0.06679       0.28031
                        -----------------------------------------
Magnitude (a.u.)       :      0.50001
Magnitude (Debye)      :      1.27093

Rotational constants in cm-1:     0.019911     0.007106     0.006032
Rotational constants in MHz :   596.906520   213.040385   180.831899

                             ****ORCA TERMINATED NORMALLY****
TOTAL RUN TIME: 0 days 0 hours 0 minutes 31 seconds 657 msec
