                         Program Version 4.2.1 -  RELEASE  -
|  1> ! wB97X-D3 SP def2-SVP
|  2> %pal
|  3> nprocs 16
|  4> end
|  5>
|  6> * xyz 0 1
|  7> S 	 -8.6915 	 62.0832 	 53.3206
|  8> C 	 -8.22565 	 62.2427 	 54.9649
|  9> C 	 -7.23112 	 63.1835 	 55.1816
| 10> C 	 -6.71167 	 63.5676 	 53.9221
| 11> C 	 -7.30146 	 63.019 	 52.7966
| 12> H 	 -5.83118 	 64.2048 	 53.7693
| 13> C 	 -6.44431 	 63.4741 	 56.4513
| 14> H 	 -6.90734 	 62.8751 	 57.2363
| 15> H 	 -6.67512 	 64.4921 	 56.7744
| 16> C 	 -4.86277 	 63.2759 	 56.2657
| 17> H 	 -4.41088 	 64.0243 	 55.6059
| 18> H 	 -4.4048 	 63.5744 	 57.251
| 19> C 	 -4.49606 	 61.9152 	 55.6986
| 20> H 	 -3.4676 	 61.7354 	 55.9504
| 21> H 	 -5.19564 	 61.1875 	 56.112
| 22> H 	 -4.66936 	 61.7545 	 54.6349
| 23> S 	 -8.56557 	 64.3344 	 50.6326
| 24> C 	 -7.46942 	 64.9004 	 49.3933
| 25> C 	 -6.15496 	 64.5638 	 49.6281
| 26> C 	 -5.99567 	 63.7901 	 50.7946
| 27> C 	 -7.20256 	 63.5757 	 51.4521
| 28> H 	 -5.35888 	 65.1082 	 49.0344
| 29> C 	 -4.66134 	 63.2143 	 51.1712
| 30> H 	 -4.83166 	 62.5748 	 51.9662
| 31> H 	 -4.23376 	 64.1047 	 51.5396
| 32> C 	 -3.93172 	 62.5918 	 50.017
| 33> H 	 -3.7815 	 63.4428 	 49.2486
| 34> H 	 -4.3779 	 61.8287 	 49.4102
| 35> C 	 -2.64125 	 61.8746 	 50.4584
| 36> H 	 -2.89029 	 61.1369 	 51.2723
| 37> H 	 -1.92738 	 62.5967 	 50.9467
| 38> H 	 -2.09767 	 61.2532 	 49.7733
| 39> H 	 -8.76865 	 61.7165 	 55.7156
| 40> H 	 -7.77855 	 65.6177 	 48.6728
| 41> *
| 42>
| 43>                          ****END OF INPUT****

CARTESIAN COORDINATES (ANGSTROEM)
---------------------------------
  S     -8.691500   62.083200   53.320600
  C     -8.225650   62.242700   54.964900
  C     -7.231120   63.183500   55.181600
  C     -6.711670   63.567600   53.922100
  C     -7.301460   63.019000   52.796600
  H     -5.831180   64.204800   53.769300
  C     -6.444310   63.474100   56.451300
  H     -6.907340   62.875100   57.236300
  H     -6.675120   64.492100   56.774400
  C     -4.862770   63.275900   56.265700
  H     -4.410880   64.024300   55.605900
  H     -4.404800   63.574400   57.251000
  C     -4.496060   61.915200   55.698600
  H     -3.467600   61.735400   55.950400
  H     -5.195640   61.187500   56.112000
  H     -4.669360   61.754500   54.634900
  S     -8.565570   64.334400   50.632600
  C     -7.469420   64.900400   49.393300
  C     -6.154960   64.563800   49.628100
  C     -5.995670   63.790100   50.794600
  C     -7.202560   63.575700   51.452100
  H     -5.358880   65.108200   49.034400
  C     -4.661340   63.214300   51.171200
  H     -4.831660   62.574800   51.966200
  H     -4.233760   64.104700   51.539600
  C     -3.931720   62.591800   50.017000
  H     -3.781500   63.442800   49.248600
  H     -4.377900   61.828700   49.410200
  C     -2.641250   61.874600   50.458400
  H     -2.890290   61.136900   51.272300
  H     -1.927380   62.596700   50.946700
  H     -2.097670   61.253200   49.773300
  H     -8.768650   61.716500   55.715600
  H     -7.778550   65.617700   48.672800

 Total Charge           Charge          ....    0
 Multiplicity           Mult            ....    1
 Number of Electrons    NEL             ....  134
 Basis Dimension        Dim             ....  322

ORBITAL ENERGIES
----------------

  NO   OCC          E(Eh)            E(eV)
   0   2.0000     -88.965978     -2420.8873
   1   2.0000     -88.964730     -2420.8534
   2   2.0000     -10.324416      -280.9416
   3   2.0000     -10.322735      -280.8959
   4   2.0000     -10.313845      -280.6540
   5   2.0000     -10.312100      -280.6065
   6   2.0000     -10.300790      -280.2987
   7   2.0000     -10.299904      -280.2746
   8   2.0000     -10.298557      -280.2380
   9   2.0000     -10.295413      -280.1524
  10   2.0000     -10.293512      -280.1007
  11   2.0000     -10.292769      -280.0805
  12   2.0000     -10.291115      -280.0355
  13   2.0000     -10.282460      -279.8000
  14   2.0000     -10.281032      -279.7611
  15   2.0000     -10.275158      -279.6013
  16   2.0000      -8.080525      -219.8823
  17   2.0000      -8.080175      -219.8727
  18   2.0000      -6.039008      -164.3298
  19   2.0000      -6.038513      -164.3163
  20   2.0000      -6.035195      -164.2260
  21   2.0000      -6.034598      -164.2098
  22   2.0000      -6.031190      -164.1170
  23   2.0000      -6.031083      -164.1141
  24   2.0000      -1.008870       -27.4527
  25   2.0000      -0.986844       -26.8534
  26   2.0000      -0.916477       -24.9386
  27   2.0000      -0.907506       -24.6945
  28   2.0000      -0.869424       -23.6582
  29   2.0000      -0.852178       -23.1889
  30   2.0000      -0.845422       -23.0051
  31   2.0000      -0.813013       -22.1232
  32   2.0000      -0.786194       -21.3934
  33   2.0000      -0.772259       -21.0142
  34   2.0000      -0.708227       -19.2718
  35   2.0000      -0.705474       -19.1969
  36   2.0000      -0.695282       -18.9196
  37   2.0000      -0.652589       -17.7578
  38   2.0000      -0.643212       -17.5027
  39   2.0000      -0.621347       -16.9077
  40   2.0000      -0.598461       -16.2850
  41   2.0000      -0.566199       -15.4071
  42   2.0000      -0.561362       -15.2754
  43   2.0000      -0.554238       -15.0816
  44   2.0000      -0.533880       -14.5276
  45   2.0000      -0.532267       -14.4837
  46   2.0000      -0.519941       -14.1483
  47   2.0000      -0.510834       -13.9005
  48   2.0000      -0.501762       -13.6536
  49   2.0000      -0.495716       -13.4891
  50   2.0000      -0.493289       -13.4231
  51   2.0000      -0.480883       -13.0855
  52   2.0000      -0.468281       -12.7426
  53   2.0000      -0.460784       -12.5386
  54   2.0000      -0.456809       -12.4304
  55   2.0000      -0.454854       -12.3772
  56   2.0000      -0.448540       -12.2054
  57   2.0000      -0.440092       -11.9755
  58   2.0000      -0.434988       -11.8366
  59   2.0000      -0.428262       -11.6536
  60   2.0000      -0.423720       -11.5300
  61   2.0000      -0.410121       -11.1600
  62   2.0000      -0.402716       -10.9585
  63   2.0000      -0.349490        -9.5101
  64   2.0000      -0.331132        -9.0106
  65   2.0000      -0.329140        -8.9564
  66   2.0000      -0.286657        -7.8003
  67   0.0000       0.032585         0.8867
  68   0.0000       0.066393         1.8067
  69   0.0000       0.113275         3.0824
  70   0.0000       0.121871         3.3163
  71   0.0000       0.128824         3.5055

MULLIKEN ATOMIC CHARGES
-----------------------
   0 S :    0.102680
   1 C :   -0.118812
   2 C :   -0.079261
   3 C :   -0.002034
   4 C :   -0.176654
   5 H :    0.016527
   6 C :    0.080939
   7 H :    0.020510
   8 H :    0.033917
   9 C :   -0.113711
  10 H :    0.030678
  11 H :    0.039090
  12 C :   -0.017671
  13 H :    0.039442
  14 H :    0.022469
  15 H :    0.042775
  16 S :    0.109153
  17 C :   -0.093369
  18 C :   -0.061299
  19 C :   -0.111738
  20 C :   -0.113256
  21 H :    0.049558
  22 C :    0.173989
  23 H :   -0.000551
  24 H :    0.025207
  25 C :   -0.082971
  26 H :    0.034374
  27 H :    0.034424
  28 C :   -0.062029
  29 H :    0.028534
  30 H :    0.028804
  31 H :    0.033590
  32 H :    0.040067
  33 H :    0.046628
Sum of atomic charges:    0.0000000

LOEWDIN ATOMIC CHARGES
----------------------
   0 S :    0.414203
   1 C :   -0.191648
   2 C :   -0.072660
   3 C :   -0.052318
   4 C :   -0.204180
   5 H :    0.030531
   6 C :   -0.030054
   7 H :    0.029008
   8 H :    0.033927
   9 C :   -0.043082
  10 H :    0.022226
  11 H :    0.031443
  12 C :   -0.067075
  13 H :    0.027438
  14 H :    0.027688
  15 H :    0.029322
  16 S :    0.398184
  17 C :   -0.180122
  18 C :   -0.081409
  19 C :   -0.055063
  20 C :   -0.201570
  21 H :    0.044441
  22 C :   -0.021293
  23 H :    0.018387
  24 H :    0.034037
  25 C :   -0.043191
  26 H :    0.030418
  27 H :    0.027388
  28 C :   -0.073095
  29 H :    0.030401
  30 H :    0.025727
  31 H :    0.021543
  32 H :    0.019250
  33 H :    0.021199

  Mayer bond orders larger than 0.100000
B(  0-S ,  1-C ) :   1.1768 B(  0-S ,  4-C ) :   1.1363 B(  1-C ,  2-C ) :   1.5695
B(  1-C , 32-H ) :   0.9687 B(  2-C ,  3-C ) :   1.2710 B(  2-C ,  6-C ) :   1.0232
B(  3-C ,  4-C ) :   1.5612 B(  3-C ,  5-H ) :   0.9835 B(  4-C , 20-C ) :   1.0392
B(  6-C ,  7-H ) :   0.9469 B(  6-C ,  8-H ) :   0.9309 B(  6-C ,  9-C ) :   1.0652
B(  9-C , 10-H ) :   0.9515 B(  9-C , 11-H ) :   0.9574 B(  9-C , 12-C ) :   1.0673
B( 12-C , 13-H ) :   0.9717 B( 12-C , 14-H ) :   0.9745 B( 12-C , 15-H ) :   0.9664
B( 16-S , 17-C ) :   1.1543 B( 16-S , 20-C ) :   1.1286 B( 17-C , 18-C ) :   1.6259
B( 17-C , 33-H ) :   0.9663 B( 18-C , 19-C ) :   1.2436 B( 18-C , 21-H ) :   0.9735
B( 19-C , 20-C ) :   1.6130 B( 19-C , 22-C ) :   1.0179 B( 22-C , 23-H ) :   0.9298
B( 22-C , 24-H ) :   0.9109 B( 22-C , 25-C ) :   1.0633 B( 25-C , 26-H ) :   0.9448
B( 25-C , 27-H ) :   0.9627 B( 25-C , 28-C ) :   1.0771 B( 28-C , 29-H ) :   0.9715
B( 28-C , 30-H ) :   0.9746 B( 28-C , 31-H ) :   0.9777

Dispersion correction           -0.015152700
FINAL SINGLE POINT ENERGY     -1339.862989650724

DIPOLE MOMENT
-------------
                                X             Y             Z
Electronic contribution:    -28.07379       4.38833      -7.98626
Nuclear contribution   :     28.68789      -4.15746       8.33572
                        -----------------------------------------
Total Dipole Moment    :      0.61409       0.23087       0.34946
                        -----------------------------------------
Magnitude (a.u.)       :      0.74333
Magnitude (Debye)      :      1.88939

Rotational constants in cm-1:     0.016301     0.010559     0.007317
Rotational constants in MHz :   488.702511   316.548519   219.347955

                             ****ORCA TERMINATED NORMALLY****
TOTAL RUN TIME: 0 days 0 hours 0 minutes 35 seconds 493 msec
