                         Program Version 4.2.1 -  RELEASE  -
|  1> ! wB97X-D3 SP def2-SVP
|  2> %pal
|  3> nprocs 16
|  4> end
|  5>
|  6> * xyz 0 1
|  7> S 	 -50.6325 	 65.704 	 127.514
|  8> C 	 -50.8585 	 64.2359 	 126.553
|  9> C 	 -50.0603 	 63.1887 	 127.025
| 10> C 	 -49.2576 	 63.6049 	 128.149
| 11> C 	 -49.4586 	 64.9302 	 128.536
| 12> H 	 -48.5169 	 62.9308 	 128.712
| 13> C 	 -50.1391 	 61.7539 	 126.48
| 14> H 	 -49.848 	 61.7684 	 125.408
| 15> H 	 -51.2592 	 61.5367 	 126.524
| 16> C 	 -49.4748 	 60.6865 	 127.254
| 17> H 	 -48.3987 	 60.727 	 127.263
| 18> H 	 -49.8967 	 60.6275 	 128.306
| 19> C 	 -49.9001 	 59.3163 	 126.656
| 20> H 	 -49.4682 	 58.4408 	 127.209
| 21> H 	 -50.9733 	 59.2156 	 126.623
| 22> H 	 -49.4676 	 59.1898 	 125.66
| 23> S 	 -48.087 	 67.2088 	 129.098
| 24> C 	 -47.4168 	 67.5088 	 130.663
| 25> C 	 -47.4455 	 66.3094 	 131.401
| 26> C 	 -48.2911 	 65.2991 	 130.834
| 27> C 	 -48.7822 	 65.6737 	 129.604
| 28> H 	 -47.0529 	 66.2457 	 132.381
| 29> C 	 -48.5367 	 63.8983 	 131.519
| 30> H 	 -47.6471 	 63.37 	 131.334
| 31> H 	 -49.2458 	 63.3073 	 130.979
| 32> C 	 -48.8894 	 63.8349 	 133
| 33> H 	 -48.0548 	 64.1673 	 133.65
| 34> H 	 -49.065 	 62.825 	 133.237
| 35> C 	 -50.2492 	 64.5562 	 133.337
| 36> H 	 -50.0244 	 65.6751 	 133.432
| 37> H 	 -50.7673 	 64.1497 	 134.232
| 38> H 	 -50.8845 	 64.3261 	 132.484
| 39> H 	 -51.5872 	 64.1647 	 125.778
| 40> H 	 -47.012 	 68.4271 	 130.973
| 41> *
| 42>
| 43>                          ****END OF INPUT****

CARTESIAN COORDINATES (ANGSTROEM)
---------------------------------
  S    -50.632500   65.704000  127.514000
  C    -50.858500   64.235900  126.553000
  C    -50.060300   63.188700  127.025000
  C    -49.257600   63.604900  128.149000
  C    -49.458600   64.930200  128.536000
  H    -48.516900   62.930800  128.712000
  C    -50.139100   61.753900  126.480000
  H    -49.848000   61.768400  125.408000
  H    -51.259200   61.536700  126.524000
  C    -49.474800   60.686500  127.254000
  H    -48.398700   60.727000  127.263000
  H    -49.896700   60.627500  128.306000
  C    -49.900100   59.316300  126.656000
  H    -49.468200   58.440800  127.209000
  H    -50.973300   59.215600  126.623000
  H    -49.467600   59.189800  125.660000
  S    -48.087000   67.208800  129.098000
  C    -47.416800   67.508800  130.663000
  C    -47.445500   66.309400  131.401000
  C    -48.291100   65.299100  130.834000
  C    -48.782200   65.673700  129.604000
  H    -47.052900   66.245700  132.381000
  C    -48.536700   63.898300  131.519000
  H    -47.647100   63.370000  131.334000
  H    -49.245800   63.307300  130.979000
  C    -48.889400   63.834900  133.000000
  H    -48.054800   64.167300  133.650000
  H    -49.065000   62.825000  133.237000
  C    -50.249200   64.556200  133.337000
  H    -50.024400   65.675100  133.432000
  H    -50.767300   64.149700  134.232000
  H    -50.884500   64.326100  132.484000
  H    -51.587200   64.164700  125.778000
  H    -47.012000   68.427100  130.973000

 Total Charge           Charge          ....    0
 Multiplicity           Mult            ....    1
 Number of Electrons    NEL             ....  134
 Basis Dimension        Dim             ....  322

ORBITAL ENERGIES
----------------

  NO   OCC          E(Eh)            E(eV)
   0   2.0000     -88.967003     -2420.9152
   1   2.0000     -88.961970     -2420.7783
   2   2.0000     -10.330246      -281.1003
   3   2.0000     -10.324937      -280.9558
   4   2.0000     -10.316808      -280.7346
   5   2.0000     -10.314359      -280.6680
   6   2.0000     -10.306607      -280.4570
   7   2.0000     -10.306514      -280.4545
   8   2.0000     -10.302571      -280.3472
   9   2.0000     -10.300640      -280.2947
  10   2.0000     -10.294293      -280.1219
  11   2.0000     -10.292531      -280.0740
  12   2.0000     -10.290784      -280.0265
  13   2.0000     -10.285933      -279.8945
  14   2.0000     -10.283080      -279.8168
  15   2.0000     -10.283062      -279.8163
  16   2.0000      -8.081416      -219.9065
  17   2.0000      -8.077143      -219.7902
  18   2.0000      -6.039916      -164.3545
  19   2.0000      -6.035838      -164.2435
  20   2.0000      -6.035594      -164.2369
  21   2.0000      -6.032340      -164.1483
  22   2.0000      -6.031558      -164.1270
  23   2.0000      -6.027953      -164.0289
  24   2.0000      -1.004581       -27.3361
  25   2.0000      -0.980665       -26.6852
  26   2.0000      -0.918219       -24.9860
  27   2.0000      -0.905377       -24.6366
  28   2.0000      -0.867961       -23.6184
  29   2.0000      -0.847462       -23.0606
  30   2.0000      -0.838652       -22.8209
  31   2.0000      -0.809529       -22.0284
  32   2.0000      -0.782464       -21.2919
  33   2.0000      -0.772448       -21.0194
  34   2.0000      -0.708995       -19.2927
  35   2.0000      -0.696867       -18.9627
  36   2.0000      -0.689138       -18.7524
  37   2.0000      -0.659041       -17.9334
  38   2.0000      -0.638466       -17.3735
  39   2.0000      -0.614800       -16.7296
  40   2.0000      -0.598950       -16.2983
  41   2.0000      -0.582407       -15.8481
  42   2.0000      -0.563801       -15.3418
  43   2.0000      -0.552835       -15.0434
  44   2.0000      -0.542903       -14.7731
  45   2.0000      -0.524214       -14.2646
  46   2.0000      -0.515114       -14.0170
  47   2.0000      -0.504496       -13.7280
  48   2.0000      -0.501197       -13.6383
  49   2.0000      -0.497716       -13.5435
  50   2.0000      -0.484055       -13.1718
  51   2.0000      -0.476006       -12.9528
  52   2.0000      -0.473419       -12.8824
  53   2.0000      -0.464478       -12.6391
  54   2.0000      -0.458889       -12.4870
  55   2.0000      -0.450085       -12.2474
  56   2.0000      -0.441192       -12.0055
  57   2.0000      -0.437783       -11.9127
  58   2.0000      -0.433520       -11.7967
  59   2.0000      -0.428479       -11.6595
  60   2.0000      -0.426485       -11.6052
  61   2.0000      -0.414564       -11.2809
  62   2.0000      -0.408654       -11.1201
  63   2.0000      -0.345037        -9.3889
  64   2.0000      -0.331721        -9.0266
  65   2.0000      -0.327420        -8.9096
  66   2.0000      -0.289614        -7.8808
  67   0.0000       0.026171         0.7121
  68   0.0000       0.073162         1.9908
  69   0.0000       0.111307         3.0288
  70   0.0000       0.117885         3.2078
  71   0.0000       0.137819         3.7503

MULLIKEN ATOMIC CHARGES
-----------------------
   0 S :    0.114332
   1 C :   -0.118827
   2 C :   -0.081115
   3 C :   -0.003828
   4 C :   -0.153716
   5 H :    0.043141
   6 C :    0.022668
   7 H :    0.049014
   8 H :    0.044253
   9 C :   -0.090309
  10 H :    0.040419
  11 H :    0.042844
  12 C :   -0.057804
  13 H :    0.036176
  14 H :    0.031778
  15 H :    0.027082
  16 S :    0.098868
  17 C :   -0.076337
  18 C :   -0.026356
  19 C :   -0.050607
  20 C :   -0.136120
  21 H :    0.007090
  22 C :    0.076595
  23 H :    0.025934
  24 H :    0.013602
  25 C :   -0.061526
  26 H :    0.033146
  27 H :    0.016032
  28 C :   -0.085859
  29 H :    0.057950
  30 H :    0.043932
  31 H :    0.035521
  32 H :    0.036746
  33 H :    0.045282
Sum of atomic charges:    0.0000000

LOEWDIN ATOMIC CHARGES
----------------------
   0 S :    0.410152
   1 C :   -0.191479
   2 C :   -0.062532
   3 C :   -0.077369
   4 C :   -0.203357
   5 H :    0.043465
   6 C :   -0.041930
   7 H :    0.037943
   8 H :    0.044316
   9 C :   -0.049371
  10 H :    0.022850
  11 H :    0.034715
  12 C :   -0.063817
  13 H :    0.029572
  14 H :    0.020976
  15 H :    0.022749
  16 S :    0.410182
  17 C :   -0.179102
  18 C :   -0.066552
  19 C :   -0.053886
  20 C :   -0.197742
  21 H :    0.021890
  22 C :   -0.026391
  23 H :    0.028625
  24 H :    0.025347
  25 C :   -0.041081
  26 H :    0.022132
  27 H :    0.019854
  28 C :   -0.071308
  29 H :    0.036407
  30 H :    0.027791
  31 H :    0.026067
  32 H :    0.020815
  33 H :    0.020067

  Mayer bond orders larger than 0.100000
B(  0-S ,  1-C ) :   1.1382 B(  0-S ,  4-C ) :   1.1683 B(  1-C ,  2-C ) :   1.5993
B(  1-C ,  4-C ) :   0.1042 B(  1-C , 32-H ) :   0.9798 B(  2-C ,  3-C ) :   1.2696
B(  2-C ,  6-C ) :   0.9889 B(  3-C ,  4-C ) :   1.5439 B(  3-C ,  5-H ) :   0.9725
B(  4-C , 20-C ) :   1.0214 B(  6-C ,  7-H ) :   0.9364 B(  6-C ,  8-H ) :   0.9457
B(  6-C ,  9-C ) :   1.0989 B(  9-C , 10-H ) :   0.9453 B(  9-C , 11-H ) :   0.9487
B(  9-C , 12-C ) :   1.0834 B( 12-C , 13-H ) :   0.9737 B( 12-C , 14-H ) :   0.9767
B( 12-C , 15-H ) :   0.9740 B( 16-S , 17-C ) :   1.1658 B( 16-S , 20-C ) :   1.1481
B( 17-C , 18-C ) :   1.5716 B( 17-C , 20-C ) :   0.1050 B( 17-C , 33-H ) :   0.9810
B( 18-C , 19-C ) :   1.2533 B( 18-C , 21-H ) :   0.9920 B( 19-C , 20-C ) :   1.6094
B( 19-C , 22-C ) :   1.0146 B( 22-C , 23-H ) :   0.9300 B( 22-C , 24-H ) :   0.9341
B( 22-C , 25-C ) :   1.0899 B( 25-C , 26-H ) :   0.9559 B( 25-C , 27-H ) :   0.9505
B( 25-C , 28-C ) :   1.0635 B( 28-C , 29-H ) :   0.9754 B( 28-C , 30-H ) :   0.9786
B( 28-C , 31-H ) :   0.9758

Dispersion correction           -0.013875857
FINAL SINGLE POINT ENERGY     -1339.879034096742

DIPOLE MOMENT
-------------
                                X             Y             Z
Electronic contribution:      2.52713      27.18280      -9.39001
Nuclear contribution   :     -2.44183     -27.95282       9.59212
                        -----------------------------------------
Total Dipole Moment    :      0.08530      -0.77002       0.20211
                        -----------------------------------------
Magnitude (a.u.)       :      0.80065
Magnitude (Debye)      :      2.03510

Rotational constants in cm-1:     0.017883     0.008428     0.006564
Rotational constants in MHz :   536.127751   252.675365   196.772789

                             ****ORCA TERMINATED NORMALLY****
TOTAL RUN TIME: 0 days 0 hours 0 minutes 34 seconds 586 msec
