                         Program Version 4.2.1 -  RELEASE  -
|  1> ! wB97X-D3 SP def2-SVP
|  2> %pal
|  3> nprocs 16
|  4> end
|  5>
|  6> * xyz 0 1
|  7> S 	 -40.7348 	 54.8661 	 109.667
|  8> C 	 -42.3549 	 54.1245 	 109.907
|  9> C 	 -43.0885 	 54.2617 	 108.749
| 10> C 	 -42.2862 	 54.793 	 107.661
| 11> C 	 -40.9738 	 55.1294 	 107.994
| 12> H 	 -42.5456 	 54.7593 	 106.618
| 13> C 	 -44.4997 	 53.8141 	 108.622
| 14> H 	 -44.8654 	 53.8995 	 107.657
| 15> H 	 -45.0592 	 54.463 	 109.303
| 16> C 	 -44.798 	 52.3543 	 109.021
| 17> H 	 -44.1875 	 51.6851 	 108.412
| 18> H 	 -44.5464 	 52.3396 	 110.119
| 19> C 	 -46.267 	 51.9817 	 108.857
| 20> H 	 -46.3144 	 50.9115 	 108.897
| 21> H 	 -46.9111 	 52.5275 	 109.506
| 22> H 	 -46.5563 	 52.2934 	 107.828
| 23> S 	 -38.5085 	 54.1792 	 107.193
| 24> C 	 -37.6198 	 54.978 	 105.915
| 25> C 	 -38.373 	 55.9234 	 105.291
| 26> C 	 -39.6006 	 56.1911 	 106.073
| 27> C 	 -39.8108 	 55.3283 	 107.1
| 28> H 	 -37.8451 	 56.391 	 104.426
| 29> C 	 -40.4961 	 57.4084 	 105.763
| 30> H 	 -41.4419 	 57.1008 	 106.209
| 31> H 	 -40.7206 	 57.3009 	 104.751
| 32> C 	 -39.9935 	 58.8365 	 106.02
| 33> H 	 -39.2781 	 59.1613 	 105.254
| 34> H 	 -39.4447 	 58.7564 	 106.993
| 35> C 	 -40.9138 	 59.9796 	 106.235
| 36> H 	 -41.1588 	 60.2083 	 105.194
| 37> H 	 -40.2665 	 60.8032 	 106.529
| 38> H 	 -41.6922 	 59.7688 	 106.986
| 39> H 	 -42.7445 	 53.6947 	 110.806
| 40> H 	 -36.6751 	 54.7186 	 105.584
| 41> *
| 42>
| 43>                          ****END OF INPUT****

CARTESIAN COORDINATES (ANGSTROEM)
---------------------------------
  S    -40.734800   54.866100  109.667000
  C    -42.354900   54.124500  109.907000
  C    -43.088500   54.261700  108.749000
  C    -42.286200   54.793000  107.661000
  C    -40.973800   55.129400  107.994000
  H    -42.545600   54.759300  106.618000
  C    -44.499700   53.814100  108.622000
  H    -44.865400   53.899500  107.657000
  H    -45.059200   54.463000  109.303000
  C    -44.798000   52.354300  109.021000
  H    -44.187500   51.685100  108.412000
  H    -44.546400   52.339600  110.119000
  C    -46.267000   51.981700  108.857000
  H    -46.314400   50.911500  108.897000
  H    -46.911100   52.527500  109.506000
  H    -46.556300   52.293400  107.828000
  S    -38.508500   54.179200  107.193000
  C    -37.619800   54.978000  105.915000
  C    -38.373000   55.923400  105.291000
  C    -39.600600   56.191100  106.073000
  C    -39.810800   55.328300  107.100000
  H    -37.845100   56.391000  104.426000
  C    -40.496100   57.408400  105.763000
  H    -41.441900   57.100800  106.209000
  H    -40.720600   57.300900  104.751000
  C    -39.993500   58.836500  106.020000
  H    -39.278100   59.161300  105.254000
  H    -39.444700   58.756400  106.993000
  C    -40.913800   59.979600  106.235000
  H    -41.158800   60.208300  105.194000
  H    -40.266500   60.803200  106.529000
  H    -41.692200   59.768800  106.986000
  H    -42.744500   53.694700  110.806000
  H    -36.675100   54.718600  105.584000

 Total Charge           Charge          ....    0
 Multiplicity           Mult            ....    1
 Number of Electrons    NEL             ....  134
 Basis Dimension        Dim             ....  322

ORBITAL ENERGIES
----------------

  NO   OCC          E(Eh)            E(eV)
   0   2.0000     -88.964367     -2420.8435
   1   2.0000     -88.960143     -2420.7286
   2   2.0000     -10.331332      -281.1298
   3   2.0000     -10.326022      -280.9853
   4   2.0000     -10.315443      -280.6975
   5   2.0000     -10.310244      -280.5560
   6   2.0000     -10.307000      -280.4677
   7   2.0000     -10.303454      -280.3712
   8   2.0000     -10.297907      -280.2203
   9   2.0000     -10.296935      -280.1938
  10   2.0000     -10.290929      -280.0304
  11   2.0000     -10.285098      -279.8718
  12   2.0000     -10.282200      -279.7929
  13   2.0000     -10.282176      -279.7922
  14   2.0000     -10.278854      -279.7018
  15   2.0000     -10.274997      -279.5969
  16   2.0000      -8.079056      -219.8423
  17   2.0000      -8.075455      -219.7443
  18   2.0000      -6.037629      -164.2922
  19   2.0000      -6.034076      -164.1955
  20   2.0000      -6.033403      -164.1772
  21   2.0000      -6.029888      -164.0816
  22   2.0000      -6.029865      -164.0810
  23   2.0000      -6.026044      -163.9770
  24   2.0000      -1.007493       -27.4153
  25   2.0000      -0.983946       -26.7745
  26   2.0000      -0.919428       -25.0189
  27   2.0000      -0.907828       -24.7032
  28   2.0000      -0.872884       -23.7524
  29   2.0000      -0.854785       -23.2599
  30   2.0000      -0.844063       -22.9681
  31   2.0000      -0.819392       -22.2968
  32   2.0000      -0.784917       -21.3587
  33   2.0000      -0.775887       -21.1130
  34   2.0000      -0.705412       -19.1952
  35   2.0000      -0.697488       -18.9796
  36   2.0000      -0.686988       -18.6939
  37   2.0000      -0.657143       -17.8818
  38   2.0000      -0.641651       -17.4602
  39   2.0000      -0.616122       -16.7655
  40   2.0000      -0.586880       -15.9698
  41   2.0000      -0.582261       -15.8441
  42   2.0000      -0.574357       -15.6291
  43   2.0000      -0.570561       -15.5258
  44   2.0000      -0.536302       -14.5935
  45   2.0000      -0.527073       -14.3424
  46   2.0000      -0.519136       -14.1264
  47   2.0000      -0.516849       -14.0642
  48   2.0000      -0.508630       -13.8405
  49   2.0000      -0.502079       -13.6623
  50   2.0000      -0.491836       -13.3835
  51   2.0000      -0.484807       -13.1923
  52   2.0000      -0.472185       -12.8488
  53   2.0000      -0.465919       -12.6783
  54   2.0000      -0.459305       -12.4983
  55   2.0000      -0.444903       -12.1064
  56   2.0000      -0.443198       -12.0600
  57   2.0000      -0.439267       -11.9531
  58   2.0000      -0.425453       -11.5772
  59   2.0000      -0.420365       -11.4387
  60   2.0000      -0.419342       -11.4109
  61   2.0000      -0.414762       -11.2862
  62   2.0000      -0.394266       -10.7285
  63   2.0000      -0.346271        -9.4225
  64   2.0000      -0.330111        -8.9828
  65   2.0000      -0.322979        -8.7887
  66   2.0000      -0.300760        -8.1841
  67   0.0000       0.031780         0.8648
  68   0.0000       0.074948         2.0394
  69   0.0000       0.112256         3.0546
  70   0.0000       0.120540         3.2801
  71   0.0000       0.134014         3.6467

MULLIKEN ATOMIC CHARGES
-----------------------
   0 S :    0.103876
   1 C :   -0.132013
   2 C :   -0.076999
   3 C :    0.052781
   4 C :   -0.174130
   5 H :    0.012124
   6 C :    0.092800
   7 H :   -0.008266
   8 H :    0.036034
   9 C :   -0.122855
  10 H :    0.039164
  11 H :    0.030565
  12 C :   -0.005019
  13 H :    0.039460
  14 H :    0.027268
  15 H :    0.017514
  16 S :    0.101959
  17 C :   -0.071736
  18 C :   -0.035929
  19 C :   -0.104379
  20 C :   -0.115802
  21 H :    0.038757
  22 C :    0.153236
  23 H :   -0.002086
  24 H :   -0.002680
  25 C :   -0.107931
  26 H :    0.026040
  27 H :    0.028810
  28 C :   -0.015707
  29 H :    0.022875
  30 H :    0.030832
  31 H :    0.051481
  32 H :    0.043305
  33 H :    0.026651
Sum of atomic charges:   -0.0000000

LOEWDIN ATOMIC CHARGES
----------------------
   0 S :    0.406867
   1 C :   -0.181777
   2 C :   -0.058458
   3 C :   -0.063654
   4 C :   -0.205603
   5 H :    0.027833
   6 C :   -0.031451
   7 H :    0.015231
   8 H :    0.037382
   9 C :   -0.036155
  10 H :    0.025832
  11 H :    0.023938
  12 C :   -0.058182
  13 H :    0.027863
  14 H :    0.021176
  15 H :    0.026044
  16 S :    0.399699
  17 C :   -0.167106
  18 C :   -0.076580
  19 C :   -0.051024
  20 C :   -0.205835
  21 H :    0.043782
  22 C :   -0.034873
  23 H :    0.028574
  24 H :    0.020395
  25 C :   -0.049835
  26 H :    0.024900
  27 H :    0.025557
  28 C :   -0.061773
  29 H :    0.026174
  30 H :    0.030885
  31 H :    0.031438
  32 H :    0.024365
  33 H :    0.014372

  Mayer bond orders larger than 0.100000
B(  0-S ,  1-C ) :   1.1257 B(  0-S ,  4-C ) :   1.1686 B(  1-C ,  2-C ) :   1.6017
B(  1-C , 32-H ) :   0.9774 B(  2-C ,  3-C ) :   1.2390 B(  2-C ,  6-C ) :   1.0305
B(  3-C ,  4-C ) :   1.5653 B(  3-C ,  5-H ) :   0.9891 B(  4-C , 20-C ) :   1.0041
B(  6-C ,  7-H ) :   0.9402 B(  6-C ,  8-H ) :   0.9301 B(  6-C ,  9-C ) :   1.0709
B(  9-C , 10-H ) :   0.9596 B(  9-C , 11-H ) :   0.9505 B(  9-C , 12-C ) :   1.0901
B( 12-C , 13-H ) :   0.9740 B( 12-C , 14-H ) :   0.9733 B( 12-C , 15-H ) :   0.9711
B( 16-S , 17-C ) :   1.1433 B( 16-S , 20-C ) :   1.1190 B( 17-C , 18-C ) :   1.6675
B( 17-C , 33-H ) :   0.9727 B( 18-C , 19-C ) :   1.1713 B( 18-C , 21-H ) :   0.9871
B( 19-C , 20-C ) :   1.6652 B( 19-C , 22-C ) :   1.0442 B( 22-C , 23-H ) :   0.9229
B( 22-C , 24-H ) :   0.9186 B( 22-C , 25-C ) :   1.0449 B( 25-C , 26-H ) :   0.9544
B( 25-C , 27-H ) :   0.9608 B( 25-C , 28-C ) :   1.0953 B( 28-C , 29-H ) :   0.9774
B( 28-C , 30-H ) :   0.9686 B( 28-C , 31-H ) :   0.9723

Dispersion correction           -0.013176128
FINAL SINGLE POINT ENERGY     -1339.853712355498

DIPOLE MOMENT
-------------
                                X             Y             Z
Electronic contribution:     21.00460      -7.29770       5.63818
Nuclear contribution   :    -21.41885       7.35049      -6.03394
                        -----------------------------------------
Total Dipole Moment    :     -0.41425       0.05279      -0.39577
                        -----------------------------------------
Magnitude (a.u.)       :      0.57534
Magnitude (Debye)      :      1.46241

Rotational constants in cm-1:     0.019724     0.007183     0.006137
Rotational constants in MHz :   591.298879   215.345063   183.969570

                             ****ORCA TERMINATED NORMALLY****
TOTAL RUN TIME: 0 days 0 hours 0 minutes 28 seconds 852 msec
