                         Program Version 4.2.1 -  RELEASE  -
|  1> ! wB97X-D3 SP def2-SVP
|  2> %pal
|  3> nprocs 16
|  4> end
|  5>
|  6> * xyz 0 1
|  7> S 	 31.626 	 13.7137 	 69.1607
|  8> C 	 30.3019 	 14.8029 	 68.6607
|  9> C 	 29.0767 	 14.2366 	 68.8503
| 10> C 	 29.2024 	 12.9145 	 69.3262
| 11> C 	 30.4922 	 12.4709 	 69.4689
| 12> H 	 28.4095 	 12.2339 	 69.4363
| 13> C 	 27.7722 	 14.9775 	 68.8295
| 14> H 	 27.9558 	 15.928 	 69.4609
| 15> H 	 26.9651 	 14.3777 	 69.2119
| 16> C 	 27.3778 	 15.3998 	 67.4242
| 17> H 	 27.9794 	 16.1316 	 66.9205
| 18> H 	 27.3224 	 14.5421 	 66.7744
| 19> C 	 25.8779 	 15.8356 	 67.3709
| 20> H 	 25.2925 	 15.0233 	 66.9539
| 21> H 	 25.4121 	 15.8794 	 68.3263
| 22> H 	 25.6922 	 16.8249 	 66.8549
| 23> S 	 32.5457 	 10.5868 	 69.4774
| 24> C 	 32.2639 	 9.01154 	 70.2086
| 25> C 	 31.0674 	 9.01809 	 70.8414
| 26> C 	 30.2592 	 10.1546 	 70.6992
| 27> C 	 30.8758 	 11.1352 	 69.9099
| 28> H 	 30.8573 	 8.2087 	 71.5129
| 29> C 	 28.9336 	 10.3166 	 71.3276
| 30> H 	 28.5042 	 9.33133 	 71.676
| 31> H 	 28.2091 	 10.7806 	 70.6955
| 32> C 	 29.1283 	 11.1165 	 72.591
| 33> H 	 29.5668 	 12.0862 	 72.4573
| 34> H 	 29.8323 	 10.5946 	 73.1906
| 35> C 	 27.8081 	 11.3601 	 73.3625
| 36> H 	 27.0324 	 11.8238 	 72.8135
| 37> H 	 28.0501 	 12.0535 	 74.0669
| 38> H 	 27.3415 	 10.4441 	 73.7475
| 39> H 	 30.4378 	 15.8178 	 68.3848
| 40> H 	 33.0427 	 8.23749 	 70.4184
| 41> *
| 42>
| 43>                          ****END OF INPUT****

CARTESIAN COORDINATES (ANGSTROEM)
---------------------------------
  S     31.626000   13.713700   69.160700
  C     30.301900   14.802900   68.660700
  C     29.076700   14.236600   68.850300
  C     29.202400   12.914500   69.326200
  C     30.492200   12.470900   69.468900
  H     28.409500   12.233900   69.436300
  C     27.772200   14.977500   68.829500
  H     27.955800   15.928000   69.460900
  H     26.965100   14.377700   69.211900
  C     27.377800   15.399800   67.424200
  H     27.979400   16.131600   66.920500
  H     27.322400   14.542100   66.774400
  C     25.877900   15.835600   67.370900
  H     25.292500   15.023300   66.953900
  H     25.412100   15.879400   68.326300
  H     25.692200   16.824900   66.854900
  S     32.545700   10.586800   69.477400
  C     32.263900    9.011540   70.208600
  C     31.067400    9.018090   70.841400
  C     30.259200   10.154600   70.699200
  C     30.875800   11.135200   69.909900
  H     30.857300    8.208700   71.512900
  C     28.933600   10.316600   71.327600
  H     28.504200    9.331330   71.676000
  H     28.209100   10.780600   70.695500
  C     29.128300   11.116500   72.591000
  H     29.566800   12.086200   72.457300
  H     29.832300   10.594600   73.190600
  C     27.808100   11.360100   73.362500
  H     27.032400   11.823800   72.813500
  H     28.050100   12.053500   74.066900
  H     27.341500   10.444100   73.747500
  H     30.437800   15.817800   68.384800
  H     33.042700    8.237490   70.418400

 Total Charge           Charge          ....    0
 Multiplicity           Mult            ....    1
 Number of Electrons    NEL             ....  134
 Basis Dimension        Dim             ....  322

ORBITAL ENERGIES
----------------

  NO   OCC          E(Eh)            E(eV)
   0   2.0000     -88.968558     -2420.9576
   1   2.0000     -88.963411     -2420.8175
   2   2.0000     -10.332453      -281.1603
   3   2.0000     -10.327725      -281.0317
   4   2.0000     -10.317395      -280.7506
   5   2.0000     -10.309818      -280.5444
   6   2.0000     -10.301807      -280.3264
   7   2.0000     -10.299399      -280.2609
   8   2.0000     -10.296274      -280.1759
   9   2.0000     -10.290177      -280.0099
  10   2.0000     -10.287628      -279.9406
  11   2.0000     -10.285060      -279.8707
  12   2.0000     -10.283689      -279.8334
  13   2.0000     -10.277808      -279.6734
  14   2.0000     -10.277471      -279.6642
  15   2.0000     -10.266164      -279.3565
  16   2.0000      -8.083397      -219.9604
  17   2.0000      -8.077172      -219.7910
  18   2.0000      -6.041969      -164.4103
  19   2.0000      -6.037975      -164.3016
  20   2.0000      -6.035840      -164.2436
  21   2.0000      -6.034002      -164.1935
  22   2.0000      -6.031857      -164.1352
  23   2.0000      -6.027800      -164.0248
  24   2.0000      -1.010325       -27.4923
  25   2.0000      -0.986562       -26.8457
  26   2.0000      -0.918754       -25.0006
  27   2.0000      -0.917109       -24.9558
  28   2.0000      -0.871025       -23.7018
  29   2.0000      -0.855069       -23.2676
  30   2.0000      -0.846135       -23.0245
  31   2.0000      -0.816104       -22.2073
  32   2.0000      -0.785187       -21.3660
  33   2.0000      -0.774288       -21.0694
  34   2.0000      -0.711512       -19.3612
  35   2.0000      -0.706284       -19.2190
  36   2.0000      -0.697206       -18.9719
  37   2.0000      -0.664634       -18.0856
  38   2.0000      -0.640851       -17.4384
  39   2.0000      -0.624617       -16.9967
  40   2.0000      -0.600702       -16.3459
  41   2.0000      -0.578276       -15.7357
  42   2.0000      -0.570406       -15.5215
  43   2.0000      -0.559709       -15.2304
  44   2.0000      -0.532520       -14.4906
  45   2.0000      -0.523503       -14.2452
  46   2.0000      -0.518655       -14.1133
  47   2.0000      -0.512754       -13.9527
  48   2.0000      -0.504552       -13.7296
  49   2.0000      -0.500765       -13.6265
  50   2.0000      -0.492565       -13.4034
  51   2.0000      -0.489776       -13.3275
  52   2.0000      -0.478262       -13.0142
  53   2.0000      -0.461346       -12.5539
  54   2.0000      -0.459536       -12.5046
  55   2.0000      -0.450781       -12.2664
  56   2.0000      -0.447035       -12.1644
  57   2.0000      -0.442403       -12.0384
  58   2.0000      -0.434235       -11.8161
  59   2.0000      -0.425051       -11.5662
  60   2.0000      -0.424267       -11.5449
  61   2.0000      -0.413836       -11.2610
  62   2.0000      -0.411204       -11.1894
  63   2.0000      -0.356644        -9.7048
  64   2.0000      -0.335523        -9.1301
  65   2.0000      -0.329059        -8.9542
  66   2.0000      -0.282722        -7.6933
  67   0.0000       0.018444         0.5019
  68   0.0000       0.080311         2.1854
  69   0.0000       0.093819         2.5529
  70   0.0000       0.123474         3.3599
  71   0.0000       0.144656         3.9363

MULLIKEN ATOMIC CHARGES
-----------------------
   0 S :    0.110430
   1 C :   -0.120630
   2 C :   -0.036513
   3 C :   -0.018773
   4 C :   -0.085866
   5 H :   -0.021125
   6 C :    0.064056
   7 H :    0.057946
   8 H :    0.017029
   9 C :   -0.078765
  10 H :    0.031932
  11 H :    0.028087
  12 C :   -0.066762
  13 H :    0.027732
  14 H :    0.013572
  15 H :    0.049843
  16 S :    0.076386
  17 C :   -0.091489
  18 C :   -0.033662
  19 C :   -0.025799
  20 C :   -0.151001
  21 H :    0.007405
  22 C :    0.077032
  23 H :    0.022725
  24 H :    0.014259
  25 C :   -0.085609
  26 H :    0.030706
  27 H :    0.013781
  28 C :    0.023763
  29 H :    0.007891
  30 H :    0.010886
  31 H :    0.026680
  32 H :    0.029040
  33 H :    0.074812
Sum of atomic charges:   -0.0000000

LOEWDIN ATOMIC CHARGES
----------------------
   0 S :    0.408811
   1 C :   -0.180763
   2 C :   -0.060303
   3 C :   -0.068717
   4 C :   -0.196948
   5 H :    0.018922
   6 C :   -0.028351
   7 H :    0.047609
   8 H :    0.027774
   9 C :   -0.040959
  10 H :    0.020982
  11 H :    0.026164
  12 C :   -0.074033
  13 H :    0.025801
  14 H :    0.016679
  15 H :    0.034138
  16 S :    0.368878
  17 C :   -0.189147
  18 C :   -0.074649
  19 C :   -0.054672
  20 C :   -0.168535
  21 H :    0.029124
  22 C :   -0.029456
  23 H :    0.036822
  24 H :    0.021015
  25 C :   -0.028585
  26 H :    0.024286
  27 H :    0.020568
  28 C :   -0.055655
  29 H :    0.018947
  30 H :    0.016171
  31 H :    0.025321
  32 H :    0.019089
  33 H :    0.043674

  Mayer bond orders larger than 0.100000
B(  0-S ,  1-C ) :   1.1220 B(  0-S ,  4-C ) :   1.1531 B(  1-C ,  2-C ) :   1.6141
B(  1-C , 32-H ) :   0.9725 B(  2-C ,  3-C ) :   1.2467 B(  2-C ,  6-C ) :   1.0184
B(  3-C ,  4-C ) :   1.5547 B(  3-C ,  5-H ) :   1.0062 B(  4-C , 20-C ) :   1.0808
B(  6-C ,  7-H ) :   0.9366 B(  6-C ,  8-H ) :   0.9427 B(  6-C ,  9-C ) :   1.0677
B(  9-C , 10-H ) :   0.9650 B(  9-C , 11-H ) :   0.9663 B(  9-C , 12-C ) :   1.0601
B( 12-C , 13-H ) :   0.9824 B( 12-C , 14-H ) :   0.9735 B( 12-C , 15-H ) :   0.9770
B( 16-S , 17-C ) :   1.1387 B( 16-S , 20-C ) :   1.1284 B( 17-C , 18-C ) :   1.6190
B( 17-C , 20-C ) :   0.1041 B( 17-C , 33-H ) :   0.9568 B( 18-C , 19-C ) :   1.2650
B( 18-C , 21-H ) :   0.9859 B( 19-C , 20-C ) :   1.5594 B( 19-C , 22-C ) :   1.0552
B( 22-C , 23-H ) :   0.9270 B( 22-C , 24-H ) :   0.9342 B( 22-C , 25-C ) :   1.0643
B( 25-C , 26-H ) :   0.9576 B( 25-C , 27-H ) :   0.9502 B( 25-C , 28-C ) :   1.0843
B( 28-C , 29-H ) :   0.9701 B( 28-C , 30-H ) :   0.9703 B( 28-C , 31-H ) :   0.9725

Dispersion correction           -0.014002772
FINAL SINGLE POINT ENERGY     -1339.864705266738

DIPOLE MOMENT
-------------
                                X             Y             Z
Electronic contribution:     28.66648      -7.91264      -6.02667
Nuclear contribution   :    -29.32830       7.97308       6.41159
                        -----------------------------------------
Total Dipole Moment    :     -0.66182       0.06044       0.38492
                        -----------------------------------------
Magnitude (a.u.)       :      0.76800
Magnitude (Debye)      :      1.95210

Rotational constants in cm-1:     0.019474     0.008354     0.006499
Rotational constants in MHz :   583.821754   250.442943   194.849305

                             ****ORCA TERMINATED NORMALLY****
TOTAL RUN TIME: 0 days 0 hours 0 minutes 29 seconds 102 msec
