                         Program Version 4.2.1 -  RELEASE  -
|  1> ! wB97X-D3 SP def2-SVP
|  2> %pal
|  3> nprocs 16
|  4> end
|  5>
|  6> * xyz 0 1
|  7> S 	 -55.6004 	 37.5994 	 89.1011
|  8> C 	 -56.5105 	 38.3356 	 90.3325
|  9> C 	 -56.8215 	 37.4659 	 91.3923
| 10> C 	 -56.4681 	 36.1409 	 91.013
| 11> C 	 -55.8502 	 36.0229 	 89.7739
| 12> H 	 -56.4984 	 35.3285 	 91.7201
| 13> C 	 -57.3626 	 37.8133 	 92.7403
| 14> H 	 -56.7883 	 38.676 	 93.0699
| 15> H 	 -57.2022 	 36.9498 	 93.4145
| 16> C 	 -58.8368 	 38.2998 	 92.8777
| 17> H 	 -59.4929 	 37.6172 	 92.3081
| 18> H 	 -59.1866 	 38.1788 	 93.9361
| 19> C 	 -58.9903 	 39.7549 	 92.4444
| 20> H 	 -58.5756 	 39.8018 	 91.4583
| 21> H 	 -59.9927 	 39.9881 	 92.2432
| 22> H 	 -58.3803 	 40.4657 	 92.9879
| 23> S 	 -53.4808 	 34.7206 	 89.1693
| 24> C 	 -53.4613 	 33.1687 	 88.5022
| 25> C 	 -54.7069 	 32.7866 	 88.2305
| 26> C 	 -55.7609 	 33.766 	 88.5029
| 27> C 	 -55.2606 	 34.8726 	 89.2057
| 28> H 	 -54.7641 	 31.8226 	 87.7528
| 29> C 	 -57.239 	 33.489 	 88.1654
| 30> H 	 -57.1461 	 33.0634 	 87.1562
| 31> H 	 -57.8179 	 34.4172 	 88.1699
| 32> C 	 -57.9505 	 32.4814 	 89.0843
| 33> H 	 -57.5559 	 31.4841 	 89.0295
| 34> H 	 -59.0039 	 32.3965 	 88.7163
| 35> C 	 -57.9856 	 32.8864 	 90.5687
| 36> H 	 -58.8165 	 33.5474 	 90.8529
| 37> H 	 -57.0692 	 33.4152 	 90.6858
| 38> H 	 -57.8727 	 32.0295 	 91.1667
| 39> H 	 -56.5335 	 39.416 	 90.4155
| 40> H 	 -52.7054 	 32.4524 	 88.3018
| 41> *
| 42>
| 43>                          ****END OF INPUT****

CARTESIAN COORDINATES (ANGSTROEM)
---------------------------------
  S    -55.600400   37.599400   89.101100
  C    -56.510500   38.335600   90.332500
  C    -56.821500   37.465900   91.392300
  C    -56.468100   36.140900   91.013000
  C    -55.850200   36.022900   89.773900
  H    -56.498400   35.328500   91.720100
  C    -57.362600   37.813300   92.740300
  H    -56.788300   38.676000   93.069900
  H    -57.202200   36.949800   93.414500
  C    -58.836800   38.299800   92.877700
  H    -59.492900   37.617200   92.308100
  H    -59.186600   38.178800   93.936100
  C    -58.990300   39.754900   92.444400
  H    -58.575600   39.801800   91.458300
  H    -59.992700   39.988100   92.243200
  H    -58.380300   40.465700   92.987900
  S    -53.480800   34.720600   89.169300
  C    -53.461300   33.168700   88.502200
  C    -54.706900   32.786600   88.230500
  C    -55.760900   33.766000   88.502900
  C    -55.260600   34.872600   89.205700
  H    -54.764100   31.822600   87.752800
  C    -57.239000   33.489000   88.165400
  H    -57.146100   33.063400   87.156200
  H    -57.817900   34.417200   88.169900
  C    -57.950500   32.481400   89.084300
  H    -57.555900   31.484100   89.029500
  H    -59.003900   32.396500   88.716300
  C    -57.985600   32.886400   90.568700
  H    -58.816500   33.547400   90.852900
  H    -57.069200   33.415200   90.685800
  H    -57.872700   32.029500   91.166700
  H    -56.533500   39.416000   90.415500
  H    -52.705400   32.452400   88.301800

 Total Charge           Charge          ....    0
 Multiplicity           Mult            ....    1
 Number of Electrons    NEL             ....  134
 Basis Dimension        Dim             ....  322

ORBITAL ENERGIES
----------------

  NO   OCC          E(Eh)            E(eV)
   0   2.0000     -88.968954     -2420.9683
   1   2.0000     -88.957968     -2420.6694
   2   2.0000     -10.326274      -280.9922
   3   2.0000     -10.324562      -280.9456
   4   2.0000     -10.313779      -280.6522
   5   2.0000     -10.309071      -280.5241
   6   2.0000     -10.305757      -280.4339
   7   2.0000     -10.302413      -280.3429
   8   2.0000     -10.294899      -280.1384
   9   2.0000     -10.294858      -280.1373
  10   2.0000     -10.292787      -280.0810
  11   2.0000     -10.292677      -280.0780
  12   2.0000     -10.285580      -279.8849
  13   2.0000     -10.283747      -279.8350
  14   2.0000     -10.271991      -279.5151
  15   2.0000     -10.264519      -279.3118
  16   2.0000      -8.084791      -219.9983
  17   2.0000      -8.073629      -219.6946
  18   2.0000      -6.043046      -164.4397
  19   2.0000      -6.039073      -164.3315
  20   2.0000      -6.035820      -164.2430
  21   2.0000      -6.032223      -164.1451
  22   2.0000      -6.027947      -164.0288
  23   2.0000      -6.024251      -163.9282
  24   2.0000      -1.012625       -27.5549
  25   2.0000      -0.990460       -26.9518
  26   2.0000      -0.915262       -24.9055
  27   2.0000      -0.906279       -24.6611
  28   2.0000      -0.877133       -23.8680
  29   2.0000      -0.856150       -23.2970
  30   2.0000      -0.840647       -22.8752
  31   2.0000      -0.817268       -22.2390
  32   2.0000      -0.786325       -21.3970
  33   2.0000      -0.775281       -21.0965
  34   2.0000      -0.715032       -19.4570
  35   2.0000      -0.700442       -19.0600
  36   2.0000      -0.691214       -18.8089
  37   2.0000      -0.650035       -17.6884
  38   2.0000      -0.645452       -17.5636
  39   2.0000      -0.624668       -16.9981
  40   2.0000      -0.592782       -16.1304
  41   2.0000      -0.575351       -15.6561
  42   2.0000      -0.552861       -15.0441
  43   2.0000      -0.551306       -15.0018
  44   2.0000      -0.542460       -14.7611
  45   2.0000      -0.538232       -14.6460
  46   2.0000      -0.526408       -14.3243
  47   2.0000      -0.517491       -14.0817
  48   2.0000      -0.510917       -13.9028
  49   2.0000      -0.491960       -13.3869
  50   2.0000      -0.489263       -13.3135
  51   2.0000      -0.480837       -13.0842
  52   2.0000      -0.470858       -12.8127
  53   2.0000      -0.467845       -12.7307
  54   2.0000      -0.465870       -12.6770
  55   2.0000      -0.446733       -12.1562
  56   2.0000      -0.438343       -11.9279
  57   2.0000      -0.436825       -11.8866
  58   2.0000      -0.432160       -11.7597
  59   2.0000      -0.427353       -11.6289
  60   2.0000      -0.424755       -11.5582
  61   2.0000      -0.415313       -11.3012
  62   2.0000      -0.402393       -10.9497
  63   2.0000      -0.340116        -9.2550
  64   2.0000      -0.328605        -8.9418
  65   2.0000      -0.323117        -8.7925
  66   2.0000      -0.303584        -8.2609
  67   0.0000       0.035602         0.9688
  68   0.0000       0.058727         1.5980
  69   0.0000       0.108721         2.9584
  70   0.0000       0.127906         3.4805
  71   0.0000       0.136938         3.7263

MULLIKEN ATOMIC CHARGES
-----------------------
   0 S :    0.143201
   1 C :   -0.125725
   2 C :   -0.097216
   3 C :    0.039825
   4 C :   -0.184167
   5 H :    0.020201
   6 C :    0.053229
   7 H :    0.027105
   8 H :    0.030610
   9 C :   -0.077263
  10 H :    0.029557
  11 H :    0.036453
  12 C :   -0.008913
  13 H :    0.000885
  14 H :    0.024418
  15 H :    0.033137
  16 S :    0.100153
  17 C :   -0.044613
  18 C :   -0.067400
  19 C :   -0.035064
  20 C :   -0.176291
  21 H :    0.009561
  22 C :    0.079700
  23 H :    0.032255
  24 H :    0.037294
  25 C :   -0.084900
  26 H :    0.019677
  27 H :    0.033745
  28 C :   -0.009880
  29 H :    0.041682
  30 H :    0.006224
  31 H :    0.017899
  32 H :    0.055817
  33 H :    0.038802
Sum of atomic charges:   -0.0000000

LOEWDIN ATOMIC CHARGES
----------------------
   0 S :    0.452023
   1 C :   -0.215646
   2 C :   -0.065009
   3 C :   -0.047512
   4 C :   -0.218671
   5 H :    0.029597
   6 C :   -0.034581
   7 H :    0.033135
   8 H :    0.035541
   9 C :   -0.037874
  10 H :    0.024890
  11 H :    0.026386
  12 C :   -0.065417
  13 H :    0.023103
  14 H :    0.023718
  15 H :    0.026369
  16 S :    0.403833
  17 C :   -0.197582
  18 C :   -0.085282
  19 C :   -0.047520
  20 C :   -0.201193
  21 H :    0.028014
  22 C :   -0.030740
  23 H :    0.036787
  24 H :    0.033640
  25 C :   -0.039670
  26 H :    0.018707
  27 H :    0.027803
  28 C :   -0.063385
  29 H :    0.028678
  30 H :    0.019372
  31 H :    0.021635
  32 H :    0.022746
  33 H :    0.034106

  Mayer bond orders larger than 0.100000
B(  0-S ,  1-C ) :   1.1830 B(  0-S ,  4-C ) :   1.1694 B(  1-C ,  2-C ) :   1.5506
B(  1-C ,  4-C ) :   0.1048 B(  1-C , 32-H ) :   0.9576 B(  2-C ,  3-C ) :   1.2999
B(  2-C ,  6-C ) :   1.0312 B(  3-C ,  4-C ) :   1.5420 B(  3-C ,  5-H ) :   0.9849
B(  4-C , 20-C ) :   1.0688 B(  6-C ,  7-H ) :   0.9359 B(  6-C ,  8-H ) :   0.9403
B(  6-C ,  9-C ) :   1.0604 B(  9-C , 10-H ) :   0.9557 B(  9-C , 11-H ) :   0.9572
B(  9-C , 12-C ) :   1.0805 B( 12-C , 13-H ) :   0.9670 B( 12-C , 14-H ) :   0.9670
B( 12-C , 15-H ) :   0.9729 B( 16-S , 17-C ) :   1.1437 B( 16-S , 20-C ) :   1.1234
B( 17-C , 18-C ) :   1.6669 B( 17-C , 33-H ) :   0.9639 B( 18-C , 19-C ) :   1.1968
B( 18-C , 21-H ) :   0.9878 B( 19-C , 20-C ) :   1.5894 B( 19-C , 22-C ) :   1.0476
B( 22-C , 23-H ) :   0.9288 B( 22-C , 24-H ) :   0.9379 B( 22-C , 25-C ) :   1.0805
B( 25-C , 26-H ) :   0.9584 B( 25-C , 27-H ) :   0.9572 B( 25-C , 28-C ) :   1.0714
B( 28-C , 29-H ) :   0.9756 B( 28-C , 30-H ) :   0.9732 B( 28-C , 31-H ) :   0.9667

Dispersion correction           -0.014988339
FINAL SINGLE POINT ENERGY     -1339.869187541787

DIPOLE MOMENT
-------------
                                X             Y             Z
Electronic contribution:     22.47379       1.13944     -12.88949
Nuclear contribution   :    -22.79503      -1.32694      13.14040
                        -----------------------------------------
Total Dipole Moment    :     -0.32123      -0.18750       0.25092
                        -----------------------------------------
Magnitude (a.u.)       :      0.44867
Magnitude (Debye)      :      1.14044

Rotational constants in cm-1:     0.022393     0.008293     0.006801
Rotational constants in MHz :   671.337710   248.622520   203.897666

                             ****ORCA TERMINATED NORMALLY****
TOTAL RUN TIME: 0 days 0 hours 0 minutes 30 seconds 864 msec
