                         Program Version 4.2.1 -  RELEASE  -
|  1> ! wB97X-D3 SP def2-SVP
|  2> %pal
|  3> nprocs 16
|  4> end
|  5>
|  6> * xyz 0 1
|  7> S 	 -49.6088 	 8.28679 	 87.6899
|  8> C 	 -48.9932 	 8.19422 	 89.3223
|  9> C 	 -49.5222 	 7.10599 	 89.9796
| 10> C 	 -50.1679 	 6.26052 	 89.0186
| 11> C 	 -50.164 	 6.71009 	 87.7152
| 12> H 	 -50.4187 	 5.20869 	 89.1711
| 13> C 	 -49.1099 	 6.64084 	 91.3911
| 14> H 	 -48.1012 	 6.17808 	 91.4135
| 15> H 	 -49.8437 	 5.83934 	 91.6486
| 16> C 	 -49.2506 	 7.6199 	 92.5807
| 17> H 	 -48.8457 	 7.06988 	 93.4478
| 18> H 	 -48.6951 	 8.5202 	 92.3985
| 19> C 	 -50.6529 	 7.95818 	 92.9611
| 20> H 	 -51.3018 	 8.55163 	 92.3214
| 21> H 	 -51.2125 	 7.06334 	 93.2628
| 22> H 	 -50.4116 	 8.61203 	 93.7709
| 23> S 	 -49.5671 	 4.83006 	 85.7055
| 24> C 	 -50.7533 	 4.59503 	 84.4693
| 25> C 	 -51.8312 	 5.43744 	 84.5533
| 26> C 	 -51.7866 	 6.29706 	 85.6964
| 27> C 	 -50.6548 	 6.03314 	 86.5267
| 28> H 	 -52.6416 	 5.33033 	 83.8501
| 29> C 	 -52.8303 	 7.41585 	 85.9129
| 30> H 	 -53.0508 	 7.78212 	 84.9458
| 31> H 	 -52.3085 	 8.16207 	 86.3888
| 32> C 	 -54.0148 	 7.08239 	 86.8476
| 33> H 	 -53.6817 	 6.64172 	 87.7481
| 34> H 	 -54.5943 	 6.28243 	 86.3681
| 35> C 	 -54.881 	 8.21891 	 87.1867
| 36> H 	 -54.4446 	 9.22808 	 87.4049
| 37> H 	 -55.4626 	 7.92366 	 88.0221
| 38> H 	 -55.5563 	 8.49146 	 86.3422
| 39> H 	 -48.4614 	 8.96169 	 89.7996
| 40> H 	 -50.655 	 3.90211 	 83.6523
| 41> *
| 42>
| 43>                          ****END OF INPUT****

CARTESIAN COORDINATES (ANGSTROEM)
---------------------------------
  S    -49.608800    8.286790   87.689900
  C    -48.993200    8.194220   89.322300
  C    -49.522200    7.105990   89.979600
  C    -50.167900    6.260520   89.018600
  C    -50.164000    6.710090   87.715200
  H    -50.418700    5.208690   89.171100
  C    -49.109900    6.640840   91.391100
  H    -48.101200    6.178080   91.413500
  H    -49.843700    5.839340   91.648600
  C    -49.250600    7.619900   92.580700
  H    -48.845700    7.069880   93.447800
  H    -48.695100    8.520200   92.398500
  C    -50.652900    7.958180   92.961100
  H    -51.301800    8.551630   92.321400
  H    -51.212500    7.063340   93.262800
  H    -50.411600    8.612030   93.770900
  S    -49.567100    4.830060   85.705500
  C    -50.753300    4.595030   84.469300
  C    -51.831200    5.437440   84.553300
  C    -51.786600    6.297060   85.696400
  C    -50.654800    6.033140   86.526700
  H    -52.641600    5.330330   83.850100
  C    -52.830300    7.415850   85.912900
  H    -53.050800    7.782120   84.945800
  H    -52.308500    8.162070   86.388800
  C    -54.014800    7.082390   86.847600
  H    -53.681700    6.641720   87.748100
  H    -54.594300    6.282430   86.368100
  C    -54.881000    8.218910   87.186700
  H    -54.444600    9.228080   87.404900
  H    -55.462600    7.923660   88.022100
  H    -55.556300    8.491460   86.342200
  H    -48.461400    8.961690   89.799600
  H    -50.655000    3.902110   83.652300

 Total Charge           Charge          ....    0
 Multiplicity           Mult            ....    1
 Number of Electrons    NEL             ....  134
 Basis Dimension        Dim             ....  322

ORBITAL ENERGIES
----------------

  NO   OCC          E(Eh)            E(eV)
   0   2.0000     -88.965852     -2420.8839
   1   2.0000     -88.963289     -2420.8142
   2   2.0000     -10.330693      -281.1125
   3   2.0000     -10.319791      -280.8158
   4   2.0000     -10.313995      -280.6581
   5   2.0000     -10.308913      -280.5198
   6   2.0000     -10.308908      -280.5196
   7   2.0000     -10.302055      -280.3332
   8   2.0000     -10.296659      -280.1863
   9   2.0000     -10.290522      -280.0193
  10   2.0000     -10.290118      -280.0084
  11   2.0000     -10.286829      -279.9189
  12   2.0000     -10.281567      -279.7757
  13   2.0000     -10.278345      -279.6880
  14   2.0000     -10.273357      -279.5523
  15   2.0000     -10.272245      -279.5220
  16   2.0000      -8.079859      -219.8641
  17   2.0000      -8.079454      -219.8531
  18   2.0000      -6.038307      -164.3107
  19   2.0000      -6.037760      -164.2958
  20   2.0000      -6.034515      -164.2075
  21   2.0000      -6.033712      -164.1856
  22   2.0000      -6.030688      -164.1034
  23   2.0000      -6.030369      -164.0947
  24   2.0000      -1.010395       -27.4942
  25   2.0000      -0.980850       -26.6903
  26   2.0000      -0.914148       -24.8752
  27   2.0000      -0.910788       -24.7838
  28   2.0000      -0.871860       -23.7245
  29   2.0000      -0.852886       -23.2082
  30   2.0000      -0.847134       -23.0517
  31   2.0000      -0.812102       -22.0984
  32   2.0000      -0.787241       -21.4219
  33   2.0000      -0.773601       -21.0508
  34   2.0000      -0.706012       -19.2116
  35   2.0000      -0.698423       -19.0051
  36   2.0000      -0.693674       -18.8758
  37   2.0000      -0.655525       -17.8377
  38   2.0000      -0.641621       -17.4594
  39   2.0000      -0.608678       -16.5630
  40   2.0000      -0.593393       -16.1471
  41   2.0000      -0.579843       -15.7783
  42   2.0000      -0.565543       -15.3892
  43   2.0000      -0.553312       -15.0564
  44   2.0000      -0.545682       -14.8488
  45   2.0000      -0.533125       -14.5071
  46   2.0000      -0.513813       -13.9816
  47   2.0000      -0.512339       -13.9415
  48   2.0000      -0.506523       -13.7832
  49   2.0000      -0.500594       -13.6219
  50   2.0000      -0.492411       -13.3992
  51   2.0000      -0.481509       -13.1025
  52   2.0000      -0.470783       -12.8107
  53   2.0000      -0.464334       -12.6352
  54   2.0000      -0.462026       -12.5724
  55   2.0000      -0.444698       -12.1008
  56   2.0000      -0.437214       -11.8972
  57   2.0000      -0.435808       -11.8589
  58   2.0000      -0.434538       -11.8244
  59   2.0000      -0.425033       -11.5657
  60   2.0000      -0.417410       -11.3583
  61   2.0000      -0.412956       -11.2371
  62   2.0000      -0.407742       -11.0952
  63   2.0000      -0.333835        -9.0841
  64   2.0000      -0.328355        -8.9350
  65   2.0000      -0.326372        -8.8810
  66   2.0000      -0.303439        -8.2570
  67   0.0000       0.041408         1.1268
  68   0.0000       0.052968         1.4413
  69   0.0000       0.106969         2.9108
  70   0.0000       0.116596         3.1727
  71   0.0000       0.129117         3.5134

MULLIKEN ATOMIC CHARGES
-----------------------
   0 S :    0.127049
   1 C :   -0.114808
   2 C :   -0.052883
   3 C :    0.030117
   4 C :   -0.183929
   5 H :    0.013599
   6 C :    0.025137
   7 H :    0.056193
   8 H :    0.018784
   9 C :   -0.076184
  10 H :    0.033507
  11 H :    0.024988
  12 C :   -0.045715
  13 H :    0.038311
  14 H :    0.032883
  15 H :    0.024977
  16 S :    0.109635
  17 C :   -0.079229
  18 C :   -0.039134
  19 C :   -0.057418
  20 C :   -0.173691
  21 H :    0.016562
  22 C :    0.153653
  23 H :    0.012344
  24 H :   -0.021330
  25 C :   -0.036130
  26 H :    0.017542
  27 H :    0.022313
  28 C :   -0.046211
  29 H :    0.033429
  30 H :    0.029141
  31 H :    0.026117
  32 H :    0.029877
  33 H :    0.050506
Sum of atomic charges:    0.0000000

LOEWDIN ATOMIC CHARGES
----------------------
   0 S :    0.444718
   1 C :   -0.184511
   2 C :   -0.067665
   3 C :   -0.064629
   4 C :   -0.231865
   5 H :    0.031037
   6 C :   -0.038572
   7 H :    0.037793
   8 H :    0.031085
   9 C :   -0.040859
  10 H :    0.033216
  11 H :    0.017668
  12 C :   -0.066521
  13 H :    0.024737
  14 H :    0.026229
  15 H :    0.028953
  16 S :    0.392481
  17 C :   -0.183767
  18 C :   -0.078923
  19 C :   -0.038682
  20 C :   -0.191135
  21 H :    0.031258
  22 C :   -0.018258
  23 H :    0.026035
  24 H :    0.012127
  25 C :   -0.035656
  26 H :    0.022393
  27 H :    0.026864
  28 C :   -0.070148
  29 H :    0.029861
  30 H :    0.024785
  31 H :    0.027367
  32 H :    0.015399
  33 H :    0.027186

  Mayer bond orders larger than 0.100000
B(  0-S ,  1-C ) :   1.1599 B(  0-S ,  4-C ) :   1.1691 B(  1-C ,  2-C ) :   1.5832
B(  1-C , 32-H ) :   0.9802 B(  2-C ,  3-C ) :   1.2512 B(  2-C ,  6-C ) :   1.0085
B(  3-C ,  4-C ) :   1.5814 B(  3-C ,  5-H ) :   0.9902 B(  4-C , 20-C ) :   1.0239
B(  6-C ,  7-H ) :   0.9468 B(  6-C ,  8-H ) :   0.9432 B(  6-C ,  9-C ) :   1.0755
B(  9-C , 10-H ) :   0.9525 B(  9-C , 11-H ) :   0.9590 B(  9-C , 12-C ) :   1.0788
B( 12-C , 13-H ) :   0.9756 B( 12-C , 14-H ) :   0.9717 B( 12-C , 15-H ) :   0.9737
B( 16-S , 17-C ) :   1.1626 B( 16-S , 20-C ) :   1.1317 B( 17-C , 18-C ) :   1.6186
B( 17-C , 20-C ) :   0.1017 B( 17-C , 33-H ) :   0.9635 B( 18-C , 19-C ) :   1.2409
B( 18-C , 21-H ) :   0.9911 B( 19-C , 20-C ) :   1.5914 B( 19-C , 22-C ) :   1.0346
B( 22-C , 23-H ) :   0.9356 B( 22-C , 24-H ) :   0.9148 B( 22-C , 25-C ) :   1.0649
B( 25-C , 26-H ) :   0.9541 B( 25-C , 27-H ) :   0.9493 B( 25-C , 28-C ) :   1.0948
B( 28-C , 29-H ) :   0.9730 B( 28-C , 30-H ) :   0.9718 B( 28-C , 31-H ) :   0.9712

Dispersion correction           -0.013922713
FINAL SINGLE POINT ENERGY     -1339.862695111465

DIPOLE MOMENT
-------------
                                X             Y             Z
Electronic contribution:     15.59067      -7.10664     -19.25461
Nuclear contribution   :    -15.84480       7.15336      19.57251
                        -----------------------------------------
Total Dipole Moment    :     -0.25413       0.04673       0.31791
                        -----------------------------------------
Magnitude (a.u.)       :      0.40967
Magnitude (Debye)      :      1.04130

Rotational constants in cm-1:     0.018984     0.008206     0.006577
Rotational constants in MHz :   569.133145   245.996449   197.159825

                             ****ORCA TERMINATED NORMALLY****
TOTAL RUN TIME: 0 days 0 hours 0 minutes 29 seconds 78 msec
