                         Program Version 4.2.1 -  RELEASE  -
|  1> ! wB97X-D3 SP def2-SVP
|  2> %pal
|  3> nprocs 16
|  4> end
|  5>
|  6> * xyz 0 1
|  7> S 	 -49.15 	 67.1005 	 126.677
|  8> C 	 -47.5918 	 66.6546 	 126.167
|  9> C 	 -46.8382 	 65.9744 	 127.064
| 10> C 	 -47.5307 	 65.8148 	 128.308
| 11> C 	 -48.8058 	 66.3538 	 128.264
| 12> H 	 -47.145 	 65.3342 	 129.128
| 13> C 	 -45.533 	 65.2662 	 126.77
| 14> H 	 -45.0374 	 65.0766 	 127.711
| 15> H 	 -44.8689 	 65.7838 	 126.112
| 16> C 	 -45.5757 	 63.9497 	 125.978
| 17> H 	 -46.2288 	 63.2525 	 126.526
| 18> H 	 -45.9594 	 63.973 	 124.906
| 19> C 	 -44.1547 	 63.3741 	 125.872
| 20> H 	 -43.5662 	 63.4316 	 126.802
| 21> H 	 -44.1812 	 62.3008 	 125.583
| 22> H 	 -43.5161 	 63.9304 	 125.217
| 23> S 	 -50.1589 	 67.9543 	 130.113
| 24> C 	 -51.5104 	 67.2453 	 130.849
| 25> C 	 -51.5023 	 65.9058 	 130.746
| 26> C 	 -50.4942 	 65.4118 	 129.869
| 27> C 	 -49.7913 	 66.4118 	 129.266
| 28> H 	 -52.3115 	 65.3585 	 131.282
| 29> C 	 -50.3754 	 63.916 	 129.511
| 30> H 	 -50.5894 	 63.3551 	 130.445
| 31> H 	 -49.327 	 63.73 	 129.172
| 32> C 	 -51.3067 	 63.4755 	 128.36
| 33> H 	 -51.2292 	 64.0976 	 127.472
| 34> H 	 -52.3419 	 63.6623 	 128.668
| 35> C 	 -51.0813 	 61.9665 	 127.945
| 36> H 	 -50.172 	 61.9688 	 127.359
| 37> H 	 -51.883 	 61.481 	 127.396
| 38> H 	 -50.6841 	 61.3299 	 128.725
| 39> H 	 -47.3462 	 66.7995 	 125.175
| 40> H 	 -52.2314 	 67.8219 	 131.47
| 41> *
| 42>
| 43>                          ****END OF INPUT****

CARTESIAN COORDINATES (ANGSTROEM)
---------------------------------
  S    -49.150000   67.100500  126.677000
  C    -47.591800   66.654600  126.167000
  C    -46.838200   65.974400  127.064000
  C    -47.530700   65.814800  128.308000
  C    -48.805800   66.353800  128.264000
  H    -47.145000   65.334200  129.128000
  C    -45.533000   65.266200  126.770000
  H    -45.037400   65.076600  127.711000
  H    -44.868900   65.783800  126.112000
  C    -45.575700   63.949700  125.978000
  H    -46.228800   63.252500  126.526000
  H    -45.959400   63.973000  124.906000
  C    -44.154700   63.374100  125.872000
  H    -43.566200   63.431600  126.802000
  H    -44.181200   62.300800  125.583000
  H    -43.516100   63.930400  125.217000
  S    -50.158900   67.954300  130.113000
  C    -51.510400   67.245300  130.849000
  C    -51.502300   65.905800  130.746000
  C    -50.494200   65.411800  129.869000
  C    -49.791300   66.411800  129.266000
  H    -52.311500   65.358500  131.282000
  C    -50.375400   63.916000  129.511000
  H    -50.589400   63.355100  130.445000
  H    -49.327000   63.730000  129.172000
  C    -51.306700   63.475500  128.360000
  H    -51.229200   64.097600  127.472000
  H    -52.341900   63.662300  128.668000
  C    -51.081300   61.966500  127.945000
  H    -50.172000   61.968800  127.359000
  H    -51.883000   61.481000  127.396000
  H    -50.684100   61.329900  128.725000
  H    -47.346200   66.799500  125.175000
  H    -52.231400   67.821900  131.470000

 Total Charge           Charge          ....    0
 Multiplicity           Mult            ....    1
 Number of Electrons    NEL             ....  134
 Basis Dimension        Dim             ....  322

ORBITAL ENERGIES
----------------

  NO   OCC          E(Eh)            E(eV)
   0   2.0000     -88.965246     -2420.8674
   1   2.0000     -88.956972     -2420.6423
   2   2.0000     -10.325601      -280.9739
   3   2.0000     -10.317023      -280.7405
   4   2.0000     -10.310603      -280.5658
   5   2.0000     -10.303354      -280.3685
   6   2.0000     -10.300625      -280.2942
   7   2.0000     -10.297353      -280.2052
   8   2.0000     -10.297280      -280.2032
   9   2.0000     -10.294237      -280.1204
  10   2.0000     -10.293034      -280.0877
  11   2.0000     -10.290863      -280.0286
  12   2.0000     -10.288561      -279.9660
  13   2.0000     -10.287162      -279.9279
  14   2.0000     -10.280735      -279.7530
  15   2.0000     -10.275794      -279.6186
  16   2.0000      -8.080714      -219.8874
  17   2.0000      -8.072790      -219.6718
  18   2.0000      -6.038995      -164.3294
  19   2.0000      -6.035169      -164.2253
  20   2.0000      -6.031624      -164.1288
  21   2.0000      -6.031189      -164.1170
  22   2.0000      -6.027352      -164.0126
  23   2.0000      -6.023381      -163.9045
  24   2.0000      -1.011121       -27.5140
  25   2.0000      -0.990159       -26.9436
  26   2.0000      -0.914501       -24.8848
  27   2.0000      -0.901033       -24.5183
  28   2.0000      -0.875826       -23.8324
  29   2.0000      -0.855518       -23.2798
  30   2.0000      -0.843881       -22.9632
  31   2.0000      -0.813516       -22.1369
  32   2.0000      -0.782495       -21.2928
  33   2.0000      -0.770326       -20.9616
  34   2.0000      -0.710169       -19.3247
  35   2.0000      -0.700135       -19.0516
  36   2.0000      -0.696174       -18.9438
  37   2.0000      -0.660704       -17.9787
  38   2.0000      -0.649677       -17.6786
  39   2.0000      -0.625909       -17.0319
  40   2.0000      -0.594345       -16.1729
  41   2.0000      -0.570643       -15.5280
  42   2.0000      -0.564745       -15.3675
  43   2.0000      -0.552593       -15.0368
  44   2.0000      -0.526236       -14.3196
  45   2.0000      -0.521983       -14.2039
  46   2.0000      -0.518067       -14.0973
  47   2.0000      -0.512132       -13.9358
  48   2.0000      -0.505218       -13.7477
  49   2.0000      -0.496196       -13.5022
  50   2.0000      -0.490523       -13.3478
  51   2.0000      -0.479462       -13.0468
  52   2.0000      -0.472013       -12.8441
  53   2.0000      -0.465709       -12.6726
  54   2.0000      -0.459048       -12.4913
  55   2.0000      -0.452477       -12.3125
  56   2.0000      -0.442082       -12.0297
  57   2.0000      -0.440999       -12.0002
  58   2.0000      -0.436731       -11.8840
  59   2.0000      -0.429345       -11.6831
  60   2.0000      -0.418536       -11.3889
  61   2.0000      -0.414588       -11.2815
  62   2.0000      -0.410993       -11.1837
  63   2.0000      -0.341563        -9.2944
  64   2.0000      -0.330082        -8.9820
  65   2.0000      -0.323212        -8.7951
  66   2.0000      -0.301319        -8.1993
  67   0.0000       0.035679         0.9709
  68   0.0000       0.062621         1.7040
  69   0.0000       0.112064         3.0494
  70   0.0000       0.117822         3.2061
  71   0.0000       0.129920         3.5353

MULLIKEN ATOMIC CHARGES
-----------------------
   0 S :    0.120892
   1 C :   -0.091329
   2 C :   -0.043392
   3 C :    0.086879
   4 C :   -0.204887
   5 H :   -0.019626
   6 C :    0.065982
   7 H :    0.019299
   8 H :    0.014693
   9 C :   -0.084191
  10 H :    0.024675
  11 H :    0.044831
  12 C :   -0.063228
  13 H :    0.020773
  14 H :    0.045496
  15 H :    0.024828
  16 S :    0.104653
  17 C :   -0.095648
  18 C :   -0.059160
  19 C :    0.001508
  20 C :   -0.177128
  21 H :    0.029433
  22 C :    0.060801
  23 H :    0.036068
  24 H :    0.022331
  25 C :   -0.062100
  26 H :    0.031039
  27 H :    0.019467
  28 C :   -0.038956
  29 H :    0.018713
  30 H :    0.047905
  31 H :    0.018642
  32 H :    0.014675
  33 H :    0.066064
Sum of atomic charges:   -0.0000000

LOEWDIN ATOMIC CHARGES
----------------------
   0 S :    0.417421
   1 C :   -0.186692
   2 C :   -0.066411
   3 C :   -0.034031
   4 C :   -0.184307
   5 H :    0.018769
   6 C :   -0.031532
   7 H :    0.029454
   8 H :    0.028065
   9 C :   -0.041898
  10 H :    0.019122
  11 H :    0.032399
  12 C :   -0.072205
  13 H :    0.024098
  14 H :    0.032984
  15 H :    0.019922
  16 S :    0.394790
  17 C :   -0.196854
  18 C :   -0.088654
  19 C :   -0.049183
  20 C :   -0.198811
  21 H :    0.039052
  22 C :   -0.029351
  23 H :    0.034714
  24 H :    0.029673
  25 C :   -0.037229
  26 H :    0.024795
  27 H :    0.019825
  28 C :   -0.073246
  29 H :    0.026399
  30 H :    0.028083
  31 H :    0.023954
  32 H :    0.009626
  33 H :    0.037258

  Mayer bond orders larger than 0.100000
B(  0-S ,  1-C ) :   1.1572 B(  0-S ,  4-C ) :   1.1410 B(  1-C ,  2-C ) :   1.6130
B(  1-C , 32-H ) :   0.9767 B(  2-C ,  3-C ) :   1.2285 B(  2-C ,  6-C ) :   1.0324
B(  3-C ,  4-C ) :   1.5826 B(  3-C ,  5-H ) :   1.0087 B(  4-C , 20-C ) :   1.0666
B(  6-C ,  7-H ) :   0.9388 B(  6-C ,  8-H ) :   0.9422 B(  6-C ,  9-C ) :   1.0566
B(  9-C , 10-H ) :   0.9562 B(  9-C , 11-H ) :   0.9550 B(  9-C , 12-C ) :   1.0742
B( 12-C , 13-H ) :   0.9722 B( 12-C , 14-H ) :   0.9732 B( 12-C , 15-H ) :   0.9746
B( 16-S , 17-C ) :   1.1562 B( 16-S , 20-C ) :   1.1218 B( 17-C , 18-C ) :   1.6378
B( 17-C , 33-H ) :   0.9593 B( 18-C , 19-C ) :   1.2079 B( 18-C , 21-H ) :   0.9887
B( 19-C , 20-C ) :   1.6190 B( 19-C , 22-C ) :   1.0480 B( 22-C , 23-H ) :   0.9320
B( 22-C , 24-H ) :   0.9316 B( 22-C , 25-C ) :   1.0649 B( 25-C , 26-H ) :   0.9595
B( 25-C , 27-H ) :   0.9589 B( 25-C , 28-C ) :   1.0612 B( 28-C , 29-H ) :   0.9728
B( 28-C , 30-H ) :   0.9777 B( 28-C , 31-H ) :   0.9741

Dispersion correction           -0.014206488
FINAL SINGLE POINT ENERGY     -1339.874570290049

DIPOLE MOMENT
-------------
                                X             Y             Z
Electronic contribution:    -11.13819      26.90379       8.27272
Nuclear contribution   :     11.35064     -27.49533      -8.34403
                        -----------------------------------------
Total Dipole Moment    :      0.21245      -0.59154      -0.07131
                        -----------------------------------------
Magnitude (a.u.)       :      0.63257
Magnitude (Debye)      :      1.60786

Rotational constants in cm-1:     0.018973     0.008418     0.006743
Rotational constants in MHz :   568.781721   252.358327   202.159854

                             ****ORCA TERMINATED NORMALLY****
TOTAL RUN TIME: 0 days 0 hours 0 minutes 34 seconds 445 msec
