                         Program Version 4.2.1 -  RELEASE  -
|  1> ! wB97X-D3 SP def2-SVP
|  2> %pal
|  3> nprocs 16
|  4> end
|  5>
|  6> * xyz 0 1
|  7> S 	 -44.1061 	 34.8181 	 85.3192
|  8> C 	 -45.0419 	 35.0019 	 83.944
|  9> C 	 -45.2612 	 33.7849 	 83.2013
| 10> C 	 -44.6239 	 32.7755 	 83.952
| 11> C 	 -43.7879 	 33.1368 	 84.9434
| 12> H 	 -44.7072 	 31.784 	 83.7084
| 13> C 	 -45.969 	 33.5613 	 81.8677
| 14> H 	 -45.1161 	 33.5273 	 81.1647
| 15> H 	 -46.4729 	 34.4942 	 81.6524
| 16> C 	 -47.086 	 32.4894 	 81.7756
| 17> H 	 -47.4783 	 32.3798 	 80.6743
| 18> H 	 -46.6299 	 31.4675 	 81.7191
| 19> C 	 -48.083 	 32.6346 	 82.9719
| 20> H 	 -49.0208 	 31.9692 	 82.8233
| 21> H 	 -47.5147 	 32.3554 	 83.8616
| 22> H 	 -48.4439 	 33.6731 	 83.0435
| 23> S 	 -42.4808 	 32.836 	 87.3247
| 24> C 	 -41.5095 	 31.4489 	 87.6078
| 25> C 	 -41.5408 	 30.5045 	 86.6216
| 26> C 	 -42.2592 	 31.0899 	 85.4587
| 27> C 	 -42.8609 	 32.3126 	 85.6944
| 28> H 	 -41.0218 	 29.6316 	 86.5967
| 29> C 	 -42.2547 	 30.3014 	 84.1417
| 30> H 	 -41.2114 	 29.9528 	 84.0467
| 31> H 	 -42.4913 	 30.7744 	 83.2574
| 32> C 	 -43.2665 	 29.1255 	 84.2639
| 33> H 	 -44.2697 	 29.5679 	 84.3124
| 34> H 	 -43.2292 	 28.6168 	 85.287
| 35> C 	 -43.2427 	 28.0626 	 83.0657
| 36> H 	 -42.3674 	 27.9498 	 82.5072
| 37> H 	 -44.0582 	 28.3786 	 82.3911
| 38> H 	 -43.4143 	 27.0885 	 83.4037
| 39> H 	 -45.2945 	 35.9664 	 83.5167
| 40> H 	 -40.8197 	 31.2949 	 88.4548
| 41> *
| 42>
| 43>                          ****END OF INPUT****

CARTESIAN COORDINATES (ANGSTROEM)
---------------------------------
  S    -44.106100   34.818100   85.319200
  C    -45.041900   35.001900   83.944000
  C    -45.261200   33.784900   83.201300
  C    -44.623900   32.775500   83.952000
  C    -43.787900   33.136800   84.943400
  H    -44.707200   31.784000   83.708400
  C    -45.969000   33.561300   81.867700
  H    -45.116100   33.527300   81.164700
  H    -46.472900   34.494200   81.652400
  C    -47.086000   32.489400   81.775600
  H    -47.478300   32.379800   80.674300
  H    -46.629900   31.467500   81.719100
  C    -48.083000   32.634600   82.971900
  H    -49.020800   31.969200   82.823300
  H    -47.514700   32.355400   83.861600
  H    -48.443900   33.673100   83.043500
  S    -42.480800   32.836000   87.324700
  C    -41.509500   31.448900   87.607800
  C    -41.540800   30.504500   86.621600
  C    -42.259200   31.089900   85.458700
  C    -42.860900   32.312600   85.694400
  H    -41.021800   29.631600   86.596700
  C    -42.254700   30.301400   84.141700
  H    -41.211400   29.952800   84.046700
  H    -42.491300   30.774400   83.257400
  C    -43.266500   29.125500   84.263900
  H    -44.269700   29.567900   84.312400
  H    -43.229200   28.616800   85.287000
  C    -43.242700   28.062600   83.065700
  H    -42.367400   27.949800   82.507200
  H    -44.058200   28.378600   82.391100
  H    -43.414300   27.088500   83.403700
  H    -45.294500   35.966400   83.516700
  H    -40.819700   31.294900   88.454800

 Total Charge           Charge          ....    0
 Multiplicity           Mult            ....    1
 Number of Electrons    NEL             ....  134
 Basis Dimension        Dim             ....  322

ORBITAL ENERGIES
----------------

  NO   OCC          E(Eh)            E(eV)
   0   2.0000     -88.966901     -2420.9125
   1   2.0000     -88.962892     -2420.8034
   2   2.0000     -10.326327      -280.9936
   3   2.0000     -10.324294      -280.9383
   4   2.0000     -10.317904      -280.7644
   5   2.0000     -10.313275      -280.6385
   6   2.0000     -10.308193      -280.5002
   7   2.0000     -10.305865      -280.4368
   8   2.0000     -10.304402      -280.3970
   9   2.0000     -10.299682      -280.2686
  10   2.0000     -10.297071      -280.1976
  11   2.0000     -10.292004      -280.0597
  12   2.0000     -10.291671      -280.0506
  13   2.0000     -10.290276      -280.0126
  14   2.0000     -10.280023      -279.7336
  15   2.0000     -10.275424      -279.6085
  16   2.0000      -8.082996      -219.9495
  17   2.0000      -8.078543      -219.8283
  18   2.0000      -6.041333      -164.3930
  19   2.0000      -6.037345      -164.2845
  20   2.0000      -6.037170      -164.2797
  21   2.0000      -6.033836      -164.1890
  22   2.0000      -6.033011      -164.1666
  23   2.0000      -6.029055      -164.0589
  24   2.0000      -1.013320       -27.5738
  25   2.0000      -0.988794       -26.9065
  26   2.0000      -0.908701       -24.7270
  27   2.0000      -0.902646       -24.5622
  28   2.0000      -0.872777       -23.7495
  29   2.0000      -0.851659       -23.1748
  30   2.0000      -0.841438       -22.8967
  31   2.0000      -0.816931       -22.2298
  32   2.0000      -0.785295       -21.3690
  33   2.0000      -0.771852       -21.0032
  34   2.0000      -0.709287       -19.3007
  35   2.0000      -0.700830       -19.0706
  36   2.0000      -0.690699       -18.7949
  37   2.0000      -0.669674       -18.2228
  38   2.0000      -0.642441       -17.4817
  39   2.0000      -0.631683       -17.1890
  40   2.0000      -0.599239       -16.3061
  41   2.0000      -0.567210       -15.4346
  42   2.0000      -0.558360       -15.1938
  43   2.0000      -0.549793       -14.9606
  44   2.0000      -0.535619       -14.5749
  45   2.0000      -0.521459       -14.1896
  46   2.0000      -0.513832       -13.9821
  47   2.0000      -0.511333       -13.9141
  48   2.0000      -0.508130       -13.8269
  49   2.0000      -0.502154       -13.6643
  50   2.0000      -0.489091       -13.3088
  51   2.0000      -0.482091       -13.1184
  52   2.0000      -0.467108       -12.7106
  53   2.0000      -0.465042       -12.6544
  54   2.0000      -0.460298       -12.5253
  55   2.0000      -0.456503       -12.4221
  56   2.0000      -0.444774       -12.1029
  57   2.0000      -0.441752       -12.0207
  58   2.0000      -0.439248       -11.9525
  59   2.0000      -0.429528       -11.6880
  60   2.0000      -0.418139       -11.3781
  61   2.0000      -0.409054       -11.1309
  62   2.0000      -0.404180       -10.9983
  63   2.0000      -0.362479        -9.8636
  64   2.0000      -0.333893        -9.0857
  65   2.0000      -0.323754        -8.8098
  66   2.0000      -0.280161        -7.6236
  67   0.0000       0.025591         0.6964
  68   0.0000       0.083437         2.2704
  69   0.0000       0.098112         2.6698
  70   0.0000       0.115355         3.1390
  71   0.0000       0.121388         3.3031

MULLIKEN ATOMIC CHARGES
-----------------------
   0 S :    0.124221
   1 C :   -0.104040
   2 C :   -0.153899
   3 C :    0.036548
   4 C :   -0.105429
   5 H :   -0.058605
   6 C :    0.088629
   7 H :    0.052237
   8 H :    0.014743
   9 C :   -0.115818
  10 H :    0.040620
  11 H :    0.025457
  12 C :   -0.059880
  13 H :    0.054110
  14 H :    0.057681
  15 H :    0.042542
  16 S :    0.089768
  17 C :   -0.073299
  18 C :    0.018144
  19 C :   -0.121087
  20 C :   -0.086832
  21 H :   -0.015608
  22 C :    0.100679
  23 H :    0.029069
  24 H :    0.007805
  25 C :   -0.140982
  26 H :    0.031977
  27 H :    0.036960
  28 C :   -0.004832
  29 H :    0.019386
  30 H :    0.036046
  31 H :    0.021242
  32 H :    0.046850
  33 H :    0.065599
Sum of atomic charges:    0.0000000

LOEWDIN ATOMIC CHARGES
----------------------
   0 S :    0.434097
   1 C :   -0.222199
   2 C :   -0.061892
   3 C :   -0.060250
   4 C :   -0.190948
   5 H :    0.010738
   6 C :   -0.037067
   7 H :    0.041005
   8 H :    0.028479
   9 C :   -0.061348
  10 H :    0.037320
  11 H :    0.021539
  12 C :   -0.067079
  13 H :    0.038408
  14 H :    0.032943
  15 H :    0.028273
  16 S :    0.400141
  17 C :   -0.186701
  18 C :   -0.056152
  19 C :   -0.046813
  20 C :   -0.195792
  21 H :    0.015425
  22 C :   -0.025891
  23 H :    0.032583
  24 H :    0.015430
  25 C :   -0.042893
  26 H :    0.021973
  27 H :    0.027886
  28 C :   -0.063690
  29 H :    0.017346
  30 H :    0.031806
  31 H :    0.020967
  32 H :    0.025390
  33 H :    0.036965

  Mayer bond orders larger than 0.100000
B(  0-S ,  1-C ) :   1.1846 B(  0-S ,  4-C ) :   1.1393 B(  1-C ,  2-C ) :   1.5639
B(  1-C ,  4-C ) :   0.1031 B(  1-C , 32-H ) :   0.9605 B(  2-C ,  3-C ) :   1.2697
B(  2-C ,  6-C ) :   1.0104 B(  3-C ,  4-C ) :   1.5686 B(  3-C ,  5-H ) :   1.0031
B(  4-C , 20-C ) :   1.0722 B(  6-C ,  7-H ) :   0.9383 B(  6-C ,  8-H ) :   0.9379
B(  6-C ,  9-C ) :   1.0563 B(  9-C , 10-H ) :   0.9559 B(  9-C , 11-H ) :   0.9530
B(  9-C , 12-C ) :   1.0496 B( 12-C , 13-H ) :   0.9744 B( 12-C , 14-H ) :   0.9676
B( 12-C , 15-H ) :   0.9793 B( 16-S , 17-C ) :   1.1559 B( 16-S , 20-C ) :   1.0998
B( 17-C , 18-C ) :   1.6330 B( 17-C , 33-H ) :   0.9599 B( 18-C , 19-C ) :   1.2068
B( 18-C , 21-H ) :   1.0014 B( 19-C , 20-C ) :   1.6432 B( 19-C , 22-C ) :   1.0417
B( 22-C , 23-H ) :   0.9381 B( 22-C , 24-H ) :   0.9451 B( 22-C , 25-C ) :   1.0406
B( 25-C , 26-H ) :   0.9604 B( 25-C , 27-H ) :   0.9636 B( 25-C , 28-C ) :   1.0475
B( 28-C , 29-H ) :   0.9811 B( 28-C , 30-H ) :   0.9797 B( 28-C , 31-H ) :   0.9780

Dispersion correction           -0.014603812
FINAL SINGLE POINT ENERGY     -1339.843656919562

DIPOLE MOMENT
-------------
                                X             Y             Z
Electronic contribution:     12.49376      19.19530      20.74637
Nuclear contribution   :    -12.51348     -19.71770     -21.31101
                        -----------------------------------------
Total Dipole Moment    :     -0.01971      -0.52241      -0.56464
                        -----------------------------------------
Magnitude (a.u.)       :      0.76949
Magnitude (Debye)      :      1.95589

Rotational constants in cm-1:     0.016540     0.010196     0.006826
Rotational constants in MHz :   495.870084   305.672206   204.644291

                             ****ORCA TERMINATED NORMALLY****
TOTAL RUN TIME: 0 days 0 hours 0 minutes 30 seconds 853 msec
