                         Program Version 4.2.1 -  RELEASE  -
|  1> ! wB97X-D3 SP def2-SVP
|  2> %pal
|  3> nprocs 16
|  4> end
|  5>
|  6> * xyz 0 1
|  7> S 	 43.3913 	 14.3677 	 89.4232
|  8> C 	 44.7572 	 14.8704 	 88.5439
|  9> C 	 44.8396 	 14.5361 	 87.2262
| 10> C 	 43.5859 	 13.9238 	 86.8981
| 11> C 	 42.6272 	 13.9582 	 87.8844
| 12> H 	 43.2045 	 13.584 	 85.9217
| 13> C 	 46.0433 	 14.6896 	 86.3058
| 14> H 	 46.9136 	 14.6891 	 86.9229
| 15> H 	 46.1879 	 15.7029 	 85.9794
| 16> C 	 46.3044 	 13.6436 	 85.2153
| 17> H 	 45.6245 	 13.9203 	 84.4026
| 18> H 	 47.2996 	 13.8302 	 84.8305
| 19> C 	 46.0844 	 12.1504 	 85.4303
| 20> H 	 45.1228 	 11.9056 	 85.9211
| 21> H 	 46.2417 	 11.513 	 84.4949
| 22> H 	 46.8032 	 11.8433 	 86.1228
| 23> S 	 40.0499 	 14.5449 	 88.516
| 24> C 	 38.7716 	 13.4792 	 88.0567
| 25> C 	 39.247 	 12.4228 	 87.3076
| 26> C 	 40.6553 	 12.3558 	 87.2942
| 27> C 	 41.2462 	 13.4503 	 87.8333
| 28> H 	 38.6156 	 11.6755 	 86.8404
| 29> C 	 41.36 	 11.2912 	 86.5807
| 30> H 	 41.2203 	 10.3416 	 87.0269
| 31> H 	 42.4112 	 11.5127 	 86.5398
| 32> C 	 40.9203 	 11.1602 	 85.1363
| 33> H 	 41.0516 	 12.1138 	 84.5423
| 34> H 	 39.8184 	 10.9282 	 85.1915
| 35> C 	 41.6023 	 9.97971 	 84.3767
| 36> H 	 41.0105 	 9.89881 	 83.4447
| 37> H 	 41.5576 	 9.00107 	 84.8691
| 38> H 	 42.5874 	 10.2316 	 84.066
| 39> H 	 45.5713 	 15.4227 	 89.0632
| 40> H 	 37.7049 	 13.7364 	 88.2054
| 41> *
| 42>
| 43>                          ****END OF INPUT****

CARTESIAN COORDINATES (ANGSTROEM)
---------------------------------
  S     43.391300   14.367700   89.423200
  C     44.757200   14.870400   88.543900
  C     44.839600   14.536100   87.226200
  C     43.585900   13.923800   86.898100
  C     42.627200   13.958200   87.884400
  H     43.204500   13.584000   85.921700
  C     46.043300   14.689600   86.305800
  H     46.913600   14.689100   86.922900
  H     46.187900   15.702900   85.979400
  C     46.304400   13.643600   85.215300
  H     45.624500   13.920300   84.402600
  H     47.299600   13.830200   84.830500
  C     46.084400   12.150400   85.430300
  H     45.122800   11.905600   85.921100
  H     46.241700   11.513000   84.494900
  H     46.803200   11.843300   86.122800
  S     40.049900   14.544900   88.516000
  C     38.771600   13.479200   88.056700
  C     39.247000   12.422800   87.307600
  C     40.655300   12.355800   87.294200
  C     41.246200   13.450300   87.833300
  H     38.615600   11.675500   86.840400
  C     41.360000   11.291200   86.580700
  H     41.220300   10.341600   87.026900
  H     42.411200   11.512700   86.539800
  C     40.920300   11.160200   85.136300
  H     41.051600   12.113800   84.542300
  H     39.818400   10.928200   85.191500
  C     41.602300    9.979710   84.376700
  H     41.010500    9.898810   83.444700
  H     41.557600    9.001070   84.869100
  H     42.587400   10.231600   84.066000
  H     45.571300   15.422700   89.063200
  H     37.704900   13.736400   88.205400

 Total Charge           Charge          ....    0
 Multiplicity           Mult            ....    1
 Number of Electrons    NEL             ....  134
 Basis Dimension        Dim             ....  322

ORBITAL ENERGIES
----------------

  NO   OCC          E(Eh)            E(eV)
   0   2.0000     -88.964677     -2420.8519
   1   2.0000     -88.961007     -2420.7521
   2   2.0000     -10.325426      -280.9691
   3   2.0000     -10.320574      -280.8371
   4   2.0000     -10.317387      -280.7504
   5   2.0000     -10.309269      -280.5295
   6   2.0000     -10.302407      -280.3427
   7   2.0000     -10.295345      -280.1506
   8   2.0000     -10.294345      -280.1234
   9   2.0000     -10.293166      -280.0913
  10   2.0000     -10.292476      -280.0725
  11   2.0000     -10.290344      -280.0145
  12   2.0000     -10.288837      -279.9735
  13   2.0000     -10.280894      -279.7574
  14   2.0000     -10.280103      -279.7358
  15   2.0000     -10.278222      -279.6846
  16   2.0000      -8.080324      -219.8768
  17   2.0000      -8.076420      -219.7705
  18   2.0000      -6.038636      -164.3196
  19   2.0000      -6.035015      -164.2211
  20   2.0000      -6.034885      -164.2176
  21   2.0000      -6.030934      -164.1101
  22   2.0000      -6.030791      -164.1062
  23   2.0000      -6.027222      -164.0090
  24   2.0000      -1.011692       -27.5295
  25   2.0000      -0.991578       -26.9822
  26   2.0000      -0.916607       -24.9421
  27   2.0000      -0.912334       -24.8259
  28   2.0000      -0.869001       -23.6467
  29   2.0000      -0.852754       -23.2046
  30   2.0000      -0.846671       -23.0391
  31   2.0000      -0.817094       -22.2343
  32   2.0000      -0.790013       -21.4974
  33   2.0000      -0.776596       -21.1322
  34   2.0000      -0.706239       -19.2177
  35   2.0000      -0.696731       -18.9590
  36   2.0000      -0.687413       -18.7055
  37   2.0000      -0.662478       -18.0269
  38   2.0000      -0.643172       -17.5016
  39   2.0000      -0.622708       -16.9447
  40   2.0000      -0.603836       -16.4312
  41   2.0000      -0.571602       -15.5541
  42   2.0000      -0.561980       -15.2922
  43   2.0000      -0.552120       -15.0240
  44   2.0000      -0.540289       -14.7020
  45   2.0000      -0.524814       -14.2809
  46   2.0000      -0.519924       -14.1479
  47   2.0000      -0.510181       -13.8827
  48   2.0000      -0.498831       -13.5739
  49   2.0000      -0.496249       -13.5036
  50   2.0000      -0.489804       -13.3282
  51   2.0000      -0.481217       -13.0946
  52   2.0000      -0.471982       -12.8433
  53   2.0000      -0.468774       -12.7560
  54   2.0000      -0.460059       -12.5188
  55   2.0000      -0.453956       -12.3528
  56   2.0000      -0.449810       -12.2399
  57   2.0000      -0.440255       -11.9800
  58   2.0000      -0.438317       -11.9272
  59   2.0000      -0.430852       -11.7241
  60   2.0000      -0.420583       -11.4446
  61   2.0000      -0.412444       -11.2232
  62   2.0000      -0.404594       -11.0096
  63   2.0000      -0.343538        -9.3481
  64   2.0000      -0.332536        -9.0488
  65   2.0000      -0.328505        -8.9391
  66   2.0000      -0.293263        -7.9801
  67   0.0000       0.034730         0.9450
  68   0.0000       0.072379         1.9695
  69   0.0000       0.108172         2.9435
  70   0.0000       0.121121         3.2959
  71   0.0000       0.123316         3.3556

MULLIKEN ATOMIC CHARGES
-----------------------
   0 S :    0.124749
   1 C :   -0.133870
   2 C :   -0.068119
   3 C :   -0.015177
   4 C :   -0.144389
   5 H :    0.019780
   6 C :    0.123963
   7 H :   -0.003494
   8 H :    0.027599
   9 C :   -0.085163
  10 H :    0.025746
  11 H :    0.027743
  12 C :   -0.045941
  13 H :    0.040530
  14 H :    0.049699
  15 H :    0.016039
  16 S :    0.101564
  17 C :   -0.091256
  18 C :   -0.049553
  19 C :   -0.013991
  20 C :   -0.179297
  21 H :    0.021165
  22 C :    0.130472
  23 H :    0.014011
  24 H :    0.006835
  25 C :   -0.169682
  26 H :    0.045719
  27 H :    0.030678
  28 C :   -0.024341
  29 H :    0.032116
  30 H :    0.037922
  31 H :    0.028306
  32 H :    0.050208
  33 H :    0.069432
Sum of atomic charges:    0.0000000

LOEWDIN ATOMIC CHARGES
----------------------
   0 S :    0.414589
   1 C :   -0.204953
   2 C :   -0.067404
   3 C :   -0.064604
   4 C :   -0.194282
   5 H :    0.031625
   6 C :   -0.032856
   7 H :    0.027495
   8 H :    0.037581
   9 C :   -0.043183
  10 H :    0.021773
  11 H :    0.028032
  12 C :   -0.068476
  13 H :    0.028484
  14 H :    0.039594
  15 H :    0.016256
  16 S :    0.409260
  17 C :   -0.189429
  18 C :   -0.071805
  19 C :   -0.059731
  20 C :   -0.196770
  21 H :    0.030217
  22 C :   -0.032712
  23 H :    0.028344
  24 H :    0.025247
  25 C :   -0.041245
  26 H :    0.030049
  27 H :    0.022318
  28 C :   -0.065178
  29 H :    0.031896
  30 H :    0.027011
  31 H :    0.018810
  32 H :    0.028670
  33 H :    0.035377

  Mayer bond orders larger than 0.100000
B(  0-S ,  1-C ) :   1.1576 B(  0-S ,  4-C ) :   1.1428 B(  1-C ,  2-C ) :   1.6359
B(  1-C , 32-H ) :   0.9552 B(  2-C ,  3-C ) :   1.2184 B(  2-C ,  6-C ) :   1.0085
B(  3-C ,  4-C ) :   1.6135 B(  3-C ,  5-H ) :   0.9868 B(  4-C , 20-C ) :   1.0108
B(  6-C ,  7-H ) :   0.9285 B(  6-C ,  8-H ) :   0.9261 B(  6-C ,  9-C ) :   1.0715
B(  9-C , 10-H ) :   0.9535 B(  9-C , 11-H ) :   0.9535 B(  9-C , 12-C ) :   1.0812
B( 12-C , 13-H ) :   0.9696 B( 12-C , 14-H ) :   0.9710 B( 12-C , 15-H ) :   0.9714
B( 16-S , 17-C ) :   1.1655 B( 16-S , 20-C ) :   1.1381 B( 17-C , 18-C ) :   1.5953
B( 17-C , 33-H ) :   0.9644 B( 18-C , 19-C ) :   1.2298 B( 18-C , 21-H ) :   0.9890
B( 19-C , 20-C ) :   1.6201 B( 19-C , 22-C ) :   1.0646 B( 22-C , 23-H ) :   0.9095
B( 22-C , 24-H ) :   0.9314 B( 22-C , 25-C ) :   1.0663 B( 25-C , 26-H ) :   0.9541
B( 25-C , 27-H ) :   0.9522 B( 25-C , 28-C ) :   1.0817 B( 28-C , 29-H ) :   0.9735
B( 28-C , 30-H ) :   0.9733 B( 28-C , 31-H ) :   0.9755

Dispersion correction           -0.014759949
FINAL SINGLE POINT ENERGY     -1339.874959349669

DIPOLE MOMENT
-------------
                                X             Y             Z
Electronic contribution:    -12.79344      16.54883      23.69653
Nuclear contribution   :     13.08562     -16.86326     -24.25909
                        -----------------------------------------
Total Dipole Moment    :      0.29218      -0.31444      -0.56256
                        -----------------------------------------
Magnitude (a.u.)       :      0.70761
Magnitude (Debye)      :      1.79860

Rotational constants in cm-1:     0.016447     0.010702     0.006943
Rotational constants in MHz :   493.074374   320.844726   208.158513

                             ****ORCA TERMINATED NORMALLY****
TOTAL RUN TIME: 0 days 0 hours 0 minutes 32 seconds 43 msec
