                         Program Version 4.2.1 -  RELEASE  -
|  1> ! wB97X-D3 SP def2-SVP
|  2> %pal
|  3> nprocs 16
|  4> end
|  5>
|  6> * xyz 0 1
|  7> S 	 -17.931 	 32.9661 	 37.589
|  8> C 	 -18.5862 	 32.7444 	 35.923
|  9> C 	 -19.0442 	 34.0056 	 35.4255
| 10> C 	 -18.6707 	 35.1022 	 36.3077
| 11> C 	 -17.9554 	 34.717 	 37.4358
| 12> H 	 -18.9762 	 36.1449 	 36.0531
| 13> C 	 -19.8793 	 34.2137 	 34.173
| 14> H 	 -19.6652 	 33.3295 	 33.5471
| 15> H 	 -19.5141 	 35.0678 	 33.5711
| 16> C 	 -21.4428 	 34.3707 	 34.3491
| 17> H 	 -21.6106 	 35.2623 	 34.9439
| 18> H 	 -21.8616 	 34.6312 	 33.3336
| 19> C 	 -22.2158 	 33.0902 	 34.8721
| 20> H 	 -21.7056 	 32.6561 	 35.6969
| 21> H 	 -23.2474 	 33.335 	 35.211
| 22> H 	 -22.2935 	 32.3053 	 34.1103
| 23> S 	 -15.5481 	 34.771 	 38.8307
| 24> C 	 -15.0949 	 36.3494 	 39.4248
| 25> C 	 -16.0301 	 37.3449 	 39.3319
| 26> C 	 -17.2067 	 36.8735 	 38.6419
| 27> C 	 -17.1146 	 35.4923 	 38.345
| 28> H 	 -16.0425 	 38.3592 	 39.6555
| 29> C 	 -18.3196 	 37.8091 	 38.295
| 30> H 	 -18.5142 	 38.4291 	 39.1622
| 31> H 	 -19.1887 	 37.204 	 38.1332
| 32> C 	 -18.2176 	 38.7601 	 37.093
| 33> H 	 -19.2523 	 39.0532 	 36.8606
| 34> H 	 -17.9505 	 38.1805 	 36.1901
| 35> C 	 -17.3764 	 40.0121 	 37.2934
| 36> H 	 -17.6521 	 40.8632 	 36.6357
| 37> H 	 -16.3819 	 39.8428 	 37.01
| 38> H 	 -17.2778 	 40.4027 	 38.2808
| 39> H 	 -18.8095 	 31.824 	 35.4034
| 40> H 	 -14.1194 	 36.6522 	 39.8132
| 41> *
| 42>
| 43>                          ****END OF INPUT****

CARTESIAN COORDINATES (ANGSTROEM)
---------------------------------
  S    -17.931000   32.966100   37.589000
  C    -18.586200   32.744400   35.923000
  C    -19.044200   34.005600   35.425500
  C    -18.670700   35.102200   36.307700
  C    -17.955400   34.717000   37.435800
  H    -18.976200   36.144900   36.053100
  C    -19.879300   34.213700   34.173000
  H    -19.665200   33.329500   33.547100
  H    -19.514100   35.067800   33.571100
  C    -21.442800   34.370700   34.349100
  H    -21.610600   35.262300   34.943900
  H    -21.861600   34.631200   33.333600
  C    -22.215800   33.090200   34.872100
  H    -21.705600   32.656100   35.696900
  H    -23.247400   33.335000   35.211000
  H    -22.293500   32.305300   34.110300
  S    -15.548100   34.771000   38.830700
  C    -15.094900   36.349400   39.424800
  C    -16.030100   37.344900   39.331900
  C    -17.206700   36.873500   38.641900
  C    -17.114600   35.492300   38.345000
  H    -16.042500   38.359200   39.655500
  C    -18.319600   37.809100   38.295000
  H    -18.514200   38.429100   39.162200
  H    -19.188700   37.204000   38.133200
  C    -18.217600   38.760100   37.093000
  H    -19.252300   39.053200   36.860600
  H    -17.950500   38.180500   36.190100
  C    -17.376400   40.012100   37.293400
  H    -17.652100   40.863200   36.635700
  H    -16.381900   39.842800   37.010000
  H    -17.277800   40.402700   38.280800
  H    -18.809500   31.824000   35.403400
  H    -14.119400   36.652200   39.813200

 Total Charge           Charge          ....    0
 Multiplicity           Mult            ....    1
 Number of Electrons    NEL             ....  134
 Basis Dimension        Dim             ....  322

ORBITAL ENERGIES
----------------

  NO   OCC          E(Eh)            E(eV)
   0   2.0000     -88.973852     -2421.1016
   1   2.0000     -88.967319     -2420.9238
   2   2.0000     -10.334687      -281.2211
   3   2.0000     -10.331327      -281.1297
   4   2.0000     -10.322166      -280.8804
   5   2.0000     -10.319726      -280.8140
   6   2.0000     -10.309643      -280.5396
   7   2.0000     -10.304071      -280.3880
   8   2.0000     -10.300057      -280.2788
   9   2.0000     -10.299949      -280.2759
  10   2.0000     -10.298998      -280.2500
  11   2.0000     -10.293892      -280.1110
  12   2.0000     -10.292455      -280.0719
  13   2.0000     -10.289765      -279.9988
  14   2.0000     -10.280894      -279.7574
  15   2.0000     -10.275681      -279.6155
  16   2.0000      -8.087542      -220.0732
  17   2.0000      -8.080984      -219.8948
  18   2.0000      -6.046121      -164.5233
  19   2.0000      -6.042411      -164.4224
  20   2.0000      -6.039685      -164.3482
  21   2.0000      -6.038040      -164.3034
  22   2.0000      -6.035767      -164.2416
  23   2.0000      -6.031488      -164.1251
  24   2.0000      -1.000298       -27.2195
  25   2.0000      -0.973976       -26.5032
  26   2.0000      -0.914023       -24.8718
  27   2.0000      -0.900734       -24.5102
  28   2.0000      -0.861154       -23.4332
  29   2.0000      -0.855715       -23.2852
  30   2.0000      -0.837507       -22.7897
  31   2.0000      -0.812240       -22.1022
  32   2.0000      -0.788991       -21.4695
  33   2.0000      -0.772809       -21.0292
  34   2.0000      -0.715270       -19.4635
  35   2.0000      -0.701274       -19.0826
  36   2.0000      -0.691307       -18.8114
  37   2.0000      -0.664224       -18.0745
  38   2.0000      -0.633693       -17.2437
  39   2.0000      -0.615780       -16.7562
  40   2.0000      -0.595379       -16.2011
  41   2.0000      -0.560568       -15.2538
  42   2.0000      -0.555326       -15.1112
  43   2.0000      -0.546894       -14.8818
  44   2.0000      -0.537622       -14.6294
  45   2.0000      -0.535345       -14.5675
  46   2.0000      -0.518434       -14.1073
  47   2.0000      -0.504492       -13.7279
  48   2.0000      -0.503915       -13.7122
  49   2.0000      -0.496436       -13.5087
  50   2.0000      -0.486358       -13.2345
  51   2.0000      -0.482337       -13.1251
  52   2.0000      -0.468698       -12.7539
  53   2.0000      -0.463680       -12.6174
  54   2.0000      -0.461346       -12.5539
  55   2.0000      -0.451979       -12.2990
  56   2.0000      -0.445107       -12.1120
  57   2.0000      -0.440018       -11.9735
  58   2.0000      -0.434397       -11.8205
  59   2.0000      -0.428394       -11.6572
  60   2.0000      -0.424785       -11.5590
  61   2.0000      -0.416486       -11.3331
  62   2.0000      -0.411954       -11.2098
  63   2.0000      -0.353914        -9.6305
  64   2.0000      -0.334942        -9.1142
  65   2.0000      -0.326622        -8.8878
  66   2.0000      -0.280023        -7.6198
  67   0.0000       0.017356         0.4723
  68   0.0000       0.068931         1.8757
  69   0.0000       0.093009         2.5309
  70   0.0000       0.115527         3.1437
  71   0.0000       0.127153         3.4600

MULLIKEN ATOMIC CHARGES
-----------------------
   0 S :    0.084827
   1 C :   -0.108789
   2 C :   -0.115330
   3 C :    0.007115
   4 C :   -0.130276
   5 H :    0.015017
   6 C :    0.028997
   7 H :    0.022539
   8 H :    0.037107
   9 C :   -0.071540
  10 H :    0.028400
  11 H :    0.036807
  12 C :   -0.056383
  13 H :    0.033220
  14 H :    0.041644
  15 H :    0.031770
  16 S :    0.126361
  17 C :   -0.070131
  18 C :   -0.000308
  19 C :   -0.073165
  20 C :   -0.108535
  21 H :    0.001439
  22 C :    0.045984
  23 H :    0.023497
  24 H :    0.019207
  25 C :   -0.070170
  26 H :    0.028696
  27 H :    0.037585
  28 C :   -0.021945
  29 H :    0.034112
  30 H :    0.018935
  31 H :    0.019334
  32 H :    0.048594
  33 H :    0.055385
Sum of atomic charges:    0.0000000

LOEWDIN ATOMIC CHARGES
----------------------
   0 S :    0.376037
   1 C :   -0.191012
   2 C :   -0.057030
   3 C :   -0.077454
   4 C :   -0.180176
   5 H :    0.033355
   6 C :   -0.040659
   7 H :    0.031110
   8 H :    0.034559
   9 C :   -0.037201
  10 H :    0.020006
  11 H :    0.029599
  12 C :   -0.067965
  13 H :    0.020067
  14 H :    0.032243
  15 H :    0.025437
  16 S :    0.400315
  17 C :   -0.182240
  18 C :   -0.065278
  19 C :   -0.044362
  20 C :   -0.194629
  21 H :    0.028055
  22 C :   -0.035595
  23 H :    0.032467
  24 H :    0.029650
  25 C :   -0.039325
  26 H :    0.027632
  27 H :    0.027079
  28 C :   -0.069895
  29 H :    0.034739
  30 H :    0.021561
  31 H :    0.020028
  32 H :    0.027053
  33 H :    0.031828

  Mayer bond orders larger than 0.100000
B(  0-S ,  1-C ) :   1.1128 B(  0-S ,  4-C ) :   1.1402 B(  1-C ,  2-C ) :   1.6028
B(  1-C , 32-H ) :   0.9676 B(  2-C ,  3-C ) :   1.2479 B(  2-C ,  6-C ) :   1.0348
B(  3-C ,  4-C ) :   1.5538 B(  3-C ,  5-H ) :   0.9778 B(  4-C , 20-C ) :   1.0574
B(  6-C ,  7-H ) :   0.9425 B(  6-C ,  8-H ) :   0.9426 B(  6-C ,  9-C ) :   1.0577
B(  9-C , 10-H ) :   0.9610 B(  9-C , 11-H ) :   0.9579 B(  9-C , 12-C ) :   1.0604
B( 12-C , 13-H ) :   0.9797 B( 12-C , 14-H ) :   0.9760 B( 12-C , 15-H ) :   0.9771
B( 16-S , 17-C ) :   1.1462 B( 16-S , 20-C ) :   1.1161 B( 17-C , 18-C ) :   1.6096
B( 17-C , 33-H ) :   0.9576 B( 18-C , 19-C ) :   1.2468 B( 18-C , 21-H ) :   0.9897
B( 19-C , 20-C ) :   1.5977 B( 19-C , 22-C ) :   1.0550 B( 22-C , 23-H ) :   0.9314
B( 22-C , 24-H ) :   0.9259 B( 22-C , 25-C ) :   1.0808 B( 25-C , 26-H ) :   0.9581
B( 25-C , 27-H ) :   0.9470 B( 25-C , 28-C ) :   1.0708 B( 28-C , 29-H ) :   0.9706
B( 28-C , 30-H ) :   0.9710 B( 28-C , 31-H ) :   0.9760

Dispersion correction           -0.014608350
FINAL SINGLE POINT ENERGY     -1339.871784303841

DIPOLE MOMENT
-------------
                                X             Y             Z
Electronic contribution:     18.52797     -15.97858      14.80934
Nuclear contribution   :    -18.80754      16.64725     -15.18782
                        -----------------------------------------
Total Dipole Moment    :     -0.27958       0.66868      -0.37848
                        -----------------------------------------
Magnitude (a.u.)       :      0.81764
Magnitude (Debye)      :      2.07829

Rotational constants in cm-1:     0.019192     0.008819     0.006429
Rotational constants in MHz :   575.371592   264.393826   192.737928

                             ****ORCA TERMINATED NORMALLY****
TOTAL RUN TIME: 0 days 0 hours 0 minutes 34 seconds 233 msec
