                         Program Version 4.2.1 -  RELEASE  -
|  1> ! wB97X-D3 SP def2-SVP
|  2> %pal
|  3> nprocs 16
|  4> end
|  5>
|  6> * xyz 0 1
|  7> S 	 68.66 	 22.7912 	 76.8516
|  8> C 	 70.342 	 22.9395 	 77.113
|  9> C 	 70.8714 	 24.0553 	 76.4748
| 10> C 	 69.8444 	 24.9128 	 76.0493
| 11> C 	 68.5696 	 24.3376 	 76.1321
| 12> H 	 69.9196 	 25.9055 	 75.6032
| 13> C 	 72.2862 	 24.3632 	 76.2917
| 14> H 	 72.349 	 25.0457 	 75.5008
| 15> H 	 72.7722 	 23.4239 	 75.9287
| 16> C 	 72.8663 	 24.9163 	 77.5522
| 17> H 	 72.728 	 25.9783 	 77.6836
| 18> H 	 72.3082 	 24.4338 	 78.3845
| 19> C 	 74.3265 	 24.5134 	 77.5849
| 20> H 	 74.5291 	 23.4457 	 77.2966
| 21> H 	 74.9037 	 25.1103 	 76.9248
| 22> H 	 74.7026 	 24.8132 	 78.5777
| 23> S 	 66.3648 	 23.9602 	 74.5543
| 24> C 	 65.1494 	 25.2093 	 74.305
| 25> C 	 65.4841 	 26.337 	 75.1083
| 26> C 	 66.6426 	 26.0773 	 75.9721
| 27> C 	 67.3127 	 24.9039 	 75.6477
| 28> H 	 64.938 	 27.296 	 75.019
| 29> C 	 67.115 	 27.1548 	 76.9005
| 30> H 	 68.2426 	 27.2821 	 76.753
| 31> H 	 66.9198 	 26.8979 	 77.9395
| 32> C 	 66.6381 	 28.5734 	 76.5474
| 33> H 	 65.5228 	 28.5544 	 76.57
| 34> H 	 66.8615 	 28.8365 	 75.5018
| 35> C 	 67.2413 	 29.6426 	 77.4631
| 36> H 	 66.8071 	 30.5991 	 77.2004
| 37> H 	 68.263 	 29.8694 	 77.2974
| 38> H 	 67.0458 	 29.5261 	 78.5904
| 39> H 	 70.9116 	 22.1304 	 77.4771
| 40> H 	 64.3616 	 25.1849 	 73.5474
| 41> *
| 42>
| 43>                          ****END OF INPUT****

CARTESIAN COORDINATES (ANGSTROEM)
---------------------------------
  S     68.660000   22.791200   76.851600
  C     70.342000   22.939500   77.113000
  C     70.871400   24.055300   76.474800
  C     69.844400   24.912800   76.049300
  C     68.569600   24.337600   76.132100
  H     69.919600   25.905500   75.603200
  C     72.286200   24.363200   76.291700
  H     72.349000   25.045700   75.500800
  H     72.772200   23.423900   75.928700
  C     72.866300   24.916300   77.552200
  H     72.728000   25.978300   77.683600
  H     72.308200   24.433800   78.384500
  C     74.326500   24.513400   77.584900
  H     74.529100   23.445700   77.296600
  H     74.903700   25.110300   76.924800
  H     74.702600   24.813200   78.577700
  S     66.364800   23.960200   74.554300
  C     65.149400   25.209300   74.305000
  C     65.484100   26.337000   75.108300
  C     66.642600   26.077300   75.972100
  C     67.312700   24.903900   75.647700
  H     64.938000   27.296000   75.019000
  C     67.115000   27.154800   76.900500
  H     68.242600   27.282100   76.753000
  H     66.919800   26.897900   77.939500
  C     66.638100   28.573400   76.547400
  H     65.522800   28.554400   76.570000
  H     66.861500   28.836500   75.501800
  C     67.241300   29.642600   77.463100
  H     66.807100   30.599100   77.200400
  H     68.263000   29.869400   77.297400
  H     67.045800   29.526100   78.590400
  H     70.911600   22.130400   77.477100
  H     64.361600   25.184900   73.547400

 Total Charge           Charge          ....    0
 Multiplicity           Mult            ....    1
 Number of Electrons    NEL             ....  134
 Basis Dimension        Dim             ....  322

ORBITAL ENERGIES
----------------

  NO   OCC          E(Eh)            E(eV)
   0   2.0000     -88.966027     -2420.8887
   1   2.0000     -88.963363     -2420.8162
   2   2.0000     -10.324865      -280.9539
   3   2.0000     -10.324506      -280.9441
   4   2.0000     -10.322901      -280.9004
   5   2.0000     -10.304199      -280.3915
   6   2.0000     -10.303667      -280.3770
   7   2.0000     -10.302165      -280.3362
   8   2.0000     -10.293643      -280.1043
   9   2.0000     -10.292405      -280.0706
  10   2.0000     -10.292201      -280.0650
  11   2.0000     -10.291039      -280.0334
  12   2.0000     -10.282505      -279.8012
  13   2.0000     -10.281304      -279.7685
  14   2.0000     -10.280734      -279.7530
  15   2.0000     -10.277642      -279.6688
  16   2.0000      -8.082071      -219.9243
  17   2.0000      -8.078277      -219.8211
  18   2.0000      -6.040318      -164.3654
  19   2.0000      -6.036815      -164.2701
  20   2.0000      -6.036286      -164.2557
  21   2.0000      -6.033142      -164.1702
  22   2.0000      -6.032537      -164.1537
  23   2.0000      -6.029212      -164.0632
  24   2.0000      -1.011495       -27.5242
  25   2.0000      -0.984648       -26.7936
  26   2.0000      -0.927147       -25.2289
  27   2.0000      -0.908675       -24.7263
  28   2.0000      -0.867211       -23.5980
  29   2.0000      -0.854878       -23.2624
  30   2.0000      -0.844455       -22.9788
  31   2.0000      -0.811749       -22.0888
  32   2.0000      -0.780072       -21.2268
  33   2.0000      -0.770063       -20.9545
  34   2.0000      -0.706409       -19.2224
  35   2.0000      -0.703878       -19.1535
  36   2.0000      -0.695558       -18.9271
  37   2.0000      -0.654424       -17.8078
  38   2.0000      -0.643834       -17.5196
  39   2.0000      -0.618325       -16.8255
  40   2.0000      -0.595983       -16.2175
  41   2.0000      -0.578958       -15.7543
  42   2.0000      -0.567063       -15.4306
  43   2.0000      -0.560782       -15.2597
  44   2.0000      -0.530401       -14.4329
  45   2.0000      -0.522626       -14.2214
  46   2.0000      -0.517056       -14.0698
  47   2.0000      -0.509047       -13.8519
  48   2.0000      -0.504644       -13.7321
  49   2.0000      -0.498001       -13.5513
  50   2.0000      -0.492250       -13.3948
  51   2.0000      -0.481054       -13.0901
  52   2.0000      -0.476912       -12.9774
  53   2.0000      -0.468419       -12.7463
  54   2.0000      -0.462445       -12.5838
  55   2.0000      -0.453514       -12.3407
  56   2.0000      -0.445501       -12.1227
  57   2.0000      -0.437379       -11.9017
  58   2.0000      -0.433791       -11.8041
  59   2.0000      -0.422633       -11.5004
  60   2.0000      -0.418302       -11.3826
  61   2.0000      -0.412367       -11.2211
  62   2.0000      -0.405992       -11.0476
  63   2.0000      -0.340785        -9.2732
  64   2.0000      -0.329632        -8.9697
  65   2.0000      -0.325545        -8.8585
  66   2.0000      -0.289975        -7.8906
  67   0.0000       0.034893         0.9495
  68   0.0000       0.064941         1.7671
  69   0.0000       0.114400         3.1130
  70   0.0000       0.126740         3.4488
  71   0.0000       0.134808         3.6683

MULLIKEN ATOMIC CHARGES
-----------------------
   0 S :    0.137335
   1 C :   -0.110913
   2 C :   -0.116600
   3 C :    0.024694
   4 C :   -0.167963
   5 H :    0.014033
   6 C :    0.105318
   7 H :    0.003326
   8 H :    0.032319
   9 C :   -0.062003
  10 H :    0.029870
  11 H :    0.036186
  12 C :   -0.039839
  13 H :    0.041997
  14 H :    0.016029
  15 H :    0.028476
  16 S :    0.103394
  17 C :   -0.095386
  18 C :   -0.067547
  19 C :   -0.032131
  20 C :   -0.153493
  21 H :    0.040859
  22 C :    0.053590
  23 H :    0.032599
  24 H :    0.045148
  25 C :   -0.135671
  26 H :    0.038356
  27 H :    0.034295
  28 C :   -0.023363
  29 H :    0.017978
  30 H :    0.024736
  31 H :    0.045957
  32 H :    0.031993
  33 H :    0.066423
Sum of atomic charges:    0.0000000

LOEWDIN ATOMIC CHARGES
----------------------
   0 S :    0.451929
   1 C :   -0.212901
   2 C :   -0.059788
   3 C :   -0.063043
   4 C :   -0.213457
   5 H :    0.031647
   6 C :   -0.031382
   7 H :    0.023412
   8 H :    0.037884
   9 C :   -0.037046
  10 H :    0.026698
  11 H :    0.027818
  12 C :   -0.064456
  13 H :    0.030251
  14 H :    0.018148
  15 H :    0.026479
  16 S :    0.412796
  17 C :   -0.192479
  18 C :   -0.075490
  19 C :   -0.061743
  20 C :   -0.209398
  21 H :    0.036296
  22 C :   -0.039114
  23 H :    0.038723
  24 H :    0.034826
  25 C :   -0.047487
  26 H :    0.021609
  27 H :    0.027156
  28 C :   -0.070182
  29 H :    0.026576
  30 H :    0.020179
  31 H :    0.035979
  32 H :    0.016384
  33 H :    0.033176

  Mayer bond orders larger than 0.100000
B(  0-S ,  1-C ) :   1.1655 B(  0-S ,  4-C ) :   1.1913 B(  1-C ,  2-C ) :   1.5535
B(  1-C ,  4-C ) :   0.1085 B(  1-C , 32-H ) :   0.9735 B(  2-C ,  3-C ) :   1.2826
B(  2-C ,  6-C ) :   1.0345 B(  3-C ,  4-C ) :   1.5364 B(  3-C ,  5-H ) :   0.9884
B(  4-C , 20-C ) :   1.0313 B(  6-C ,  7-H ) :   0.9211 B(  6-C ,  8-H ) :   0.9425
B(  6-C ,  9-C ) :   1.0515 B(  9-C , 10-H ) :   0.9458 B(  9-C , 11-H ) :   0.9666
B(  9-C , 12-C ) :   1.0806 B( 12-C , 13-H ) :   0.9783 B( 12-C , 14-H ) :   0.9697
B( 12-C , 15-H ) :   0.9717 B( 16-S , 17-C ) :   1.1618 B( 16-S , 20-C ) :   1.1496
B( 17-C , 18-C ) :   1.5824 B( 17-C , 20-C ) :   0.1017 B( 17-C , 33-H ) :   0.9664
B( 18-C , 19-C ) :   1.2476 B( 18-C , 21-H ) :   0.9762 B( 19-C , 20-C ) :   1.5877
B( 19-C , 22-C ) :   1.0390 B( 22-C , 23-H ) :   0.9450 B( 22-C , 24-H ) :   0.9223
B( 22-C , 25-C ) :   1.0775 B( 25-C , 26-H ) :   0.9429 B( 25-C , 27-H ) :   0.9547
B( 25-C , 28-C ) :   1.0849 B( 28-C , 29-H ) :   0.9675 B( 28-C , 30-H ) :   0.9715
B( 28-C , 31-H ) :   0.9734

Dispersion correction           -0.013414038
FINAL SINGLE POINT ENERGY     -1339.871098184421

DIPOLE MOMENT
-------------
                                X             Y             Z
Electronic contribution:    -17.65747     -21.24636      -9.18540
Nuclear contribution   :     18.07444      21.86764       9.15497
                        -----------------------------------------
Total Dipole Moment    :      0.41697       0.62128      -0.03043
                        -----------------------------------------
Magnitude (a.u.)       :      0.74885
Magnitude (Debye)      :      1.90342

Rotational constants in cm-1:     0.018372     0.008092     0.006048
Rotational constants in MHz :   550.779702   242.601452   181.304093

                             ****ORCA TERMINATED NORMALLY****
TOTAL RUN TIME: 0 days 0 hours 0 minutes 29 seconds 435 msec
