                         Program Version 4.2.1 -  RELEASE  -
|  1> ! wB97X-D3 SP def2-SVP
|  2> %pal
|  3> nprocs 16
|  4> end
|  5>
|  6> * xyz 0 1
|  7> S 	 19.7899 	 -9.15019 	 81.5833
|  8> C 	 18.8846 	 -7.69188 	 81.3819
|  9> C 	 17.4735 	 -7.88812 	 81.297
| 10> C 	 17.1828 	 -9.25752 	 81.389
| 11> C 	 18.3039 	 -10.0936 	 81.4695
| 12> H 	 16.2241 	 -9.67829 	 81.4594
| 13> C 	 16.4168 	 -6.80776 	 81.1062
| 14> H 	 16.6273 	 -5.84228 	 81.6932
| 15> H 	 15.509 	 -7.33364 	 81.4946
| 16> C 	 16.1689 	 -6.49189 	 79.5876
| 17> H 	 17.117 	 -5.99501 	 79.2688
| 18> H 	 16.0719 	 -7.46793 	 79.0617
| 19> C 	 14.8313 	 -5.70644 	 79.4642
| 20> H 	 14.5326 	 -5.37877 	 78.4833
| 21> H 	 13.9617 	 -6.21191 	 79.9373
| 22> H 	 14.8922 	 -4.79573 	 79.9967
| 23> S 	 18.4895 	 -12.3438 	 82.9047
| 24> C 	 18.5234 	 -13.8962 	 82.1388
| 25> C 	 18.7542 	 -13.7839 	 80.8286
| 26> C 	 18.5724 	 -12.4665 	 80.3327
| 27> C 	 18.3682 	 -11.5418 	 81.373
| 28> H 	 18.9825 	 -14.6165 	 80.1998
| 29> C 	 18.4437 	 -12.2145 	 78.8263
| 30> H 	 18.8994 	 -13.0147 	 78.2502
| 31> H 	 19.129 	 -11.3701 	 78.5297
| 32> C 	 17.066 	 -11.9545 	 78.1915
| 33> H 	 17.148 	 -11.5958 	 77.1053
| 34> H 	 16.6138 	 -11.071 	 78.6902
| 35> C 	 15.9917 	 -13.003 	 78.3972
| 36> H 	 15.6396 	 -13.0149 	 79.4457
| 37> H 	 16.396 	 -13.9719 	 78.1059
| 38> H 	 15.0894 	 -12.7489 	 77.8873
| 39> H 	 19.3295 	 -6.71795 	 81.4557
| 40> H 	 18.6468 	 -14.8322 	 82.6458
| 41> *
| 42>
| 43>                          ****END OF INPUT****

CARTESIAN COORDINATES (ANGSTROEM)
---------------------------------
  S     19.789900   -9.150190   81.583300
  C     18.884600   -7.691880   81.381900
  C     17.473500   -7.888120   81.297000
  C     17.182800   -9.257520   81.389000
  C     18.303900  -10.093600   81.469500
  H     16.224100   -9.678290   81.459400
  C     16.416800   -6.807760   81.106200
  H     16.627300   -5.842280   81.693200
  H     15.509000   -7.333640   81.494600
  C     16.168900   -6.491890   79.587600
  H     17.117000   -5.995010   79.268800
  H     16.071900   -7.467930   79.061700
  C     14.831300   -5.706440   79.464200
  H     14.532600   -5.378770   78.483300
  H     13.961700   -6.211910   79.937300
  H     14.892200   -4.795730   79.996700
  S     18.489500  -12.343800   82.904700
  C     18.523400  -13.896200   82.138800
  C     18.754200  -13.783900   80.828600
  C     18.572400  -12.466500   80.332700
  C     18.368200  -11.541800   81.373000
  H     18.982500  -14.616500   80.199800
  C     18.443700  -12.214500   78.826300
  H     18.899400  -13.014700   78.250200
  H     19.129000  -11.370100   78.529700
  C     17.066000  -11.954500   78.191500
  H     17.148000  -11.595800   77.105300
  H     16.613800  -11.071000   78.690200
  C     15.991700  -13.003000   78.397200
  H     15.639600  -13.014900   79.445700
  H     16.396000  -13.971900   78.105900
  H     15.089400  -12.748900   77.887300
  H     19.329500   -6.717950   81.455700
  H     18.646800  -14.832200   82.645800

 Total Charge           Charge          ....    0
 Multiplicity           Mult            ....    1
 Number of Electrons    NEL             ....  134
 Basis Dimension        Dim             ....  322

ORBITAL ENERGIES
----------------

  NO   OCC          E(Eh)            E(eV)
   0   2.0000     -88.970170     -2421.0014
   1   2.0000     -88.961658     -2420.7698
   2   2.0000     -10.327926      -281.0372
   3   2.0000     -10.324277      -280.9379
   4   2.0000     -10.314566      -280.6736
   5   2.0000     -10.308107      -280.4978
   6   2.0000     -10.305420      -280.4247
   7   2.0000     -10.303950      -280.3847
   8   2.0000     -10.302981      -280.3584
   9   2.0000     -10.297928      -280.2209
  10   2.0000     -10.293889      -280.1110
  11   2.0000     -10.292408      -280.0707
  12   2.0000     -10.288577      -279.9664
  13   2.0000     -10.285151      -279.8732
  14   2.0000     -10.278836      -279.7013
  15   2.0000     -10.271505      -279.5019
  16   2.0000      -8.084667      -219.9950
  17   2.0000      -8.077417      -219.7977
  18   2.0000      -6.042955      -164.4372
  19   2.0000      -6.039143      -164.3334
  20   2.0000      -6.035875      -164.2445
  21   2.0000      -6.035751      -164.2411
  22   2.0000      -6.031782      -164.1331
  23   2.0000      -6.028152      -164.0344
  24   2.0000      -1.008836       -27.4518
  25   2.0000      -0.985633       -26.8204
  26   2.0000      -0.906879       -24.6774
  27   2.0000      -0.902547       -24.5595
  28   2.0000      -0.869881       -23.6707
  29   2.0000      -0.851923       -23.1820
  30   2.0000      -0.846645       -23.0384
  31   2.0000      -0.812985       -22.1224
  32   2.0000      -0.782599       -21.2956
  33   2.0000      -0.768763       -20.9191
  34   2.0000      -0.704376       -19.1670
  35   2.0000      -0.701015       -19.0756
  36   2.0000      -0.682801       -18.5800
  37   2.0000      -0.661010       -17.9870
  38   2.0000      -0.646688       -17.5973
  39   2.0000      -0.618624       -16.8336
  40   2.0000      -0.593558       -16.1515
  41   2.0000      -0.565730       -15.3943
  42   2.0000      -0.559378       -15.2214
  43   2.0000      -0.549410       -14.9502
  44   2.0000      -0.543403       -14.7867
  45   2.0000      -0.518876       -14.1193
  46   2.0000      -0.514753       -14.0071
  47   2.0000      -0.507638       -13.8135
  48   2.0000      -0.501826       -13.6554
  49   2.0000      -0.494954       -13.4684
  50   2.0000      -0.486017       -13.2252
  51   2.0000      -0.480224       -13.0676
  52   2.0000      -0.471645       -12.8341
  53   2.0000      -0.463957       -12.6249
  54   2.0000      -0.459633       -12.5073
  55   2.0000      -0.454715       -12.3734
  56   2.0000      -0.443250       -12.0614
  57   2.0000      -0.435698       -11.8559
  58   2.0000      -0.430550       -11.7158
  59   2.0000      -0.427266       -11.6265
  60   2.0000      -0.424369       -11.5477
  61   2.0000      -0.416643       -11.3374
  62   2.0000      -0.401558       -10.9270
  63   2.0000      -0.339055        -9.2262
  64   2.0000      -0.332100        -9.0369
  65   2.0000      -0.315139        -8.5754
  66   2.0000      -0.305518        -8.3136
  67   0.0000       0.043694         1.1890
  68   0.0000       0.046551         1.2667
  69   0.0000       0.113212         3.0807
  70   0.0000       0.116254         3.1634
  71   0.0000       0.130606         3.5540

MULLIKEN ATOMIC CHARGES
-----------------------
   0 S :    0.140373
   1 C :   -0.119742
   2 C :   -0.083232
   3 C :    0.073984
   4 C :   -0.181971
   5 H :   -0.006025
   6 C :    0.004312
   7 H :    0.052407
   8 H :    0.027800
   9 C :   -0.075603
  10 H :    0.041932
  11 H :    0.041893
  12 C :   -0.020751
  13 H :    0.030608
  14 H :    0.032652
  15 H :    0.011375
  16 S :    0.107812
  17 C :   -0.063425
  18 C :   -0.033868
  19 C :   -0.012069
  20 C :   -0.202347
  21 H :    0.010478
  22 C :    0.066141
  23 H :    0.010915
  24 H :    0.036074
  25 C :   -0.096635
  26 H :    0.040266
  27 H :    0.020497
  28 C :   -0.029269
  29 H :    0.036852
  30 H :    0.024930
  31 H :    0.024462
  32 H :    0.041261
  33 H :    0.047914
Sum of atomic charges:    0.0000000

LOEWDIN ATOMIC CHARGES
----------------------
   0 S :    0.425666
   1 C :   -0.204516
   2 C :   -0.066701
   3 C :   -0.049536
   4 C :   -0.206644
   5 H :    0.024497
   6 C :   -0.037814
   7 H :    0.038469
   8 H :    0.031953
   9 C :   -0.038345
  10 H :    0.029543
  11 H :    0.028486
  12 C :   -0.069632
  13 H :    0.023217
  14 H :    0.031589
  15 H :    0.019346
  16 S :    0.423720
  17 C :   -0.185901
  18 C :   -0.069661
  19 C :   -0.052039
  20 C :   -0.211980
  21 H :    0.029157
  22 C :   -0.039640
  23 H :    0.025611
  24 H :    0.040480
  25 C :   -0.051668
  26 H :    0.032887
  27 H :    0.023340
  28 C :   -0.066561
  29 H :    0.031323
  30 H :    0.019487
  31 H :    0.023876
  32 H :    0.020907
  33 H :    0.027084

  Mayer bond orders larger than 0.100000
B(  0-S ,  1-C ) :   1.1748 B(  0-S ,  4-C ) :   1.1649 B(  1-C ,  2-C ) :   1.5538
B(  1-C ,  4-C ) :   0.1143 B(  1-C , 32-H ) :   0.9692 B(  2-C ,  3-C ) :   1.2896
B(  2-C ,  6-C ) :   1.0175 B(  3-C ,  4-C ) :   1.5540 B(  3-C ,  5-H ) :   0.9959
B(  4-C , 20-C ) :   1.0164 B(  6-C ,  7-H ) :   0.9446 B(  6-C ,  8-H ) :   0.9435
B(  6-C ,  9-C ) :   1.0453 B(  9-C , 10-H ) :   0.9586 B(  9-C , 11-H ) :   0.9598
B(  9-C , 12-C ) :   1.0659 B( 12-C , 13-H ) :   0.9759 B( 12-C , 14-H ) :   0.9747
B( 12-C , 15-H ) :   0.9712 B( 16-S , 17-C ) :   1.1530 B( 16-S , 20-C ) :   1.1707
B( 17-C , 18-C ) :   1.6166 B( 17-C , 33-H ) :   0.9658 B( 18-C , 19-C ) :   1.2556
B( 18-C , 21-H ) :   0.9917 B( 19-C , 20-C ) :   1.5751 B( 19-C , 22-C ) :   1.0432
B( 22-C , 23-H ) :   0.9357 B( 22-C , 24-H ) :   0.9270 B( 22-C , 25-C ) :   1.0734
B( 25-C , 26-H ) :   0.9534 B( 25-C , 27-H ) :   0.9527 B( 25-C , 28-C ) :   1.0782
B( 28-C , 29-H ) :   0.9710 B( 28-C , 30-H ) :   0.9779 B( 28-C , 31-H ) :   0.9703

Dispersion correction           -0.014608371
FINAL SINGLE POINT ENERGY     -1339.875193771567

DIPOLE MOMENT
-------------
                                X             Y             Z
Electronic contribution:     19.20526      -9.15399      19.58386
Nuclear contribution   :    -19.49730       9.30025     -19.94262
                        -----------------------------------------
Total Dipole Moment    :     -0.29204       0.14625      -0.35876
                        -----------------------------------------
Magnitude (a.u.)       :      0.48517
Magnitude (Debye)      :      1.23319

Rotational constants in cm-1:     0.019199     0.008562     0.006823
Rotational constants in MHz :   575.565182   256.669346   204.552109

                             ****ORCA TERMINATED NORMALLY****
TOTAL RUN TIME: 0 days 0 hours 0 minutes 30 seconds 274 msec
