                         Program Version 4.2.1 -  RELEASE  -
|  1> ! wB97X-D3 SP def2-SVP
|  2> %pal
|  3> nprocs 16
|  4> end
|  5>
|  6> * xyz 0 1
|  7> S 	 -15.3904 	 32.3809 	 34.6882
|  8> C 	 -14.1867 	 33.275 	 33.9107
|  9> C 	 -14.6526 	 34.3441 	 33.0938
| 10> C 	 -16.0588 	 34.3565 	 33.163
| 11> C 	 -16.6377 	 33.4914 	 34.06
| 12> H 	 -16.6945 	 34.9563 	 32.6091
| 13> C 	 -13.862 	 35.3066 	 32.2399
| 14> H 	 -14.0893 	 35.2331 	 31.1957
| 15> H 	 -12.859 	 34.9583 	 32.3276
| 16> C 	 -13.8613 	 36.7746 	 32.7887
| 17> H 	 -14.8846 	 37.067 	 32.5862
| 18> H 	 -13.8427 	 36.6845 	 33.9185
| 19> C 	 -12.7521 	 37.5955 	 32.2115
| 20> H 	 -12.9565 	 37.7378 	 31.169
| 21> H 	 -12.67 	 38.5647 	 32.6166
| 22> H 	 -11.7456 	 37.1237 	 32.2073
| 23> S 	 -18.7508 	 34.7645 	 35.2545
| 24> C 	 -20.1298 	 33.8737 	 35.6334
| 25> C 	 -20.1527 	 32.5853 	 35.1544
| 26> C 	 -18.9939 	 32.3525 	 34.3429
| 27> C 	 -18.0572 	 33.3766 	 34.3613
| 28> H 	 -21.0013 	 31.9049 	 35.2594
| 29> C 	 -18.8732 	 31.0131 	 33.5568
| 30> H 	 -19.6661 	 30.354 	 33.8986
| 31> H 	 -17.8933 	 30.6372 	 33.8904
| 32> C 	 -18.9271 	 31.2552 	 32.0011
| 33> H 	 -19.8382 	 31.8515 	 31.756
| 34> H 	 -18.9401 	 30.3176 	 31.4716
| 35> C 	 -17.6577 	 31.9444 	 31.4474
| 36> H 	 -16.7314 	 31.6849 	 31.9513
| 37> H 	 -17.7784 	 32.9973 	 31.5138
| 38> H 	 -17.6263 	 31.8313 	 30.3804
| 39> H 	 -13.1762 	 33.2457 	 34.2152
| 40> H 	 -20.9847 	 34.3223 	 36.0826
| 41> *
| 42>
| 43>                          ****END OF INPUT****

CARTESIAN COORDINATES (ANGSTROEM)
---------------------------------
  S    -15.390400   32.380900   34.688200
  C    -14.186700   33.275000   33.910700
  C    -14.652600   34.344100   33.093800
  C    -16.058800   34.356500   33.163000
  C    -16.637700   33.491400   34.060000
  H    -16.694500   34.956300   32.609100
  C    -13.862000   35.306600   32.239900
  H    -14.089300   35.233100   31.195700
  H    -12.859000   34.958300   32.327600
  C    -13.861300   36.774600   32.788700
  H    -14.884600   37.067000   32.586200
  H    -13.842700   36.684500   33.918500
  C    -12.752100   37.595500   32.211500
  H    -12.956500   37.737800   31.169000
  H    -12.670000   38.564700   32.616600
  H    -11.745600   37.123700   32.207300
  S    -18.750800   34.764500   35.254500
  C    -20.129800   33.873700   35.633400
  C    -20.152700   32.585300   35.154400
  C    -18.993900   32.352500   34.342900
  C    -18.057200   33.376600   34.361300
  H    -21.001300   31.904900   35.259400
  C    -18.873200   31.013100   33.556800
  H    -19.666100   30.354000   33.898600
  H    -17.893300   30.637200   33.890400
  C    -18.927100   31.255200   32.001100
  H    -19.838200   31.851500   31.756000
  H    -18.940100   30.317600   31.471600
  C    -17.657700   31.944400   31.447400
  H    -16.731400   31.684900   31.951300
  H    -17.778400   32.997300   31.513800
  H    -17.626300   31.831300   30.380400
  H    -13.176200   33.245700   34.215200
  H    -20.984700   34.322300   36.082600

 Total Charge           Charge          ....    0
 Multiplicity           Mult            ....    1
 Number of Electrons    NEL             ....  134
 Basis Dimension        Dim             ....  322

ORBITAL ENERGIES
----------------

  NO   OCC          E(Eh)            E(eV)
   0   2.0000     -88.969661     -2420.9876
   1   2.0000     -88.962832     -2420.8017
   2   2.0000     -10.326309      -280.9932
   3   2.0000     -10.323562      -280.9184
   4   2.0000     -10.310176      -280.5541
   5   2.0000     -10.309947      -280.5479
   6   2.0000     -10.304105      -280.3890
   7   2.0000     -10.301562      -280.3197
   8   2.0000     -10.294032      -280.1149
   9   2.0000     -10.291902      -280.0569
  10   2.0000     -10.289935      -280.0034
  11   2.0000     -10.287939      -279.9491
  12   2.0000     -10.286496      -279.9098
  13   2.0000     -10.283994      -279.8417
  14   2.0000     -10.275837      -279.6197
  15   2.0000     -10.262220      -279.2492
  16   2.0000      -8.084336      -219.9860
  17   2.0000      -8.078396      -219.8243
  18   2.0000      -6.042704      -164.4303
  19   2.0000      -6.038776      -164.3235
  20   2.0000      -6.036733      -164.2678
  21   2.0000      -6.035347      -164.2302
  22   2.0000      -6.032757      -164.1597
  23   2.0000      -6.029313      -164.0660
  24   2.0000      -1.006353       -27.3843
  25   2.0000      -0.986941       -26.8560
  26   2.0000      -0.912644       -24.8343
  27   2.0000      -0.899148       -24.4671
  28   2.0000      -0.869301       -23.6549
  29   2.0000      -0.856297       -23.3010
  30   2.0000      -0.845031       -22.9945
  31   2.0000      -0.813448       -22.1351
  32   2.0000      -0.783587       -21.3225
  33   2.0000      -0.768806       -20.9203
  34   2.0000      -0.707268       -19.2457
  35   2.0000      -0.698504       -19.0073
  36   2.0000      -0.687580       -18.7100
  37   2.0000      -0.665094       -18.0981
  38   2.0000      -0.646445       -17.5907
  39   2.0000      -0.619659       -16.8618
  40   2.0000      -0.588629       -16.0174
  41   2.0000      -0.573351       -15.6017
  42   2.0000      -0.558744       -15.2042
  43   2.0000      -0.545773       -14.8512
  44   2.0000      -0.543524       -14.7900
  45   2.0000      -0.528046       -14.3689
  46   2.0000      -0.517582       -14.0841
  47   2.0000      -0.511478       -13.9180
  48   2.0000      -0.504305       -13.7228
  49   2.0000      -0.496528       -13.5112
  50   2.0000      -0.494270       -13.4498
  51   2.0000      -0.477258       -12.9868
  52   2.0000      -0.472432       -12.8555
  53   2.0000      -0.464013       -12.6264
  54   2.0000      -0.459427       -12.5016
  55   2.0000      -0.444199       -12.0873
  56   2.0000      -0.439921       -11.9709
  57   2.0000      -0.435520       -11.8511
  58   2.0000      -0.432612       -11.7720
  59   2.0000      -0.427667       -11.6374
  60   2.0000      -0.425343       -11.5742
  61   2.0000      -0.414090       -11.2680
  62   2.0000      -0.404958       -11.0195
  63   2.0000      -0.341977        -9.3057
  64   2.0000      -0.331622        -9.0239
  65   2.0000      -0.327954        -8.9241
  66   2.0000      -0.289925        -7.8893
  67   0.0000       0.033993         0.9250
  68   0.0000       0.060061         1.6343
  69   0.0000       0.105707         2.8764
  70   0.0000       0.116629         3.1736
  71   0.0000       0.135772         3.6946

MULLIKEN ATOMIC CHARGES
-----------------------
   0 S :    0.128509
   1 C :   -0.104262
   2 C :   -0.107442
   3 C :    0.046228
   4 C :   -0.156753
   5 H :   -0.014672
   6 C :    0.092262
   7 H :    0.035848
   8 H :   -0.006884
   9 C :   -0.095086
  10 H :    0.027169
  11 H :    0.041348
  12 C :   -0.004390
  13 H :    0.017812
  14 H :    0.030756
  15 H :    0.034728
  16 S :    0.118048
  17 C :   -0.076232
  18 C :   -0.040560
  19 C :   -0.072005
  20 C :   -0.187504
  21 H :    0.025409
  22 C :    0.081737
  23 H :    0.017797
  24 H :    0.030309
  25 C :   -0.068143
  26 H :    0.036803
  27 H :    0.030077
  28 C :   -0.020071
  29 H :    0.041619
  30 H :    0.011077
  31 H :    0.018634
  32 H :    0.039642
  33 H :    0.048194
Sum of atomic charges:    0.0000000

LOEWDIN ATOMIC CHARGES
----------------------
   0 S :    0.425974
   1 C :   -0.212286
   2 C :   -0.057447
   3 C :   -0.050861
   4 C :   -0.190982
   5 H :    0.016347
   6 C :   -0.028111
   7 H :    0.029605
   8 H :    0.021896
   9 C :   -0.040789
  10 H :    0.021909
  11 H :    0.030950
  12 C :   -0.065187
  13 H :    0.026150
  14 H :    0.023178
  15 H :    0.032269
  16 S :    0.423151
  17 C :   -0.193434
  18 C :   -0.081596
  19 C :   -0.048952
  20 C :   -0.203880
  21 H :    0.034834
  22 C :   -0.026527
  23 H :    0.026174
  24 H :    0.027728
  25 C :   -0.034649
  26 H :    0.029955
  27 H :    0.020401
  28 C :   -0.063821
  29 H :    0.024477
  30 H :    0.018576
  31 H :    0.023167
  32 H :    0.018895
  33 H :    0.022886

  Mayer bond orders larger than 0.100000
B(  0-S ,  1-C ) :   1.1771 B(  0-S ,  4-C ) :   1.1310 B(  1-C ,  2-C ) :   1.5713
B(  1-C ,  4-C ) :   0.1009 B(  1-C , 32-H ) :   0.9599 B(  2-C ,  3-C ) :   1.2609
B(  2-C ,  6-C ) :   1.0358 B(  3-C ,  4-C ) :   1.5660 B(  3-C ,  5-H ) :   0.9992
B(  4-C , 20-C ) :   1.0473 B(  6-C ,  7-H ) :   0.9411 B(  6-C ,  8-H ) :   0.9321
B(  6-C ,  9-C ) :   1.0367 B(  9-C , 10-H ) :   0.9583 B(  9-C , 11-H ) :   0.9591
B(  9-C , 12-C ) :   1.0814 B( 12-C , 13-H ) :   0.9672 B( 12-C , 14-H ) :   0.9727
B( 12-C , 15-H ) :   0.9735 B( 16-S , 17-C ) :   1.1923 B( 16-S , 20-C ) :   1.1252
B( 17-C , 18-C ) :   1.5823 B( 17-C , 33-H ) :   0.9646 B( 18-C , 19-C ) :   1.2655
B( 18-C , 21-H ) :   0.9892 B( 19-C , 20-C ) :   1.5925 B( 19-C , 22-C ) :   1.0152
B( 22-C , 23-H ) :   0.9387 B( 22-C , 24-H ) :   0.9397 B( 22-C , 25-C ) :   1.0673
B( 25-C , 26-H ) :   0.9550 B( 25-C , 27-H ) :   0.9620 B( 25-C , 28-C ) :   1.0810
B( 28-C , 29-H ) :   0.9720 B( 28-C , 30-H ) :   0.9670 B( 28-C , 31-H ) :   0.9679

Dispersion correction           -0.015853392
FINAL SINGLE POINT ENERGY     -1339.870998334050

DIPOLE MOMENT
-------------
                                X             Y             Z
Electronic contribution:     -8.71759      -4.86522      17.36949
Nuclear contribution   :      8.71399       5.00301     -17.73312
                        -----------------------------------------
Total Dipole Moment    :     -0.00360       0.13778      -0.36363
                        -----------------------------------------
Magnitude (a.u.)       :      0.38888
Magnitude (Debye)      :      0.98845

Rotational constants in cm-1:     0.021927     0.008232     0.007285
Rotational constants in MHz :   657.344515   246.791937   218.385208

                             ****ORCA TERMINATED NORMALLY****
TOTAL RUN TIME: 0 days 0 hours 0 minutes 33 seconds 291 msec
