                         Program Version 4.2.1 -  RELEASE  -
|  1> ! wB97X-D3 SP def2-SVP
|  2> %pal
|  3> nprocs 16
|  4> end
|  5>
|  6> * xyz 0 1
|  7> S 	 -7.05818 	 75.1589 	 56.8572
|  8> C 	 -6.83084 	 73.6417 	 57.7859
|  9> C 	 -6.28265 	 72.6785 	 56.9973
| 10> C 	 -6.31634 	 73.0999 	 55.5941
| 11> C 	 -6.77867 	 74.3822 	 55.3361
| 12> H 	 -5.84938 	 72.4557 	 54.8936
| 13> C 	 -5.7351 	 71.3297 	 57.456
| 14> H 	 -5.93614 	 71.1826 	 58.5516
| 15> H 	 -4.64453 	 71.4285 	 57.5604
| 16> C 	 -6.25698 	 70.0669 	 56.6687
| 17> H 	 -7.35813 	 69.9197 	 56.6952
| 18> H 	 -6.04403 	 70.3252 	 55.6298
| 19> C 	 -5.51216 	 68.7329 	 56.8957
| 20> H 	 -5.80892 	 67.8261 	 56.242
| 21> H 	 -4.4868 	 68.8431 	 56.8163
| 22> H 	 -5.75415 	 68.5723 	 58.0134
| 23> S 	 -8.06323 	 76.1784 	 53.7879
| 24> C 	 -7.07227 	 77.0546 	 52.6005
| 25> C 	 -5.85934 	 76.3563 	 52.2669
| 26> C 	 -5.76097 	 75.254 	 53.0585
| 27> C 	 -6.67285 	 75.1488 	 54.0835
| 28> H 	 -5.12928 	 76.6253 	 51.5114
| 29> C 	 -4.43801 	 74.4723 	 52.9809
| 30> H 	 -4.36009 	 74.1478 	 53.943
| 31> H 	 -3.71553 	 75.1809 	 52.6801
| 32> C 	 -4.37662 	 73.3006 	 51.9394
| 33> H 	 -5.13142 	 72.609 	 52.3719
| 34> H 	 -3.41462 	 72.7318 	 52.0411
| 35> C 	 -4.49673 	 73.749 	 50.5563
| 36> H 	 -3.99097 	 74.6786 	 50.2192
| 37> H 	 -5.56171 	 73.9925 	 50.2342
| 38> H 	 -4.17197 	 73.0445 	 49.8101
| 39> H 	 -6.99648 	 73.4424 	 58.8502
| 40> H 	 -7.36941 	 77.7925 	 51.8819
| 41> *
| 42>
| 43>                          ****END OF INPUT****

CARTESIAN COORDINATES (ANGSTROEM)
---------------------------------
  S     -7.058180   75.158900   56.857200
  C     -6.830840   73.641700   57.785900
  C     -6.282650   72.678500   56.997300
  C     -6.316340   73.099900   55.594100
  C     -6.778670   74.382200   55.336100
  H     -5.849380   72.455700   54.893600
  C     -5.735100   71.329700   57.456000
  H     -5.936140   71.182600   58.551600
  H     -4.644530   71.428500   57.560400
  C     -6.256980   70.066900   56.668700
  H     -7.358130   69.919700   56.695200
  H     -6.044030   70.325200   55.629800
  C     -5.512160   68.732900   56.895700
  H     -5.808920   67.826100   56.242000
  H     -4.486800   68.843100   56.816300
  H     -5.754150   68.572300   58.013400
  S     -8.063230   76.178400   53.787900
  C     -7.072270   77.054600   52.600500
  C     -5.859340   76.356300   52.266900
  C     -5.760970   75.254000   53.058500
  C     -6.672850   75.148800   54.083500
  H     -5.129280   76.625300   51.511400
  C     -4.438010   74.472300   52.980900
  H     -4.360090   74.147800   53.943000
  H     -3.715530   75.180900   52.680100
  C     -4.376620   73.300600   51.939400
  H     -5.131420   72.609000   52.371900
  H     -3.414620   72.731800   52.041100
  C     -4.496730   73.749000   50.556300
  H     -3.990970   74.678600   50.219200
  H     -5.561710   73.992500   50.234200
  H     -4.171970   73.044500   49.810100
  H     -6.996480   73.442400   58.850200
  H     -7.369410   77.792500   51.881900

 Total Charge           Charge          ....    0
 Multiplicity           Mult            ....    1
 Number of Electrons    NEL             ....  134
 Basis Dimension        Dim             ....  322

ORBITAL ENERGIES
----------------

  NO   OCC          E(Eh)            E(eV)
   0   2.0000     -88.972609     -2421.0678
   1   2.0000     -88.966522     -2420.9021
   2   2.0000     -10.333740      -281.1954
   3   2.0000     -10.328410      -281.0503
   4   2.0000     -10.322242      -280.8825
   5   2.0000     -10.316769      -280.7336
   6   2.0000     -10.306858      -280.4639
   7   2.0000     -10.304376      -280.3963
   8   2.0000     -10.296674      -280.1867
   9   2.0000     -10.296395      -280.1791
  10   2.0000     -10.294471      -280.1268
  11   2.0000     -10.293984      -280.1135
  12   2.0000     -10.292803      -280.0814
  13   2.0000     -10.289789      -279.9994
  14   2.0000     -10.281511      -279.7741
  15   2.0000     -10.279307      -279.7142
  16   2.0000      -8.086405      -220.0423
  17   2.0000      -8.080768      -219.8889
  18   2.0000      -6.044756      -164.4862
  19   2.0000      -6.041173      -164.3887
  20   2.0000      -6.039565      -164.3449
  21   2.0000      -6.037242      -164.2817
  22   2.0000      -6.035425      -164.2323
  23   2.0000      -6.031120      -164.1151
  24   2.0000      -1.008623       -27.4460
  25   2.0000      -0.984473       -26.7889
  26   2.0000      -0.914116       -24.8744
  27   2.0000      -0.906327       -24.6624
  28   2.0000      -0.870132       -23.6775
  29   2.0000      -0.857017       -23.3206
  30   2.0000      -0.841369       -22.8948
  31   2.0000      -0.812715       -22.1151
  32   2.0000      -0.785116       -21.3641
  33   2.0000      -0.774367       -21.0716
  34   2.0000      -0.710973       -19.3466
  35   2.0000      -0.701309       -19.0836
  36   2.0000      -0.690818       -18.7981
  37   2.0000      -0.674574       -18.3561
  38   2.0000      -0.636770       -17.3274
  39   2.0000      -0.623397       -16.9635
  40   2.0000      -0.583035       -15.8652
  41   2.0000      -0.570417       -15.5218
  42   2.0000      -0.562694       -15.3117
  43   2.0000      -0.555564       -15.1177
  44   2.0000      -0.548226       -14.9180
  45   2.0000      -0.527488       -14.3537
  46   2.0000      -0.522292       -14.2123
  47   2.0000      -0.509177       -13.8554
  48   2.0000      -0.502060       -13.6617
  49   2.0000      -0.499228       -13.5847
  50   2.0000      -0.493292       -13.4232
  51   2.0000      -0.484800       -13.1921
  52   2.0000      -0.475281       -12.9330
  53   2.0000      -0.464090       -12.6285
  54   2.0000      -0.455420       -12.3926
  55   2.0000      -0.448629       -12.2078
  56   2.0000      -0.445040       -12.1102
  57   2.0000      -0.444224       -12.0879
  58   2.0000      -0.439657       -11.9637
  59   2.0000      -0.421197       -11.4613
  60   2.0000      -0.417182       -11.3521
  61   2.0000      -0.404948       -11.0192
  62   2.0000      -0.402919       -10.9640
  63   2.0000      -0.345307        -9.3963
  64   2.0000      -0.339105        -9.2275
  65   2.0000      -0.325839        -8.8665
  66   2.0000      -0.290574        -7.9069
  67   0.0000       0.018856         0.5131
  68   0.0000       0.069539         1.8923
  69   0.0000       0.102428         2.7872
  70   0.0000       0.109423         2.9776
  71   0.0000       0.125211         3.4072

MULLIKEN ATOMIC CHARGES
-----------------------
   0 S :    0.107516
   1 C :   -0.125396
   2 C :   -0.096809
   3 C :    0.012437
   4 C :   -0.080127
   5 H :   -0.008349
   6 C :    0.048814
   7 H :    0.013620
   8 H :    0.044245
   9 C :   -0.089697
  10 H :    0.051183
  11 H :    0.022129
  12 C :   -0.069665
  13 H :    0.061814
  14 H :    0.021086
  15 H :    0.036444
  16 S :    0.121543
  17 C :   -0.070528
  18 C :   -0.067244
  19 C :   -0.019838
  20 C :   -0.187676
  21 H :    0.024601
  22 C :    0.099161
  23 H :   -0.004764
  24 H :    0.009854
  25 C :   -0.051733
  26 H :    0.036161
  27 H :    0.037357
  28 C :   -0.071403
  29 H :    0.025389
  30 H :    0.039378
  31 H :    0.030237
  32 H :    0.049679
  33 H :    0.050582
Sum of atomic charges:    0.0000000

LOEWDIN ATOMIC CHARGES
----------------------
   0 S :    0.398952
   1 C :   -0.187397
   2 C :   -0.062850
   3 C :   -0.068023
   4 C :   -0.203081
   5 H :    0.016547
   6 C :   -0.038639
   7 H :    0.030747
   8 H :    0.039078
   9 C :   -0.046908
  10 H :    0.033205
  11 H :    0.017663
  12 C :   -0.071932
  13 H :    0.041849
  14 H :    0.011015
  15 H :    0.033386
  16 S :    0.411423
  17 C :   -0.176915
  18 C :   -0.063897
  19 C :   -0.055283
  20 C :   -0.197070
  21 H :    0.034730
  22 C :   -0.009493
  23 H :    0.013511
  24 H :    0.020699
  25 C :   -0.045214
  26 H :    0.029227
  27 H :    0.030613
  28 C :   -0.082344
  29 H :    0.027521
  30 H :    0.034882
  31 H :    0.026078
  32 H :    0.034841
  33 H :    0.023082

  Mayer bond orders larger than 0.100000
B(  0-S ,  1-C ) :   1.1164 B(  0-S ,  4-C ) :   1.1471 B(  1-C ,  2-C ) :   1.6448
B(  1-C , 32-H ) :   0.9615 B(  2-C ,  3-C ) :   1.2338 B(  2-C ,  6-C ) :   1.0275
B(  3-C ,  4-C ) :   1.5577 B(  3-C ,  5-H ) :   0.9996 B(  4-C , 20-C ) :   1.0337
B(  6-C ,  7-H ) :   0.9373 B(  6-C ,  8-H ) :   0.9362 B(  6-C ,  9-C ) :   1.0361
B(  9-C , 10-H ) :   0.9609 B(  9-C , 11-H ) :   0.9573 B(  9-C , 12-C ) :   1.0705
B( 12-C , 13-H ) :   0.9736 B( 12-C , 14-H ) :   0.9764 B( 12-C , 15-H ) :   0.9778
B( 16-S , 17-C ) :   1.1676 B( 16-S , 20-C ) :   1.1489 B( 17-C , 18-C ) :   1.5505
B( 17-C , 20-C ) :   0.1216 B( 17-C , 33-H ) :   0.9654 B( 18-C , 19-C ) :   1.3093
B( 18-C , 21-H ) :   0.9855 B( 19-C , 20-C ) :   1.5567 B( 19-C , 22-C ) :   1.0142
B( 22-C , 23-H ) :   0.9335 B( 22-C , 24-H ) :   0.9456 B( 22-C , 25-C ) :   1.0738
B( 25-C , 26-H ) :   0.9513 B( 25-C , 27-H ) :   0.9566 B( 25-C , 28-C ) :   1.0785
B( 28-C , 29-H ) :   0.9716 B( 28-C , 30-H ) :   0.9657 B( 28-C , 31-H ) :   0.9699

Dispersion correction           -0.014174834
FINAL SINGLE POINT ENERGY     -1339.827524231390

DIPOLE MOMENT
-------------
                                X             Y             Z
Electronic contribution:    -15.61313      25.02210       6.97031
Nuclear contribution   :     16.20157     -25.52969      -7.23558
                        -----------------------------------------
Total Dipole Moment    :      0.58844      -0.50759      -0.26526
                        -----------------------------------------
Magnitude (a.u.)       :      0.82114
Magnitude (Debye)      :      2.08717

Rotational constants in cm-1:     0.017901     0.008767     0.006325
Rotational constants in MHz :   536.667084   262.832854   189.606801

                             ****ORCA TERMINATED NORMALLY****
TOTAL RUN TIME: 0 days 0 hours 0 minutes 34 seconds 121 msec
