                         Program Version 4.2.1 -  RELEASE  -
|  1> ! wB97X-D3 SP def2-SVP
|  2> %pal
|  3> nprocs 16
|  4> end
|  5>
|  6> * xyz 0 1
|  7> S 	 -95.1635 	 53.6266 	 122.405
|  8> C 	 -95.2518 	 53.159 	 120.642
|  9> C 	 -94.5795 	 51.9937 	 120.457
| 10> C 	 -94.1754 	 51.4047 	 121.649
| 11> C 	 -94.3087 	 52.1791 	 122.835
| 12> H 	 -93.7488 	 50.4157 	 121.621
| 13> C 	 -94.4939 	 51.371 	 119.088
| 14> H 	 -93.4484 	 51.007 	 118.932
| 15> H 	 -94.6713 	 52.1527 	 118.325
| 16> C 	 -95.367 	 50.1231 	 118.932
| 17> H 	 -95.0553 	 49.748 	 117.958
| 18> H 	 -95.0284 	 49.2923 	 119.579
| 19> C 	 -96.8873 	 50.3501 	 119.076
| 20> H 	 -97.4412 	 49.4863 	 118.897
| 21> H 	 -97.0857 	 50.5708 	 120.158
| 22> H 	 -97.3472 	 51.034 	 118.4
| 23> S 	 -93.5616 	 53.3674 	 125.265
| 24> C 	 -93.0359 	 52.2128 	 126.553
| 25> C 	 -93.0236 	 50.9333 	 126.109
| 26> C 	 -93.5651 	 50.7607 	 124.831
| 27> C 	 -93.8778 	 51.9367 	 124.202
| 28> H 	 -92.6658 	 50.099 	 126.709
| 29> C 	 -93.9056 	 49.339 	 124.313
| 30> H 	 -92.8951 	 48.9231 	 123.929
| 31> H 	 -94.586 	 49.4118 	 123.527
| 32> C 	 -94.5051 	 48.3281 	 125.316
| 33> H 	 -95.3786 	 48.8672 	 125.808
| 34> H 	 -93.8317 	 48.1594 	 126.197
| 35> C 	 -94.9454 	 46.9774 	 124.745
| 36> H 	 -94.0665 	 46.5874 	 124.247
| 37> H 	 -95.6863 	 47.2345 	 124.038
| 38> H 	 -95.4031 	 46.222 	 125.464
| 39> H 	 -95.6904 	 53.7675 	 119.917
| 40> H 	 -92.5566 	 52.5148 	 127.487
| 41> *
| 42>
| 43>                          ****END OF INPUT****

CARTESIAN COORDINATES (ANGSTROEM)
---------------------------------
  S    -95.163500   53.626600  122.405000
  C    -95.251800   53.159000  120.642000
  C    -94.579500   51.993700  120.457000
  C    -94.175400   51.404700  121.649000
  C    -94.308700   52.179100  122.835000
  H    -93.748800   50.415700  121.621000
  C    -94.493900   51.371000  119.088000
  H    -93.448400   51.007000  118.932000
  H    -94.671300   52.152700  118.325000
  C    -95.367000   50.123100  118.932000
  H    -95.055300   49.748000  117.958000
  H    -95.028400   49.292300  119.579000
  C    -96.887300   50.350100  119.076000
  H    -97.441200   49.486300  118.897000
  H    -97.085700   50.570800  120.158000
  H    -97.347200   51.034000  118.400000
  S    -93.561600   53.367400  125.265000
  C    -93.035900   52.212800  126.553000
  C    -93.023600   50.933300  126.109000
  C    -93.565100   50.760700  124.831000
  C    -93.877800   51.936700  124.202000
  H    -92.665800   50.099000  126.709000
  C    -93.905600   49.339000  124.313000
  H    -92.895100   48.923100  123.929000
  H    -94.586000   49.411800  123.527000
  C    -94.505100   48.328100  125.316000
  H    -95.378600   48.867200  125.808000
  H    -93.831700   48.159400  126.197000
  C    -94.945400   46.977400  124.745000
  H    -94.066500   46.587400  124.247000
  H    -95.686300   47.234500  124.038000
  H    -95.403100   46.222000  125.464000
  H    -95.690400   53.767500  119.917000
  H    -92.556600   52.514800  127.487000

 Total Charge           Charge          ....    0
 Multiplicity           Mult            ....    1
 Number of Electrons    NEL             ....  134
 Basis Dimension        Dim             ....  322

ORBITAL ENERGIES
----------------

  NO   OCC          E(Eh)            E(eV)
   0   2.0000     -88.968311     -2420.9508
   1   2.0000     -88.962960     -2420.8052
   2   2.0000     -10.336198      -281.2622
   3   2.0000     -10.333487      -281.1885
   4   2.0000     -10.322164      -280.8804
   5   2.0000     -10.311043      -280.5777
   6   2.0000     -10.303268      -280.3662
   7   2.0000     -10.301391      -280.3151
   8   2.0000     -10.297174      -280.2004
   9   2.0000     -10.296047      -280.1697
  10   2.0000     -10.293842      -280.1097
  11   2.0000     -10.292479      -280.0726
  12   2.0000     -10.292358      -280.0693
  13   2.0000     -10.291376      -280.0426
  14   2.0000     -10.283659      -279.8326
  15   2.0000     -10.273332      -279.5516
  16   2.0000      -8.081373      -219.9054
  17   2.0000      -8.076988      -219.7860
  18   2.0000      -6.040135      -164.3604
  19   2.0000      -6.036373      -164.2581
  20   2.0000      -6.035543      -164.2355
  21   2.0000      -6.031692      -164.1307
  22   2.0000      -6.031577      -164.1276
  23   2.0000      -6.027767      -164.0239
  24   2.0000      -1.003807       -27.3150
  25   2.0000      -0.982316       -26.7302
  26   2.0000      -0.914279       -24.8788
  27   2.0000      -0.906346       -24.6629
  28   2.0000      -0.870328       -23.6828
  29   2.0000      -0.852699       -23.2031
  30   2.0000      -0.839108       -22.8333
  31   2.0000      -0.813210       -22.1286
  32   2.0000      -0.788659       -21.4605
  33   2.0000      -0.777898       -21.1677
  34   2.0000      -0.713988       -19.4286
  35   2.0000      -0.700007       -19.0482
  36   2.0000      -0.694745       -18.9050
  37   2.0000      -0.657577       -17.8936
  38   2.0000      -0.638516       -17.3749
  39   2.0000      -0.623977       -16.9793
  40   2.0000      -0.598453       -16.2847
  41   2.0000      -0.569367       -15.4933
  42   2.0000      -0.568017       -15.4565
  43   2.0000      -0.549705       -14.9582
  44   2.0000      -0.537193       -14.6178
  45   2.0000      -0.525777       -14.3071
  46   2.0000      -0.521542       -14.1919
  47   2.0000      -0.515683       -14.0324
  48   2.0000      -0.501850       -13.6560
  49   2.0000      -0.499643       -13.5960
  50   2.0000      -0.487800       -13.2737
  51   2.0000      -0.481389       -13.0993
  52   2.0000      -0.474819       -12.9205
  53   2.0000      -0.466486       -12.6937
  54   2.0000      -0.460334       -12.5263
  55   2.0000      -0.454300       -12.3621
  56   2.0000      -0.441818       -12.0225
  57   2.0000      -0.438286       -11.9264
  58   2.0000      -0.432184       -11.7603
  59   2.0000      -0.424191       -11.5428
  60   2.0000      -0.420089       -11.4312
  61   2.0000      -0.413964       -11.2645
  62   2.0000      -0.406669       -11.0660
  63   2.0000      -0.359606        -9.7854
  64   2.0000      -0.335703        -9.1350
  65   2.0000      -0.330352        -8.9893
  66   2.0000      -0.282185        -7.6786
  67   0.0000       0.014715         0.4004
  68   0.0000       0.078881         2.1465
  69   0.0000       0.094059         2.5595
  70   0.0000       0.123318         3.3557
  71   0.0000       0.128457         3.4955

MULLIKEN ATOMIC CHARGES
-----------------------
   0 S :    0.075872
   1 C :   -0.117848
   2 C :   -0.059656
   3 C :    0.003098
   4 C :   -0.123666
   5 H :   -0.004852
   6 C :    0.057107
   7 H :    0.032843
   8 H :    0.028787
   9 C :   -0.080455
  10 H :    0.019838
  11 H :    0.028857
  12 C :   -0.016979
  13 H :    0.012160
  14 H :    0.049714
  15 H :    0.024618
  16 S :    0.087516
  17 C :   -0.083605
  18 C :   -0.025034
  19 C :   -0.061510
  20 C :   -0.109426
  21 H :    0.022514
  22 C :    0.067078
  23 H :    0.045669
  24 H :    0.013884
  25 C :   -0.129190
  26 H :    0.039765
  27 H :    0.029629
  28 C :   -0.028228
  29 H :    0.030260
  30 H :    0.024801
  31 H :    0.057003
  32 H :    0.026922
  33 H :    0.062513
Sum of atomic charges:   -0.0000000

LOEWDIN ATOMIC CHARGES
----------------------
   0 S :    0.377786
   1 C :   -0.162582
   2 C :   -0.068238
   3 C :   -0.074469
   4 C :   -0.185185
   5 H :    0.023716
   6 C :   -0.029037
   7 H :    0.037018
   8 H :    0.032882
   9 C :   -0.041976
  10 H :    0.021918
  11 H :    0.026974
  12 C :   -0.065518
  13 H :    0.018946
  14 H :    0.037854
  15 H :    0.022343
  16 S :    0.352807
  17 C :   -0.160744
  18 C :   -0.067489
  19 C :   -0.057346
  20 C :   -0.172921
  21 H :    0.035698
  22 C :   -0.026559
  23 H :    0.040100
  24 H :    0.018010
  25 C :   -0.052851
  26 H :    0.029528
  27 H :    0.019223
  28 C :   -0.064310
  29 H :    0.025003
  30 H :    0.020083
  31 H :    0.040587
  32 H :    0.015359
  33 H :    0.033392

  Mayer bond orders larger than 0.100000
B(  0-S ,  1-C ) :   1.1167 B(  0-S ,  4-C ) :   1.1628 B(  1-C ,  2-C ) :   1.5873
B(  1-C ,  4-C ) :   0.1087 B(  1-C , 32-H ) :   0.9807 B(  2-C ,  3-C ) :   1.2814
B(  2-C ,  6-C ) :   1.0294 B(  3-C ,  4-C ) :   1.5086 B(  3-C ,  5-H ) :   0.9891
B(  4-C , 20-C ) :   1.0825 B(  6-C ,  7-H ) :   0.9320 B(  6-C ,  8-H ) :   0.9448
B(  6-C ,  9-C ) :   1.0749 B(  9-C , 10-H ) :   0.9545 B(  9-C , 11-H ) :   0.9539
B(  9-C , 12-C ) :   1.0708 B( 12-C , 13-H ) :   0.9702 B( 12-C , 14-H ) :   0.9716
B( 12-C , 15-H ) :   0.9758 B( 16-S , 17-C ) :   1.1189 B( 16-S , 20-C ) :   1.1066
B( 17-C , 18-C ) :   1.6460 B( 17-C , 33-H ) :   0.9623 B( 18-C , 19-C ) :   1.2341
B( 18-C , 21-H ) :   0.9822 B( 19-C , 20-C ) :   1.6422 B( 19-C , 22-C ) :   1.0280
B( 22-C , 23-H ) :   0.9244 B( 22-C , 24-H ) :   0.9391 B( 22-C , 25-C ) :   1.0600
B( 25-C , 26-H ) :   0.9561 B( 25-C , 27-H ) :   0.9496 B( 25-C , 28-C ) :   1.0745
B( 28-C , 29-H ) :   0.9741 B( 28-C , 30-H ) :   0.9758 B( 28-C , 31-H ) :   0.9728

Dispersion correction           -0.014048265
FINAL SINGLE POINT ENERGY     -1339.872514104067

DIPOLE MOMENT
-------------
                                X             Y             Z
Electronic contribution:      6.40164      27.31104      11.89655
Nuclear contribution   :     -6.33292     -28.12885     -12.16915
                        -----------------------------------------
Total Dipole Moment    :      0.06872      -0.81781      -0.27260
                        -----------------------------------------
Magnitude (a.u.)       :      0.86478
Magnitude (Debye)      :      2.19810

Rotational constants in cm-1:     0.016899     0.009413     0.006478
Rotational constants in MHz :   506.611414   282.196708   194.218811

                             ****ORCA TERMINATED NORMALLY****
TOTAL RUN TIME: 0 days 0 hours 0 minutes 35 seconds 589 msec
