                         Program Version 4.2.1 -  RELEASE  -
|  1> ! wB97X-D3 SP def2-SVP
|  2> %pal
|  3> nprocs 16
|  4> end
|  5>
|  6> * xyz 0 1
|  7> S 	 16.9296 	 33.5438 	 61.1878
|  8> C 	 18.6349 	 33.3662 	 60.966
|  9> C 	 19.3181 	 34.1194 	 61.9471
| 10> C 	 18.4286 	 34.8166 	 62.7878
| 11> C 	 17.1096 	 34.7347 	 62.4129
| 12> H 	 18.7987 	 35.3657 	 63.6095
| 13> C 	 20.8587 	 34.2445 	 62.0304
| 14> H 	 21.3251 	 33.3297 	 61.6364
| 15> H 	 21.1557 	 34.3442 	 63.0528
| 16> C 	 21.4373 	 35.387 	 61.167
| 17> H 	 21.2612 	 36.326 	 61.6465
| 18> H 	 22.5521 	 35.1142 	 61.115
| 19> C 	 21.0369 	 35.3995 	 59.6521
| 20> H 	 20.0094 	 35.593 	 59.5148
| 21> H 	 21.5802 	 36.17 	 59.0793
| 22> H 	 21.28 	 34.4344 	 59.1801
| 23> S 	 14.3966 	 34.5084 	 63.1451
| 24> C 	 13.6561 	 35.7883 	 64.1073
| 25> C 	 14.556 	 36.7536 	 64.3144
| 26> C 	 15.857 	 36.5777 	 63.7391
| 27> C 	 15.9436 	 35.3551 	 63.0672
| 28> H 	 14.1837 	 37.6076 	 64.9237
| 29> C 	 16.9293 	 37.6965 	 63.8497
| 30> H 	 17.9337 	 37.3267 	 63.7757
| 31> H 	 16.8534 	 38.0392 	 64.9011
| 32> C 	 16.707 	 38.8428 	 62.8294
| 33> H 	 17.3735 	 39.6295 	 63.1188
| 34> H 	 15.6578 	 39.0574 	 62.8158
| 35> C 	 17.1863 	 38.43 	 61.4298
| 36> H 	 18.0617 	 37.7565 	 61.4434
| 37> H 	 17.3354 	 39.3122 	 60.7502
| 38> H 	 16.5749 	 37.834 	 60.7424
| 39> H 	 19.1152 	 32.6773 	 60.2314
| 40> H 	 12.6615 	 35.808 	 64.4081
| 41> *
| 42>
| 43>                          ****END OF INPUT****

CARTESIAN COORDINATES (ANGSTROEM)
---------------------------------
  S     16.929600   33.543800   61.187800
  C     18.634900   33.366200   60.966000
  C     19.318100   34.119400   61.947100
  C     18.428600   34.816600   62.787800
  C     17.109600   34.734700   62.412900
  H     18.798700   35.365700   63.609500
  C     20.858700   34.244500   62.030400
  H     21.325100   33.329700   61.636400
  H     21.155700   34.344200   63.052800
  C     21.437300   35.387000   61.167000
  H     21.261200   36.326000   61.646500
  H     22.552100   35.114200   61.115000
  C     21.036900   35.399500   59.652100
  H     20.009400   35.593000   59.514800
  H     21.580200   36.170000   59.079300
  H     21.280000   34.434400   59.180100
  S     14.396600   34.508400   63.145100
  C     13.656100   35.788300   64.107300
  C     14.556000   36.753600   64.314400
  C     15.857000   36.577700   63.739100
  C     15.943600   35.355100   63.067200
  H     14.183700   37.607600   64.923700
  C     16.929300   37.696500   63.849700
  H     17.933700   37.326700   63.775700
  H     16.853400   38.039200   64.901100
  C     16.707000   38.842800   62.829400
  H     17.373500   39.629500   63.118800
  H     15.657800   39.057400   62.815800
  C     17.186300   38.430000   61.429800
  H     18.061700   37.756500   61.443400
  H     17.335400   39.312200   60.750200
  H     16.574900   37.834000   60.742400
  H     19.115200   32.677300   60.231400
  H     12.661500   35.808000   64.408100

 Total Charge           Charge          ....    0
 Multiplicity           Mult            ....    1
 Number of Electrons    NEL             ....  134
 Basis Dimension        Dim             ....  322

ORBITAL ENERGIES
----------------

  NO   OCC          E(Eh)            E(eV)
   0   2.0000     -88.968068     -2420.9442
   1   2.0000     -88.962635     -2420.7964
   2   2.0000     -10.332805      -281.1699
   3   2.0000     -10.330093      -281.0961
   4   2.0000     -10.318215      -280.7729
   5   2.0000     -10.310890      -280.5736
   6   2.0000     -10.306652      -280.4583
   7   2.0000     -10.302195      -280.3370
   8   2.0000     -10.295456      -280.1536
   9   2.0000     -10.295299      -280.1493
  10   2.0000     -10.293844      -280.1097
  11   2.0000     -10.292628      -280.0766
  12   2.0000     -10.289330      -279.9869
  13   2.0000     -10.286945      -279.9220
  14   2.0000     -10.277374      -279.6616
  15   2.0000     -10.275847      -279.6200
  16   2.0000      -8.083531      -219.9640
  17   2.0000      -8.077242      -219.7929
  18   2.0000      -6.041888      -164.4081
  19   2.0000      -6.037853      -164.2983
  20   2.0000      -6.035920      -164.2457
  21   2.0000      -6.034494      -164.2069
  22   2.0000      -6.031784      -164.1332
  23   2.0000      -6.027815      -164.0252
  24   2.0000      -1.010334       -27.4926
  25   2.0000      -0.987259       -26.8647
  26   2.0000      -0.907706       -24.6999
  27   2.0000      -0.906032       -24.6544
  28   2.0000      -0.868102       -23.6223
  29   2.0000      -0.850628       -23.1468
  30   2.0000      -0.839726       -22.8501
  31   2.0000      -0.814719       -22.1696
  32   2.0000      -0.784900       -21.3582
  33   2.0000      -0.774465       -21.0743
  34   2.0000      -0.707850       -19.2616
  35   2.0000      -0.698411       -19.0047
  36   2.0000      -0.692695       -18.8492
  37   2.0000      -0.656286       -17.8585
  38   2.0000      -0.637592       -17.3498
  39   2.0000      -0.629111       -17.1190
  40   2.0000      -0.603433       -16.4202
  41   2.0000      -0.567769       -15.4498
  42   2.0000      -0.558043       -15.1851
  43   2.0000      -0.549864       -14.9626
  44   2.0000      -0.544981       -14.8297
  45   2.0000      -0.534463       -14.5435
  46   2.0000      -0.517357       -14.0780
  47   2.0000      -0.508231       -13.8297
  48   2.0000      -0.500804       -13.6276
  49   2.0000      -0.495821       -13.4920
  50   2.0000      -0.491323       -13.3696
  51   2.0000      -0.475562       -12.9407
  52   2.0000      -0.470202       -12.7948
  53   2.0000      -0.467585       -12.7236
  54   2.0000      -0.458915       -12.4877
  55   2.0000      -0.446713       -12.1557
  56   2.0000      -0.439901       -11.9703
  57   2.0000      -0.437888       -11.9155
  58   2.0000      -0.432999       -11.7825
  59   2.0000      -0.430023       -11.7015
  60   2.0000      -0.421123       -11.4593
  61   2.0000      -0.409750       -11.1499
  62   2.0000      -0.407033       -11.0759
  63   2.0000      -0.359205        -9.7745
  64   2.0000      -0.335270        -9.1232
  65   2.0000      -0.327987        -8.9250
  66   2.0000      -0.286477        -7.7954
  67   0.0000       0.023386         0.6364
  68   0.0000       0.083567         2.2740
  69   0.0000       0.105753         2.8777
  70   0.0000       0.122514         3.3338
  71   0.0000       0.125836         3.4242

MULLIKEN ATOMIC CHARGES
-----------------------
   0 S :    0.115749
   1 C :   -0.138445
   2 C :   -0.116166
   3 C :    0.021614
   4 C :   -0.121726
   5 H :   -0.001365
   6 C :    0.086396
   7 H :    0.018358
   8 H :    0.024654
   9 C :   -0.095808
  10 H :    0.031917
  11 H :    0.042702
  12 C :   -0.052043
  13 H :    0.039561
  14 H :    0.037883
  15 H :    0.022594
  16 S :    0.083599
  17 C :   -0.065411
  18 C :   -0.046677
  19 C :   -0.057850
  20 C :   -0.121019
  21 H :    0.030188
  22 C :    0.056754
  23 H :    0.003914
  24 H :    0.029791
  25 C :    0.009382
  26 H :    0.033241
  27 H :    0.033117
  28 C :   -0.100280
  29 H :    0.029377
  30 H :    0.035067
  31 H :    0.030360
  32 H :    0.066821
  33 H :    0.033751
Sum of atomic charges:   -0.0000000

LOEWDIN ATOMIC CHARGES
----------------------
   0 S :    0.434090
   1 C :   -0.215237
   2 C :   -0.062838
   3 C :   -0.065972
   4 C :   -0.197596
   5 H :    0.023339
   6 C :   -0.028873
   7 H :    0.029738
   8 H :    0.027574
   9 C :   -0.038176
  10 H :    0.016510
  11 H :    0.034900
  12 C :   -0.065547
  13 H :    0.017428
  14 H :    0.030451
  15 H :    0.024106
  16 S :    0.379401
  17 C :   -0.168461
  18 C :   -0.077723
  19 C :   -0.059952
  20 C :   -0.186297
  21 H :    0.038802
  22 C :   -0.027075
  23 H :    0.019492
  24 H :    0.033415
  25 C :   -0.026604
  26 H :    0.026977
  27 H :    0.025665
  28 C :   -0.084088
  29 H :    0.026138
  30 H :    0.030462
  31 H :    0.027233
  32 H :    0.037915
  33 H :    0.020803

  Mayer bond orders larger than 0.100000
B(  0-S ,  1-C ) :   1.1588 B(  0-S ,  4-C ) :   1.1750 B(  1-C ,  2-C ) :   1.5569
B(  1-C ,  4-C ) :   0.1061 B(  1-C , 32-H ) :   0.9668 B(  2-C ,  3-C ) :   1.2979
B(  2-C ,  6-C ) :   1.0256 B(  3-C ,  4-C ) :   1.5117 B(  3-C ,  5-H ) :   1.0017
B(  4-C , 20-C ) :   1.0585 B(  6-C ,  7-H ) :   0.9410 B(  6-C ,  8-H ) :   0.9429
B(  6-C ,  9-C ) :   1.0652 B(  9-C , 10-H ) :   0.9605 B(  9-C , 11-H ) :   0.9592
B(  9-C , 12-C ) :   1.0742 B( 12-C , 13-H ) :   0.9738 B( 12-C , 14-H ) :   0.9743
B( 12-C , 15-H ) :   0.9742 B( 16-S , 17-C ) :   1.1247 B( 16-S , 20-C ) :   1.1358
B( 17-C , 18-C ) :   1.6501 B( 17-C , 33-H ) :   0.9762 B( 18-C , 19-C ) :   1.2241
B( 18-C , 21-H ) :   0.9804 B( 19-C , 20-C ) :   1.6051 B( 19-C , 22-C ) :   1.0287
B( 22-C , 23-H ) :   0.9389 B( 22-C , 24-H ) :   0.9356 B( 22-C , 25-C ) :   1.0794
B( 25-C , 26-H ) :   0.9532 B( 25-C , 27-H ) :   0.9562 B( 25-C , 28-C ) :   1.0622
B( 28-C , 29-H ) :   0.9756 B( 28-C , 30-H ) :   0.9748 B( 28-C , 31-H ) :   0.9732

Dispersion correction           -0.015690053
FINAL SINGLE POINT ENERGY     -1339.883382061565

DIPOLE MOMENT
-------------
                                X             Y             Z
Electronic contribution:    -21.72025     -16.90590       6.01935
Nuclear contribution   :     22.16381      17.35316      -5.86027
                        -----------------------------------------
Total Dipole Moment    :      0.44356       0.44726       0.15908
                        -----------------------------------------
Magnitude (a.u.)       :      0.64969
Magnitude (Debye)      :      1.65138

Rotational constants in cm-1:     0.021174     0.009407     0.007375
Rotational constants in MHz :   634.791709   282.005536   221.094291

                             ****ORCA TERMINATED NORMALLY****
TOTAL RUN TIME: 0 days 0 hours 0 minutes 37 seconds 750 msec
