                         Program Version 4.2.1 -  RELEASE  -
|  1> ! wB97X-D3 SP def2-SVP
|  2> %pal
|  3> nprocs 16
|  4> end
|  5>
|  6> * xyz 0 1
|  7> S 	 -28.8259 	 57.393 	 110.58
|  8> C 	 -28.2447 	 57.7409 	 109.015
|  9> C 	 -29.2508 	 57.9671 	 108.106
| 10> C 	 -30.582 	 57.6225 	 108.628
| 11> C 	 -30.4729 	 57.2786 	 109.952
| 12> H 	 -31.5228 	 57.677 	 108.022
| 13> C 	 -28.9986 	 58.3057 	 106.688
| 14> H 	 -28.0035 	 58.7528 	 106.53
| 15> H 	 -29.7538 	 59.1364 	 106.372
| 16> C 	 -29.3025 	 57.1527 	 105.735
| 17> H 	 -28.3401 	 56.7634 	 105.31
| 18> H 	 -29.7171 	 56.2853 	 106.261
| 19> C 	 -30.2351 	 57.6526 	 104.586
| 20> H 	 -31.2272 	 57.8253 	 104.89
| 21> H 	 -29.818 	 58.5257 	 104.05
| 22> H 	 -30.3395 	 56.8317 	 103.863
| 23> S 	 -32.251 	 57.6409 	 112.095
| 24> C 	 -33.3609 	 56.3506 	 112.372
| 25> C 	 -33.3995 	 55.4668 	 111.325
| 26> C 	 -32.4417 	 55.6952 	 110.391
| 27> C 	 -31.5368 	 56.7163 	 110.711
| 28> H 	 -34.1881 	 54.7783 	 111.284
| 29> C 	 -32.4615 	 54.8393 	 109.102
| 30> H 	 -32.6223 	 53.7713 	 109.173
| 31> H 	 -31.4876 	 54.919 	 108.621
| 32> C 	 -33.4678 	 55.3986 	 108.042
| 33> H 	 -33.6134 	 54.628 	 107.33
| 34> H 	 -32.9838 	 56.1426 	 107.499
| 35> C 	 -34.8692 	 55.8754 	 108.385
| 36> H 	 -34.8832 	 56.556 	 109.219
| 37> H 	 -35.4674 	 54.9844 	 108.494
| 38> H 	 -35.3336 	 56.3841 	 107.578
| 39> H 	 -27.1614 	 57.8214 	 108.678
| 40> H 	 -34.1151 	 56.3969 	 113.111
| 41> *
| 42>
| 43>                          ****END OF INPUT****

CARTESIAN COORDINATES (ANGSTROEM)
---------------------------------
  S    -28.825900   57.393000  110.580000
  C    -28.244700   57.740900  109.015000
  C    -29.250800   57.967100  108.106000
  C    -30.582000   57.622500  108.628000
  C    -30.472900   57.278600  109.952000
  H    -31.522800   57.677000  108.022000
  C    -28.998600   58.305700  106.688000
  H    -28.003500   58.752800  106.530000
  H    -29.753800   59.136400  106.372000
  C    -29.302500   57.152700  105.735000
  H    -28.340100   56.763400  105.310000
  H    -29.717100   56.285300  106.261000
  C    -30.235100   57.652600  104.586000
  H    -31.227200   57.825300  104.890000
  H    -29.818000   58.525700  104.050000
  H    -30.339500   56.831700  103.863000
  S    -32.251000   57.640900  112.095000
  C    -33.360900   56.350600  112.372000
  C    -33.399500   55.466800  111.325000
  C    -32.441700   55.695200  110.391000
  C    -31.536800   56.716300  110.711000
  H    -34.188100   54.778300  111.284000
  C    -32.461500   54.839300  109.102000
  H    -32.622300   53.771300  109.173000
  H    -31.487600   54.919000  108.621000
  C    -33.467800   55.398600  108.042000
  H    -33.613400   54.628000  107.330000
  H    -32.983800   56.142600  107.499000
  C    -34.869200   55.875400  108.385000
  H    -34.883200   56.556000  109.219000
  H    -35.467400   54.984400  108.494000
  H    -35.333600   56.384100  107.578000
  H    -27.161400   57.821400  108.678000
  H    -34.115100   56.396900  113.111000

 Total Charge           Charge          ....    0
 Multiplicity           Mult            ....    1
 Number of Electrons    NEL             ....  134
 Basis Dimension        Dim             ....  322

ORBITAL ENERGIES
----------------

  NO   OCC          E(Eh)            E(eV)
   0   2.0000     -88.965613     -2420.8774
   1   2.0000     -88.963274     -2420.8138
   2   2.0000     -10.326010      -280.9850
   3   2.0000     -10.324495      -280.9438
   4   2.0000     -10.313409      -280.6421
   5   2.0000     -10.309881      -280.5461
   6   2.0000     -10.302584      -280.3476
   7   2.0000     -10.300007      -280.2775
   8   2.0000     -10.297878      -280.2195
   9   2.0000     -10.294345      -280.1234
  10   2.0000     -10.292672      -280.0778
  11   2.0000     -10.291044      -280.0336
  12   2.0000     -10.280831      -279.7556
  13   2.0000     -10.279575      -279.7215
  14   2.0000     -10.276833      -279.6469
  15   2.0000     -10.270112      -279.4640
  16   2.0000      -8.081030      -219.8960
  17   2.0000      -8.077812      -219.8084
  18   2.0000      -6.039600      -164.3459
  19   2.0000      -6.036081      -164.2501
  20   2.0000      -6.035560      -164.2359
  21   2.0000      -6.032584      -164.1550
  22   2.0000      -6.031555      -164.1270
  23   2.0000      -6.028599      -164.0465
  24   2.0000      -1.008302       -27.4373
  25   2.0000      -0.987595       -26.8738
  26   2.0000      -0.913260       -24.8511
  27   2.0000      -0.906945       -24.6792
  28   2.0000      -0.873814       -23.7777
  29   2.0000      -0.852982       -23.2108
  30   2.0000      -0.846564       -23.0362
  31   2.0000      -0.813122       -22.1262
  32   2.0000      -0.789649       -21.4874
  33   2.0000      -0.769166       -20.9301
  34   2.0000      -0.710847       -19.3431
  35   2.0000      -0.698314       -19.0021
  36   2.0000      -0.692015       -18.8307
  37   2.0000      -0.661937       -18.0122
  38   2.0000      -0.637223       -17.3397
  39   2.0000      -0.620826       -16.8935
  40   2.0000      -0.598523       -16.2866
  41   2.0000      -0.570487       -15.5238
  42   2.0000      -0.565710       -15.3937
  43   2.0000      -0.551264       -15.0007
  44   2.0000      -0.542197       -14.7539
  45   2.0000      -0.531968       -14.4756
  46   2.0000      -0.516679       -14.0595
  47   2.0000      -0.503338       -13.6965
  48   2.0000      -0.500391       -13.6163
  49   2.0000      -0.495803       -13.4915
  50   2.0000      -0.494626       -13.4595
  51   2.0000      -0.483349       -13.1526
  52   2.0000      -0.476179       -12.9575
  53   2.0000      -0.464386       -12.6366
  54   2.0000      -0.460004       -12.5174
  55   2.0000      -0.449949       -12.2437
  56   2.0000      -0.445575       -12.1247
  57   2.0000      -0.441756       -12.0208
  58   2.0000      -0.438170       -11.9232
  59   2.0000      -0.423687       -11.5291
  60   2.0000      -0.416300       -11.3281
  61   2.0000      -0.413030       -11.2391
  62   2.0000      -0.411396       -11.1947
  63   2.0000      -0.342658        -9.3242
  64   2.0000      -0.333004        -9.0615
  65   2.0000      -0.325122        -8.8470
  66   2.0000      -0.291243        -7.9251
  67   0.0000       0.030912         0.8412
  68   0.0000       0.062143         1.6910
  69   0.0000       0.112685         3.0663
  70   0.0000       0.113889         3.0991
  71   0.0000       0.119376         3.2484

MULLIKEN ATOMIC CHARGES
-----------------------
   0 S :    0.129928
   1 C :   -0.132661
   2 C :   -0.105115
   3 C :    0.007496
   4 C :   -0.149879
   5 H :    0.040688
   6 C :    0.027268
   7 H :    0.029023
   8 H :    0.043409
   9 C :   -0.077659
  10 H :    0.033692
  11 H :    0.041698
  12 C :   -0.066720
  13 H :    0.026284
  14 H :    0.046970
  15 H :    0.027238
  16 S :    0.095098
  17 C :   -0.063387
  18 C :   -0.026250
  19 C :   -0.006497
  20 C :   -0.160371
  21 H :   -0.004646
  22 C :    0.082425
  23 H :    0.028949
  24 H :    0.024483
  25 C :   -0.060537
  26 H :    0.008366
  27 H :   -0.009998
  28 C :   -0.019746
  29 H :    0.044006
  30 H :    0.021843
  31 H :    0.018531
  32 H :    0.066420
  33 H :    0.039654
Sum of atomic charges:   -0.0000000

LOEWDIN ATOMIC CHARGES
----------------------
   0 S :    0.415020
   1 C :   -0.221970
   2 C :   -0.070825
   3 C :   -0.052392
   4 C :   -0.195545
   5 H :    0.042581
   6 C :   -0.044469
   7 H :    0.030752
   8 H :    0.041310
   9 C :   -0.043578
  10 H :    0.029066
  11 H :    0.024995
  12 C :   -0.066471
  13 H :    0.015803
  14 H :    0.030054
  15 H :    0.026256
  16 S :    0.392992
  17 C :   -0.176396
  18 C :   -0.069933
  19 C :   -0.048734
  20 C :   -0.189194
  21 H :    0.025266
  22 C :   -0.023683
  23 H :    0.028275
  24 H :    0.032413
  25 C :   -0.035432
  26 H :    0.020783
  27 H :    0.006240
  28 C :   -0.060118
  29 H :    0.024687
  30 H :    0.024019
  31 H :    0.024865
  32 H :    0.044285
  33 H :    0.019077

  Mayer bond orders larger than 0.100000
B(  0-S ,  1-C ) :   1.1302 B(  0-S ,  4-C ) :   1.1379 B(  1-C ,  2-C ) :   1.6462
B(  1-C , 32-H ) :   0.9543 B(  2-C ,  3-C ) :   1.1902 B(  2-C ,  6-C ) :   1.0562
B(  3-C ,  4-C ) :   1.5888 B(  3-C ,  5-H ) :   0.9895 B(  4-C , 20-C ) :   1.0488
B(  6-C ,  7-H ) :   0.9387 B(  6-C ,  8-H ) :   0.9483 B(  6-C ,  9-C ) :   1.0186
B(  9-C , 10-H ) :   0.9550 B(  9-C , 11-H ) :   0.9672 B(  9-C , 12-C ) :   1.0754
B( 12-C , 13-H ) :   0.9763 B( 12-C , 14-H ) :   0.9764 B( 12-C , 15-H ) :   0.9722
B( 16-S , 17-C ) :   1.1756 B( 16-S , 20-C ) :   1.1396 B( 17-C , 18-C ) :   1.5653
B( 17-C , 20-C ) :   0.1160 B( 17-C , 33-H ) :   0.9692 B( 18-C , 19-C ) :   1.2813
B( 18-C , 21-H ) :   1.0063 B( 19-C , 20-C ) :   1.5557 B( 19-C , 22-C ) :   1.0371
B( 22-C , 23-H ) :   0.9497 B( 22-C , 24-H ) :   0.9288 B( 22-C , 25-C ) :   1.0615
B( 25-C , 26-H ) :   0.9505 B( 25-C , 27-H ) :   0.9551 B( 25-C , 28-C ) :   1.0954
B( 28-C , 29-H ) :   0.9681 B( 28-C , 30-H ) :   0.9765 B( 28-C , 31-H ) :   0.9675

Dispersion correction           -0.015691682
FINAL SINGLE POINT ENERGY     -1339.858536226409

DIPOLE MOMENT
-------------
                                X             Y             Z
Electronic contribution:      8.92826       5.67248      29.39003
Nuclear contribution   :     -9.23138      -5.88620     -30.20031
                        -----------------------------------------
Total Dipole Moment    :     -0.30312      -0.21372      -0.81029
                        -----------------------------------------
Magnitude (a.u.)       :      0.89114
Magnitude (Debye)      :      2.26509

Rotational constants in cm-1:     0.018249     0.010183     0.007164
Rotational constants in MHz :   547.106205   305.280951   214.774823

                             ****ORCA TERMINATED NORMALLY****
TOTAL RUN TIME: 0 days 0 hours 0 minutes 32 seconds 701 msec
