                         Program Version 4.2.1 -  RELEASE  -
|  1> ! wB97X-D3 SP def2-SVP
|  2> %pal
|  3> nprocs 16
|  4> end
|  5>
|  6> * xyz 0 1
|  7> S 	 28.5015 	 30.8255 	 56.5326
|  8> C 	 29.7288 	 29.5028 	 56.7519
|  9> C 	 30.9827 	 30.1563 	 57.0188
| 10> C 	 30.7776 	 31.5705 	 57.1259
| 11> C 	 29.5338 	 32.1238 	 56.896
| 12> H 	 31.534 	 32.2996 	 57.1409
| 13> C 	 32.2966 	 29.5585 	 57.03
| 14> H 	 32.081 	 28.4389 	 56.8941
| 15> H 	 32.7584 	 29.5787 	 58.0227
| 16> C 	 33.1919 	 30.1258 	 55.9964
| 17> H 	 32.6151 	 30.1953 	 55.0139
| 18> H 	 33.4676 	 31.1599 	 56.2664
| 19> C 	 34.524 	 29.3769 	 55.9542
| 20> H 	 34.3543 	 28.3534 	 55.7148
| 21> H 	 35.1894 	 29.6641 	 55.2124
| 22> H 	 35.1878 	 29.4367 	 56.8461
| 23> S 	 27.8238 	 33.9071 	 55.8164
| 24> C 	 27.7404 	 35.5744 	 56.4523
| 25> C 	 28.7699 	 35.8092 	 57.3241
| 26> C 	 29.5357 	 34.6347 	 57.631
| 27> C 	 29.1029 	 33.5145 	 56.9722
| 28> H 	 28.8705 	 36.7191 	 57.7853
| 29> C 	 30.6403 	 34.6857 	 58.699
| 30> H 	 31.0528 	 33.7225 	 58.8796
| 31> H 	 30.2658 	 34.8964 	 59.6763
| 32> C 	 31.8134 	 35.6119 	 58.4114
| 33> H 	 32.5044 	 35.5642 	 59.2443
| 34> H 	 31.5059 	 36.6438 	 58.4813
| 35> C 	 32.5078 	 35.2008 	 57.105
| 36> H 	 31.7498 	 35.1922 	 56.2721
| 37> H 	 32.9361 	 34.2255 	 57.0788
| 38> H 	 33.3108 	 35.8817 	 56.7731
| 39> H 	 29.4389 	 28.4278 	 56.771
| 40> H 	 27.0774 	 36.3167 	 56.2109
| 41> *
| 42>
| 43>                          ****END OF INPUT****

CARTESIAN COORDINATES (ANGSTROEM)
---------------------------------
  S     28.501500   30.825500   56.532600
  C     29.728800   29.502800   56.751900
  C     30.982700   30.156300   57.018800
  C     30.777600   31.570500   57.125900
  C     29.533800   32.123800   56.896000
  H     31.534000   32.299600   57.140900
  C     32.296600   29.558500   57.030000
  H     32.081000   28.438900   56.894100
  H     32.758400   29.578700   58.022700
  C     33.191900   30.125800   55.996400
  H     32.615100   30.195300   55.013900
  H     33.467600   31.159900   56.266400
  C     34.524000   29.376900   55.954200
  H     34.354300   28.353400   55.714800
  H     35.189400   29.664100   55.212400
  H     35.187800   29.436700   56.846100
  S     27.823800   33.907100   55.816400
  C     27.740400   35.574400   56.452300
  C     28.769900   35.809200   57.324100
  C     29.535700   34.634700   57.631000
  C     29.102900   33.514500   56.972200
  H     28.870500   36.719100   57.785300
  C     30.640300   34.685700   58.699000
  H     31.052800   33.722500   58.879600
  H     30.265800   34.896400   59.676300
  C     31.813400   35.611900   58.411400
  H     32.504400   35.564200   59.244300
  H     31.505900   36.643800   58.481300
  C     32.507800   35.200800   57.105000
  H     31.749800   35.192200   56.272100
  H     32.936100   34.225500   57.078800
  H     33.310800   35.881700   56.773100
  H     29.438900   28.427800   56.771000
  H     27.077400   36.316700   56.210900

 Total Charge           Charge          ....    0
 Multiplicity           Mult            ....    1
 Number of Electrons    NEL             ....  134
 Basis Dimension        Dim             ....  322

ORBITAL ENERGIES
----------------

  NO   OCC          E(Eh)            E(eV)
   0   2.0000     -88.965764     -2420.8815
   1   2.0000     -88.963307     -2420.8147
   2   2.0000     -10.332519      -281.1621
   3   2.0000     -10.328715      -281.0586
   4   2.0000     -10.328629      -281.0563
   5   2.0000     -10.315672      -280.7037
   6   2.0000     -10.307327      -280.4766
   7   2.0000     -10.307032      -280.4686
   8   2.0000     -10.293085      -280.0891
   9   2.0000     -10.290852      -280.0283
  10   2.0000     -10.290255      -280.0121
  11   2.0000     -10.286676      -279.9147
  12   2.0000     -10.286152      -279.9004
  13   2.0000     -10.284892      -279.8661
  14   2.0000     -10.279192      -279.7110
  15   2.0000     -10.272727      -279.5351
  16   2.0000      -8.079899      -219.8652
  17   2.0000      -8.077873      -219.8101
  18   2.0000      -6.038635      -164.3196
  19   2.0000      -6.036484      -164.2611
  20   2.0000      -6.034561      -164.2088
  21   2.0000      -6.032114      -164.1422
  22   2.0000      -6.030369      -164.0947
  23   2.0000      -6.028779      -164.0514
  24   2.0000      -1.008078       -27.4312
  25   2.0000      -0.982642       -26.7391
  26   2.0000      -0.926604       -25.2142
  27   2.0000      -0.911596       -24.8058
  28   2.0000      -0.872661       -23.7463
  29   2.0000      -0.847631       -23.0652
  30   2.0000      -0.843003       -22.9393
  31   2.0000      -0.817155       -22.2359
  32   2.0000      -0.784846       -21.3568
  33   2.0000      -0.779064       -21.1994
  34   2.0000      -0.716066       -19.4851
  35   2.0000      -0.703707       -19.1488
  36   2.0000      -0.698405       -19.0046
  37   2.0000      -0.666771       -18.1438
  38   2.0000      -0.646513       -17.5925
  39   2.0000      -0.620665       -16.8891
  40   2.0000      -0.603055       -16.4100
  41   2.0000      -0.579011       -15.7557
  42   2.0000      -0.565493       -15.3879
  43   2.0000      -0.556678       -15.1480
  44   2.0000      -0.543186       -14.7808
  45   2.0000      -0.525808       -14.3080
  46   2.0000      -0.517525       -14.0826
  47   2.0000      -0.516044       -14.0423
  48   2.0000      -0.511995       -13.9321
  49   2.0000      -0.501374       -13.6431
  50   2.0000      -0.491142       -13.3646
  51   2.0000      -0.482993       -13.1429
  52   2.0000      -0.470136       -12.7930
  53   2.0000      -0.461632       -12.5616
  54   2.0000      -0.455562       -12.3965
  55   2.0000      -0.452196       -12.3049
  56   2.0000      -0.444712       -12.1012
  57   2.0000      -0.439106       -11.9487
  58   2.0000      -0.434080       -11.8119
  59   2.0000      -0.429789       -11.6952
  60   2.0000      -0.416149       -11.3240
  61   2.0000      -0.411696       -11.2028
  62   2.0000      -0.406705       -11.0670
  63   2.0000      -0.356072        -9.6892
  64   2.0000      -0.332933        -9.0596
  65   2.0000      -0.325185        -8.8487
  66   2.0000      -0.288417        -7.8482
  67   0.0000       0.020273         0.5516
  68   0.0000       0.075794         2.0625
  69   0.0000       0.098843         2.6897
  70   0.0000       0.118847         3.2340
  71   0.0000       0.131135         3.5684

MULLIKEN ATOMIC CHARGES
-----------------------
   0 S :    0.085103
   1 C :   -0.149162
   2 C :   -0.069382
   3 C :    0.024680
   4 C :   -0.116654
   5 H :   -0.039871
   6 C :    0.061924
   7 H :    0.023001
   8 H :    0.034351
   9 C :   -0.106906
  10 H :    0.054685
  11 H :    0.037047
  12 C :   -0.007212
  13 H :    0.015988
  14 H :    0.010530
  15 H :    0.031974
  16 S :    0.084233
  17 C :   -0.038589
  18 C :    0.001128
  19 C :   -0.066481
  20 C :   -0.107854
  21 H :   -0.013160
  22 C :    0.091775
  23 H :   -0.002541
  24 H :    0.021246
  25 C :   -0.049849
  26 H :    0.021226
  27 H :    0.022987
  28 C :   -0.073155
  29 H :    0.048278
  30 H :    0.033177
  31 H :    0.035936
  32 H :    0.078461
  33 H :    0.023085
Sum of atomic charges:   -0.0000000

LOEWDIN ATOMIC CHARGES
----------------------
   0 S :    0.403528
   1 C :   -0.194076
   2 C :   -0.056776
   3 C :   -0.075608
   4 C :   -0.207066
   5 H :    0.013001
   6 C :   -0.046753
   7 H :    0.037708
   8 H :    0.035062
   9 C :   -0.041367
  10 H :    0.039370
  11 H :    0.026748
  12 C :   -0.065382
  13 H :    0.021001
  14 H :    0.017830
  15 H :    0.032827
  16 S :    0.378897
  17 C :   -0.150265
  18 C :   -0.052413
  19 C :   -0.055137
  20 C :   -0.177896
  21 H :    0.018373
  22 C :   -0.026955
  23 H :    0.023895
  24 H :    0.029443
  25 C :   -0.037585
  26 H :    0.024714
  27 H :    0.020040
  28 C :   -0.071163
  29 H :    0.034318
  30 H :    0.018685
  31 H :    0.028635
  32 H :    0.040451
  33 H :    0.013914

  Mayer bond orders larger than 0.100000
B(  0-S ,  1-C ) :   1.1405 B(  0-S ,  4-C ) :   1.1626 B(  1-C ,  2-C ) :   1.5368
B(  1-C ,  4-C ) :   0.1083 B(  1-C , 32-H ) :   0.9679 B(  2-C ,  3-C ) :   1.2621
B(  2-C ,  6-C ) :   1.0527 B(  3-C ,  4-C ) :   1.5622 B(  3-C ,  5-H ) :   0.9882
B(  4-C , 20-C ) :   1.0371 B(  6-C ,  7-H ) :   0.9361 B(  6-C ,  8-H ) :   0.9221
B(  6-C ,  9-C ) :   1.0675 B(  9-C , 10-H ) :   0.9551 B(  9-C , 11-H ) :   0.9451
B(  9-C , 12-C ) :   1.0846 B( 12-C , 13-H ) :   0.9721 B( 12-C , 14-H ) :   0.9699
B( 12-C , 15-H ) :   0.9706 B( 16-S , 17-C ) :   1.1254 B( 16-S , 20-C ) :   1.1218
B( 17-C , 18-C ) :   1.6445 B( 17-C , 33-H ) :   0.9778 B( 18-C , 19-C ) :   1.2028
B( 18-C , 21-H ) :   1.0018 B( 19-C , 20-C ) :   1.6359 B( 19-C , 22-C ) :   1.0312
B( 22-C , 23-H ) :   0.9352 B( 22-C , 24-H ) :   0.9331 B( 22-C , 25-C ) :   1.0804
B( 25-C , 26-H ) :   0.9518 B( 25-C , 27-H ) :   0.9556 B( 25-C , 28-C ) :   1.0683
B( 28-C , 29-H ) :   0.9734 B( 28-C , 30-H ) :   0.9696 B( 28-C , 31-H ) :   0.9717

Dispersion correction           -0.014828152
FINAL SINGLE POINT ENERGY     -1339.858627224680

DIPOLE MOMENT
-------------
                                X             Y             Z
Electronic contribution:    -29.57633       0.10333      -4.19788
Nuclear contribution   :     30.27556       0.10374       4.48868
                        -----------------------------------------
Total Dipole Moment    :      0.69924       0.20707       0.29080
                        -----------------------------------------
Magnitude (a.u.)       :      0.78510
Magnitude (Debye)      :      1.99556

Rotational constants in cm-1:     0.018777     0.009390     0.006874
Rotational constants in MHz :   562.920685   281.506428   206.078815

                             ****ORCA TERMINATED NORMALLY****
TOTAL RUN TIME: 0 days 0 hours 0 minutes 34 seconds 437 msec
