                         Program Version 4.2.1 -  RELEASE  -
|  1> ! wB97X-D3 SP def2-SVP
|  2> %pal
|  3> nprocs 16
|  4> end
|  5>
|  6> * xyz 0 1
|  7> S 	 -118.632 	 48.7015 	 129.982
|  8> C 	 -119.144 	 49.1695 	 131.59
|  9> C 	 -118.589 	 48.3118 	 132.546
| 10> C 	 -117.72 	 47.408 	 131.917
| 11> C 	 -117.538 	 47.4647 	 130.565
| 12> H 	 -117.23 	 46.5912 	 132.466
| 13> C 	 -118.686 	 48.4029 	 134.059
| 14> H 	 -118.137 	 49.2727 	 134.377
| 15> H 	 -118.066 	 47.6009 	 134.459
| 16> C 	 -120.064 	 48.3401 	 134.766
| 17> H 	 -120.052 	 48.586 	 135.85
| 18> H 	 -120.792 	 48.9619 	 134.34
| 19> C 	 -120.487 	 46.9073 	 134.763
| 20> H 	 -121.564 	 46.7871 	 134.923
| 21> H 	 -120.123 	 46.4141 	 133.888
| 22> H 	 -120.01 	 46.3521 	 135.622
| 23> S 	 -117.593 	 45.8077 	 128.444
| 24> C 	 -116.113 	 45.1239 	 127.808
| 25> C 	 -115.018 	 45.5504 	 128.542
| 26> C 	 -115.36 	 46.3775 	 129.685
| 27> C 	 -116.726 	 46.6338 	 129.702
| 28> H 	 -113.957 	 45.3137 	 128.342
| 29> C 	 -114.364 	 47.0018 	 130.618
| 30> H 	 -113.426 	 46.4585 	 130.681
| 31> H 	 -114.708 	 47.1639 	 131.649
| 32> C 	 -113.84 	 48.3784 	 130.193
| 33> H 	 -113.501 	 48.2778 	 129.18
| 34> H 	 -112.952 	 48.6472 	 130.807
| 35> C 	 -114.902 	 49.4841 	 130.299
| 36> H 	 -115.552 	 49.3303 	 131.164
| 37> H 	 -115.361 	 49.6596 	 129.328
| 38> H 	 -114.421 	 50.4245 	 130.554
| 39> H 	 -119.783 	 49.9498 	 131.923
| 40> H 	 -115.911 	 44.4615 	 126.976
| 41> *
| 42>
| 43>                          ****END OF INPUT****

CARTESIAN COORDINATES (ANGSTROEM)
---------------------------------
  S    -118.632000   48.701500  129.982000
  C    -119.144000   49.169500  131.590000
  C    -118.589000   48.311800  132.546000
  C    -117.720000   47.408000  131.917000
  C    -117.538000   47.464700  130.565000
  H    -117.230000   46.591200  132.466000
  C    -118.686000   48.402900  134.059000
  H    -118.137000   49.272700  134.377000
  H    -118.066000   47.600900  134.459000
  C    -120.064000   48.340100  134.766000
  H    -120.052000   48.586000  135.850000
  H    -120.792000   48.961900  134.340000
  C    -120.487000   46.907300  134.763000
  H    -121.564000   46.787100  134.923000
  H    -120.123000   46.414100  133.888000
  H    -120.010000   46.352100  135.622000
  S    -117.593000   45.807700  128.444000
  C    -116.113000   45.123900  127.808000
  C    -115.018000   45.550400  128.542000
  C    -115.360000   46.377500  129.685000
  C    -116.726000   46.633800  129.702000
  H    -113.957000   45.313700  128.342000
  C    -114.364000   47.001800  130.618000
  H    -113.426000   46.458500  130.681000
  H    -114.708000   47.163900  131.649000
  C    -113.840000   48.378400  130.193000
  H    -113.501000   48.277800  129.180000
  H    -112.952000   48.647200  130.807000
  C    -114.902000   49.484100  130.299000
  H    -115.552000   49.330300  131.164000
  H    -115.361000   49.659600  129.328000
  H    -114.421000   50.424500  130.554000
  H    -119.783000   49.949800  131.923000
  H    -115.911000   44.461500  126.976000

 Total Charge           Charge          ....    0
 Multiplicity           Mult            ....    1
 Number of Electrons    NEL             ....  134
 Basis Dimension        Dim             ....  322

ORBITAL ENERGIES
----------------

  NO   OCC          E(Eh)            E(eV)
   0   2.0000     -88.970384     -2421.0072
   1   2.0000     -88.968667     -2420.9605
   2   2.0000     -10.327605      -281.0284
   3   2.0000     -10.326967      -281.0111
   4   2.0000     -10.319629      -280.8114
   5   2.0000     -10.315005      -280.6856
   6   2.0000     -10.306501      -280.4541
   7   2.0000     -10.301173      -280.3092
   8   2.0000     -10.299580      -280.2658
   9   2.0000     -10.293665      -280.1049
  10   2.0000     -10.288885      -279.9748
  11   2.0000     -10.288797      -279.9724
  12   2.0000     -10.283402      -279.8256
  13   2.0000     -10.280479      -279.7461
  14   2.0000     -10.272045      -279.5165
  15   2.0000     -10.265956      -279.3509
  16   2.0000      -8.085014      -220.0044
  17   2.0000      -8.082833      -219.9451
  18   2.0000      -6.043638      -164.4558
  19   2.0000      -6.041362      -164.3938
  20   2.0000      -6.039438      -164.3415
  21   2.0000      -6.037283      -164.2828
  22   2.0000      -6.035745      -164.2410
  23   2.0000      -6.033716      -164.1858
  24   2.0000      -1.010546       -27.4984
  25   2.0000      -0.986472       -26.8433
  26   2.0000      -0.916163       -24.9301
  27   2.0000      -0.910309       -24.7708
  28   2.0000      -0.872808       -23.7503
  29   2.0000      -0.850084       -23.1320
  30   2.0000      -0.844572       -22.9820
  31   2.0000      -0.814163       -22.1545
  32   2.0000      -0.782656       -21.2971
  33   2.0000      -0.772988       -21.0341
  34   2.0000      -0.709846       -19.3159
  35   2.0000      -0.702408       -19.1135
  36   2.0000      -0.688521       -18.7356
  37   2.0000      -0.661111       -17.9898
  38   2.0000      -0.640518       -17.4294
  39   2.0000      -0.616718       -16.7817
  40   2.0000      -0.600513       -16.3408
  41   2.0000      -0.576269       -15.6811
  42   2.0000      -0.562747       -15.3131
  43   2.0000      -0.549508       -14.9529
  44   2.0000      -0.545001       -14.8302
  45   2.0000      -0.537654       -14.6303
  46   2.0000      -0.511298       -13.9131
  47   2.0000      -0.509901       -13.8751
  48   2.0000      -0.500970       -13.6321
  49   2.0000      -0.500300       -13.6139
  50   2.0000      -0.488513       -13.2931
  51   2.0000      -0.475230       -12.9317
  52   2.0000      -0.474632       -12.9154
  53   2.0000      -0.466217       -12.6864
  54   2.0000      -0.457917       -12.4606
  55   2.0000      -0.443749       -12.0750
  56   2.0000      -0.439923       -11.9709
  57   2.0000      -0.438712       -11.9380
  58   2.0000      -0.424663       -11.5557
  59   2.0000      -0.422738       -11.5033
  60   2.0000      -0.418644       -11.3919
  61   2.0000      -0.415136       -11.2964
  62   2.0000      -0.413983       -11.2650
  63   2.0000      -0.347102        -9.4451
  64   2.0000      -0.331915        -9.0319
  65   2.0000      -0.331089        -9.0094
  66   2.0000      -0.293474        -7.9858
  67   0.0000       0.031364         0.8535
  68   0.0000       0.062845         1.7101
  69   0.0000       0.113879         3.0988
  70   0.0000       0.117317         3.1924
  71   0.0000       0.130946         3.5632

MULLIKEN ATOMIC CHARGES
-----------------------
   0 S :    0.123248
   1 C :   -0.101466
   2 C :   -0.088029
   3 C :    0.014529
   4 C :   -0.156360
   5 H :    0.014652
   6 C :    0.048711
   7 H :    0.035741
   8 H :    0.011805
   9 C :   -0.029532
  10 H :    0.031150
  11 H :    0.018695
  12 C :   -0.073107
  13 H :    0.033588
  14 H :    0.033264
  15 H :    0.029444
  16 S :    0.126198
  17 C :   -0.072414
  18 C :   -0.053717
  19 C :   -0.005280
  20 C :   -0.178912
  21 H :    0.027098
  22 C :    0.058152
  23 H :    0.015172
  24 H :    0.025647
  25 C :   -0.088341
  26 H :    0.013734
  27 H :    0.031775
  28 C :   -0.028105
  29 H :    0.036053
  30 H :    0.042575
  31 H :    0.015287
  32 H :    0.032436
  33 H :    0.056312
Sum of atomic charges:   -0.0000000

LOEWDIN ATOMIC CHARGES
----------------------
   0 S :    0.416649
   1 C :   -0.191920
   2 C :   -0.068671
   3 C :   -0.072826
   4 C :   -0.200090
   5 H :    0.031001
   6 C :   -0.029809
   7 H :    0.032310
   8 H :    0.030713
   9 C :   -0.040121
  10 H :    0.032279
  11 H :    0.013888
  12 C :   -0.066474
  13 H :    0.025131
  14 H :    0.019884
  15 H :    0.028742
  16 S :    0.421543
  17 C :   -0.194021
  18 C :   -0.068496
  19 C :   -0.052891
  20 C :   -0.200266
  21 H :    0.034827
  22 C :   -0.037663
  23 H :    0.031153
  24 H :    0.030449
  25 C :   -0.037298
  26 H :    0.017460
  27 H :    0.024922
  28 C :   -0.071491
  29 H :    0.027524
  30 H :    0.028464
  31 H :    0.024344
  32 H :    0.025296
  33 H :    0.035456

  Mayer bond orders larger than 0.100000
B(  0-S ,  1-C ) :   1.1553 B(  0-S ,  4-C ) :   1.1433 B(  1-C ,  2-C ) :   1.5743
B(  1-C ,  4-C ) :   0.1077 B(  1-C , 32-H ) :   0.9724 B(  2-C ,  3-C ) :   1.2776
B(  2-C ,  6-C ) :   1.0109 B(  3-C ,  4-C ) :   1.5760 B(  3-C ,  5-H ) :   0.9855
B(  4-C , 20-C ) :   1.0308 B(  6-C ,  7-H ) :   0.9353 B(  6-C ,  8-H ) :   0.9448
B(  6-C ,  9-C ) :   1.0651 B(  9-C , 10-H ) :   0.9561 B(  9-C , 11-H ) :   0.9628
B(  9-C , 12-C ) :   1.0700 B( 12-C , 13-H ) :   0.9723 B( 12-C , 14-H ) :   0.9820
B( 12-C , 15-H ) :   0.9749 B( 16-S , 17-C ) :   1.1376 B( 16-S , 20-C ) :   1.1533
B( 17-C , 18-C ) :   1.6197 B( 17-C , 33-H ) :   0.9665 B( 18-C , 19-C ) :   1.2458
B( 18-C , 21-H ) :   0.9763 B( 19-C , 20-C ) :   1.5872 B( 19-C , 22-C ) :   1.0584
B( 22-C , 23-H ) :   0.9256 B( 22-C , 24-H ) :   0.9375 B( 22-C , 25-C ) :   1.0816
B( 25-C , 26-H ) :   0.9523 B( 25-C , 27-H ) :   0.9599 B( 25-C , 28-C ) :   1.0785
B( 28-C , 29-H ) :   0.9714 B( 28-C , 30-H ) :   0.9751 B( 28-C , 31-H ) :   0.9718

Dispersion correction           -0.015595081
FINAL SINGLE POINT ENERGY     -1339.878795901169

DIPOLE MOMENT
-------------
                                X             Y             Z
Electronic contribution:     -5.29952      -5.93913     -20.98439
Nuclear contribution   :      5.69830       6.00374      21.46785
                        -----------------------------------------
Total Dipole Moment    :      0.39878       0.06461       0.48346
                        -----------------------------------------
Magnitude (a.u.)       :      0.63002
Magnitude (Debye)      :      1.60139

Rotational constants in cm-1:     0.021933     0.008362     0.007511
Rotational constants in MHz :   657.544150   250.696965   225.180046

                             ****ORCA TERMINATED NORMALLY****
TOTAL RUN TIME: 0 days 0 hours 0 minutes 33 seconds 386 msec
