                         Program Version 4.2.1 -  RELEASE  -
|  1> ! wB97X-D3 SP def2-SVP
|  2> %pal
|  3> nprocs 16
|  4> end
|  5>
|  6> * xyz 0 1
|  7> S 	 -48.4942 	 31.6611 	 96.1588
|  8> C 	 -49.3366 	 32.3643 	 94.8025
|  9> C 	 -50.6634 	 32.6932 	 95.1649
| 10> C 	 -50.8669 	 32.4427 	 96.5471
| 11> C 	 -49.8578 	 31.7274 	 97.1676
| 12> H 	 -51.7863 	 32.6424 	 97.0851
| 13> C 	 -51.8161 	 33.1637 	 94.2351
| 14> H 	 -51.3664 	 33.7214 	 93.3809
| 15> H 	 -52.3158 	 33.9604 	 94.8096
| 16> C 	 -52.8307 	 32.0557 	 93.8087
| 17> H 	 -53.6113 	 32.4873 	 93.1789
| 18> H 	 -52.335 	 31.3264 	 93.2853
| 19> C 	 -53.5975 	 31.544 	 95.023
| 20> H 	 -52.9619 	 30.9256 	 95.6852
| 21> H 	 -53.9267 	 32.3586 	 95.7283
| 22> H 	 -54.4614 	 30.8789 	 94.9225
| 23> S 	 -48.6038 	 32.5504 	 99.4977
| 24> C 	 -49.1207 	 31.7733 	 100.994
| 25> C 	 -50.1976 	 30.9299 	 100.854
| 26> C 	 -50.5396 	 30.8038 	 99.4898
| 27> C 	 -49.703 	 31.5289 	 98.6011
| 28> H 	 -50.4713 	 30.2739 	 101.777
| 29> C 	 -51.7485 	 29.9014 	 99.0998
| 30> H 	 -51.7377 	 28.8841 	 99.3787
| 31> H 	 -51.7933 	 29.7907 	 98.0452
| 32> C 	 -53.082 	 30.4011 	 99.5473
| 33> H 	 -53.1814 	 30.2349 	 100.61
| 34> H 	 -53.9144 	 29.7664 	 99.1986
| 35> C 	 -53.4742 	 31.7998 	 99.0767
| 36> H 	 -54.1569 	 32.1769 	 99.7927
| 37> H 	 -54.0052 	 31.7913 	 98.1188
| 38> H 	 -52.6543 	 32.4314 	 99.0027
| 39> H 	 -49.1433 	 32.6859 	 93.7947
| 40> H 	 -48.5399 	 32.0402 	 101.832
| 41> *
| 42>
| 43>                          ****END OF INPUT****

CARTESIAN COORDINATES (ANGSTROEM)
---------------------------------
  S    -48.494200   31.661100   96.158800
  C    -49.336600   32.364300   94.802500
  C    -50.663400   32.693200   95.164900
  C    -50.866900   32.442700   96.547100
  C    -49.857800   31.727400   97.167600
  H    -51.786300   32.642400   97.085100
  C    -51.816100   33.163700   94.235100
  H    -51.366400   33.721400   93.380900
  H    -52.315800   33.960400   94.809600
  C    -52.830700   32.055700   93.808700
  H    -53.611300   32.487300   93.178900
  H    -52.335000   31.326400   93.285300
  C    -53.597500   31.544000   95.023000
  H    -52.961900   30.925600   95.685200
  H    -53.926700   32.358600   95.728300
  H    -54.461400   30.878900   94.922500
  S    -48.603800   32.550400   99.497700
  C    -49.120700   31.773300  100.994000
  C    -50.197600   30.929900  100.854000
  C    -50.539600   30.803800   99.489800
  C    -49.703000   31.528900   98.601100
  H    -50.471300   30.273900  101.777000
  C    -51.748500   29.901400   99.099800
  H    -51.737700   28.884100   99.378700
  H    -51.793300   29.790700   98.045200
  C    -53.082000   30.401100   99.547300
  H    -53.181400   30.234900  100.610000
  H    -53.914400   29.766400   99.198600
  C    -53.474200   31.799800   99.076700
  H    -54.156900   32.176900   99.792700
  H    -54.005200   31.791300   98.118800
  H    -52.654300   32.431400   99.002700
  H    -49.143300   32.685900   93.794700
  H    -48.539900   32.040200  101.832000

 Total Charge           Charge          ....    0
 Multiplicity           Mult            ....    1
 Number of Electrons    NEL             ....  134
 Basis Dimension        Dim             ....  322

ORBITAL ENERGIES
----------------

  NO   OCC          E(Eh)            E(eV)
   0   2.0000     -88.971033     -2421.0249
   1   2.0000     -88.965944     -2420.8864
   2   2.0000     -10.329301      -281.0746
   3   2.0000     -10.321808      -280.8707
   4   2.0000     -10.316394      -280.7234
   5   2.0000     -10.314840      -280.6811
   6   2.0000     -10.309609      -280.5387
   7   2.0000     -10.302607      -280.3482
   8   2.0000     -10.302564      -280.3470
   9   2.0000     -10.301375      -280.3147
  10   2.0000     -10.289237      -279.9844
  11   2.0000     -10.288491      -279.9641
  12   2.0000     -10.281793      -279.7818
  13   2.0000     -10.280960      -279.7591
  14   2.0000     -10.279197      -279.7112
  15   2.0000     -10.265098      -279.3275
  16   2.0000      -8.086030      -220.0321
  17   2.0000      -8.080824      -219.8904
  18   2.0000      -6.044514      -164.4796
  19   2.0000      -6.040314      -164.3653
  20   2.0000      -6.039112      -164.3326
  21   2.0000      -6.036952      -164.2738
  22   2.0000      -6.035388      -164.2313
  23   2.0000      -6.031721      -164.1315
  24   2.0000      -1.010382       -27.4939
  25   2.0000      -0.985026       -26.8039
  26   2.0000      -0.913010       -24.8443
  27   2.0000      -0.910034       -24.7633
  28   2.0000      -0.869561       -23.6620
  29   2.0000      -0.847192       -23.0533
  30   2.0000      -0.844813       -22.9885
  31   2.0000      -0.813186       -22.1279
  32   2.0000      -0.788631       -21.4597
  33   2.0000      -0.775938       -21.1144
  34   2.0000      -0.710114       -19.3232
  35   2.0000      -0.704980       -19.1835
  36   2.0000      -0.694827       -18.9072
  37   2.0000      -0.653341       -17.7783
  38   2.0000      -0.635768       -17.3001
  39   2.0000      -0.617827       -16.8119
  40   2.0000      -0.600572       -16.3424
  41   2.0000      -0.574155       -15.6235
  42   2.0000      -0.557290       -15.1646
  43   2.0000      -0.552435       -15.0325
  44   2.0000      -0.545186       -14.8353
  45   2.0000      -0.541821       -14.7437
  46   2.0000      -0.516868       -14.0647
  47   2.0000      -0.507779       -13.8174
  48   2.0000      -0.500082       -13.6079
  49   2.0000      -0.493130       -13.4188
  50   2.0000      -0.485872       -13.2212
  51   2.0000      -0.474486       -12.9114
  52   2.0000      -0.471404       -12.8276
  53   2.0000      -0.462543       -12.5864
  54   2.0000      -0.459340       -12.4993
  55   2.0000      -0.448809       -12.2127
  56   2.0000      -0.444235       -12.0883
  57   2.0000      -0.437517       -11.9054
  58   2.0000      -0.433536       -11.7971
  59   2.0000      -0.428236       -11.6529
  60   2.0000      -0.425086       -11.5672
  61   2.0000      -0.415461       -11.3053
  62   2.0000      -0.403245       -10.9728
  63   2.0000      -0.345417        -9.3993
  64   2.0000      -0.329741        -8.9727
  65   2.0000      -0.327647        -8.9157
  66   2.0000      -0.297351        -8.0913
  67   0.0000       0.031809         0.8656
  68   0.0000       0.062930         1.7124
  69   0.0000       0.115917         3.1542
  70   0.0000       0.117503         3.1974
  71   0.0000       0.124236         3.3806

MULLIKEN ATOMIC CHARGES
-----------------------
   0 S :    0.130031
   1 C :   -0.074927
   2 C :   -0.151540
   3 C :    0.054252
   4 C :   -0.165601
   5 H :   -0.020535
   6 C :    0.030097
   7 H :    0.026193
   8 H :    0.033118
   9 C :    0.036050
  10 H :    0.035514
  11 H :    0.018544
  12 C :   -0.121208
  13 H :    0.037879
  14 H :    0.037264
  15 H :    0.034679
  16 S :    0.107010
  17 C :   -0.105560
  18 C :   -0.031320
  19 C :   -0.064474
  20 C :   -0.134289
  21 H :    0.067268
  22 C :    0.132349
  23 H :    0.013145
  24 H :    0.000254
  25 C :   -0.108042
  26 H :    0.016260
  27 H :    0.021419
  28 C :   -0.016671
  29 H :    0.019140
  30 H :    0.025204
  31 H :    0.043501
  32 H :    0.028913
  33 H :    0.046080
Sum of atomic charges:    0.0000000

LOEWDIN ATOMIC CHARGES
----------------------
   0 S :    0.446576
   1 C :   -0.211180
   2 C :   -0.065460
   3 C :   -0.056973
   4 C :   -0.225244
   5 H :    0.026520
   6 C :   -0.030385
   7 H :    0.030418
   8 H :    0.032432
   9 C :   -0.024309
  10 H :    0.030600
  11 H :    0.015695
  12 C :   -0.079470
  13 H :    0.024890
  14 H :    0.026280
  15 H :    0.026213
  16 S :    0.403691
  17 C :   -0.165071
  18 C :   -0.083779
  19 C :   -0.050580
  20 C :   -0.207108
  21 H :    0.057892
  22 C :   -0.030799
  23 H :    0.028670
  24 H :    0.023267
  25 C :   -0.043466
  26 H :    0.016812
  27 H :    0.029121
  28 C :   -0.057764
  29 H :    0.026551
  30 H :    0.026743
  31 H :    0.013195
  32 H :    0.031628
  33 H :    0.014395

  Mayer bond orders larger than 0.100000
B(  0-S ,  1-C ) :   1.1562 B(  0-S ,  4-C ) :   1.1594 B(  1-C ,  2-C ) :   1.5863
B(  1-C , 32-H ) :   0.9617 B(  2-C ,  3-C ) :   1.2875 B(  2-C ,  6-C ) :   1.0140
B(  3-C ,  4-C ) :   1.5459 B(  3-C ,  5-H ) :   0.9797 B(  4-C , 20-C ) :   1.0174
B(  6-C ,  7-H ) :   0.9417 B(  6-C ,  8-H ) :   0.9457 B(  6-C ,  9-C ) :   1.0615
B(  9-C , 10-H ) :   0.9540 B(  9-C , 11-H ) :   0.9559 B(  9-C , 12-C ) :   1.0709
B( 12-C , 13-H ) :   0.9695 B( 12-C , 14-H ) :   0.9680 B( 12-C , 15-H ) :   0.9716
B( 16-S , 17-C ) :   1.1711 B( 16-S , 20-C ) :   1.1496 B( 17-C , 18-C ) :   1.5931
B( 17-C , 20-C ) :   0.1030 B( 17-C , 33-H ) :   0.9748 B( 18-C , 19-C ) :   1.2417
B( 18-C , 21-H ) :   0.9755 B( 19-C , 20-C ) :   1.5967 B( 19-C , 22-C ) :   1.0400
B( 22-C , 23-H ) :   0.9333 B( 22-C , 24-H ) :   0.9276 B( 22-C , 25-C ) :   1.0843
B( 25-C , 26-H ) :   0.9588 B( 25-C , 27-H ) :   0.9502 B( 25-C , 28-C ) :   1.0714
B( 28-C , 29-H ) :   0.9620 B( 28-C , 30-H ) :   0.9734 B( 28-C , 31-H ) :   0.9684

Dispersion correction           -0.016762332
FINAL SINGLE POINT ENERGY     -1339.854543560803

DIPOLE MOMENT
-------------
                                X             Y             Z
Electronic contribution:     28.99113       3.11100       5.64773
Nuclear contribution   :    -29.62155      -3.16571      -5.63607
                        -----------------------------------------
Total Dipole Moment    :     -0.63042      -0.05470       0.01166
                        -----------------------------------------
Magnitude (a.u.)       :      0.63290
Magnitude (Debye)      :      1.60870

Rotational constants in cm-1:     0.018822     0.010960     0.007650
Rotational constants in MHz :   564.261280   328.572319   229.353298

                             ****ORCA TERMINATED NORMALLY****
TOTAL RUN TIME: 0 days 0 hours 0 minutes 33 seconds 600 msec
