                         Program Version 4.2.1 -  RELEASE  -
|  1> ! wB97X-D3 SP def2-SVP
|  2> %pal
|  3> nprocs 16
|  4> end
|  5>
|  6> * xyz 0 1
|  7> S 	 -81.5624 	 47.0535 	 127.878
|  8> C 	 -83.0119 	 47.1429 	 126.935
|  9> C 	 -83.9921 	 47.8424 	 127.65
| 10> C 	 -83.5391 	 48.4287 	 128.877
| 11> C 	 -82.2314 	 48.1327 	 129.123
| 12> H 	 -84.1757 	 48.9538 	 129.489
| 13> C 	 -85.3422 	 48.1869 	 127.171
| 14> H 	 -85.8915 	 48.5709 	 128.052
| 15> H 	 -85.7784 	 47.2187 	 126.872
| 16> C 	 -85.4619 	 49.2978 	 126.115
| 17> H 	 -86.4276 	 49.783 	 126.341
| 18> H 	 -84.8484 	 50.145 	 126.333
| 19> C 	 -85.3503 	 48.8801 	 124.614
| 20> H 	 -84.2932 	 48.6223 	 124.378
| 21> H 	 -85.8155 	 48.0333 	 124.242
| 22> H 	 -85.4138 	 49.6745 	 123.835
| 23> S 	 -80.0047 	 49.665 	 129.91
| 24> C 	 -79.7046 	 49.9665 	 131.652
| 25> C 	 -80.4986 	 49.1318 	 132.399
| 26> C 	 -81.5586 	 48.4946 	 131.672
| 27> C 	 -81.4091 	 48.6913 	 130.259
| 28> H 	 -80.1989 	 49.1091 	 133.411
| 29> C 	 -82.474 	 47.563 	 132.388
| 30> H 	 -83.4747 	 47.9733 	 132.308
| 31> H 	 -82.2005 	 47.7123 	 133.4
| 32> C 	 -82.4905 	 46.0117 	 132.1
| 33> H 	 -81.4178 	 45.72 	 132.1
| 34> H 	 -82.943 	 46.0086 	 131.088
| 35> C 	 -83.3987 	 45.2764 	 133.124
| 36> H 	 -83.5968 	 44.2425 	 132.705
| 37> H 	 -84.4853 	 45.7436 	 133.252
| 38> H 	 -82.9024 	 45.2627 	 134.071
| 39> H 	 -83.0651 	 46.7245 	 125.921
| 40> H 	 -78.8711 	 50.5109 	 132.035
| 41> *
| 42>
| 43>                          ****END OF INPUT****

CARTESIAN COORDINATES (ANGSTROEM)
---------------------------------
  S    -81.562400   47.053500  127.878000
  C    -83.011900   47.142900  126.935000
  C    -83.992100   47.842400  127.650000
  C    -83.539100   48.428700  128.877000
  C    -82.231400   48.132700  129.123000
  H    -84.175700   48.953800  129.489000
  C    -85.342200   48.186900  127.171000
  H    -85.891500   48.570900  128.052000
  H    -85.778400   47.218700  126.872000
  C    -85.461900   49.297800  126.115000
  H    -86.427600   49.783000  126.341000
  H    -84.848400   50.145000  126.333000
  C    -85.350300   48.880100  124.614000
  H    -84.293200   48.622300  124.378000
  H    -85.815500   48.033300  124.242000
  H    -85.413800   49.674500  123.835000
  S    -80.004700   49.665000  129.910000
  C    -79.704600   49.966500  131.652000
  C    -80.498600   49.131800  132.399000
  C    -81.558600   48.494600  131.672000
  C    -81.409100   48.691300  130.259000
  H    -80.198900   49.109100  133.411000
  C    -82.474000   47.563000  132.388000
  H    -83.474700   47.973300  132.308000
  H    -82.200500   47.712300  133.400000
  C    -82.490500   46.011700  132.100000
  H    -81.417800   45.720000  132.100000
  H    -82.943000   46.008600  131.088000
  C    -83.398700   45.276400  133.124000
  H    -83.596800   44.242500  132.705000
  H    -84.485300   45.743600  133.252000
  H    -82.902400   45.262700  134.071000
  H    -83.065100   46.724500  125.921000
  H    -78.871100   50.510900  132.035000

 Total Charge           Charge          ....    0
 Multiplicity           Mult            ....    1
 Number of Electrons    NEL             ....  134
 Basis Dimension        Dim             ....  322

ORBITAL ENERGIES
----------------

  NO   OCC          E(Eh)            E(eV)
   0   2.0000     -88.966125     -2420.8913
   1   2.0000     -88.965305     -2420.8690
   2   2.0000     -10.333718      -281.1948
   3   2.0000     -10.333296      -281.1833
   4   2.0000     -10.315824      -280.7079
   5   2.0000     -10.315488      -280.6987
   6   2.0000     -10.306835      -280.4632
   7   2.0000     -10.296801      -280.1902
   8   2.0000     -10.292439      -280.0715
   9   2.0000     -10.291663      -280.0504
  10   2.0000     -10.291574      -280.0480
  11   2.0000     -10.291404      -280.0434
  12   2.0000     -10.291135      -280.0360
  13   2.0000     -10.287903      -279.9481
  14   2.0000     -10.282151      -279.7915
  15   2.0000     -10.279657      -279.7237
  16   2.0000      -8.080645      -219.8855
  17   2.0000      -8.079326      -219.8496
  18   2.0000      -6.039188      -164.3347
  19   2.0000      -6.037795      -164.2967
  20   2.0000      -6.035112      -164.2237
  21   2.0000      -6.033931      -164.1916
  22   2.0000      -6.031460      -164.1244
  23   2.0000      -6.030166      -164.0892
  24   2.0000      -1.000545       -27.2262
  25   2.0000      -0.980665       -26.6853
  26   2.0000      -0.909513       -24.7491
  27   2.0000      -0.901432       -24.5292
  28   2.0000      -0.864629       -23.5278
  29   2.0000      -0.851229       -23.1631
  30   2.0000      -0.843779       -22.9604
  31   2.0000      -0.817456       -22.2441
  32   2.0000      -0.781074       -21.2541
  33   2.0000      -0.765239       -20.8232
  34   2.0000      -0.713235       -19.4081
  35   2.0000      -0.703903       -19.1542
  36   2.0000      -0.686440       -18.6790
  37   2.0000      -0.659707       -17.9515
  38   2.0000      -0.645885       -17.5754
  39   2.0000      -0.621576       -16.9139
  40   2.0000      -0.587867       -15.9967
  41   2.0000      -0.568514       -15.4701
  42   2.0000      -0.563779       -15.3412
  43   2.0000      -0.545165       -14.8347
  44   2.0000      -0.530227       -14.4282
  45   2.0000      -0.525297       -14.2941
  46   2.0000      -0.517227       -14.0745
  47   2.0000      -0.509031       -13.8514
  48   2.0000      -0.502102       -13.6629
  49   2.0000      -0.494999       -13.4696
  50   2.0000      -0.485274       -13.2050
  51   2.0000      -0.483887       -13.1672
  52   2.0000      -0.477267       -12.9871
  53   2.0000      -0.466758       -12.7011
  54   2.0000      -0.456311       -12.4169
  55   2.0000      -0.446667       -12.1544
  56   2.0000      -0.441727       -12.0200
  57   2.0000      -0.435597       -11.8532
  58   2.0000      -0.430371       -11.7110
  59   2.0000      -0.427308       -11.6276
  60   2.0000      -0.419532       -11.4160
  61   2.0000      -0.410826       -11.1792
  62   2.0000      -0.401461       -10.9243
  63   2.0000      -0.345142        -9.3918
  64   2.0000      -0.329778        -8.9737
  65   2.0000      -0.321233        -8.7412
  66   2.0000      -0.294358        -8.0099
  67   0.0000       0.030523         0.8306
  68   0.0000       0.062325         1.6959
  69   0.0000       0.111931         3.0458
  70   0.0000       0.114281         3.1097
  71   0.0000       0.133093         3.6216

MULLIKEN ATOMIC CHARGES
-----------------------
   0 S :    0.111930
   1 C :   -0.146591
   2 C :   -0.088576
   3 C :    0.068435
   4 C :   -0.142279
   5 H :   -0.019156
   6 C :    0.043110
   7 H :    0.018439
   8 H :    0.038943
   9 C :   -0.016796
  10 H :    0.022524
  11 H :    0.018222
  12 C :   -0.045356
  13 H :    0.012574
  14 H :    0.017580
  15 H :    0.033500
  16 S :    0.104562
  17 C :   -0.100004
  18 C :   -0.033188
  19 C :   -0.026635
  20 C :   -0.163923
  21 H :    0.011507
  22 C :    0.073393
  23 H :    0.020150
  24 H :   -0.007170
  25 C :   -0.069913
  26 H :    0.047244
  27 H :    0.049007
  28 C :   -0.086414
  29 H :    0.052127
  30 H :    0.047331
  31 H :    0.039598
  32 H :    0.064606
  33 H :    0.051221
Sum of atomic charges:   -0.0000000

LOEWDIN ATOMIC CHARGES
----------------------
   0 S :    0.402038
   1 C :   -0.210128
   2 C :   -0.065613
   3 C :   -0.050703
   4 C :   -0.181654
   5 H :    0.019549
   6 C :   -0.036709
   7 H :    0.034147
   8 H :    0.036388
   9 C :   -0.036257
  10 H :    0.026942
  11 H :    0.026533
  12 C :   -0.077723
  13 H :    0.028986
  14 H :    0.013591
  15 H :    0.034486
  16 S :    0.396966
  17 C :   -0.172014
  18 C :   -0.067860
  19 C :   -0.056249
  20 C :   -0.202813
  21 H :    0.028755
  22 C :   -0.040298
  23 H :    0.029582
  24 H :    0.020225
  25 C :   -0.038973
  26 H :    0.031208
  27 H :    0.029846
  28 C :   -0.075157
  29 H :    0.034867
  30 H :    0.039039
  31 H :    0.020433
  32 H :    0.033475
  33 H :    0.025095

  Mayer bond orders larger than 0.100000
B(  0-S ,  1-C ) :   1.1391 B(  0-S ,  4-C ) :   1.1566 B(  1-C ,  2-C ) :   1.5808
B(  1-C , 32-H ) :   0.9709 B(  2-C ,  3-C ) :   1.2483 B(  2-C ,  6-C ) :   1.0416
B(  3-C ,  4-C ) :   1.5696 B(  3-C ,  5-H ) :   1.0106 B(  4-C , 20-C ) :   1.0125
B(  6-C ,  7-H ) :   0.9383 B(  6-C ,  8-H ) :   0.9380 B(  6-C ,  9-C ) :   1.0636
B(  9-C , 10-H ) :   0.9588 B(  9-C , 11-H ) :   0.9521 B(  9-C , 12-C ) :   1.0625
B( 12-C , 13-H ) :   0.9678 B( 12-C , 14-H ) :   0.9822 B( 12-C , 15-H ) :   0.9727
B( 16-S , 17-C ) :   1.1457 B( 16-S , 20-C ) :   1.1632 B( 17-C , 18-C ) :   1.6229
B( 17-C , 20-C ) :   0.1026 B( 17-C , 33-H ) :   0.9683 B( 18-C , 19-C ) :   1.2414
B( 18-C , 21-H ) :   0.9907 B( 19-C , 20-C ) :   1.5452 B( 19-C , 22-C ) :   1.0539
B( 22-C , 23-H ) :   0.9175 B( 22-C , 24-H ) :   0.9317 B( 22-C , 25-C ) :   1.0463
B( 25-C , 26-H ) :   0.9587 B( 25-C , 27-H ) :   0.9544 B( 25-C , 28-C ) :   1.0693
B( 28-C , 29-H ) :   0.9741 B( 28-C , 30-H ) :   0.9725 B( 28-C , 31-H ) :   0.9765

Dispersion correction           -0.014393031
FINAL SINGLE POINT ENERGY     -1339.851798706912

DIPOLE MOMENT
-------------
                                X             Y             Z
Electronic contribution:     20.80947       5.85033      -0.53484
Nuclear contribution   :    -21.19091      -5.88774       0.75968
                        -----------------------------------------
Total Dipole Moment    :     -0.38143      -0.03741       0.22484
                        -----------------------------------------
Magnitude (a.u.)       :      0.44435
Magnitude (Debye)      :      1.12944

Rotational constants in cm-1:     0.019227     0.008017     0.006658
Rotational constants in MHz :   576.414175   240.339687   199.590171

                             ****ORCA TERMINATED NORMALLY****
TOTAL RUN TIME: 0 days 0 hours 0 minutes 32 seconds 999 msec
