                         Program Version 4.2.1 -  RELEASE  -
|  1> ! wB97X-D3 SP def2-SVP
|  2> %pal
|  3> nprocs 16
|  4> end
|  5>
|  6> * xyz 0 1
|  7> S 	 -40.8612 	 25.7115 	 83.8558
|  8> C 	 -40.4821 	 24.0571 	 83.6341
|  9> C 	 -41.5691 	 23.3324 	 83.1611
| 10> C 	 -42.6587 	 24.1894 	 82.776
| 11> C 	 -42.3119 	 25.5009 	 82.8868
| 12> H 	 -43.6062 	 23.939 	 82.3796
| 13> C 	 -41.4987 	 21.7727 	 83.0771
| 14> H 	 -41.7478 	 21.1835 	 83.9906
| 15> H 	 -40.4841 	 21.6481 	 82.9111
| 16> C 	 -42.2122 	 21.1161 	 81.8785
| 17> H 	 -42.0656 	 20.0413 	 81.964
| 18> H 	 -43.2461 	 21.4642 	 81.8612
| 19> C 	 -41.6947 	 21.5305 	 80.4613
| 20> H 	 -42.2459 	 22.3482 	 80.0815
| 21> H 	 -40.7122 	 21.9127 	 80.4886
| 22> H 	 -41.6275 	 20.7433 	 79.7944
| 23> S 	 -43.5973 	 27.6787 	 84.0025
| 24> C 	 -44.3051 	 28.8242 	 82.8578
| 25> C 	 -44.122 	 28.5017 	 81.5578
| 26> C 	 -43.5027 	 27.2499 	 81.3448
| 27> C 	 -43.1745 	 26.6655 	 82.567
| 28> H 	 -44.4125 	 29.2938 	 80.933
| 29> C 	 -43.1754 	 26.6382 	 79.9881
| 30> H 	 -42.1675 	 26.4085 	 79.9143
| 31> H 	 -43.4391 	 27.3173 	 79.179
| 32> C 	 -43.8897 	 25.3999 	 79.6143
| 33> H 	 -43.5448 	 24.5742 	 80.2179
| 34> H 	 -43.5656 	 25.1165 	 78.5977
| 35> C 	 -45.3966 	 25.5328 	 79.8072
| 36> H 	 -45.7023 	 25.5808 	 80.881
| 37> H 	 -45.891 	 24.5771 	 79.5917
| 38> H 	 -45.8689 	 26.3035 	 79.2512
| 39> H 	 -39.5951 	 23.5493 	 84.0007
| 40> H 	 -44.7882 	 29.736 	 83.1424
| 41> *
| 42>
| 43>                          ****END OF INPUT****

CARTESIAN COORDINATES (ANGSTROEM)
---------------------------------
  S    -40.861200   25.711500   83.855800
  C    -40.482100   24.057100   83.634100
  C    -41.569100   23.332400   83.161100
  C    -42.658700   24.189400   82.776000
  C    -42.311900   25.500900   82.886800
  H    -43.606200   23.939000   82.379600
  C    -41.498700   21.772700   83.077100
  H    -41.747800   21.183500   83.990600
  H    -40.484100   21.648100   82.911100
  C    -42.212200   21.116100   81.878500
  H    -42.065600   20.041300   81.964000
  H    -43.246100   21.464200   81.861200
  C    -41.694700   21.530500   80.461300
  H    -42.245900   22.348200   80.081500
  H    -40.712200   21.912700   80.488600
  H    -41.627500   20.743300   79.794400
  S    -43.597300   27.678700   84.002500
  C    -44.305100   28.824200   82.857800
  C    -44.122000   28.501700   81.557800
  C    -43.502700   27.249900   81.344800
  C    -43.174500   26.665500   82.567000
  H    -44.412500   29.293800   80.933000
  C    -43.175400   26.638200   79.988100
  H    -42.167500   26.408500   79.914300
  H    -43.439100   27.317300   79.179000
  C    -43.889700   25.399900   79.614300
  H    -43.544800   24.574200   80.217900
  H    -43.565600   25.116500   78.597700
  C    -45.396600   25.532800   79.807200
  H    -45.702300   25.580800   80.881000
  H    -45.891000   24.577100   79.591700
  H    -45.868900   26.303500   79.251200
  H    -39.595100   23.549300   84.000700
  H    -44.788200   29.736000   83.142400

 Total Charge           Charge          ....    0
 Multiplicity           Mult            ....    1
 Number of Electrons    NEL             ....  134
 Basis Dimension        Dim             ....  322

ORBITAL ENERGIES
----------------

  NO   OCC          E(Eh)            E(eV)
   0   2.0000     -88.966561     -2420.9032
   1   2.0000     -88.965408     -2420.8718
   2   2.0000     -10.329076      -281.0685
   3   2.0000     -10.326923      -281.0099
   4   2.0000     -10.311197      -280.5819
   5   2.0000     -10.310868      -280.5730
   6   2.0000     -10.307134      -280.4714
   7   2.0000     -10.304949      -280.4119
   8   2.0000     -10.292812      -280.0817
   9   2.0000     -10.291312      -280.0408
  10   2.0000     -10.287228      -279.9297
  11   2.0000     -10.286298      -279.9044
  12   2.0000     -10.281842      -279.7831
  13   2.0000     -10.280694      -279.7519
  14   2.0000     -10.273110      -279.5455
  15   2.0000     -10.262067      -279.2450
  16   2.0000      -8.081881      -219.9192
  17   2.0000      -8.079191      -219.8460
  18   2.0000      -6.040302      -164.3650
  19   2.0000      -6.037610      -164.2917
  20   2.0000      -6.036521      -164.2621
  21   2.0000      -6.034075      -164.1955
  22   2.0000      -6.032472      -164.1519
  23   2.0000      -6.029875      -164.0812
  24   2.0000      -1.007168       -27.4064
  25   2.0000      -0.983901       -26.7733
  26   2.0000      -0.918386       -24.9905
  27   2.0000      -0.906483       -24.6667
  28   2.0000      -0.868434       -23.6313
  29   2.0000      -0.848836       -23.0980
  30   2.0000      -0.844067       -22.9682
  31   2.0000      -0.820138       -22.3171
  32   2.0000      -0.789839       -21.4926
  33   2.0000      -0.777376       -21.1535
  34   2.0000      -0.713568       -19.4172
  35   2.0000      -0.696009       -18.9394
  36   2.0000      -0.684259       -18.6196
  37   2.0000      -0.657737       -17.8979
  38   2.0000      -0.646410       -17.5897
  39   2.0000      -0.622777       -16.9466
  40   2.0000      -0.595503       -16.2045
  41   2.0000      -0.572479       -15.5779
  42   2.0000      -0.565508       -15.3882
  43   2.0000      -0.549013       -14.9394
  44   2.0000      -0.545302       -14.8384
  45   2.0000      -0.543536       -14.7904
  46   2.0000      -0.514598       -14.0029
  47   2.0000      -0.511194       -13.9103
  48   2.0000      -0.498015       -13.5517
  49   2.0000      -0.492236       -13.3944
  50   2.0000      -0.490303       -13.3418
  51   2.0000      -0.484332       -13.1793
  52   2.0000      -0.472946       -12.8695
  53   2.0000      -0.464869       -12.6497
  54   2.0000      -0.461737       -12.5645
  55   2.0000      -0.448440       -12.2027
  56   2.0000      -0.443037       -12.0556
  57   2.0000      -0.435539       -11.8516
  58   2.0000      -0.431892       -11.7524
  59   2.0000      -0.425410       -11.5760
  60   2.0000      -0.422368       -11.4932
  61   2.0000      -0.415810       -11.3148
  62   2.0000      -0.411770       -11.2048
  63   2.0000      -0.343696        -9.3524
  64   2.0000      -0.334742        -9.1088
  65   2.0000      -0.327692        -8.9169
  66   2.0000      -0.294607        -8.0167
  67   0.0000       0.033988         0.9249
  68   0.0000       0.055422         1.5081
  69   0.0000       0.105629         2.8743
  70   0.0000       0.122419         3.3312
  71   0.0000       0.128123         3.4864

MULLIKEN ATOMIC CHARGES
-----------------------
   0 S :    0.124308
   1 C :   -0.112172
   2 C :   -0.098459
   3 C :    0.050331
   4 C :   -0.164121
   5 H :    0.007889
   6 C :    0.092156
   7 H :    0.052776
   8 H :   -0.001802
   9 C :   -0.103520
  10 H :    0.036260
  11 H :    0.036593
  12 C :   -0.007388
  13 H :    0.020531
  14 H :    0.005662
  15 H :    0.018596
  16 S :    0.091238
  17 C :   -0.087351
  18 C :   -0.030632
  19 C :   -0.010778
  20 C :   -0.192804
  21 H :   -0.000483
  22 C :    0.153651
  23 H :    0.019261
  24 H :    0.013454
  25 C :   -0.081248
  26 H :    0.011098
  27 H :    0.026665
  28 C :   -0.049613
  29 H :    0.041440
  30 H :    0.020613
  31 H :    0.028219
  32 H :    0.047373
  33 H :    0.042255
Sum of atomic charges:    0.0000000

LOEWDIN ATOMIC CHARGES
----------------------
   0 S :    0.416566
   1 C :   -0.208776
   2 C :   -0.059739
   3 C :   -0.057130
   4 C :   -0.190585
   5 H :    0.025698
   6 C :   -0.030636
   7 H :    0.038414
   8 H :    0.018505
   9 C :   -0.038895
  10 H :    0.027224
  11 H :    0.023838
  12 C :   -0.059111
  13 H :    0.020766
  14 H :    0.020435
  15 H :    0.017908
  16 S :    0.367137
  17 C :   -0.169641
  18 C :   -0.069861
  19 C :   -0.043916
  20 C :   -0.177158
  21 H :    0.029178
  22 C :   -0.023966
  23 H :    0.027574
  24 H :    0.031636
  25 C :   -0.040734
  26 H :    0.015969
  27 H :    0.027504
  28 C :   -0.069902
  29 H :    0.034319
  30 H :    0.026757
  31 H :    0.017952
  32 H :    0.029191
  33 H :    0.023479

  Mayer bond orders larger than 0.100000
B(  0-S ,  1-C ) :   1.1438 B(  0-S ,  4-C ) :   1.1507 B(  1-C ,  2-C ) :   1.6252
B(  1-C , 32-H ) :   0.9649 B(  2-C ,  3-C ) :   1.2226 B(  2-C ,  6-C ) :   0.9953
B(  3-C ,  4-C ) :   1.5947 B(  3-C ,  5-H ) :   0.9926 B(  4-C , 20-C ) :   1.0229
B(  6-C ,  7-H ) :   0.9422 B(  6-C ,  8-H ) :   0.9380 B(  6-C ,  9-C ) :   1.0873
B(  9-C , 10-H ) :   0.9595 B(  9-C , 11-H ) :   0.9615 B(  9-C , 12-C ) :   1.0667
B( 12-C , 13-H ) :   0.9762 B( 12-C , 14-H ) :   0.9720 B( 12-C , 15-H ) :   0.9757
B( 16-S , 17-C ) :   1.1282 B( 16-S , 20-C ) :   1.1365 B( 17-C , 18-C ) :   1.6711
B( 17-C , 33-H ) :   0.9637 B( 18-C , 19-C ) :   1.1922 B( 18-C , 21-H ) :   0.9998
B( 19-C , 20-C ) :   1.6143 B( 19-C , 22-C ) :   1.0365 B( 22-C , 23-H ) :   0.9163
B( 22-C , 24-H ) :   0.9332 B( 22-C , 25-C ) :   1.0923 B( 25-C , 26-H ) :   0.9411
B( 25-C , 27-H ) :   0.9519 B( 25-C , 28-C ) :   1.0825 B( 28-C , 29-H ) :   0.9633
B( 28-C , 30-H ) :   0.9699 B( 28-C , 31-H ) :   0.9792

Dispersion correction           -0.015990343
FINAL SINGLE POINT ENERGY     -1339.855376211956

DIPOLE MOMENT
-------------
                                X             Y             Z
Electronic contribution:      5.56326      19.77099      20.71627
Nuclear contribution   :     -5.60399     -20.06863     -21.13785
                        -----------------------------------------
Total Dipole Moment    :     -0.04073      -0.29765      -0.42157
                        -----------------------------------------
Magnitude (a.u.)       :      0.51766
Magnitude (Debye)      :      1.31580

Rotational constants in cm-1:     0.019339     0.010327     0.007475
Rotational constants in MHz :   579.758947   309.606122   224.098388

                             ****ORCA TERMINATED NORMALLY****
TOTAL RUN TIME: 0 days 0 hours 0 minutes 31 seconds 11 msec
