                         Program Version 4.2.1 -  RELEASE  -
|  1> ! wB97X-D3 SP def2-SVP
|  2> %pal
|  3> nprocs 16
|  4> end
|  5>
|  6> * xyz 0 1
|  7> S 	 -49.1845 	 63.6742 	 131.278
|  8> C 	 -49.5682 	 61.9281 	 131.023
|  9> C 	 -49.2615 	 61.1705 	 132.148
| 10> C 	 -48.6882 	 62.0456 	 133.181
| 11> C 	 -48.591 	 63.3478 	 132.872
| 12> H 	 -48.3147 	 61.8314 	 134.15
| 13> C 	 -49.241 	 59.638 	 132.164
| 14> H 	 -50.1924 	 59.3658 	 131.682
| 15> H 	 -49.1519 	 59.2942 	 133.183
| 16> C 	 -48.0833 	 59.1757 	 131.313
| 17> H 	 -48.0728 	 58.1247 	 131.191
| 18> H 	 -48.0756 	 59.578 	 130.232
| 19> C 	 -46.6104 	 59.4841 	 131.834
| 20> H 	 -46.3038 	 58.9995 	 132.76
| 21> H 	 -45.8516 	 59.0598 	 131.164
| 22> H 	 -46.3819 	 60.5468 	 131.967
| 23> S 	 -46.6478 	 65.3789 	 133
| 24> C 	 -46.3796 	 66.2172 	 134.515
| 25> C 	 -47.3298 	 65.8812 	 135.443
| 26> C 	 -48.2229 	 64.78 	 135.004
| 27> C 	 -47.9232 	 64.3615 	 133.702
| 28> H 	 -47.3627 	 66.3311 	 136.448
| 29> C 	 -49.345 	 64.1307 	 135.793
| 30> H 	 -49.7079 	 63.2644 	 135.381
| 31> H 	 -50.2229 	 64.8303 	 135.882
| 32> C 	 -49.0621 	 63.8182 	 137.285
| 33> H 	 -48.8152 	 64.7841 	 137.93
| 34> H 	 -48.2085 	 63.1227 	 137.385
| 35> C 	 -50.2581 	 63.1471 	 137.976
| 36> H 	 -50.4486 	 62.1538 	 137.591
| 37> H 	 -51.1896 	 63.6739 	 137.806
| 38> H 	 -50.1328 	 63.1287 	 139.067
| 39> H 	 -49.9889 	 61.5925 	 130.142
| 40> H 	 -45.6157 	 66.9771 	 134.657
| 41> *
| 42>
| 43>                          ****END OF INPUT****

CARTESIAN COORDINATES (ANGSTROEM)
---------------------------------
  S    -49.184500   63.674200  131.278000
  C    -49.568200   61.928100  131.023000
  C    -49.261500   61.170500  132.148000
  C    -48.688200   62.045600  133.181000
  C    -48.591000   63.347800  132.872000
  H    -48.314700   61.831400  134.150000
  C    -49.241000   59.638000  132.164000
  H    -50.192400   59.365800  131.682000
  H    -49.151900   59.294200  133.183000
  C    -48.083300   59.175700  131.313000
  H    -48.072800   58.124700  131.191000
  H    -48.075600   59.578000  130.232000
  C    -46.610400   59.484100  131.834000
  H    -46.303800   58.999500  132.760000
  H    -45.851600   59.059800  131.164000
  H    -46.381900   60.546800  131.967000
  S    -46.647800   65.378900  133.000000
  C    -46.379600   66.217200  134.515000
  C    -47.329800   65.881200  135.443000
  C    -48.222900   64.780000  135.004000
  C    -47.923200   64.361500  133.702000
  H    -47.362700   66.331100  136.448000
  C    -49.345000   64.130700  135.793000
  H    -49.707900   63.264400  135.381000
  H    -50.222900   64.830300  135.882000
  C    -49.062100   63.818200  137.285000
  H    -48.815200   64.784100  137.930000
  H    -48.208500   63.122700  137.385000
  C    -50.258100   63.147100  137.976000
  H    -50.448600   62.153800  137.591000
  H    -51.189600   63.673900  137.806000
  H    -50.132800   63.128700  139.067000
  H    -49.988900   61.592500  130.142000
  H    -45.615700   66.977100  134.657000

 Total Charge           Charge          ....    0
 Multiplicity           Mult            ....    1
 Number of Electrons    NEL             ....  134
 Basis Dimension        Dim             ....  322

ORBITAL ENERGIES
----------------

  NO   OCC          E(Eh)            E(eV)
   0   2.0000     -88.964382     -2420.8439
   1   2.0000     -88.963392     -2420.8170
   2   2.0000     -10.330375      -281.1038
   3   2.0000     -10.324589      -280.9464
   4   2.0000     -10.321113      -280.8518
   5   2.0000     -10.314618      -280.6750
   6   2.0000     -10.312108      -280.6067
   7   2.0000     -10.309870      -280.5458
   8   2.0000     -10.302582      -280.3475
   9   2.0000     -10.299736      -280.2701
  10   2.0000     -10.298372      -280.2329
  11   2.0000     -10.294027      -280.1147
  12   2.0000     -10.291204      -280.0379
  13   2.0000     -10.290051      -280.0065
  14   2.0000     -10.278028      -279.6794
  15   2.0000     -10.277379      -279.6617
  16   2.0000      -8.078811      -219.8356
  17   2.0000      -8.077825      -219.8088
  18   2.0000      -6.037463      -164.2877
  19   2.0000      -6.036443      -164.2600
  20   2.0000      -6.033360      -164.1761
  21   2.0000      -6.032436      -164.1509
  22   2.0000      -6.029435      -164.0693
  23   2.0000      -6.028429      -164.0419
  24   2.0000      -1.002717       -27.2853
  25   2.0000      -0.978188       -26.6179
  26   2.0000      -0.912609       -24.8333
  27   2.0000      -0.907185       -24.6858
  28   2.0000      -0.866701       -23.5841
  29   2.0000      -0.846188       -23.0259
  30   2.0000      -0.836711       -22.7681
  31   2.0000      -0.818040       -22.2600
  32   2.0000      -0.785207       -21.3666
  33   2.0000      -0.773453       -21.0467
  34   2.0000      -0.705122       -19.1873
  35   2.0000      -0.698244       -19.0002
  36   2.0000      -0.694302       -18.8929
  37   2.0000      -0.654305       -17.8045
  38   2.0000      -0.647239       -17.6123
  39   2.0000      -0.612834       -16.6761
  40   2.0000      -0.597831       -16.2678
  41   2.0000      -0.572517       -15.5790
  42   2.0000      -0.566131       -15.4052
  43   2.0000      -0.550910       -14.9910
  44   2.0000      -0.541075       -14.7234
  45   2.0000      -0.525413       -14.2972
  46   2.0000      -0.515885       -14.0379
  47   2.0000      -0.509785       -13.8720
  48   2.0000      -0.504534       -13.7291
  49   2.0000      -0.494477       -13.4554
  50   2.0000      -0.485234       -13.2039
  51   2.0000      -0.478908       -13.0318
  52   2.0000      -0.471691       -12.8354
  53   2.0000      -0.464670       -12.6443
  54   2.0000      -0.456378       -12.4187
  55   2.0000      -0.451545       -12.2872
  56   2.0000      -0.445014       -12.1094
  57   2.0000      -0.433671       -11.8008
  58   2.0000      -0.428517       -11.6605
  59   2.0000      -0.424768       -11.5585
  60   2.0000      -0.420020       -11.4293
  61   2.0000      -0.417034       -11.3481
  62   2.0000      -0.414083       -11.2678
  63   2.0000      -0.348002        -9.4696
  64   2.0000      -0.328973        -8.9518
  65   2.0000      -0.327083        -8.9004
  66   2.0000      -0.297292        -8.0897
  67   0.0000       0.035002         0.9524
  68   0.0000       0.068154         1.8546
  69   0.0000       0.110352         3.0028
  70   0.0000       0.121431         3.3043
  71   0.0000       0.126975         3.4552

MULLIKEN ATOMIC CHARGES
-----------------------
   0 S :    0.098827
   1 C :   -0.116385
   2 C :   -0.078671
   3 C :    0.031742
   4 C :   -0.153612
   5 H :   -0.004767
   6 C :    0.128188
   7 H :    0.037045
   8 H :    0.028337
   9 C :   -0.087640
  10 H :    0.023548
  11 H :    0.045522
  12 C :   -0.086001
  13 H :    0.020755
  14 H :    0.029993
  15 H :    0.051131
  16 S :    0.097508
  17 C :   -0.090113
  18 C :   -0.025070
  19 C :   -0.023266
  20 C :   -0.162933
  21 H :    0.031723
  22 C :    0.097562
  23 H :   -0.003106
  24 H :    0.039244
  25 C :   -0.145332
  26 H :    0.043743
  27 H :    0.037330
  28 C :   -0.039578
  29 H :    0.027799
  30 H :    0.019527
  31 H :    0.039731
  32 H :    0.022789
  33 H :    0.064428
Sum of atomic charges:    0.0000000

LOEWDIN ATOMIC CHARGES
----------------------
   0 S :    0.383067
   1 C :   -0.165424
   2 C :   -0.049646
   3 C :   -0.066884
   4 C :   -0.196532
   5 H :    0.024495
   6 C :   -0.025637
   7 H :    0.039438
   8 H :    0.031705
   9 C :   -0.040961
  10 H :    0.016696
  11 H :    0.036151
  12 C :   -0.075847
  13 H :    0.020372
  14 H :    0.028916
  15 H :    0.026992
  16 S :    0.387201
  17 C :   -0.180044
  18 C :   -0.071807
  19 C :   -0.048361
  20 C :   -0.190832
  21 H :    0.035608
  22 C :   -0.029936
  23 H :    0.015739
  24 H :    0.042234
  25 C :   -0.047806
  26 H :    0.030729
  27 H :    0.022245
  28 C :   -0.069365
  29 H :    0.022275
  30 H :    0.021567
  31 H :    0.030257
  32 H :    0.009727
  33 H :    0.033670

  Mayer bond orders larger than 0.100000
B(  0-S ,  1-C ) :   1.1232 B(  0-S ,  4-C ) :   1.1322 B(  1-C ,  2-C ) :   1.6239
B(  1-C , 32-H ) :   0.9830 B(  2-C ,  3-C ) :   1.1852 B(  2-C ,  6-C ) :   1.0204
B(  3-C ,  4-C ) :   1.6331 B(  3-C ,  5-H ) :   0.9936 B(  4-C , 20-C ) :   1.0286
B(  6-C ,  7-H ) :   0.9306 B(  6-C ,  8-H ) :   0.9426 B(  6-C ,  9-C ) :   1.0768
B(  9-C , 10-H ) :   0.9570 B(  9-C , 11-H ) :   0.9568 B(  9-C , 12-C ) :   1.0644
B( 12-C , 13-H ) :   0.9758 B( 12-C , 14-H ) :   0.9740 B( 12-C , 15-H ) :   0.9776
B( 16-S , 17-C ) :   1.1424 B( 16-S , 20-C ) :   1.1235 B( 17-C , 18-C ) :   1.6347
B( 17-C , 33-H ) :   0.9672 B( 18-C , 19-C ) :   1.2083 B( 18-C , 21-H ) :   0.9843
B( 19-C , 20-C ) :   1.6137 B( 19-C , 22-C ) :   1.0543 B( 22-C , 23-H ) :   0.9364
B( 22-C , 24-H ) :   0.9247 B( 22-C , 25-C ) :   1.0504 B( 25-C , 26-H ) :   0.9528
B( 25-C , 27-H ) :   0.9584 B( 25-C , 28-C ) :   1.0838 B( 28-C , 29-H ) :   0.9729
B( 28-C , 30-H ) :   0.9720 B( 28-C , 31-H ) :   0.9743

Dispersion correction           -0.014321824
FINAL SINGLE POINT ENERGY     -1339.876256951932

DIPOLE MOMENT
-------------
                                X             Y             Z
Electronic contribution:      3.71100      18.98242     -14.85913
Nuclear contribution   :     -3.80448     -19.44079      15.29781
                        -----------------------------------------
Total Dipole Moment    :     -0.09349      -0.45837       0.43869
                        -----------------------------------------
Magnitude (a.u.)       :      0.64132
Magnitude (Debye)      :      1.63011

Rotational constants in cm-1:     0.016989     0.008896     0.007108
Rotational constants in MHz :   509.308913   266.703655   213.102433

                             ****ORCA TERMINATED NORMALLY****
TOTAL RUN TIME: 0 days 0 hours 0 minutes 35 seconds 494 msec
