                         Program Version 4.2.1 -  RELEASE  -
|  1> ! wB97X-D3 SP def2-SVP
|  2> %pal
|  3> nprocs 16
|  4> end
|  5>
|  6> * xyz 0 1
|  7> S 	 -45.4332 	 52.9155 	 106.592
|  8> C 	 -44.2172 	 53.0733 	 105.3
|  9> C 	 -43.7516 	 54.4139 	 105.149
| 10> C 	 -44.344 	 55.1943 	 106.155
| 11> C 	 -45.2624 	 54.6059 	 107.007
| 12> H 	 -44.1278 	 56.2816 	 106.174
| 13> C 	 -42.756 	 54.8912 	 104.138
| 14> H 	 -42.621 	 54.0241 	 103.524
| 15> H 	 -41.8247 	 55.1699 	 104.664
| 16> C 	 -43.1076 	 56.1606 	 103.187
| 17> H 	 -43.411 	 56.9834 	 103.794
| 18> H 	 -42.1801 	 56.3736 	 102.627
| 19> C 	 -44.2631 	 55.9075 	 102.145
| 20> H 	 -45.2886 	 55.6993 	 102.606
| 21> H 	 -44.3589 	 56.8197 	 101.503
| 22> H 	 -44.0465 	 55.1148 	 101.464
| 23> S 	 -46.3954 	 54.3777 	 109.508
| 24> C 	 -47.6041 	 55.4363 	 110.148
| 25> C 	 -47.7219 	 56.4853 	 109.243
| 26> C 	 -46.8431 	 56.4928 	 108.084
| 27> C 	 -46.1888 	 55.253 	 108.003
| 28> H 	 -48.4656 	 57.2795 	 109.511
| 29> C 	 -46.7034 	 57.5822 	 107.045
| 30> H 	 -45.7041 	 57.5938 	 106.702
| 31> H 	 -46.809 	 58.6386 	 107.353
| 32> C 	 -47.5977 	 57.3962 	 105.824
| 33> H 	 -47.5909 	 56.376 	 105.434
| 34> H 	 -47.2018 	 58.0254 	 105.06
| 35> C 	 -49.0849 	 57.8677 	 106.052
| 36> H 	 -49.6998 	 57.8238 	 105.21
| 37> H 	 -49.0791 	 58.884 	 106.435
| 38> H 	 -49.5213 	 57.1166 	 106.634
| 39> H 	 -43.9591 	 52.2469 	 104.627
| 40> H 	 -48.0676 	 55.3291 	 111.155
| 41> *
| 42>
| 43>                          ****END OF INPUT****

CARTESIAN COORDINATES (ANGSTROEM)
---------------------------------
  S    -45.433200   52.915500  106.592000
  C    -44.217200   53.073300  105.300000
  C    -43.751600   54.413900  105.149000
  C    -44.344000   55.194300  106.155000
  C    -45.262400   54.605900  107.007000
  H    -44.127800   56.281600  106.174000
  C    -42.756000   54.891200  104.138000
  H    -42.621000   54.024100  103.524000
  H    -41.824700   55.169900  104.664000
  C    -43.107600   56.160600  103.187000
  H    -43.411000   56.983400  103.794000
  H    -42.180100   56.373600  102.627000
  C    -44.263100   55.907500  102.145000
  H    -45.288600   55.699300  102.606000
  H    -44.358900   56.819700  101.503000
  H    -44.046500   55.114800  101.464000
  S    -46.395400   54.377700  109.508000
  C    -47.604100   55.436300  110.148000
  C    -47.721900   56.485300  109.243000
  C    -46.843100   56.492800  108.084000
  C    -46.188800   55.253000  108.003000
  H    -48.465600   57.279500  109.511000
  C    -46.703400   57.582200  107.045000
  H    -45.704100   57.593800  106.702000
  H    -46.809000   58.638600  107.353000
  C    -47.597700   57.396200  105.824000
  H    -47.590900   56.376000  105.434000
  H    -47.201800   58.025400  105.060000
  C    -49.084900   57.867700  106.052000
  H    -49.699800   57.823800  105.210000
  H    -49.079100   58.884000  106.435000
  H    -49.521300   57.116600  106.634000
  H    -43.959100   52.246900  104.627000
  H    -48.067600   55.329100  111.155000

 Total Charge           Charge          ....    0
 Multiplicity           Mult            ....    1
 Number of Electrons    NEL             ....  134
 Basis Dimension        Dim             ....  322

ORBITAL ENERGIES
----------------

  NO   OCC          E(Eh)            E(eV)
   0   2.0000     -88.971186     -2421.0291
   1   2.0000     -88.961740     -2420.7720
   2   2.0000     -10.335842      -281.2526
   3   2.0000     -10.334744      -281.2227
   4   2.0000     -10.322976      -280.9025
   5   2.0000     -10.320331      -280.8305
   6   2.0000     -10.311899      -280.6010
   7   2.0000     -10.305257      -280.4203
   8   2.0000     -10.301047      -280.3058
   9   2.0000     -10.300869      -280.3009
  10   2.0000     -10.300032      -280.2781
  11   2.0000     -10.294644      -280.1315
  12   2.0000     -10.291301      -280.0405
  13   2.0000     -10.287107      -279.9264
  14   2.0000     -10.281505      -279.7740
  15   2.0000     -10.265915      -279.3498
  16   2.0000      -8.085057      -220.0056
  17   2.0000      -8.076893      -219.7834
  18   2.0000      -6.043568      -164.4538
  19   2.0000      -6.039601      -164.3459
  20   2.0000      -6.035936      -164.2462
  21   2.0000      -6.035393      -164.2314
  22   2.0000      -6.031172      -164.1165
  23   2.0000      -6.027792      -164.0246
  24   2.0000      -1.003365       -27.3029
  25   2.0000      -0.982296       -26.7296
  26   2.0000      -0.909798       -24.7569
  27   2.0000      -0.903621       -24.5888
  28   2.0000      -0.860565       -23.4172
  29   2.0000      -0.848130       -23.0788
  30   2.0000      -0.839281       -22.8380
  31   2.0000      -0.812584       -22.1115
  32   2.0000      -0.787484       -21.4285
  33   2.0000      -0.774050       -21.0630
  34   2.0000      -0.710099       -19.3228
  35   2.0000      -0.699110       -19.0237
  36   2.0000      -0.688586       -18.7374
  37   2.0000      -0.654875       -17.8201
  38   2.0000      -0.634770       -17.2730
  39   2.0000      -0.625278       -17.0147
  40   2.0000      -0.599714       -16.3191
  41   2.0000      -0.564533       -15.3617
  42   2.0000      -0.556672       -15.1478
  43   2.0000      -0.546090       -14.8599
  44   2.0000      -0.543533       -14.7903
  45   2.0000      -0.534873       -14.5546
  46   2.0000      -0.516107       -14.0440
  47   2.0000      -0.514320       -13.9953
  48   2.0000      -0.499160       -13.5828
  49   2.0000      -0.493311       -13.4237
  50   2.0000      -0.484600       -13.1866
  51   2.0000      -0.478277       -13.0146
  52   2.0000      -0.470263       -12.7965
  53   2.0000      -0.464715       -12.6455
  54   2.0000      -0.461416       -12.5558
  55   2.0000      -0.448132       -12.1943
  56   2.0000      -0.442747       -12.0478
  57   2.0000      -0.436028       -11.8649
  58   2.0000      -0.434124       -11.8131
  59   2.0000      -0.430845       -11.7239
  60   2.0000      -0.422898       -11.5076
  61   2.0000      -0.415441       -11.3047
  62   2.0000      -0.409092       -11.1320
  63   2.0000      -0.347414        -9.4536
  64   2.0000      -0.333863        -9.0849
  65   2.0000      -0.325779        -8.8649
  66   2.0000      -0.289157        -7.8684
  67   0.0000       0.024497         0.6666
  68   0.0000       0.071277         1.9395
  69   0.0000       0.110495         3.0067
  70   0.0000       0.112544         3.0625
  71   0.0000       0.124817         3.3964

MULLIKEN ATOMIC CHARGES
-----------------------
   0 S :    0.118215
   1 C :   -0.141158
   2 C :   -0.093416
   3 C :   -0.010513
   4 C :   -0.102238
   5 H :    0.015825
   6 C :    0.064282
   7 H :    0.012403
   8 H :    0.052817
   9 C :   -0.076611
  10 H :    0.032918
  11 H :    0.043991
  12 C :   -0.089699
  13 H :    0.055707
  14 H :    0.039768
  15 H :    0.028063
  16 S :    0.091970
  17 C :   -0.108234
  18 C :   -0.064491
  19 C :   -0.015430
  20 C :   -0.161328
  21 H :    0.034664
  22 C :    0.090152
  23 H :   -0.003474
  24 H :    0.023208
  25 C :   -0.085375
  26 H :    0.037462
  27 H :    0.016201
  28 C :   -0.009608
  29 H :    0.013970
  30 H :    0.028664
  31 H :    0.021515
  32 H :    0.057337
  33 H :    0.082444
Sum of atomic charges:   -0.0000000

LOEWDIN ATOMIC CHARGES
----------------------
   0 S :    0.407622
   1 C :   -0.193609
   2 C :   -0.065179
   3 C :   -0.073586
   4 C :   -0.198860
   5 H :    0.030514
   6 C :   -0.031150
   7 H :    0.027184
   8 H :    0.040418
   9 C :   -0.031393
  10 H :    0.017829
  11 H :    0.030886
  12 C :   -0.075597
  13 H :    0.035562
  14 H :    0.030829
  15 H :    0.017710
  16 S :    0.410937
  17 C :   -0.207977
  18 C :   -0.080098
  19 C :   -0.055168
  20 C :   -0.191085
  21 H :    0.036024
  22 C :   -0.032806
  23 H :    0.023852
  24 H :    0.036255
  25 C :   -0.030019
  26 H :    0.026298
  27 H :    0.016349
  28 C :   -0.058896
  29 H :    0.018586
  30 H :    0.024281
  31 H :    0.020764
  32 H :    0.028715
  33 H :    0.044808

  Mayer bond orders larger than 0.100000
B(  0-S ,  1-C ) :   1.1552 B(  0-S ,  4-C ) :   1.1589 B(  1-C ,  2-C ) :   1.5637
B(  1-C ,  4-C ) :   0.1084 B(  1-C , 32-H ) :   0.9612 B(  2-C ,  3-C ) :   1.2854
B(  2-C ,  6-C ) :   1.0291 B(  3-C ,  4-C ) :   1.5540 B(  3-C ,  5-H ) :   0.9859
B(  4-C , 20-C ) :   1.0111 B(  6-C ,  7-H ) :   0.9389 B(  6-C ,  8-H ) :   0.9384
B(  6-C ,  9-C ) :   1.0582 B(  9-C , 10-H ) :   0.9611 B(  9-C , 11-H ) :   0.9580
B(  9-C , 12-C ) :   1.0680 B( 12-C , 13-H ) :   0.9768 B( 12-C , 14-H ) :   0.9751
B( 12-C , 15-H ) :   0.9778 B( 16-S , 17-C ) :   1.1505 B( 16-S , 20-C ) :   1.1707
B( 17-C , 18-C ) :   1.5897 B( 17-C , 20-C ) :   0.1055 B( 17-C , 33-H ) :   0.9671
B( 18-C , 19-C ) :   1.2421 B( 18-C , 21-H ) :   0.9826 B( 19-C , 20-C ) :   1.5618
B( 19-C , 22-C ) :   1.0464 B( 22-C , 23-H ) :   0.9287 B( 22-C , 24-H ) :   0.9324
B( 22-C , 25-C ) :   1.0797 B( 25-C , 26-H ) :   0.9576 B( 25-C , 27-H ) :   0.9555
B( 25-C , 28-C ) :   1.0783 B( 28-C , 29-H ) :   0.9720 B( 28-C , 30-H ) :   0.9756
B( 28-C , 31-H ) :   0.9748

Dispersion correction           -0.014760554
FINAL SINGLE POINT ENERGY     -1339.870082526534

DIPOLE MOMENT
-------------
                                X             Y             Z
Electronic contribution:      0.64028     -19.09439      23.00539
Nuclear contribution   :     -0.53114      19.66467     -23.53241
                        -----------------------------------------
Total Dipole Moment    :      0.10914       0.57029      -0.52702
                        -----------------------------------------
Magnitude (a.u.)       :      0.78415
Magnitude (Debye)      :      1.99314

Rotational constants in cm-1:     0.018460     0.009457     0.006965
Rotational constants in MHz :   553.425916   283.517570   208.812824

                             ****ORCA TERMINATED NORMALLY****
TOTAL RUN TIME: 0 days 0 hours 0 minutes 30 seconds 712 msec
