                         Program Version 4.2.1 -  RELEASE  -
|  1> ! wB97X-D3 SP def2-SVP
|  2> %pal
|  3> nprocs 16
|  4> end
|  5>
|  6> * xyz 0 1
|  7> S 	 -1.52122 	 74.4962 	 51.8194
|  8> C 	 -0.555978 	 74.4762 	 50.3314
|  9> C 	 -0.560428 	 75.6878 	 49.6827
| 10> C 	 -1.55916 	 76.546 	 50.2843
| 11> C 	 -2.21824 	 76.0744 	 51.4087
| 12> H 	 -1.96827 	 77.4572 	 49.9001
| 13> C 	 0.122354 	 76.0453 	 48.3588
| 14> H 	 -0.247461 	 75.455 	 47.5651
| 15> H 	 1.10975 	 75.73 	 48.428
| 16> C 	 0.183025 	 77.4953 	 47.9434
| 17> H 	 0.622602 	 77.6089 	 46.9486
| 18> H 	 -0.764036 	 77.8439 	 47.7708
| 19> C 	 1.03434 	 78.3745 	 48.983
| 20> H 	 1.0182 	 79.4088 	 48.5352
| 21> H 	 0.664958 	 78.4006 	 49.9679
| 22> H 	 2.07222 	 78.113 	 49.0117
| 23> S 	 -4.55913 	 77.4957 	 51.2495
| 24> C 	 -5.23693 	 78.0693 	 52.6807
| 25> C 	 -4.42229 	 78.1066 	 53.797
| 26> C 	 -3.25636 	 77.2875 	 53.4968
| 27> C 	 -3.2417 	 76.8194 	 52.1851
| 28> H 	 -4.69341 	 78.4764 	 54.7718
| 29> C 	 -2.14632 	 77.1008 	 54.5363
| 30> H 	 -2.17574 	 78.0221 	 55.0572
| 31> H 	 -1.1955 	 77.1582 	 54.0169
| 32> C 	 -2.19738 	 75.8363 	 55.3208
| 33> H 	 -1.21641 	 75.711 	 55.7467
| 34> H 	 -2.21243 	 74.9035 	 54.7469
| 35> C 	 -3.31646 	 75.911 	 56.3799
| 36> H 	 -3.21846 	 75.0674 	 57.0287
| 37> H 	 -4.26984 	 75.7886 	 55.9353
| 38> H 	 -3.2676 	 76.7424 	 57.0972
| 39> H 	 0.069356 	 73.6004 	 50.1508
| 40> H 	 -6.29703 	 78.5043 	 52.5482
| 41> *
| 42>
| 43>                          ****END OF INPUT****

CARTESIAN COORDINATES (ANGSTROEM)
---------------------------------
  S     -1.521220   74.496200   51.819400
  C     -0.555978   74.476200   50.331400
  C     -0.560428   75.687800   49.682700
  C     -1.559160   76.546000   50.284300
  C     -2.218240   76.074400   51.408700
  H     -1.968270   77.457200   49.900100
  C      0.122354   76.045300   48.358800
  H     -0.247461   75.455000   47.565100
  H      1.109750   75.730000   48.428000
  C      0.183025   77.495300   47.943400
  H      0.622602   77.608900   46.948600
  H     -0.764036   77.843900   47.770800
  C      1.034340   78.374500   48.983000
  H      1.018200   79.408800   48.535200
  H      0.664958   78.400600   49.967900
  H      2.072220   78.113000   49.011700
  S     -4.559130   77.495700   51.249500
  C     -5.236930   78.069300   52.680700
  C     -4.422290   78.106600   53.797000
  C     -3.256360   77.287500   53.496800
  C     -3.241700   76.819400   52.185100
  H     -4.693410   78.476400   54.771800
  C     -2.146320   77.100800   54.536300
  H     -2.175740   78.022100   55.057200
  H     -1.195500   77.158200   54.016900
  C     -2.197380   75.836300   55.320800
  H     -1.216410   75.711000   55.746700
  H     -2.212430   74.903500   54.746900
  C     -3.316460   75.911000   56.379900
  H     -3.218460   75.067400   57.028700
  H     -4.269840   75.788600   55.935300
  H     -3.267600   76.742400   57.097200
  H      0.069356   73.600400   50.150800
  H     -6.297030   78.504300   52.548200

 Total Charge           Charge          ....    0
 Multiplicity           Mult            ....    1
 Number of Electrons    NEL             ....  134
 Basis Dimension        Dim             ....  322

ORBITAL ENERGIES
----------------

  NO   OCC          E(Eh)            E(eV)
   0   2.0000     -88.965461     -2420.8733
   1   2.0000     -88.963312     -2420.8148
   2   2.0000     -10.329962      -281.0926
   3   2.0000     -10.324212      -280.9361
   4   2.0000     -10.320650      -280.8392
   5   2.0000     -10.316223      -280.7187
   6   2.0000     -10.305911      -280.4381
   7   2.0000     -10.303781      -280.3801
   8   2.0000     -10.297099      -280.1983
   9   2.0000     -10.290183      -280.0101
  10   2.0000     -10.284048      -279.8432
  11   2.0000     -10.282289      -279.7953
  12   2.0000     -10.281432      -279.7720
  13   2.0000     -10.280801      -279.7548
  14   2.0000     -10.277405      -279.6624
  15   2.0000     -10.269803      -279.4555
  16   2.0000      -8.081735      -219.9152
  17   2.0000      -8.077076      -219.7884
  18   2.0000      -6.039963      -164.3557
  19   2.0000      -6.036231      -164.2542
  20   2.0000      -6.035698      -164.2397
  21   2.0000      -6.032510      -164.1529
  22   2.0000      -6.031717      -164.1314
  23   2.0000      -6.027804      -164.0249
  24   2.0000      -1.005430       -27.3592
  25   2.0000      -0.982050       -26.7229
  26   2.0000      -0.913381       -24.8543
  27   2.0000      -0.910012       -24.7627
  28   2.0000      -0.865058       -23.5394
  29   2.0000      -0.849938       -23.1280
  30   2.0000      -0.836051       -22.7501
  31   2.0000      -0.810039       -22.0423
  32   2.0000      -0.788169       -21.4472
  33   2.0000      -0.775707       -21.1081
  34   2.0000      -0.714818       -19.4512
  35   2.0000      -0.706405       -19.2222
  36   2.0000      -0.682882       -18.5822
  37   2.0000      -0.664328       -18.0773
  38   2.0000      -0.638197       -17.3662
  39   2.0000      -0.616828       -16.7847
  40   2.0000      -0.596684       -16.2366
  41   2.0000      -0.561969       -15.2920
  42   2.0000      -0.552816       -15.0429
  43   2.0000      -0.551865       -15.0170
  44   2.0000      -0.541122       -14.7247
  45   2.0000      -0.534392       -14.5415
  46   2.0000      -0.519820       -14.1450
  47   2.0000      -0.510956       -13.9038
  48   2.0000      -0.495284       -13.4774
  49   2.0000      -0.493442       -13.4272
  50   2.0000      -0.486181       -13.2297
  51   2.0000      -0.478303       -13.0153
  52   2.0000      -0.476295       -12.9606
  53   2.0000      -0.466384       -12.6909
  54   2.0000      -0.461606       -12.5609
  55   2.0000      -0.453473       -12.3396
  56   2.0000      -0.444587       -12.0978
  57   2.0000      -0.438027       -11.9193
  58   2.0000      -0.435844       -11.8599
  59   2.0000      -0.419574       -11.4172
  60   2.0000      -0.417529       -11.3615
  61   2.0000      -0.414550       -11.2805
  62   2.0000      -0.406050       -11.0492
  63   2.0000      -0.344544        -9.3755
  64   2.0000      -0.332314        -9.0427
  65   2.0000      -0.327066        -8.8999
  66   2.0000      -0.290314        -7.8999
  67   0.0000       0.037485         1.0200
  68   0.0000       0.063000         1.7143
  69   0.0000       0.097688         2.6582
  70   0.0000       0.120513         3.2793
  71   0.0000       0.137394         3.7387

MULLIKEN ATOMIC CHARGES
-----------------------
   0 S :    0.086831
   1 C :   -0.150430
   2 C :   -0.054096
   3 C :    0.005361
   4 C :   -0.138469
   5 H :    0.000929
   6 C :    0.127145
   7 H :    0.029020
   8 H :   -0.001441
   9 C :   -0.053636
  10 H :    0.023637
  11 H :    0.008138
  12 C :   -0.065151
  13 H :    0.035963
  14 H :    0.042439
  15 H :    0.029039
  16 S :    0.116161
  17 C :   -0.122002
  18 C :   -0.007101
  19 C :   -0.089860
  20 C :   -0.166188
  21 H :    0.022691
  22 C :    0.094790
  23 H :    0.009733
  24 H :    0.020987
  25 C :   -0.031171
  26 H :    0.013615
  27 H :    0.026056
  28 C :   -0.028261
  29 H :    0.013827
  30 H :    0.034825
  31 H :    0.027782
  32 H :    0.055866
  33 H :    0.082971
Sum of atomic charges:    0.0000000

LOEWDIN ATOMIC CHARGES
----------------------
   0 S :    0.381182
   1 C :   -0.184685
   2 C :   -0.057853
   3 C :   -0.070675
   4 C :   -0.186979
   5 H :    0.019771
   6 C :   -0.027161
   7 H :    0.031148
   8 H :    0.023104
   9 C :   -0.030768
  10 H :    0.031018
  11 H :    0.008924
  12 C :   -0.059685
  13 H :    0.033239
  14 H :    0.018893
  15 H :    0.022082
  16 S :    0.434046
  17 C :   -0.204317
  18 C :   -0.075078
  19 C :   -0.045534
  20 C :   -0.205144
  21 H :    0.032560
  22 C :   -0.030280
  23 H :    0.027211
  24 H :    0.031066
  25 C :   -0.039908
  26 H :    0.023410
  27 H :    0.024934
  28 C :   -0.062846
  29 H :    0.023025
  30 H :    0.022761
  31 H :    0.026601
  32 H :    0.027769
  33 H :    0.038170

  Mayer bond orders larger than 0.100000
B(  0-S ,  1-C ) :   1.1364 B(  0-S ,  4-C ) :   1.1299 B(  1-C ,  2-C ) :   1.6240
B(  1-C , 32-H ) :   0.9715 B(  2-C ,  3-C ) :   1.2156 B(  2-C ,  6-C ) :   1.0015
B(  3-C ,  4-C ) :   1.6121 B(  3-C ,  5-H ) :   0.9856 B(  4-C , 20-C ) :   1.0167
B(  6-C ,  7-H ) :   0.9338 B(  6-C ,  8-H ) :   0.9278 B(  6-C ,  9-C ) :   1.0964
B(  9-C , 10-H ) :   0.9500 B(  9-C , 11-H ) :   0.9490 B(  9-C , 12-C ) :   1.0656
B( 12-C , 13-H ) :   0.9771 B( 12-C , 14-H ) :   0.9809 B( 12-C , 15-H ) :   0.9775
B( 16-S , 17-C ) :   1.1956 B( 16-S , 20-C ) :   1.1392 B( 17-C , 18-C ) :   1.5788
B( 17-C , 33-H ) :   0.9540 B( 18-C , 19-C ) :   1.2365 B( 18-C , 21-H ) :   0.9951
B( 19-C , 20-C ) :   1.6150 B( 19-C , 22-C ) :   1.0243 B( 22-C , 23-H ) :   0.9392
B( 22-C , 24-H ) :   0.9263 B( 22-C , 25-C ) :   1.0818 B( 25-C , 26-H ) :   0.9499
B( 25-C , 27-H ) :   0.9480 B( 25-C , 28-C ) :   1.0732 B( 28-C , 29-H ) :   0.9695
B( 28-C , 30-H ) :   0.9752 B( 28-C , 31-H ) :   0.9760

Dispersion correction           -0.014953733
FINAL SINGLE POINT ENERGY     -1339.859780995835

DIPOLE MOMENT
-------------
                                X             Y             Z
Electronic contribution:    -12.50573      -5.76151      -3.52504
Nuclear contribution   :     12.76645       6.00235       3.46800
                        -----------------------------------------
Total Dipole Moment    :      0.26072       0.24084      -0.05704
                        -----------------------------------------
Magnitude (a.u.)       :      0.35948
Magnitude (Debye)      :      0.91373

Rotational constants in cm-1:     0.020697     0.008465     0.007184
Rotational constants in MHz :   620.488506   253.770766   215.364717

                             ****ORCA TERMINATED NORMALLY****
TOTAL RUN TIME: 0 days 0 hours 0 minutes 34 seconds 283 msec
