                         Program Version 4.2.1 -  RELEASE  -
|  1> ! wB97X-D3 SP def2-SVP
|  2> %pal
|  3> nprocs 16
|  4> end
|  5>
|  6> * xyz 0 1
|  7> S 	 66.1802 	 19.0583 	 74.8163
|  8> C 	 65.2194 	 20.4805 	 74.9248
|  9> C 	 65.6816 	 21.3288 	 75.9072
| 10> C 	 66.8159 	 20.742 	 76.5999
| 11> C 	 67.0966 	 19.448 	 76.2267
| 12> H 	 67.5159 	 21.2123 	 77.2684
| 13> C 	 65.246 	 22.7673 	 76.0925
| 14> H 	 64.9341 	 23.1009 	 75.0302
| 15> H 	 66.0391 	 23.4377 	 76.459
| 16> C 	 64.0335 	 22.8375 	 76.9932
| 17> H 	 64.1967 	 22.3825 	 78.037
| 18> H 	 63.789 	 23.8494 	 77.1387
| 19> C 	 62.7752 	 22.0387 	 76.4694
| 20> H 	 63.0152 	 20.9107 	 76.6255
| 21> H 	 61.9574 	 22.3526 	 77.1714
| 22> H 	 62.4385 	 22.2149 	 75.4477
| 23> S 	 69.4921 	 18.3401 	 75.5132
| 24> C 	 70.4437 	 17.3938 	 76.5878
| 25> C 	 69.7949 	 17.417 	 77.8181
| 26> C 	 68.6073 	 18.1971 	 77.9503
| 27> C 	 68.1906 	 18.6342 	 76.6822
| 28> H 	 70.3146 	 16.8876 	 78.5769
| 29> C 	 67.8779 	 18.304 	 79.2226
| 30> H 	 67.3024 	 19.2183 	 79.2735
| 31> H 	 68.5899 	 18.4449 	 80.0098
| 32> C 	 67.1094 	 17.0726 	 79.7631
| 33> H 	 66.8493 	 17.1646 	 80.8104
| 34> H 	 67.6811 	 16.1345 	 79.6193
| 35> C 	 65.7541 	 16.866 	 79.0548
| 36> H 	 65.9711 	 16.6534 	 77.964
| 37> H 	 64.9646 	 17.6096 	 79.1958
| 38> H 	 65.2549 	 16.0322 	 79.6321
| 39> H 	 64.3505 	 20.728 	 74.3008
| 40> H 	 71.3858 	 17.0132 	 76.3469
| 41> *
| 42>
| 43>                          ****END OF INPUT****

CARTESIAN COORDINATES (ANGSTROEM)
---------------------------------
  S     66.180200   19.058300   74.816300
  C     65.219400   20.480500   74.924800
  C     65.681600   21.328800   75.907200
  C     66.815900   20.742000   76.599900
  C     67.096600   19.448000   76.226700
  H     67.515900   21.212300   77.268400
  C     65.246000   22.767300   76.092500
  H     64.934100   23.100900   75.030200
  H     66.039100   23.437700   76.459000
  C     64.033500   22.837500   76.993200
  H     64.196700   22.382500   78.037000
  H     63.789000   23.849400   77.138700
  C     62.775200   22.038700   76.469400
  H     63.015200   20.910700   76.625500
  H     61.957400   22.352600   77.171400
  H     62.438500   22.214900   75.447700
  S     69.492100   18.340100   75.513200
  C     70.443700   17.393800   76.587800
  C     69.794900   17.417000   77.818100
  C     68.607300   18.197100   77.950300
  C     68.190600   18.634200   76.682200
  H     70.314600   16.887600   78.576900
  C     67.877900   18.304000   79.222600
  H     67.302400   19.218300   79.273500
  H     68.589900   18.444900   80.009800
  C     67.109400   17.072600   79.763100
  H     66.849300   17.164600   80.810400
  H     67.681100   16.134500   79.619300
  C     65.754100   16.866000   79.054800
  H     65.971100   16.653400   77.964000
  H     64.964600   17.609600   79.195800
  H     65.254900   16.032200   79.632100
  H     64.350500   20.728000   74.300800
  H     71.385800   17.013200   76.346900

 Total Charge           Charge          ....    0
 Multiplicity           Mult            ....    1
 Number of Electrons    NEL             ....  134
 Basis Dimension        Dim             ....  322

ORBITAL ENERGIES
----------------

  NO   OCC          E(Eh)            E(eV)
   0   2.0000     -88.965520     -2420.8749
   1   2.0000     -88.960565     -2420.7400
   2   2.0000     -10.328996      -281.0663
   3   2.0000     -10.323963      -280.9293
   4   2.0000     -10.313939      -280.6565
   5   2.0000     -10.313409      -280.6421
   6   2.0000     -10.306581      -280.4563
   7   2.0000     -10.301579      -280.3202
   8   2.0000     -10.299817      -280.2723
   9   2.0000     -10.293456      -280.0992
  10   2.0000     -10.290844      -280.0281
  11   2.0000     -10.289955      -280.0039
  12   2.0000     -10.288952      -279.9766
  13   2.0000     -10.288246      -279.9574
  14   2.0000     -10.285433      -279.8809
  15   2.0000     -10.277207      -279.6570
  16   2.0000      -8.081096      -219.8978
  17   2.0000      -8.075763      -219.7527
  18   2.0000      -6.039529      -164.3439
  19   2.0000      -6.035472      -164.2336
  20   2.0000      -6.034193      -164.1987
  21   2.0000      -6.031880      -164.1358
  22   2.0000      -6.030000      -164.0846
  23   2.0000      -6.026765      -163.9966
  24   2.0000      -1.011145       -27.5147
  25   2.0000      -0.987684       -26.8763
  26   2.0000      -0.912969       -24.8432
  27   2.0000      -0.909807       -24.7571
  28   2.0000      -0.871032       -23.7020
  29   2.0000      -0.848139       -23.0790
  30   2.0000      -0.841228       -22.8910
  31   2.0000      -0.810981       -22.0679
  32   2.0000      -0.781946       -21.2778
  33   2.0000      -0.775327       -21.0977
  34   2.0000      -0.708360       -19.2755
  35   2.0000      -0.694230       -18.8910
  36   2.0000      -0.689685       -18.7673
  37   2.0000      -0.658466       -17.9178
  38   2.0000      -0.643802       -17.5187
  39   2.0000      -0.616462       -16.7748
  40   2.0000      -0.601623       -16.3710
  41   2.0000      -0.574209       -15.6250
  42   2.0000      -0.557308       -15.1651
  43   2.0000      -0.545522       -14.8444
  44   2.0000      -0.541988       -14.7483
  45   2.0000      -0.530241       -14.4286
  46   2.0000      -0.522969       -14.2307
  47   2.0000      -0.519205       -14.1283
  48   2.0000      -0.505196       -13.7471
  49   2.0000      -0.493967       -13.4415
  50   2.0000      -0.487648       -13.2696
  51   2.0000      -0.483920       -13.1681
  52   2.0000      -0.470907       -12.8140
  53   2.0000      -0.463263       -12.6060
  54   2.0000      -0.460909       -12.5420
  55   2.0000      -0.440701       -11.9921
  56   2.0000      -0.437246       -11.8981
  57   2.0000      -0.434749       -11.8301
  58   2.0000      -0.428105       -11.6493
  59   2.0000      -0.421485       -11.4692
  60   2.0000      -0.417540       -11.3619
  61   2.0000      -0.413643       -11.2558
  62   2.0000      -0.402558       -10.9542
  63   2.0000      -0.345309        -9.3963
  64   2.0000      -0.328751        -8.9458
  65   2.0000      -0.324129        -8.8200
  66   2.0000      -0.294970        -8.0266
  67   0.0000       0.032048         0.8721
  68   0.0000       0.065113         1.7718
  69   0.0000       0.113480         3.0879
  70   0.0000       0.115685         3.1480
  71   0.0000       0.136561         3.7160

MULLIKEN ATOMIC CHARGES
-----------------------
   0 S :    0.123756
   1 C :   -0.121017
   2 C :   -0.096410
   3 C :    0.038302
   4 C :   -0.170174
   5 H :    0.013631
   6 C :    0.047455
   7 H :    0.040720
   8 H :    0.039098
   9 C :   -0.071902
  10 H :    0.040737
  11 H :    0.021941
  12 C :   -0.119227
  13 H :    0.068119
  14 H :    0.045024
  15 H :    0.036449
  16 S :    0.094233
  17 C :   -0.069905
  18 C :   -0.042252
  19 C :   -0.012823
  20 C :   -0.156406
  21 H :    0.003788
  22 C :    0.105906
  23 H :    0.013469
  24 H :    0.011098
  25 C :   -0.072652
  26 H :    0.026489
  27 H :    0.037928
  28 C :   -0.090829
  29 H :    0.057874
  30 H :    0.031125
  31 H :    0.027750
  32 H :    0.056071
  33 H :    0.042632
Sum of atomic charges:   -0.0000000

LOEWDIN ATOMIC CHARGES
----------------------
   0 S :    0.432323
   1 C :   -0.208478
   2 C :   -0.065761
   3 C :   -0.058131
   4 C :   -0.212899
   5 H :    0.029644
   6 C :   -0.036731
   7 H :    0.039657
   8 H :    0.034506
   9 C :   -0.043810
  10 H :    0.034784
  11 H :    0.012648
  12 C :   -0.080436
  13 H :    0.039327
  14 H :    0.032451
  15 H :    0.016859
  16 S :    0.408492
  17 C :   -0.184785
  18 C :   -0.068792
  19 C :   -0.055402
  20 C :   -0.191460
  21 H :    0.022687
  22 C :   -0.037279
  23 H :    0.030421
  24 H :    0.033167
  25 C :   -0.036109
  26 H :    0.022990
  27 H :    0.029792
  28 C :   -0.079739
  29 H :    0.033804
  30 H :    0.021856
  31 H :    0.029221
  32 H :    0.034145
  33 H :    0.021037

  Mayer bond orders larger than 0.100000
B(  0-S ,  1-C ) :   1.1510 B(  0-S ,  4-C ) :   1.1568 B(  1-C ,  2-C ) :   1.6070
B(  1-C , 32-H ) :   0.9621 B(  2-C ,  3-C ) :   1.2405 B(  2-C ,  6-C ) :   1.0076
B(  3-C ,  4-C ) :   1.5767 B(  3-C ,  5-H ) :   0.9944 B(  4-C , 20-C ) :   1.0368
B(  6-C ,  7-H ) :   0.9479 B(  6-C ,  8-H ) :   0.9472 B(  6-C ,  9-C ) :   1.0722
B(  9-C , 10-H ) :   0.9534 B(  9-C , 11-H ) :   0.9601 B(  9-C , 12-C ) :   1.0662
B( 12-C , 13-H ) :   0.9698 B( 12-C , 14-H ) :   0.9741 B( 12-C , 15-H ) :   0.9763
B( 16-S , 17-C ) :   1.1607 B( 16-S , 20-C ) :   1.1628 B( 17-C , 18-C ) :   1.5791
B( 17-C , 20-C ) :   0.1068 B( 17-C , 33-H ) :   0.9806 B( 18-C , 19-C ) :   1.2401
B( 18-C , 21-H ) :   0.9956 B( 19-C , 20-C ) :   1.5448 B( 19-C , 22-C ) :   1.0810
B( 22-C , 23-H ) :   0.9275 B( 22-C , 24-H ) :   0.9133 B( 22-C , 25-C ) :   1.0684
B( 25-C , 26-H ) :   0.9550 B( 25-C , 27-H ) :   0.9554 B( 25-C , 28-C ) :   1.0800
B( 28-C , 29-H ) :   0.9754 B( 28-C , 30-H ) :   0.9758 B( 28-C , 31-H ) :   0.9728

Dispersion correction           -0.014801041
FINAL SINGLE POINT ENERGY     -1339.869146654598

DIPOLE MOMENT
-------------
                                X             Y             Z
Electronic contribution:     17.85373      -6.46889     -16.86602
Nuclear contribution   :    -17.87412       6.85539      17.39912
                        -----------------------------------------
Total Dipole Moment    :     -0.02039       0.38650       0.53310
                        -----------------------------------------
Magnitude (a.u.)       :      0.65878
Magnitude (Debye)      :      1.67450

Rotational constants in cm-1:     0.020906     0.008635     0.007163
Rotational constants in MHz :   626.756688   258.880529   214.737418

                             ****ORCA TERMINATED NORMALLY****
TOTAL RUN TIME: 0 days 0 hours 0 minutes 30 seconds 785 msec
