                         Program Version 4.2.1 -  RELEASE  -
|  1> ! wB97X-D3 SP def2-SVP
|  2> %pal
|  3> nprocs 16
|  4> end
|  5>
|  6> * xyz 0 1
|  7> S 	 -80.4973 	 47.1106 	 128.392
|  8> C 	 -81.6515 	 45.7677 	 128.086
|  9> C 	 -82.7912 	 45.8907 	 128.92
| 10> C 	 -82.5951 	 47.012 	 129.777
| 11> C 	 -81.4402 	 47.7379 	 129.658
| 12> H 	 -83.287 	 47.4175 	 130.545
| 13> C 	 -84.0424 	 45.0591 	 129.059
| 14> H 	 -84.0756 	 44.7494 	 130.062
| 15> H 	 -83.9854 	 44.0409 	 128.544
| 16> C 	 -85.3132 	 45.7956 	 128.581
| 17> H 	 -86.1982 	 45.2137 	 128.875
| 18> H 	 -85.3963 	 46.7017 	 129.198
| 19> C 	 -85.3724 	 46.0387 	 127.08
| 20> H 	 -84.433 	 46.3148 	 126.48
| 21> H 	 -85.9169 	 45.2998 	 126.521
| 22> H 	 -86.0388 	 46.9219 	 126.995
| 23> S 	 -81.0108 	 50.3847 	 129.273
| 24> C 	 -80.7997 	 51.4091 	 130.697
| 25> C 	 -80.9305 	 50.7445 	 131.904
| 26> C 	 -81.2022 	 49.3579 	 131.7
| 27> C 	 -81.1693 	 49.0352 	 130.32
| 28> H 	 -80.9326 	 51.2665 	 132.84
| 29> C 	 -81.3902 	 48.3517 	 132.824
| 30> H 	 -80.9336 	 47.484 	 132.456
| 31> H 	 -82.427 	 48.0678 	 132.899
| 32> C 	 -80.7908 	 48.6684 	 134.247
| 33> H 	 -81.465 	 49.3733 	 134.788
| 34> H 	 -79.7738 	 49.0989 	 134.142
| 35> C 	 -80.8317 	 47.3627 	 135.119
| 36> H 	 -80.2482 	 47.435 	 136.09
| 37> H 	 -80.4117 	 46.4673 	 134.541
| 38> H 	 -81.7945 	 47.0821 	 135.315
| 39> H 	 -81.463 	 45.0294 	 127.339
| 40> H 	 -80.4872 	 52.4386 	 130.618
| 41> *
| 42>
| 43>                          ****END OF INPUT****

CARTESIAN COORDINATES (ANGSTROEM)
---------------------------------
  S    -80.497300   47.110600  128.392000
  C    -81.651500   45.767700  128.086000
  C    -82.791200   45.890700  128.920000
  C    -82.595100   47.012000  129.777000
  C    -81.440200   47.737900  129.658000
  H    -83.287000   47.417500  130.545000
  C    -84.042400   45.059100  129.059000
  H    -84.075600   44.749400  130.062000
  H    -83.985400   44.040900  128.544000
  C    -85.313200   45.795600  128.581000
  H    -86.198200   45.213700  128.875000
  H    -85.396300   46.701700  129.198000
  C    -85.372400   46.038700  127.080000
  H    -84.433000   46.314800  126.480000
  H    -85.916900   45.299800  126.521000
  H    -86.038800   46.921900  126.995000
  S    -81.010800   50.384700  129.273000
  C    -80.799700   51.409100  130.697000
  C    -80.930500   50.744500  131.904000
  C    -81.202200   49.357900  131.700000
  C    -81.169300   49.035200  130.320000
  H    -80.932600   51.266500  132.840000
  C    -81.390200   48.351700  132.824000
  H    -80.933600   47.484000  132.456000
  H    -82.427000   48.067800  132.899000
  C    -80.790800   48.668400  134.247000
  H    -81.465000   49.373300  134.788000
  H    -79.773800   49.098900  134.142000
  C    -80.831700   47.362700  135.119000
  H    -80.248200   47.435000  136.090000
  H    -80.411700   46.467300  134.541000
  H    -81.794500   47.082100  135.315000
  H    -81.463000   45.029400  127.339000
  H    -80.487200   52.438600  130.618000

 Total Charge           Charge          ....    0
 Multiplicity           Mult            ....    1
 Number of Electrons    NEL             ....  134
 Basis Dimension        Dim             ....  322

ORBITAL ENERGIES
----------------

  NO   OCC          E(Eh)            E(eV)
   0   2.0000     -88.968689     -2420.9611
   1   2.0000     -88.965181     -2420.8656
   2   2.0000     -10.325218      -280.9635
   3   2.0000     -10.322036      -280.8769
   4   2.0000     -10.320893      -280.8458
   5   2.0000     -10.315098      -280.6881
   6   2.0000     -10.308202      -280.5004
   7   2.0000     -10.305257      -280.4203
   8   2.0000     -10.299554      -280.2651
   9   2.0000     -10.294678      -280.1324
  10   2.0000     -10.293387      -280.0973
  11   2.0000     -10.292284      -280.0673
  12   2.0000     -10.289608      -279.9945
  13   2.0000     -10.288151      -279.9548
  14   2.0000     -10.284002      -279.8419
  15   2.0000     -10.280742      -279.7532
  16   2.0000      -8.083611      -219.9662
  17   2.0000      -8.080075      -219.8700
  18   2.0000      -6.041973      -164.4105
  19   2.0000      -6.038484      -164.3155
  20   2.0000      -6.038171      -164.3070
  21   2.0000      -6.034490      -164.2068
  22   2.0000      -6.034446      -164.2056
  23   2.0000      -6.030993      -164.1117
  24   2.0000      -1.007024       -27.4025
  25   2.0000      -0.982075       -26.7236
  26   2.0000      -0.912312       -24.8253
  27   2.0000      -0.903307       -24.5802
  28   2.0000      -0.865098       -23.5405
  29   2.0000      -0.849109       -23.1054
  30   2.0000      -0.844102       -22.9692
  31   2.0000      -0.810362       -22.0511
  32   2.0000      -0.785033       -21.3618
  33   2.0000      -0.769512       -20.9395
  34   2.0000      -0.706973       -19.2377
  35   2.0000      -0.700164       -19.0524
  36   2.0000      -0.692472       -18.8431
  37   2.0000      -0.654019       -17.7968
  38   2.0000      -0.643167       -17.5015
  39   2.0000      -0.617156       -16.7937
  40   2.0000      -0.596462       -16.2306
  41   2.0000      -0.568609       -15.4726
  42   2.0000      -0.565344       -15.3838
  43   2.0000      -0.550358       -14.9760
  44   2.0000      -0.534507       -14.5447
  45   2.0000      -0.521920       -14.2022
  46   2.0000      -0.515898       -14.0383
  47   2.0000      -0.510048       -13.8791
  48   2.0000      -0.495584       -13.4855
  49   2.0000      -0.492857       -13.4113
  50   2.0000      -0.484457       -13.1827
  51   2.0000      -0.480853       -13.0847
  52   2.0000      -0.470283       -12.7970
  53   2.0000      -0.465364       -12.6632
  54   2.0000      -0.456866       -12.4319
  55   2.0000      -0.453067       -12.3286
  56   2.0000      -0.441367       -12.0102
  57   2.0000      -0.437004       -11.8915
  58   2.0000      -0.433445       -11.7947
  59   2.0000      -0.427612       -11.6359
  60   2.0000      -0.422438       -11.4951
  61   2.0000      -0.417806       -11.3691
  62   2.0000      -0.413880       -11.2622
  63   2.0000      -0.344178        -9.3656
  64   2.0000      -0.330932        -9.0051
  65   2.0000      -0.327584        -8.9140
  66   2.0000      -0.291721        -7.9381
  67   0.0000       0.033690         0.9167
  68   0.0000       0.068896         1.8748
  69   0.0000       0.112600         3.0640
  70   0.0000       0.121518         3.3067
  71   0.0000       0.134093         3.6489

MULLIKEN ATOMIC CHARGES
-----------------------
   0 S :    0.100235
   1 C :   -0.131613
   2 C :   -0.049906
   3 C :   -0.006468
   4 C :   -0.162065
   5 H :    0.019789
   6 C :    0.068879
   7 H :    0.021602
   8 H :    0.025208
   9 C :   -0.072364
  10 H :    0.030840
  11 H :    0.033646
  12 C :   -0.069770
  13 H :    0.058897
  14 H :    0.029978
  15 H :    0.029181
  16 S :    0.125534
  17 C :   -0.094713
  18 C :   -0.030119
  19 C :   -0.046231
  20 C :   -0.160095
  21 H :    0.018941
  22 C :    0.080419
  23 H :    0.016667
  24 H :    0.028358
  25 C :   -0.094246
  26 H :    0.041535
  27 H :    0.049827
  28 C :   -0.055124
  29 H :    0.050018
  30 H :    0.034310
  31 H :    0.012529
  32 H :    0.044010
  33 H :    0.052311
Sum of atomic charges:   -0.0000000

LOEWDIN ATOMIC CHARGES
----------------------
   0 S :    0.408724
   1 C :   -0.181364
   2 C :   -0.056039
   3 C :   -0.073190
   4 C :   -0.221676
   5 H :    0.032780
   6 C :   -0.035610
   7 H :    0.026082
   8 H :    0.035384
   9 C :   -0.040401
  10 H :    0.029843
  11 H :    0.024171
  12 C :   -0.079087
  13 H :    0.038396
  14 H :    0.022316
  15 H :    0.033627
  16 S :    0.422623
  17 C :   -0.181679
  18 C :   -0.066824
  19 C :   -0.052983
  20 C :   -0.212774
  21 H :    0.032605
  22 C :   -0.032851
  23 H :    0.026552
  24 H :    0.030113
  25 C :   -0.039385
  26 H :    0.027251
  27 H :    0.028990
  28 C :   -0.066337
  29 H :    0.034889
  30 H :    0.031557
  31 H :    0.009185
  32 H :    0.021262
  33 H :    0.023847

  Mayer bond orders larger than 0.100000
B(  0-S ,  1-C ) :   1.1460 B(  0-S ,  4-C ) :   1.1579 B(  1-C ,  2-C ) :   1.5694
B(  1-C , 32-H ) :   0.9783 B(  2-C ,  3-C ) :   1.2445 B(  2-C ,  6-C ) :   1.0224
B(  3-C ,  4-C ) :   1.5869 B(  3-C ,  5-H ) :   0.9810 B(  4-C , 20-C ) :   1.0044
B(  6-C ,  7-H ) :   0.9372 B(  6-C ,  8-H ) :   0.9432 B(  6-C ,  9-C ) :   1.0740
B(  9-C , 10-H ) :   0.9507 B(  9-C , 11-H ) :   0.9642 B(  9-C , 12-C ) :   1.0627
B( 12-C , 13-H ) :   0.9764 B( 12-C , 14-H ) :   0.9760 B( 12-C , 15-H ) :   0.9715
B( 16-S , 17-C ) :   1.1549 B( 16-S , 20-C ) :   1.1705 B( 17-C , 18-C ) :   1.5998
B( 17-C , 20-C ) :   0.1007 B( 17-C , 33-H ) :   0.9648 B( 18-C , 19-C ) :   1.2592
B( 18-C , 21-H ) :   0.9914 B( 19-C , 20-C ) :   1.5810 B( 19-C , 22-C ) :   1.0316
B( 22-C , 23-H ) :   0.9320 B( 22-C , 24-H ) :   0.9212 B( 22-C , 25-C ) :   1.0674
B( 25-C , 26-H ) :   0.9508 B( 25-C , 27-H ) :   0.9610 B( 25-C , 28-C ) :   1.0725
B( 28-C , 29-H ) :   0.9750 B( 28-C , 30-H ) :   0.9766 B( 28-C , 31-H ) :   0.9759

Dispersion correction           -0.013947299
FINAL SINGLE POINT ENERGY     -1339.872709420442

DIPOLE MOMENT
-------------
                                X             Y             Z
Electronic contribution:     14.60238      11.85416     -14.11239
Nuclear contribution   :    -15.11687     -12.05852      14.54726
                        -----------------------------------------
Total Dipole Moment    :     -0.51449      -0.20435       0.43487
                        -----------------------------------------
Magnitude (a.u.)       :      0.70397
Magnitude (Debye)      :      1.78935

Rotational constants in cm-1:     0.017521     0.008305     0.006868
Rotational constants in MHz :   525.272367   248.977395   205.887671

                             ****ORCA TERMINATED NORMALLY****
TOTAL RUN TIME: 0 days 0 hours 0 minutes 33 seconds 473 msec
