                         Program Version 4.2.1 -  RELEASE  -
|  1> ! wB97X-D3 SP def2-SVP
|  2> %pal
|  3> nprocs 16
|  4> end
|  5>
|  6> * xyz 0 1
|  7> S 	 -5.08612 	 -7.84035 	 82.8252
|  8> C 	 -5.90578 	 -8.96924 	 81.7656
|  9> C 	 -6.77279 	 -8.33361 	 80.9071
| 10> C 	 -6.70647 	 -6.89614 	 81.2435
| 11> C 	 -5.83418 	 -6.43693 	 82.2086
| 12> H 	 -7.18711 	 -6.05235 	 80.6955
| 13> C 	 -7.6482 	 -8.9496 	 79.855
| 14> H 	 -8.32975 	 -8.23842 	 79.4145
| 15> H 	 -8.22117 	 -9.64559 	 80.5162
| 16> C 	 -6.9529 	 -9.73362 	 78.7043
| 17> H 	 -6.48195 	 -8.92686 	 78.0406
| 18> H 	 -6.06129 	 -10.2146 	 79.125
| 19> C 	 -7.82444 	 -10.7006 	 77.9464
| 20> H 	 -8.26144 	 -11.5354 	 78.5702
| 21> H 	 -8.63862 	 -10.1941 	 77.4749
| 22> H 	 -7.16891 	 -11.1134 	 77.152
| 23> S 	 -5.66713 	 -4.86719 	 84.4054
| 24> C 	 -5.52029 	 -3.14185 	 84.2242
| 25> C 	 -5.6097 	 -2.72422 	 82.8889
| 26> C 	 -5.44977 	 -3.8502 	 81.9867
| 27> C 	 -5.64235 	 -5.03269 	 82.663
| 28> H 	 -5.5491 	 -1.67981 	 82.6667
| 29> C 	 -5.39747 	 -3.6756 	 80.5212
| 30> H 	 -6.08325 	 -2.88362 	 80.27
| 31> H 	 -5.80336 	 -4.60484 	 80.217
| 32> C 	 -4.01613 	 -3.55092 	 79.8792
| 33> H 	 -3.53048 	 -4.4136 	 80.2427
| 34> H 	 -3.51903 	 -2.6519 	 80.3101
| 35> C 	 -4.07646 	 -3.23334 	 78.3544
| 36> H 	 -4.84459 	 -3.86083 	 77.7819
| 37> H 	 -3.17668 	 -3.42545 	 77.7727
| 38> H 	 -4.21092 	 -2.19538 	 77.9772
| 39> H 	 -5.72095 	 -10.0673 	 81.7057
| 40> H 	 -5.67625 	 -2.4985 	 85.0387
| 41> *
| 42>
| 43>                          ****END OF INPUT****

CARTESIAN COORDINATES (ANGSTROEM)
---------------------------------
  S     -5.086120   -7.840350   82.825200
  C     -5.905780   -8.969240   81.765600
  C     -6.772790   -8.333610   80.907100
  C     -6.706470   -6.896140   81.243500
  C     -5.834180   -6.436930   82.208600
  H     -7.187110   -6.052350   80.695500
  C     -7.648200   -8.949600   79.855000
  H     -8.329750   -8.238420   79.414500
  H     -8.221170   -9.645590   80.516200
  C     -6.952900   -9.733620   78.704300
  H     -6.481950   -8.926860   78.040600
  H     -6.061290  -10.214600   79.125000
  C     -7.824440  -10.700600   77.946400
  H     -8.261440  -11.535400   78.570200
  H     -8.638620  -10.194100   77.474900
  H     -7.168910  -11.113400   77.152000
  S     -5.667130   -4.867190   84.405400
  C     -5.520290   -3.141850   84.224200
  C     -5.609700   -2.724220   82.888900
  C     -5.449770   -3.850200   81.986700
  C     -5.642350   -5.032690   82.663000
  H     -5.549100   -1.679810   82.666700
  C     -5.397470   -3.675600   80.521200
  H     -6.083250   -2.883620   80.270000
  H     -5.803360   -4.604840   80.217000
  C     -4.016130   -3.550920   79.879200
  H     -3.530480   -4.413600   80.242700
  H     -3.519030   -2.651900   80.310100
  C     -4.076460   -3.233340   78.354400
  H     -4.844590   -3.860830   77.781900
  H     -3.176680   -3.425450   77.772700
  H     -4.210920   -2.195380   77.977200
  H     -5.720950  -10.067300   81.705700
  H     -5.676250   -2.498500   85.038700

 Total Charge           Charge          ....    0
 Multiplicity           Mult            ....    1
 Number of Electrons    NEL             ....  134
 Basis Dimension        Dim             ....  322

ORBITAL ENERGIES
----------------

  NO   OCC          E(Eh)            E(eV)
   0   2.0000     -88.966905     -2420.9126
   1   2.0000     -88.963295     -2420.8143
   2   2.0000     -10.331202      -281.1263
   3   2.0000     -10.327648      -281.0296
   4   2.0000     -10.316955      -280.7386
   5   2.0000     -10.315412      -280.6966
   6   2.0000     -10.307624      -280.4847
   7   2.0000     -10.304525      -280.4004
   8   2.0000     -10.297538      -280.2103
   9   2.0000     -10.297029      -280.1964
  10   2.0000     -10.295609      -280.1578
  11   2.0000     -10.295053      -280.1426
  12   2.0000     -10.290679      -280.0236
  13   2.0000     -10.288108      -279.9537
  14   2.0000     -10.285883      -279.8931
  15   2.0000     -10.281942      -279.7859
  16   2.0000      -8.082046      -219.9237
  17   2.0000      -8.078665      -219.8316
  18   2.0000      -6.040460      -164.3693
  19   2.0000      -6.037299      -164.2833
  20   2.0000      -6.036591      -164.2640
  21   2.0000      -6.032892      -164.1633
  22   2.0000      -6.032783      -164.1604
  23   2.0000      -6.029412      -164.0686
  24   2.0000      -1.009540       -27.4710
  25   2.0000      -0.986933       -26.8558
  26   2.0000      -0.914772       -24.8922
  27   2.0000      -0.913286       -24.8518
  28   2.0000      -0.870154       -23.6781
  29   2.0000      -0.851902       -23.1814
  30   2.0000      -0.844010       -22.9667
  31   2.0000      -0.812887       -22.1198
  32   2.0000      -0.784728       -21.3535
  33   2.0000      -0.776697       -21.1350
  34   2.0000      -0.711091       -19.3498
  35   2.0000      -0.702093       -19.1049
  36   2.0000      -0.691995       -18.8301
  37   2.0000      -0.669455       -18.2168
  38   2.0000      -0.638093       -17.3634
  39   2.0000      -0.610969       -16.6253
  40   2.0000      -0.591603       -16.0983
  41   2.0000      -0.578050       -15.7295
  42   2.0000      -0.571632       -15.5549
  43   2.0000      -0.553931       -15.0732
  44   2.0000      -0.526252       -14.3201
  45   2.0000      -0.523893       -14.2558
  46   2.0000      -0.515651       -14.0316
  47   2.0000      -0.514715       -14.0061
  48   2.0000      -0.506746       -13.7893
  49   2.0000      -0.499652       -13.5962
  50   2.0000      -0.498411       -13.5625
  51   2.0000      -0.479186       -13.0393
  52   2.0000      -0.470256       -12.7963
  53   2.0000      -0.467428       -12.7194
  54   2.0000      -0.458774       -12.4839
  55   2.0000      -0.452535       -12.3141
  56   2.0000      -0.443741       -12.0748
  57   2.0000      -0.437956       -11.9174
  58   2.0000      -0.429380       -11.6840
  59   2.0000      -0.428249       -11.6532
  60   2.0000      -0.419010       -11.4018
  61   2.0000      -0.414292       -11.2734
  62   2.0000      -0.408387       -11.1128
  63   2.0000      -0.347930        -9.4677
  64   2.0000      -0.332200        -9.0396
  65   2.0000      -0.323377        -8.7995
  66   2.0000      -0.295182        -8.0323
  67   0.0000       0.033687         0.9167
  68   0.0000       0.070662         1.9228
  69   0.0000       0.107111         2.9146
  70   0.0000       0.117269         3.1910
  71   0.0000       0.128777         3.5042

MULLIKEN ATOMIC CHARGES
-----------------------
   0 S :    0.108384
   1 C :   -0.149074
   2 C :   -0.077807
   3 C :   -0.002742
   4 C :   -0.153064
   5 H :    0.021502
   6 C :    0.063096
   7 H :    0.025260
   8 H :    0.042821
   9 C :   -0.105044
  10 H :    0.039771
  11 H :    0.023745
  12 C :   -0.036771
  13 H :    0.045699
  14 H :    0.029243
  15 H :    0.043469
  16 S :    0.109832
  17 C :   -0.073270
  18 C :   -0.028790
  19 C :   -0.081197
  20 C :   -0.148911
  21 H :    0.022554
  22 C :    0.102399
  23 H :    0.023002
  24 H :   -0.012114
  25 C :   -0.020972
  26 H :    0.031079
  27 H :    0.031998
  28 C :   -0.079210
  29 H :    0.031745
  30 H :    0.027346
  31 H :    0.036431
  32 H :    0.064450
  33 H :    0.045141
Sum of atomic charges:    0.0000000

LOEWDIN ATOMIC CHARGES
----------------------
   0 S :    0.416999
   1 C :   -0.206035
   2 C :   -0.063587
   3 C :   -0.079950
   4 C :   -0.223618
   5 H :    0.028191
   6 C :   -0.037480
   7 H :    0.028977
   8 H :    0.041662
   9 C :   -0.048627
  10 H :    0.034125
  11 H :    0.020752
  12 C :   -0.067398
  13 H :    0.033684
  14 H :    0.021648
  15 H :    0.035438
  16 S :    0.411861
  17 C :   -0.177558
  18 C :   -0.060000
  19 C :   -0.052052
  20 C :   -0.190695
  21 H :    0.029271
  22 C :   -0.031508
  23 H :    0.030052
  24 H :    0.023540
  25 C :   -0.029732
  26 H :    0.025222
  27 H :    0.029490
  28 C :   -0.085714
  29 H :    0.029240
  30 H :    0.027142
  31 H :    0.032030
  32 H :    0.038255
  33 H :    0.016379

  Mayer bond orders larger than 0.100000
B(  0-S ,  1-C ) :   1.1468 B(  0-S ,  4-C ) :   1.1458 B(  1-C ,  2-C ) :   1.6030
B(  1-C , 32-H ) :   0.9608 B(  2-C ,  3-C ) :   1.2384 B(  2-C ,  6-C ) :   1.0127
B(  3-C ,  4-C ) :   1.5932 B(  3-C ,  5-H ) :   0.9763 B(  4-C , 20-C ) :   1.0060
B(  6-C ,  7-H ) :   0.9437 B(  6-C ,  8-H ) :   0.9396 B(  6-C ,  9-C ) :   1.0531
B(  9-C , 10-H ) :   0.9507 B(  9-C , 11-H ) :   0.9606 B(  9-C , 12-C ) :   1.0803
B( 12-C , 13-H ) :   0.9733 B( 12-C , 14-H ) :   0.9739 B( 12-C , 15-H ) :   0.9712
B( 16-S , 17-C ) :   1.1567 B( 16-S , 20-C ) :   1.1467 B( 17-C , 18-C ) :   1.6334
B( 17-C , 33-H ) :   0.9690 B( 18-C , 19-C ) :   1.2061 B( 18-C , 21-H ) :   0.9856
B( 19-C , 20-C ) :   1.6186 B( 19-C , 22-C ) :   1.0476 B( 22-C , 23-H ) :   0.9339
B( 22-C , 24-H ) :   0.9150 B( 22-C , 25-C ) :   1.0567 B( 25-C , 26-H ) :   0.9570
B( 25-C , 27-H ) :   0.9610 B( 25-C , 28-C ) :   1.0581 B( 28-C , 29-H ) :   0.9762
B( 28-C , 30-H ) :   0.9742 B( 28-C , 31-H ) :   0.9758

Dispersion correction           -0.013373070
FINAL SINGLE POINT ENERGY     -1339.858118470735

DIPOLE MOMENT
-------------
                                X             Y             Z
Electronic contribution:      3.40940       2.98842      30.09377
Nuclear contribution   :     -3.64603      -2.86176     -30.77824
                        -----------------------------------------
Total Dipole Moment    :     -0.23662       0.12665      -0.68447
                        -----------------------------------------
Magnitude (a.u.)       :      0.73521
Magnitude (Debye)      :      1.86875

Rotational constants in cm-1:     0.018366     0.007908     0.006048
Rotational constants in MHz :   550.609198   237.079017   181.325093

                             ****ORCA TERMINATED NORMALLY****
TOTAL RUN TIME: 0 days 0 hours 0 minutes 32 seconds 134 msec
