                         Program Version 4.2.1 -  RELEASE  -
|  1> ! wB97X-D3 SP def2-SVP
|  2> %pal
|  3> nprocs 16
|  4> end
|  5>
|  6> * xyz 0 1
|  7> S 	 18.2249 	 12.3207 	 89.5977
|  8> C 	 19.1324 	 11.7752 	 88.2622
|  9> C 	 18.3938 	 10.9098 	 87.4764
| 10> C 	 17.0894 	 10.681 	 88.0355
| 11> C 	 16.7545 	 11.5006 	 89.1067
| 12> H 	 16.3738 	 10.0695 	 87.6256
| 13> C 	 18.8689 	 10.1975 	 86.3109
| 14> H 	 18.1447 	 9.42845 	 86.2057
| 15> H 	 19.834 	 9.66443 	 86.4501
| 16> C 	 18.897 	 10.9865 	 85.0175
| 17> H 	 19.5946 	 11.8684 	 85.1188
| 18> H 	 19.3825 	 10.3592 	 84.2618
| 19> C 	 17.4977 	 11.5123 	 84.5527
| 20> H 	 17.6469 	 12.2651 	 83.773
| 21> H 	 16.9344 	 10.6515 	 84.1116
| 22> H 	 16.8963 	 12.0733 	 85.3254
| 23> S 	 14.7885 	 13.1278 	 90.0809
| 24> C 	 13.4993 	 12.5765 	 91.0897
| 25> C 	 13.5865 	 11.213 	 91.235
| 26> C 	 14.648 	 10.6235 	 90.5317
| 27> C 	 15.5263 	 11.5306 	 89.8827
| 28> H 	 12.9142 	 10.7588 	 91.9757
| 29> C 	 14.8507 	 9.12432 	 90.4432
| 30> H 	 15.462 	 8.87962 	 89.6141
| 31> H 	 13.8875 	 8.63383 	 90.2858
| 32> C 	 15.4862 	 8.65372 	 91.7715
| 33> H 	 16.4474 	 9.1329 	 91.9623
| 34> H 	 15.7067 	 7.62811 	 91.7159
| 35> C 	 14.6352 	 8.72677 	 92.9732
| 36> H 	 15.0795 	 8.16574 	 93.8181
| 37> H 	 13.6234 	 8.32751 	 92.733
| 38> H 	 14.4731 	 9.81981 	 93.3069
| 39> H 	 20.0804 	 12.2129 	 87.9825
| 40> H 	 12.6941 	 13.2131 	 91.3738
| 41> *
| 42>
| 43>                          ****END OF INPUT****

CARTESIAN COORDINATES (ANGSTROEM)
---------------------------------
  S     18.224900   12.320700   89.597700
  C     19.132400   11.775200   88.262200
  C     18.393800   10.909800   87.476400
  C     17.089400   10.681000   88.035500
  C     16.754500   11.500600   89.106700
  H     16.373800   10.069500   87.625600
  C     18.868900   10.197500   86.310900
  H     18.144700    9.428450   86.205700
  H     19.834000    9.664430   86.450100
  C     18.897000   10.986500   85.017500
  H     19.594600   11.868400   85.118800
  H     19.382500   10.359200   84.261800
  C     17.497700   11.512300   84.552700
  H     17.646900   12.265100   83.773000
  H     16.934400   10.651500   84.111600
  H     16.896300   12.073300   85.325400
  S     14.788500   13.127800   90.080900
  C     13.499300   12.576500   91.089700
  C     13.586500   11.213000   91.235000
  C     14.648000   10.623500   90.531700
  C     15.526300   11.530600   89.882700
  H     12.914200   10.758800   91.975700
  C     14.850700    9.124320   90.443200
  H     15.462000    8.879620   89.614100
  H     13.887500    8.633830   90.285800
  C     15.486200    8.653720   91.771500
  H     16.447400    9.132900   91.962300
  H     15.706700    7.628110   91.715900
  C     14.635200    8.726770   92.973200
  H     15.079500    8.165740   93.818100
  H     13.623400    8.327510   92.733000
  H     14.473100    9.819810   93.306900
  H     20.080400   12.212900   87.982500
  H     12.694100   13.213100   91.373800

 Total Charge           Charge          ....    0
 Multiplicity           Mult            ....    1
 Number of Electrons    NEL             ....  134
 Basis Dimension        Dim             ....  322

ORBITAL ENERGIES
----------------

  NO   OCC          E(Eh)            E(eV)
   0   2.0000     -88.964551     -2420.8485
   1   2.0000     -88.960111     -2420.7277
   2   2.0000     -10.331463      -281.1334
   3   2.0000     -10.330408      -281.1047
   4   2.0000     -10.314907      -280.6829
   5   2.0000     -10.310113      -280.5524
   6   2.0000     -10.306972      -280.4670
   7   2.0000     -10.295734      -280.1612
   8   2.0000     -10.293030      -280.0876
   9   2.0000     -10.291850      -280.0555
  10   2.0000     -10.289944      -280.0036
  11   2.0000     -10.287930      -279.9488
  12   2.0000     -10.284768      -279.8628
  13   2.0000     -10.283308      -279.8231
  14   2.0000     -10.280870      -279.7567
  15   2.0000     -10.274513      -279.5837
  16   2.0000      -8.080020      -219.8685
  17   2.0000      -8.075207      -219.7376
  18   2.0000      -6.038540      -164.3170
  19   2.0000      -6.034187      -164.1986
  20   2.0000      -6.033522      -164.1805
  21   2.0000      -6.030943      -164.1103
  22   2.0000      -6.029426      -164.0690
  23   2.0000      -6.026367      -163.9858
  24   2.0000      -1.008718       -27.4486
  25   2.0000      -0.989438       -26.9240
  26   2.0000      -0.918088       -24.9824
  27   2.0000      -0.914442       -24.8832
  28   2.0000      -0.871886       -23.7252
  29   2.0000      -0.849183       -23.1074
  30   2.0000      -0.844326       -22.9753
  31   2.0000      -0.817505       -22.2454
  32   2.0000      -0.783556       -21.3216
  33   2.0000      -0.771582       -20.9958
  34   2.0000      -0.706840       -19.2341
  35   2.0000      -0.702560       -19.1176
  36   2.0000      -0.688315       -18.7300
  37   2.0000      -0.663001       -18.0412
  38   2.0000      -0.646966       -17.6049
  39   2.0000      -0.616078       -16.7643
  40   2.0000      -0.598412       -16.2836
  41   2.0000      -0.578664       -15.7462
  42   2.0000      -0.560179       -15.2432
  43   2.0000      -0.549712       -14.9584
  44   2.0000      -0.546107       -14.8603
  45   2.0000      -0.539831       -14.6896
  46   2.0000      -0.518682       -14.1140
  47   2.0000      -0.513537       -13.9741
  48   2.0000      -0.510018       -13.8783
  49   2.0000      -0.496244       -13.5035
  50   2.0000      -0.486575       -13.2404
  51   2.0000      -0.484656       -13.1882
  52   2.0000      -0.470603       -12.8058
  53   2.0000      -0.466823       -12.7029
  54   2.0000      -0.464726       -12.6458
  55   2.0000      -0.441946       -12.0259
  56   2.0000      -0.437249       -11.8982
  57   2.0000      -0.435791       -11.8585
  58   2.0000      -0.429314       -11.6822
  59   2.0000      -0.428002       -11.6465
  60   2.0000      -0.419585       -11.4175
  61   2.0000      -0.409612       -11.1461
  62   2.0000      -0.405536       -11.0352
  63   2.0000      -0.345316        -9.3965
  64   2.0000      -0.328071        -8.9273
  65   2.0000      -0.327339        -8.9073
  66   2.0000      -0.293992        -7.9999
  67   0.0000       0.028765         0.7827
  68   0.0000       0.066369         1.8060
  69   0.0000       0.112392         3.0583
  70   0.0000       0.118874         3.2347
  71   0.0000       0.137326         3.7368

MULLIKEN ATOMIC CHARGES
-----------------------
   0 S :    0.121911
   1 C :   -0.111863
   2 C :   -0.108383
   3 C :    0.053497
   4 C :   -0.134939
   5 H :   -0.016724
   6 C :    0.096000
   7 H :   -0.003005
   8 H :    0.038962
   9 C :   -0.081300
  10 H :    0.027265
  11 H :    0.029981
  12 C :   -0.088364
  13 H :    0.033903
  14 H :    0.041775
  15 H :    0.061048
  16 S :    0.091646
  17 C :   -0.083989
  18 C :   -0.060860
  19 C :   -0.035051
  20 C :   -0.180516
  21 H :    0.033448
  22 C :    0.114367
  23 H :    0.003469
  24 H :    0.026814
  25 C :   -0.044234
  26 H :    0.031581
  27 H :    0.010077
  28 C :   -0.090979
  29 H :    0.044270
  30 H :    0.025125
  31 H :    0.046893
  32 H :    0.051776
  33 H :    0.056400
Sum of atomic charges:    0.0000000

LOEWDIN ATOMIC CHARGES
----------------------
   0 S :    0.431025
   1 C :   -0.205047
   2 C :   -0.067541
   3 C :   -0.051721
   4 C :   -0.202450
   5 H :    0.014269
   6 C :   -0.041078
   7 H :    0.025495
   8 H :    0.038283
   9 C :   -0.040852
  10 H :    0.023404
  11 H :    0.024756
  12 C :   -0.076354
  13 H :    0.026713
  14 H :    0.029123
  15 H :    0.036066
  16 S :    0.411957
  17 C :   -0.183585
  18 C :   -0.085241
  19 C :   -0.048372
  20 C :   -0.201415
  21 H :    0.038043
  22 C :   -0.021180
  23 H :    0.023389
  24 H :    0.031333
  25 C :   -0.041761
  26 H :    0.028853
  27 H :    0.016864
  28 C :   -0.072130
  29 H :    0.030657
  30 H :    0.022294
  31 H :    0.029587
  32 H :    0.029381
  33 H :    0.027236

  Mayer bond orders larger than 0.100000
B(  0-S ,  1-C ) :   1.1637 B(  0-S ,  4-C ) :   1.1637 B(  1-C ,  2-C ) :   1.5690
B(  1-C ,  4-C ) :   0.1017 B(  1-C , 32-H ) :   0.9684 B(  2-C ,  3-C ) :   1.2644
B(  2-C ,  6-C ) :   1.0320 B(  3-C ,  4-C ) :   1.5455 B(  3-C ,  5-H ) :   1.0034
B(  4-C , 20-C ) :   1.0384 B(  6-C ,  7-H ) :   0.9306 B(  6-C ,  8-H ) :   0.9359
B(  6-C ,  9-C ) :   1.0715 B(  9-C , 10-H ) :   0.9598 B(  9-C , 11-H ) :   0.9552
B(  9-C , 12-C ) :   1.0661 B( 12-C , 13-H ) :   0.9747 B( 12-C , 14-H ) :   0.9756
B( 12-C , 15-H ) :   0.9733 B( 16-S , 17-C ) :   1.1868 B( 16-S , 20-C ) :   1.1546
B( 17-C , 18-C ) :   1.5591 B( 17-C , 20-C ) :   0.1155 B( 17-C , 33-H ) :   0.9711
B( 18-C , 19-C ) :   1.2764 B( 18-C , 21-H ) :   0.9869 B( 19-C , 20-C ) :   1.5484
B( 19-C , 22-C ) :   1.0387 B( 22-C , 23-H ) :   0.9307 B( 22-C , 24-H ) :   0.9365
B( 22-C , 25-C ) :   1.0784 B( 25-C , 26-H ) :   0.9474 B( 25-C , 27-H ) :   0.9504
B( 25-C , 28-C ) :   1.0977 B( 28-C , 29-H ) :   0.9688 B( 28-C , 30-H ) :   0.9685
B( 28-C , 31-H ) :   0.9636

Dispersion correction           -0.014662141
FINAL SINGLE POINT ENERGY     -1339.878716655205

DIPOLE MOMENT
-------------
                                X             Y             Z
Electronic contribution:     -0.16131      16.70313       7.78043
Nuclear contribution   :      0.10527     -17.23429      -8.01636
                        -----------------------------------------
Total Dipole Moment    :     -0.05604      -0.53116      -0.23594
                        -----------------------------------------
Magnitude (a.u.)       :      0.58390
Magnitude (Debye)      :      1.48416

Rotational constants in cm-1:     0.022431     0.007760     0.007075
Rotational constants in MHz :   672.477462   232.637509   212.107834

                             ****ORCA TERMINATED NORMALLY****
TOTAL RUN TIME: 0 days 0 hours 0 minutes 35 seconds 908 msec
