                         Program Version 4.2.1 -  RELEASE  -
|  1> ! wB97X-D3 SP def2-SVP
|  2> %pal
|  3> nprocs 16
|  4> end
|  5>
|  6> * xyz 0 1
|  7> S 	 56.0291 	 6.35702 	 80.0793
|  8> C 	 56.0806 	 4.87698 	 79.0491
|  9> C 	 55.269 	 3.91855 	 79.6825
| 10> C 	 54.4958 	 4.34764 	 80.7518
| 11> C 	 54.6608 	 5.70293 	 80.9848
| 12> H 	 53.7244 	 3.87221 	 81.3295
| 13> C 	 55.3004 	 2.45812 	 79.2525
| 14> H 	 56.0119 	 2.26393 	 78.4722
| 15> H 	 54.3903 	 2.25147 	 78.7602
| 16> C 	 55.4228 	 1.46813 	 80.4223
| 17> H 	 56.0451 	 0.702115 	 79.987
| 18> H 	 56.1296 	 1.8734 	 81.0735
| 19> C 	 54.1679 	 0.906303 	 81.0427
| 20> H 	 53.6946 	 0.205354 	 80.346
| 21> H 	 54.4457 	 0.318618 	 81.9031
| 22> H 	 53.3383 	 1.65264 	 81.1988
| 23> S 	 55.0465 	 7.50535 	 82.7861
| 24> C 	 53.6923 	 8.15983 	 83.7954
| 25> C 	 52.4817 	 7.68707 	 83.3649
| 26> C 	 52.6931 	 6.63238 	 82.3832
| 27> C 	 53.9651 	 6.51796 	 81.9404
| 28> H 	 51.6163 	 8.14329 	 83.7207
| 29> C 	 51.5275 	 6.12734 	 81.5363
| 30> H 	 51.8434 	 5.76598 	 80.5668
| 31> H 	 51.0537 	 7.10876 	 81.4419
| 32> C 	 50.7395 	 5.00821 	 82.3177
| 33> H 	 50.3947 	 5.28609 	 83.3543
| 34> H 	 51.3531 	 4.11412 	 82.4532
| 35> C 	 49.5051 	 4.54877 	 81.5144
| 36> H 	 49.6421 	 3.8282 	 80.7023
| 37> H 	 48.7226 	 5.28605 	 81.336
| 38> H 	 48.9994 	 3.98351 	 82.2252
| 39> H 	 56.7998 	 4.70786 	 78.2799
| 40> H 	 53.7399 	 9.13279 	 84.1833
| 41> *
| 42>
| 43>                          ****END OF INPUT****

CARTESIAN COORDINATES (ANGSTROEM)
---------------------------------
  S     56.029100    6.357020   80.079300
  C     56.080600    4.876980   79.049100
  C     55.269000    3.918550   79.682500
  C     54.495800    4.347640   80.751800
  C     54.660800    5.702930   80.984800
  H     53.724400    3.872210   81.329500
  C     55.300400    2.458120   79.252500
  H     56.011900    2.263930   78.472200
  H     54.390300    2.251470   78.760200
  C     55.422800    1.468130   80.422300
  H     56.045100    0.702115   79.987000
  H     56.129600    1.873400   81.073500
  C     54.167900    0.906303   81.042700
  H     53.694600    0.205354   80.346000
  H     54.445700    0.318618   81.903100
  H     53.338300    1.652640   81.198800
  S     55.046500    7.505350   82.786100
  C     53.692300    8.159830   83.795400
  C     52.481700    7.687070   83.364900
  C     52.693100    6.632380   82.383200
  C     53.965100    6.517960   81.940400
  H     51.616300    8.143290   83.720700
  C     51.527500    6.127340   81.536300
  H     51.843400    5.765980   80.566800
  H     51.053700    7.108760   81.441900
  C     50.739500    5.008210   82.317700
  H     50.394700    5.286090   83.354300
  H     51.353100    4.114120   82.453200
  C     49.505100    4.548770   81.514400
  H     49.642100    3.828200   80.702300
  H     48.722600    5.286050   81.336000
  H     48.999400    3.983510   82.225200
  H     56.799800    4.707860   78.279900
  H     53.739900    9.132790   84.183300

 Total Charge           Charge          ....    0
 Multiplicity           Mult            ....    1
 Number of Electrons    NEL             ....  134
 Basis Dimension        Dim             ....  322

ORBITAL ENERGIES
----------------

  NO   OCC          E(Eh)            E(eV)
   0   2.0000     -88.965803     -2420.8826
   1   2.0000     -88.957300     -2420.6512
   2   2.0000     -10.329999      -281.0936
   3   2.0000     -10.316955      -280.7386
   4   2.0000     -10.316911      -280.7374
   5   2.0000     -10.311039      -280.5776
   6   2.0000     -10.302725      -280.3514
   7   2.0000     -10.299129      -280.2536
   8   2.0000     -10.296960      -280.1945
   9   2.0000     -10.296614      -280.1851
  10   2.0000     -10.291259      -280.0394
  11   2.0000     -10.290986      -280.0320
  12   2.0000     -10.284844      -279.8648
  13   2.0000     -10.283267      -279.8219
  14   2.0000     -10.277976      -279.6780
  15   2.0000     -10.270363      -279.4708
  16   2.0000      -8.079453      -219.8531
  17   2.0000      -8.073040      -219.6786
  18   2.0000      -6.038043      -164.3035
  19   2.0000      -6.034209      -164.1992
  20   2.0000      -6.031624      -164.1288
  21   2.0000      -6.030084      -164.0869
  22   2.0000      -6.027519      -164.0171
  23   2.0000      -6.023521      -163.9083
  24   2.0000      -1.013113       -27.5682
  25   2.0000      -0.982204       -26.7271
  26   2.0000      -0.915376       -24.9086
  27   2.0000      -0.902670       -24.5629
  28   2.0000      -0.877245       -23.8711
  29   2.0000      -0.852920       -23.2091
  30   2.0000      -0.844169       -22.9710
  31   2.0000      -0.824047       -22.4235
  32   2.0000      -0.783298       -21.3146
  33   2.0000      -0.769564       -20.9409
  34   2.0000      -0.712640       -19.3919
  35   2.0000      -0.703325       -19.1384
  36   2.0000      -0.696859       -18.9625
  37   2.0000      -0.673196       -18.3186
  38   2.0000      -0.646356       -17.5882
  39   2.0000      -0.623728       -16.9725
  40   2.0000      -0.589482       -16.0406
  41   2.0000      -0.572402       -15.5759
  42   2.0000      -0.560454       -15.2507
  43   2.0000      -0.548711       -14.9312
  44   2.0000      -0.533083       -14.5059
  45   2.0000      -0.525155       -14.2902
  46   2.0000      -0.522925       -14.2295
  47   2.0000      -0.517081       -14.0705
  48   2.0000      -0.509929       -13.8759
  49   2.0000      -0.505508       -13.7556
  50   2.0000      -0.494488       -13.4557
  51   2.0000      -0.491891       -13.3850
  52   2.0000      -0.470868       -12.8130
  53   2.0000      -0.463151       -12.6030
  54   2.0000      -0.457564       -12.4510
  55   2.0000      -0.449652       -12.2357
  56   2.0000      -0.443653       -12.0724
  57   2.0000      -0.438407       -11.9297
  58   2.0000      -0.433767       -11.8034
  59   2.0000      -0.430219       -11.7069
  60   2.0000      -0.423342       -11.5197
  61   2.0000      -0.404663       -11.0114
  62   2.0000      -0.397322       -10.8117
  63   2.0000      -0.353051        -9.6070
  64   2.0000      -0.333924        -9.0865
  65   2.0000      -0.321672        -8.7531
  66   2.0000      -0.288051        -7.8383
  67   0.0000       0.020303         0.5525
  68   0.0000       0.066674         1.8143
  69   0.0000       0.102117         2.7787
  70   0.0000       0.116919         3.1815
  71   0.0000       0.121067         3.2944

MULLIKEN ATOMIC CHARGES
-----------------------
   0 S :    0.090783
   1 C :   -0.108807
   2 C :   -0.076704
   3 C :    0.048524
   4 C :   -0.134079
   5 H :   -0.004971
   6 C :    0.089158
   7 H :    0.004589
   8 H :    0.012260
   9 C :   -0.060780
  10 H :    0.014548
  11 H :    0.016249
  12 C :   -0.032472
  13 H :    0.025030
  14 H :    0.043450
  15 H :    0.038410
  16 S :    0.062994
  17 C :   -0.061239
  18 C :   -0.028671
  19 C :   -0.050785
  20 C :   -0.116308
  21 H :    0.010539
  22 C :    0.039732
  23 H :    0.034614
  24 H :    0.038019
  25 C :   -0.113038
  26 H :    0.038663
  27 H :    0.031221
  28 C :   -0.008529
  29 H :    0.038369
  30 H :    0.027842
  31 H :   -0.003522
  32 H :    0.044097
  33 H :    0.050812
Sum of atomic charges:    0.0000000

LOEWDIN ATOMIC CHARGES
----------------------
   0 S :    0.373709
   1 C :   -0.185708
   2 C :   -0.052744
   3 C :   -0.065954
   4 C :   -0.174849
   5 H :    0.031905
   6 C :   -0.026323
   7 H :    0.025766
   8 H :    0.024490
   9 C :   -0.044851
  10 H :    0.029520
  11 H :    0.018044
  12 C :   -0.065289
  13 H :    0.027431
  14 H :    0.031234
  15 H :    0.028060
  16 S :    0.391904
  17 C :   -0.167253
  18 C :   -0.045751
  19 C :   -0.068471
  20 C :   -0.206462
  21 H :    0.026111
  22 C :   -0.026241
  23 H :    0.027989
  24 H :    0.036746
  25 C :   -0.037572
  26 H :    0.030082
  27 H :    0.024305
  28 C :   -0.076826
  29 H :    0.027716
  30 H :    0.027168
  31 H :    0.019391
  32 H :    0.023772
  33 H :    0.018954

  Mayer bond orders larger than 0.100000
B(  0-S ,  1-C ) :   1.1093 B(  0-S ,  4-C ) :   1.1532 B(  1-C ,  2-C ) :   1.5896
B(  1-C ,  4-C ) :   0.1122 B(  1-C , 32-H ) :   0.9773 B(  2-C ,  3-C ) :   1.2297
B(  2-C ,  6-C ) :   1.0327 B(  3-C ,  4-C ) :   1.5605 B(  3-C ,  5-H ) :   0.9993
B(  4-C , 20-C ) :   1.0401 B(  6-C ,  7-H ) :   0.9420 B(  6-C ,  8-H ) :   0.9327
B(  6-C ,  9-C ) :   1.0594 B(  9-C , 10-H ) :   0.9489 B(  9-C , 11-H ) :   0.9622
B(  9-C , 12-C ) :   1.0704 B( 12-C , 13-H ) :   0.9678 B( 12-C , 14-H ) :   0.9706
B( 12-C , 15-H ) :   0.9761 B( 16-S , 17-C ) :   1.1220 B( 16-S , 20-C ) :   1.1309
B( 17-C , 18-C ) :   1.6763 B( 17-C , 33-H ) :   0.9591 B( 18-C , 19-C ) :   1.1805
B( 18-C , 21-H ) :   0.9935 B( 19-C , 20-C ) :   1.6376 B( 19-C , 22-C ) :   1.0223
B( 22-C , 23-H ) :   0.9525 B( 22-C , 24-H ) :   0.9504 B( 22-C , 25-C ) :   1.0402
B( 25-C , 26-H ) :   0.9635 B( 25-C , 27-H ) :   0.9543 B( 25-C , 28-C ) :   1.0830
B( 28-C , 29-H ) :   0.9735 B( 28-C , 30-H ) :   0.9709 B( 28-C , 31-H ) :   0.9644

Dispersion correction           -0.014394730
FINAL SINGLE POINT ENERGY     -1339.830758184650

DIPOLE MOMENT
-------------
                                X             Y             Z
Electronic contribution:     18.79742      23.58794       2.10369
Nuclear contribution   :    -19.33043     -24.08659      -2.24715
                        -----------------------------------------
Total Dipole Moment    :     -0.53301      -0.49865      -0.14346
                        -----------------------------------------
Magnitude (a.u.)       :      0.74386
Magnitude (Debye)      :      1.89075

Rotational constants in cm-1:     0.015768     0.010501     0.007198
Rotational constants in MHz :   472.699026   314.801127   215.779716

                             ****ORCA TERMINATED NORMALLY****
TOTAL RUN TIME: 0 days 0 hours 0 minutes 29 seconds 96 msec
