                         Program Version 4.2.1 -  RELEASE  -
|  1> ! wB97X-D3 SP def2-SVP
|  2> %pal
|  3> nprocs 16
|  4> end
|  5>
|  6> * xyz 0 1
|  7> S 	 46.5342 	 5.91318 	 86.166
|  8> C 	 47.3874 	 7.27181 	 86.8611
|  9> C 	 48.2122 	 6.91319 	 87.9107
| 10> C 	 48.1187 	 5.50946 	 88.1427
| 11> C 	 47.256 	 4.85235 	 87.3526
| 12> H 	 48.6771 	 4.92854 	 88.8011
| 13> C 	 49.0089 	 7.83379 	 88.8307
| 14> H 	 49.2375 	 7.34922 	 89.7675
| 15> H 	 48.3903 	 8.67485 	 88.9803
| 16> C 	 50.3838 	 8.15297 	 88.1904
| 17> H 	 51.1022 	 8.16533 	 88.9531
| 18> H 	 50.5288 	 7.2858 	 87.5565
| 19> C 	 50.4897 	 9.35224 	 87.2599
| 20> H 	 50.1335 	 10.197 	 87.8936
| 21> H 	 51.4612 	 9.40717 	 86.7853
| 22> H 	 49.7975 	 9.35819 	 86.4191
| 23> S 	 46.2518 	 2.86659 	 88.9096
| 24> C 	 46.1322 	 1.25821 	 88.3116
| 25> C 	 46.4156 	 1.22152 	 86.9181
| 26> C 	 46.8544 	 2.45817 	 86.3578
| 27> C 	 46.8529 	 3.46321 	 87.3568
| 28> H 	 46.4295 	 0.218269 	 86.3609
| 29> C 	 47.1829 	 2.57297 	 84.9105
| 30> H 	 47.8826 	 1.77879 	 84.6479
| 31> H 	 47.768 	 3.48875 	 84.8076
| 32> C 	 45.8606 	 2.64447 	 84.0417
| 33> H 	 45.3105 	 3.5718 	 84.2739
| 34> H 	 45.1668 	 1.74919 	 84.2762
| 35> C 	 46.0656 	 2.63763 	 82.5278
| 36> H 	 46.5766 	 1.81105 	 82.1961
| 37> H 	 46.7416 	 3.4468 	 82.2455
| 38> H 	 45.1748 	 2.70022 	 81.8892
| 39> H 	 47.3117 	 8.27075 	 86.4352
| 40> H 	 45.8764 	 0.407703 	 88.8767
| 41> *
| 42>
| 43>                          ****END OF INPUT****

CARTESIAN COORDINATES (ANGSTROEM)
---------------------------------
  S     46.534200    5.913180   86.166000
  C     47.387400    7.271810   86.861100
  C     48.212200    6.913190   87.910700
  C     48.118700    5.509460   88.142700
  C     47.256000    4.852350   87.352600
  H     48.677100    4.928540   88.801100
  C     49.008900    7.833790   88.830700
  H     49.237500    7.349220   89.767500
  H     48.390300    8.674850   88.980300
  C     50.383800    8.152970   88.190400
  H     51.102200    8.165330   88.953100
  H     50.528800    7.285800   87.556500
  C     50.489700    9.352240   87.259900
  H     50.133500   10.197000   87.893600
  H     51.461200    9.407170   86.785300
  H     49.797500    9.358190   86.419100
  S     46.251800    2.866590   88.909600
  C     46.132200    1.258210   88.311600
  C     46.415600    1.221520   86.918100
  C     46.854400    2.458170   86.357800
  C     46.852900    3.463210   87.356800
  H     46.429500    0.218269   86.360900
  C     47.182900    2.572970   84.910500
  H     47.882600    1.778790   84.647900
  H     47.768000    3.488750   84.807600
  C     45.860600    2.644470   84.041700
  H     45.310500    3.571800   84.273900
  H     45.166800    1.749190   84.276200
  C     46.065600    2.637630   82.527800
  H     46.576600    1.811050   82.196100
  H     46.741600    3.446800   82.245500
  H     45.174800    2.700220   81.889200
  H     47.311700    8.270750   86.435200
  H     45.876400    0.407703   88.876700

 Total Charge           Charge          ....    0
 Multiplicity           Mult            ....    1
 Number of Electrons    NEL             ....  134
 Basis Dimension        Dim             ....  322

ORBITAL ENERGIES
----------------

  NO   OCC          E(Eh)            E(eV)
   0   2.0000     -88.968109     -2420.9453
   1   2.0000     -88.963722     -2420.8260
   2   2.0000     -10.327587      -281.0279
   3   2.0000     -10.321586      -280.8646
   4   2.0000     -10.314858      -280.6816
   5   2.0000     -10.313450      -280.6432
   6   2.0000     -10.305483      -280.4264
   7   2.0000     -10.301134      -280.3081
   8   2.0000     -10.300155      -280.2815
   9   2.0000     -10.296647      -280.1860
  10   2.0000     -10.294923      -280.1391
  11   2.0000     -10.289178      -279.9828
  12   2.0000     -10.284180      -279.8468
  13   2.0000     -10.279386      -279.7163
  14   2.0000     -10.278839      -279.7014
  15   2.0000     -10.268493      -279.4199
  16   2.0000      -8.082623      -219.9393
  17   2.0000      -8.078562      -219.8288
  18   2.0000      -6.041008      -164.3842
  19   2.0000      -6.037051      -164.2765
  20   2.0000      -6.037036      -164.2761
  21   2.0000      -6.033645      -164.1838
  22   2.0000      -6.033095      -164.1689
  23   2.0000      -6.029340      -164.0667
  24   2.0000      -1.008011       -27.4294
  25   2.0000      -0.982564       -26.7369
  26   2.0000      -0.914187       -24.8763
  27   2.0000      -0.905756       -24.6469
  28   2.0000      -0.866596       -23.5813
  29   2.0000      -0.853713       -23.2307
  30   2.0000      -0.848824       -23.0977
  31   2.0000      -0.809977       -22.0406
  32   2.0000      -0.786897       -21.4126
  33   2.0000      -0.772929       -21.0325
  34   2.0000      -0.705147       -19.1880
  35   2.0000      -0.699096       -19.0234
  36   2.0000      -0.691933       -18.8284
  37   2.0000      -0.664427       -18.0800
  38   2.0000      -0.643865       -17.5204
  39   2.0000      -0.618016       -16.8171
  40   2.0000      -0.595004       -16.1909
  41   2.0000      -0.573964       -15.6184
  42   2.0000      -0.556257       -15.1365
  43   2.0000      -0.548311       -14.9203
  44   2.0000      -0.540559       -14.7094
  45   2.0000      -0.527243       -14.3470
  46   2.0000      -0.524731       -14.2787
  47   2.0000      -0.514935       -14.0121
  48   2.0000      -0.511041       -13.9061
  49   2.0000      -0.498200       -13.5567
  50   2.0000      -0.483584       -13.1590
  51   2.0000      -0.480260       -13.0685
  52   2.0000      -0.471329       -12.8255
  53   2.0000      -0.458864       -12.4863
  54   2.0000      -0.454336       -12.3631
  55   2.0000      -0.449497       -12.2314
  56   2.0000      -0.446569       -12.1518
  57   2.0000      -0.435162       -11.8414
  58   2.0000      -0.434583       -11.8256
  59   2.0000      -0.429271       -11.6811
  60   2.0000      -0.424455       -11.5500
  61   2.0000      -0.415654       -11.3105
  62   2.0000      -0.409091       -11.1319
  63   2.0000      -0.342585        -9.3222
  64   2.0000      -0.331643        -9.0245
  65   2.0000      -0.328263        -8.9325
  66   2.0000      -0.292135        -7.9494
  67   0.0000       0.032351         0.8803
  68   0.0000       0.072146         1.9632
  69   0.0000       0.109023         2.9667
  70   0.0000       0.114310         3.1105
  71   0.0000       0.123869         3.3706

MULLIKEN ATOMIC CHARGES
-----------------------
   0 S :    0.104015
   1 C :   -0.134186
   2 C :   -0.100626
   3 C :    0.043255
   4 C :   -0.154933
   5 H :   -0.019555
   6 C :    0.109371
   7 H :    0.020541
   8 H :    0.020787
   9 C :   -0.060004
  10 H :    0.018717
  11 H :    0.027542
  12 C :   -0.040878
  13 H :    0.031066
  14 H :    0.044421
  15 H :    0.017555
  16 S :    0.127746
  17 C :   -0.086784
  18 C :   -0.072544
  19 C :   -0.022479
  20 C :   -0.176951
  21 H :    0.044780
  22 C :    0.081496
  23 H :    0.031196
  24 H :    0.021781
  25 C :   -0.109133
  26 H :    0.039241
  27 H :    0.044918
  28 C :   -0.002825
  29 H :    0.001562
  30 H :    0.018340
  31 H :    0.038552
  32 H :    0.049693
  33 H :    0.044323
Sum of atomic charges:   -0.0000000

LOEWDIN ATOMIC CHARGES
----------------------
   0 S :    0.405855
   1 C :   -0.197941
   2 C :   -0.058220
   3 C :   -0.060136
   4 C :   -0.194358
   5 H :    0.021238
   6 C :   -0.017672
   7 H :    0.032918
   8 H :    0.023504
   9 C :   -0.036065
  10 H :    0.014957
  11 H :    0.026007
  12 C :   -0.066702
  13 H :    0.028572
  14 H :    0.029935
  15 H :    0.021212
  16 S :    0.426122
  17 C :   -0.197970
  18 C :   -0.078305
  19 C :   -0.055028
  20 C :   -0.200593
  21 H :    0.041692
  22 C :   -0.034227
  23 H :    0.033560
  24 H :    0.027775
  25 C :   -0.038544
  26 H :    0.025634
  27 H :    0.032330
  28 C :   -0.068648
  29 H :    0.010601
  30 H :    0.025701
  31 H :    0.030932
  32 H :    0.025313
  33 H :    0.020549

  Mayer bond orders larger than 0.100000
B(  0-S ,  1-C ) :   1.1393 B(  0-S ,  4-C ) :   1.1370 B(  1-C ,  2-C ) :   1.6216
B(  1-C , 32-H ) :   0.9663 B(  2-C ,  3-C ) :   1.2114 B(  2-C ,  6-C ) :   1.0237
B(  3-C ,  4-C ) :   1.6167 B(  3-C ,  5-H ) :   1.0081 B(  4-C , 20-C ) :   1.0244
B(  6-C ,  7-H ) :   0.9398 B(  6-C ,  8-H ) :   0.9474 B(  6-C ,  9-C ) :   1.0513
B(  9-C , 10-H ) :   0.9592 B(  9-C , 11-H ) :   0.9582 B(  9-C , 12-C ) :   1.0800
B( 12-C , 13-H ) :   0.9764 B( 12-C , 14-H ) :   0.9716 B( 12-C , 15-H ) :   0.9724
B( 16-S , 17-C ) :   1.1700 B( 16-S , 20-C ) :   1.1613 B( 17-C , 18-C ) :   1.5739
B( 17-C , 20-C ) :   0.1097 B( 17-C , 33-H ) :   0.9757 B( 18-C , 19-C ) :   1.2674
B( 18-C , 21-H ) :   0.9732 B( 19-C , 20-C ) :   1.5419 B( 19-C , 22-C ) :   1.0638
B( 22-C , 23-H ) :   0.9327 B( 22-C , 24-H ) :   0.9213 B( 22-C , 25-C ) :   1.0452
B( 25-C , 26-H ) :   0.9537 B( 25-C , 27-H ) :   0.9616 B( 25-C , 28-C ) :   1.0826
B( 28-C , 29-H ) :   0.9716 B( 28-C , 30-H ) :   0.9691 B( 28-C , 31-H ) :   0.9738

Dispersion correction           -0.014396506
FINAL SINGLE POINT ENERGY     -1339.877100804144

DIPOLE MOMENT
-------------
                                X             Y             Z
Electronic contribution:    -10.92599      -8.23744      12.71504
Nuclear contribution   :     11.30550       8.22400     -12.81702
                        -----------------------------------------
Total Dipole Moment    :      0.37950      -0.01344      -0.10198
                        -----------------------------------------
Magnitude (a.u.)       :      0.39320
Magnitude (Debye)      :      0.99943

Rotational constants in cm-1:     0.020862     0.007878     0.006277
Rotational constants in MHz :   625.418693   236.161928   188.182071

                             ****ORCA TERMINATED NORMALLY****
TOTAL RUN TIME: 0 days 0 hours 0 minutes 27 seconds 456 msec
