                         Program Version 4.2.1 -  RELEASE  -
|  1> ! wB97X-D3 SP def2-SVP
|  2> %pal
|  3> nprocs 16
|  4> end
|  5>
|  6> * xyz 0 1
|  7> S 	 -35.659 	 58.8939 	 110.367
|  8> C 	 -34.5511 	 60.2198 	 110.811
|  9> C 	 -33.309 	 59.8648 	 111.24
| 10> C 	 -33.2389 	 58.4572 	 111.363
| 11> C 	 -34.3412 	 57.8616 	 110.792
| 12> H 	 -32.4089 	 57.8653 	 111.826
| 13> C 	 -32.3191 	 60.8538 	 111.753
| 14> H 	 -32.7719 	 61.5038 	 112.531
| 15> H 	 -32.0202 	 61.6211 	 110.963
| 16> C 	 -31.0899 	 60.2257 	 112.519
| 17> H 	 -31.5403 	 59.6407 	 113.35
| 18> H 	 -30.4764 	 59.5173 	 111.937
| 19> C 	 -30.1826 	 61.285 	 113.133
| 20> H 	 -30.7197 	 61.9185 	 113.832
| 21> H 	 -29.4266 	 60.7697 	 113.704
| 22> H 	 -29.6197 	 61.7965 	 112.402
| 23> S 	 -35.7773 	 55.6588 	 111.57
| 24> C 	 -35.6274 	 54.1427 	 110.597
| 25> C 	 -34.5298 	 54.2303 	 109.764
| 26> C 	 -33.8281 	 55.5025 	 109.881
| 27> C 	 -34.5322 	 56.4005 	 110.647
| 28> H 	 -34.232 	 53.3827 	 109.158
| 29> C 	 -32.5101 	 55.7351 	 109.089
| 30> H 	 -32.1383 	 56.7189 	 109.244
| 31> H 	 -32.9906 	 55.8315 	 108.151
| 32> C 	 -31.3795 	 54.6903 	 109.214
| 33> H 	 -31.7154 	 53.6635 	 108.819
| 34> H 	 -31.054 	 54.4798 	 110.22
| 35> C 	 -30.0602 	 55.1105 	 108.58
| 36> H 	 -30.1236 	 55.3394 	 107.525
| 37> H 	 -29.287 	 54.3153 	 108.709
| 38> H 	 -29.8004 	 55.9771 	 109.162
| 39> H 	 -34.894 	 61.2584 	 110.924
| 40> H 	 -36.2424 	 53.2183 	 110.699
| 41> *
| 42>
| 43>                          ****END OF INPUT****

CARTESIAN COORDINATES (ANGSTROEM)
---------------------------------
  S    -35.659000   58.893900  110.367000
  C    -34.551100   60.219800  110.811000
  C    -33.309000   59.864800  111.240000
  C    -33.238900   58.457200  111.363000
  C    -34.341200   57.861600  110.792000
  H    -32.408900   57.865300  111.826000
  C    -32.319100   60.853800  111.753000
  H    -32.771900   61.503800  112.531000
  H    -32.020200   61.621100  110.963000
  C    -31.089900   60.225700  112.519000
  H    -31.540300   59.640700  113.350000
  H    -30.476400   59.517300  111.937000
  C    -30.182600   61.285000  113.133000
  H    -30.719700   61.918500  113.832000
  H    -29.426600   60.769700  113.704000
  H    -29.619700   61.796500  112.402000
  S    -35.777300   55.658800  111.570000
  C    -35.627400   54.142700  110.597000
  C    -34.529800   54.230300  109.764000
  C    -33.828100   55.502500  109.881000
  C    -34.532200   56.400500  110.647000
  H    -34.232000   53.382700  109.158000
  C    -32.510100   55.735100  109.089000
  H    -32.138300   56.718900  109.244000
  H    -32.990600   55.831500  108.151000
  C    -31.379500   54.690300  109.214000
  H    -31.715400   53.663500  108.819000
  H    -31.054000   54.479800  110.220000
  C    -30.060200   55.110500  108.580000
  H    -30.123600   55.339400  107.525000
  H    -29.287000   54.315300  108.709000
  H    -29.800400   55.977100  109.162000
  H    -34.894000   61.258400  110.924000
  H    -36.242400   53.218300  110.699000

 Total Charge           Charge          ....    0
 Multiplicity           Mult            ....    1
 Number of Electrons    NEL             ....  134
 Basis Dimension        Dim             ....  322

ORBITAL ENERGIES
----------------

  NO   OCC          E(Eh)            E(eV)
   0   2.0000     -88.970113     -2420.9999
   1   2.0000     -88.960273     -2420.7321
   2   2.0000     -10.324077      -280.9324
   3   2.0000     -10.320692      -280.8403
   4   2.0000     -10.317369      -280.7499
   5   2.0000     -10.309343      -280.5315
   6   2.0000     -10.302995      -280.3587
   7   2.0000     -10.301264      -280.3116
   8   2.0000     -10.296571      -280.1839
   9   2.0000     -10.295452      -280.1535
  10   2.0000     -10.294747      -280.1343
  11   2.0000     -10.294292      -280.1219
  12   2.0000     -10.293052      -280.0882
  13   2.0000     -10.287863      -279.9470
  14   2.0000     -10.279136      -279.7095
  15   2.0000     -10.275324      -279.6058
  16   2.0000      -8.084678      -219.9953
  17   2.0000      -8.074846      -219.7277
  18   2.0000      -6.042965      -164.4374
  19   2.0000      -6.039590      -164.3456
  20   2.0000      -6.035280      -164.2283
  21   2.0000      -6.033488      -164.1796
  22   2.0000      -6.029518      -164.0715
  23   2.0000      -6.025327      -163.9575
  24   2.0000      -1.006554       -27.3897
  25   2.0000      -0.980576       -26.6828
  26   2.0000      -0.911121       -24.7929
  27   2.0000      -0.905061       -24.6280
  28   2.0000      -0.868341       -23.6287
  29   2.0000      -0.850409       -23.1408
  30   2.0000      -0.847304       -23.0563
  31   2.0000      -0.814747       -22.1704
  32   2.0000      -0.782434       -21.2911
  33   2.0000      -0.768791       -20.9199
  34   2.0000      -0.708049       -19.2670
  35   2.0000      -0.697372       -18.9764
  36   2.0000      -0.682435       -18.5700
  37   2.0000      -0.653563       -17.7843
  38   2.0000      -0.636979       -17.3331
  39   2.0000      -0.619655       -16.8617
  40   2.0000      -0.590214       -16.0605
  41   2.0000      -0.571923       -15.5628
  42   2.0000      -0.563348       -15.3295
  43   2.0000      -0.559931       -15.2365
  44   2.0000      -0.531003       -14.4493
  45   2.0000      -0.522654       -14.2221
  46   2.0000      -0.514635       -14.0039
  47   2.0000      -0.506394       -13.7797
  48   2.0000      -0.503733       -13.7073
  49   2.0000      -0.500566       -13.6211
  50   2.0000      -0.480767       -13.0823
  51   2.0000      -0.479196       -13.0396
  52   2.0000      -0.469485       -12.7753
  53   2.0000      -0.460220       -12.5232
  54   2.0000      -0.459599       -12.5063
  55   2.0000      -0.452873       -12.3233
  56   2.0000      -0.448303       -12.1990
  57   2.0000      -0.439206       -11.9514
  58   2.0000      -0.433762       -11.8033
  59   2.0000      -0.428858       -11.6698
  60   2.0000      -0.420890       -11.4530
  61   2.0000      -0.417846       -11.3702
  62   2.0000      -0.411566       -11.1993
  63   2.0000      -0.339080        -9.2268
  64   2.0000      -0.331267        -9.0142
  65   2.0000      -0.320316        -8.7162
  66   2.0000      -0.293909        -7.9977
  67   0.0000       0.036612         0.9963
  68   0.0000       0.068149         1.8544
  69   0.0000       0.108602         2.9552
  70   0.0000       0.113837         3.0977
  71   0.0000       0.130700         3.5565

MULLIKEN ATOMIC CHARGES
-----------------------
   0 S :    0.133073
   1 C :   -0.129689
   2 C :   -0.035005
   3 C :    0.001092
   4 C :   -0.161559
   5 H :    0.039903
   6 C :    0.009588
   7 H :    0.034754
   8 H :    0.048724
   9 C :   -0.133938
  10 H :    0.038669
  11 H :    0.037272
  12 C :    0.005078
  13 H :    0.031326
  14 H :    0.020692
  15 H :    0.025124
  16 S :    0.100862
  17 C :   -0.113939
  18 C :   -0.040460
  19 C :   -0.033752
  20 C :   -0.192331
  21 H :    0.024230
  22 C :    0.121583
  23 H :   -0.001301
  24 H :    0.029088
  25 C :   -0.085260
  26 H :    0.031056
  27 H :    0.028476
  28 C :   -0.051261
  29 H :    0.033661
  30 H :    0.041689
  31 H :    0.028210
  32 H :    0.043038
  33 H :    0.071305
Sum of atomic charges:    0.0000000

LOEWDIN ATOMIC CHARGES
----------------------
   0 S :    0.409639
   1 C :   -0.187182
   2 C :   -0.069292
   3 C :   -0.065158
   4 C :   -0.198083
   5 H :    0.042926
   6 C :   -0.042028
   7 H :    0.036739
   8 H :    0.040055
   9 C :   -0.044419
  10 H :    0.028075
  11 H :    0.021891
  12 C :   -0.057794
  13 H :    0.025146
  14 H :    0.027278
  15 H :    0.020200
  16 S :    0.384958
  17 C :   -0.179075
  18 C :   -0.069935
  19 C :   -0.050269
  20 C :   -0.219680
  21 H :    0.031583
  22 C :   -0.030272
  23 H :    0.022271
  24 H :    0.036251
  25 C :   -0.043618
  26 H :    0.024872
  27 H :    0.025058
  28 C :   -0.061843
  29 H :    0.021022
  30 H :    0.032417
  31 H :    0.023551
  32 H :    0.025830
  33 H :    0.038886

  Mayer bond orders larger than 0.100000
B(  0-S ,  1-C ) :   1.1238 B(  0-S ,  4-C ) :   1.1637 B(  1-C ,  2-C ) :   1.6442
B(  1-C , 32-H ) :   0.9648 B(  2-C ,  3-C ) :   1.2351 B(  2-C ,  6-C ) :   1.0123
B(  3-C ,  4-C ) :   1.5865 B(  3-C ,  5-H ) :   0.9831 B(  4-C , 20-C ) :   0.9954
B(  6-C ,  7-H ) :   0.9414 B(  6-C ,  8-H ) :   0.9359 B(  6-C ,  9-C ) :   1.0716
B(  9-C , 10-H ) :   0.9498 B(  9-C , 11-H ) :   0.9546 B(  9-C , 12-C ) :   1.0940
B( 12-C , 13-H ) :   0.9731 B( 12-C , 14-H ) :   0.9690 B( 12-C , 15-H ) :   0.9732
B( 16-S , 17-C ) :   1.1197 B( 16-S , 20-C ) :   1.1481 B( 17-C , 18-C ) :   1.6482
B( 17-C , 33-H ) :   0.9639 B( 18-C , 19-C ) :   1.2045 B( 18-C , 21-H ) :   0.9871
B( 19-C , 20-C ) :   1.6340 B( 19-C , 22-C ) :   1.0173 B( 22-C , 23-H ) :   0.9354
B( 22-C , 24-H ) :   0.9291 B( 22-C , 25-C ) :   1.0483 B( 25-C , 26-H ) :   0.9511
B( 25-C , 27-H ) :   0.9608 B( 25-C , 28-C ) :   1.0838 B( 28-C , 29-H ) :   0.9770
B( 28-C , 30-H ) :   0.9747 B( 28-C , 31-H ) :   0.9758

Dispersion correction           -0.013566341
FINAL SINGLE POINT ENERGY     -1339.863261221836

DIPOLE MOMENT
-------------
                                X             Y             Z
Electronic contribution:    -30.39026      -4.58164       0.39023
Nuclear contribution   :     31.08438       4.63902      -0.35200
                        -----------------------------------------
Total Dipole Moment    :      0.69412       0.05738       0.03823
                        -----------------------------------------
Magnitude (a.u.)       :      0.69754
Magnitude (Debye)      :      1.77300

Rotational constants in cm-1:     0.015860     0.008948     0.006493
Rotational constants in MHz :   475.473036   268.246151   194.669951

                             ****ORCA TERMINATED NORMALLY****
TOTAL RUN TIME: 0 days 0 hours 0 minutes 29 seconds 252 msec
