                         Program Version 4.2.1 -  RELEASE  -
|  1> ! wB97X-D3 SP def2-SVP
|  2> %pal
|  3> nprocs 16
|  4> end
|  5>
|  6> * xyz 0 1
|  7> S 	 -47.0408 	 55.4721 	 99.8157
|  8> C 	 -47.844 	 53.9277 	 99.4505
|  9> C 	 -47.333 	 53.275 	 98.3108
| 10> C 	 -46.3732 	 54.1617 	 97.684
| 11> C 	 -46.0442 	 55.3297 	 98.3364
| 12> H 	 -45.8049 	 53.8433 	 96.7985
| 13> C 	 -47.6753 	 51.891 	 97.8871
| 14> H 	 -47.8156 	 51.9782 	 96.8125
| 15> H 	 -48.6497 	 51.7135 	 98.2797
| 16> C 	 -46.8452 	 50.6739 	 98.29
| 17> H 	 -46.9248 	 49.7904 	 97.6387
| 18> H 	 -45.8394 	 50.8763 	 98.2441
| 19> C 	 -47.0267 	 50.0966 	 99.6879
| 20> H 	 -47.8929 	 49.4137 	 99.7088
| 21> H 	 -46.0913 	 49.566 	 99.9835
| 22> H 	 -47.2542 	 50.8171 	 100.479
| 23> S 	 -45.1477 	 57.7346 	 97.43
| 24> C 	 -43.3998 	 58.1172 	 97.5757
| 25> C 	 -42.7119 	 57.0443 	 98.1204
| 26> C 	 -43.5534 	 55.9126 	 98.36
| 27> C 	 -44.8974 	 56.1882 	 98.0759
| 28> H 	 -41.7057 	 57.0204 	 98.3708
| 29> C 	 -43.0328 	 54.6217 	 98.9176
| 30> H 	 -42.2696 	 54.1797 	 98.2286
| 31> H 	 -43.8363 	 53.9852 	 98.7394
| 32> C 	 -42.7976 	 54.515 	 100.401
| 33> H 	 -42.1091 	 55.273 	 100.751
| 34> H 	 -42.3701 	 53.5544 	 100.579
| 35> C 	 -44.0168 	 54.8277 	 101.291
| 36> H 	 -43.7977 	 54.9209 	 102.347
| 37> H 	 -44.8313 	 54.0497 	 101.099
| 38> H 	 -44.4033 	 55.863 	 101.066
| 39> H 	 -48.6901 	 53.4918 	 100.076
| 40> H 	 -43.0033 	 59.0591 	 97.2738
| 41> *
| 42>
| 43>                          ****END OF INPUT****

CARTESIAN COORDINATES (ANGSTROEM)
---------------------------------
  S    -47.040800   55.472100   99.815700
  C    -47.844000   53.927700   99.450500
  C    -47.333000   53.275000   98.310800
  C    -46.373200   54.161700   97.684000
  C    -46.044200   55.329700   98.336400
  H    -45.804900   53.843300   96.798500
  C    -47.675300   51.891000   97.887100
  H    -47.815600   51.978200   96.812500
  H    -48.649700   51.713500   98.279700
  C    -46.845200   50.673900   98.290000
  H    -46.924800   49.790400   97.638700
  H    -45.839400   50.876300   98.244100
  C    -47.026700   50.096600   99.687900
  H    -47.892900   49.413700   99.708800
  H    -46.091300   49.566000   99.983500
  H    -47.254200   50.817100  100.479000
  S    -45.147700   57.734600   97.430000
  C    -43.399800   58.117200   97.575700
  C    -42.711900   57.044300   98.120400
  C    -43.553400   55.912600   98.360000
  C    -44.897400   56.188200   98.075900
  H    -41.705700   57.020400   98.370800
  C    -43.032800   54.621700   98.917600
  H    -42.269600   54.179700   98.228600
  H    -43.836300   53.985200   98.739400
  C    -42.797600   54.515000  100.401000
  H    -42.109100   55.273000  100.751000
  H    -42.370100   53.554400  100.579000
  C    -44.016800   54.827700  101.291000
  H    -43.797700   54.920900  102.347000
  H    -44.831300   54.049700  101.099000
  H    -44.403300   55.863000  101.066000
  H    -48.690100   53.491800  100.076000
  H    -43.003300   59.059100   97.273800

 Total Charge           Charge          ....    0
 Multiplicity           Mult            ....    1
 Number of Electrons    NEL             ....  134
 Basis Dimension        Dim             ....  322

ORBITAL ENERGIES
----------------

  NO   OCC          E(Eh)            E(eV)
   0   2.0000     -88.967391     -2420.9258
   1   2.0000     -88.966412     -2420.8992
   2   2.0000     -10.329742      -281.0866
   3   2.0000     -10.325627      -280.9746
   4   2.0000     -10.321956      -280.8747
   5   2.0000     -10.320649      -280.8391
   6   2.0000     -10.306131      -280.4441
   7   2.0000     -10.299681      -280.2686
   8   2.0000     -10.298151      -280.2269
   9   2.0000     -10.292276      -280.0671
  10   2.0000     -10.291327      -280.0412
  11   2.0000     -10.283005      -279.8148
  12   2.0000     -10.281364      -279.7701
  13   2.0000     -10.280970      -279.7594
  14   2.0000     -10.279679      -279.7243
  15   2.0000     -10.277453      -279.6637
  16   2.0000      -8.081461      -219.9077
  17   2.0000      -8.080458      -219.8804
  18   2.0000      -6.039891      -164.3538
  19   2.0000      -6.039054      -164.3310
  20   2.0000      -6.035836      -164.2434
  21   2.0000      -6.035194      -164.2260
  22   2.0000      -6.032379      -164.1494
  23   2.0000      -6.031195      -164.1172
  24   2.0000      -1.004158       -27.3245
  25   2.0000      -0.977637       -26.6029
  26   2.0000      -0.915104       -24.9012
  27   2.0000      -0.911328       -24.7985
  28   2.0000      -0.869589       -23.6627
  29   2.0000      -0.848430       -23.0869
  30   2.0000      -0.845874       -23.0174
  31   2.0000      -0.813390       -22.1335
  32   2.0000      -0.785447       -21.3731
  33   2.0000      -0.768683       -20.9169
  34   2.0000      -0.709375       -19.3031
  35   2.0000      -0.699395       -19.0315
  36   2.0000      -0.693132       -18.8611
  37   2.0000      -0.663842       -18.0641
  38   2.0000      -0.637718       -17.3532
  39   2.0000      -0.619051       -16.8452
  40   2.0000      -0.599829       -16.3222
  41   2.0000      -0.567971       -15.4553
  42   2.0000      -0.555200       -15.1078
  43   2.0000      -0.550992       -14.9932
  44   2.0000      -0.545781       -14.8514
  45   2.0000      -0.538859       -14.6631
  46   2.0000      -0.520172       -14.1546
  47   2.0000      -0.514518       -14.0007
  48   2.0000      -0.497471       -13.5369
  49   2.0000      -0.492844       -13.4110
  50   2.0000      -0.488485       -13.2924
  51   2.0000      -0.472347       -12.8532
  52   2.0000      -0.465716       -12.6728
  53   2.0000      -0.465312       -12.6618
  54   2.0000      -0.455523       -12.3954
  55   2.0000      -0.450939       -12.2707
  56   2.0000      -0.443100       -12.0574
  57   2.0000      -0.438050       -11.9199
  58   2.0000      -0.436045       -11.8654
  59   2.0000      -0.423868       -11.5340
  60   2.0000      -0.420034       -11.4297
  61   2.0000      -0.415250       -11.2995
  62   2.0000      -0.399782       -10.8786
  63   2.0000      -0.339246        -9.2314
  64   2.0000      -0.330129        -8.9833
  65   2.0000      -0.320512        -8.7216
  66   2.0000      -0.304482        -8.2854
  67   0.0000       0.039110         1.0642
  68   0.0000       0.054348         1.4789
  69   0.0000       0.111550         3.0354
  70   0.0000       0.118423         3.2225
  71   0.0000       0.120294         3.2734

MULLIKEN ATOMIC CHARGES
-----------------------
   0 S :    0.109437
   1 C :   -0.144027
   2 C :   -0.134665
   3 C :    0.061743
   4 C :   -0.167373
   5 H :    0.018859
   6 C :    0.111313
   7 H :    0.028871
   8 H :    0.004509
   9 C :   -0.011556
  10 H :    0.029381
  11 H :    0.000663
  12 C :   -0.094243
  13 H :    0.032287
  14 H :    0.042893
  15 H :    0.030210
  16 S :    0.115577
  17 C :   -0.089990
  18 C :    0.019329
  19 C :   -0.084258
  20 C :   -0.186426
  21 H :   -0.006181
  22 C :    0.124495
  23 H :    0.037092
  24 H :   -0.020544
  25 C :   -0.017095
  26 H :    0.015001
  27 H :    0.024459
  28 C :   -0.094185
  29 H :    0.033119
  30 H :    0.047804
  31 H :    0.040932
  32 H :    0.072295
  33 H :    0.050273
Sum of atomic charges:   -0.0000000

LOEWDIN ATOMIC CHARGES
----------------------
   0 S :    0.397720
   1 C :   -0.195312
   2 C :   -0.069036
   3 C :   -0.056186
   4 C :   -0.193150
   5 H :    0.033210
   6 C :   -0.032181
   7 H :    0.037487
   8 H :    0.029188
   9 C :   -0.040343
  10 H :    0.033460
  11 H :    0.012513
  12 C :   -0.069259
  13 H :    0.023135
  14 H :    0.033969
  15 H :    0.022155
  16 S :    0.420910
  17 C :   -0.166164
  18 C :   -0.055212
  19 C :   -0.050534
  20 C :   -0.227645
  21 H :    0.022028
  22 C :   -0.041122
  23 H :    0.040498
  24 H :    0.022279
  25 C :   -0.035595
  26 H :    0.019669
  27 H :    0.021850
  28 C :   -0.074372
  29 H :    0.023554
  30 H :    0.025390
  31 H :    0.025423
  32 H :    0.039931
  33 H :    0.021743

  Mayer bond orders larger than 0.100000
B(  0-S ,  1-C ) :   1.1477 B(  0-S ,  4-C ) :   1.1286 B(  1-C ,  2-C ) :   1.6063
B(  1-C , 32-H ) :   0.9536 B(  2-C ,  3-C ) :   1.2360 B(  2-C ,  6-C ) :   1.0368
B(  3-C ,  4-C ) :   1.6013 B(  3-C ,  5-H ) :   0.9856 B(  4-C , 20-C ) :   1.0166
B(  6-C ,  7-H ) :   0.9306 B(  6-C ,  8-H ) :   0.9326 B(  6-C ,  9-C ) :   1.0566
B(  9-C , 10-H ) :   0.9528 B(  9-C , 11-H ) :   0.9586 B(  9-C , 12-C ) :   1.0751
B( 12-C , 13-H ) :   0.9769 B( 12-C , 14-H ) :   0.9760 B( 12-C , 15-H ) :   0.9774
B( 16-S , 17-C ) :   1.1527 B( 16-S , 20-C ) :   1.1711 B( 17-C , 18-C ) :   1.5717
B( 17-C , 33-H ) :   0.9770 B( 18-C , 19-C ) :   1.2639 B( 18-C , 21-H ) :   1.0003
B( 19-C , 20-C ) :   1.5663 B( 19-C , 22-C ) :   1.0398 B( 22-C , 23-H ) :   0.9267
B( 22-C , 24-H ) :   0.9064 B( 22-C , 25-C ) :   1.0673 B( 25-C , 26-H ) :   0.9572
B( 25-C , 27-H ) :   0.9531 B( 25-C , 28-C ) :   1.0725 B( 28-C , 29-H ) :   0.9727
B( 28-C , 30-H ) :   0.9716 B( 28-C , 31-H ) :   0.9684

Dispersion correction           -0.016262121
FINAL SINGLE POINT ENERGY     -1339.869416961776

DIPOLE MOMENT
-------------
                                X             Y             Z
Electronic contribution:     -4.46272      25.43479      -8.44865
Nuclear contribution   :      4.78214     -26.03903       8.45793
                        -----------------------------------------
Total Dipole Moment    :      0.31942      -0.60424       0.00928
                        -----------------------------------------
Magnitude (a.u.)       :      0.68353
Magnitude (Debye)      :      1.73740

Rotational constants in cm-1:     0.022297     0.008811     0.007798
Rotational constants in MHz :   668.447219   264.153673   233.782875

                             ****ORCA TERMINATED NORMALLY****
TOTAL RUN TIME: 0 days 0 hours 0 minutes 32 seconds 464 msec
