                         Program Version 4.2.1 -  RELEASE  -
|  1> ! wB97X-D3 SP def2-SVP
|  2> %pal
|  3> nprocs 16
|  4> end
|  5>
|  6> * xyz 0 1
|  7> S 	 -0.195036 	 27.6152 	 39.1182
|  8> C 	 -0.689249 	 28.1363 	 37.4506
|  9> C 	 0.337522 	 27.7283 	 36.6201
| 10> C 	 1.38252 	 26.9355 	 37.2519
| 11> C 	 1.14507 	 26.6706 	 38.5658
| 12> H 	 2.21783 	 26.4914 	 36.8046
| 13> C 	 0.31541 	 28.0453 	 35.1663
| 14> H 	 1.34341 	 27.8714 	 34.7697
| 15> H 	 0.191147 	 29.1035 	 35.1419
| 16> C 	 -0.749565 	 27.2321 	 34.3202
| 17> H 	 -0.538236 	 26.1453 	 34.3968
| 18> H 	 -1.75893 	 27.4123 	 34.6568
| 19> C 	 -0.564014 	 27.5224 	 32.9026
| 20> H 	 -1.24106 	 26.9763 	 32.2699
| 21> H 	 -0.835046 	 28.6159 	 32.7096
| 22> H 	 0.43739 	 27.4724 	 32.4999
| 23> S 	 2.56031 	 26.9094 	 40.8279
| 24> C 	 3.38024 	 25.5549 	 41.5126
| 25> C 	 2.99683 	 24.3271 	 40.909
| 26> C 	 2.31232 	 24.5868 	 39.6748
| 27> C 	 2.01681 	 25.9483 	 39.5321
| 28> H 	 3.46192 	 23.3886 	 41.2529
| 29> C 	 1.98123 	 23.4471 	 38.7893
| 30> H 	 2.87655 	 22.8729 	 38.5141
| 31> H 	 1.73654 	 24.0044 	 37.864
| 32> C 	 0.809475 	 22.5723 	 39.3511
| 33> H 	 1.21962 	 22.1574 	 40.2935
| 34> H 	 0.654766 	 21.8065 	 38.6137
| 35> C 	 -0.427152 	 23.3692 	 39.8447
| 36> H 	 -0.187577 	 23.8835 	 40.7043
| 37> H 	 -1.33187 	 22.8052 	 40.12
| 38> H 	 -0.673393 	 24.1467 	 39.1493
| 39> H 	 -1.49061 	 28.8426 	 37.1997
| 40> H 	 3.99725 	 25.6276 	 42.3945
| 41> *
| 42>
| 43>                          ****END OF INPUT****

CARTESIAN COORDINATES (ANGSTROEM)
---------------------------------
  S     -0.195036   27.615200   39.118200
  C     -0.689249   28.136300   37.450600
  C      0.337522   27.728300   36.620100
  C      1.382520   26.935500   37.251900
  C      1.145070   26.670600   38.565800
  H      2.217830   26.491400   36.804600
  C      0.315410   28.045300   35.166300
  H      1.343410   27.871400   34.769700
  H      0.191147   29.103500   35.141900
  C     -0.749565   27.232100   34.320200
  H     -0.538236   26.145300   34.396800
  H     -1.758930   27.412300   34.656800
  C     -0.564014   27.522400   32.902600
  H     -1.241060   26.976300   32.269900
  H     -0.835046   28.615900   32.709600
  H      0.437390   27.472400   32.499900
  S      2.560310   26.909400   40.827900
  C      3.380240   25.554900   41.512600
  C      2.996830   24.327100   40.909000
  C      2.312320   24.586800   39.674800
  C      2.016810   25.948300   39.532100
  H      3.461920   23.388600   41.252900
  C      1.981230   23.447100   38.789300
  H      2.876550   22.872900   38.514100
  H      1.736540   24.004400   37.864000
  C      0.809475   22.572300   39.351100
  H      1.219620   22.157400   40.293500
  H      0.654766   21.806500   38.613700
  C     -0.427152   23.369200   39.844700
  H     -0.187577   23.883500   40.704300
  H     -1.331870   22.805200   40.120000
  H     -0.673393   24.146700   39.149300
  H     -1.490610   28.842600   37.199700
  H      3.997250   25.627600   42.394500

 Total Charge           Charge          ....    0
 Multiplicity           Mult            ....    1
 Number of Electrons    NEL             ....  134
 Basis Dimension        Dim             ....  322

ORBITAL ENERGIES
----------------

  NO   OCC          E(Eh)            E(eV)
   0   2.0000     -88.969172     -2420.9742
   1   2.0000     -88.960778     -2420.7459
   2   2.0000     -10.328584      -281.0551
   3   2.0000     -10.325223      -280.9636
   4   2.0000     -10.318632      -280.7842
   5   2.0000     -10.317985      -280.7666
   6   2.0000     -10.303773      -280.3799
   7   2.0000     -10.301605      -280.3209
   8   2.0000     -10.298618      -280.2396
   9   2.0000     -10.290777      -280.0263
  10   2.0000     -10.290553      -280.0202
  11   2.0000     -10.289386      -279.9884
  12   2.0000     -10.288539      -279.9654
  13   2.0000     -10.288398      -279.9616
  14   2.0000     -10.274991      -279.5967
  15   2.0000     -10.264256      -279.3046
  16   2.0000      -8.085068      -220.0059
  17   2.0000      -8.075010      -219.7322
  18   2.0000      -6.043348      -164.4479
  19   2.0000      -6.039383      -164.3400
  20   2.0000      -6.036017      -164.2484
  21   2.0000      -6.033683      -164.1849
  22   2.0000      -6.029526      -164.0718
  23   2.0000      -6.025647      -163.9662
  24   2.0000      -1.010170       -27.4881
  25   2.0000      -0.983362       -26.7586
  26   2.0000      -0.915150       -24.9025
  27   2.0000      -0.909582       -24.7510
  28   2.0000      -0.870693       -23.6928
  29   2.0000      -0.847194       -23.0533
  30   2.0000      -0.843535       -22.9537
  31   2.0000      -0.816433       -22.2163
  32   2.0000      -0.782749       -21.2997
  33   2.0000      -0.766909       -20.8687
  34   2.0000      -0.706101       -19.2140
  35   2.0000      -0.702830       -19.1250
  36   2.0000      -0.691745       -18.8233
  37   2.0000      -0.661159       -17.9910
  38   2.0000      -0.642880       -17.4936
  39   2.0000      -0.615327       -16.7439
  40   2.0000      -0.593255       -16.1433
  41   2.0000      -0.571942       -15.5633
  42   2.0000      -0.558527       -15.1983
  43   2.0000      -0.546853       -14.8806
  44   2.0000      -0.540681       -14.7127
  45   2.0000      -0.529673       -14.4131
  46   2.0000      -0.521156       -14.1814
  47   2.0000      -0.513786       -13.9808
  48   2.0000      -0.503636       -13.7046
  49   2.0000      -0.502058       -13.6617
  50   2.0000      -0.494293       -13.4504
  51   2.0000      -0.477530       -12.9943
  52   2.0000      -0.469005       -12.7623
  53   2.0000      -0.461152       -12.5486
  54   2.0000      -0.455729       -12.4010
  55   2.0000      -0.449682       -12.2365
  56   2.0000      -0.447297       -12.1716
  57   2.0000      -0.444969       -12.1082
  58   2.0000      -0.429255       -11.6806
  59   2.0000      -0.423187       -11.5155
  60   2.0000      -0.414113       -11.2686
  61   2.0000      -0.409451       -11.1417
  62   2.0000      -0.406740       -11.0679
  63   2.0000      -0.341354        -9.2887
  64   2.0000      -0.331116        -9.0101
  65   2.0000      -0.323549        -8.8042
  66   2.0000      -0.297401        -8.0927
  67   0.0000       0.037855         1.0301
  68   0.0000       0.058458         1.5907
  69   0.0000       0.106341         2.8937
  70   0.0000       0.117850         3.2069
  71   0.0000       0.132526         3.6062

MULLIKEN ATOMIC CHARGES
-----------------------
   0 S :    0.081554
   1 C :   -0.131722
   2 C :   -0.093535
   3 C :    0.075944
   4 C :   -0.148480
   5 H :   -0.010534
   6 C :    0.037795
   7 H :    0.019088
   8 H :    0.026811
   9 C :   -0.037410
  10 H :    0.034224
  11 H :    0.030434
  12 C :   -0.041278
  13 H :    0.029424
  14 H :    0.015923
  15 H :    0.027786
  16 S :    0.132043
  17 C :   -0.103169
  18 C :   -0.043785
  19 C :   -0.076740
  20 C :   -0.168200
  21 H :    0.037537
  22 C :    0.067330
  23 H :    0.038759
  24 H :    0.014598
  25 C :   -0.066000
  26 H :    0.028897
  27 H :    0.037310
  28 C :   -0.015613
  29 H :    0.017225
  30 H :    0.039337
  31 H :    0.025800
  32 H :    0.062862
  33 H :    0.055786
Sum of atomic charges:    0.0000000

LOEWDIN ATOMIC CHARGES
----------------------
   0 S :    0.377772
   1 C :   -0.188830
   2 C :   -0.058651
   3 C :   -0.068126
   4 C :   -0.192519
   5 H :    0.022138
   6 C :   -0.033899
   7 H :    0.032087
   8 H :    0.027795
   9 C :   -0.034395
  10 H :    0.031301
  11 H :    0.024098
  12 C :   -0.070748
  13 H :    0.022737
  14 H :    0.027301
  15 H :    0.023247
  16 S :    0.448183
  17 C :   -0.190569
  18 C :   -0.072469
  19 C :   -0.055745
  20 C :   -0.222881
  21 H :    0.036535
  22 C :   -0.039113
  23 H :    0.035109
  24 H :    0.029703
  25 C :   -0.029496
  26 H :    0.025920
  27 H :    0.021259
  28 C :   -0.061611
  29 H :    0.017896
  30 H :    0.032156
  31 H :    0.023050
  32 H :    0.036835
  33 H :    0.023930

  Mayer bond orders larger than 0.100000
B(  0-S ,  1-C ) :   1.1008 B(  0-S ,  4-C ) :   1.1543 B(  1-C ,  2-C ) :   1.6164
B(  1-C , 32-H ) :   0.9739 B(  2-C ,  3-C ) :   1.2126 B(  2-C ,  6-C ) :   1.0287
B(  3-C ,  4-C ) :   1.5960 B(  3-C ,  5-H ) :   1.0019 B(  4-C , 20-C ) :   0.9923
B(  6-C ,  7-H ) :   0.9462 B(  6-C ,  8-H ) :   0.9365 B(  6-C ,  9-C ) :   1.0548
B(  9-C , 10-H ) :   0.9542 B(  9-C , 11-H ) :   0.9534 B(  9-C , 12-C ) :   1.0981
B( 12-C , 13-H ) :   0.9704 B( 12-C , 14-H ) :   0.9674 B( 12-C , 15-H ) :   0.9721
B( 16-S , 17-C ) :   1.1829 B( 16-S , 20-C ) :   1.1705 B( 17-C , 18-C ) :   1.5807
B( 17-C , 20-C ) :   0.1013 B( 17-C , 33-H ) :   0.9700 B( 18-C , 19-C ) :   1.2544
B( 18-C , 21-H ) :   0.9812 B( 19-C , 20-C ) :   1.5722 B( 19-C , 22-C ) :   1.0426
B( 22-C , 23-H ) :   0.9378 B( 22-C , 24-H ) :   0.9263 B( 22-C , 25-C ) :   1.0555
B( 25-C , 26-H ) :   0.9597 B( 25-C , 27-H ) :   0.9627 B( 25-C , 28-C ) :   1.0626
B( 28-C , 29-H ) :   0.9653 B( 28-C , 30-H ) :   0.9745 B( 28-C , 31-H ) :   0.9773

Dispersion correction           -0.014954176
FINAL SINGLE POINT ENERGY     -1339.864454932862

DIPOLE MOMENT
-------------
                                X             Y             Z
Electronic contribution:      8.04065      11.01299      20.87160
Nuclear contribution   :     -7.89142     -11.25051     -21.27587
                        -----------------------------------------
Total Dipole Moment    :      0.14922      -0.23752      -0.40427
                        -----------------------------------------
Magnitude (a.u.)       :      0.49206
Magnitude (Debye)      :      1.25071

Rotational constants in cm-1:     0.022377     0.007867     0.006872
Rotational constants in MHz :   670.857022   235.847631   206.007853

                             ****ORCA TERMINATED NORMALLY****
TOTAL RUN TIME: 0 days 0 hours 0 minutes 35 seconds 246 msec
