                         Program Version 4.2.1 -  RELEASE  -
|  1> ! wB97X-D3 SP def2-SVP
|  2> %pal
|  3> nprocs 16
|  4> end
|  5>
|  6> * xyz 0 1
|  7> S 	 3.3109 	 22.5116 	 56.721
|  8> C 	 4.7676 	 22.7067 	 55.8367
|  9> C 	 5.76776 	 21.9179 	 56.369
| 10> C 	 5.23613 	 20.8753 	 57.1882
| 11> C 	 3.89653 	 21.0921 	 57.5239
| 12> H 	 5.84507 	 20.0701 	 57.5746
| 13> C 	 7.1979 	 21.7939 	 55.802
| 14> H 	 7.13245 	 22.4274 	 54.8711
| 15> H 	 7.5648 	 20.8434 	 55.4837
| 16> C 	 8.19808 	 22.4338 	 56.7545
| 17> H 	 9.05703 	 22.6754 	 56.1357
| 18> H 	 7.74398 	 23.3525 	 57.0782
| 19> C 	 8.62044 	 21.639 	 57.9408
| 20> H 	 9.32209 	 20.8976 	 57.6417
| 21> H 	 9.08006 	 22.1577 	 58.7903
| 22> H 	 7.77578 	 21.1772 	 58.4829
| 23> S 	 2.88963 	 18.5792 	 57.7644
| 24> C 	 2.01311 	 18.1169 	 59.1377
| 25> C 	 1.71822 	 19.1935 	 59.96
| 26> C 	 2.29341 	 20.4154 	 59.4679
| 27> C 	 3.05848 	 20.2044 	 58.3528
| 28> H 	 1.14672 	 19.0282 	 60.9595
| 29> C 	 2.20966 	 21.7171 	 60.22
| 30> H 	 1.1432 	 21.8575 	 60.5609
| 31> H 	 2.46286 	 22.5155 	 59.5354
| 32> C 	 3.30303 	 21.7491 	 61.3549
| 33> H 	 3.29021 	 20.7723 	 61.8908
| 34> H 	 2.97926 	 22.4031 	 62.1111
| 35> C 	 4.71168 	 22.0442 	 60.9131
| 36> H 	 5.46116 	 22.1405 	 61.6274
| 37> H 	 4.70054 	 22.9498 	 60.301
| 38> H 	 5.06798 	 21.3506 	 60.1679
| 39> H 	 4.87437 	 23.4279 	 55.1148
| 40> H 	 1.70724 	 17.0932 	 59.3661
| 41> *
| 42>
| 43>                          ****END OF INPUT****

CARTESIAN COORDINATES (ANGSTROEM)
---------------------------------
  S      3.310900   22.511600   56.721000
  C      4.767600   22.706700   55.836700
  C      5.767760   21.917900   56.369000
  C      5.236130   20.875300   57.188200
  C      3.896530   21.092100   57.523900
  H      5.845070   20.070100   57.574600
  C      7.197900   21.793900   55.802000
  H      7.132450   22.427400   54.871100
  H      7.564800   20.843400   55.483700
  C      8.198080   22.433800   56.754500
  H      9.057030   22.675400   56.135700
  H      7.743980   23.352500   57.078200
  C      8.620440   21.639000   57.940800
  H      9.322090   20.897600   57.641700
  H      9.080060   22.157700   58.790300
  H      7.775780   21.177200   58.482900
  S      2.889630   18.579200   57.764400
  C      2.013110   18.116900   59.137700
  C      1.718220   19.193500   59.960000
  C      2.293410   20.415400   59.467900
  C      3.058480   20.204400   58.352800
  H      1.146720   19.028200   60.959500
  C      2.209660   21.717100   60.220000
  H      1.143200   21.857500   60.560900
  H      2.462860   22.515500   59.535400
  C      3.303030   21.749100   61.354900
  H      3.290210   20.772300   61.890800
  H      2.979260   22.403100   62.111100
  C      4.711680   22.044200   60.913100
  H      5.461160   22.140500   61.627400
  H      4.700540   22.949800   60.301000
  H      5.067980   21.350600   60.167900
  H      4.874370   23.427900   55.114800
  H      1.707240   17.093200   59.366100

 Total Charge           Charge          ....    0
 Multiplicity           Mult            ....    1
 Number of Electrons    NEL             ....  134
 Basis Dimension        Dim             ....  322

ORBITAL ENERGIES
----------------

  NO   OCC          E(Eh)            E(eV)
   0   2.0000     -88.968293     -2420.9503
   1   2.0000     -88.963147     -2420.8103
   2   2.0000     -10.330276      -281.1011
   3   2.0000     -10.321138      -280.8524
   4   2.0000     -10.311839      -280.5994
   5   2.0000     -10.309919      -280.5471
   6   2.0000     -10.301496      -280.3180
   7   2.0000     -10.299177      -280.2549
   8   2.0000     -10.298879      -280.2467
   9   2.0000     -10.294910      -280.1387
  10   2.0000     -10.294181      -280.1189
  11   2.0000     -10.293105      -280.0896
  12   2.0000     -10.281898      -279.7847
  13   2.0000     -10.278443      -279.6906
  14   2.0000     -10.272949      -279.5411
  15   2.0000     -10.263842      -279.2933
  16   2.0000      -8.083646      -219.9672
  17   2.0000      -8.079104      -219.8436
  18   2.0000      -6.042056      -164.4127
  19   2.0000      -6.037927      -164.3003
  20   2.0000      -6.037476      -164.2881
  21   2.0000      -6.034612      -164.2101
  22   2.0000      -6.033432      -164.1780
  23   2.0000      -6.029945      -164.0832
  24   2.0000      -1.012555       -27.5530
  25   2.0000      -0.992259       -27.0007
  26   2.0000      -0.915643       -24.9159
  27   2.0000      -0.907483       -24.6939
  28   2.0000      -0.868996       -23.6466
  29   2.0000      -0.851668       -23.1751
  30   2.0000      -0.847098       -23.0507
  31   2.0000      -0.812988       -22.1225
  32   2.0000      -0.785421       -21.3724
  33   2.0000      -0.774865       -21.0851
  34   2.0000      -0.705978       -19.2106
  35   2.0000      -0.696122       -18.9424
  36   2.0000      -0.694650       -18.9024
  37   2.0000      -0.660570       -17.9750
  38   2.0000      -0.645745       -17.5716
  39   2.0000      -0.616801       -16.7840
  40   2.0000      -0.596314       -16.2265
  41   2.0000      -0.578823       -15.7506
  42   2.0000      -0.556598       -15.1458
  43   2.0000      -0.547029       -14.8854
  44   2.0000      -0.542993       -14.7756
  45   2.0000      -0.530963       -14.4482
  46   2.0000      -0.515975       -14.0404
  47   2.0000      -0.511683       -13.9236
  48   2.0000      -0.500318       -13.6143
  49   2.0000      -0.496546       -13.5117
  50   2.0000      -0.491985       -13.3876
  51   2.0000      -0.486616       -13.2415
  52   2.0000      -0.474893       -12.9225
  53   2.0000      -0.468048       -12.7362
  54   2.0000      -0.460562       -12.5325
  55   2.0000      -0.446971       -12.1627
  56   2.0000      -0.443224       -12.0607
  57   2.0000      -0.438904       -11.9432
  58   2.0000      -0.431507       -11.7419
  59   2.0000      -0.424372       -11.5477
  60   2.0000      -0.420512       -11.4427
  61   2.0000      -0.407419       -11.0864
  62   2.0000      -0.406901       -11.0723
  63   2.0000      -0.341773        -9.3001
  64   2.0000      -0.334300        -9.0968
  65   2.0000      -0.328043        -8.9265
  66   2.0000      -0.295951        -8.0532
  67   0.0000       0.037090         1.0093
  68   0.0000       0.069773         1.8986
  69   0.0000       0.109580         2.9818
  70   0.0000       0.116089         3.1589
  71   0.0000       0.130424         3.5490

MULLIKEN ATOMIC CHARGES
-----------------------
   0 S :    0.127663
   1 C :   -0.096071
   2 C :   -0.075704
   3 C :    0.020004
   4 C :   -0.147552
   5 H :    0.019778
   6 C :    0.037436
   7 H :    0.021670
   8 H :    0.026103
   9 C :   -0.037849
  10 H :    0.024748
  11 H :    0.017700
  12 C :   -0.043923
  13 H :    0.023722
  14 H :    0.031803
  15 H :    0.021963
  16 S :    0.128278
  17 C :   -0.098439
  18 C :   -0.077192
  19 C :   -0.041382
  20 C :   -0.174936
  21 H :    0.052245
  22 C :    0.065510
  23 H :    0.043230
  24 H :    0.008782
  25 C :   -0.048732
  26 H :    0.021723
  27 H :    0.014929
  28 C :   -0.002481
  29 H :    0.024169
  30 H :    0.013844
  31 H :    0.020990
  32 H :    0.019629
  33 H :    0.058344
Sum of atomic charges:    0.0000000

LOEWDIN ATOMIC CHARGES
----------------------
   0 S :    0.435404
   1 C :   -0.188276
   2 C :   -0.062881
   3 C :   -0.060750
   4 C :   -0.205253
   5 H :    0.029683
   6 C :   -0.024538
   7 H :    0.035362
   8 H :    0.023112
   9 C :   -0.042642
  10 H :    0.024091
  11 H :    0.021912
  12 C :   -0.071817
  13 H :    0.020876
  14 H :    0.031268
  15 H :    0.026881
  16 S :    0.438544
  17 C :   -0.208768
  18 C :   -0.085608
  19 C :   -0.062821
  20 C :   -0.208668
  21 H :    0.047762
  22 C :   -0.028826
  23 H :    0.040175
  24 H :    0.018947
  25 C :   -0.034214
  26 H :    0.025670
  27 H :    0.015112
  28 C :   -0.062453
  29 H :    0.018745
  30 H :    0.026606
  31 H :    0.025827
  32 H :    0.009951
  33 H :    0.031589

  Mayer bond orders larger than 0.100000
B(  0-S ,  1-C ) :   1.1647 B(  0-S ,  4-C ) :   1.1615 B(  1-C ,  2-C ) :   1.5829
B(  1-C , 32-H ) :   0.9790 B(  2-C ,  3-C ) :   1.2481 B(  2-C ,  6-C ) :   1.0212
B(  3-C ,  4-C ) :   1.5438 B(  3-C ,  5-H ) :   0.9929 B(  4-C , 20-C ) :   1.0146
B(  6-C ,  7-H ) :   0.9435 B(  6-C ,  8-H ) :   0.9567 B(  6-C ,  9-C ) :   1.0650
B(  9-C , 10-H ) :   0.9536 B(  9-C , 11-H ) :   0.9517 B(  9-C , 12-C ) :   1.0857
B( 12-C , 13-H ) :   0.9733 B( 12-C , 14-H ) :   0.9700 B( 12-C , 15-H ) :   0.9690
B( 16-S , 17-C ) :   1.1706 B( 16-S , 20-C ) :   1.1532 B( 17-C , 18-C ) :   1.6072
B( 17-C , 33-H ) :   0.9659 B( 18-C , 19-C ) :   1.2358 B( 18-C , 21-H ) :   0.9753
B( 19-C , 20-C ) :   1.6040 B( 19-C , 22-C ) :   1.0563 B( 22-C , 23-H ) :   0.9352
B( 22-C , 24-H ) :   0.9311 B( 22-C , 25-C ) :   1.0579 B( 25-C , 26-H ) :   0.9555
B( 25-C , 27-H ) :   0.9562 B( 25-C , 28-C ) :   1.0799 B( 28-C , 29-H ) :   0.9716
B( 28-C , 30-H ) :   0.9681 B( 28-C , 31-H ) :   0.9682

Dispersion correction           -0.016132404
FINAL SINGLE POINT ENERGY     -1339.878134156412

DIPOLE MOMENT
-------------
                                X             Y             Z
Electronic contribution:    -19.13599      -8.33012     -11.15062
Nuclear contribution   :     19.48451       8.40784      11.33422
                        -----------------------------------------
Total Dipole Moment    :      0.34852       0.07772       0.18360
                        -----------------------------------------
Magnitude (a.u.)       :      0.40152
Magnitude (Debye)      :      1.02058

Rotational constants in cm-1:     0.020056     0.009065     0.008372
Rotational constants in MHz :   601.262399   271.763722   250.976680

                             ****ORCA TERMINATED NORMALLY****
TOTAL RUN TIME: 0 days 0 hours 0 minutes 35 seconds 739 msec
