                         Program Version 4.2.1 -  RELEASE  -
|  1> ! wB97X-D3 SP def2-SVP
|  2> %pal
|  3> nprocs 16
|  4> end
|  5>
|  6> * xyz 0 1
|  7> S 	 33.5074 	 26.8523 	 53.9864
|  8> C 	 34.809 	 27.9578 	 53.8245
|  9> C 	 36.0238 	 27.3566 	 53.9229
| 10> C 	 35.8775 	 25.9504 	 54.3006
| 11> C 	 34.6345 	 25.4792 	 54.2302
| 12> H 	 36.7273 	 25.2749 	 54.6094
| 13> C 	 37.3037 	 28.0653 	 53.738
| 14> H 	 37.0715 	 29.1057 	 54.0279
| 15> H 	 37.5986 	 28.0344 	 52.6744
| 16> C 	 38.4074 	 27.708 	 54.6854
| 17> H 	 38.6619 	 26.702 	 54.3419
| 18> H 	 39.2611 	 28.3907 	 54.5879
| 19> C 	 38.1173 	 27.8486 	 56.1616
| 20> H 	 37.6471 	 27.0649 	 56.7799
| 21> H 	 39.0458 	 28.0455 	 56.7045
| 22> H 	 37.6353 	 28.7863 	 56.4006
| 23> S 	 32.8676 	 23.8968 	 55.6907
| 24> C 	 32.9824 	 22.1442 	 55.7675
| 25> C 	 33.8895 	 21.8239 	 54.8215
| 26> C 	 34.6831 	 22.8716 	 54.1842
| 27> C 	 34.2159 	 24.1002 	 54.5276
| 28> H 	 33.9472 	 20.829 	 54.6067
| 29> C 	 35.7789 	 22.627 	 53.1266
| 30> H 	 36.6621 	 22.6083 	 53.7302
| 31> H 	 35.8052 	 23.5098 	 52.4662
| 32> C 	 35.6307 	 21.3381 	 52.3244
| 33> H 	 34.6606 	 21.4667 	 51.9344
| 34> H 	 35.7909 	 20.392 	 52.9059
| 35> C 	 36.6437 	 21.3236 	 51.2115
| 36> H 	 36.4046 	 20.8339 	 50.2229
| 37> H 	 37.4997 	 20.857 	 51.5101
| 38> H 	 36.8879 	 22.3264 	 50.909
| 39> H 	 34.6968 	 29.0132 	 53.7124
| 40> H 	 32.255 	 21.5214 	 56.3462
| 41> *
| 42>
| 43>                          ****END OF INPUT****

CARTESIAN COORDINATES (ANGSTROEM)
---------------------------------
  S     33.507400   26.852300   53.986400
  C     34.809000   27.957800   53.824500
  C     36.023800   27.356600   53.922900
  C     35.877500   25.950400   54.300600
  C     34.634500   25.479200   54.230200
  H     36.727300   25.274900   54.609400
  C     37.303700   28.065300   53.738000
  H     37.071500   29.105700   54.027900
  H     37.598600   28.034400   52.674400
  C     38.407400   27.708000   54.685400
  H     38.661900   26.702000   54.341900
  H     39.261100   28.390700   54.587900
  C     38.117300   27.848600   56.161600
  H     37.647100   27.064900   56.779900
  H     39.045800   28.045500   56.704500
  H     37.635300   28.786300   56.400600
  S     32.867600   23.896800   55.690700
  C     32.982400   22.144200   55.767500
  C     33.889500   21.823900   54.821500
  C     34.683100   22.871600   54.184200
  C     34.215900   24.100200   54.527600
  H     33.947200   20.829000   54.606700
  C     35.778900   22.627000   53.126600
  H     36.662100   22.608300   53.730200
  H     35.805200   23.509800   52.466200
  C     35.630700   21.338100   52.324400
  H     34.660600   21.466700   51.934400
  H     35.790900   20.392000   52.905900
  C     36.643700   21.323600   51.211500
  H     36.404600   20.833900   50.222900
  H     37.499700   20.857000   51.510100
  H     36.887900   22.326400   50.909000
  H     34.696800   29.013200   53.712400
  H     32.255000   21.521400   56.346200

 Total Charge           Charge          ....    0
 Multiplicity           Mult            ....    1
 Number of Electrons    NEL             ....  134
 Basis Dimension        Dim             ....  322

ORBITAL ENERGIES
----------------

  NO   OCC          E(Eh)            E(eV)
   0   2.0000     -88.962307     -2420.7874
   1   2.0000     -88.952316     -2420.5156
   2   2.0000     -10.329167      -281.0709
   3   2.0000     -10.328057      -281.0407
   4   2.0000     -10.320171      -280.8261
   5   2.0000     -10.308548      -280.5098
   6   2.0000     -10.305272      -280.4207
   7   2.0000     -10.296991      -280.1954
   8   2.0000     -10.296769      -280.1893
   9   2.0000     -10.294085      -280.1163
  10   2.0000     -10.288977      -279.9773
  11   2.0000     -10.287759      -279.9442
  12   2.0000     -10.286615      -279.9130
  13   2.0000     -10.286075      -279.8983
  14   2.0000     -10.276588      -279.6402
  15   2.0000     -10.269872      -279.4574
  16   2.0000      -8.077278      -219.7939
  17   2.0000      -8.067143      -219.5181
  18   2.0000      -6.035998      -164.2479
  19   2.0000      -6.031832      -164.1345
  20   2.0000      -6.027708      -164.0223
  21   2.0000      -6.025837      -163.9714
  22   2.0000      -6.021600      -163.8561
  23   2.0000      -6.017702      -163.7500
  24   2.0000      -1.006889       -27.3988
  25   2.0000      -0.986106       -26.8333
  26   2.0000      -0.921590       -25.0777
  27   2.0000      -0.916112       -24.9287
  28   2.0000      -0.877774       -23.8854
  29   2.0000      -0.849496       -23.1160
  30   2.0000      -0.842058       -22.9136
  31   2.0000      -0.823161       -22.3993
  32   2.0000      -0.782935       -21.3048
  33   2.0000      -0.776571       -21.1316
  34   2.0000      -0.712383       -19.3849
  35   2.0000      -0.704491       -19.1702
  36   2.0000      -0.691710       -18.8224
  37   2.0000      -0.653366       -17.7790
  38   2.0000      -0.639226       -17.3942
  39   2.0000      -0.623733       -16.9726
  40   2.0000      -0.596987       -16.2448
  41   2.0000      -0.585368       -15.9287
  42   2.0000      -0.567968       -15.4552
  43   2.0000      -0.565133       -15.3780
  44   2.0000      -0.544528       -14.8174
  45   2.0000      -0.529201       -14.4003
  46   2.0000      -0.520190       -14.1551
  47   2.0000      -0.513324       -13.9682
  48   2.0000      -0.504308       -13.7229
  49   2.0000      -0.500192       -13.6109
  50   2.0000      -0.488907       -13.3038
  51   2.0000      -0.481192       -13.0939
  52   2.0000      -0.472260       -12.8508
  53   2.0000      -0.468594       -12.7511
  54   2.0000      -0.459774       -12.5111
  55   2.0000      -0.450789       -12.2666
  56   2.0000      -0.443509       -12.0685
  57   2.0000      -0.437571       -11.9069
  58   2.0000      -0.435203       -11.8425
  59   2.0000      -0.420169       -11.4334
  60   2.0000      -0.414890       -11.2897
  61   2.0000      -0.409296       -11.1375
  62   2.0000      -0.402745       -10.9592
  63   2.0000      -0.356082        -9.6895
  64   2.0000      -0.326081        -8.8731
  65   2.0000      -0.321400        -8.7457
  66   2.0000      -0.298529        -8.1234
  67   0.0000       0.033220         0.9040
  68   0.0000       0.078201         2.1280
  69   0.0000       0.118188         3.2161
  70   0.0000       0.126966         3.4549
  71   0.0000       0.134666         3.6644

MULLIKEN ATOMIC CHARGES
-----------------------
   0 S :    0.104375
   1 C :   -0.106717
   2 C :   -0.098061
   3 C :   -0.008255
   4 C :   -0.122003
   5 H :    0.039068
   6 C :    0.072394
   7 H :    0.009424
   8 H :    0.055290
   9 C :   -0.071501
  10 H :    0.026724
  11 H :    0.034594
  12 C :   -0.054058
  13 H :    0.047005
  14 H :    0.019515
  15 H :    0.016280
  16 S :    0.058071
  17 C :   -0.099505
  18 C :   -0.007379
  19 C :   -0.049501
  20 C :   -0.152752
  21 H :   -0.020058
  22 C :    0.056283
  23 H :    0.028573
  24 H :    0.043939
  25 C :   -0.069913
  26 H :    0.028091
  27 H :    0.049933
  28 C :   -0.008122
  29 H :    0.033905
  30 H :    0.008020
  31 H :    0.010974
  32 H :    0.040107
  33 H :    0.085259
Sum of atomic charges:    0.0000000

LOEWDIN ATOMIC CHARGES
----------------------
   0 S :    0.390700
   1 C :   -0.192087
   2 C :   -0.069186
   3 C :   -0.064018
   4 C :   -0.182380
   5 H :    0.041993
   6 C :   -0.038837
   7 H :    0.029595
   8 H :    0.039384
   9 C :   -0.045539
  10 H :    0.021896
  11 H :    0.033609
  12 C :   -0.076222
  13 H :    0.029695
  14 H :    0.029451
  15 H :    0.026229
  16 S :    0.363335
  17 C :   -0.179034
  18 C :   -0.070796
  19 C :   -0.057496
  20 C :   -0.176518
  21 H :    0.011731
  22 C :   -0.025177
  23 H :    0.027406
  24 H :    0.035998
  25 C :   -0.040066
  26 H :    0.022883
  27 H :    0.034233
  28 C :   -0.061005
  29 H :    0.033730
  30 H :    0.011851
  31 H :    0.021404
  32 H :    0.026344
  33 H :    0.046893

  Mayer bond orders larger than 0.100000
B(  0-S ,  1-C ) :   1.1299 B(  0-S ,  4-C ) :   1.1144 B(  1-C ,  2-C ) :   1.6570
B(  1-C , 32-H ) :   0.9670 B(  2-C ,  3-C ) :   1.1893 B(  2-C ,  6-C ) :   1.0223
B(  3-C ,  4-C ) :   1.6367 B(  3-C ,  5-H ) :   0.9818 B(  4-C , 20-C ) :   1.0284
B(  6-C ,  7-H ) :   0.9354 B(  6-C ,  8-H ) :   0.9350 B(  6-C ,  9-C ) :   1.0851
B(  9-C , 10-H ) :   0.9485 B(  9-C , 11-H ) :   0.9562 B(  9-C , 12-C ) :   1.0747
B( 12-C , 13-H ) :   0.9730 B( 12-C , 14-H ) :   0.9743 B( 12-C , 15-H ) :   0.9668
B( 16-S , 17-C ) :   1.1343 B( 16-S , 20-C ) :   1.1225 B( 17-C , 18-C ) :   1.6222
B( 17-C , 33-H ) :   0.9635 B( 18-C , 19-C ) :   1.2009 B( 18-C , 21-H ) :   1.0039
B( 19-C , 20-C ) :   1.6502 B( 19-C , 22-C ) :   1.0179 B( 22-C , 23-H ) :   0.9196
B( 22-C , 24-H ) :   0.9412 B( 22-C , 25-C ) :   1.0834 B( 25-C , 26-H ) :   0.9583
B( 25-C , 27-H ) :   0.9479 B( 25-C , 28-C ) :   1.0833 B( 28-C , 29-H ) :   0.9732
B( 28-C , 30-H ) :   0.9744 B( 28-C , 31-H ) :   0.9705

Dispersion correction           -0.013826505
FINAL SINGLE POINT ENERGY     -1339.854798433278

DIPOLE MOMENT
-------------
                                X             Y             Z
Electronic contribution:    -24.50737       3.29480       7.21019
Nuclear contribution   :     25.24989      -3.44602      -7.40135
                        -----------------------------------------
Total Dipole Moment    :      0.74252      -0.15122      -0.19116
                        -----------------------------------------
Magnitude (a.u.)       :      0.78150
Magnitude (Debye)      :      1.98641

Rotational constants in cm-1:     0.016869     0.008743     0.006947
Rotational constants in MHz :   505.705893   262.107453   208.270571

                             ****ORCA TERMINATED NORMALLY****
TOTAL RUN TIME: 0 days 0 hours 0 minutes 35 seconds 389 msec
