                         Program Version 4.2.1 -  RELEASE  -
|  1> ! wB97X-D3 SP def2-SVP
|  2> %pal
|  3> nprocs 16
|  4> end
|  5>
|  6> * xyz 0 1
|  7> S 	 4.21181 	 27.669 	 66.9372
|  8> C 	 3.77889 	 26.0004 	 66.5266
|  9> C 	 4.66582 	 25.4745 	 65.6445
| 10> C 	 5.76891 	 26.3623 	 65.3559
| 11> C 	 5.70927 	 27.5857 	 66.0534
| 12> H 	 6.54067 	 26.1733 	 64.7596
| 13> C 	 4.53253 	 24.2286 	 64.7728
| 14> H 	 5.57182 	 23.9789 	 64.3554
| 15> H 	 3.75946 	 24.4353 	 63.9712
| 16> C 	 4.02217 	 23.0253 	 65.536
| 17> H 	 4.84223 	 22.501 	 66.0085
| 18> H 	 3.37114 	 23.262 	 66.351
| 19> C 	 3.08168 	 22.1081 	 64.5851
| 20> H 	 2.7131 	 21.141 	 64.9007
| 21> H 	 2.24249 	 22.6368 	 64.1607
| 22> H 	 3.79701 	 21.9092 	 63.8284
| 23> S 	 5.65586 	 30.2287 	 65.2593
| 24> C 	 7.15741 	 30.9205 	 64.9107
| 25> C 	 8.24281 	 30.3138 	 65.5208
| 26> C 	 7.86168 	 29.0593 	 66.0451
| 27> C 	 6.48566 	 28.8397 	 65.8742
| 28> H 	 9.23976 	 30.7028 	 65.2671
| 29> C 	 8.84524 	 28.0822 	 66.5602
| 30> H 	 8.23041 	 27.246 	 66.9107
| 31> H 	 9.46395 	 28.3905 	 67.4192
| 32> C 	 9.88345 	 27.4716 	 65.5571
| 33> H 	 10.5118 	 28.2918 	 65.2365
| 34> H 	 9.39619 	 27.0258 	 64.657
| 35> C 	 10.7933 	 26.4117 	 66.2526
| 36> H 	 10.2871 	 25.5428 	 66.6511
| 37> H 	 11.3464 	 26.9729 	 66.9733
| 38> H 	 11.5418 	 26.0709 	 65.4971
| 39> H 	 2.90692 	 25.4642 	 66.8841
| 40> H 	 7.32625 	 31.7953 	 64.2486
| 41> *
| 42>
| 43>                          ****END OF INPUT****

CARTESIAN COORDINATES (ANGSTROEM)
---------------------------------
  S      4.211810   27.669000   66.937200
  C      3.778890   26.000400   66.526600
  C      4.665820   25.474500   65.644500
  C      5.768910   26.362300   65.355900
  C      5.709270   27.585700   66.053400
  H      6.540670   26.173300   64.759600
  C      4.532530   24.228600   64.772800
  H      5.571820   23.978900   64.355400
  H      3.759460   24.435300   63.971200
  C      4.022170   23.025300   65.536000
  H      4.842230   22.501000   66.008500
  H      3.371140   23.262000   66.351000
  C      3.081680   22.108100   64.585100
  H      2.713100   21.141000   64.900700
  H      2.242490   22.636800   64.160700
  H      3.797010   21.909200   63.828400
  S      5.655860   30.228700   65.259300
  C      7.157410   30.920500   64.910700
  C      8.242810   30.313800   65.520800
  C      7.861680   29.059300   66.045100
  C      6.485660   28.839700   65.874200
  H      9.239760   30.702800   65.267100
  C      8.845240   28.082200   66.560200
  H      8.230410   27.246000   66.910700
  H      9.463950   28.390500   67.419200
  C      9.883450   27.471600   65.557100
  H     10.511800   28.291800   65.236500
  H      9.396190   27.025800   64.657000
  C     10.793300   26.411700   66.252600
  H     10.287100   25.542800   66.651100
  H     11.346400   26.972900   66.973300
  H     11.541800   26.070900   65.497100
  H      2.906920   25.464200   66.884100
  H      7.326250   31.795300   64.248600

 Total Charge           Charge          ....    0
 Multiplicity           Mult            ....    1
 Number of Electrons    NEL             ....  134
 Basis Dimension        Dim             ....  322

ORBITAL ENERGIES
----------------

  NO   OCC          E(Eh)            E(eV)
   0   2.0000     -88.970130     -2421.0003
   1   2.0000     -88.963468     -2420.8190
   2   2.0000     -10.332315      -281.1566
   3   2.0000     -10.326162      -280.9891
   4   2.0000     -10.314434      -280.6700
   5   2.0000     -10.312285      -280.6115
   6   2.0000     -10.303842      -280.3818
   7   2.0000     -10.303067      -280.3607
   8   2.0000     -10.299546      -280.2649
   9   2.0000     -10.291599      -280.0486
  10   2.0000     -10.290989      -280.0321
  11   2.0000     -10.288312      -279.9592
  12   2.0000     -10.287732      -279.9434
  13   2.0000     -10.287209      -279.9292
  14   2.0000     -10.280353      -279.7426
  15   2.0000     -10.277494      -279.6648
  16   2.0000      -8.086293      -220.0392
  17   2.0000      -8.078151      -219.8177
  18   2.0000      -6.044489      -164.4789
  19   2.0000      -6.040784      -164.3781
  20   2.0000      -6.037100      -164.2779
  21   2.0000      -6.036749      -164.2683
  22   2.0000      -6.032612      -164.1557
  23   2.0000      -6.028879      -164.0541
  24   2.0000      -1.011785       -27.5321
  25   2.0000      -0.986219       -26.8364
  26   2.0000      -0.910252       -24.7692
  27   2.0000      -0.908409       -24.7191
  28   2.0000      -0.864537       -23.5252
  29   2.0000      -0.856306       -23.3013
  30   2.0000      -0.842923       -22.9371
  31   2.0000      -0.812092       -22.0981
  32   2.0000      -0.781511       -21.2660
  33   2.0000      -0.770268       -20.9600
  34   2.0000      -0.709074       -19.2949
  35   2.0000      -0.701244       -19.0818
  36   2.0000      -0.691465       -18.8157
  37   2.0000      -0.658404       -17.9161
  38   2.0000      -0.641939       -17.4680
  39   2.0000      -0.617919       -16.8144
  40   2.0000      -0.598512       -16.2863
  41   2.0000      -0.575527       -15.6609
  42   2.0000      -0.568350       -15.4656
  43   2.0000      -0.558106       -15.1868
  44   2.0000      -0.524760       -14.2794
  45   2.0000      -0.522952       -14.2302
  46   2.0000      -0.513172       -13.9641
  47   2.0000      -0.507696       -13.8151
  48   2.0000      -0.502637       -13.6775
  49   2.0000      -0.496909       -13.5216
  50   2.0000      -0.492808       -13.4100
  51   2.0000      -0.483105       -13.1459
  52   2.0000      -0.476591       -12.9687
  53   2.0000      -0.469067       -12.7640
  54   2.0000      -0.461577       -12.5602
  55   2.0000      -0.448630       -12.2078
  56   2.0000      -0.439248       -11.9525
  57   2.0000      -0.434101       -11.8125
  58   2.0000      -0.432544       -11.7701
  59   2.0000      -0.429766       -11.6945
  60   2.0000      -0.427235       -11.6256
  61   2.0000      -0.419369       -11.4116
  62   2.0000      -0.405747       -11.0409
  63   2.0000      -0.343803        -9.3554
  64   2.0000      -0.332745        -9.0545
  65   2.0000      -0.327887        -8.9223
  66   2.0000      -0.289931        -7.8894
  67   0.0000       0.035296         0.9605
  68   0.0000       0.057622         1.5680
  69   0.0000       0.108780         2.9601
  70   0.0000       0.120842         3.2883
  71   0.0000       0.132073         3.5939

MULLIKEN ATOMIC CHARGES
-----------------------
   0 S :    0.088683
   1 C :   -0.133407
   2 C :   -0.068846
   3 C :    0.088960
   4 C :   -0.159017
   5 H :   -0.054955
   6 C :    0.037328
   7 H :    0.046868
   8 H :    0.061430
   9 C :   -0.079811
  10 H :    0.034335
  11 H :    0.024121
  12 C :   -0.072755
  13 H :    0.032657
  14 H :    0.038043
  15 H :    0.024827
  16 S :    0.147197
  17 C :   -0.120755
  18 C :   -0.035978
  19 C :    0.002753
  20 C :   -0.157204
  21 H :    0.030652
  22 C :    0.037511
  23 H :    0.023439
  24 H :    0.032052
  25 C :   -0.103512
  26 H :    0.024267
  27 H :    0.035958
  28 C :   -0.043057
  29 H :    0.044280
  30 H :    0.023634
  31 H :    0.037806
  32 H :    0.048448
  33 H :    0.064049
Sum of atomic charges:   -0.0000000

LOEWDIN ATOMIC CHARGES
----------------------
   0 S :    0.396367
   1 C :   -0.194396
   2 C :   -0.065318
   3 C :   -0.048683
   4 C :   -0.187029
   5 H :    0.003675
   6 C :   -0.033513
   7 H :    0.040355
   8 H :    0.044803
   9 C :   -0.037734
  10 H :    0.025598
  11 H :    0.014940
  12 C :   -0.067976
  13 H :    0.023342
  14 H :    0.023572
  15 H :    0.019963
  16 S :    0.444405
  17 C :   -0.202570
  18 C :   -0.076842
  19 C :   -0.051822
  20 C :   -0.214199
  21 H :    0.036610
  22 C :   -0.041979
  23 H :    0.030686
  24 H :    0.035093
  25 C :   -0.036540
  26 H :    0.018218
  27 H :    0.022364
  28 C :   -0.062532
  29 H :    0.024899
  30 H :    0.020625
  31 H :    0.032493
  32 H :    0.028605
  33 H :    0.034519

  Mayer bond orders larger than 0.100000
B(  0-S ,  1-C ) :   1.1232 B(  0-S ,  4-C ) :   1.1598 B(  1-C ,  2-C ) :   1.6296
B(  1-C , 32-H ) :   0.9666 B(  2-C ,  3-C ) :   1.2310 B(  2-C ,  6-C ) :   1.0086
B(  3-C ,  4-C ) :   1.5658 B(  3-C ,  5-H ) :   1.0158 B(  4-C , 20-C ) :   1.0095
B(  6-C ,  7-H ) :   0.9438 B(  6-C ,  8-H ) :   0.9469 B(  6-C ,  9-C ) :   1.0376
B(  9-C , 10-H ) :   0.9604 B(  9-C , 11-H ) :   0.9684 B(  9-C , 12-C ) :   1.0522
B( 12-C , 13-H ) :   0.9787 B( 12-C , 14-H ) :   0.9792 B( 12-C , 15-H ) :   0.9810
B( 16-S , 17-C ) :   1.1844 B( 16-S , 20-C ) :   1.1481 B( 17-C , 18-C ) :   1.6096
B( 17-C , 33-H ) :   0.9595 B( 18-C , 19-C ) :   1.2340 B( 18-C , 21-H ) :   0.9869
B( 19-C , 20-C ) :   1.5834 B( 19-C , 22-C ) :   1.0677 B( 22-C , 23-H ) :   0.9262
B( 22-C , 24-H ) :   0.9338 B( 22-C , 25-C ) :   1.0556 B( 25-C , 26-H ) :   0.9553
B( 25-C , 27-H ) :   0.9575 B( 25-C , 28-C ) :   1.0798 B( 28-C , 29-H ) :   0.9787
B( 28-C , 30-H ) :   0.9741 B( 28-C , 31-H ) :   0.9741

Dispersion correction           -0.013494775
FINAL SINGLE POINT ENERGY     -1339.854500888853

DIPOLE MOMENT
-------------
                                X             Y             Z
Electronic contribution:    -11.86973      25.99186       4.78217
Nuclear contribution   :     12.27736     -26.35200      -5.18502
                        -----------------------------------------
Total Dipole Moment    :      0.40763      -0.36014      -0.40285
                        -----------------------------------------
Magnitude (a.u.)       :      0.67687
Magnitude (Debye)      :      1.72047

Rotational constants in cm-1:     0.018664     0.007844     0.006060
Rotational constants in MHz :   559.524390   235.156340   181.667143

                             ****ORCA TERMINATED NORMALLY****
TOTAL RUN TIME: 0 days 0 hours 0 minutes 33 seconds 875 msec
