                         Program Version 4.2.1 -  RELEASE  -
|  1> ! wB97X-D3 SP def2-SVP
|  2> %pal
|  3> nprocs 16
|  4> end
|  5>
|  6> * xyz 0 1
|  7> S 	 -14.8287 	 39.1741 	 33.8851
|  8> C 	 -15.5829 	 39.5313 	 35.502
|  9> C 	 -15.3442 	 38.4363 	 36.3809
| 10> C 	 -14.664 	 37.3264 	 35.7878
| 11> C 	 -14.4436 	 37.546 	 34.4249
| 12> H 	 -14.4016 	 36.3914 	 36.1018
| 13> C 	 -15.7923 	 38.3394 	 37.878
| 14> H 	 -15.4578 	 37.4025 	 38.2893
| 15> H 	 -16.858 	 38.3297 	 37.9191
| 16> C 	 -15.3791 	 39.4295 	 38.7382
| 17> H 	 -15.8233 	 40.3225 	 38.2913
| 18> H 	 -15.7917 	 39.2572 	 39.6961
| 19> C 	 -13.8564 	 39.6271 	 38.7924
| 20> H 	 -13.3953 	 38.7028 	 38.8654
| 21> H 	 -13.3581 	 40.0194 	 37.8574
| 22> H 	 -13.447 	 40.1591 	 39.6358
| 23> S 	 -12.0553 	 37.3951 	 33.0278
| 24> C 	 -11.5101 	 35.8702 	 32.3802
| 25> C 	 -12.3268 	 34.7878 	 32.8066
| 26> C 	 -13.5096 	 35.2451 	 33.511
| 27> C 	 -13.5455 	 36.6193 	 33.6519
| 28> H 	 -12.0177 	 33.7843 	 32.6054
| 29> C 	 -14.6612 	 34.2456 	 33.7934
| 30> H 	 -14.6985 	 33.473 	 32.9532
| 31> H 	 -15.6439 	 34.7861 	 34.0043
| 32> C 	 -14.5828 	 33.3675 	 35.1377
| 33> H 	 -15.5226 	 32.7723 	 35.1188
| 34> H 	 -14.4476 	 33.9322 	 35.9644
| 35> C 	 -13.3963 	 32.3675 	 35.2332
| 36> H 	 -13.3159 	 31.8278 	 36.1792
| 37> H 	 -12.443 	 32.8607 	 35.0681
| 38> H 	 -13.5056 	 31.6323 	 34.484
| 39> H 	 -16.1665 	 40.3909 	 35.7872
| 40> H 	 -10.541 	 35.8249 	 31.8444
| 41> *
| 42>
| 43>                          ****END OF INPUT****

CARTESIAN COORDINATES (ANGSTROEM)
---------------------------------
  S    -14.828700   39.174100   33.885100
  C    -15.582900   39.531300   35.502000
  C    -15.344200   38.436300   36.380900
  C    -14.664000   37.326400   35.787800
  C    -14.443600   37.546000   34.424900
  H    -14.401600   36.391400   36.101800
  C    -15.792300   38.339400   37.878000
  H    -15.457800   37.402500   38.289300
  H    -16.858000   38.329700   37.919100
  C    -15.379100   39.429500   38.738200
  H    -15.823300   40.322500   38.291300
  H    -15.791700   39.257200   39.696100
  C    -13.856400   39.627100   38.792400
  H    -13.395300   38.702800   38.865400
  H    -13.358100   40.019400   37.857400
  H    -13.447000   40.159100   39.635800
  S    -12.055300   37.395100   33.027800
  C    -11.510100   35.870200   32.380200
  C    -12.326800   34.787800   32.806600
  C    -13.509600   35.245100   33.511000
  C    -13.545500   36.619300   33.651900
  H    -12.017700   33.784300   32.605400
  C    -14.661200   34.245600   33.793400
  H    -14.698500   33.473000   32.953200
  H    -15.643900   34.786100   34.004300
  C    -14.582800   33.367500   35.137700
  H    -15.522600   32.772300   35.118800
  H    -14.447600   33.932200   35.964400
  C    -13.396300   32.367500   35.233200
  H    -13.315900   31.827800   36.179200
  H    -12.443000   32.860700   35.068100
  H    -13.505600   31.632300   34.484000
  H    -16.166500   40.390900   35.787200
  H    -10.541000   35.824900   31.844400

 Total Charge           Charge          ....    0
 Multiplicity           Mult            ....    1
 Number of Electrons    NEL             ....  134
 Basis Dimension        Dim             ....  322

ORBITAL ENERGIES
----------------

  NO   OCC          E(Eh)            E(eV)
   0   2.0000     -88.974926     -2421.1308
   1   2.0000     -88.965084     -2420.8630
   2   2.0000     -10.335314      -281.2382
   3   2.0000     -10.333432      -281.1870
   4   2.0000     -10.325502      -280.9712
   5   2.0000     -10.323891      -280.9274
   6   2.0000     -10.312832      -280.6264
   7   2.0000     -10.310942      -280.5750
   8   2.0000     -10.310847      -280.5724
   9   2.0000     -10.300834      -280.2999
  10   2.0000     -10.292511      -280.0735
  11   2.0000     -10.287240      -279.9300
  12   2.0000     -10.285815      -279.8913
  13   2.0000     -10.278619      -279.6955
  14   2.0000     -10.272536      -279.5299
  15   2.0000     -10.267754      -279.3998
  16   2.0000      -8.087794      -220.0801
  17   2.0000      -8.079507      -219.8546
  18   2.0000      -6.046387      -164.5306
  19   2.0000      -6.042592      -164.4273
  20   2.0000      -6.038539      -164.3170
  21   2.0000      -6.037935      -164.3006
  22   2.0000      -6.034133      -164.1971
  23   2.0000      -6.030284      -164.0924
  24   2.0000      -0.997712       -27.1491
  25   2.0000      -0.974085       -26.5062
  26   2.0000      -0.921883       -25.0857
  27   2.0000      -0.898502       -24.4495
  28   2.0000      -0.859300       -23.3827
  29   2.0000      -0.850814       -23.1518
  30   2.0000      -0.844011       -22.9667
  31   2.0000      -0.807084       -21.9619
  32   2.0000      -0.786400       -21.3990
  33   2.0000      -0.775161       -21.0932
  34   2.0000      -0.708501       -19.2793
  35   2.0000      -0.701297       -19.0833
  36   2.0000      -0.683880       -18.6093
  37   2.0000      -0.664964       -18.0946
  38   2.0000      -0.645895       -17.5757
  39   2.0000      -0.607170       -16.5219
  40   2.0000      -0.594344       -16.1729
  41   2.0000      -0.578684       -15.7468
  42   2.0000      -0.558660       -15.2019
  43   2.0000      -0.554028       -15.0759
  44   2.0000      -0.545576       -14.8459
  45   2.0000      -0.531768       -14.4702
  46   2.0000      -0.514695       -14.0056
  47   2.0000      -0.512360       -13.9420
  48   2.0000      -0.496544       -13.5116
  49   2.0000      -0.494631       -13.4596
  50   2.0000      -0.483433       -13.1549
  51   2.0000      -0.479050       -13.0356
  52   2.0000      -0.472836       -12.8665
  53   2.0000      -0.463854       -12.6221
  54   2.0000      -0.461687       -12.5632
  55   2.0000      -0.447899       -12.1879
  56   2.0000      -0.442165       -12.0319
  57   2.0000      -0.437813       -11.9135
  58   2.0000      -0.430556       -11.7160
  59   2.0000      -0.422805       -11.5051
  60   2.0000      -0.421076       -11.4581
  61   2.0000      -0.417009       -11.3474
  62   2.0000      -0.414602       -11.2819
  63   2.0000      -0.343838        -9.3563
  64   2.0000      -0.334516        -9.1026
  65   2.0000      -0.328716        -8.9448
  66   2.0000      -0.291603        -7.9349
  67   0.0000       0.023256         0.6328
  68   0.0000       0.062290         1.6950
  69   0.0000       0.099576         2.7096
  70   0.0000       0.113404         3.0859
  71   0.0000       0.125273         3.4089

MULLIKEN ATOMIC CHARGES
-----------------------
   0 S :    0.109359
   1 C :   -0.123809
   2 C :   -0.081593
   3 C :    0.078204
   4 C :   -0.146855
   5 H :   -0.039956
   6 C :    0.094587
   7 H :    0.008972
   8 H :    0.028411
   9 C :   -0.043176
  10 H :    0.019906
  11 H :    0.022113
  12 C :   -0.039395
  13 H :   -0.005300
  14 H :    0.045406
  15 H :    0.028962
  16 S :    0.095079
  17 C :   -0.119043
  18 C :   -0.029060
  19 C :   -0.018066
  20 C :   -0.149523
  21 H :    0.018633
  22 C :   -0.010151
  23 H :    0.049404
  24 H :    0.056622
  25 C :   -0.053421
  26 H :    0.042293
  27 H :    0.015504
  28 C :   -0.064353
  29 H :    0.036124
  30 H :    0.032522
  31 H :    0.012055
  32 H :    0.053255
  33 H :    0.076293
Sum of atomic charges:    0.0000000

LOEWDIN ATOMIC CHARGES
----------------------
   0 S :    0.387214
   1 C :   -0.188166
   2 C :   -0.044477
   3 C :   -0.049229
   4 C :   -0.186464
   5 H :    0.016010
   6 C :   -0.025618
   7 H :    0.023022
   8 H :    0.031930
   9 C :   -0.037977
  10 H :    0.023082
  11 H :    0.023090
  12 C :   -0.070842
  13 H :    0.012929
  14 H :    0.037653
  15 H :    0.024294
  16 S :    0.388494
  17 C :   -0.190492
  18 C :   -0.067865
  19 C :   -0.069133
  20 C :   -0.178831
  21 H :    0.027487
  22 C :   -0.034000
  23 H :    0.039830
  24 H :    0.043589
  25 C :   -0.029508
  26 H :    0.030942
  27 H :    0.003424
  28 C :   -0.068784
  29 H :    0.028037
  30 H :    0.023774
  31 H :    0.013816
  32 H :    0.028515
  33 H :    0.034254

  Mayer bond orders larger than 0.100000
B(  0-S ,  1-C ) :   1.1181 B(  0-S ,  4-C ) :   1.1600 B(  1-C ,  2-C ) :   1.6007
B(  1-C ,  4-C ) :   0.1007 B(  1-C , 32-H ) :   0.9722 B(  2-C ,  3-C ) :   1.2261
B(  2-C ,  6-C ) :   1.0020 B(  3-C ,  4-C ) :   1.5595 B(  3-C ,  5-H ) :   1.0092
B(  4-C , 20-C ) :   1.0103 B(  6-C ,  7-H ) :   0.9426 B(  6-C ,  8-H ) :   0.9343
B(  6-C ,  9-C ) :   1.1003 B(  9-C , 10-H ) :   0.9522 B(  9-C , 11-H ) :   0.9499
B(  9-C , 12-C ) :   1.0726 B( 12-C , 13-H ) :   0.9723 B( 12-C , 14-H ) :   0.9684
B( 12-C , 15-H ) :   0.9763 B( 16-S , 17-C ) :   1.1598 B( 16-S , 20-C ) :   1.1356
B( 17-C , 18-C ) :   1.6040 B( 17-C , 33-H ) :   0.9647 B( 18-C , 19-C ) :   1.2161
B( 18-C , 21-H ) :   0.9943 B( 19-C , 20-C ) :   1.6370 B( 19-C , 22-C ) :   1.0238
B( 22-C , 23-H ) :   0.9474 B( 22-C , 24-H ) :   0.9423 B( 22-C , 25-C ) :   1.0563
B( 25-C , 26-H ) :   0.9596 B( 25-C , 27-H ) :   0.9587 B( 25-C , 28-C ) :   1.0744
B( 28-C , 29-H ) :   0.9751 B( 28-C , 30-H ) :   0.9737 B( 28-C , 31-H ) :   0.9779

Dispersion correction           -0.014614252
FINAL SINGLE POINT ENERGY     -1339.846336407088

DIPOLE MOMENT
-------------
                                X             Y             Z
Electronic contribution:      4.44284      13.21692     -20.94991
Nuclear contribution   :     -4.55095     -13.66329      21.48500
                        -----------------------------------------
Total Dipole Moment    :     -0.10811      -0.44637       0.53509
                        -----------------------------------------
Magnitude (a.u.)       :      0.70517
Magnitude (Debye)      :      1.79239

Rotational constants in cm-1:     0.018416     0.008653     0.006925
Rotational constants in MHz :   552.098577   259.401749   207.595402

                             ****ORCA TERMINATED NORMALLY****
TOTAL RUN TIME: 0 days 0 hours 0 minutes 32 seconds 248 msec
