                         Program Version 4.2.1 -  RELEASE  -
|  1> ! wB97X-D3 SP def2-SVP
|  2> %pal
|  3> nprocs 16
|  4> end
|  5>
|  6> * xyz 0 1
|  7> S 	 -17.9269 	 -5.36083 	 88.0864
|  8> C 	 -17.2577 	 -4.10934 	 87.0722
|  9> C 	 -16.8848 	 -3.00665 	 87.7619
| 10> C 	 -17.0981 	 -3.14308 	 89.1612
| 11> C 	 -17.5723 	 -4.37534 	 89.5337
| 12> H 	 -16.9683 	 -2.41974 	 89.9379
| 13> C 	 -16.4045 	 -1.68945 	 87.0817
| 14> H 	 -16.5631 	 -0.865924 	 87.7633
| 15> H 	 -17.2291 	 -1.57981 	 86.3587
| 16> C 	 -15.0783 	 -1.64673 	 86.3527
| 17> H 	 -15.0675 	 -2.42102 	 85.5906
| 18> H 	 -14.9175 	 -0.809452 	 85.7521
| 19> C 	 -13.8217 	 -1.78642 	 87.243
| 20> H 	 -12.9569 	 -2.02147 	 86.5704
| 21> H 	 -13.6502 	 -0.894994 	 87.8867
| 22> H 	 -14.0001 	 -2.51825 	 88.0308
| 23> S 	 -16.5632 	 -4.96913 	 91.94
| 24> C 	 -17.4802 	 -5.7923 	 93.149
| 25> C 	 -18.802 	 -5.91579 	 92.767
| 26> C 	 -19.0178 	 -5.32873 	 91.4884
| 27> C 	 -17.874 	 -4.79512 	 90.8888
| 28> H 	 -19.4373 	 -6.41162 	 93.4865
| 29> C 	 -20.4102 	 -5.19121 	 90.8849
| 30> H 	 -21.0318 	 -5.86399 	 91.449
| 31> H 	 -20.4138 	 -5.52325 	 89.8072
| 32> C 	 -21.06 	 -3.8225 	 90.8683
| 33> H 	 -20.3771 	 -3.10993 	 90.4658
| 34> H 	 -21.1857 	 -3.52384 	 91.9375
| 35> C 	 -22.3229 	 -3.9291 	 90.0096
| 36> H 	 -23.211 	 -4.01048 	 90.6189
| 37> H 	 -22.2953 	 -4.64536 	 89.2257
| 38> H 	 -22.402 	 -2.95277 	 89.6439
| 39> H 	 -17.1889 	 -4.07696 	 85.971
| 40> H 	 -17.1249 	 -6.27291 	 94.0662
| 41> *
| 42>
| 43>                          ****END OF INPUT****

CARTESIAN COORDINATES (ANGSTROEM)
---------------------------------
  S    -17.926900   -5.360830   88.086400
  C    -17.257700   -4.109340   87.072200
  C    -16.884800   -3.006650   87.761900
  C    -17.098100   -3.143080   89.161200
  C    -17.572300   -4.375340   89.533700
  H    -16.968300   -2.419740   89.937900
  C    -16.404500   -1.689450   87.081700
  H    -16.563100   -0.865924   87.763300
  H    -17.229100   -1.579810   86.358700
  C    -15.078300   -1.646730   86.352700
  H    -15.067500   -2.421020   85.590600
  H    -14.917500   -0.809452   85.752100
  C    -13.821700   -1.786420   87.243000
  H    -12.956900   -2.021470   86.570400
  H    -13.650200   -0.894994   87.886700
  H    -14.000100   -2.518250   88.030800
  S    -16.563200   -4.969130   91.940000
  C    -17.480200   -5.792300   93.149000
  C    -18.802000   -5.915790   92.767000
  C    -19.017800   -5.328730   91.488400
  C    -17.874000   -4.795120   90.888800
  H    -19.437300   -6.411620   93.486500
  C    -20.410200   -5.191210   90.884900
  H    -21.031800   -5.863990   91.449000
  H    -20.413800   -5.523250   89.807200
  C    -21.060000   -3.822500   90.868300
  H    -20.377100   -3.109930   90.465800
  H    -21.185700   -3.523840   91.937500
  C    -22.322900   -3.929100   90.009600
  H    -23.211000   -4.010480   90.618900
  H    -22.295300   -4.645360   89.225700
  H    -22.402000   -2.952770   89.643900
  H    -17.188900   -4.076960   85.971000
  H    -17.124900   -6.272910   94.066200

 Total Charge           Charge          ....    0
 Multiplicity           Mult            ....    1
 Number of Electrons    NEL             ....  134
 Basis Dimension        Dim             ....  322

ORBITAL ENERGIES
----------------

  NO   OCC          E(Eh)            E(eV)
   0   2.0000     -88.969485     -2420.9828
   1   2.0000     -88.964958     -2420.8596
   2   2.0000     -10.330572      -281.1092
   3   2.0000     -10.319381      -280.8046
   4   2.0000     -10.313884      -280.6551
   5   2.0000     -10.312179      -280.6087
   6   2.0000     -10.301041      -280.3056
   7   2.0000     -10.299827      -280.2725
   8   2.0000     -10.295070      -280.1431
   9   2.0000     -10.292623      -280.0765
  10   2.0000     -10.292061      -280.0612
  11   2.0000     -10.282741      -279.8076
  12   2.0000     -10.282664      -279.8055
  13   2.0000     -10.279928      -279.7311
  14   2.0000     -10.277824      -279.6738
  15   2.0000     -10.265385      -279.3353
  16   2.0000      -8.083229      -219.9558
  17   2.0000      -8.081025      -219.8959
  18   2.0000      -6.041897      -164.4084
  19   2.0000      -6.039326      -164.3384
  20   2.0000      -6.037924      -164.3003
  21   2.0000      -6.035064      -164.2224
  22   2.0000      -6.033823      -164.1887
  23   2.0000      -6.032190      -164.1442
  24   2.0000      -1.012828       -27.5604
  25   2.0000      -0.988955       -26.9108
  26   2.0000      -0.909979       -24.7618
  27   2.0000      -0.909097       -24.7378
  28   2.0000      -0.874734       -23.8027
  29   2.0000      -0.851552       -23.1719
  30   2.0000      -0.845745       -23.0139
  31   2.0000      -0.818542       -22.2737
  32   2.0000      -0.781849       -21.2752
  33   2.0000      -0.768965       -20.9246
  34   2.0000      -0.708351       -19.2752
  35   2.0000      -0.705825       -19.2065
  36   2.0000      -0.690415       -18.7872
  37   2.0000      -0.662905       -18.0386
  38   2.0000      -0.638917       -17.3858
  39   2.0000      -0.614421       -16.7192
  40   2.0000      -0.592011       -16.1094
  41   2.0000      -0.575773       -15.6676
  42   2.0000      -0.563846       -15.3430
  43   2.0000      -0.555492       -15.1157
  44   2.0000      -0.541278       -14.7289
  45   2.0000      -0.521171       -14.1818
  46   2.0000      -0.514242       -13.9932
  47   2.0000      -0.510494       -13.8912
  48   2.0000      -0.508737       -13.8434
  49   2.0000      -0.494839       -13.4652
  50   2.0000      -0.488485       -13.2924
  51   2.0000      -0.483044       -13.1443
  52   2.0000      -0.472130       -12.8473
  53   2.0000      -0.469927       -12.7874
  54   2.0000      -0.461974       -12.5710
  55   2.0000      -0.446439       -12.1482
  56   2.0000      -0.442392       -12.0381
  57   2.0000      -0.435944       -11.8626
  58   2.0000      -0.434006       -11.8099
  59   2.0000      -0.424483       -11.5508
  60   2.0000      -0.413146       -11.2423
  61   2.0000      -0.411629       -11.2010
  62   2.0000      -0.408989       -11.1292
  63   2.0000      -0.346386        -9.4256
  64   2.0000      -0.334685        -9.1072
  65   2.0000      -0.326465        -8.8836
  66   2.0000      -0.295847        -8.0504
  67   0.0000       0.033951         0.9238
  68   0.0000       0.064689         1.7603
  69   0.0000       0.108850         2.9620
  70   0.0000       0.128569         3.4985
  71   0.0000       0.131691         3.5835

MULLIKEN ATOMIC CHARGES
-----------------------
   0 S :    0.125068
   1 C :   -0.129487
   2 C :   -0.079835
   3 C :    0.018200
   4 C :   -0.131564
   5 H :    0.004894
   6 C :    0.062765
   7 H :    0.016818
   8 H :    0.031678
   9 C :   -0.012693
  10 H :    0.009612
  11 H :    0.013964
  12 C :   -0.074055
  13 H :    0.050676
  14 H :    0.028391
  15 H :    0.033601
  16 S :    0.128858
  17 C :   -0.108651
  18 C :   -0.045054
  19 C :   -0.036949
  20 C :   -0.169016
  21 H :    0.019363
  22 C :    0.037270
  23 H :    0.008380
  24 H :    0.022259
  25 C :   -0.065330
  26 H :    0.020667
  27 H :    0.028103
  28 C :    0.012144
  29 H :    0.026865
  30 H :    0.032558
  31 H :    0.011225
  32 H :    0.050229
  33 H :    0.059048
Sum of atomic charges:   -0.0000000

LOEWDIN ATOMIC CHARGES
----------------------
   0 S :    0.399292
   1 C :   -0.201070
   2 C :   -0.068128
   3 C :   -0.061285
   4 C :   -0.182088
   5 H :    0.028916
   6 C :   -0.029619
   7 H :    0.026126
   8 H :    0.037932
   9 C :   -0.041404
  10 H :    0.022312
  11 H :    0.018931
  12 C :   -0.070711
  13 H :    0.034350
  14 H :    0.026397
  15 H :    0.025128
  16 S :    0.455282
  17 C :   -0.201080
  18 C :   -0.074793
  19 C :   -0.059476
  20 C :   -0.228850
  21 H :    0.034893
  22 C :   -0.037979
  23 H :    0.022605
  24 H :    0.025456
  25 C :   -0.035926
  26 H :    0.016995
  27 H :    0.027997
  28 C :   -0.054585
  29 H :    0.027908
  30 H :    0.022533
  31 H :    0.023619
  32 H :    0.035491
  33 H :    0.034830

  Mayer bond orders larger than 0.100000
B(  0-S ,  1-C ) :   1.1324 B(  0-S ,  4-C ) :   1.1234 B(  1-C ,  2-C ) :   1.6554
B(  1-C , 32-H ) :   0.9567 B(  2-C ,  3-C ) :   1.2145 B(  2-C ,  6-C ) :   0.9884
B(  3-C ,  4-C ) :   1.5902 B(  3-C ,  5-H ) :   1.0012 B(  4-C , 20-C ) :   1.0424
B(  6-C ,  7-H ) :   0.9495 B(  6-C ,  8-H ) :   0.9390 B(  6-C ,  9-C ) :   1.0803
B(  9-C , 10-H ) :   0.9513 B(  9-C , 11-H ) :   0.9505 B(  9-C , 12-C ) :   1.0707
B( 12-C , 13-H ) :   0.9746 B( 12-C , 14-H ) :   0.9740 B( 12-C , 15-H ) :   0.9792
B( 16-S , 17-C ) :   1.1850 B( 16-S , 20-C ) :   1.1676 B( 17-C , 18-C ) :   1.5805
B( 17-C , 33-H ) :   0.9630 B( 18-C , 19-C ) :   1.2650 B( 18-C , 21-H ) :   0.9982
B( 19-C , 20-C ) :   1.5401 B( 19-C , 22-C ) :   1.0480 B( 22-C , 23-H ) :   0.9343
B( 22-C , 24-H ) :   0.9323 B( 22-C , 25-C ) :   1.0712 B( 25-C , 26-H ) :   0.9630
B( 25-C , 27-H ) :   0.9491 B( 25-C , 28-C ) :   1.0661 B( 28-C , 29-H ) :   0.9733
B( 28-C , 30-H ) :   0.9773 B( 28-C , 31-H ) :   0.9712

Dispersion correction           -0.014437076
FINAL SINGLE POINT ENERGY     -1339.871261331643

DIPOLE MOMENT
-------------
                                X             Y             Z
Electronic contribution:      5.56202     -14.06556       8.80598
Nuclear contribution   :     -5.79462      14.41569      -8.86386
                        -----------------------------------------
Total Dipole Moment    :     -0.23260       0.35013      -0.05789
                        -----------------------------------------
Magnitude (a.u.)       :      0.42431
Magnitude (Debye)      :      1.07852

Rotational constants in cm-1:     0.019926     0.008402     0.006810
Rotational constants in MHz :   597.366553   251.884107   204.161105

                             ****ORCA TERMINATED NORMALLY****
TOTAL RUN TIME: 0 days 0 hours 0 minutes 32 seconds 225 msec
