                         Program Version 4.2.1 -  RELEASE  -
|  1> ! wB97X-D3 SP def2-SVP
|  2> %pal
|  3> nprocs 16
|  4> end
|  5>
|  6> * xyz 0 1
|  7> S 	 -16.1993 	 -7.43164 	 87.0287
|  8> C 	 -15.7901 	 -6.02743 	 86.045
|  9> C 	 -15.2854 	 -5.00346 	 86.8496
| 10> C 	 -15.388 	 -5.28948 	 88.2321
| 11> C 	 -15.9535 	 -6.55996 	 88.5129
| 12> H 	 -15.0443 	 -4.79319 	 89.1231
| 13> C 	 -14.8589 	 -3.64059 	 86.3663
| 14> H 	 -14.4486 	 -3.13866 	 87.2095
| 15> H 	 -15.6941 	 -3.02621 	 86.14
| 16> C 	 -13.9861 	 -3.61622 	 85.0387
| 17> H 	 -13.121 	 -4.34648 	 85.0547
| 18> H 	 -14.5135 	 -4.06819 	 84.2135
| 19> C 	 -13.5892 	 -2.12416 	 84.5659
| 20> H 	 -14.4849 	 -1.52436 	 84.7295
| 21> H 	 -12.7726 	 -1.77805 	 85.1429
| 22> H 	 -13.2957 	 -2.18393 	 83.4749
| 23> S 	 -15.1675 	 -8.77936 	 89.9336
| 24> C 	 -15.478 	 -8.78977 	 91.6254
| 25> C 	 -15.9754 	 -7.60462 	 92.1131
| 26> C 	 -16.1073 	 -6.64974 	 91.0484
| 27> C 	 -15.9069 	 -7.21234 	 89.824
| 28> H 	 -16.1156 	 -7.44682 	 93.1788
| 29> C 	 -16.7708 	 -5.30028 	 91.356
| 30> H 	 -17.8069 	 -5.43053 	 91.5866
| 31> H 	 -16.8328 	 -4.65095 	 90.4898
| 32> C 	 -16.2081 	 -4.43622 	 92.561
| 33> H 	 -15.1637 	 -4.22394 	 92.4714
| 34> H 	 -16.1343 	 -5.02278 	 93.5179
| 35> C 	 -16.945 	 -3.13879 	 92.8002
| 36> H 	 -17.9672 	 -3.26082 	 93.0697
| 37> H 	 -16.7722 	 -2.44801 	 91.9525
| 38> H 	 -16.482 	 -2.76692 	 93.6589
| 39> H 	 -15.9537 	 -5.92109 	 84.9887
| 40> H 	 -15.1843 	 -9.62398 	 92.2691
| 41> *
| 42>
| 43>                          ****END OF INPUT****

CARTESIAN COORDINATES (ANGSTROEM)
---------------------------------
  S    -16.199300   -7.431640   87.028700
  C    -15.790100   -6.027430   86.045000
  C    -15.285400   -5.003460   86.849600
  C    -15.388000   -5.289480   88.232100
  C    -15.953500   -6.559960   88.512900
  H    -15.044300   -4.793190   89.123100
  C    -14.858900   -3.640590   86.366300
  H    -14.448600   -3.138660   87.209500
  H    -15.694100   -3.026210   86.140000
  C    -13.986100   -3.616220   85.038700
  H    -13.121000   -4.346480   85.054700
  H    -14.513500   -4.068190   84.213500
  C    -13.589200   -2.124160   84.565900
  H    -14.484900   -1.524360   84.729500
  H    -12.772600   -1.778050   85.142900
  H    -13.295700   -2.183930   83.474900
  S    -15.167500   -8.779360   89.933600
  C    -15.478000   -8.789770   91.625400
  C    -15.975400   -7.604620   92.113100
  C    -16.107300   -6.649740   91.048400
  C    -15.906900   -7.212340   89.824000
  H    -16.115600   -7.446820   93.178800
  C    -16.770800   -5.300280   91.356000
  H    -17.806900   -5.430530   91.586600
  H    -16.832800   -4.650950   90.489800
  C    -16.208100   -4.436220   92.561000
  H    -15.163700   -4.223940   92.471400
  H    -16.134300   -5.022780   93.517900
  C    -16.945000   -3.138790   92.800200
  H    -17.967200   -3.260820   93.069700
  H    -16.772200   -2.448010   91.952500
  H    -16.482000   -2.766920   93.658900
  H    -15.953700   -5.921090   84.988700
  H    -15.184300   -9.623980   92.269100

 Total Charge           Charge          ....    0
 Multiplicity           Mult            ....    1
 Number of Electrons    NEL             ....  134
 Basis Dimension        Dim             ....  322

ORBITAL ENERGIES
----------------

  NO   OCC          E(Eh)            E(eV)
   0   2.0000     -88.968946     -2420.9681
   1   2.0000     -88.966009     -2420.8882
   2   2.0000     -10.329142      -281.0703
   3   2.0000     -10.323449      -280.9153
   4   2.0000     -10.314786      -280.6796
   5   2.0000     -10.313790      -280.6525
   6   2.0000     -10.303535      -280.3734
   7   2.0000     -10.301615      -280.3212
   8   2.0000     -10.296475      -280.1813
   9   2.0000     -10.293323      -280.0955
  10   2.0000     -10.292964      -280.0858
  11   2.0000     -10.291005      -280.0325
  12   2.0000     -10.290554      -280.0202
  13   2.0000     -10.289115      -279.9811
  14   2.0000     -10.286907      -279.9210
  15   2.0000     -10.273935      -279.5680
  16   2.0000      -8.083213      -219.9554
  17   2.0000      -8.081756      -219.9158
  18   2.0000      -6.041696      -164.4029
  19   2.0000      -6.040182      -164.3617
  20   2.0000      -6.037698      -164.2941
  21   2.0000      -6.036310      -164.2563
  22   2.0000      -6.034134      -164.1971
  23   2.0000      -6.032345      -164.1485
  24   2.0000      -1.010762       -27.5042
  25   2.0000      -0.985037       -26.8042
  26   2.0000      -0.905855       -24.6496
  27   2.0000      -0.903231       -24.5782
  28   2.0000      -0.865693       -23.5567
  29   2.0000      -0.858205       -23.3529
  30   2.0000      -0.844993       -22.9934
  31   2.0000      -0.810459       -22.0537
  32   2.0000      -0.784101       -21.3365
  33   2.0000      -0.773036       -21.0354
  34   2.0000      -0.711550       -19.3623
  35   2.0000      -0.703341       -19.1389
  36   2.0000      -0.692326       -18.8391
  37   2.0000      -0.662841       -18.0368
  38   2.0000      -0.641175       -17.4473
  39   2.0000      -0.614084       -16.7101
  40   2.0000      -0.600143       -16.3307
  41   2.0000      -0.567131       -15.4324
  42   2.0000      -0.560099       -15.2411
  43   2.0000      -0.551431       -15.0052
  44   2.0000      -0.527918       -14.3654
  45   2.0000      -0.526559       -14.3284
  46   2.0000      -0.519561       -14.1380
  47   2.0000      -0.511820       -13.9273
  48   2.0000      -0.499875       -13.6023
  49   2.0000      -0.498885       -13.5753
  50   2.0000      -0.496442       -13.5089
  51   2.0000      -0.480082       -13.0637
  52   2.0000      -0.476121       -12.9559
  53   2.0000      -0.463188       -12.6040
  54   2.0000      -0.459344       -12.4994
  55   2.0000      -0.455399       -12.3920
  56   2.0000      -0.444806       -12.1038
  57   2.0000      -0.439379       -11.9561
  58   2.0000      -0.433243       -11.7891
  59   2.0000      -0.423963       -11.5366
  60   2.0000      -0.422857       -11.5065
  61   2.0000      -0.414874       -11.2893
  62   2.0000      -0.414454       -11.2779
  63   2.0000      -0.351848        -9.5743
  64   2.0000      -0.332290        -9.0421
  65   2.0000      -0.330572        -8.9953
  66   2.0000      -0.285486        -7.7685
  67   0.0000       0.026227         0.7137
  68   0.0000       0.073735         2.0064
  69   0.0000       0.108008         2.9391
  70   0.0000       0.119539         3.2528
  71   0.0000       0.131281         3.5723

MULLIKEN ATOMIC CHARGES
-----------------------
   0 S :    0.108001
   1 C :   -0.122244
   2 C :   -0.065213
   3 C :    0.012563
   4 C :   -0.163544
   5 H :    0.018116
   6 C :    0.105366
   7 H :    0.010384
   8 H :    0.028109
   9 C :   -0.130641
  10 H :    0.036791
  11 H :    0.020820
  12 C :   -0.051483
  13 H :    0.036214
  14 H :    0.040107
  15 H :    0.048512
  16 S :    0.115612
  17 C :   -0.098437
  18 C :   -0.025756
  19 C :   -0.025576
  20 C :   -0.124312
  21 H :    0.025632
  22 C :    0.058563
  23 H :    0.028936
  24 H :    0.009124
  25 C :   -0.122443
  26 H :    0.015494
  27 H :    0.021565
  28 C :   -0.001732
  29 H :    0.028314
  30 H :    0.041040
  31 H :    0.015490
  32 H :    0.048002
  33 H :    0.058627
Sum of atomic charges:   -0.0000000

LOEWDIN ATOMIC CHARGES
----------------------
   0 S :    0.412247
   1 C :   -0.196898
   2 C :   -0.059314
   3 C :   -0.064108
   4 C :   -0.195544
   5 H :    0.030770
   6 C :   -0.029524
   7 H :    0.026166
   8 H :    0.030623
   9 C :   -0.045237
  10 H :    0.027477
  11 H :    0.016442
  12 C :   -0.061328
  13 H :    0.025214
  14 H :    0.019519
  15 H :    0.035903
  16 S :    0.419123
  17 C :   -0.192346
  18 C :   -0.067336
  19 C :   -0.060905
  20 C :   -0.200739
  21 H :    0.033882
  22 C :   -0.032481
  23 H :    0.031514
  24 H :    0.023948
  25 C :   -0.044559
  26 H :    0.018012
  27 H :    0.023117
  28 C :   -0.056336
  29 H :    0.021951
  30 H :    0.030945
  31 H :    0.023541
  32 H :    0.026468
  33 H :    0.029793

  Mayer bond orders larger than 0.100000
B(  0-S ,  1-C ) :   1.1414 B(  0-S ,  4-C ) :   1.1705 B(  1-C ,  2-C ) :   1.5682
B(  1-C ,  4-C ) :   0.1057 B(  1-C , 32-H ) :   0.9747 B(  2-C ,  3-C ) :   1.2709
B(  2-C ,  6-C ) :   1.0291 B(  3-C ,  4-C ) :   1.5313 B(  3-C ,  5-H ) :   0.9869
B(  4-C , 20-C ) :   1.0443 B(  6-C ,  7-H ) :   0.9439 B(  6-C ,  8-H ) :   0.9312
B(  6-C ,  9-C ) :   1.0408 B(  9-C , 10-H ) :   0.9642 B(  9-C , 11-H ) :   0.9575
B(  9-C , 12-C ) :   1.0639 B( 12-C , 13-H ) :   0.9761 B( 12-C , 14-H ) :   0.9821
B( 12-C , 15-H ) :   0.9777 B( 16-S , 17-C ) :   1.1554 B( 16-S , 20-C ) :   1.1371
B( 17-C , 18-C ) :   1.6252 B( 17-C , 33-H ) :   0.9643 B( 18-C , 19-C ) :   1.2172
B( 18-C , 21-H ) :   0.9926 B( 19-C , 20-C ) :   1.6212 B( 19-C , 22-C ) :   1.0422
B( 22-C , 23-H ) :   0.9398 B( 22-C , 24-H ) :   0.9414 B( 22-C , 25-C ) :   1.0397
B( 25-C , 26-H ) :   0.9548 B( 25-C , 27-H ) :   0.9543 B( 25-C , 28-C ) :   1.0954
B( 28-C , 29-H ) :   0.9726 B( 28-C , 30-H ) :   0.9734 B( 28-C , 31-H ) :   0.9682

Dispersion correction           -0.013297128
FINAL SINGLE POINT ENERGY     -1339.867526323743

DIPOLE MOMENT
-------------
                                X             Y             Z
Electronic contribution:     -2.75684     -29.76442      -1.47184
Nuclear contribution   :      2.85951      30.40164       1.74454
                        -----------------------------------------
Total Dipole Moment    :      0.10268       0.63722       0.27270
                        -----------------------------------------
Magnitude (a.u.)       :      0.70068
Magnitude (Debye)      :      1.78100

Rotational constants in cm-1:     0.017471     0.007923     0.005861
Rotational constants in MHz :   523.764659   237.536718   175.701801

                             ****ORCA TERMINATED NORMALLY****
TOTAL RUN TIME: 0 days 0 hours 0 minutes 33 seconds 238 msec
