                         Program Version 4.2.1 -  RELEASE  -
|  1> ! wB97X-D3 SP def2-SVP
|  2> %pal
|  3> nprocs 16
|  4> end
|  5>
|  6> * xyz 0 1
|  7> S 	 -36.5183 	 59.8113 	 109.154
|  8> C 	 -37.4249 	 58.3183 	 109.337
|  9> C 	 -36.9765 	 57.3687 	 108.397
| 10> C 	 -36.1365 	 57.9442 	 107.421
| 11> C 	 -35.8573 	 59.3002 	 107.569
| 12> H 	 -35.6733 	 57.5195 	 106.478
| 13> C 	 -37.5064 	 56.005 	 108.159
| 14> H 	 -37.2026 	 55.5471 	 107.245
| 15> H 	 -38.5578 	 56.0963 	 107.975
| 16> C 	 -37.2019 	 54.9958 	 109.32
| 17> H 	 -37.5796 	 55.3253 	 110.22
| 18> H 	 -37.8305 	 54.0921 	 109.162
| 19> C 	 -35.7573 	 54.4749 	 109.396
| 20> H 	 -35.4678 	 54.1782 	 108.35
| 21> H 	 -35.0255 	 55.2374 	 109.711
| 22> H 	 -35.5801 	 53.6822 	 110.079
| 23> S 	 -33.5637 	 60.8459 	 107.177
| 24> C 	 -33.1121 	 61.3398 	 105.547
| 25> C 	 -34.1245 	 60.9167 	 104.681
| 26> C 	 -35.2649 	 60.3382 	 105.269
| 27> C 	 -35.0707 	 60.1207 	 106.647
| 28> H 	 -34.0868 	 61.1069 	 103.599
| 29> C 	 -36.4222 	 59.7867 	 104.431
| 30> H 	 -37.0734 	 60.6048 	 104.03
| 31> H 	 -37.2428 	 59.2054 	 104.94
| 32> C 	 -35.9081 	 58.9575 	 103.298
| 33> H 	 -34.8514 	 58.7002 	 103.343
| 34> H 	 -36.1113 	 59.6432 	 102.429
| 35> C 	 -36.6212 	 57.6803 	 103.084
| 36> H 	 -37.6529 	 57.9434 	 103.173
| 37> H 	 -36.5858 	 56.9549 	 103.868
| 38> H 	 -36.3227 	 57.0928 	 102.211
| 39> H 	 -38.0949 	 58.0753 	 110.107
| 40> H 	 -32.1189 	 61.6983 	 105.223
| 41> *
| 42>
| 43>                          ****END OF INPUT****

CARTESIAN COORDINATES (ANGSTROEM)
---------------------------------
  S    -36.518300   59.811300  109.154000
  C    -37.424900   58.318300  109.337000
  C    -36.976500   57.368700  108.397000
  C    -36.136500   57.944200  107.421000
  C    -35.857300   59.300200  107.569000
  H    -35.673300   57.519500  106.478000
  C    -37.506400   56.005000  108.159000
  H    -37.202600   55.547100  107.245000
  H    -38.557800   56.096300  107.975000
  C    -37.201900   54.995800  109.320000
  H    -37.579600   55.325300  110.220000
  H    -37.830500   54.092100  109.162000
  C    -35.757300   54.474900  109.396000
  H    -35.467800   54.178200  108.350000
  H    -35.025500   55.237400  109.711000
  H    -35.580100   53.682200  110.079000
  S    -33.563700   60.845900  107.177000
  C    -33.112100   61.339800  105.547000
  C    -34.124500   60.916700  104.681000
  C    -35.264900   60.338200  105.269000
  C    -35.070700   60.120700  106.647000
  H    -34.086800   61.106900  103.599000
  C    -36.422200   59.786700  104.431000
  H    -37.073400   60.604800  104.030000
  H    -37.242800   59.205400  104.940000
  C    -35.908100   58.957500  103.298000
  H    -34.851400   58.700200  103.343000
  H    -36.111300   59.643200  102.429000
  C    -36.621200   57.680300  103.084000
  H    -37.652900   57.943400  103.173000
  H    -36.585800   56.954900  103.868000
  H    -36.322700   57.092800  102.211000
  H    -38.094900   58.075300  110.107000
  H    -32.118900   61.698300  105.223000

 Total Charge           Charge          ....    0
 Multiplicity           Mult            ....    1
 Number of Electrons    NEL             ....  134
 Basis Dimension        Dim             ....  322

ORBITAL ENERGIES
----------------

  NO   OCC          E(Eh)            E(eV)
   0   2.0000     -88.967385     -2420.9256
   1   2.0000     -88.967156     -2420.9194
   2   2.0000     -10.331476      -281.1338
   3   2.0000     -10.331329      -281.1297
   4   2.0000     -10.324722      -280.9500
   5   2.0000     -10.316815      -280.7348
   6   2.0000     -10.307197      -280.4731
   7   2.0000     -10.301981      -280.3312
   8   2.0000     -10.296987      -280.1953
   9   2.0000     -10.296832      -280.1911
  10   2.0000     -10.296643      -280.1859
  11   2.0000     -10.288574      -279.9663
  12   2.0000     -10.284448      -279.8540
  13   2.0000     -10.282238      -279.7939
  14   2.0000     -10.278162      -279.6830
  15   2.0000     -10.271730      -279.5080
  16   2.0000      -8.081535      -219.9097
  17   2.0000      -8.081085      -219.8975
  18   2.0000      -6.040049      -164.3581
  19   2.0000      -6.039669      -164.3477
  20   2.0000      -6.035931      -164.2460
  21   2.0000      -6.035668      -164.2389
  22   2.0000      -6.032451      -164.1513
  23   2.0000      -6.031885      -164.1359
  24   2.0000      -1.002548       -27.2807
  25   2.0000      -0.982242       -26.7282
  26   2.0000      -0.921453       -25.0740
  27   2.0000      -0.909191       -24.7403
  28   2.0000      -0.866214       -23.5709
  29   2.0000      -0.854122       -23.2418
  30   2.0000      -0.846394       -23.0315
  31   2.0000      -0.811357       -22.0781
  32   2.0000      -0.784394       -21.3444
  33   2.0000      -0.773808       -21.0564
  34   2.0000      -0.710958       -19.3462
  35   2.0000      -0.700952       -19.0739
  36   2.0000      -0.697958       -18.9924
  37   2.0000      -0.653504       -17.7827
  38   2.0000      -0.643833       -17.5196
  39   2.0000      -0.615535       -16.7496
  40   2.0000      -0.602821       -16.4036
  41   2.0000      -0.575996       -15.6736
  42   2.0000      -0.560515       -15.2524
  43   2.0000      -0.554804       -15.0970
  44   2.0000      -0.541825       -14.7438
  45   2.0000      -0.535038       -14.5591
  46   2.0000      -0.520703       -14.1691
  47   2.0000      -0.512141       -13.9361
  48   2.0000      -0.504784       -13.7359
  49   2.0000      -0.490055       -13.3351
  50   2.0000      -0.486923       -13.2498
  51   2.0000      -0.479815       -13.0564
  52   2.0000      -0.474055       -12.8997
  53   2.0000      -0.468592       -12.7510
  54   2.0000      -0.464498       -12.6396
  55   2.0000      -0.450478       -12.2581
  56   2.0000      -0.443857       -12.0780
  57   2.0000      -0.434206       -11.8153
  58   2.0000      -0.432536       -11.7699
  59   2.0000      -0.424981       -11.5643
  60   2.0000      -0.420102       -11.4316
  61   2.0000      -0.412060       -11.2127
  62   2.0000      -0.395475       -10.7614
  63   2.0000      -0.343050        -9.3349
  64   2.0000      -0.331631        -9.0241
  65   2.0000      -0.328117        -8.9285
  66   2.0000      -0.291531        -7.9330
  67   0.0000       0.028168         0.7665
  68   0.0000       0.054389         1.4800
  69   0.0000       0.114360         3.1119
  70   0.0000       0.119575         3.2538
  71   0.0000       0.121715         3.3120

MULLIKEN ATOMIC CHARGES
-----------------------
   0 S :    0.111769
   1 C :   -0.092040
   2 C :   -0.058875
   3 C :    0.009060
   4 C :   -0.169437
   5 H :    0.035782
   6 C :    0.071302
   7 H :    0.006977
   8 H :    0.030881
   9 C :   -0.055467
  10 H :    0.003338
  11 H :    0.019938
  12 C :   -0.049790
  13 H :    0.027630
  14 H :    0.037938
  15 H :    0.031646
  16 S :    0.109927
  17 C :   -0.100860
  18 C :   -0.047674
  19 C :   -0.016131
  20 C :   -0.173225
  21 H :    0.031212
  22 C :    0.032783
  23 H :    0.041788
  24 H :    0.032937
  25 C :   -0.095705
  26 H :    0.044999
  27 H :    0.035966
  28 C :   -0.027975
  29 H :    0.013364
  30 H :    0.008547
  31 H :    0.040500
  32 H :    0.032920
  33 H :    0.075975
Sum of atomic charges:   -0.0000000

LOEWDIN ATOMIC CHARGES
----------------------
   0 S :    0.391109
   1 C :   -0.183400
   2 C :   -0.065822
   3 C :   -0.065348
   4 C :   -0.188762
   5 H :    0.042850
   6 C :   -0.027937
   7 H :    0.025420
   8 H :    0.035348
   9 C :   -0.034920
  10 H :    0.007426
  11 H :    0.026992
  12 C :   -0.066276
  13 H :    0.029054
  14 H :    0.027893
  15 H :    0.021517
  16 S :    0.406511
  17 C :   -0.192750
  18 C :   -0.072831
  19 C :   -0.054838
  20 C :   -0.199141
  21 H :    0.034458
  22 C :   -0.040144
  23 H :    0.039339
  24 H :    0.034660
  25 C :   -0.052982
  26 H :    0.025290
  27 H :    0.033287
  28 C :   -0.066859
  29 H :    0.021720
  30 H :    0.018585
  31 H :    0.030690
  32 H :    0.019450
  33 H :    0.040409

  Mayer bond orders larger than 0.100000
B(  0-S ,  1-C ) :   1.1509 B(  0-S ,  4-C ) :   1.1354 B(  1-C ,  2-C ) :   1.5737
B(  1-C ,  4-C ) :   0.1124 B(  1-C , 32-H ) :   0.9759 B(  2-C ,  3-C ) :   1.2433
B(  2-C ,  6-C ) :   1.0221 B(  3-C ,  4-C ) :   1.5718 B(  3-C ,  5-H ) :   0.9850
B(  4-C , 20-C ) :   1.0488 B(  6-C ,  7-H ) :   0.9474 B(  6-C ,  8-H ) :   0.9372
B(  6-C ,  9-C ) :   1.0707 B(  9-C , 10-H ) :   0.9608 B(  9-C , 11-H ) :   0.9531
B(  9-C , 12-C ) :   1.0700 B( 12-C , 13-H ) :   0.9741 B( 12-C , 14-H ) :   0.9758
B( 12-C , 15-H ) :   0.9764 B( 16-S , 17-C ) :   1.1542 B( 16-S , 20-C ) :   1.1596
B( 17-C , 18-C ) :   1.5777 B( 17-C , 20-C ) :   0.1052 B( 17-C , 33-H ) :   0.9660
B( 18-C , 19-C ) :   1.2823 B( 18-C , 21-H ) :   0.9772 B( 19-C , 20-C ) :   1.5608
B( 19-C , 22-C ) :   1.0431 B( 22-C , 23-H ) :   0.9332 B( 22-C , 24-H ) :   0.9499
B( 22-C , 25-C ) :   1.0213 B( 25-C , 26-H ) :   0.9665 B( 25-C , 27-H ) :   0.9494
B( 25-C , 28-C ) :   1.1015 B( 28-C , 29-H ) :   0.9671 B( 28-C , 30-H ) :   0.9677
B( 28-C , 31-H ) :   0.9696

Dispersion correction           -0.014567368
FINAL SINGLE POINT ENERGY     -1339.852857660315

DIPOLE MOMENT
-------------
                                X             Y             Z
Electronic contribution:      8.85046      23.91683      12.23439
Nuclear contribution   :     -9.08759     -24.47970     -12.75704
                        -----------------------------------------
Total Dipole Moment    :     -0.23713      -0.56287      -0.52265
                        -----------------------------------------
Magnitude (a.u.)       :      0.80388
Magnitude (Debye)      :      2.04330

Rotational constants in cm-1:     0.017935     0.008847     0.006990
Rotational constants in MHz :   537.675532   265.228662   209.564185

                             ****ORCA TERMINATED NORMALLY****
TOTAL RUN TIME: 0 days 0 hours 0 minutes 30 seconds 675 msec
