                         Program Version 4.2.1 -  RELEASE  -
|  1> ! wB97X-D3 SP def2-SVP
|  2> %pal
|  3> nprocs 16
|  4> end
|  5>
|  6> * xyz 0 1
|  7> S 	 -46.3555 	 50.4379 	 97.7446
|  8> C 	 -45.509 	 50.5161 	 99.2136
|  9> C 	 -46.1418 	 51.3927 	 100.039
| 10> C 	 -47.3228 	 51.9809 	 99.4363
| 11> C 	 -47.5233 	 51.568 	 98.1607
| 12> H 	 -47.9266 	 52.7802 	 99.8546
| 13> C 	 -45.5837 	 51.7946 	 101.421
| 14> H 	 -44.5845 	 52.2797 	 101.475
| 15> H 	 -45.5044 	 50.8269 	 101.907
| 16> C 	 -46.503 	 52.7263 	 102.155
| 17> H 	 -45.8957 	 53.1613 	 102.944
| 18> H 	 -46.7104 	 53.5403 	 101.534
| 19> C 	 -47.6103 	 52.0361 	 102.969
| 20> H 	 -47.1753 	 51.4727 	 103.852
| 21> H 	 -48.2185 	 52.7331 	 103.404
| 22> H 	 -48.2571 	 51.387 	 102.298
| 23> S 	 -50.2533 	 51.5881 	 97.5397
| 24> C 	 -50.7651 	 52.5961 	 96.2723
| 25> C 	 -49.7433 	 53.333 	 95.6881
| 26> C 	 -48.4781 	 52.9806 	 96.2867
| 27> C 	 -48.5881 	 52.1289 	 97.3394
| 28> H 	 -49.9597 	 53.9089 	 94.8722
| 29> C 	 -47.3069 	 53.7954 	 95.8138
| 30> H 	 -47.4352 	 54.0035 	 94.755
| 31> H 	 -46.4377 	 53.1637 	 95.881
| 32> C 	 -47.0131 	 55.1408 	 96.4951
| 33> H 	 -47.1252 	 55.2157 	 97.5769
| 34> H 	 -47.8684 	 55.8495 	 96.2005
| 35> C 	 -45.5874 	 55.7234 	 96.2721
| 36> H 	 -45.4544 	 55.8784 	 95.2531
| 37> H 	 -44.7548 	 55.1202 	 96.6659
| 38> H 	 -45.4114 	 56.72 	 96.729
| 39> H 	 -44.6087 	 49.912 	 99.3803
| 40> H 	 -51.7877 	 52.6207 	 96.0648
| 41> *
| 42>
| 43>                          ****END OF INPUT****

CARTESIAN COORDINATES (ANGSTROEM)
---------------------------------
  S    -46.355500   50.437900   97.744600
  C    -45.509000   50.516100   99.213600
  C    -46.141800   51.392700  100.039000
  C    -47.322800   51.980900   99.436300
  C    -47.523300   51.568000   98.160700
  H    -47.926600   52.780200   99.854600
  C    -45.583700   51.794600  101.421000
  H    -44.584500   52.279700  101.475000
  H    -45.504400   50.826900  101.907000
  C    -46.503000   52.726300  102.155000
  H    -45.895700   53.161300  102.944000
  H    -46.710400   53.540300  101.534000
  C    -47.610300   52.036100  102.969000
  H    -47.175300   51.472700  103.852000
  H    -48.218500   52.733100  103.404000
  H    -48.257100   51.387000  102.298000
  S    -50.253300   51.588100   97.539700
  C    -50.765100   52.596100   96.272300
  C    -49.743300   53.333000   95.688100
  C    -48.478100   52.980600   96.286700
  C    -48.588100   52.128900   97.339400
  H    -49.959700   53.908900   94.872200
  C    -47.306900   53.795400   95.813800
  H    -47.435200   54.003500   94.755000
  H    -46.437700   53.163700   95.881000
  C    -47.013100   55.140800   96.495100
  H    -47.125200   55.215700   97.576900
  H    -47.868400   55.849500   96.200500
  C    -45.587400   55.723400   96.272100
  H    -45.454400   55.878400   95.253100
  H    -44.754800   55.120200   96.665900
  H    -45.411400   56.720000   96.729000
  H    -44.608700   49.912000   99.380300
  H    -51.787700   52.620700   96.064800

 Total Charge           Charge          ....    0
 Multiplicity           Mult            ....    1
 Number of Electrons    NEL             ....  134
 Basis Dimension        Dim             ....  322

ORBITAL ENERGIES
----------------

  NO   OCC          E(Eh)            E(eV)
   0   2.0000     -88.963903     -2420.8309
   1   2.0000     -88.961127     -2420.7553
   2   2.0000     -10.321762      -280.8694
   3   2.0000     -10.317360      -280.7496
   4   2.0000     -10.310104      -280.5522
   5   2.0000     -10.307566      -280.4831
   6   2.0000     -10.299753      -280.2705
   7   2.0000     -10.298244      -280.2295
   8   2.0000     -10.291148      -280.0364
   9   2.0000     -10.288078      -279.9528
  10   2.0000     -10.287759      -279.9442
  11   2.0000     -10.287119      -279.9268
  12   2.0000     -10.286744      -279.9165
  13   2.0000     -10.278322      -279.6874
  14   2.0000     -10.275849      -279.6201
  15   2.0000     -10.275679      -279.6154
  16   2.0000      -8.079714      -219.8602
  17   2.0000      -8.078119      -219.8168
  18   2.0000      -6.038079      -164.3045
  19   2.0000      -6.036368      -164.2579
  20   2.0000      -6.034026      -164.1942
  21   2.0000      -6.032143      -164.1430
  22   2.0000      -6.030623      -164.1016
  23   2.0000      -6.029151      -164.0615
  24   2.0000      -1.017629       -27.6911
  25   2.0000      -0.993755       -27.0415
  26   2.0000      -0.914926       -24.8964
  27   2.0000      -0.905490       -24.6396
  28   2.0000      -0.875207       -23.8156
  29   2.0000      -0.851215       -23.1627
  30   2.0000      -0.842155       -22.9162
  31   2.0000      -0.816355       -22.2142
  32   2.0000      -0.785434       -21.3727
  33   2.0000      -0.776279       -21.1236
  34   2.0000      -0.709054       -19.2943
  35   2.0000      -0.699935       -19.0462
  36   2.0000      -0.687201       -18.6997
  37   2.0000      -0.671263       -18.2660
  38   2.0000      -0.643684       -17.5155
  39   2.0000      -0.622633       -16.9427
  40   2.0000      -0.600438       -16.3387
  41   2.0000      -0.572930       -15.5902
  42   2.0000      -0.557623       -15.1737
  43   2.0000      -0.553371       -15.0580
  44   2.0000      -0.532209       -14.4822
  45   2.0000      -0.525297       -14.2941
  46   2.0000      -0.519544       -14.1375
  47   2.0000      -0.510927       -13.9030
  48   2.0000      -0.508516       -13.8374
  49   2.0000      -0.500331       -13.6147
  50   2.0000      -0.489533       -13.3209
  51   2.0000      -0.486502       -13.2384
  52   2.0000      -0.478704       -13.0262
  53   2.0000      -0.469189       -12.7673
  54   2.0000      -0.461009       -12.5447
  55   2.0000      -0.445823       -12.1315
  56   2.0000      -0.440411       -11.9842
  57   2.0000      -0.436700       -11.8832
  58   2.0000      -0.434539       -11.8244
  59   2.0000      -0.423603       -11.5268
  60   2.0000      -0.418492       -11.3877
  61   2.0000      -0.405962       -11.0468
  62   2.0000      -0.401593       -10.9279
  63   2.0000      -0.336916        -9.1679
  64   2.0000      -0.330741        -8.9999
  65   2.0000      -0.324388        -8.8271
  66   2.0000      -0.309125        -8.4117
  67   0.0000       0.049304         1.3416
  68   0.0000       0.066797         1.8176
  69   0.0000       0.118048         3.2122
  70   0.0000       0.122651         3.3375
  71   0.0000       0.135773         3.6946

MULLIKEN ATOMIC CHARGES
-----------------------
   0 S :    0.125246
   1 C :   -0.151033
   2 C :   -0.081369
   3 C :   -0.000239
   4 C :   -0.131288
   5 H :    0.020232
   6 C :    0.068334
   7 H :    0.046708
   8 H :    0.023837
   9 C :   -0.074801
  10 H :    0.011912
  11 H :    0.019246
  12 C :   -0.037191
  13 H :    0.040973
  14 H :    0.013507
  15 H :    0.043552
  16 S :    0.119957
  17 C :   -0.079869
  18 C :    0.001277
  19 C :   -0.024004
  20 C :   -0.190971
  21 H :   -0.012368
  22 C :    0.107027
  23 H :    0.020571
  24 H :    0.010655
  25 C :   -0.083367
  26 H :    0.025651
  27 H :    0.026430
  28 C :   -0.045789
  29 H :    0.014960
  30 H :    0.042795
  31 H :    0.031626
  32 H :    0.059356
  33 H :    0.038436
Sum of atomic charges:   -0.0000000

LOEWDIN ATOMIC CHARGES
----------------------
   0 S :    0.456948
   1 C :   -0.216049
   2 C :   -0.067077
   3 C :   -0.069803
   4 C :   -0.224524
   5 H :    0.032331
   6 C :   -0.033168
   7 H :    0.037536
   8 H :    0.031284
   9 C :   -0.048058
  10 H :    0.026468
  11 H :    0.015844
  12 C :   -0.061168
  13 H :    0.035588
  14 H :    0.011353
  15 H :    0.030048
  16 S :    0.424722
  17 C :   -0.179969
  18 C :   -0.061564
  19 C :   -0.048590
  20 C :   -0.198337
  21 H :    0.017248
  22 C :   -0.031553
  23 H :    0.032401
  24 H :    0.023891
  25 C :   -0.045940
  26 H :    0.022495
  27 H :    0.029294
  28 C :   -0.065942
  29 H :    0.012258
  30 H :    0.030594
  31 H :    0.031874
  32 H :    0.035673
  33 H :    0.013890

  Mayer bond orders larger than 0.100000
B(  0-S ,  1-C ) :   1.1611 B(  0-S ,  4-C ) :   1.1757 B(  1-C ,  2-C ) :   1.5953
B(  1-C , 32-H ) :   0.9779 B(  2-C ,  3-C ) :   1.2620 B(  2-C ,  6-C ) :   0.9890
B(  3-C ,  4-C ) :   1.5491 B(  3-C ,  5-H ) :   0.9940 B(  4-C , 20-C ) :   1.0119
B(  6-C ,  7-H ) :   0.9474 B(  6-C ,  8-H ) :   0.9367 B(  6-C ,  9-C ) :   1.0981
B(  9-C , 10-H ) :   0.9494 B(  9-C , 11-H ) :   0.9471 B(  9-C , 12-C ) :   1.0761
B( 12-C , 13-H ) :   0.9726 B( 12-C , 14-H ) :   0.9734 B( 12-C , 15-H ) :   0.9769
B( 16-S , 17-C ) :   1.1867 B( 16-S , 20-C ) :   1.1375 B( 17-C , 18-C ) :   1.5855
B( 17-C , 33-H ) :   0.9740 B( 18-C , 19-C ) :   1.2176 B( 18-C , 21-H ) :   1.0113
B( 19-C , 20-C ) :   1.6240 B( 19-C , 22-C ) :   1.0651 B( 22-C , 23-H ) :   0.9263
B( 22-C , 24-H ) :   0.9228 B( 22-C , 25-C ) :   1.0542 B( 25-C , 26-H ) :   0.9614
B( 25-C , 27-H ) :   0.9514 B( 25-C , 28-C ) :   1.0752 B( 28-C , 29-H ) :   0.9783
B( 28-C , 30-H ) :   0.9751 B( 28-C , 31-H ) :   0.9730

Dispersion correction           -0.014497153
FINAL SINGLE POINT ENERGY     -1339.864533622368

DIPOLE MOMENT
-------------
                                X             Y             Z
Electronic contribution:    -10.81444     -17.38474     -11.36954
Nuclear contribution   :     11.04769      17.85995      11.56343
                        -----------------------------------------
Total Dipole Moment    :      0.23325       0.47521       0.19389
                        -----------------------------------------
Magnitude (a.u.)       :      0.56375
Magnitude (Debye)      :      1.43295

Rotational constants in cm-1:     0.016613     0.009196     0.007978
Rotational constants in MHz :   498.032982   275.693152   239.160321

                             ****ORCA TERMINATED NORMALLY****
TOTAL RUN TIME: 0 days 0 hours 0 minutes 28 seconds 742 msec
