                         Program Version 4.2.1 -  RELEASE  -
|  1> ! wB97X-D3 SP def2-SVP
|  2> %pal
|  3> nprocs 16
|  4> end
|  5>
|  6> * xyz 0 1
|  7> S 	 -109.952 	 41.511 	 134.072
|  8> C 	 -109.224 	 41.5024 	 135.636
|  9> C 	 -109.511 	 42.6683 	 136.316
| 10> C 	 -110.149 	 43.6426 	 135.514
| 11> C 	 -110.321 	 43.2063 	 134.226
| 12> H 	 -110.281 	 44.6816 	 135.716
| 13> C 	 -109.046 	 42.9909 	 137.715
| 14> H 	 -109.337 	 42.0591 	 138.232
| 15> H 	 -109.608 	 43.7826 	 138.215
| 16> C 	 -107.641 	 43.2878 	 137.963
| 17> H 	 -107.422 	 43.3115 	 139.008
| 18> H 	 -107.097 	 42.5148 	 137.445
| 19> C 	 -107.198 	 44.6654 	 137.401
| 20> H 	 -106.128 	 44.872 	 137.491
| 21> H 	 -107.575 	 44.6827 	 136.384
| 22> H 	 -107.781 	 45.3782 	 138.013
| 23> S 	 -109.656 	 44.2544 	 131.804
| 24> C 	 -110.626 	 45.6491 	 131.287
| 25> C 	 -111.79 	 45.8201 	 132.024
| 26> C 	 -111.866 	 44.9181 	 133.081
| 27> C 	 -110.762 	 44.072 	 133.16
| 28> H 	 -112.577 	 46.56 	 131.775
| 29> C 	 -112.966 	 44.926 	 134.087
| 30> H 	 -113.029 	 45.8989 	 134.567
| 31> H 	 -112.838 	 44.3858 	 135.021
| 32> C 	 -114.366 	 44.6674 	 133.601
| 33> H 	 -114.392 	 43.6925 	 133.03
| 34> H 	 -114.648 	 45.4264 	 132.861
| 35> C 	 -115.474 	 44.6699 	 134.6
| 36> H 	 -116.365 	 44.4007 	 134.178
| 37> H 	 -115.555 	 45.6796 	 135.008
| 38> H 	 -115.298 	 44.0308 	 135.482
| 39> H 	 -108.672 	 40.7343 	 136.172
| 40> H 	 -110.212 	 46.3348 	 130.621
| 41> *
| 42>
| 43>                          ****END OF INPUT****

CARTESIAN COORDINATES (ANGSTROEM)
---------------------------------
  S    -109.952000   41.511000  134.072000
  C    -109.224000   41.502400  135.636000
  C    -109.511000   42.668300  136.316000
  C    -110.149000   43.642600  135.514000
  C    -110.321000   43.206300  134.226000
  H    -110.281000   44.681600  135.716000
  C    -109.046000   42.990900  137.715000
  H    -109.337000   42.059100  138.232000
  H    -109.608000   43.782600  138.215000
  C    -107.641000   43.287800  137.963000
  H    -107.422000   43.311500  139.008000
  H    -107.097000   42.514800  137.445000
  C    -107.198000   44.665400  137.401000
  H    -106.128000   44.872000  137.491000
  H    -107.575000   44.682700  136.384000
  H    -107.781000   45.378200  138.013000
  S    -109.656000   44.254400  131.804000
  C    -110.626000   45.649100  131.287000
  C    -111.790000   45.820100  132.024000
  C    -111.866000   44.918100  133.081000
  C    -110.762000   44.072000  133.160000
  H    -112.577000   46.560000  131.775000
  C    -112.966000   44.926000  134.087000
  H    -113.029000   45.898900  134.567000
  H    -112.838000   44.385800  135.021000
  C    -114.366000   44.667400  133.601000
  H    -114.392000   43.692500  133.030000
  H    -114.648000   45.426400  132.861000
  C    -115.474000   44.669900  134.600000
  H    -116.365000   44.400700  134.178000
  H    -115.555000   45.679600  135.008000
  H    -115.298000   44.030800  135.482000
  H    -108.672000   40.734300  136.172000
  H    -110.212000   46.334800  130.621000

 Total Charge           Charge          ....    0
 Multiplicity           Mult            ....    1
 Number of Electrons    NEL             ....  134
 Basis Dimension        Dim             ....  322

ORBITAL ENERGIES
----------------

  NO   OCC          E(Eh)            E(eV)
   0   2.0000     -88.968735     -2420.9624
   1   2.0000     -88.967881     -2420.9391
   2   2.0000     -10.324684      -280.9489
   3   2.0000     -10.323067      -280.9049
   4   2.0000     -10.318090      -280.7695
   5   2.0000     -10.309852      -280.5453
   6   2.0000     -10.302734      -280.3516
   7   2.0000     -10.298905      -280.2475
   8   2.0000     -10.296297      -280.1765
   9   2.0000     -10.285864      -279.8926
  10   2.0000     -10.285209      -279.8748
  11   2.0000     -10.284076      -279.8439
  12   2.0000     -10.283490      -279.8280
  13   2.0000     -10.275285      -279.6047
  14   2.0000     -10.275243      -279.6036
  15   2.0000     -10.270420      -279.4723
  16   2.0000      -8.083738      -219.9697
  17   2.0000      -8.082372      -219.9325
  18   2.0000      -6.042257      -164.4182
  19   2.0000      -6.040667      -164.3749
  20   2.0000      -6.038275      -164.3098
  21   2.0000      -6.037056      -164.2766
  22   2.0000      -6.034406      -164.2045
  23   2.0000      -6.033232      -164.1726
  24   2.0000      -1.011833       -27.5334
  25   2.0000      -0.988463       -26.8974
  26   2.0000      -0.922103       -25.0917
  27   2.0000      -0.916481       -24.9387
  28   2.0000      -0.872062       -23.7300
  29   2.0000      -0.860199       -23.4072
  30   2.0000      -0.848598       -23.0915
  31   2.0000      -0.815044       -22.1785
  32   2.0000      -0.787443       -21.4274
  33   2.0000      -0.773164       -21.0389
  34   2.0000      -0.704979       -19.1834
  35   2.0000      -0.699093       -19.0233
  36   2.0000      -0.694245       -18.8914
  37   2.0000      -0.664318       -18.0770
  38   2.0000      -0.640432       -17.4270
  39   2.0000      -0.618912       -16.8415
  40   2.0000      -0.605905       -16.4875
  41   2.0000      -0.584128       -15.8949
  42   2.0000      -0.564121       -15.3505
  43   2.0000      -0.558593       -15.2001
  44   2.0000      -0.543646       -14.7933
  45   2.0000      -0.531738       -14.4693
  46   2.0000      -0.521693       -14.1960
  47   2.0000      -0.512970       -13.9586
  48   2.0000      -0.504445       -13.7266
  49   2.0000      -0.498073       -13.5533
  50   2.0000      -0.484238       -13.1768
  51   2.0000      -0.478650       -13.0247
  52   2.0000      -0.470198       -12.7947
  53   2.0000      -0.466550       -12.6955
  54   2.0000      -0.461249       -12.5512
  55   2.0000      -0.454371       -12.3641
  56   2.0000      -0.451093       -12.2749
  57   2.0000      -0.443256       -12.0616
  58   2.0000      -0.435062       -11.8386
  59   2.0000      -0.429893       -11.6980
  60   2.0000      -0.417737       -11.3672
  61   2.0000      -0.404328       -11.0023
  62   2.0000      -0.402507       -10.9528
  63   2.0000      -0.347854        -9.4656
  64   2.0000      -0.333382        -9.0718
  65   2.0000      -0.329970        -8.9790
  66   2.0000      -0.289320        -7.8728
  67   0.0000       0.028557         0.7771
  68   0.0000       0.061918         1.6849
  69   0.0000       0.109993         2.9931
  70   0.0000       0.116230         3.1628
  71   0.0000       0.129922         3.5354

MULLIKEN ATOMIC CHARGES
-----------------------
   0 S :    0.131754
   1 C :   -0.114139
   2 C :   -0.102234
   3 C :    0.041316
   4 C :   -0.163233
   5 H :    0.011629
   6 C :    0.045821
   7 H :    0.028402
   8 H :    0.012095
   9 C :   -0.025448
  10 H :    0.025522
  11 H :    0.010658
  12 C :   -0.062989
  13 H :    0.046928
  14 H :    0.039368
  15 H :    0.017880
  16 S :    0.110639
  17 C :   -0.078512
  18 C :   -0.042236
  19 C :    0.030850
  20 C :   -0.185410
  21 H :    0.037546
  22 C :    0.073820
  23 H :    0.006631
  24 H :    0.012733
  25 C :   -0.114344
  26 H :    0.034256
  27 H :    0.019693
  28 C :    0.003044
  29 H :    0.018213
  30 H :    0.017384
  31 H :    0.026799
  32 H :    0.042523
  33 H :    0.043041
Sum of atomic charges:    0.0000000

LOEWDIN ATOMIC CHARGES
----------------------
   0 S :    0.419438
   1 C :   -0.213748
   2 C :   -0.063017
   3 C :   -0.062390
   4 C :   -0.195759
   5 H :    0.029725
   6 C :   -0.039399
   7 H :    0.036818
   8 H :    0.026970
   9 C :   -0.038425
  10 H :    0.021311
  11 H :    0.017514
  12 C :   -0.062482
  13 H :    0.027447
  14 H :    0.025567
  15 H :    0.022720
  16 S :    0.398016
  17 C :   -0.160646
  18 C :   -0.065076
  19 C :   -0.052902
  20 C :   -0.193103
  21 H :    0.041815
  22 C :   -0.042952
  23 H :    0.030421
  24 H :    0.031005
  25 C :   -0.045538
  26 H :    0.027394
  27 H :    0.020660
  28 C :   -0.055401
  29 H :    0.016879
  30 H :    0.024721
  31 H :    0.026534
  32 H :    0.031845
  33 H :    0.014037

  Mayer bond orders larger than 0.100000
B(  0-S ,  1-C ) :   1.1263 B(  0-S ,  4-C ) :   1.1580 B(  1-C ,  2-C ) :   1.6171
B(  1-C , 32-H ) :   0.9642 B(  2-C ,  3-C ) :   1.2364 B(  2-C ,  6-C ) :   1.0191
B(  3-C ,  4-C ) :   1.5684 B(  3-C ,  5-H ) :   0.9992 B(  4-C , 20-C ) :   1.0453
B(  6-C ,  7-H ) :   0.9257 B(  6-C ,  8-H ) :   0.9427 B(  6-C ,  9-C ) :   1.0925
B(  9-C , 10-H ) :   0.9522 B(  9-C , 11-H ) :   0.9475 B(  9-C , 12-C ) :   1.0714
B( 12-C , 13-H ) :   0.9749 B( 12-C , 14-H ) :   0.9778 B( 12-C , 15-H ) :   0.9747
B( 16-S , 17-C ) :   1.1602 B( 16-S , 20-C ) :   1.1418 B( 17-C , 18-C ) :   1.5866
B( 17-C , 20-C ) :   0.1061 B( 17-C , 33-H ) :   0.9759 B( 18-C , 19-C ) :   1.2520
B( 18-C , 21-H ) :   0.9859 B( 19-C , 20-C ) :   1.5793 B( 19-C , 22-C ) :   1.0447
B( 22-C , 23-H ) :   0.9201 B( 22-C , 24-H ) :   0.9310 B( 22-C , 25-C ) :   1.0614
B( 25-C , 26-H ) :   0.9527 B( 25-C , 27-H ) :   0.9499 B( 25-C , 28-C ) :   1.1008
B( 28-C , 29-H ) :   0.9699 B( 28-C , 30-H ) :   0.9692 B( 28-C , 31-H ) :   0.9715

Dispersion correction           -0.014249582
FINAL SINGLE POINT ENERGY     -1339.866674589097

DIPOLE MOMENT
-------------
                                X             Y             Z
Electronic contribution:      8.19982      -9.46159     -19.33825
Nuclear contribution   :     -8.40244       9.91901      19.76501
                        -----------------------------------------
Total Dipole Moment    :     -0.20262       0.45743       0.42676
                        -----------------------------------------
Magnitude (a.u.)       :      0.65758
Magnitude (Debye)      :      1.67144

Rotational constants in cm-1:     0.017627     0.008510     0.007376
Rotational constants in MHz :   528.445999   255.132730   221.121007

                             ****ORCA TERMINATED NORMALLY****
TOTAL RUN TIME: 0 days 0 hours 0 minutes 33 seconds 966 msec
