                         Program Version 4.2.1 -  RELEASE  -
|  1> ! wB97X-D3 SP def2-SVP
|  2> %pal
|  3> nprocs 16
|  4> end
|  5>
|  6> * xyz 0 1
|  7> S 	 -29.0382 	 -1.16778 	 101.507
|  8> C 	 -28.8006 	 -2.32744 	 102.819
|  9> C 	 -28.5757 	 -1.64657 	 103.972
| 10> C 	 -28.8259 	 -0.230523 	 103.913
| 11> C 	 -29.1453 	 0.190258 	 102.579
| 12> H 	 -28.5772 	 0.435922 	 104.697
| 13> C 	 -28.0805 	 -2.35977 	 105.243
| 14> H 	 -28.2114 	 -3.45896 	 105.128
| 15> H 	 -28.7718 	 -2.21286 	 106.089
| 16> C 	 -26.7163 	 -1.82671 	 105.753
| 17> H 	 -26.6372 	 -0.716376 	 105.832
| 18> H 	 -26.4862 	 -2.20561 	 106.791
| 19> C 	 -25.5866 	 -2.23674 	 104.781
| 20> H 	 -25.8226 	 -1.95629 	 103.733
| 21> H 	 -24.6626 	 -1.89953 	 105.192
| 22> H 	 -25.5072 	 -3.3311 	 104.789
| 23> S 	 -27.6901 	 2.10338 	 101.339
| 24> C 	 -28.2467 	 3.77937 	 101.3
| 25> C 	 -29.418 	 3.87375 	 102.033
| 26> C 	 -29.9541 	 2.62988 	 102.349
| 27> C 	 -29.1686 	 1.55704 	 102.025
| 28> H 	 -29.7694 	 4.90939 	 102.315
| 29> C 	 -31.0745 	 2.55277 	 103.319
| 30> H 	 -31.5749 	 1.56091 	 103.305
| 31> H 	 -31.8162 	 3.35026 	 103.077
| 32> C 	 -30.7276 	 2.8106 	 104.802
| 33> H 	 -30.3083 	 3.7501 	 104.796
| 34> H 	 -30.0683 	 2.11262 	 105.34
| 35> C 	 -31.9669 	 2.91121 	 105.601
| 36> H 	 -32.6901 	 2.03297 	 105.373
| 37> H 	 -32.5436 	 3.8061 	 105.457
| 38> H 	 -31.738 	 2.80283 	 106.621
| 39> H 	 -28.5132 	 -3.36954 	 102.612
| 40> H 	 -27.6768 	 4.66901 	 101.055
| 41> *
| 42>
| 43>                          ****END OF INPUT****

CARTESIAN COORDINATES (ANGSTROEM)
---------------------------------
  S    -29.038200   -1.167780  101.507000
  C    -28.800600   -2.327440  102.819000
  C    -28.575700   -1.646570  103.972000
  C    -28.825900   -0.230523  103.913000
  C    -29.145300    0.190258  102.579000
  H    -28.577200    0.435922  104.697000
  C    -28.080500   -2.359770  105.243000
  H    -28.211400   -3.458960  105.128000
  H    -28.771800   -2.212860  106.089000
  C    -26.716300   -1.826710  105.753000
  H    -26.637200   -0.716376  105.832000
  H    -26.486200   -2.205610  106.791000
  C    -25.586600   -2.236740  104.781000
  H    -25.822600   -1.956290  103.733000
  H    -24.662600   -1.899530  105.192000
  H    -25.507200   -3.331100  104.789000
  S    -27.690100    2.103380  101.339000
  C    -28.246700    3.779370  101.300000
  C    -29.418000    3.873750  102.033000
  C    -29.954100    2.629880  102.349000
  C    -29.168600    1.557040  102.025000
  H    -29.769400    4.909390  102.315000
  C    -31.074500    2.552770  103.319000
  H    -31.574900    1.560910  103.305000
  H    -31.816200    3.350260  103.077000
  C    -30.727600    2.810600  104.802000
  H    -30.308300    3.750100  104.796000
  H    -30.068300    2.112620  105.340000
  C    -31.966900    2.911210  105.601000
  H    -32.690100    2.032970  105.373000
  H    -32.543600    3.806100  105.457000
  H    -31.738000    2.802830  106.621000
  H    -28.513200   -3.369540  102.612000
  H    -27.676800    4.669010  101.055000

 Total Charge           Charge          ....    0
 Multiplicity           Mult            ....    1
 Number of Electrons    NEL             ....  134
 Basis Dimension        Dim             ....  322

ORBITAL ENERGIES
----------------

  NO   OCC          E(Eh)            E(eV)
   0   2.0000     -88.966548     -2420.9029
   1   2.0000     -88.965646     -2420.8783
   2   2.0000     -10.339015      -281.3389
   3   2.0000     -10.323489      -280.9164
   4   2.0000     -10.319151      -280.7984
   5   2.0000     -10.315792      -280.7070
   6   2.0000     -10.304481      -280.3992
   7   2.0000     -10.301191      -280.3097
   8   2.0000     -10.298927      -280.2480
   9   2.0000     -10.296816      -280.1906
  10   2.0000     -10.296398      -280.1792
  11   2.0000     -10.295303      -280.1494
  12   2.0000     -10.289194      -279.9832
  13   2.0000     -10.276391      -279.6348
  14   2.0000     -10.274080      -279.5719
  15   2.0000     -10.272530      -279.5297
  16   2.0000      -8.081519      -219.9093
  17   2.0000      -8.080478      -219.8810
  18   2.0000      -6.040007      -164.3569
  19   2.0000      -6.038936      -164.3278
  20   2.0000      -6.036005      -164.2480
  21   2.0000      -6.034853      -164.2167
  22   2.0000      -6.032234      -164.1454
  23   2.0000      -6.031393      -164.1226
  24   2.0000      -1.012785       -27.5593
  25   2.0000      -0.987791       -26.8791
  26   2.0000      -0.917314       -24.9614
  27   2.0000      -0.907782       -24.7020
  28   2.0000      -0.870465       -23.6865
  29   2.0000      -0.857666       -23.3383
  30   2.0000      -0.842133       -22.9156
  31   2.0000      -0.815259       -22.1843
  32   2.0000      -0.780146       -21.2289
  33   2.0000      -0.769122       -20.9289
  34   2.0000      -0.708610       -19.2823
  35   2.0000      -0.696375       -18.9493
  36   2.0000      -0.688186       -18.7265
  37   2.0000      -0.662924       -18.0391
  38   2.0000      -0.641705       -17.4617
  39   2.0000      -0.621974       -16.9248
  40   2.0000      -0.598744       -16.2927
  41   2.0000      -0.575110       -15.6495
  42   2.0000      -0.570399       -15.5214
  43   2.0000      -0.552451       -15.0329
  44   2.0000      -0.532131       -14.4800
  45   2.0000      -0.523634       -14.2488
  46   2.0000      -0.517132       -14.0719
  47   2.0000      -0.512847       -13.9553
  48   2.0000      -0.511812       -13.9271
  49   2.0000      -0.500273       -13.6131
  50   2.0000      -0.488744       -13.2994
  51   2.0000      -0.475345       -12.9348
  52   2.0000      -0.470621       -12.8062
  53   2.0000      -0.463143       -12.6028
  54   2.0000      -0.460311       -12.5257
  55   2.0000      -0.450041       -12.2463
  56   2.0000      -0.443630       -12.0718
  57   2.0000      -0.435858       -11.8603
  58   2.0000      -0.430542       -11.7157
  59   2.0000      -0.423971       -11.5368
  60   2.0000      -0.417395       -11.3579
  61   2.0000      -0.414742       -11.2857
  62   2.0000      -0.412814       -11.2333
  63   2.0000      -0.342546        -9.3212
  64   2.0000      -0.329778        -8.9737
  65   2.0000      -0.323774        -8.8103
  66   2.0000      -0.305906        -8.3241
  67   0.0000       0.031613         0.8602
  68   0.0000       0.053730         1.4621
  69   0.0000       0.109687         2.9847
  70   0.0000       0.115914         3.1542
  71   0.0000       0.130335         3.5466

MULLIKEN ATOMIC CHARGES
-----------------------
   0 S :    0.104241
   1 C :   -0.126841
   2 C :   -0.102335
   3 C :    0.067265
   4 C :   -0.172074
   5 H :    0.010804
   6 C :    0.049473
   7 H :    0.027621
   8 H :    0.030876
   9 C :   -0.111467
  10 H :    0.041937
  11 H :    0.036558
  12 C :   -0.042061
  13 H :    0.053180
  14 H :    0.027264
  15 H :    0.016990
  16 S :    0.112315
  17 C :   -0.094203
  18 C :   -0.081483
  19 C :    0.005657
  20 C :   -0.127124
  21 H :    0.044172
  22 C :    0.008111
  23 H :    0.036344
  24 H :    0.025283
  25 C :   -0.022565
  26 H :   -0.003658
  27 H :    0.028337
  28 C :   -0.044233
  29 H :    0.028803
  30 H :    0.027692
  31 H :    0.018787
  32 H :    0.066845
  33 H :    0.059487
Sum of atomic charges:   -0.0000000

LOEWDIN ATOMIC CHARGES
----------------------
   0 S :    0.413609
   1 C :   -0.201174
   2 C :   -0.064242
   3 C :   -0.055111
   4 C :   -0.195939
   5 H :    0.022832
   6 C :   -0.038028
   7 H :    0.033808
   8 H :    0.032031
   9 C :   -0.045717
  10 H :    0.027059
  11 H :    0.028416
  12 C :   -0.067104
  13 H :    0.031613
  14 H :    0.020141
  15 H :    0.021559
  16 S :    0.423881
  17 C :   -0.183850
  18 C :   -0.075442
  19 C :   -0.068417
  20 C :   -0.216364
  21 H :    0.042982
  22 C :   -0.031728
  23 H :    0.032571
  24 H :    0.034169
  25 C :   -0.036034
  26 H :    0.012275
  27 H :    0.025545
  28 C :   -0.062411
  29 H :    0.032248
  30 H :    0.020242
  31 H :    0.019010
  32 H :    0.035342
  33 H :    0.032229

  Mayer bond orders larger than 0.100000
B(  0-S ,  1-C ) :   1.1322 B(  0-S ,  4-C ) :   1.1862 B(  1-C ,  2-C ) :   1.6087
B(  1-C , 32-H ) :   0.9645 B(  2-C ,  3-C ) :   1.2566 B(  2-C ,  6-C ) :   1.0181
B(  3-C ,  4-C ) :   1.5316 B(  3-C ,  5-H ) :   0.9916 B(  4-C , 20-C ) :   1.0003
B(  6-C ,  7-H ) :   0.9515 B(  6-C ,  8-H ) :   0.9408 B(  6-C ,  9-C ) :   1.0556
B(  9-C , 10-H ) :   0.9598 B(  9-C , 11-H ) :   0.9560 B(  9-C , 12-C ) :   1.0690
B( 12-C , 13-H ) :   0.9761 B( 12-C , 14-H ) :   0.9744 B( 12-C , 15-H ) :   0.9755
B( 16-S , 17-C ) :   1.1667 B( 16-S , 20-C ) :   1.1582 B( 17-C , 18-C ) :   1.5948
B( 17-C , 33-H ) :   0.9658 B( 18-C , 19-C ) :   1.2600 B( 18-C , 21-H ) :   0.9824
B( 19-C , 20-C ) :   1.5829 B( 19-C , 22-C ) :   1.0771 B( 22-C , 23-H ) :   0.9285
B( 22-C , 24-H ) :   0.9357 B( 22-C , 25-C ) :   1.0652 B( 25-C , 26-H ) :   0.9434
B( 25-C , 27-H ) :   0.9507 B( 25-C , 28-C ) :   1.0998 B( 28-C , 29-H ) :   0.9692
B( 28-C , 30-H ) :   0.9726 B( 28-C , 31-H ) :   0.9708

Dispersion correction           -0.014886756
FINAL SINGLE POINT ENERGY     -1339.862761674533

DIPOLE MOMENT
-------------
                                X             Y             Z
Electronic contribution:      2.20798       1.13012     -23.79467
Nuclear contribution   :     -2.00087      -0.90632      24.58256
                        -----------------------------------------
Total Dipole Moment    :      0.20710       0.22380       0.78788
                        -----------------------------------------
Magnitude (a.u.)       :      0.84483
Magnitude (Debye)      :      2.14739

Rotational constants in cm-1:     0.017891     0.009232     0.007705
Rotational constants in MHz :   536.371085   276.761720   230.999559

                             ****ORCA TERMINATED NORMALLY****
TOTAL RUN TIME: 0 days 0 hours 0 minutes 31 seconds 49 msec
