                         Program Version 4.2.1 -  RELEASE  -
|  1> ! wB97X-D3 SP def2-SVP
|  2> %pal
|  3> nprocs 16
|  4> end
|  5>
|  6> * xyz 0 1
|  7> S 	 -39.7957 	 33.2511 	 88.3287
|  8> C 	 -41.1431 	 34.0575 	 89.089
|  9> C 	 -42.2261 	 33.2099 	 89.2536
| 10> C 	 -41.9247 	 31.9124 	 88.7421
| 11> C 	 -40.6704 	 31.7569 	 88.1022
| 12> H 	 -42.6427 	 31.0737 	 88.8115
| 13> C 	 -43.549 	 33.6638 	 89.7359
| 14> H 	 -43.1947 	 34.3283 	 90.5823
| 15> H 	 -44.0361 	 32.7295 	 90.0753
| 16> C 	 -44.4611 	 34.3724 	 88.7366
| 17> H 	 -45.2568 	 34.7491 	 89.4137
| 18> H 	 -43.9347 	 35.3168 	 88.4402
| 19> C 	 -45.0536 	 33.5433 	 87.6143
| 20> H 	 -44.3133 	 33.0791 	 86.9831
| 21> H 	 -45.658 	 32.6993 	 88.0122
| 22> H 	 -45.7386 	 34.0245 	 86.9483
| 23> S 	 -39.7699 	 30.4683 	 85.8929
| 24> C 	 -38.9825 	 28.8967 	 86.059
| 25> C 	 -39.1137 	 28.389 	 87.3549
| 26> C 	 -39.7654 	 29.3117 	 88.2058
| 27> C 	 -40.149 	 30.5107 	 87.5846
| 28> H 	 -38.7496 	 27.3305 	 87.5257
| 29> C 	 -39.7644 	 29.1067 	 89.7389
| 30> H 	 -40.1921 	 30.0114 	 90.1415
| 31> H 	 -38.7171 	 29.0821 	 90.0934
| 32> C 	 -40.6235 	 27.8842 	 90.1822
| 33> H 	 -40.4466 	 27.6665 	 91.2119
| 34> H 	 -40.3618 	 26.9088 	 89.7451
| 35> C 	 -42.1226 	 27.9265 	 89.7639
| 36> H 	 -42.524 	 28.9206 	 89.7735
| 37> H 	 -42.7716 	 27.4007 	 90.4038
| 38> H 	 -42.3181 	 27.4234 	 88.7901
| 39> H 	 -41.1755 	 35.0858 	 89.4291
| 40> H 	 -38.5314 	 28.524 	 85.1548
| 41> *
| 42>
| 43>                          ****END OF INPUT****

CARTESIAN COORDINATES (ANGSTROEM)
---------------------------------
  S    -39.795700   33.251100   88.328700
  C    -41.143100   34.057500   89.089000
  C    -42.226100   33.209900   89.253600
  C    -41.924700   31.912400   88.742100
  C    -40.670400   31.756900   88.102200
  H    -42.642700   31.073700   88.811500
  C    -43.549000   33.663800   89.735900
  H    -43.194700   34.328300   90.582300
  H    -44.036100   32.729500   90.075300
  C    -44.461100   34.372400   88.736600
  H    -45.256800   34.749100   89.413700
  H    -43.934700   35.316800   88.440200
  C    -45.053600   33.543300   87.614300
  H    -44.313300   33.079100   86.983100
  H    -45.658000   32.699300   88.012200
  H    -45.738600   34.024500   86.948300
  S    -39.769900   30.468300   85.892900
  C    -38.982500   28.896700   86.059000
  C    -39.113700   28.389000   87.354900
  C    -39.765400   29.311700   88.205800
  C    -40.149000   30.510700   87.584600
  H    -38.749600   27.330500   87.525700
  C    -39.764400   29.106700   89.738900
  H    -40.192100   30.011400   90.141500
  H    -38.717100   29.082100   90.093400
  C    -40.623500   27.884200   90.182200
  H    -40.446600   27.666500   91.211900
  H    -40.361800   26.908800   89.745100
  C    -42.122600   27.926500   89.763900
  H    -42.524000   28.920600   89.773500
  H    -42.771600   27.400700   90.403800
  H    -42.318100   27.423400   88.790100
  H    -41.175500   35.085800   89.429100
  H    -38.531400   28.524000   85.154800

 Total Charge           Charge          ....    0
 Multiplicity           Mult            ....    1
 Number of Electrons    NEL             ....  134
 Basis Dimension        Dim             ....  322

ORBITAL ENERGIES
----------------

  NO   OCC          E(Eh)            E(eV)
   0   2.0000     -88.968361     -2420.9522
   1   2.0000     -88.961920     -2420.7769
   2   2.0000     -10.329689      -281.0851
   3   2.0000     -10.324800      -280.9521
   4   2.0000     -10.320643      -280.8390
   5   2.0000     -10.312546      -280.6186
   6   2.0000     -10.305720      -280.4329
   7   2.0000     -10.302321      -280.3404
   8   2.0000     -10.296597      -280.1846
   9   2.0000     -10.295949      -280.1670
  10   2.0000     -10.294228      -280.1202
  11   2.0000     -10.293888      -280.1109
  12   2.0000     -10.293270      -280.0941
  13   2.0000     -10.286681      -279.9148
  14   2.0000     -10.277966      -279.6777
  15   2.0000     -10.272802      -279.5372
  16   2.0000      -8.082703      -219.9415
  17   2.0000      -8.077146      -219.7903
  18   2.0000      -6.041243      -164.3906
  19   2.0000      -6.037070      -164.2770
  20   2.0000      -6.035397      -164.2315
  21   2.0000      -6.033639      -164.1837
  22   2.0000      -6.031538      -164.1265
  23   2.0000      -6.028205      -164.0358
  24   2.0000      -1.004299       -27.3284
  25   2.0000      -0.983029       -26.7496
  26   2.0000      -0.915588       -24.9144
  27   2.0000      -0.899727       -24.4828
  28   2.0000      -0.868683       -23.6381
  29   2.0000      -0.846286       -23.0286
  30   2.0000      -0.844689       -22.9852
  31   2.0000      -0.811412       -22.0796
  32   2.0000      -0.784234       -21.3401
  33   2.0000      -0.772619       -21.0240
  34   2.0000      -0.708253       -19.2725
  35   2.0000      -0.705208       -19.1897
  36   2.0000      -0.697561       -18.9816
  37   2.0000      -0.656032       -17.8515
  38   2.0000      -0.634046       -17.2533
  39   2.0000      -0.612401       -16.6643
  40   2.0000      -0.591588       -16.0979
  41   2.0000      -0.572604       -15.5813
  42   2.0000      -0.554951       -15.1010
  43   2.0000      -0.549967       -14.9654
  44   2.0000      -0.540133       -14.6978
  45   2.0000      -0.530576       -14.4377
  46   2.0000      -0.522341       -14.2136
  47   2.0000      -0.505426       -13.7533
  48   2.0000      -0.500832       -13.6283
  49   2.0000      -0.495808       -13.4916
  50   2.0000      -0.487691       -13.2708
  51   2.0000      -0.474992       -12.9252
  52   2.0000      -0.471562       -12.8319
  53   2.0000      -0.460696       -12.5362
  54   2.0000      -0.460330       -12.5262
  55   2.0000      -0.447248       -12.1702
  56   2.0000      -0.442977       -12.0540
  57   2.0000      -0.440886       -11.9971
  58   2.0000      -0.433821       -11.8049
  59   2.0000      -0.425950       -11.5907
  60   2.0000      -0.419587       -11.4176
  61   2.0000      -0.409064       -11.1312
  62   2.0000      -0.405495       -11.0341
  63   2.0000      -0.335318        -9.1245
  64   2.0000      -0.329213        -8.9583
  65   2.0000      -0.327893        -8.9224
  66   2.0000      -0.298036        -8.1100
  67   0.0000       0.033437         0.9099
  68   0.0000       0.060180         1.6376
  69   0.0000       0.115654         3.1471
  70   0.0000       0.120560         3.2806
  71   0.0000       0.124830         3.3968

MULLIKEN ATOMIC CHARGES
-----------------------
   0 S :    0.132689
   1 C :   -0.132866
   2 C :   -0.095113
   3 C :    0.017697
   4 C :   -0.156574
   5 H :    0.017984
   6 C :    0.024761
   7 H :    0.043712
   8 H :    0.021822
   9 C :   -0.041643
  10 H :    0.033447
  11 H :    0.026711
  12 C :   -0.034192
  13 H :    0.039697
  14 H :    0.024299
  15 H :    0.031997
  16 S :    0.099032
  17 C :   -0.116461
  18 C :   -0.045130
  19 C :   -0.017658
  20 C :   -0.189044
  21 H :    0.053179
  22 C :    0.078037
  23 H :    0.025721
  24 H :    0.047269
  25 C :   -0.070366
  26 H :    0.021955
  27 H :    0.021587
  28 C :   -0.037306
  29 H :    0.013027
  30 H :    0.014061
  31 H :    0.041873
  32 H :    0.044635
  33 H :    0.061164
Sum of atomic charges:   -0.0000000

LOEWDIN ATOMIC CHARGES
----------------------
   0 S :    0.422034
   1 C :   -0.202397
   2 C :   -0.077069
   3 C :   -0.063669
   4 C :   -0.214630
   5 H :    0.029401
   6 C :   -0.040111
   7 H :    0.044619
   8 H :    0.031166
   9 C :   -0.042941
  10 H :    0.030102
  11 H :    0.026966
  12 C :   -0.067749
  13 H :    0.027554
  14 H :    0.030611
  15 H :    0.026778
  16 S :    0.409279
  17 C :   -0.172594
  18 C :   -0.078703
  19 C :   -0.053233
  20 C :   -0.213482
  21 H :    0.047951
  22 C :   -0.023214
  23 H :    0.028074
  24 H :    0.037800
  25 C :   -0.044190
  26 H :    0.019596
  27 H :    0.025298
  28 C :   -0.065461
  29 H :    0.016913
  30 H :    0.020793
  31 H :    0.033349
  32 H :    0.028451
  33 H :    0.022708

  Mayer bond orders larger than 0.100000
B(  0-S ,  1-C ) :   1.1572 B(  0-S ,  4-C ) :   1.1587 B(  1-C ,  2-C ) :   1.5701
B(  1-C ,  4-C ) :   0.1039 B(  1-C , 32-H ) :   0.9657 B(  2-C ,  3-C ) :   1.2816
B(  2-C ,  6-C ) :   1.0157 B(  3-C ,  4-C ) :   1.5303 B(  3-C ,  5-H ) :   0.9869
B(  4-C , 20-C ) :   1.0365 B(  6-C ,  7-H ) :   0.9354 B(  6-C ,  8-H ) :   0.9358
B(  6-C ,  9-C ) :   1.0779 B(  9-C , 10-H ) :   0.9515 B(  9-C , 11-H ) :   0.9509
B(  9-C , 12-C ) :   1.0704 B( 12-C , 13-H ) :   0.9751 B( 12-C , 14-H ) :   0.9698
B( 12-C , 15-H ) :   0.9727 B( 16-S , 17-C ) :   1.1768 B( 16-S , 20-C ) :   1.1574
B( 17-C , 18-C ) :   1.5726 B( 17-C , 20-C ) :   0.1080 B( 17-C , 33-H ) :   0.9735
B( 18-C , 19-C ) :   1.2476 B( 18-C , 21-H ) :   0.9850 B( 19-C , 20-C ) :   1.5727
B( 19-C , 22-C ) :   1.0328 B( 22-C , 23-H ) :   0.9353 B( 22-C , 24-H ) :   0.9471
B( 22-C , 25-C ) :   1.0608 B( 25-C , 26-H ) :   0.9620 B( 25-C , 27-H ) :   0.9626
B( 25-C , 28-C ) :   1.0563 B( 28-C , 29-H ) :   0.9787 B( 28-C , 30-H ) :   0.9684
B( 28-C , 31-H ) :   0.9773

Dispersion correction           -0.015195396
FINAL SINGLE POINT ENERGY     -1339.876655553641

DIPOLE MOMENT
-------------
                                X             Y             Z
Electronic contribution:     20.13480       5.39641     -12.22625
Nuclear contribution   :    -20.47572      -5.62427      12.55755
                        -----------------------------------------
Total Dipole Moment    :     -0.34092      -0.22786       0.33130
                        -----------------------------------------
Magnitude (a.u.)       :      0.52717
Magnitude (Debye)      :      1.33996

Rotational constants in cm-1:     0.019151     0.008669     0.007516
Rotational constants in MHz :   574.118886   259.901681   225.323052

                             ****ORCA TERMINATED NORMALLY****
TOTAL RUN TIME: 0 days 0 hours 0 minutes 31 seconds 62 msec
