                         Program Version 4.2.1 -  RELEASE  -
|  1> ! wB97X-D3 SP def2-SVP
|  2> %pal
|  3> nprocs 16
|  4> end
|  5>
|  6> * xyz 0 1
|  7> S 	 -110.54 	 58.1626 	 121.726
|  8> C 	 -109.377 	 59.1565 	 122.44
|  9> C 	 -108.067 	 58.7441 	 122.199
| 10> C 	 -108.084 	 57.6511 	 121.305
| 11> C 	 -109.355 	 57.1506 	 120.995
| 12> H 	 -107.176 	 57.0836 	 121.046
| 13> C 	 -106.829 	 59.3005 	 122.786
| 14> H 	 -106.352 	 58.4324 	 123.288
| 15> H 	 -107.099 	 59.9992 	 123.632
| 16> C 	 -105.888 	 60.0025 	 121.695
| 17> H 	 -105.066 	 60.4874 	 122.214
| 18> H 	 -105.448 	 59.2713 	 121.035
| 19> C 	 -106.6 	 61.0567 	 120.902
| 20> H 	 -105.825 	 61.4434 	 120.247
| 21> H 	 -107.247 	 60.7158 	 120.155
| 22> H 	 -106.91 	 61.8909 	 121.575
| 23> S 	 -111.312 	 55.2824 	 120.499
| 24> C 	 -110.942 	 53.9194 	 119.346
| 25> C 	 -109.759 	 54.1495 	 118.637
| 26> C 	 -109.035 	 55.3076 	 119.095
| 27> C 	 -109.714 	 56.0268 	 120.122
| 28> H 	 -109.487 	 53.3995 	 117.96
| 29> C 	 -107.73 	 55.758 	 118.448
| 30> H 	 -107.492 	 54.875 	 117.788
| 31> H 	 -106.978 	 55.9551 	 119.179
| 32> C 	 -107.924 	 56.9004 	 117.381
| 33> H 	 -106.948 	 57.3885 	 117.174
| 34> H 	 -108.487 	 57.6405 	 117.933
| 35> C 	 -108.57 	 56.4798 	 116.036
| 36> H 	 -109.405 	 55.7967 	 116.272
| 37> H 	 -107.813 	 55.9753 	 115.431
| 38> H 	 -109.129 	 57.2397 	 115.518
| 39> H 	 -109.539 	 60.0135 	 123.118
| 40> H 	 -111.644 	 53.0976 	 119.138
| 41> *
| 42>
| 43>                          ****END OF INPUT****

CARTESIAN COORDINATES (ANGSTROEM)
---------------------------------
  S    -110.540000   58.162600  121.726000
  C    -109.377000   59.156500  122.440000
  C    -108.067000   58.744100  122.199000
  C    -108.084000   57.651100  121.305000
  C    -109.355000   57.150600  120.995000
  H    -107.176000   57.083600  121.046000
  C    -106.829000   59.300500  122.786000
  H    -106.352000   58.432400  123.288000
  H    -107.099000   59.999200  123.632000
  C    -105.888000   60.002500  121.695000
  H    -105.066000   60.487400  122.214000
  H    -105.448000   59.271300  121.035000
  C    -106.600000   61.056700  120.902000
  H    -105.825000   61.443400  120.247000
  H    -107.247000   60.715800  120.155000
  H    -106.910000   61.890900  121.575000
  S    -111.312000   55.282400  120.499000
  C    -110.942000   53.919400  119.346000
  C    -109.759000   54.149500  118.637000
  C    -109.035000   55.307600  119.095000
  C    -109.714000   56.026800  120.122000
  H    -109.487000   53.399500  117.960000
  C    -107.730000   55.758000  118.448000
  H    -107.492000   54.875000  117.788000
  H    -106.978000   55.955100  119.179000
  C    -107.924000   56.900400  117.381000
  H    -106.948000   57.388500  117.174000
  H    -108.487000   57.640500  117.933000
  C    -108.570000   56.479800  116.036000
  H    -109.405000   55.796700  116.272000
  H    -107.813000   55.975300  115.431000
  H    -109.129000   57.239700  115.518000
  H    -109.539000   60.013500  123.118000
  H    -111.644000   53.097600  119.138000

 Total Charge           Charge          ....    0
 Multiplicity           Mult            ....    1
 Number of Electrons    NEL             ....  134
 Basis Dimension        Dim             ....  322

ORBITAL ENERGIES
----------------

  NO   OCC          E(Eh)            E(eV)
   0   2.0000     -88.969883     -2420.9936
   1   2.0000     -88.966350     -2420.8975
   2   2.0000     -10.338187      -281.3164
   3   2.0000     -10.331259      -281.1279
   4   2.0000     -10.327067      -281.0138
   5   2.0000     -10.312037      -280.6048
   6   2.0000     -10.310260      -280.5564
   7   2.0000     -10.299113      -280.2531
   8   2.0000     -10.298832      -280.2455
   9   2.0000     -10.296920      -280.1934
  10   2.0000     -10.295981      -280.1679
  11   2.0000     -10.293545      -280.1016
  12   2.0000     -10.290049      -280.0065
  13   2.0000     -10.288019      -279.9512
  14   2.0000     -10.278781      -279.6999
  15   2.0000     -10.272021      -279.5159
  16   2.0000      -8.085787      -220.0254
  17   2.0000      -8.079309      -219.8492
  18   2.0000      -6.044124      -164.4690
  19   2.0000      -6.040075      -164.3588
  20   2.0000      -6.037980      -164.3018
  21   2.0000      -6.036727      -164.2677
  22   2.0000      -6.034159      -164.1978
  23   2.0000      -6.029928      -164.0827
  24   2.0000      -1.009934       -27.4817
  25   2.0000      -0.974883       -26.5279
  26   2.0000      -0.913087       -24.8463
  27   2.0000      -0.900386       -24.5007
  28   2.0000      -0.869201       -23.6522
  29   2.0000      -0.854271       -23.2459
  30   2.0000      -0.841155       -22.8890
  31   2.0000      -0.813575       -22.1385
  32   2.0000      -0.782428       -21.2910
  33   2.0000      -0.769465       -20.9382
  34   2.0000      -0.710807       -19.3421
  35   2.0000      -0.699443       -19.0328
  36   2.0000      -0.686021       -18.6676
  37   2.0000      -0.664022       -18.0690
  38   2.0000      -0.633666       -17.2429
  39   2.0000      -0.623509       -16.9665
  40   2.0000      -0.585564       -15.9340
  41   2.0000      -0.569337       -15.4924
  42   2.0000      -0.558207       -15.1896
  43   2.0000      -0.557214       -15.1626
  44   2.0000      -0.545518       -14.8443
  45   2.0000      -0.541949       -14.7472
  46   2.0000      -0.515437       -14.0257
  47   2.0000      -0.503087       -13.6897
  48   2.0000      -0.500131       -13.6093
  49   2.0000      -0.494816       -13.4646
  50   2.0000      -0.485186       -13.2026
  51   2.0000      -0.475418       -12.9368
  52   2.0000      -0.470989       -12.8163
  53   2.0000      -0.463184       -12.6039
  54   2.0000      -0.456521       -12.4226
  55   2.0000      -0.451908       -12.2970
  56   2.0000      -0.446750       -12.1567
  57   2.0000      -0.438468       -11.9313
  58   2.0000      -0.430376       -11.7111
  59   2.0000      -0.427973       -11.6457
  60   2.0000      -0.417165       -11.3516
  61   2.0000      -0.415403       -11.3037
  62   2.0000      -0.407506       -11.0888
  63   2.0000      -0.358023        -9.7423
  64   2.0000      -0.336144        -9.1469
  65   2.0000      -0.327453        -8.9104
  66   2.0000      -0.278198        -7.5701
  67   0.0000       0.016066         0.4372
  68   0.0000       0.075283         2.0486
  69   0.0000       0.098294         2.6747
  70   0.0000       0.117094         3.1863
  71   0.0000       0.128306         3.4914

MULLIKEN ATOMIC CHARGES
-----------------------
   0 S :    0.128372
   1 C :   -0.114282
   2 C :   -0.107257
   3 C :   -0.021645
   4 C :   -0.115030
   5 H :    0.014980
   6 C :    0.042852
   7 H :    0.043954
   8 H :    0.025139
   9 C :   -0.074524
  10 H :    0.030023
  11 H :    0.026289
  12 C :   -0.021975
  13 H :    0.016011
  14 H :    0.033287
  15 H :    0.041971
  16 S :    0.068902
  17 C :   -0.110755
  18 C :   -0.006278
  19 C :   -0.076024
  20 C :   -0.111582
  21 H :    0.009894
  22 C :    0.055199
  23 H :    0.019102
  24 H :    0.033046
  25 C :   -0.068138
  26 H :    0.030308
  27 H :    0.029826
  28 C :   -0.048077
  29 H :    0.027789
  30 H :    0.042392
  31 H :    0.036490
  32 H :    0.049831
  33 H :    0.069910
Sum of atomic charges:    0.0000000

LOEWDIN ATOMIC CHARGES
----------------------
   0 S :    0.448148
   1 C :   -0.225447
   2 C :   -0.069727
   3 C :   -0.072947
   4 C :   -0.207762
   5 H :    0.030224
   6 C :   -0.039540
   7 H :    0.037850
   8 H :    0.033249
   9 C :   -0.034357
  10 H :    0.024646
  11 H :    0.020920
  12 C :   -0.066595
  13 H :    0.029994
  14 H :    0.021701
  15 H :    0.033082
  16 S :    0.348615
  17 C :   -0.164260
  18 C :   -0.064781
  19 C :   -0.058000
  20 C :   -0.171362
  21 H :    0.026692
  22 C :   -0.029910
  23 H :    0.034101
  24 H :    0.024147
  25 C :   -0.038885
  26 H :    0.024039
  27 H :    0.021149
  28 C :   -0.069853
  29 H :    0.029598
  30 H :    0.027480
  31 H :    0.029391
  32 H :    0.034501
  33 H :    0.033899

  Mayer bond orders larger than 0.100000
B(  0-S ,  1-C ) :   1.1645 B(  0-S ,  4-C ) :   1.1686 B(  1-C ,  2-C ) :   1.5722
B(  1-C , 32-H ) :   0.9569 B(  2-C ,  3-C ) :   1.2918 B(  2-C ,  6-C ) :   1.0296
B(  3-C ,  4-C ) :   1.5301 B(  3-C ,  5-H ) :   0.9856 B(  4-C , 20-C ) :   1.0698
B(  6-C ,  7-H ) :   0.9393 B(  6-C ,  8-H ) :   0.9428 B(  6-C ,  9-C ) :   1.0513
B(  9-C , 10-H ) :   0.9601 B(  9-C , 11-H ) :   0.9563 B(  9-C , 12-C ) :   1.0911
B( 12-C , 13-H ) :   0.9639 B( 12-C , 14-H ) :   0.9680 B( 12-C , 15-H ) :   0.9747
B( 16-S , 17-C ) :   1.1320 B( 16-S , 20-C ) :   1.1241 B( 17-C , 18-C ) :   1.6297
B( 17-C , 20-C ) :   0.1061 B( 17-C , 33-H ) :   0.9623 B( 18-C , 19-C ) :   1.2273
B( 18-C , 21-H ) :   0.9917 B( 19-C , 20-C ) :   1.5793 B( 19-C , 22-C ) :   1.0387
B( 22-C , 23-H ) :   0.9365 B( 22-C , 24-H ) :   0.9395 B( 22-C , 25-C ) :   1.0519
B( 25-C , 26-H ) :   0.9601 B( 25-C , 27-H ) :   0.9608 B( 25-C , 28-C ) :   1.0702
B( 28-C , 29-H ) :   0.9748 B( 28-C , 30-H ) :   0.9745 B( 28-C , 31-H ) :   0.9722

Dispersion correction           -0.014889229
FINAL SINGLE POINT ENERGY     -1339.870755787221

DIPOLE MOMENT
-------------
                                X             Y             Z
Electronic contribution:    -22.05852     -11.01406      12.11501
Nuclear contribution   :     22.70294      11.10321     -12.32950
                        -----------------------------------------
Total Dipole Moment    :      0.64442       0.08915      -0.21449
                        -----------------------------------------
Magnitude (a.u.)       :      0.68500
Magnitude (Debye)      :      1.74114

Rotational constants in cm-1:     0.019367     0.009342     0.007041
Rotational constants in MHz :   580.611301   280.071102   211.091404

                             ****ORCA TERMINATED NORMALLY****
TOTAL RUN TIME: 0 days 0 hours 0 minutes 36 seconds 46 msec
