                         Program Version 4.2.1 -  RELEASE  -
|  1> ! wB97X-D3 SP def2-SVP
|  2> %pal
|  3> nprocs 16
|  4> end
|  5>
|  6> * xyz 0 1
|  7> S 	 -31.569 	 59.8499 	 111.281
|  8> C 	 -31.4634 	 59.6011 	 113.076
|  9> C 	 -32.7175 	 59.7025 	 113.685
| 10> C 	 -33.6992 	 59.9503 	 112.677
| 11> C 	 -33.263 	 60.0652 	 111.392
| 12> H 	 -34.8309 	 59.9666 	 112.806
| 13> C 	 -33.0043 	 59.6729 	 115.17
| 14> H 	 -34.052 	 59.7726 	 115.436
| 15> H 	 -32.5388 	 60.5302 	 115.675
| 16> C 	 -32.6058 	 58.3431 	 115.882
| 17> H 	 -31.5163 	 58.3896 	 115.984
| 18> H 	 -32.9921 	 58.3772 	 116.865
| 19> C 	 -33.2095 	 57.1352 	 115.1
| 20> H 	 -33.2413 	 56.2279 	 115.689
| 21> H 	 -34.2491 	 57.3022 	 114.748
| 22> H 	 -32.6445 	 56.8295 	 114.216
| 23> S 	 -34.1743 	 58.8201 	 109.152
| 24> C 	 -35.2319 	 59.6215 	 108.023
| 25> C 	 -35.4194 	 60.9804 	 108.369
| 26> C 	 -34.897 	 61.3084 	 109.648
| 27> C 	 -34.1443 	 60.2337 	 110.237
| 28> H 	 -35.9291 	 61.5653 	 107.639
| 29> C 	 -34.9568 	 62.7187 	 110.282
| 30> H 	 -34.3855 	 63.4869 	 109.693
| 31> H 	 -34.3999 	 62.6157 	 111.234
| 32> C 	 -36.3283 	 63.2832 	 110.616
| 33> H 	 -36.7921 	 63.6671 	 109.748
| 34> H 	 -36.1589 	 64.1872 	 111.133
| 35> C 	 -37.2749 	 62.3517 	 111.455
| 36> H 	 -37.3742 	 61.3672 	 111.044
| 37> H 	 -38.3199 	 62.6356 	 111.578
| 38> H 	 -36.8429 	 62.2016 	 112.441
| 39> H 	 -30.5502 	 59.3304 	 113.67
| 40> H 	 -35.6159 	 59.1592 	 107.112
| 41> *
| 42>
| 43>                          ****END OF INPUT****

CARTESIAN COORDINATES (ANGSTROEM)
---------------------------------
  S    -31.569000   59.849900  111.281000
  C    -31.463400   59.601100  113.076000
  C    -32.717500   59.702500  113.685000
  C    -33.699200   59.950300  112.677000
  C    -33.263000   60.065200  111.392000
  H    -34.830900   59.966600  112.806000
  C    -33.004300   59.672900  115.170000
  H    -34.052000   59.772600  115.436000
  H    -32.538800   60.530200  115.675000
  C    -32.605800   58.343100  115.882000
  H    -31.516300   58.389600  115.984000
  H    -32.992100   58.377200  116.865000
  C    -33.209500   57.135200  115.100000
  H    -33.241300   56.227900  115.689000
  H    -34.249100   57.302200  114.748000
  H    -32.644500   56.829500  114.216000
  S    -34.174300   58.820100  109.152000
  C    -35.231900   59.621500  108.023000
  C    -35.419400   60.980400  108.369000
  C    -34.897000   61.308400  109.648000
  C    -34.144300   60.233700  110.237000
  H    -35.929100   61.565300  107.639000
  C    -34.956800   62.718700  110.282000
  H    -34.385500   63.486900  109.693000
  H    -34.399900   62.615700  111.234000
  C    -36.328300   63.283200  110.616000
  H    -36.792100   63.667100  109.748000
  H    -36.158900   64.187200  111.133000
  C    -37.274900   62.351700  111.455000
  H    -37.374200   61.367200  111.044000
  H    -38.319900   62.635600  111.578000
  H    -36.842900   62.201600  112.441000
  H    -30.550200   59.330400  113.670000
  H    -35.615900   59.159200  107.112000

 Total Charge           Charge          ....    0
 Multiplicity           Mult            ....    1
 Number of Electrons    NEL             ....  134
 Basis Dimension        Dim             ....  322

ORBITAL ENERGIES
----------------

  NO   OCC          E(Eh)            E(eV)
   0   2.0000     -88.969480     -2420.9826
   1   2.0000     -88.965731     -2420.8806
   2   2.0000     -10.332721      -281.1676
   3   2.0000     -10.324035      -280.9313
   4   2.0000     -10.323517      -280.9172
   5   2.0000     -10.320953      -280.8474
   6   2.0000     -10.314020      -280.6588
   7   2.0000     -10.305761      -280.4340
   8   2.0000     -10.296011      -280.1687
   9   2.0000     -10.295643      -280.1587
  10   2.0000     -10.294076      -280.1161
  11   2.0000     -10.293691      -280.1056
  12   2.0000     -10.289324      -279.9867
  13   2.0000     -10.279853      -279.7290
  14   2.0000     -10.278288      -279.6864
  15   2.0000     -10.273763      -279.5633
  16   2.0000      -8.083659      -219.9675
  17   2.0000      -8.080013      -219.8683
  18   2.0000      -6.042258      -164.4182
  19   2.0000      -6.038388      -164.3129
  20   2.0000      -6.038287      -164.3101
  21   2.0000      -6.034384      -164.2039
  22   2.0000      -6.034290      -164.2014
  23   2.0000      -6.031144      -164.1158
  24   2.0000      -1.002839       -27.2886
  25   2.0000      -0.977180       -26.5904
  26   2.0000      -0.911055       -24.7911
  27   2.0000      -0.902917       -24.5696
  28   2.0000      -0.862715       -23.4757
  29   2.0000      -0.842842       -22.9349
  30   2.0000      -0.840710       -22.8769
  31   2.0000      -0.806922       -21.9575
  32   2.0000      -0.784251       -21.3405
  33   2.0000      -0.774671       -21.0799
  34   2.0000      -0.709035       -19.2938
  35   2.0000      -0.707739       -19.2586
  36   2.0000      -0.692086       -18.8326
  37   2.0000      -0.652953       -17.7678
  38   2.0000      -0.634539       -17.2667
  39   2.0000      -0.608303       -16.5528
  40   2.0000      -0.588416       -16.0116
  41   2.0000      -0.575579       -15.6623
  42   2.0000      -0.554106       -15.0780
  43   2.0000      -0.549509       -14.9529
  44   2.0000      -0.538371       -14.6498
  45   2.0000      -0.536961       -14.6114
  46   2.0000      -0.517472       -14.0811
  47   2.0000      -0.502189       -13.6653
  48   2.0000      -0.492504       -13.4017
  49   2.0000      -0.491506       -13.3746
  50   2.0000      -0.486385       -13.2352
  51   2.0000      -0.470932       -12.8147
  52   2.0000      -0.468462       -12.7475
  53   2.0000      -0.463191       -12.6041
  54   2.0000      -0.456953       -12.4343
  55   2.0000      -0.443015       -12.0551
  56   2.0000      -0.441942       -12.0259
  57   2.0000      -0.439372       -11.9559
  58   2.0000      -0.436108       -11.8671
  59   2.0000      -0.428641       -11.6639
  60   2.0000      -0.418959       -11.4005
  61   2.0000      -0.416338       -11.3291
  62   2.0000      -0.412485       -11.2243
  63   2.0000      -0.337217        -9.1761
  64   2.0000      -0.329802        -8.9744
  65   2.0000      -0.328436        -8.9372
  66   2.0000      -0.298152        -8.1131
  67   0.0000       0.035067         0.9542
  68   0.0000       0.054891         1.4937
  69   0.0000       0.107785         2.9330
  70   0.0000       0.118564         3.2263
  71   0.0000       0.131083         3.5669

MULLIKEN ATOMIC CHARGES
-----------------------
   0 S :    0.123208
   1 C :   -0.153733
   2 C :   -0.057529
   3 C :    0.010439
   4 C :   -0.159301
   5 H :    0.033882
   6 C :    0.038707
   7 H :    0.019475
   8 H :    0.044144
   9 C :   -0.059423
  10 H :    0.030375
  11 H :    0.023961
  12 C :   -0.058183
  13 H :    0.029081
  14 H :    0.033003
  15 H :    0.041947
  16 S :    0.107514
  17 C :   -0.110899
  18 C :   -0.036054
  19 C :    0.002772
  20 C :   -0.194475
  21 H :    0.014878
  22 C :    0.030581
  23 H :    0.048690
  24 H :    0.028554
  25 C :   -0.022457
  26 H :    0.009673
  27 H :    0.014221
  28 C :   -0.055100
  29 H :    0.032694
  30 H :    0.032428
  31 H :    0.026116
  32 H :    0.065481
  33 H :    0.065330
Sum of atomic charges:    0.0000000

LOEWDIN ATOMIC CHARGES
----------------------
   0 S :    0.404052
   1 C :   -0.188176
   2 C :   -0.060480
   3 C :   -0.071389
   4 C :   -0.224145
   5 H :    0.041586
   6 C :   -0.033814
   7 H :    0.027929
   8 H :    0.035552
   9 C :   -0.033299
  10 H :    0.021518
  11 H :    0.019265
  12 C :   -0.070789
  13 H :    0.023363
  14 H :    0.030066
  15 H :    0.030090
  16 S :    0.407216
  17 C :   -0.189445
  18 C :   -0.072245
  19 C :   -0.048714
  20 C :   -0.193717
  21 H :    0.029238
  22 C :   -0.033505
  23 H :    0.040700
  24 H :    0.032443
  25 C :   -0.038190
  26 H :    0.015289
  27 H :    0.022595
  28 C :   -0.067830
  29 H :    0.023576
  30 H :    0.027878
  31 H :    0.024114
  32 H :    0.038290
  33 H :    0.030977

  Mayer bond orders larger than 0.100000
B(  0-S ,  1-C ) :   1.1310 B(  0-S ,  4-C ) :   1.1451 B(  1-C ,  2-C ) :   1.6088
B(  1-C , 32-H ) :   0.9614 B(  2-C ,  3-C ) :   1.2400 B(  2-C ,  6-C ) :   1.0128
B(  3-C ,  4-C ) :   1.5999 B(  3-C ,  5-H ) :   0.9794 B(  4-C , 20-C ) :   1.0209
B(  6-C ,  7-H ) :   0.9486 B(  6-C ,  8-H ) :   0.9429 B(  6-C ,  9-C ) :   1.0741
B(  9-C , 10-H ) :   0.9593 B(  9-C , 11-H ) :   0.9605 B(  9-C , 12-C ) :   1.0636
B( 12-C , 13-H ) :   0.9767 B( 12-C , 14-H ) :   0.9773 B( 12-C , 15-H ) :   0.9710
B( 16-S , 17-C ) :   1.1776 B( 16-S , 20-C ) :   1.1598 B( 17-C , 18-C ) :   1.5761
B( 17-C , 20-C ) :   0.1182 B( 17-C , 33-H ) :   0.9665 B( 18-C , 19-C ) :   1.2474
B( 18-C , 21-H ) :   1.0005 B( 19-C , 20-C ) :   1.5494 B( 19-C , 22-C ) :   1.0375
B( 22-C , 23-H ) :   0.9400 B( 22-C , 24-H ) :   0.9355 B( 22-C , 25-C ) :   1.0785
B( 25-C , 26-H ) :   0.9538 B( 25-C , 27-H ) :   0.9518 B( 25-C , 28-C ) :   1.0623
B( 28-C , 29-H ) :   0.9754 B( 28-C , 30-H ) :   0.9762 B( 28-C , 31-H ) :   0.9761

Dispersion correction           -0.014962045
FINAL SINGLE POINT ENERGY     -1339.874801531193

DIPOLE MOMENT
-------------
                                X             Y             Z
Electronic contribution:     11.92910      -5.30293     -18.70820
Nuclear contribution   :    -12.22116       5.51977      19.03947
                        -----------------------------------------
Total Dipole Moment    :     -0.29206       0.21684       0.33127
                        -----------------------------------------
Magnitude (a.u.)       :      0.49199
Magnitude (Debye)      :      1.25054

Rotational constants in cm-1:     0.019980     0.008317     0.007097
Rotational constants in MHz :   598.976287   249.326057   212.751889

                             ****ORCA TERMINATED NORMALLY****
TOTAL RUN TIME: 0 days 0 hours 0 minutes 30 seconds 145 msec
