                         Program Version 4.2.1 -  RELEASE  -
|  1> ! wB97X-D3 SP def2-SVP
|  2> %pal
|  3> nprocs 16
|  4> end
|  5>
|  6> * xyz 0 1
|  7> S 	 0.289042 	 -23.3584 	 53.9152
|  8> C 	 -0.220734 	 -25.015 	 53.8884
|  9> C 	 0.71968 	 -25.8598 	 54.4348
| 10> C 	 1.74151 	 -25.2079 	 55.1708
| 11> C 	 1.66135 	 -23.8122 	 54.9263
| 12> H 	 2.63556 	 -25.6243 	 55.6343
| 13> C 	 0.703164 	 -27.3714 	 54.4112
| 14> H 	 1.68204 	 -27.7193 	 54.3479
| 15> H 	 0.107679 	 -27.6509 	 53.5507
| 16> C 	 -0.034774 	 -27.9415 	 55.6348
| 17> H 	 0.181783 	 -28.9846 	 55.7426
| 18> H 	 0.445082 	 -27.5175 	 56.4306
| 19> C 	 -1.55238 	 -27.677 	 55.6807
| 20> H 	 -2.11298 	 -27.9006 	 54.6806
| 21> H 	 -2.00151 	 -28.4062 	 56.3905
| 22> H 	 -1.78877 	 -26.6846 	 56.0927
| 23> S 	 2.91742 	 -21.4586 	 54.4489
| 24> C 	 3.84723 	 -20.6758 	 55.739
| 25> C 	 3.98049 	 -21.501 	 56.8258
| 26> C 	 3.17335 	 -22.7219 	 56.6682
| 27> C 	 2.60637 	 -22.8325 	 55.4141
| 28> H 	 4.61653 	 -21.2083 	 57.6535
| 29> C 	 3.13465 	 -23.6514 	 57.8941
| 30> H 	 2.406 	 -24.4674 	 57.7485
| 31> H 	 2.6889 	 -23.1183 	 58.7492
| 32> C 	 4.46495 	 -24.1221 	 58.3697
| 33> H 	 4.38605 	 -24.7259 	 59.2689
| 34> H 	 5.08148 	 -23.3568 	 58.8311
| 35> C 	 5.31031 	 -25.0461 	 57.4177
| 36> H 	 5.1311 	 -26.0475 	 57.5148
| 37> H 	 6.41438 	 -24.7986 	 57.4115
| 38> H 	 4.98744 	 -24.7458 	 56.4007
| 39> H 	 -1.0297 	 -25.3965 	 53.3096
| 40> H 	 4.46541 	 -19.7389 	 55.6012
| 41> *
| 42>
| 43>                          ****END OF INPUT****

CARTESIAN COORDINATES (ANGSTROEM)
---------------------------------
  S      0.289042  -23.358400   53.915200
  C     -0.220734  -25.015000   53.888400
  C      0.719680  -25.859800   54.434800
  C      1.741510  -25.207900   55.170800
  C      1.661350  -23.812200   54.926300
  H      2.635560  -25.624300   55.634300
  C      0.703164  -27.371400   54.411200
  H      1.682040  -27.719300   54.347900
  H      0.107679  -27.650900   53.550700
  C     -0.034774  -27.941500   55.634800
  H      0.181783  -28.984600   55.742600
  H      0.445082  -27.517500   56.430600
  C     -1.552380  -27.677000   55.680700
  H     -2.112980  -27.900600   54.680600
  H     -2.001510  -28.406200   56.390500
  H     -1.788770  -26.684600   56.092700
  S      2.917420  -21.458600   54.448900
  C      3.847230  -20.675800   55.739000
  C      3.980490  -21.501000   56.825800
  C      3.173350  -22.721900   56.668200
  C      2.606370  -22.832500   55.414100
  H      4.616530  -21.208300   57.653500
  C      3.134650  -23.651400   57.894100
  H      2.406000  -24.467400   57.748500
  H      2.688900  -23.118300   58.749200
  C      4.464950  -24.122100   58.369700
  H      4.386050  -24.725900   59.268900
  H      5.081480  -23.356800   58.831100
  C      5.310310  -25.046100   57.417700
  H      5.131100  -26.047500   57.514800
  H      6.414380  -24.798600   57.411500
  H      4.987440  -24.745800   56.400700
  H     -1.029700  -25.396500   53.309600
  H      4.465410  -19.738900   55.601200

 Total Charge           Charge          ....    0
 Multiplicity           Mult            ....    1
 Number of Electrons    NEL             ....  134
 Basis Dimension        Dim             ....  322

ORBITAL ENERGIES
----------------

  NO   OCC          E(Eh)            E(eV)
   0   2.0000     -88.971232     -2421.0303
   1   2.0000     -88.964424     -2420.8451
   2   2.0000     -10.332850      -281.1712
   3   2.0000     -10.324757      -280.9509
   4   2.0000     -10.322033      -280.8768
   5   2.0000     -10.307324      -280.4765
   6   2.0000     -10.306771      -280.4615
   7   2.0000     -10.297315      -280.2042
   8   2.0000     -10.297056      -280.1971
   9   2.0000     -10.295719      -280.1608
  10   2.0000     -10.294691      -280.1328
  11   2.0000     -10.288153      -279.9549
  12   2.0000     -10.285432      -279.8808
  13   2.0000     -10.282733      -279.8074
  14   2.0000     -10.276900      -279.6487
  15   2.0000     -10.276595      -279.6404
  16   2.0000      -8.085609      -220.0206
  17   2.0000      -8.079878      -219.8647
  18   2.0000      -6.044072      -164.4676
  19   2.0000      -6.040259      -164.3638
  20   2.0000      -6.038530      -164.3168
  21   2.0000      -6.036349      -164.2574
  22   2.0000      -6.034302      -164.2017
  23   2.0000      -6.030422      -164.0961
  24   2.0000      -1.009123       -27.4596
  25   2.0000      -0.984380       -26.7863
  26   2.0000      -0.914697       -24.8902
  27   2.0000      -0.909573       -24.7507
  28   2.0000      -0.870017       -23.6744
  29   2.0000      -0.850923       -23.1548
  30   2.0000      -0.840552       -22.8726
  31   2.0000      -0.811591       -22.0845
  32   2.0000      -0.783881       -21.3305
  33   2.0000      -0.776251       -21.1229
  34   2.0000      -0.712354       -19.3841
  35   2.0000      -0.699968       -19.0471
  36   2.0000      -0.693370       -18.8676
  37   2.0000      -0.661224       -17.9928
  38   2.0000      -0.638157       -17.3651
  39   2.0000      -0.619678       -16.8623
  40   2.0000      -0.594278       -16.1711
  41   2.0000      -0.569187       -15.4884
  42   2.0000      -0.555745       -15.1226
  43   2.0000      -0.551670       -15.0117
  44   2.0000      -0.544164       -14.8075
  45   2.0000      -0.536139       -14.5891
  46   2.0000      -0.517610       -14.0849
  47   2.0000      -0.511339       -13.9142
  48   2.0000      -0.498189       -13.5564
  49   2.0000      -0.494561       -13.4577
  50   2.0000      -0.491981       -13.3875
  51   2.0000      -0.481649       -13.1063
  52   2.0000      -0.465398       -12.6641
  53   2.0000      -0.464820       -12.6484
  54   2.0000      -0.457452       -12.4479
  55   2.0000      -0.453770       -12.3477
  56   2.0000      -0.443123       -12.0580
  57   2.0000      -0.441039       -12.0013
  58   2.0000      -0.432580       -11.7711
  59   2.0000      -0.427074       -11.6213
  60   2.0000      -0.419990       -11.4285
  61   2.0000      -0.416572       -11.3355
  62   2.0000      -0.404958       -11.0195
  63   2.0000      -0.356896        -9.7116
  64   2.0000      -0.334330        -9.0976
  65   2.0000      -0.328225        -8.9315
  66   2.0000      -0.284550        -7.7430
  67   0.0000       0.025212         0.6861
  68   0.0000       0.076655         2.0859
  69   0.0000       0.100672         2.7394
  70   0.0000       0.123915         3.3719
  71   0.0000       0.128820         3.5054

MULLIKEN ATOMIC CHARGES
-----------------------
   0 S :    0.126491
   1 C :   -0.101693
   2 C :   -0.115492
   3 C :   -0.003324
   4 C :   -0.135971
   5 H :    0.023676
   6 C :    0.114838
   7 H :    0.010931
   8 H :    0.009362
   9 C :   -0.013352
  10 H :    0.019662
  11 H :   -0.006783
  12 C :   -0.093839
  13 H :    0.041851
  14 H :    0.035466
  15 H :    0.053118
  16 S :    0.093096
  17 C :   -0.112106
  18 C :   -0.032022
  19 C :   -0.066053
  20 C :   -0.130060
  21 H :    0.027553
  22 C :    0.078882
  23 H :    0.023299
  24 H :    0.034145
  25 C :   -0.079805
  26 H :    0.017725
  27 H :    0.018742
  28 C :   -0.052392
  29 H :    0.024386
  30 H :    0.044657
  31 H :    0.031672
  32 H :    0.034195
  33 H :    0.079145
Sum of atomic charges:    0.0000000

LOEWDIN ATOMIC CHARGES
----------------------
   0 S :    0.413641
   1 C :   -0.209615
   2 C :   -0.055772
   3 C :   -0.067465
   4 C :   -0.177472
   5 H :    0.034435
   6 C :   -0.018827
   7 H :    0.022242
   8 H :    0.025008
   9 C :   -0.032270
  10 H :    0.020663
  11 H :    0.011090
  12 C :   -0.075080
  13 H :    0.033272
  14 H :    0.030237
  15 H :    0.029714
  16 S :    0.403165
  17 C :   -0.187674
  18 C :   -0.065549
  19 C :   -0.057764
  20 C :   -0.214048
  21 H :    0.033738
  22 C :   -0.037377
  23 H :    0.029973
  24 H :    0.040718
  25 C :   -0.050730
  26 H :    0.027028
  27 H :    0.022653
  28 C :   -0.067245
  29 H :    0.009297
  30 H :    0.037812
  31 H :    0.026876
  32 H :    0.022371
  33 H :    0.042955

  Mayer bond orders larger than 0.100000
B(  0-S ,  1-C ) :   1.1249 B(  0-S ,  4-C ) :   1.1653 B(  1-C ,  2-C ) :   1.6169
B(  1-C , 32-H ) :   0.9647 B(  2-C ,  3-C ) :   1.2420 B(  2-C ,  6-C ) :   1.0351
B(  3-C ,  4-C ) :   1.5426 B(  3-C ,  5-H ) :   0.9860 B(  4-C , 20-C ) :   1.0726
B(  6-C ,  7-H ) :   0.9356 B(  6-C ,  8-H ) :   0.9382 B(  6-C ,  9-C ) :   1.0740
B(  9-C , 10-H ) :   0.9572 B(  9-C , 11-H ) :   0.9486 B(  9-C , 12-C ) :   1.0745
B( 12-C , 13-H ) :   0.9743 B( 12-C , 14-H ) :   0.9735 B( 12-C , 15-H ) :   0.9733
B( 16-S , 17-C ) :   1.1314 B( 16-S , 20-C ) :   1.1290 B( 17-C , 18-C ) :   1.6519
B( 17-C , 33-H ) :   0.9573 B( 18-C , 19-C ) :   1.1974 B( 18-C , 21-H ) :   0.9896
B( 19-C , 20-C ) :   1.6067 B( 19-C , 22-C ) :   1.0407 B( 22-C , 23-H ) :   0.9363
B( 22-C , 24-H ) :   0.9263 B( 22-C , 25-C ) :   1.0895 B( 25-C , 26-H ) :   0.9491
B( 25-C , 27-H ) :   0.9524 B( 25-C , 28-C ) :   1.0533 B( 28-C , 29-H ) :   0.9802
B( 28-C , 30-H ) :   0.9745 B( 28-C , 31-H ) :   0.9775

Dispersion correction           -0.015028072
FINAL SINGLE POINT ENERGY     -1339.867008906058

DIPOLE MOMENT
-------------
                                X             Y             Z
Electronic contribution:     -2.22579      23.21585     -15.09896
Nuclear contribution   :      2.49247     -23.65956      15.57504
                        -----------------------------------------
Total Dipole Moment    :      0.26667      -0.44371       0.47607
                        -----------------------------------------
Magnitude (a.u.)       :      0.70331
Magnitude (Debye)      :      1.78766

Rotational constants in cm-1:     0.019853     0.009236     0.006860
Rotational constants in MHz :   595.185621   276.888709   205.671008

                             ****ORCA TERMINATED NORMALLY****
TOTAL RUN TIME: 0 days 0 hours 0 minutes 35 seconds 898 msec
