                         Program Version 4.2.1 -  RELEASE  -
|  1> ! wB97X-D3 SP def2-SVP
|  2> %pal
|  3> nprocs 16
|  4> end
|  5>
|  6> * xyz 0 1
|  7> S 	 -100.438 	 40.4257 	 124.696
|  8> C 	 -98.9645 	 39.4315 	 124.387
|  9> C 	 -97.8629 	 40.2307 	 124.563
| 10> C 	 -98.2115 	 41.6024 	 124.898
| 11> C 	 -99.5484 	 41.8095 	 125.108
| 12> H 	 -97.5126 	 42.416 	 125.094
| 13> C 	 -96.4524 	 39.7172 	 124.446
| 14> H 	 -96.3466 	 39.239 	 123.441
| 15> H 	 -96.3522 	 38.8164 	 125.117
| 16> C 	 -95.3306 	 40.7741 	 124.36
| 17> H 	 -95.5806 	 41.6479 	 123.819
| 18> H 	 -94.9855 	 41.113 	 125.398
| 19> C 	 -94.0549 	 40.232 	 123.769
| 20> H 	 -94.2407 	 39.7758 	 122.779
| 21> H 	 -93.3392 	 40.9381 	 123.534
| 22> H 	 -93.8129 	 39.4263 	 124.475
| 23> S 	 -101.547 	 43.0262 	 126.556
| 24> C 	 -101.793 	 44.7087 	 126.478
| 25> C 	 -100.847 	 45.3259 	 125.641
| 26> C 	 -99.9084 	 44.392 	 125.064
| 27> C 	 -100.185 	 43.07 	 125.447
| 28> H 	 -100.685 	 46.363 	 125.621
| 29> C 	 -98.9428 	 44.8415 	 124.057
| 30> H 	 -97.9796 	 44.4074 	 124.258
| 31> H 	 -98.7069 	 45.8899 	 124.27
| 32> C 	 -99.3349 	 44.5762 	 122.66
| 33> H 	 -100.358 	 44.9592 	 122.501
| 34> H 	 -99.2284 	 43.488 	 122.624
| 35> C 	 -98.3483 	 45.2324 	 121.624
| 36> H 	 -98.6118 	 46.3221 	 121.631
| 37> H 	 -98.5301 	 44.7705 	 120.642
| 38> H 	 -97.2603 	 45.0556 	 121.735
| 39> H 	 -99.1099 	 38.4462 	 124.165
| 40> H 	 -102.633 	 45.327 	 126.964
| 41> *
| 42>
| 43>                          ****END OF INPUT****

CARTESIAN COORDINATES (ANGSTROEM)
---------------------------------
  S    -100.438000   40.425700  124.696000
  C    -98.964500   39.431500  124.387000
  C    -97.862900   40.230700  124.563000
  C    -98.211500   41.602400  124.898000
  C    -99.548400   41.809500  125.108000
  H    -97.512600   42.416000  125.094000
  C    -96.452400   39.717200  124.446000
  H    -96.346600   39.239000  123.441000
  H    -96.352200   38.816400  125.117000
  C    -95.330600   40.774100  124.360000
  H    -95.580600   41.647900  123.819000
  H    -94.985500   41.113000  125.398000
  C    -94.054900   40.232000  123.769000
  H    -94.240700   39.775800  122.779000
  H    -93.339200   40.938100  123.534000
  H    -93.812900   39.426300  124.475000
  S    -101.547000   43.026200  126.556000
  C    -101.793000   44.708700  126.478000
  C    -100.847000   45.325900  125.641000
  C    -99.908400   44.392000  125.064000
  C    -100.185000   43.070000  125.447000
  H    -100.685000   46.363000  125.621000
  C    -98.942800   44.841500  124.057000
  H    -97.979600   44.407400  124.258000
  H    -98.706900   45.889900  124.270000
  C    -99.334900   44.576200  122.660000
  H    -100.358000   44.959200  122.501000
  H    -99.228400   43.488000  122.624000
  C    -98.348300   45.232400  121.624000
  H    -98.611800   46.322100  121.631000
  H    -98.530100   44.770500  120.642000
  H    -97.260300   45.055600  121.735000
  H    -99.109900   38.446200  124.165000
  H    -102.633000   45.327000  126.964000

 Total Charge           Charge          ....    0
 Multiplicity           Mult            ....    1
 Number of Electrons    NEL             ....  134
 Basis Dimension        Dim             ....  322

ORBITAL ENERGIES
----------------

  NO   OCC          E(Eh)            E(eV)
   0   2.0000     -88.968726     -2420.9621
   1   2.0000     -88.960491     -2420.7380
   2   2.0000     -10.327157      -281.0162
   3   2.0000     -10.325491      -280.9709
   4   2.0000     -10.323472      -280.9160
   5   2.0000     -10.309993      -280.5492
   6   2.0000     -10.307367      -280.4777
   7   2.0000     -10.301491      -280.3178
   8   2.0000     -10.301472      -280.3173
   9   2.0000     -10.292497      -280.0731
  10   2.0000     -10.291486      -280.0456
  11   2.0000     -10.290829      -280.0277
  12   2.0000     -10.285224      -279.8752
  13   2.0000     -10.284764      -279.8627
  14   2.0000     -10.280018      -279.7335
  15   2.0000     -10.274667      -279.5879
  16   2.0000      -8.083858      -219.9730
  17   2.0000      -8.075850      -219.7551
  18   2.0000      -6.042294      -164.4192
  19   2.0000      -6.038081      -164.3045
  20   2.0000      -6.034907      -164.2182
  21   2.0000      -6.034373      -164.2036
  22   2.0000      -6.030200      -164.0901
  23   2.0000      -6.026620      -163.9927
  24   2.0000      -1.009674       -27.4746
  25   2.0000      -0.985145       -26.8072
  26   2.0000      -0.920099       -25.0372
  27   2.0000      -0.917098       -24.9555
  28   2.0000      -0.874866       -23.8063
  29   2.0000      -0.850354       -23.1393
  30   2.0000      -0.843373       -22.9494
  31   2.0000      -0.814304       -22.1583
  32   2.0000      -0.783252       -21.3134
  33   2.0000      -0.772513       -21.0211
  34   2.0000      -0.710807       -19.3421
  35   2.0000      -0.698728       -19.0134
  36   2.0000      -0.688386       -18.7319
  37   2.0000      -0.664308       -18.0767
  38   2.0000      -0.646757       -17.5992
  39   2.0000      -0.621196       -16.9036
  40   2.0000      -0.598059       -16.2740
  41   2.0000      -0.575554       -15.6616
  42   2.0000      -0.572689       -15.5836
  43   2.0000      -0.564901       -15.3717
  44   2.0000      -0.540641       -14.7116
  45   2.0000      -0.522633       -14.2216
  46   2.0000      -0.517342       -14.0776
  47   2.0000      -0.512910       -13.9570
  48   2.0000      -0.502086       -13.6625
  49   2.0000      -0.500220       -13.6117
  50   2.0000      -0.493060       -13.4168
  51   2.0000      -0.482627       -13.1329
  52   2.0000      -0.471321       -12.8253
  53   2.0000      -0.468350       -12.7445
  54   2.0000      -0.459276       -12.4975
  55   2.0000      -0.451015       -12.2728
  56   2.0000      -0.443140       -12.0584
  57   2.0000      -0.436939       -11.8897
  58   2.0000      -0.433949       -11.8084
  59   2.0000      -0.422934       -11.5086
  60   2.0000      -0.416920       -11.3450
  61   2.0000      -0.412186       -11.2162
  62   2.0000      -0.406700       -11.0669
  63   2.0000      -0.348888        -9.4937
  64   2.0000      -0.330716        -8.9993
  65   2.0000      -0.326945        -8.8966
  66   2.0000      -0.289548        -7.8790
  67   0.0000       0.026900         0.7320
  68   0.0000       0.075821         2.0632
  69   0.0000       0.113261         3.0820
  70   0.0000       0.116376         3.1668
  71   0.0000       0.135818         3.6958

MULLIKEN ATOMIC CHARGES
-----------------------
   0 S :    0.088871
   1 C :   -0.115449
   2 C :   -0.041221
   3 C :   -0.023207
   4 C :   -0.102277
   5 H :    0.019547
   6 C :    0.028454
   7 H :    0.030223
   8 H :    0.053951
   9 C :   -0.084336
  10 H :    0.025405
  11 H :    0.038012
  12 C :   -0.026226
  13 H :    0.019694
  14 H :    0.023508
  15 H :    0.036674
  16 S :    0.125721
  17 C :   -0.113477
  18 C :   -0.030335
  19 C :   -0.049841
  20 C :   -0.161798
  21 H :    0.006229
  22 C :    0.081084
  23 H :   -0.005103
  24 H :   -0.000277
  25 C :   -0.058188
  26 H :    0.038988
  27 H :    0.041447
  28 C :   -0.068958
  29 H :    0.045536
  30 H :    0.036616
  31 H :    0.035502
  32 H :    0.015059
  33 H :    0.090174
Sum of atomic charges:   -0.0000000

LOEWDIN ATOMIC CHARGES
----------------------
   0 S :    0.401498
   1 C :   -0.167039
   2 C :   -0.054149
   3 C :   -0.078826
   4 C :   -0.207119
   5 H :    0.030371
   6 C :   -0.043965
   7 H :    0.038732
   8 H :    0.044294
   9 C :   -0.044390
  10 H :    0.017622
  11 H :    0.030572
  12 C :   -0.059462
  13 H :    0.022311
  14 H :    0.016972
  15 H :    0.030944
  16 S :    0.433669
  17 C :   -0.215832
  18 C :   -0.072658
  19 C :   -0.048920
  20 C :   -0.201176
  21 H :    0.022134
  22 C :   -0.043595
  23 H :    0.023478
  24 H :    0.025584
  25 C :   -0.034154
  26 H :    0.030625
  27 H :    0.030332
  28 C :   -0.073311
  29 H :    0.031285
  30 H :    0.028089
  31 H :    0.026548
  32 H :    0.007377
  33 H :    0.052161

  Mayer bond orders larger than 0.100000
B(  0-S ,  1-C ) :   1.1152 B(  0-S ,  4-C ) :   1.1716 B(  1-C ,  2-C ) :   1.5927
B(  1-C , 32-H ) :   1.0014 B(  2-C ,  3-C ) :   1.2323 B(  2-C ,  6-C ) :   1.0135
B(  3-C ,  4-C ) :   1.5597 B(  3-C ,  5-H ) :   0.9949 B(  4-C , 20-C ) :   1.0414
B(  6-C ,  7-H ) :   0.9433 B(  6-C ,  8-H ) :   0.9358 B(  6-C ,  9-C ) :   1.0597
B(  9-C , 10-H ) :   0.9533 B(  9-C , 11-H ) :   0.9495 B(  9-C , 12-C ) :   1.0893
B( 12-C , 13-H ) :   0.9707 B( 12-C , 14-H ) :   0.9719 B( 12-C , 15-H ) :   0.9776
B( 16-S , 17-C ) :   1.1826 B( 16-S , 20-C ) :   1.1487 B( 17-C , 18-C ) :   1.5703
B( 17-C , 20-C ) :   0.1002 B( 17-C , 33-H ) :   0.9547 B( 18-C , 19-C ) :   1.2816
B( 18-C , 21-H ) :   0.9894 B( 19-C , 20-C ) :   1.5496 B( 19-C , 22-C ) :   1.0674
B( 22-C , 23-H ) :   0.9164 B( 22-C , 24-H ) :   0.9170 B( 22-C , 25-C ) :   1.0643
B( 25-C , 26-H ) :   0.9553 B( 25-C , 27-H ) :   0.9512 B( 25-C , 28-C ) :   1.0758
B( 28-C , 29-H ) :   0.9766 B( 28-C , 30-H ) :   0.9755 B( 28-C , 31-H ) :   0.9747

Dispersion correction           -0.014122268
FINAL SINGLE POINT ENERGY     -1339.864617850042

DIPOLE MOMENT
-------------
                                X             Y             Z
Electronic contribution:    -26.36120      -5.36358      15.51450
Nuclear contribution   :     26.94816       5.57895     -15.77179
                        -----------------------------------------
Total Dipole Moment    :      0.58696       0.21536      -0.25729
                        -----------------------------------------
Magnitude (a.u.)       :      0.67609
Magnitude (Debye)      :      1.71849

Rotational constants in cm-1:     0.017789     0.009021     0.006916
Rotational constants in MHz :   533.289577   270.438458   207.324592

                             ****ORCA TERMINATED NORMALLY****
TOTAL RUN TIME: 0 days 0 hours 0 minutes 32 seconds 102 msec
