                         Program Version 4.2.1 -  RELEASE  -
|  1> ! wB97X-D3 SP def2-SVP
|  2> %pal
|  3> nprocs 16
|  4> end
|  5>
|  6> * xyz 0 1
|  7> S 	 54.3509 	 12.9398 	 77.0632
|  8> C 	 55.4674 	 13.5018 	 75.8297
|  9> C 	 56.759 	 13.3039 	 76.1766
| 10> C 	 56.875 	 12.7017 	 77.4484
| 11> C 	 55.6715 	 12.428 	 78.0341
| 12> H 	 57.7947 	 12.4269 	 77.8414
| 13> C 	 58.0161 	 13.6219 	 75.3374
| 14> H 	 57.8169 	 14.5191 	 74.8176
| 15> H 	 57.9963 	 12.8252 	 74.551
| 16> C 	 59.4213 	 13.5922 	 76.0499
| 17> H 	 59.4883 	 12.6649 	 76.4993
| 18> H 	 60.2403 	 13.6027 	 75.3301
| 19> C 	 59.5619 	 14.7778 	 77.0019
| 20> H 	 59.2201 	 15.7243 	 76.6324
| 21> H 	 58.9468 	 14.5988 	 77.9178
| 22> H 	 60.6486 	 14.7959 	 77.2708
| 23> S 	 54.5126 	 12.4082 	 80.5085
| 24> C 	 55.0482 	 11.225 	 81.6454
| 25> C 	 55.7433 	 10.2413 	 81.0749
| 26> C 	 56.0854 	 10.4686 	 79.7047
| 27> C 	 55.4956 	 11.6209 	 79.2511
| 28> H 	 56.1346 	 9.47889 	 81.7049
| 29> C 	 56.9009 	 9.51351 	 78.9372
| 30> H 	 57.4355 	 8.87096 	 79.6135
| 31> H 	 57.737 	 9.96824 	 78.3465
| 32> C 	 56.0451 	 8.52052 	 78.1065
| 33> H 	 55.2021 	 8.3135 	 78.7014
| 34> H 	 56.5719 	 7.5975 	 77.907
| 35> C 	 55.5328 	 9.08579 	 76.7311
| 36> H 	 56.4293 	 9.52352 	 76.2226
| 37> H 	 54.7039 	 9.82372 	 76.785
| 38> H 	 55.1647 	 8.29962 	 76.0671
| 39> H 	 55.1413 	 13.9926 	 74.8823
| 40> H 	 54.6391 	 11.2365 	 82.7064
| 41> *
| 42>
| 43>                          ****END OF INPUT****

CARTESIAN COORDINATES (ANGSTROEM)
---------------------------------
  S     54.350900   12.939800   77.063200
  C     55.467400   13.501800   75.829700
  C     56.759000   13.303900   76.176600
  C     56.875000   12.701700   77.448400
  C     55.671500   12.428000   78.034100
  H     57.794700   12.426900   77.841400
  C     58.016100   13.621900   75.337400
  H     57.816900   14.519100   74.817600
  H     57.996300   12.825200   74.551000
  C     59.421300   13.592200   76.049900
  H     59.488300   12.664900   76.499300
  H     60.240300   13.602700   75.330100
  C     59.561900   14.777800   77.001900
  H     59.220100   15.724300   76.632400
  H     58.946800   14.598800   77.917800
  H     60.648600   14.795900   77.270800
  S     54.512600   12.408200   80.508500
  C     55.048200   11.225000   81.645400
  C     55.743300   10.241300   81.074900
  C     56.085400   10.468600   79.704700
  C     55.495600   11.620900   79.251100
  H     56.134600    9.478890   81.704900
  C     56.900900    9.513510   78.937200
  H     57.435500    8.870960   79.613500
  H     57.737000    9.968240   78.346500
  C     56.045100    8.520520   78.106500
  H     55.202100    8.313500   78.701400
  H     56.571900    7.597500   77.907000
  C     55.532800    9.085790   76.731100
  H     56.429300    9.523520   76.222600
  H     54.703900    9.823720   76.785000
  H     55.164700    8.299620   76.067100
  H     55.141300   13.992600   74.882300
  H     54.639100   11.236500   82.706400

 Total Charge           Charge          ....    0
 Multiplicity           Mult            ....    1
 Number of Electrons    NEL             ....  134
 Basis Dimension        Dim             ....  322

ORBITAL ENERGIES
----------------

  NO   OCC          E(Eh)            E(eV)
   0   2.0000     -88.966231     -2420.8942
   1   2.0000     -88.959089     -2420.6999
   2   2.0000     -10.324728      -280.9501
   3   2.0000     -10.323212      -280.9089
   4   2.0000     -10.314795      -280.6799
   5   2.0000     -10.310538      -280.5640
   6   2.0000     -10.301399      -280.3153
   7   2.0000     -10.295882      -280.1652
   8   2.0000     -10.294527      -280.1283
   9   2.0000     -10.290842      -280.0281
  10   2.0000     -10.288037      -279.9517
  11   2.0000     -10.286169      -279.9009
  12   2.0000     -10.282209      -279.7931
  13   2.0000     -10.281616      -279.7770
  14   2.0000     -10.280657      -279.7509
  15   2.0000     -10.275546      -279.6118
  16   2.0000      -8.081230      -219.9014
  17   2.0000      -8.074645      -219.7223
  18   2.0000      -6.039738      -164.3496
  19   2.0000      -6.035734      -164.2407
  20   2.0000      -6.033114      -164.1694
  21   2.0000      -6.031940      -164.1374
  22   2.0000      -6.029154      -164.0616
  23   2.0000      -6.025293      -163.9566
  24   2.0000      -1.011643       -27.5282
  25   2.0000      -0.990612       -26.9559
  26   2.0000      -0.909964       -24.7614
  27   2.0000      -0.908648       -24.7256
  28   2.0000      -0.870327       -23.6828
  29   2.0000      -0.848394       -23.0860
  30   2.0000      -0.843105       -22.9421
  31   2.0000      -0.815038       -22.1783
  32   2.0000      -0.783103       -21.3093
  33   2.0000      -0.772332       -21.0162
  34   2.0000      -0.712765       -19.3953
  35   2.0000      -0.698947       -19.0193
  36   2.0000      -0.688609       -18.7380
  37   2.0000      -0.660640       -17.9769
  38   2.0000      -0.637668       -17.3518
  39   2.0000      -0.629723       -17.1356
  40   2.0000      -0.603347       -16.4179
  41   2.0000      -0.564065       -15.3490
  42   2.0000      -0.548020       -14.9124
  43   2.0000      -0.546990       -14.8844
  44   2.0000      -0.540248       -14.7009
  45   2.0000      -0.532989       -14.5034
  46   2.0000      -0.517154       -14.0725
  47   2.0000      -0.507062       -13.7978
  48   2.0000      -0.499435       -13.5903
  49   2.0000      -0.497640       -13.5415
  50   2.0000      -0.492663       -13.4060
  51   2.0000      -0.484839       -13.1931
  52   2.0000      -0.473504       -12.8847
  53   2.0000      -0.460509       -12.5311
  54   2.0000      -0.458262       -12.4699
  55   2.0000      -0.447913       -12.1883
  56   2.0000      -0.444848       -12.1049
  57   2.0000      -0.440337       -11.9822
  58   2.0000      -0.428550       -11.6614
  59   2.0000      -0.423792       -11.5320
  60   2.0000      -0.422762       -11.5039
  61   2.0000      -0.415507       -11.3065
  62   2.0000      -0.412313       -11.2196
  63   2.0000      -0.345586        -9.4039
  64   2.0000      -0.332313        -9.0427
  65   2.0000      -0.330258        -8.9868
  66   2.0000      -0.294462        -8.0127
  67   0.0000       0.036677         0.9980
  68   0.0000       0.072687         1.9779
  69   0.0000       0.110782         3.0145
  70   0.0000       0.122064         3.3215
  71   0.0000       0.138460         3.7677

MULLIKEN ATOMIC CHARGES
-----------------------
   0 S :    0.115162
   1 C :   -0.161109
   2 C :   -0.078398
   3 C :    0.035462
   4 C :   -0.111054
   5 H :   -0.025389
   6 C :    0.056231
   7 H :    0.016382
   8 H :    0.043395
   9 C :   -0.038938
  10 H :    0.012928
  11 H :    0.028155
  12 C :   -0.058863
  13 H :    0.032874
  14 H :    0.041228
  15 H :    0.042260
  16 S :    0.087618
  17 C :   -0.107823
  18 C :   -0.019415
  19 C :   -0.035426
  20 C :   -0.159997
  21 H :    0.008353
  22 C :    0.074514
  23 H :    0.002699
  24 H :    0.029941
  25 C :   -0.041765
  26 H :    0.017320
  27 H :    0.028060
  28 C :   -0.070611
  29 H :    0.028960
  30 H :    0.043357
  31 H :    0.030802
  32 H :    0.053905
  33 H :    0.079178
Sum of atomic charges:   -0.0000000

LOEWDIN ATOMIC CHARGES
----------------------
   0 S :    0.417358
   1 C :   -0.205850
   2 C :   -0.061961
   3 C :   -0.060673
   4 C :   -0.200001
   5 H :    0.015930
   6 C :   -0.026394
   7 H :    0.020958
   8 H :    0.039076
   9 C :   -0.034526
  10 H :    0.012415
  11 H :    0.027850
  12 C :   -0.065997
  13 H :    0.022762
  14 H :    0.031157
  15 H :    0.032179
  16 S :    0.389706
  17 C :   -0.191193
  18 C :   -0.074667
  19 C :   -0.055261
  20 C :   -0.181169
  21 H :    0.028888
  22 C :   -0.034303
  23 H :    0.028772
  24 H :    0.032653
  25 C :   -0.028106
  26 H :    0.018795
  27 H :    0.022819
  28 C :   -0.072977
  29 H :    0.025998
  30 H :    0.024179
  31 H :    0.023781
  32 H :    0.034921
  33 H :    0.042881

  Mayer bond orders larger than 0.100000
B(  0-S ,  1-C ) :   1.1226 B(  0-S ,  4-C ) :   1.1690 B(  1-C ,  2-C ) :   1.6415
B(  1-C , 32-H ) :   0.9652 B(  2-C ,  3-C ) :   1.2513 B(  2-C ,  6-C ) :   0.9847
B(  3-C ,  4-C ) :   1.5672 B(  3-C ,  5-H ) :   1.0079 B(  4-C , 20-C ) :   0.9960
B(  6-C ,  7-H ) :   0.9452 B(  6-C ,  8-H ) :   0.9367 B(  6-C ,  9-C ) :   1.0803
B(  9-C , 10-H ) :   0.9461 B(  9-C , 11-H ) :   0.9551 B(  9-C , 12-C ) :   1.0731
B( 12-C , 13-H ) :   0.9771 B( 12-C , 14-H ) :   0.9737 B( 12-C , 15-H ) :   0.9752
B( 16-S , 17-C ) :   1.1482 B( 16-S , 20-C ) :   1.1341 B( 17-C , 18-C ) :   1.6505
B( 17-C , 33-H ) :   0.9540 B( 18-C , 19-C ) :   1.2065 B( 18-C , 21-H ) :   0.9925
B( 19-C , 20-C ) :   1.6310 B( 19-C , 22-C ) :   1.0623 B( 22-C , 23-H ) :   0.9167
B( 22-C , 24-H ) :   0.9354 B( 22-C , 25-C ) :   1.0727 B( 25-C , 26-H ) :   0.9503
B( 25-C , 27-H ) :   0.9584 B( 25-C , 28-C ) :   1.0761 B( 28-C , 29-H ) :   0.9766
B( 28-C , 30-H ) :   0.9721 B( 28-C , 31-H ) :   0.9750

Dispersion correction           -0.015952121
FINAL SINGLE POINT ENERGY     -1339.883315260502

DIPOLE MOMENT
-------------
                                X             Y             Z
Electronic contribution:    -19.53950       6.60114      11.61492
Nuclear contribution   :     20.17883      -6.93597     -11.77110
                        -----------------------------------------
Total Dipole Moment    :      0.63933      -0.33483      -0.15619
                        -----------------------------------------
Magnitude (a.u.)       :      0.73841
Magnitude (Debye)      :      1.87689

Rotational constants in cm-1:     0.018538     0.009312     0.008801
Rotational constants in MHz :   555.753973   279.152340   263.836503

                             ****ORCA TERMINATED NORMALLY****
TOTAL RUN TIME: 0 days 0 hours 0 minutes 33 seconds 355 msec
