                         Program Version 4.2.1 -  RELEASE  -
|  1> ! wB97X-D3 SP def2-SVP
|  2> %pal
|  3> nprocs 16
|  4> end
|  5>
|  6> * xyz 0 1
|  7> S 	 -37.7945 	 54.2532 	 109.023
|  8> C 	 -38.51 	 55.156 	 110.401
|  9> C 	 -39.1079 	 54.2928 	 111.292
| 10> C 	 -38.9813 	 52.9691 	 110.845
| 11> C 	 -38.3943 	 52.7955 	 109.6
| 12> H 	 -39.3122 	 52.0134 	 111.284
| 13> C 	 -39.9611 	 54.6497 	 112.56
| 14> H 	 -39.7693 	 55.7566 	 112.604
| 15> H 	 -39.5267 	 54.2547 	 113.457
| 16> C 	 -41.5071 	 54.4705 	 112.38
| 17> H 	 -41.8249 	 53.3966 	 112.391
| 18> H 	 -41.9505 	 54.8655 	 113.283
| 19> C 	 -42.1412 	 55.0792 	 111.199
| 20> H 	 -42.0862 	 56.1316 	 111.058
| 21> H 	 -41.6887 	 54.4336 	 110.375
| 22> H 	 -43.1123 	 54.719 	 111.136
| 23> S 	 -36.7487 	 50.9925 	 108.37
| 24> C 	 -37.3946 	 49.5622 	 107.574
| 25> C 	 -38.7588 	 49.5307 	 107.77
| 26> C 	 -39.3213 	 50.6852 	 108.419
| 27> C 	 -38.3091 	 51.5722 	 108.775
| 28> H 	 -39.2763 	 48.6607 	 107.312
| 29> C 	 -40.806 	 50.9513 	 108.616
| 30> H 	 -41.3821 	 50.6681 	 107.723
| 31> H 	 -40.7795 	 52.0321 	 108.601
| 32> C 	 -41.4244 	 50.2851 	 109.899
| 33> H 	 -42.4663 	 50.5026 	 109.993
| 34> H 	 -40.9368 	 50.7244 	 110.736
| 35> C 	 -41.3172 	 48.7334 	 109.827
| 36> H 	 -40.3061 	 48.3433 	 109.829
| 37> H 	 -41.9766 	 48.391 	 108.978
| 38> H 	 -41.6709 	 48.297 	 110.789
| 39> H 	 -38.5658 	 56.1899 	 110.374
| 40> H 	 -36.9238 	 48.6864 	 107.105
| 41> *
| 42>
| 43>                          ****END OF INPUT****

CARTESIAN COORDINATES (ANGSTROEM)
---------------------------------
  S    -37.794500   54.253200  109.023000
  C    -38.510000   55.156000  110.401000
  C    -39.107900   54.292800  111.292000
  C    -38.981300   52.969100  110.845000
  C    -38.394300   52.795500  109.600000
  H    -39.312200   52.013400  111.284000
  C    -39.961100   54.649700  112.560000
  H    -39.769300   55.756600  112.604000
  H    -39.526700   54.254700  113.457000
  C    -41.507100   54.470500  112.380000
  H    -41.824900   53.396600  112.391000
  H    -41.950500   54.865500  113.283000
  C    -42.141200   55.079200  111.199000
  H    -42.086200   56.131600  111.058000
  H    -41.688700   54.433600  110.375000
  H    -43.112300   54.719000  111.136000
  S    -36.748700   50.992500  108.370000
  C    -37.394600   49.562200  107.574000
  C    -38.758800   49.530700  107.770000
  C    -39.321300   50.685200  108.419000
  C    -38.309100   51.572200  108.775000
  H    -39.276300   48.660700  107.312000
  C    -40.806000   50.951300  108.616000
  H    -41.382100   50.668100  107.723000
  H    -40.779500   52.032100  108.601000
  C    -41.424400   50.285100  109.899000
  H    -42.466300   50.502600  109.993000
  H    -40.936800   50.724400  110.736000
  C    -41.317200   48.733400  109.827000
  H    -40.306100   48.343300  109.829000
  H    -41.976600   48.391000  108.978000
  H    -41.670900   48.297000  110.789000
  H    -38.565800   56.189900  110.374000
  H    -36.923800   48.686400  107.105000

 Total Charge           Charge          ....    0
 Multiplicity           Mult            ....    1
 Number of Electrons    NEL             ....  134
 Basis Dimension        Dim             ....  322

ORBITAL ENERGIES
----------------

  NO   OCC          E(Eh)            E(eV)
   0   2.0000     -88.966454     -2420.9003
   1   2.0000     -88.964545     -2420.8483
   2   2.0000     -10.326059      -280.9864
   3   2.0000     -10.325101      -280.9603
   4   2.0000     -10.316933      -280.7380
   5   2.0000     -10.313788      -280.6524
   6   2.0000     -10.305057      -280.4149
   7   2.0000     -10.304118      -280.3893
   8   2.0000     -10.302071      -280.3336
   9   2.0000     -10.294362      -280.1238
  10   2.0000     -10.292267      -280.0668
  11   2.0000     -10.291126      -280.0358
  12   2.0000     -10.289474      -279.9908
  13   2.0000     -10.287804      -279.9454
  14   2.0000     -10.284938      -279.8674
  15   2.0000     -10.270812      -279.4830
  16   2.0000      -8.081471      -219.9080
  17   2.0000      -8.080233      -219.8743
  18   2.0000      -6.040015      -164.3572
  19   2.0000      -6.038552      -164.3174
  20   2.0000      -6.035817      -164.2429
  21   2.0000      -6.034496      -164.2070
  22   2.0000      -6.032283      -164.1468
  23   2.0000      -6.031230      -164.1181
  24   2.0000      -1.012392       -27.5486
  25   2.0000      -0.987426       -26.8692
  26   2.0000      -0.913233       -24.8503
  27   2.0000      -0.904479       -24.6121
  28   2.0000      -0.873168       -23.7601
  29   2.0000      -0.848449       -23.0875
  30   2.0000      -0.843748       -22.9595
  31   2.0000      -0.815786       -22.1987
  32   2.0000      -0.789306       -21.4781
  33   2.0000      -0.772953       -21.0331
  34   2.0000      -0.708519       -19.2798
  35   2.0000      -0.698472       -19.0064
  36   2.0000      -0.692833       -18.8529
  37   2.0000      -0.655456       -17.8359
  38   2.0000      -0.647014       -17.6061
  39   2.0000      -0.615765       -16.7558
  40   2.0000      -0.587065       -15.9748
  41   2.0000      -0.571091       -15.5402
  42   2.0000      -0.561719       -15.2852
  43   2.0000      -0.556926       -15.1547
  44   2.0000      -0.544828       -14.8255
  45   2.0000      -0.541222       -14.7274
  46   2.0000      -0.523624       -14.2485
  47   2.0000      -0.513016       -13.9599
  48   2.0000      -0.500310       -13.6141
  49   2.0000      -0.491001       -13.3608
  50   2.0000      -0.484252       -13.1772
  51   2.0000      -0.482286       -13.1237
  52   2.0000      -0.470917       -12.8143
  53   2.0000      -0.469274       -12.7696
  54   2.0000      -0.454592       -12.3701
  55   2.0000      -0.451800       -12.2941
  56   2.0000      -0.439722       -11.9654
  57   2.0000      -0.432103       -11.7581
  58   2.0000      -0.430804       -11.7228
  59   2.0000      -0.425476       -11.5778
  60   2.0000      -0.423160       -11.5148
  61   2.0000      -0.419466       -11.4143
  62   2.0000      -0.404929       -11.0187
  63   2.0000      -0.344764        -9.3815
  64   2.0000      -0.336524        -9.1573
  65   2.0000      -0.325638        -8.8611
  66   2.0000      -0.299334        -8.1453
  67   0.0000       0.035286         0.9602
  68   0.0000       0.067754         1.8437
  69   0.0000       0.113807         3.0968
  70   0.0000       0.122295         3.3278
  71   0.0000       0.125708         3.4207

MULLIKEN ATOMIC CHARGES
-----------------------
   0 S :    0.109651
   1 C :   -0.114147
   2 C :   -0.084818
   3 C :    0.021720
   4 C :   -0.182923
   5 H :    0.015329
   6 C :    0.094049
   7 H :    0.016425
   8 H :    0.039957
   9 C :   -0.094539
  10 H :    0.030606
  11 H :    0.021963
  12 C :   -0.007618
  13 H :    0.039057
  14 H :    0.037397
  15 H :    0.011711
  16 S :    0.118323
  17 C :   -0.098348
  18 C :   -0.070925
  19 C :   -0.036866
  20 C :   -0.157537
  21 H :    0.030820
  22 C :    0.058835
  23 H :    0.027181
  24 H :    0.034619
  25 C :   -0.012035
  26 H :    0.025361
  27 H :    0.003275
  28 C :   -0.087342
  29 H :    0.045877
  30 H :    0.046548
  31 H :    0.031609
  32 H :    0.024058
  33 H :    0.062725
Sum of atomic charges:   -0.0000000

LOEWDIN ATOMIC CHARGES
----------------------
   0 S :    0.422631
   1 C :   -0.172636
   2 C :   -0.063338
   3 C :   -0.074636
   4 C :   -0.218337
   5 H :    0.031808
   6 C :   -0.023881
   7 H :    0.033267
   8 H :    0.030570
   9 C :   -0.044208
  10 H :    0.028365
  11 H :    0.019245
  12 C :   -0.063127
  13 H :    0.021210
  14 H :    0.041502
  15 H :    0.021775
  16 S :    0.420550
  17 C :   -0.199791
  18 C :   -0.076769
  19 C :   -0.058982
  20 C :   -0.213954
  21 H :    0.036219
  22 C :   -0.032140
  23 H :    0.030794
  24 H :    0.031692
  25 C :   -0.029203
  26 H :    0.021818
  27 H :    0.012690
  28 C :   -0.072137
  29 H :    0.025145
  30 H :    0.032962
  31 H :    0.029191
  32 H :    0.011126
  33 H :    0.040578

  Mayer bond orders larger than 0.100000
B(  0-S ,  1-C ) :   1.1458 B(  0-S ,  4-C ) :   1.1831 B(  1-C ,  2-C ) :   1.5973
B(  1-C ,  4-C ) :   0.1039 B(  1-C , 32-H ) :   0.9808 B(  2-C ,  3-C ) :   1.2332
B(  2-C ,  6-C ) :   1.0043 B(  3-C ,  4-C ) :   1.5727 B(  3-C ,  5-H ) :   0.9941
B(  4-C , 20-C ) :   0.9807 B(  6-C ,  7-H ) :   0.9401 B(  6-C ,  8-H ) :   0.9469
B(  6-C ,  9-C ) :   1.0574 B(  9-C , 10-H ) :   0.9559 B(  9-C , 11-H ) :   0.9535
B(  9-C , 12-C ) :   1.0932 B( 12-C , 13-H ) :   0.9765 B( 12-C , 14-H ) :   0.9615
B( 12-C , 15-H ) :   0.9614 B( 16-S , 17-C ) :   1.1369 B( 16-S , 20-C ) :   1.1681
B( 17-C , 18-C ) :   1.6374 B( 17-C , 33-H ) :   0.9629 B( 18-C , 19-C ) :   1.2291
B( 18-C , 21-H ) :   0.9802 B( 19-C , 20-C ) :   1.5954 B( 19-C , 22-C ) :   1.0245
B( 22-C , 23-H ) :   0.9421 B( 22-C , 24-H ) :   0.9337 B( 22-C , 25-C ) :   1.0614
B( 25-C , 26-H ) :   0.9547 B( 25-C , 27-H ) :   0.9529 B( 25-C , 28-C ) :   1.0771
B( 28-C , 29-H ) :   0.9720 B( 28-C , 30-H ) :   0.9752 B( 28-C , 31-H ) :   0.9716

Dispersion correction           -0.016064070
FINAL SINGLE POINT ENERGY     -1339.866802941085

DIPOLE MOMENT
-------------
                                X             Y             Z
Electronic contribution:     26.27545       2.95405     -12.19713
Nuclear contribution   :    -26.99566      -3.12726      12.49035
                        -----------------------------------------
Total Dipole Moment    :     -0.72021      -0.17321       0.29321
                        -----------------------------------------
Magnitude (a.u.)       :      0.79667
Magnitude (Debye)      :      2.02496

Rotational constants in cm-1:     0.018963     0.010300     0.007328
Rotational constants in MHz :   568.507794   308.790253   219.676392

                             ****ORCA TERMINATED NORMALLY****
TOTAL RUN TIME: 0 days 0 hours 0 minutes 32 seconds 193 msec
