                         Program Version 4.2.1 -  RELEASE  -
|  1> ! wB97X-D3 SP def2-SVP
|  2> %pal
|  3> nprocs 16
|  4> end
|  5>
|  6> * xyz 0 1
|  7> S 	 -67.148 	 39.2322 	 117.656
|  8> C 	 -68.2939 	 38.74 	 118.874
|  9> C 	 -69.492 	 38.2144 	 118.334
| 10> C 	 -69.2744 	 37.7941 	 117.019
| 11> C 	 -68.0453 	 38.2208 	 116.491
| 12> H 	 -70.0126 	 37.3039 	 116.502
| 13> C 	 -70.68 	 37.6796 	 119.061
| 14> H 	 -71.495 	 38.0193 	 118.452
| 15> H 	 -70.7507 	 38.0753 	 120.052
| 16> C 	 -70.7114 	 36.0858 	 118.989
| 17> H 	 -71.5963 	 35.678 	 119.494
| 18> H 	 -70.7697 	 35.677 	 117.986
| 19> C 	 -69.5266 	 35.5002 	 119.761
| 20> H 	 -69.6745 	 35.6634 	 120.811
| 21> H 	 -69.4557 	 34.4648 	 119.668
| 22> H 	 -68.5416 	 35.872 	 119.457
| 23> S 	 -67.4546 	 39.2894 	 114.024
| 24> C 	 -67.1975 	 38.2964 	 112.633
| 25> C 	 -67.2815 	 36.9335 	 112.941
| 26> C 	 -67.5121 	 36.7435 	 114.316
| 27> C 	 -67.7161 	 37.916 	 115.075
| 28> H 	 -66.9445 	 36.1329 	 112.253
| 29> C 	 -67.571 	 35.2901 	 114.853
| 30> H 	 -68.4209 	 34.7197 	 114.403
| 31> H 	 -67.7602 	 35.3197 	 115.972
| 32> C 	 -66.2546 	 34.5367 	 114.502
| 33> H 	 -66.3293 	 34.3605 	 113.39
| 34> H 	 -66.3327 	 33.5754 	 115.015
| 35> C 	 -64.9575 	 35.1753 	 115.043
| 36> H 	 -64.8502 	 34.9779 	 116.118
| 37> H 	 -65.0103 	 36.2432 	 114.929
| 38> H 	 -64.1718 	 34.6805 	 114.57
| 39> H 	 -68.2175 	 38.9212 	 119.953
| 40> H 	 -66.8659 	 38.6913 	 111.628
| 41> *
| 42>
| 43>                          ****END OF INPUT****

CARTESIAN COORDINATES (ANGSTROEM)
---------------------------------
  S    -67.148000   39.232200  117.656000
  C    -68.293900   38.740000  118.874000
  C    -69.492000   38.214400  118.334000
  C    -69.274400   37.794100  117.019000
  C    -68.045300   38.220800  116.491000
  H    -70.012600   37.303900  116.502000
  C    -70.680000   37.679600  119.061000
  H    -71.495000   38.019300  118.452000
  H    -70.750700   38.075300  120.052000
  C    -70.711400   36.085800  118.989000
  H    -71.596300   35.678000  119.494000
  H    -70.769700   35.677000  117.986000
  C    -69.526600   35.500200  119.761000
  H    -69.674500   35.663400  120.811000
  H    -69.455700   34.464800  119.668000
  H    -68.541600   35.872000  119.457000
  S    -67.454600   39.289400  114.024000
  C    -67.197500   38.296400  112.633000
  C    -67.281500   36.933500  112.941000
  C    -67.512100   36.743500  114.316000
  C    -67.716100   37.916000  115.075000
  H    -66.944500   36.132900  112.253000
  C    -67.571000   35.290100  114.853000
  H    -68.420900   34.719700  114.403000
  H    -67.760200   35.319700  115.972000
  C    -66.254600   34.536700  114.502000
  H    -66.329300   34.360500  113.390000
  H    -66.332700   33.575400  115.015000
  C    -64.957500   35.175300  115.043000
  H    -64.850200   34.977900  116.118000
  H    -65.010300   36.243200  114.929000
  H    -64.171800   34.680500  114.570000
  H    -68.217500   38.921200  119.953000
  H    -66.865900   38.691300  111.628000

 Total Charge           Charge          ....    0
 Multiplicity           Mult            ....    1
 Number of Electrons    NEL             ....  134
 Basis Dimension        Dim             ....  322

ORBITAL ENERGIES
----------------

  NO   OCC          E(Eh)            E(eV)
   0   2.0000     -88.975527     -2421.1472
   1   2.0000     -88.963529     -2420.8207
   2   2.0000     -10.335260      -281.2367
   3   2.0000     -10.328579      -281.0549
   4   2.0000     -10.320938      -280.8470
   5   2.0000     -10.318505      -280.7808
   6   2.0000     -10.302776      -280.3528
   7   2.0000     -10.296964      -280.1946
   8   2.0000     -10.295512      -280.1551
   9   2.0000     -10.293903      -280.1113
  10   2.0000     -10.293786      -280.1081
  11   2.0000     -10.293173      -280.0915
  12   2.0000     -10.287920      -279.9485
  13   2.0000     -10.287326      -279.9324
  14   2.0000     -10.267561      -279.3945
  15   2.0000     -10.267315      -279.3878
  16   2.0000      -8.089221      -220.1189
  17   2.0000      -8.078683      -219.8321
  18   2.0000      -6.047813      -164.5694
  19   2.0000      -6.044037      -164.4666
  20   2.0000      -6.039796      -164.3512
  21   2.0000      -6.037097      -164.2778
  22   2.0000      -6.032972      -164.1655
  23   2.0000      -6.029691      -164.0762
  24   2.0000      -1.002883       -27.2898
  25   2.0000      -0.984327       -26.7849
  26   2.0000      -0.912443       -24.8288
  27   2.0000      -0.901059       -24.5191
  28   2.0000      -0.862355       -23.4659
  29   2.0000      -0.853806       -23.2332
  30   2.0000      -0.841913       -22.9096
  31   2.0000      -0.808433       -21.9986
  32   2.0000      -0.781841       -21.2750
  33   2.0000      -0.770455       -20.9651
  34   2.0000      -0.708611       -19.2823
  35   2.0000      -0.697330       -18.9753
  36   2.0000      -0.685106       -18.6427
  37   2.0000      -0.654357       -17.8060
  38   2.0000      -0.638192       -17.3661
  39   2.0000      -0.623507       -16.9665
  40   2.0000      -0.589858       -16.0509
  41   2.0000      -0.563532       -15.3345
  42   2.0000      -0.554126       -15.0785
  43   2.0000      -0.548816       -14.9340
  44   2.0000      -0.543241       -14.7823
  45   2.0000      -0.535779       -14.5793
  46   2.0000      -0.518722       -14.1151
  47   2.0000      -0.509555       -13.8657
  48   2.0000      -0.498872       -13.5750
  49   2.0000      -0.493783       -13.4365
  50   2.0000      -0.487702       -13.2711
  51   2.0000      -0.476596       -12.9688
  52   2.0000      -0.468322       -12.7437
  53   2.0000      -0.459629       -12.5071
  54   2.0000      -0.454842       -12.3769
  55   2.0000      -0.452612       -12.3162
  56   2.0000      -0.442735       -12.0474
  57   2.0000      -0.436910       -11.8889
  58   2.0000      -0.433016       -11.7830
  59   2.0000      -0.431244       -11.7347
  60   2.0000      -0.423236       -11.5168
  61   2.0000      -0.416931       -11.3453
  62   2.0000      -0.405367       -11.0306
  63   2.0000      -0.342384        -9.3167
  64   2.0000      -0.331227        -9.0131
  65   2.0000      -0.327337        -8.9073
  66   2.0000      -0.287736        -7.8297
  67   0.0000       0.030239         0.8228
  68   0.0000       0.058191         1.5835
  69   0.0000       0.108205         2.9444
  70   0.0000       0.123445         3.3591
  71   0.0000       0.127138         3.4596

MULLIKEN ATOMIC CHARGES
-----------------------
   0 S :    0.135793
   1 C :   -0.126130
   2 C :   -0.091227
   3 C :    0.045225
   4 C :   -0.124686
   5 H :   -0.016075
   6 C :    0.095380
   7 H :    0.030788
   8 H :    0.019204
   9 C :   -0.090552
  10 H :    0.029733
  11 H :    0.032205
  12 C :   -0.030435
  13 H :    0.019895
  14 H :    0.013801
  15 H :    0.041487
  16 S :    0.102510
  17 C :   -0.118370
  18 C :   -0.043492
  19 C :   -0.060407
  20 C :   -0.175779
  21 H :    0.039549
  22 C :    0.034329
  23 H :    0.043357
  24 H :    0.031051
  25 C :   -0.132210
  26 H :    0.037443
  27 H :    0.029937
  28 C :   -0.001262
  29 H :    0.028610
  30 H :    0.045982
  31 H :    0.024461
  32 H :    0.051965
  33 H :    0.077920
Sum of atomic charges:   -0.0000000

LOEWDIN ATOMIC CHARGES
----------------------
   0 S :    0.403210
   1 C :   -0.201891
   2 C :   -0.063605
   3 C :   -0.036941
   4 C :   -0.191015
   5 H :    0.017962
   6 C :   -0.022494
   7 H :    0.034159
   8 H :    0.026191
   9 C :   -0.033503
  10 H :    0.026128
  11 H :    0.021437
  12 C :   -0.063828
  13 H :    0.022480
  14 H :    0.017016
  15 H :    0.027006
  16 S :    0.417443
  17 C :   -0.201312
  18 C :   -0.083844
  19 C :   -0.065265
  20 C :   -0.204535
  21 H :    0.039470
  22 C :   -0.038386
  23 H :    0.033793
  24 H :    0.029687
  25 C :   -0.046889
  26 H :    0.023130
  27 H :    0.024695
  28 C :   -0.056131
  29 H :    0.030284
  30 H :    0.025920
  31 H :    0.019833
  32 H :    0.029329
  33 H :    0.040468

  Mayer bond orders larger than 0.100000
B(  0-S ,  1-C ) :   1.1500 B(  0-S ,  4-C ) :   1.1338 B(  1-C ,  2-C ) :   1.5717
B(  1-C ,  4-C ) :   0.1022 B(  1-C , 32-H ) :   0.9626 B(  2-C ,  3-C ) :   1.2491
B(  2-C ,  6-C ) :   1.0491 B(  3-C ,  4-C ) :   1.5418 B(  3-C ,  5-H ) :   1.0090
B(  4-C , 20-C ) :   1.0453 B(  6-C ,  7-H ) :   0.9269 B(  6-C ,  8-H ) :   0.9480
B(  6-C ,  9-C ) :   1.0626 B(  9-C , 10-H ) :   0.9559 B(  9-C , 11-H ) :   0.9567
B(  9-C , 12-C ) :   1.0753 B( 12-C , 13-H ) :   0.9759 B( 12-C , 14-H ) :   0.9714
B( 12-C , 15-H ) :   0.9734 B( 16-S , 17-C ) :   1.1852 B( 16-S , 20-C ) :   1.1472
B( 17-C , 18-C ) :   1.5687 B( 17-C , 20-C ) :   0.1062 B( 17-C , 33-H ) :   0.9587
B( 18-C , 19-C ) :   1.2785 B( 18-C , 21-H ) :   0.9809 B( 19-C , 20-C ) :   1.5740
B( 19-C , 22-C ) :   1.0293 B( 22-C , 23-H ) :   0.9451 B( 22-C , 24-H ) :   0.9408
B( 22-C , 25-C ) :   1.0663 B( 25-C , 26-H ) :   0.9579 B( 25-C , 27-H ) :   0.9557
B( 25-C , 28-C ) :   1.0655 B( 28-C , 29-H ) :   0.9733 B( 28-C , 30-H ) :   0.9768
B( 28-C , 31-H ) :   0.9726

Dispersion correction           -0.015396951
FINAL SINGLE POINT ENERGY     -1339.863312040749

DIPOLE MOMENT
-------------
                                X             Y             Z
Electronic contribution:      3.53592      23.92449      -8.35755
Nuclear contribution   :     -3.80693     -24.50843       8.57073
                        -----------------------------------------
Total Dipole Moment    :     -0.27101      -0.58393       0.21317
                        -----------------------------------------
Magnitude (a.u.)       :      0.67813
Magnitude (Debye)      :      1.72368

Rotational constants in cm-1:     0.019103     0.009301     0.007664
Rotational constants in MHz :   572.701240   278.831336   229.766240

                             ****ORCA TERMINATED NORMALLY****
TOTAL RUN TIME: 0 days 0 hours 0 minutes 31 seconds 848 msec
