                         Program Version 4.2.1 -  RELEASE  -
|  1> ! wB97X-D3 SP def2-SVP
|  2> %pal
|  3> nprocs 16
|  4> end
|  5>
|  6> * xyz 0 1
|  7> S 	 56.3789 	 11.9056 	 75.613
|  8> C 	 57.483 	 13.2914 	 75.5782
|  9> C 	 58.8179 	 12.8741 	 75.8347
| 10> C 	 58.8375 	 11.4879 	 76.3113
| 11> C 	 57.5934 	 10.9169 	 76.3472
| 12> H 	 59.6584 	 10.7717 	 76.5026
| 13> C 	 60.0728 	 13.6123 	 75.3852
| 14> H 	 59.9079 	 13.942 	 74.3198
| 15> H 	 60.9332 	 12.972 	 75.4147
| 16> C 	 60.3646 	 14.8678 	 76.1438
| 17> H 	 59.4955 	 15.5132 	 76.112
| 18> H 	 60.3921 	 14.8544 	 77.2226
| 19> C 	 61.713 	 15.5278 	 75.7066
| 20> H 	 62.0245 	 16.3009 	 76.4008
| 21> H 	 62.4422 	 14.7187 	 75.6141
| 22> H 	 61.5873 	 16.0282 	 74.7095
| 23> S 	 57.155 	 9.56422 	 78.6717
| 24> C 	 56.3548 	 7.95793 	 78.6587
| 25> C 	 56.1415 	 7.54404 	 77.4054
| 26> C 	 56.4866 	 8.54178 	 76.4249
| 27> C 	 57.1944 	 9.62455 	 76.9377
| 28> H 	 55.5822 	 6.64725 	 77.1816
| 29> C 	 56.3519 	 8.26009 	 74.973
| 30> H 	 56.0619 	 9.13261 	 74.4031
| 31> H 	 55.587 	 7.48072 	 74.7537
| 32> C 	 57.6377 	 7.80907 	 74.2974
| 33> H 	 58.1282 	 6.97245 	 74.7971
| 34> H 	 58.3687 	 8.62963 	 74.3309
| 35> C 	 57.397 	 7.48726 	 72.7911
| 36> H 	 58.3352 	 7.16749 	 72.2619
| 37> H 	 57.0497 	 8.46995 	 72.2923
| 38> H 	 56.6139 	 6.73092 	 72.7408
| 39> H 	 57.2067 	 14.2056 	 75.0933
| 40> H 	 55.9779 	 7.4163 	 79.4925
| 41> *
| 42>
| 43>                          ****END OF INPUT****

CARTESIAN COORDINATES (ANGSTROEM)
---------------------------------
  S     56.378900   11.905600   75.613000
  C     57.483000   13.291400   75.578200
  C     58.817900   12.874100   75.834700
  C     58.837500   11.487900   76.311300
  C     57.593400   10.916900   76.347200
  H     59.658400   10.771700   76.502600
  C     60.072800   13.612300   75.385200
  H     59.907900   13.942000   74.319800
  H     60.933200   12.972000   75.414700
  C     60.364600   14.867800   76.143800
  H     59.495500   15.513200   76.112000
  H     60.392100   14.854400   77.222600
  C     61.713000   15.527800   75.706600
  H     62.024500   16.300900   76.400800
  H     62.442200   14.718700   75.614100
  H     61.587300   16.028200   74.709500
  S     57.155000    9.564220   78.671700
  C     56.354800    7.957930   78.658700
  C     56.141500    7.544040   77.405400
  C     56.486600    8.541780   76.424900
  C     57.194400    9.624550   76.937700
  H     55.582200    6.647250   77.181600
  C     56.351900    8.260090   74.973000
  H     56.061900    9.132610   74.403100
  H     55.587000    7.480720   74.753700
  C     57.637700    7.809070   74.297400
  H     58.128200    6.972450   74.797100
  H     58.368700    8.629630   74.330900
  C     57.397000    7.487260   72.791100
  H     58.335200    7.167490   72.261900
  H     57.049700    8.469950   72.292300
  H     56.613900    6.730920   72.740800
  H     57.206700   14.205600   75.093300
  H     55.977900    7.416300   79.492500

 Total Charge           Charge          ....    0
 Multiplicity           Mult            ....    1
 Number of Electrons    NEL             ....  134
 Basis Dimension        Dim             ....  322

ORBITAL ENERGIES
----------------

  NO   OCC          E(Eh)            E(eV)
   0   2.0000     -88.967712     -2420.9345
   1   2.0000     -88.963488     -2420.8196
   2   2.0000     -10.329089      -281.0688
   3   2.0000     -10.325868      -280.9812
   4   2.0000     -10.319517      -280.8083
   5   2.0000     -10.314701      -280.6773
   6   2.0000     -10.314689      -280.6770
   7   2.0000     -10.301709      -280.3237
   8   2.0000     -10.300106      -280.2801
   9   2.0000     -10.296684      -280.1870
  10   2.0000     -10.290851      -280.0283
  11   2.0000     -10.287196      -279.9288
  12   2.0000     -10.287017      -279.9240
  13   2.0000     -10.283706      -279.8339
  14   2.0000     -10.282269      -279.7948
  15   2.0000     -10.281375      -279.7704
  16   2.0000      -8.082189      -219.9275
  17   2.0000      -8.077890      -219.8106
  18   2.0000      -6.040725      -164.3765
  19   2.0000      -6.036818      -164.2702
  20   2.0000      -6.036570      -164.2634
  21   2.0000      -6.032856      -164.1624
  22   2.0000      -6.032409      -164.1502
  23   2.0000      -6.028492      -164.0436
  24   2.0000      -1.006873       -27.3984
  25   2.0000      -0.982410       -26.7327
  26   2.0000      -0.914798       -24.8929
  27   2.0000      -0.909249       -24.7419
  28   2.0000      -0.871186       -23.7062
  29   2.0000      -0.847319       -23.0567
  30   2.0000      -0.840686       -22.8762
  31   2.0000      -0.819416       -22.2974
  32   2.0000      -0.779201       -21.2031
  33   2.0000      -0.763014       -20.7627
  34   2.0000      -0.706830       -19.2338
  35   2.0000      -0.701097       -19.0778
  36   2.0000      -0.686973       -18.6935
  37   2.0000      -0.665922       -18.1207
  38   2.0000      -0.647364       -17.6157
  39   2.0000      -0.612496       -16.6669
  40   2.0000      -0.599522       -16.3138
  41   2.0000      -0.575955       -15.6725
  42   2.0000      -0.565489       -15.3877
  43   2.0000      -0.556870       -15.1532
  44   2.0000      -0.526891       -14.3374
  45   2.0000      -0.518184       -14.1005
  46   2.0000      -0.516236       -14.0475
  47   2.0000      -0.512278       -13.9398
  48   2.0000      -0.503951       -13.7132
  49   2.0000      -0.500499       -13.6193
  50   2.0000      -0.484317       -13.1789
  51   2.0000      -0.481667       -13.1068
  52   2.0000      -0.469087       -12.7645
  53   2.0000      -0.462668       -12.5898
  54   2.0000      -0.457503       -12.4493
  55   2.0000      -0.450097       -12.2478
  56   2.0000      -0.443438       -12.0666
  57   2.0000      -0.440954       -11.9990
  58   2.0000      -0.434620       -11.8266
  59   2.0000      -0.427697       -11.6382
  60   2.0000      -0.419247       -11.4083
  61   2.0000      -0.415453       -11.3050
  62   2.0000      -0.404072       -10.9954
  63   2.0000      -0.344644        -9.3782
  64   2.0000      -0.331788        -9.0284
  65   2.0000      -0.322682        -8.7806
  66   2.0000      -0.299055        -8.1377
  67   0.0000       0.033631         0.9151
  68   0.0000       0.057279         1.5586
  69   0.0000       0.092177         2.5083
  70   0.0000       0.116943         3.1822
  71   0.0000       0.131977         3.5913

MULLIKEN ATOMIC CHARGES
-----------------------
   0 S :    0.121598
   1 C :   -0.118032
   2 C :   -0.074463
   3 C :    0.018457
   4 C :   -0.174983
   5 H :    0.031676
   6 C :    0.075379
   7 H :    0.045642
   8 H :    0.017738
   9 C :   -0.090781
  10 H :    0.011483
  11 H :    0.018772
  12 C :   -0.051730
  13 H :    0.039992
  14 H :    0.033836
  15 H :    0.036274
  16 S :    0.105001
  17 C :   -0.072313
  18 C :   -0.012667
  19 C :   -0.039989
  20 C :   -0.136047
  21 H :    0.020067
  22 C :    0.050947
  23 H :    0.010246
  24 H :    0.017687
  25 C :   -0.076046
  26 H :    0.026153
  27 H :    0.026620
  28 C :   -0.079248
  29 H :    0.049282
  30 H :    0.041981
  31 H :    0.032279
  32 H :    0.050065
  33 H :    0.045122
Sum of atomic charges:    0.0000000

LOEWDIN ATOMIC CHARGES
----------------------
   0 S :    0.413860
   1 C :   -0.192688
   2 C :   -0.049452
   3 C :   -0.070945
   4 C :   -0.203009
   5 H :    0.042183
   6 C :   -0.029828
   7 H :    0.042576
   8 H :    0.025525
   9 C :   -0.052300
  10 H :    0.020228
  11 H :    0.023127
  12 C :   -0.063640
  13 H :    0.026484
  14 H :    0.025116
  15 H :    0.028180
  16 S :    0.399984
  17 C :   -0.163040
  18 C :   -0.068133
  19 C :   -0.057741
  20 C :   -0.207026
  21 H :    0.033999
  22 C :   -0.040313
  23 H :    0.023804
  24 H :    0.029945
  25 C :   -0.040613
  26 H :    0.019792
  27 H :    0.022682
  28 C :   -0.071762
  29 H :    0.031385
  30 H :    0.033138
  31 H :    0.019654
  32 H :    0.021265
  33 H :    0.027567

  Mayer bond orders larger than 0.100000
B(  0-S ,  1-C ) :   1.1422 B(  0-S ,  4-C ) :   1.1543 B(  1-C ,  2-C ) :   1.6007
B(  1-C , 32-H ) :   0.9712 B(  2-C ,  3-C ) :   1.2141 B(  2-C ,  6-C ) :   1.0185
B(  3-C ,  4-C ) :   1.5977 B(  3-C ,  5-H ) :   0.9876 B(  4-C , 20-C ) :   1.0171
B(  6-C ,  7-H ) :   0.9417 B(  6-C ,  8-H ) :   0.9479 B(  6-C ,  9-C ) :   1.0536
B(  9-C , 10-H ) :   0.9532 B(  9-C , 11-H ) :   0.9560 B(  9-C , 12-C ) :   1.0728
B( 12-C , 13-H ) :   0.9770 B( 12-C , 14-H ) :   0.9755 B( 12-C , 15-H ) :   0.9766
B( 16-S , 17-C ) :   1.1397 B( 16-S , 20-C ) :   1.1378 B( 17-C , 18-C ) :   1.6375
B( 17-C , 33-H ) :   0.9675 B( 18-C , 19-C ) :   1.2303 B( 18-C , 21-H ) :   0.9863
B( 19-C , 20-C ) :   1.5843 B( 19-C , 22-C ) :   1.0749 B( 22-C , 23-H ) :   0.9226
B( 22-C , 24-H ) :   0.9366 B( 22-C , 25-C ) :   1.0623 B( 25-C , 26-H ) :   0.9564
B( 25-C , 27-H ) :   0.9533 B( 25-C , 28-C ) :   1.0733 B( 28-C , 29-H ) :   0.9739
B( 28-C , 30-H ) :   0.9740 B( 28-C , 31-H ) :   0.9766

Dispersion correction           -0.013942859
FINAL SINGLE POINT ENERGY     -1339.872135978126

DIPOLE MOMENT
-------------
                                X             Y             Z
Electronic contribution:    -14.72488      -4.58974      16.14938
Nuclear contribution   :     14.90632       4.50551     -16.51277
                        -----------------------------------------
Total Dipole Moment    :      0.18144      -0.08423      -0.36339
                        -----------------------------------------
Magnitude (a.u.)       :      0.41481
Magnitude (Debye)      :      1.05437

Rotational constants in cm-1:     0.020796     0.007393     0.006335
Rotational constants in MHz :   623.436934   221.624920   189.930651

                             ****ORCA TERMINATED NORMALLY****
TOTAL RUN TIME: 0 days 0 hours 0 minutes 28 seconds 22 msec
