                         Program Version 4.2.1 -  RELEASE  -
|  1> ! wB97X-D3 SP def2-SVP
|  2> %pal
|  3> nprocs 16
|  4> end
|  5>
|  6> * xyz 0 1
|  7> S 	 -90.8845 	 43.2029 	 115.915
|  8> C 	 -90.4008 	 44.2388 	 117.278
|  9> C 	 -91.5727 	 44.4698 	 118.021
| 10> C 	 -92.7387 	 43.779 	 117.574
| 11> C 	 -92.4895 	 42.9612 	 116.477
| 12> H 	 -93.6873 	 43.8387 	 117.997
| 13> C 	 -91.5901 	 45.2336 	 119.338
| 14> H 	 -92.5372 	 45.5478 	 119.67
| 15> H 	 -90.9488 	 46.0427 	 119.185
| 16> C 	 -90.8767 	 44.52 	 120.396
| 17> H 	 -89.7578 	 44.568 	 120.301
| 18> H 	 -90.999 	 45.0163 	 121.37
| 19> C 	 -91.292 	 43.0777 	 120.569
| 20> H 	 -90.9444 	 42.506 	 119.688
| 21> H 	 -90.7572 	 42.5946 	 121.347
| 22> H 	 -92.3474 	 42.816 	 120.637
| 23> S 	 -93.1923 	 42.1091 	 113.995
| 24> C 	 -94.5622 	 41.0402 	 113.933
| 25> C 	 -95.1787 	 40.8219 	 115.155
| 26> C 	 -94.5868 	 41.5007 	 116.251
| 27> C 	 -93.4034 	 42.1051 	 115.749
| 28> H 	 -96.0346 	 40.1065 	 115.152
| 29> C 	 -95.055 	 41.3728 	 117.705
| 30> H 	 -94.4203 	 41.8044 	 118.456
| 31> H 	 -95.0003 	 40.2918 	 117.93
| 32> C 	 -96.4327 	 41.9721 	 118.061
| 33> H 	 -97.3087 	 41.4918 	 117.624
| 34> H 	 -96.4236 	 43.0481 	 117.749
| 35> C 	 -96.7282 	 41.9917 	 119.575
| 36> H 	 -96.8885 	 41.0255 	 120.08
| 37> H 	 -97.5944 	 42.5989 	 119.768
| 38> H 	 -95.9677 	 42.4145 	 120.15
| 39> H 	 -89.4421 	 44.7336 	 117.471
| 40> H 	 -94.8152 	 40.5825 	 113.072
| 41> *
| 42>
| 43>                          ****END OF INPUT****

CARTESIAN COORDINATES (ANGSTROEM)
---------------------------------
  S    -90.884500   43.202900  115.915000
  C    -90.400800   44.238800  117.278000
  C    -91.572700   44.469800  118.021000
  C    -92.738700   43.779000  117.574000
  C    -92.489500   42.961200  116.477000
  H    -93.687300   43.838700  117.997000
  C    -91.590100   45.233600  119.338000
  H    -92.537200   45.547800  119.670000
  H    -90.948800   46.042700  119.185000
  C    -90.876700   44.520000  120.396000
  H    -89.757800   44.568000  120.301000
  H    -90.999000   45.016300  121.370000
  C    -91.292000   43.077700  120.569000
  H    -90.944400   42.506000  119.688000
  H    -90.757200   42.594600  121.347000
  H    -92.347400   42.816000  120.637000
  S    -93.192300   42.109100  113.995000
  C    -94.562200   41.040200  113.933000
  C    -95.178700   40.821900  115.155000
  C    -94.586800   41.500700  116.251000
  C    -93.403400   42.105100  115.749000
  H    -96.034600   40.106500  115.152000
  C    -95.055000   41.372800  117.705000
  H    -94.420300   41.804400  118.456000
  H    -95.000300   40.291800  117.930000
  C    -96.432700   41.972100  118.061000
  H    -97.308700   41.491800  117.624000
  H    -96.423600   43.048100  117.749000
  C    -96.728200   41.991700  119.575000
  H    -96.888500   41.025500  120.080000
  H    -97.594400   42.598900  119.768000
  H    -95.967700   42.414500  120.150000
  H    -89.442100   44.733600  117.471000
  H    -94.815200   40.582500  113.072000

 Total Charge           Charge          ....    0
 Multiplicity           Mult            ....    1
 Number of Electrons    NEL             ....  134
 Basis Dimension        Dim             ....  322

ORBITAL ENERGIES
----------------

  NO   OCC          E(Eh)            E(eV)
   0   2.0000     -88.971474     -2421.0369
   1   2.0000     -88.964627     -2420.8506
   2   2.0000     -10.331287      -281.1286
   3   2.0000     -10.325706      -280.9768
   4   2.0000     -10.316619      -280.7295
   5   2.0000     -10.313308      -280.6394
   6   2.0000     -10.308817      -280.5172
   7   2.0000     -10.301278      -280.3120
   8   2.0000     -10.300595      -280.2934
   9   2.0000     -10.299094      -280.2526
  10   2.0000     -10.296295      -280.1764
  11   2.0000     -10.285924      -279.8942
  12   2.0000     -10.282020      -279.7880
  13   2.0000     -10.276112      -279.6272
  14   2.0000     -10.276048      -279.6255
  15   2.0000     -10.264904      -279.3222
  16   2.0000      -8.086178      -220.0361
  17   2.0000      -8.079232      -219.8471
  18   2.0000      -6.044464      -164.4782
  19   2.0000      -6.040948      -164.3826
  20   2.0000      -6.037783      -164.2964
  21   2.0000      -6.036917      -164.2729
  22   2.0000      -6.033638      -164.1836
  23   2.0000      -6.030076      -164.0867
  24   2.0000      -1.008199       -27.4345
  25   2.0000      -0.982493       -26.7350
  26   2.0000      -0.923733       -25.1360
  27   2.0000      -0.911226       -24.7957
  28   2.0000      -0.865659       -23.5558
  29   2.0000      -0.859969       -23.4010
  30   2.0000      -0.839662       -22.8484
  31   2.0000      -0.812651       -22.1133
  32   2.0000      -0.792374       -21.5616
  33   2.0000      -0.777982       -21.1700
  34   2.0000      -0.707910       -19.2632
  35   2.0000      -0.702198       -19.1078
  36   2.0000      -0.695771       -18.9329
  37   2.0000      -0.659984       -17.9591
  38   2.0000      -0.637181       -17.3386
  39   2.0000      -0.620436       -16.8829
  40   2.0000      -0.603772       -16.4295
  41   2.0000      -0.577729       -15.7208
  42   2.0000      -0.566795       -15.4233
  43   2.0000      -0.556959       -15.1556
  44   2.0000      -0.542799       -14.7703
  45   2.0000      -0.527842       -14.3633
  46   2.0000      -0.515911       -14.0387
  47   2.0000      -0.511926       -13.9302
  48   2.0000      -0.507535       -13.8107
  49   2.0000      -0.497482       -13.5372
  50   2.0000      -0.495719       -13.4892
  51   2.0000      -0.481359       -13.0985
  52   2.0000      -0.474974       -12.9247
  53   2.0000      -0.461546       -12.5593
  54   2.0000      -0.457907       -12.4603
  55   2.0000      -0.453188       -12.3319
  56   2.0000      -0.442601       -12.0438
  57   2.0000      -0.437841       -11.9143
  58   2.0000      -0.436661       -11.8822
  59   2.0000      -0.427462       -11.6318
  60   2.0000      -0.423603       -11.5268
  61   2.0000      -0.420675       -11.4471
  62   2.0000      -0.400076       -10.8866
  63   2.0000      -0.351314        -9.5597
  64   2.0000      -0.338668        -9.2156
  65   2.0000      -0.326926        -8.8961
  66   2.0000      -0.280593        -7.6353
  67   0.0000       0.018445         0.5019
  68   0.0000       0.075725         2.0606
  69   0.0000       0.100388         2.7317
  70   0.0000       0.118251         3.2178
  71   0.0000       0.123926         3.3722

MULLIKEN ATOMIC CHARGES
-----------------------
   0 S :    0.093841
   1 C :   -0.128935
   2 C :   -0.129889
   3 C :    0.037974
   4 C :   -0.128298
   5 H :   -0.024184
   6 C :    0.184089
   7 H :    0.010057
   8 H :    0.001492
   9 C :   -0.115250
  10 H :    0.025547
  11 H :    0.024102
  12 C :   -0.040281
  13 H :    0.036988
  14 H :    0.016979
  15 H :    0.024693
  16 S :    0.114426
  17 C :   -0.047640
  18 C :   -0.041184
  19 C :   -0.012094
  20 C :   -0.128652
  21 H :    0.030727
  22 C :    0.058888
  23 H :    0.007571
  24 H :    0.042057
  25 C :   -0.090040
  26 H :    0.037595
  27 H :    0.040542
  28 C :   -0.038328
  29 H :    0.031164
  30 H :    0.031010
  31 H :    0.007146
  32 H :    0.059006
  33 H :    0.008879
Sum of atomic charges:   -0.0000000

LOEWDIN ATOMIC CHARGES
----------------------
   0 S :    0.408074
   1 C :   -0.209920
   2 C :   -0.048707
   3 C :   -0.070333
   4 C :   -0.193921
   5 H :    0.017343
   6 C :   -0.025873
   7 H :    0.024005
   8 H :    0.028723
   9 C :   -0.045771
  10 H :    0.027203
  11 H :    0.023698
  12 C :   -0.072719
  13 H :    0.031643
  14 H :    0.019670
  15 H :    0.020754
  16 S :    0.407962
  17 C :   -0.171603
  18 C :   -0.065114
  19 C :   -0.048976
  20 C :   -0.185715
  21 H :    0.038816
  22 C :   -0.033412
  23 H :    0.026606
  24 H :    0.039399
  25 C :   -0.037991
  26 H :    0.024399
  27 H :    0.031709
  28 C :   -0.065992
  29 H :    0.027375
  30 H :    0.027997
  31 H :    0.012831
  32 H :    0.036403
  33 H :    0.001439

  Mayer bond orders larger than 0.100000
B(  0-S ,  1-C ) :   1.1227 B(  0-S ,  4-C ) :   1.1716 B(  1-C ,  2-C ) :   1.5727
B(  1-C ,  4-C ) :   0.1048 B(  1-C , 32-H ) :   0.9730 B(  2-C ,  3-C ) :   1.2564
B(  2-C ,  6-C ) :   1.0312 B(  3-C ,  4-C ) :   1.5217 B(  3-C ,  5-H ) :   1.0064
B(  4-C , 20-C ) :   1.0626 B(  6-C ,  7-H ) :   0.9423 B(  6-C ,  8-H ) :   0.9188
B(  6-C ,  9-C ) :   1.0843 B(  9-C , 10-H ) :   0.9494 B(  9-C , 11-H ) :   0.9534
B(  9-C , 12-C ) :   1.0861 B( 12-C , 13-H ) :   0.9627 B( 12-C , 14-H ) :   0.9699
B( 12-C , 15-H ) :   0.9759 B( 16-S , 17-C ) :   1.1425 B( 16-S , 20-C ) :   1.1548
B( 17-C , 18-C ) :   1.6212 B( 17-C , 20-C ) :   0.1038 B( 17-C , 33-H ) :   0.9813
B( 18-C , 19-C ) :   1.2246 B( 18-C , 21-H ) :   0.9844 B( 19-C , 20-C ) :   1.5748
B( 19-C , 22-C ) :   1.0379 B( 22-C , 23-H ) :   0.9384 B( 22-C , 24-H ) :   0.9339
B( 22-C , 25-C ) :   1.0550 B( 25-C , 26-H ) :   0.9559 B( 25-C , 27-H ) :   0.9541
B( 25-C , 28-C ) :   1.0885 B( 28-C , 29-H ) :   0.9740 B( 28-C , 30-H ) :   0.9737
B( 28-C , 31-H ) :   0.9710

Dispersion correction           -0.014982143
FINAL SINGLE POINT ENERGY     -1339.862139662386

DIPOLE MOMENT
-------------
                                X             Y             Z
Electronic contribution:     10.15837      -1.28112     -29.40585
Nuclear contribution   :    -10.57403       1.26838      29.95352
                        -----------------------------------------
Total Dipole Moment    :     -0.41565      -0.01274       0.54767
                        -----------------------------------------
Magnitude (a.u.)       :      0.68766
Magnitude (Debye)      :      1.74789

Rotational constants in cm-1:     0.016700     0.010721     0.006953
Rotational constants in MHz :   500.651398   321.412887   208.456132

                             ****ORCA TERMINATED NORMALLY****
TOTAL RUN TIME: 0 days 0 hours 0 minutes 33 seconds 526 msec
