                         Program Version 4.2.1 -  RELEASE  -
|  1> ! wB97X-D3 SP def2-SVP
|  2> %pal
|  3> nprocs 16
|  4> end
|  5>
|  6> * xyz 0 1
|  7> S 	 -48.2872 	 31.5162 	 95.4884
|  8> C 	 -49.7633 	 31.5206 	 94.6048
|  9> C 	 -50.6266 	 32.5236 	 94.9414
| 10> C 	 -50.0133 	 33.3411 	 95.9754
| 11> C 	 -48.8116 	 32.8963 	 96.4254
| 12> H 	 -50.4568 	 34.1585 	 96.4874
| 13> C 	 -52.1238 	 32.7769 	 94.3463
| 14> H 	 -52.1587 	 32.4826 	 93.2908
| 15> H 	 -52.2889 	 33.8453 	 94.4299
| 16> C 	 -53.2471 	 31.9351 	 94.9578
| 17> H 	 -54.22 	 31.9396 	 94.4973
| 18> H 	 -52.8883 	 30.8622 	 94.9987
| 19> C 	 -53.7034 	 32.4584 	 96.3161
| 20> H 	 -52.7273 	 32.5986 	 96.9122
| 21> H 	 -54.196 	 33.3779 	 96.1812
| 22> H 	 -54.3918 	 31.8293 	 96.8498
| 23> S 	 -46.3335 	 33.8765 	 97.0663
| 24> C 	 -46.0798 	 34.4674 	 98.6722
| 25> C 	 -47.1841 	 34.2384 	 99.4974
| 26> C 	 -48.3262 	 33.7525 	 98.8503
| 27> C 	 -48.0013 	 33.3931 	 97.5106
| 28> H 	 -47.0755 	 34.5174 	 100.534
| 29> C 	 -49.6183 	 33.7454 	 99.559
| 30> H 	 -50.1833 	 33.2743 	 98.7456
| 31> H 	 -50.0402 	 34.7958 	 99.5292
| 32> C 	 -49.7808 	 32.9229 	 100.822
| 33> H 	 -49.1853 	 32.0233 	 100.697
| 34> H 	 -50.8367 	 32.65 	 101.013
| 35> C 	 -49.4082 	 33.6642 	 102.026
| 36> H 	 -49.5358 	 33.0128 	 102.965
| 37> H 	 -50.0632 	 34.59 	 102.132
| 38> H 	 -48.3871 	 33.937 	 102.039
| 39> H 	 -50.0115 	 30.7827 	 93.8412
| 40> H 	 -45.1317 	 34.8908 	 99.0025
| 41> *
| 42>
| 43>                          ****END OF INPUT****

CARTESIAN COORDINATES (ANGSTROEM)
---------------------------------
  S    -48.287200   31.516200   95.488400
  C    -49.763300   31.520600   94.604800
  C    -50.626600   32.523600   94.941400
  C    -50.013300   33.341100   95.975400
  C    -48.811600   32.896300   96.425400
  H    -50.456800   34.158500   96.487400
  C    -52.123800   32.776900   94.346300
  H    -52.158700   32.482600   93.290800
  H    -52.288900   33.845300   94.429900
  C    -53.247100   31.935100   94.957800
  H    -54.220000   31.939600   94.497300
  H    -52.888300   30.862200   94.998700
  C    -53.703400   32.458400   96.316100
  H    -52.727300   32.598600   96.912200
  H    -54.196000   33.377900   96.181200
  H    -54.391800   31.829300   96.849800
  S    -46.333500   33.876500   97.066300
  C    -46.079800   34.467400   98.672200
  C    -47.184100   34.238400   99.497400
  C    -48.326200   33.752500   98.850300
  C    -48.001300   33.393100   97.510600
  H    -47.075500   34.517400  100.534000
  C    -49.618300   33.745400   99.559000
  H    -50.183300   33.274300   98.745600
  H    -50.040200   34.795800   99.529200
  C    -49.780800   32.922900  100.822000
  H    -49.185300   32.023300  100.697000
  H    -50.836700   32.650000  101.013000
  C    -49.408200   33.664200  102.026000
  H    -49.535800   33.012800  102.965000
  H    -50.063200   34.590000  102.132000
  H    -48.387100   33.937000  102.039000
  H    -50.011500   30.782700   93.841200
  H    -45.131700   34.890800   99.002500

 Total Charge           Charge          ....    0
 Multiplicity           Mult            ....    1
 Number of Electrons    NEL             ....  134
 Basis Dimension        Dim             ....  322

ORBITAL ENERGIES
----------------

  NO   OCC          E(Eh)            E(eV)
   0   2.0000     -88.968301     -2420.9505
   1   2.0000     -88.964559     -2420.8487
   2   2.0000     -10.330824      -281.1160
   3   2.0000     -10.323998      -280.9303
   4   2.0000     -10.317213      -280.7456
   5   2.0000     -10.312631      -280.6209
   6   2.0000     -10.308766      -280.5158
   7   2.0000     -10.305485      -280.4265
   8   2.0000     -10.304478      -280.3991
   9   2.0000     -10.291794      -280.0540
  10   2.0000     -10.290973      -280.0316
  11   2.0000     -10.288620      -279.9676
  12   2.0000     -10.288058      -279.9523
  13   2.0000     -10.285310      -279.8775
  14   2.0000     -10.280296      -279.7411
  15   2.0000     -10.274177      -279.5746
  16   2.0000      -8.082639      -219.9398
  17   2.0000      -8.080224      -219.8741
  18   2.0000      -6.040975      -164.3833
  19   2.0000      -6.038677      -164.3207
  20   2.0000      -6.037211      -164.2809
  21   2.0000      -6.034679      -164.2120
  22   2.0000      -6.033599      -164.1826
  23   2.0000      -6.030901      -164.1091
  24   2.0000      -1.008410       -27.4402
  25   2.0000      -0.984611       -26.7926
  26   2.0000      -0.921945       -25.0874
  27   2.0000      -0.907254       -24.6876
  28   2.0000      -0.871295       -23.7091
  29   2.0000      -0.860827       -23.4243
  30   2.0000      -0.845255       -23.0006
  31   2.0000      -0.812488       -22.1089
  32   2.0000      -0.787298       -21.4235
  33   2.0000      -0.772035       -21.0082
  34   2.0000      -0.704612       -19.1735
  35   2.0000      -0.694287       -18.8925
  36   2.0000      -0.690236       -18.7823
  37   2.0000      -0.662004       -18.0141
  38   2.0000      -0.643609       -17.5135
  39   2.0000      -0.615409       -16.7461
  40   2.0000      -0.599279       -16.3072
  41   2.0000      -0.571741       -15.5579
  42   2.0000      -0.557565       -15.1721
  43   2.0000      -0.552199       -15.0261
  44   2.0000      -0.550635       -14.9835
  45   2.0000      -0.539641       -14.6844
  46   2.0000      -0.522966       -14.2306
  47   2.0000      -0.512716       -13.9517
  48   2.0000      -0.502564       -13.6755
  49   2.0000      -0.493898       -13.4396
  50   2.0000      -0.489443       -13.3184
  51   2.0000      -0.480089       -13.0639
  52   2.0000      -0.478074       -13.0091
  53   2.0000      -0.464215       -12.6319
  54   2.0000      -0.459151       -12.4941
  55   2.0000      -0.444997       -12.1090
  56   2.0000      -0.439088       -11.9482
  57   2.0000      -0.434994       -11.8368
  58   2.0000      -0.434011       -11.8100
  59   2.0000      -0.426979       -11.6187
  60   2.0000      -0.423903       -11.5350
  61   2.0000      -0.408622       -11.1192
  62   2.0000      -0.402263       -10.9461
  63   2.0000      -0.347025        -9.4430
  64   2.0000      -0.334246        -9.0953
  65   2.0000      -0.331495        -9.0204
  66   2.0000      -0.290941        -7.9169
  67   0.0000       0.031302         0.8518
  68   0.0000       0.066239         1.8025
  69   0.0000       0.114069         3.1040
  70   0.0000       0.119256         3.2451
  71   0.0000       0.128709         3.5024

MULLIKEN ATOMIC CHARGES
-----------------------
   0 S :    0.116390
   1 C :   -0.120205
   2 C :   -0.095909
   3 C :    0.043183
   4 C :   -0.172718
   5 H :   -0.005088
   6 C :    0.076650
   7 H :    0.033775
   8 H :    0.028900
   9 C :   -0.077499
  10 H :    0.030143
  11 H :    0.039133
  12 C :   -0.068638
  13 H :    0.038952
  14 H :    0.019682
  15 H :    0.032681
  16 S :    0.113917
  17 C :   -0.099777
  18 C :   -0.044707
  19 C :   -0.033729
  20 C :   -0.165987
  21 H :    0.014683
  22 C :    0.049686
  23 H :    0.012324
  24 H :    0.052455
  25 C :   -0.023414
  26 H :    0.035880
  27 H :    0.035886
  28 C :   -0.064771
  29 H :    0.039405
  30 H :    0.038027
  31 H :    0.014842
  32 H :    0.047737
  33 H :    0.058111
Sum of atomic charges:   -0.0000000

LOEWDIN ATOMIC CHARGES
----------------------
   0 S :    0.412551
   1 C :   -0.200458
   2 C :   -0.063853
   3 C :   -0.063046
   4 C :   -0.201219
   5 H :    0.023554
   6 C :   -0.020672
   7 H :    0.034785
   8 H :    0.027693
   9 C :   -0.050741
  10 H :    0.023891
  11 H :    0.030332
  12 C :   -0.067301
  13 H :    0.030636
  14 H :    0.015577
  15 H :    0.021858
  16 S :    0.405836
  17 C :   -0.190324
  18 C :   -0.075035
  19 C :   -0.050440
  20 C :   -0.193375
  21 H :    0.028581
  22 C :   -0.046058
  23 H :    0.035270
  24 H :    0.043759
  25 C :   -0.041587
  26 H :    0.031178
  27 H :    0.033722
  28 C :   -0.069294
  29 H :    0.033590
  30 H :    0.031901
  31 H :    0.010428
  32 H :    0.029582
  33 H :    0.028680

  Mayer bond orders larger than 0.100000
B(  0-S ,  1-C ) :   1.1455 B(  0-S ,  4-C ) :   1.1374 B(  1-C ,  2-C ) :   1.6551
B(  1-C , 32-H ) :   0.9620 B(  2-C ,  3-C ) :   1.2124 B(  2-C ,  6-C ) :   0.9995
B(  3-C ,  4-C ) :   1.6091 B(  3-C ,  5-H ) :   0.9999 B(  4-C , 20-C ) :   1.0304
B(  6-C ,  7-H ) :   0.9434 B(  6-C ,  8-H ) :   0.9505 B(  6-C ,  9-C ) :   1.0609
B(  9-C , 10-H ) :   0.9609 B(  9-C , 11-H ) :   0.9539 B(  9-C , 12-C ) :   1.0704
B( 12-C , 13-H ) :   0.9778 B( 12-C , 14-H ) :   0.9762 B( 12-C , 15-H ) :   0.9740
B( 16-S , 17-C ) :   1.1667 B( 16-S , 20-C ) :   1.1539 B( 17-C , 18-C ) :   1.5977
B( 17-C , 20-C ) :   0.1131 B( 17-C , 33-H ) :   0.9652 B( 18-C , 19-C ) :   1.2443
B( 18-C , 21-H ) :   0.9878 B( 19-C , 20-C ) :   1.5532 B( 19-C , 22-C ) :   1.0474
B( 22-C , 23-H ) :   0.9105 B( 22-C , 24-H ) :   0.9250 B( 22-C , 25-C ) :   1.0635
B( 25-C , 26-H ) :   0.9481 B( 25-C , 27-H ) :   0.9516 B( 25-C , 28-C ) :   1.0939
B( 28-C , 29-H ) :   0.9663 B( 28-C , 30-H ) :   0.9709 B( 28-C , 31-H ) :   0.9719

Dispersion correction           -0.014269711
FINAL SINGLE POINT ENERGY     -1339.861699131244

DIPOLE MOMENT
-------------
                                X             Y             Z
Electronic contribution:     25.83456      -1.22969     -13.43111
Nuclear contribution   :    -26.41240       1.37050      13.70001
                        -----------------------------------------
Total Dipole Moment    :     -0.57784       0.14081       0.26890
                        -----------------------------------------
Magnitude (a.u.)       :      0.65271
Magnitude (Debye)      :      1.65907

Rotational constants in cm-1:     0.017822     0.009055     0.006527
Rotational constants in MHz :   534.279139   271.471579   195.669477

                             ****ORCA TERMINATED NORMALLY****
TOTAL RUN TIME: 0 days 0 hours 0 minutes 29 seconds 978 msec
