                         Program Version 4.2.1 -  RELEASE  -
|  1> ! wB97X-D3 SP def2-SVP
|  2> %pal
|  3> nprocs 16
|  4> end
|  5>
|  6> * xyz 0 1
|  7> S 	 4.73414 	 -11.3252 	 71.2457
|  8> C 	 3.60508 	 -10.0896 	 71.4229
|  9> C 	 3.87317 	 -9.04495 	 70.5124
| 10> C 	 5.04915 	 -9.27847 	 69.7472
| 11> C 	 5.69342 	 -10.3927 	 70.124
| 12> H 	 5.48386 	 -8.56291 	 68.9868
| 13> C 	 2.9633 	 -7.79219 	 70.4158
| 14> H 	 2.11625 	 -7.87373 	 71.1485
| 15> H 	 2.45602 	 -7.91422 	 69.462
| 16> C 	 3.52918 	 -6.40761 	 70.5108
| 17> H 	 4.06696 	 -6.32841 	 71.441
| 18> H 	 4.31839 	 -6.25687 	 69.7279
| 19> C 	 2.43065 	 -5.25914 	 70.1917
| 20> H 	 1.6589 	 -5.36266 	 70.9188
| 21> H 	 2.97522 	 -4.37323 	 70.1734
| 22> H 	 1.89792 	 -5.33971 	 69.1868
| 23> S 	 8.25011 	 -10.0006 	 69.4737
| 24> C 	 9.21835 	 -11.1352 	 68.443
| 25> C 	 8.39568 	 -12.2169 	 68.1289
| 26> C 	 7.10283 	 -12.1903 	 68.7165
| 27> C 	 6.86728 	 -10.9887 	 69.4018
| 28> H 	 8.81479 	 -13.0385 	 67.5204
| 29> C 	 6.28047 	 -13.4017 	 68.5238
| 30> H 	 5.74257 	 -13.7394 	 69.4529
| 31> H 	 6.83842 	 -14.2441 	 68.0849
| 32> C 	 5.13906 	 -13.2348 	 67.6187
| 33> H 	 4.37977 	 -12.6166 	 68.1724
| 34> H 	 4.67058 	 -14.1776 	 67.4603
| 35> C 	 5.43656 	 -12.6509 	 66.2401
| 36> H 	 5.37789 	 -11.5497 	 66.3445
| 37> H 	 4.64035 	 -12.8161 	 65.5482
| 38> H 	 6.38518 	 -12.9742 	 65.8338
| 39> H 	 2.82623 	 -10.1453 	 72.1033
| 40> H 	 10.1888 	 -11.0023 	 67.9833
| 41> *
| 42>
| 43>                          ****END OF INPUT****

CARTESIAN COORDINATES (ANGSTROEM)
---------------------------------
  S      4.734140  -11.325200   71.245700
  C      3.605080  -10.089600   71.422900
  C      3.873170   -9.044950   70.512400
  C      5.049150   -9.278470   69.747200
  C      5.693420  -10.392700   70.124000
  H      5.483860   -8.562910   68.986800
  C      2.963300   -7.792190   70.415800
  H      2.116250   -7.873730   71.148500
  H      2.456020   -7.914220   69.462000
  C      3.529180   -6.407610   70.510800
  H      4.066960   -6.328410   71.441000
  H      4.318390   -6.256870   69.727900
  C      2.430650   -5.259140   70.191700
  H      1.658900   -5.362660   70.918800
  H      2.975220   -4.373230   70.173400
  H      1.897920   -5.339710   69.186800
  S      8.250110  -10.000600   69.473700
  C      9.218350  -11.135200   68.443000
  C      8.395680  -12.216900   68.128900
  C      7.102830  -12.190300   68.716500
  C      6.867280  -10.988700   69.401800
  H      8.814790  -13.038500   67.520400
  C      6.280470  -13.401700   68.523800
  H      5.742570  -13.739400   69.452900
  H      6.838420  -14.244100   68.084900
  C      5.139060  -13.234800   67.618700
  H      4.379770  -12.616600   68.172400
  H      4.670580  -14.177600   67.460300
  C      5.436560  -12.650900   66.240100
  H      5.377890  -11.549700   66.344500
  H      4.640350  -12.816100   65.548200
  H      6.385180  -12.974200   65.833800
  H      2.826230  -10.145300   72.103300
  H     10.188800  -11.002300   67.983300

 Total Charge           Charge          ....    0
 Multiplicity           Mult            ....    1
 Number of Electrons    NEL             ....  134
 Basis Dimension        Dim             ....  322

ORBITAL ENERGIES
----------------

  NO   OCC          E(Eh)            E(eV)
   0   2.0000     -88.967646     -2420.9327
   1   2.0000     -88.967110     -2420.9181
   2   2.0000     -10.329884      -281.0904
   3   2.0000     -10.329341      -281.0756
   4   2.0000     -10.318415      -280.7783
   5   2.0000     -10.310942      -280.5750
   6   2.0000     -10.306703      -280.4597
   7   2.0000     -10.300286      -280.2850
   8   2.0000     -10.298710      -280.2421
   9   2.0000     -10.294774      -280.1350
  10   2.0000     -10.294093      -280.1165
  11   2.0000     -10.292150      -280.0636
  12   2.0000     -10.284938      -279.8674
  13   2.0000     -10.284736      -279.8619
  14   2.0000     -10.272654      -279.5331
  15   2.0000     -10.267003      -279.3794
  16   2.0000      -8.083496      -219.9631
  17   2.0000      -8.081283      -219.9029
  18   2.0000      -6.041790      -164.4055
  19   2.0000      -6.039902      -164.3541
  20   2.0000      -6.037732      -164.2950
  21   2.0000      -6.035656      -164.2386
  22   2.0000      -6.034547      -164.2084
  23   2.0000      -6.032164      -164.1435
  24   2.0000      -1.013862       -27.5886
  25   2.0000      -0.987869       -26.8813
  26   2.0000      -0.918911       -25.0048
  27   2.0000      -0.905722       -24.6459
  28   2.0000      -0.872625       -23.7453
  29   2.0000      -0.849409       -23.1136
  30   2.0000      -0.842025       -22.9127
  31   2.0000      -0.816477       -22.2175
  32   2.0000      -0.783372       -21.3166
  33   2.0000      -0.773158       -21.0387
  34   2.0000      -0.708618       -19.2825
  35   2.0000      -0.696503       -18.9528
  36   2.0000      -0.681928       -18.5562
  37   2.0000      -0.665291       -18.1035
  38   2.0000      -0.644363       -17.5340
  39   2.0000      -0.620644       -16.8886
  40   2.0000      -0.589302       -16.0357
  41   2.0000      -0.569154       -15.4875
  42   2.0000      -0.561787       -15.2870
  43   2.0000      -0.559303       -15.2194
  44   2.0000      -0.544912       -14.8278
  45   2.0000      -0.530279       -14.4296
  46   2.0000      -0.517039       -14.0693
  47   2.0000      -0.511634       -13.9223
  48   2.0000      -0.500376       -13.6159
  49   2.0000      -0.497085       -13.5264
  50   2.0000      -0.489436       -13.3182
  51   2.0000      -0.483809       -13.1651
  52   2.0000      -0.472369       -12.8538
  53   2.0000      -0.468083       -12.7372
  54   2.0000      -0.467044       -12.7089
  55   2.0000      -0.449446       -12.2300
  56   2.0000      -0.443796       -12.0763
  57   2.0000      -0.433733       -11.8025
  58   2.0000      -0.431998       -11.7553
  59   2.0000      -0.418344       -11.3837
  60   2.0000      -0.411415       -11.1952
  61   2.0000      -0.409077       -11.1316
  62   2.0000      -0.404347       -11.0028
  63   2.0000      -0.352241        -9.5850
  64   2.0000      -0.335554        -9.1309
  65   2.0000      -0.322993        -8.7891
  66   2.0000      -0.294797        -8.0218
  67   0.0000       0.033350         0.9075
  68   0.0000       0.068887         1.8745
  69   0.0000       0.113459         3.0874
  70   0.0000       0.119073         3.2401
  71   0.0000       0.130636         3.5548

MULLIKEN ATOMIC CHARGES
-----------------------
   0 S :    0.117914
   1 C :   -0.094145
   2 C :   -0.083216
   3 C :    0.008996
   4 C :   -0.128352
   5 H :    0.046333
   6 C :    0.058183
   7 H :    0.016399
   8 H :    0.027986
   9 C :   -0.097138
  10 H :    0.036232
  11 H :    0.028568
  12 C :   -0.040479
  13 H :    0.032003
  14 H :    0.033303
  15 H :    0.040398
  16 S :    0.104389
  17 C :   -0.098117
  18 C :   -0.071671
  19 C :    0.001425
  20 C :   -0.176575
  21 H :    0.033048
  22 C :    0.067501
  23 H :    0.036180
  24 H :    0.020252
  25 C :   -0.098252
  26 H :    0.028264
  27 H :    0.016365
  28 C :   -0.027552
  29 H :    0.033105
  30 H :    0.021464
  31 H :    0.025107
  32 H :    0.024918
  33 H :    0.057166
Sum of atomic charges:    0.0000000

LOEWDIN ATOMIC CHARGES
----------------------
   0 S :    0.438852
   1 C :   -0.202582
   2 C :   -0.060759
   3 C :   -0.068430
   4 C :   -0.204598
   5 H :    0.046313
   6 C :   -0.042076
   7 H :    0.030122
   8 H :    0.031231
   9 C :   -0.042404
  10 H :    0.024170
  11 H :    0.023871
  12 C :   -0.054752
  13 H :    0.019102
  14 H :    0.019001
  15 H :    0.035663
  16 S :    0.417513
  17 C :   -0.185373
  18 C :   -0.066411
  19 C :   -0.066763
  20 C :   -0.204682
  21 H :    0.035865
  22 C :   -0.040802
  23 H :    0.038814
  24 H :    0.032015
  25 C :   -0.046127
  26 H :    0.023934
  27 H :    0.016389
  28 C :   -0.067952
  29 H :    0.032437
  30 H :    0.022205
  31 H :    0.020535
  32 H :    0.013790
  33 H :    0.031886

  Mayer bond orders larger than 0.100000
B(  0-S ,  1-C ) :   1.1671 B(  0-S ,  4-C ) :   1.1586 B(  1-C ,  2-C ) :   1.5701
B(  1-C , 32-H ) :   0.9831 B(  2-C ,  3-C ) :   1.2654 B(  2-C ,  6-C ) :   1.0159
B(  3-C ,  4-C ) :   1.5780 B(  3-C ,  5-H ) :   0.9805 B(  4-C , 20-C ) :   0.9736
B(  6-C ,  7-H ) :   0.9449 B(  6-C ,  8-H ) :   0.9336 B(  6-C ,  9-C ) :   1.0644
B(  9-C , 10-H ) :   0.9593 B(  9-C , 11-H ) :   0.9547 B(  9-C , 12-C ) :   1.0610
B( 12-C , 13-H ) :   0.9809 B( 12-C , 14-H ) :   0.9780 B( 12-C , 15-H ) :   0.9769
B( 16-S , 17-C ) :   1.1355 B( 16-S , 20-C ) :   1.1790 B( 17-C , 18-C ) :   1.6103
B( 17-C , 20-C ) :   0.1073 B( 17-C , 33-H ) :   0.9678 B( 18-C , 19-C ) :   1.2551
B( 18-C , 21-H ) :   0.9780 B( 19-C , 20-C ) :   1.5575 B( 19-C , 22-C ) :   1.0517
B( 22-C , 23-H ) :   0.9310 B( 22-C , 24-H ) :   0.9311 B( 22-C , 25-C ) :   1.0874
B( 25-C , 26-H ) :   0.9544 B( 25-C , 27-H ) :   0.9570 B( 25-C , 28-C ) :   1.0727
B( 28-C , 29-H ) :   0.9687 B( 28-C , 30-H ) :   0.9733 B( 28-C , 31-H ) :   0.9768

Dispersion correction           -0.014736678
FINAL SINGLE POINT ENERGY     -1339.863271700672

DIPOLE MOMENT
-------------
                                X             Y             Z
Electronic contribution:     15.14209      -7.54537      11.00897
Nuclear contribution   :    -15.51683       7.65705     -11.29801
                        -----------------------------------------
Total Dipole Moment    :     -0.37475       0.11168      -0.28904
                        -----------------------------------------
Magnitude (a.u.)       :      0.48626
Magnitude (Debye)      :      1.23597

Rotational constants in cm-1:     0.021080     0.007666     0.006970
Rotational constants in MHz :   631.968183   229.834086   208.962280

                             ****ORCA TERMINATED NORMALLY****
TOTAL RUN TIME: 0 days 0 hours 0 minutes 28 seconds 947 msec
