                         Program Version 4.2.1 -  RELEASE  -
|  1> ! wB97X-D3 SP def2-SVP
|  2> %pal
|  3> nprocs 16
|  4> end
|  5>
|  6> * xyz 0 1
|  7> S 	 43.4257 	 17.6927 	 86.5514
|  8> C 	 41.8167 	 18.2024 	 87.1453
|  9> C 	 40.8432 	 17.8008 	 86.2855
| 10> C 	 41.3127 	 16.9813 	 85.1805
| 11> C 	 42.6516 	 16.6498 	 85.3025
| 12> H 	 40.8117 	 16.5514 	 84.3008
| 13> C 	 39.4558 	 18.2984 	 86.2244
| 14> H 	 38.9986 	 18.1932 	 87.1915
| 15> H 	 38.8144 	 17.6936 	 85.493
| 16> C 	 39.228 	 19.7156 	 85.7197
| 17> H 	 39.672 	 20.4087 	 86.4808
| 18> H 	 39.8121 	 19.8041 	 84.8085
| 19> C 	 37.7871 	 20.0422 	 85.4225
| 20> H 	 37.164 	 19.8953 	 86.3064
| 21> H 	 37.7561 	 21.0964 	 85.1643
| 22> H 	 37.3699 	 19.4865 	 84.6033
| 23> S 	 44.6123 	 16.6425 	 83.4285
| 24> C 	 45.093 	 15.2072 	 82.5586
| 25> C 	 44.1797 	 14.2431 	 82.8371
| 26> C 	 43.1261 	 14.6281 	 83.7082
| 27> C 	 43.3578 	 15.8241 	 84.3437
| 28> H 	 44.3422 	 13.3496 	 82.3075
| 29> C 	 42.173 	 13.53 	 84.2154
| 30> H 	 42.1111 	 12.7445 	 83.4542
| 31> H 	 41.157 	 13.9135 	 84.3997
| 32> C 	 42.6781 	 12.8525 	 85.5126
| 33> H 	 42.9925 	 13.6239 	 86.2054
| 34> H 	 43.6185 	 12.3249 	 85.2591
| 35> C 	 41.5615 	 11.8634 	 86.0556
| 36> H 	 41.971 	 11.2308 	 86.8614
| 37> H 	 41.2421 	 11.1516 	 85.2783
| 38> H 	 40.6748 	 12.356 	 86.4968
| 39> H 	 41.5378 	 19.1052 	 87.7676
| 40> H 	 45.902 	 15.2826 	 81.9501
| 41> *
| 42>
| 43>                          ****END OF INPUT****

CARTESIAN COORDINATES (ANGSTROEM)
---------------------------------
  S     43.425700   17.692700   86.551400
  C     41.816700   18.202400   87.145300
  C     40.843200   17.800800   86.285500
  C     41.312700   16.981300   85.180500
  C     42.651600   16.649800   85.302500
  H     40.811700   16.551400   84.300800
  C     39.455800   18.298400   86.224400
  H     38.998600   18.193200   87.191500
  H     38.814400   17.693600   85.493000
  C     39.228000   19.715600   85.719700
  H     39.672000   20.408700   86.480800
  H     39.812100   19.804100   84.808500
  C     37.787100   20.042200   85.422500
  H     37.164000   19.895300   86.306400
  H     37.756100   21.096400   85.164300
  H     37.369900   19.486500   84.603300
  S     44.612300   16.642500   83.428500
  C     45.093000   15.207200   82.558600
  C     44.179700   14.243100   82.837100
  C     43.126100   14.628100   83.708200
  C     43.357800   15.824100   84.343700
  H     44.342200   13.349600   82.307500
  C     42.173000   13.530000   84.215400
  H     42.111100   12.744500   83.454200
  H     41.157000   13.913500   84.399700
  C     42.678100   12.852500   85.512600
  H     42.992500   13.623900   86.205400
  H     43.618500   12.324900   85.259100
  C     41.561500   11.863400   86.055600
  H     41.971000   11.230800   86.861400
  H     41.242100   11.151600   85.278300
  H     40.674800   12.356000   86.496800
  H     41.537800   19.105200   87.767600
  H     45.902000   15.282600   81.950100

 Total Charge           Charge          ....    0
 Multiplicity           Mult            ....    1
 Number of Electrons    NEL             ....  134
 Basis Dimension        Dim             ....  322

ORBITAL ENERGIES
----------------

  NO   OCC          E(Eh)            E(eV)
   0   2.0000     -88.970139     -2421.0006
   1   2.0000     -88.955754     -2420.6091
   2   2.0000     -10.335415      -281.2409
   3   2.0000     -10.327932      -281.0373
   4   2.0000     -10.320173      -280.8262
   5   2.0000     -10.310209      -280.5550
   6   2.0000     -10.305132      -280.4169
   7   2.0000     -10.301857      -280.3278
   8   2.0000     -10.299281      -280.2577
   9   2.0000     -10.291979      -280.0590
  10   2.0000     -10.290200      -280.0106
  11   2.0000     -10.289421      -279.9894
  12   2.0000     -10.288245      -279.9574
  13   2.0000     -10.287124      -279.9269
  14   2.0000     -10.283776      -279.8358
  15   2.0000     -10.277710      -279.6707
  16   2.0000      -8.083147      -219.9536
  17   2.0000      -8.071488      -219.6363
  18   2.0000      -6.042005      -164.4113
  19   2.0000      -6.038097      -164.3050
  20   2.0000      -6.033401      -164.1772
  21   2.0000      -6.029938      -164.0830
  22   2.0000      -6.025733      -163.9685
  23   2.0000      -6.022357      -163.8767
  24   2.0000      -1.009149       -27.4603
  25   2.0000      -0.984712       -26.7954
  26   2.0000      -0.918100       -24.9828
  27   2.0000      -0.901256       -24.5244
  28   2.0000      -0.877493       -23.8778
  29   2.0000      -0.849495       -23.1159
  30   2.0000      -0.840323       -22.8663
  31   2.0000      -0.818561       -22.2742
  32   2.0000      -0.778700       -21.1895
  33   2.0000      -0.771046       -20.9812
  34   2.0000      -0.711065       -19.3491
  35   2.0000      -0.699738       -19.0408
  36   2.0000      -0.694794       -18.9063
  37   2.0000      -0.671216       -18.2647
  38   2.0000      -0.635945       -17.3050
  39   2.0000      -0.616642       -16.7797
  40   2.0000      -0.600206       -16.3324
  41   2.0000      -0.576329       -15.6827
  42   2.0000      -0.567933       -15.4542
  43   2.0000      -0.558103       -15.1867
  44   2.0000      -0.525334       -14.2951
  45   2.0000      -0.523594       -14.2477
  46   2.0000      -0.515583       -14.0297
  47   2.0000      -0.510665       -13.8959
  48   2.0000      -0.505249       -13.7485
  49   2.0000      -0.498479       -13.5643
  50   2.0000      -0.492634       -13.4053
  51   2.0000      -0.481804       -13.1106
  52   2.0000      -0.471341       -12.8258
  53   2.0000      -0.468561       -12.7502
  54   2.0000      -0.456630       -12.4255
  55   2.0000      -0.450598       -12.2614
  56   2.0000      -0.440679       -11.9915
  57   2.0000      -0.430442       -11.7129
  58   2.0000      -0.429621       -11.6906
  59   2.0000      -0.424959       -11.5637
  60   2.0000      -0.422030       -11.4840
  61   2.0000      -0.415786       -11.3141
  62   2.0000      -0.410263       -11.1638
  63   2.0000      -0.348479        -9.4826
  64   2.0000      -0.328392        -8.9360
  65   2.0000      -0.326798        -8.8926
  66   2.0000      -0.299893        -8.1605
  67   0.0000       0.019221         0.5230
  68   0.0000       0.066879         1.8199
  69   0.0000       0.105264         2.8644
  70   0.0000       0.118901         3.2355
  71   0.0000       0.129118         3.5135

MULLIKEN ATOMIC CHARGES
-----------------------
   0 S :    0.100732
   1 C :   -0.109858
   2 C :   -0.067395
   3 C :    0.012137
   4 C :   -0.140537
   5 H :    0.035809
   6 C :    0.019769
   7 H :    0.024849
   8 H :    0.022493
   9 C :   -0.083416
  10 H :    0.025625
  11 H :    0.027112
  12 C :   -0.020807
  13 H :    0.028269
  14 H :    0.035036
  15 H :    0.031657
  16 S :    0.067921
  17 C :   -0.047869
  18 C :   -0.026357
  19 C :   -0.002552
  20 C :   -0.158086
  21 H :    0.006204
  22 C :    0.029086
  23 H :    0.020687
  24 H :    0.024084
  25 C :   -0.065723
  26 H :    0.037789
  27 H :    0.027169
  28 C :   -0.065894
  29 H :    0.035307
  30 H :    0.033824
  31 H :    0.046048
  32 H :    0.073419
  33 H :    0.023466
Sum of atomic charges:    0.0000000

LOEWDIN ATOMIC CHARGES
----------------------
   0 S :    0.371048
   1 C :   -0.200252
   2 C :   -0.065233
   3 C :   -0.054394
   4 C :   -0.180552
   5 H :    0.039595
   6 C :   -0.043796
   7 H :    0.026824
   8 H :    0.034625
   9 C :   -0.042028
  10 H :    0.023002
  11 H :    0.024156
  12 C :   -0.061193
  13 H :    0.025721
  14 H :    0.031019
  15 H :    0.023603
  16 S :    0.394907
  17 C :   -0.156179
  18 C :   -0.068867
  19 C :   -0.061757
  20 C :   -0.190078
  21 H :    0.026483
  22 C :   -0.032064
  23 H :    0.026668
  24 H :    0.025574
  25 C :   -0.035422
  26 H :    0.024526
  27 H :    0.025950
  28 C :   -0.072496
  29 H :    0.027875
  30 H :    0.026325
  31 H :    0.029417
  32 H :    0.048399
  33 H :    0.008594

  Mayer bond orders larger than 0.100000
B(  0-S ,  1-C ) :   1.1006 B(  0-S ,  4-C ) :   1.1232 B(  1-C ,  2-C ) :   1.6611
B(  1-C , 32-H ) :   0.9527 B(  2-C ,  3-C ) :   1.1951 B(  2-C ,  6-C ) :   1.0388
B(  3-C ,  4-C ) :   1.6033 B(  3-C ,  5-H ) :   0.9875 B(  4-C , 20-C ) :   1.0502
B(  6-C ,  7-H ) :   0.9294 B(  6-C ,  8-H ) :   0.9448 B(  6-C ,  9-C ) :   1.0651
B(  9-C , 10-H ) :   0.9498 B(  9-C , 11-H ) :   0.9529 B(  9-C , 12-C ) :   1.0948
B( 12-C , 13-H ) :   0.9724 B( 12-C , 14-H ) :   0.9703 B( 12-C , 15-H ) :   0.9714
B( 16-S , 17-C ) :   1.1552 B( 16-S , 20-C ) :   1.1536 B( 17-C , 18-C ) :   1.5872
B( 17-C , 20-C ) :   0.1056 B( 17-C , 33-H ) :   0.9913 B( 18-C , 19-C ) :   1.2135
B( 18-C , 21-H ) :   1.0054 B( 19-C , 20-C ) :   1.5758 B( 19-C , 22-C ) :   1.0629
B( 22-C , 23-H ) :   0.9393 B( 22-C , 24-H ) :   0.9405 B( 22-C , 25-C ) :   1.0543
B( 25-C , 26-H ) :   0.9609 B( 25-C , 27-H ) :   0.9559 B( 25-C , 28-C ) :   1.0648
B( 28-C , 29-H ) :   0.9758 B( 28-C , 30-H ) :   0.9755 B( 28-C , 31-H ) :   0.9772

Dispersion correction           -0.013889530
FINAL SINGLE POINT ENERGY     -1339.862399598523

DIPOLE MOMENT
-------------
                                X             Y             Z
Electronic contribution:     23.52124       6.27315      -3.68035
Nuclear contribution   :    -24.06298      -6.39898       3.39878
                        -----------------------------------------
Total Dipole Moment    :     -0.54174      -0.12583      -0.28157
                        -----------------------------------------
Magnitude (a.u.)       :      0.62337
Magnitude (Debye)      :      1.58449

Rotational constants in cm-1:     0.018340     0.007908     0.006768
Rotational constants in MHz :   549.823873   237.083449   202.905353

                             ****ORCA TERMINATED NORMALLY****
TOTAL RUN TIME: 0 days 0 hours 0 minutes 29 seconds 959 msec
