                         Program Version 4.2.1 -  RELEASE  -
|  1> ! wB97X-D3 SP def2-SVP
|  2> %pal
|  3> nprocs 16
|  4> end
|  5>
|  6> * xyz 0 1
|  7> S 	 30.1752 	 17.1718 	 69.3312
|  8> C 	 29.751 	 15.8627 	 70.3793
|  9> C 	 30.7763 	 14.9043 	 70.3843
| 10> C 	 31.874 	 15.2416 	 69.6033
| 11> C 	 31.8352 	 16.5032 	 69.0698
| 12> H 	 32.7914 	 14.6514 	 69.4804
| 13> C 	 30.8886 	 13.6239 	 71.1917
| 14> H 	 30.5042 	 13.8585 	 72.1867
| 15> H 	 31.8412 	 13.1782 	 71.2808
| 16> C 	 29.9217 	 12.4617 	 70.7263
| 17> H 	 28.8881 	 12.7866 	 71.0815
| 18> H 	 29.7154 	 12.4578 	 69.6467
| 19> C 	 30.1984 	 11.0306 	 71.3563
| 20> H 	 29.9943 	 10.9511 	 72.5021
| 21> H 	 29.5893 	 10.3672 	 70.7298
| 22> H 	 31.2149 	 10.7452 	 71.103
| 23> S 	 32.4603 	 18.0597 	 66.8838
| 24> C 	 34.0243 	 18.6735 	 66.6545
| 25> C 	 34.8896 	 18.3146 	 67.6766
| 26> C 	 34.2315 	 17.3831 	 68.5496
| 27> C 	 32.8552 	 17.2349 	 68.3717
| 28> H 	 35.9347 	 18.6423 	 67.7265
| 29> C 	 34.9654 	 16.8045 	 69.6785
| 30> H 	 34.1749 	 16.429 	 70.2573
| 31> H 	 35.5038 	 17.5811 	 70.2488
| 32> C 	 35.9483 	 15.7315 	 69.3955
| 33> H 	 35.5306 	 14.8975 	 68.876
| 34> H 	 36.2505 	 15.3526 	 70.3235
| 35> C 	 37.2834 	 16.1771 	 68.7874
| 36> H 	 37.765 	 16.8835 	 69.5011
| 37> H 	 37.2277 	 16.7067 	 67.8521
| 38> H 	 38.0183 	 15.4127 	 68.6059
| 39> H 	 28.814 	 15.8044 	 70.9164
| 40> H 	 34.2236 	 19.4103 	 65.8782
| 41> *
| 42>
| 43>                          ****END OF INPUT****

CARTESIAN COORDINATES (ANGSTROEM)
---------------------------------
  S     30.175200   17.171800   69.331200
  C     29.751000   15.862700   70.379300
  C     30.776300   14.904300   70.384300
  C     31.874000   15.241600   69.603300
  C     31.835200   16.503200   69.069800
  H     32.791400   14.651400   69.480400
  C     30.888600   13.623900   71.191700
  H     30.504200   13.858500   72.186700
  H     31.841200   13.178200   71.280800
  C     29.921700   12.461700   70.726300
  H     28.888100   12.786600   71.081500
  H     29.715400   12.457800   69.646700
  C     30.198400   11.030600   71.356300
  H     29.994300   10.951100   72.502100
  H     29.589300   10.367200   70.729800
  H     31.214900   10.745200   71.103000
  S     32.460300   18.059700   66.883800
  C     34.024300   18.673500   66.654500
  C     34.889600   18.314600   67.676600
  C     34.231500   17.383100   68.549600
  C     32.855200   17.234900   68.371700
  H     35.934700   18.642300   67.726500
  C     34.965400   16.804500   69.678500
  H     34.174900   16.429000   70.257300
  H     35.503800   17.581100   70.248800
  C     35.948300   15.731500   69.395500
  H     35.530600   14.897500   68.876000
  H     36.250500   15.352600   70.323500
  C     37.283400   16.177100   68.787400
  H     37.765000   16.883500   69.501100
  H     37.227700   16.706700   67.852100
  H     38.018300   15.412700   68.605900
  H     28.814000   15.804400   70.916400
  H     34.223600   19.410300   65.878200

 Total Charge           Charge          ....    0
 Multiplicity           Mult            ....    1
 Number of Electrons    NEL             ....  134
 Basis Dimension        Dim             ....  322

ORBITAL ENERGIES
----------------

  NO   OCC          E(Eh)            E(eV)
   0   2.0000     -88.968280     -2420.9500
   1   2.0000     -88.962139     -2420.7829
   2   2.0000     -10.333132      -281.1788
   3   2.0000     -10.325121      -280.9608
   4   2.0000     -10.319626      -280.8113
   5   2.0000     -10.315863      -280.7089
   6   2.0000     -10.302522      -280.3459
   7   2.0000     -10.299520      -280.2642
   8   2.0000     -10.295206      -280.1468
   9   2.0000     -10.295025      -280.1419
  10   2.0000     -10.293048      -280.0881
  11   2.0000     -10.292667      -280.0777
  12   2.0000     -10.290940      -280.0307
  13   2.0000     -10.276619      -279.6410
  14   2.0000     -10.276389      -279.6348
  15   2.0000     -10.276013      -279.6245
  16   2.0000      -8.082479      -219.9354
  17   2.0000      -8.078231      -219.8198
  18   2.0000      -6.041011      -164.3843
  19   2.0000      -6.037036      -164.2761
  20   2.0000      -6.036608      -164.2645
  21   2.0000      -6.033258      -164.1733
  22   2.0000      -6.032423      -164.1506
  23   2.0000      -6.029177      -164.0623
  24   2.0000      -1.011195       -27.5160
  25   2.0000      -0.989264       -26.9192
  26   2.0000      -0.922011       -25.0892
  27   2.0000      -0.902232       -24.5510
  28   2.0000      -0.872795       -23.7500
  29   2.0000      -0.852923       -23.2092
  30   2.0000      -0.847727       -23.0678
  31   2.0000      -0.815369       -22.1873
  32   2.0000      -0.786244       -21.3948
  33   2.0000      -0.770204       -20.9583
  34   2.0000      -0.711670       -19.3655
  35   2.0000      -0.700045       -19.0492
  36   2.0000      -0.692648       -18.8479
  37   2.0000      -0.666567       -18.1382
  38   2.0000      -0.645114       -17.5544
  39   2.0000      -0.622272       -16.9329
  40   2.0000      -0.597935       -16.2706
  41   2.0000      -0.572110       -15.5679
  42   2.0000      -0.563961       -15.3461
  43   2.0000      -0.551684       -15.0121
  44   2.0000      -0.547228       -14.8908
  45   2.0000      -0.524962       -14.2849
  46   2.0000      -0.517096       -14.0709
  47   2.0000      -0.511541       -13.9197
  48   2.0000      -0.504400       -13.7254
  49   2.0000      -0.500335       -13.6148
  50   2.0000      -0.492507       -13.4018
  51   2.0000      -0.482424       -13.1274
  52   2.0000      -0.477728       -12.9996
  53   2.0000      -0.468079       -12.7371
  54   2.0000      -0.464847       -12.6491
  55   2.0000      -0.445639       -12.1264
  56   2.0000      -0.444864       -12.1054
  57   2.0000      -0.435244       -11.8436
  58   2.0000      -0.433936       -11.8080
  59   2.0000      -0.425172       -11.5695
  60   2.0000      -0.418684       -11.3930
  61   2.0000      -0.411076       -11.1859
  62   2.0000      -0.407072       -11.0770
  63   2.0000      -0.355185        -9.6651
  64   2.0000      -0.332270        -9.0415
  65   2.0000      -0.327847        -8.9212
  66   2.0000      -0.286352        -7.7920
  67   0.0000       0.023415         0.6372
  68   0.0000       0.069226         1.8837
  69   0.0000       0.111486         3.0337
  70   0.0000       0.117008         3.1839
  71   0.0000       0.134566         3.6617

MULLIKEN ATOMIC CHARGES
-----------------------
   0 S :    0.110528
   1 C :   -0.117618
   2 C :   -0.069487
   3 C :    0.017523
   4 C :   -0.154796
   5 H :    0.021461
   6 C :    0.097960
   7 H :    0.027968
   8 H :    0.012251
   9 C :   -0.144000
  10 H :    0.021835
  11 H :    0.038222
  12 C :   -0.060783
  13 H :    0.063899
  14 H :    0.039204
  15 H :    0.030800
  16 S :    0.103612
  17 C :   -0.088301
  18 C :   -0.033143
  19 C :   -0.067673
  20 C :   -0.129174
  21 H :    0.033885
  22 C :    0.069459
  23 H :   -0.000002
  24 H :    0.024476
  25 C :    0.001975
  26 H :    0.016058
  27 H :    0.009967
  28 C :   -0.068129
  29 H :    0.019646
  30 H :    0.026812
  31 H :    0.029450
  32 H :    0.053020
  33 H :    0.063097
Sum of atomic charges:    0.0000000

LOEWDIN ATOMIC CHARGES
----------------------
   0 S :    0.396696
   1 C :   -0.199882
   2 C :   -0.064890
   3 C :   -0.063677
   4 C :   -0.174506
   5 H :    0.037462
   6 C :   -0.028068
   7 H :    0.034739
   8 H :    0.019804
   9 C :   -0.051265
  10 H :    0.022879
  11 H :    0.023184
  12 C :   -0.075027
  13 H :    0.041007
  14 H :    0.031673
  15 H :    0.020410
  16 S :    0.428136
  17 C :   -0.195371
  18 C :   -0.075803
  19 C :   -0.051513
  20 C :   -0.209603
  21 H :    0.037094
  22 C :   -0.034764
  23 H :    0.024193
  24 H :    0.035260
  25 C :   -0.031548
  26 H :    0.018457
  27 H :    0.022048
  28 C :   -0.067374
  29 H :    0.026365
  30 H :    0.017769
  31 H :    0.025230
  32 H :    0.030651
  33 H :    0.030231

  Mayer bond orders larger than 0.100000
B(  0-S ,  1-C ) :   1.1496 B(  0-S ,  4-C ) :   1.1405 B(  1-C ,  2-C ) :   1.5692
B(  1-C ,  4-C ) :   0.1125 B(  1-C , 32-H ) :   0.9733 B(  2-C ,  3-C ) :   1.2664
B(  2-C ,  6-C ) :   1.0250 B(  3-C ,  4-C ) :   1.5476 B(  3-C ,  5-H ) :   0.9934
B(  4-C , 20-C ) :   1.0677 B(  6-C ,  7-H ) :   0.9389 B(  6-C ,  8-H ) :   0.9562
B(  6-C ,  9-C ) :   1.0348 B(  9-C , 10-H ) :   0.9586 B(  9-C , 11-H ) :   0.9654
B(  9-C , 12-C ) :   1.0658 B( 12-C , 13-H ) :   0.9741 B( 12-C , 14-H ) :   0.9741
B( 12-C , 15-H ) :   0.9760 B( 16-S , 17-C ) :   1.1924 B( 16-S , 20-C ) :   1.1323
B( 17-C , 18-C ) :   1.5639 B( 17-C , 33-H ) :   0.9645 B( 18-C , 19-C ) :   1.2504
B( 18-C , 21-H ) :   0.9888 B( 19-C , 20-C ) :   1.5686 B( 19-C , 22-C ) :   1.0658
B( 22-C , 23-H ) :   0.9191 B( 22-C , 24-H ) :   0.9291 B( 22-C , 25-C ) :   1.0925
B( 25-C , 26-H ) :   0.9464 B( 25-C , 27-H ) :   0.9462 B( 25-C , 28-C ) :   1.0763
B( 28-C , 29-H ) :   0.9732 B( 28-C , 30-H ) :   0.9732 B( 28-C , 31-H ) :   0.9715

Dispersion correction           -0.013920040
FINAL SINGLE POINT ENERGY     -1339.866697858437

DIPOLE MOMENT
-------------
                                X             Y             Z
Electronic contribution:    -12.48708      22.43809     -12.95576
Nuclear contribution   :     12.87656     -22.83317      13.29410
                        -----------------------------------------
Total Dipole Moment    :      0.38948      -0.39509       0.33834
                        -----------------------------------------
Magnitude (a.u.)       :      0.64982
Magnitude (Debye)      :      1.65170

Rotational constants in cm-1:     0.019415     0.007988     0.006070
Rotational constants in MHz :   582.051219   239.472820   181.966320

                             ****ORCA TERMINATED NORMALLY****
TOTAL RUN TIME: 0 days 0 hours 0 minutes 30 seconds 94 msec
