                         Program Version 4.2.1 -  RELEASE  -
|  1> ! wB97X-D3 SP def2-SVP
|  2> %pal
|  3> nprocs 16
|  4> end
|  5>
|  6> * xyz 0 1
|  7> S 	 7.14821 	 9.50029 	 82.1511
|  8> C 	 8.32087 	 10.1549 	 81.088
|  9> C 	 7.97941 	 11.3917 	 80.5672
| 10> C 	 6.87221 	 11.9644 	 81.2111
| 11> C 	 6.38708 	 11.0976 	 82.1838
| 12> H 	 6.46349 	 12.9426 	 81.0489
| 13> C 	 8.78668 	 12.1418 	 79.5118
| 14> H 	 9.87575 	 12.1502 	 79.8273
| 15> H 	 8.45775 	 13.1955 	 79.5737
| 16> C 	 8.60246 	 11.6586 	 78.088
| 17> H 	 8.9216 	 10.6086 	 78.0962
| 18> H 	 7.61812 	 11.7398 	 77.6535
| 19> C 	 9.53404 	 12.3486 	 77.136
| 20> H 	 9.30458 	 13.4098 	 76.8891
| 21> H 	 10.5356 	 12.3885 	 77.5865
| 22> H 	 9.56745 	 11.8856 	 76.1229
| 23> S 	 3.65155 	 11.4001 	 82.4903
| 24> C 	 3.07852 	 12.0483 	 83.975
| 25> C 	 4.14324 	 12.5774 	 84.729
| 26> C 	 5.42141 	 12.2883 	 84.236
| 27> C 	 5.31585 	 11.4551 	 83.1321
| 28> H 	 3.90784 	 13.1022 	 85.651
| 29> C 	 6.6526 	 12.6374 	 85.0421
| 30> H 	 7.61216 	 12.2322 	 84.6497
| 31> H 	 6.50736 	 12.0532 	 85.9047
| 32> C 	 6.98744 	 14.1342 	 85.3091
| 33> H 	 7.89302 	 14.159 	 86.0128
| 34> H 	 6.16485 	 14.5639 	 85.9172
| 35> C 	 7.19694 	 14.9628 	 84.0461
| 36> H 	 8.0313 	 14.7285 	 83.401
| 37> H 	 7.21841 	 16.0384 	 84.2662
| 38> H 	 6.30908 	 14.8546 	 83.4903
| 39> H 	 9.22296 	 9.65678 	 80.8007
| 40> H 	 2.03927 	 12.1302 	 84.3076
| 41> *
| 42>
| 43>                          ****END OF INPUT****

CARTESIAN COORDINATES (ANGSTROEM)
---------------------------------
  S      7.148210    9.500290   82.151100
  C      8.320870   10.154900   81.088000
  C      7.979410   11.391700   80.567200
  C      6.872210   11.964400   81.211100
  C      6.387080   11.097600   82.183800
  H      6.463490   12.942600   81.048900
  C      8.786680   12.141800   79.511800
  H      9.875750   12.150200   79.827300
  H      8.457750   13.195500   79.573700
  C      8.602460   11.658600   78.088000
  H      8.921600   10.608600   78.096200
  H      7.618120   11.739800   77.653500
  C      9.534040   12.348600   77.136000
  H      9.304580   13.409800   76.889100
  H     10.535600   12.388500   77.586500
  H      9.567450   11.885600   76.122900
  S      3.651550   11.400100   82.490300
  C      3.078520   12.048300   83.975000
  C      4.143240   12.577400   84.729000
  C      5.421410   12.288300   84.236000
  C      5.315850   11.455100   83.132100
  H      3.907840   13.102200   85.651000
  C      6.652600   12.637400   85.042100
  H      7.612160   12.232200   84.649700
  H      6.507360   12.053200   85.904700
  C      6.987440   14.134200   85.309100
  H      7.893020   14.159000   86.012800
  H      6.164850   14.563900   85.917200
  C      7.196940   14.962800   84.046100
  H      8.031300   14.728500   83.401000
  H      7.218410   16.038400   84.266200
  H      6.309080   14.854600   83.490300
  H      9.222960    9.656780   80.800700
  H      2.039270   12.130200   84.307600

 Total Charge           Charge          ....    0
 Multiplicity           Mult            ....    1
 Number of Electrons    NEL             ....  134
 Basis Dimension        Dim             ....  322

ORBITAL ENERGIES
----------------

  NO   OCC          E(Eh)            E(eV)
   0   2.0000     -88.968418     -2420.9537
   1   2.0000     -88.964255     -2420.8404
   2   2.0000     -10.324237      -280.9368
   3   2.0000     -10.321501      -280.8623
   4   2.0000     -10.317056      -280.7414
   5   2.0000     -10.306272      -280.4479
   6   2.0000     -10.302109      -280.3346
   7   2.0000     -10.296993      -280.1954
   8   2.0000     -10.295960      -280.1673
   9   2.0000     -10.294426      -280.1256
  10   2.0000     -10.290545      -280.0200
  11   2.0000     -10.290074      -280.0072
  12   2.0000     -10.289307      -279.9863
  13   2.0000     -10.282596      -279.8037
  14   2.0000     -10.278430      -279.6903
  15   2.0000     -10.272597      -279.5316
  16   2.0000      -8.083285      -219.9574
  17   2.0000      -8.079025      -219.8415
  18   2.0000      -6.041509      -164.3978
  19   2.0000      -6.037996      -164.3022
  20   2.0000      -6.037405      -164.2861
  21   2.0000      -6.034133      -164.1971
  22   2.0000      -6.033703      -164.1854
  23   2.0000      -6.029753      -164.0779
  24   2.0000      -1.005256       -27.3544
  25   2.0000      -0.985605       -26.8197
  26   2.0000      -0.913233       -24.8503
  27   2.0000      -0.906943       -24.6792
  28   2.0000      -0.862471       -23.4690
  29   2.0000      -0.855760       -23.2864
  30   2.0000      -0.851986       -23.1837
  31   2.0000      -0.805756       -21.9257
  32   2.0000      -0.785856       -21.3842
  33   2.0000      -0.766765       -20.8647
  34   2.0000      -0.702751       -19.1228
  35   2.0000      -0.696629       -18.9562
  36   2.0000      -0.690250       -18.7826
  37   2.0000      -0.654012       -17.7966
  38   2.0000      -0.644136       -17.5278
  39   2.0000      -0.614840       -16.7306
  40   2.0000      -0.596416       -16.2293
  41   2.0000      -0.569170       -15.4879
  42   2.0000      -0.559141       -15.2150
  43   2.0000      -0.553867       -15.0715
  44   2.0000      -0.539181       -14.6719
  45   2.0000      -0.523114       -14.2347
  46   2.0000      -0.515917       -14.0388
  47   2.0000      -0.511391       -13.9157
  48   2.0000      -0.502108       -13.6631
  49   2.0000      -0.491266       -13.3680
  50   2.0000      -0.485454       -13.2099
  51   2.0000      -0.477793       -13.0014
  52   2.0000      -0.471201       -12.8220
  53   2.0000      -0.465443       -12.6654
  54   2.0000      -0.457496       -12.4491
  55   2.0000      -0.450210       -12.2508
  56   2.0000      -0.443999       -12.0818
  57   2.0000      -0.438309       -11.9270
  58   2.0000      -0.437944       -11.9171
  59   2.0000      -0.425437       -11.5767
  60   2.0000      -0.418330       -11.3834
  61   2.0000      -0.413087       -11.2407
  62   2.0000      -0.411027       -11.1846
  63   2.0000      -0.339638        -9.2420
  64   2.0000      -0.328893        -8.9496
  65   2.0000      -0.310346        -8.4450
  66   2.0000      -0.305969        -8.3258
  67   0.0000       0.043467         1.1828
  68   0.0000       0.046157         1.2560
  69   0.0000       0.108003         2.9389
  70   0.0000       0.117671         3.2020
  71   0.0000       0.131757         3.5853

MULLIKEN ATOMIC CHARGES
-----------------------
   0 S :    0.133780
   1 C :   -0.115309
   2 C :   -0.067981
   3 C :    0.049213
   4 C :   -0.188842
   5 H :    0.011237
   6 C :    0.023579
   7 H :    0.041615
   8 H :    0.016448
   9 C :   -0.033082
  10 H :    0.025195
  11 H :    0.033880
  12 C :   -0.070042
  13 H :    0.026872
  14 H :    0.021276
  15 H :    0.039753
  16 S :    0.113181
  17 C :   -0.090599
  18 C :   -0.059131
  19 C :    0.016208
  20 C :   -0.194094
  21 H :    0.017529
  22 C :    0.066205
  23 H :    0.029276
  24 H :    0.030188
  25 C :   -0.107373
  26 H :    0.040928
  27 H :    0.028711
  28 C :   -0.023117
  29 H :    0.036774
  30 H :    0.031504
  31 H :    0.022402
  32 H :    0.033087
  33 H :    0.060728
Sum of atomic charges:   -0.0000000

LOEWDIN ATOMIC CHARGES
----------------------
   0 S :    0.419766
   1 C :   -0.206733
   2 C :   -0.067277
   3 C :   -0.050783
   4 C :   -0.195684
   5 H :    0.032508
   6 C :   -0.035193
   7 H :    0.038253
   8 H :    0.027788
   9 C :   -0.043336
  10 H :    0.026997
  11 H :    0.027083
  12 C :   -0.073858
  13 H :    0.023539
  14 H :    0.022122
  15 H :    0.029955
  16 S :    0.406989
  17 C :   -0.195252
  18 C :   -0.076236
  19 C :   -0.052224
  20 C :   -0.199134
  21 H :    0.028870
  22 C :   -0.032717
  23 H :    0.035609
  24 H :    0.031440
  25 C :   -0.041561
  26 H :    0.031185
  27 H :    0.022250
  28 C :   -0.065313
  29 H :    0.025631
  30 H :    0.030773
  31 H :    0.021510
  32 H :    0.020470
  33 H :    0.032563

  Mayer bond orders larger than 0.100000
B(  0-S ,  1-C ) :   1.1546 B(  0-S ,  4-C ) :   1.1559 B(  1-C ,  2-C ) :   1.5959
B(  1-C , 32-H ) :   0.9703 B(  2-C ,  3-C ) :   1.2580 B(  2-C ,  6-C ) :   1.0138
B(  3-C ,  4-C ) :   1.5668 B(  3-C ,  5-H ) :   1.0014 B(  4-C , 20-C ) :   1.0030
B(  6-C ,  7-H ) :   0.9433 B(  6-C ,  8-H ) :   0.9412 B(  6-C ,  9-C ) :   1.0681
B(  9-C , 10-H ) :   0.9520 B(  9-C , 11-H ) :   0.9537 B(  9-C , 12-C ) :   1.0871
B( 12-C , 13-H ) :   0.9730 B( 12-C , 14-H ) :   0.9714 B( 12-C , 15-H ) :   0.9730
B( 16-S , 17-C ) :   1.1685 B( 16-S , 20-C ) :   1.1512 B( 17-C , 18-C ) :   1.5903
B( 17-C , 20-C ) :   0.1067 B( 17-C , 33-H ) :   0.9669 B( 18-C , 19-C ) :   1.2464
B( 18-C , 21-H ) :   0.9910 B( 19-C , 20-C ) :   1.5750 B( 19-C , 22-C ) :   1.0249
B( 22-C , 23-H ) :   0.9398 B( 22-C , 24-H ) :   0.9406 B( 22-C , 25-C ) :   1.0657
B( 25-C , 26-H ) :   0.9569 B( 25-C , 27-H ) :   0.9576 B( 25-C , 28-C ) :   1.0715
B( 28-C , 29-H ) :   0.9755 B( 28-C , 30-H ) :   0.9709 B( 28-C , 31-H ) :   0.9701

Dispersion correction           -0.014738470
FINAL SINGLE POINT ENERGY     -1339.874034889985

DIPOLE MOMENT
-------------
                                X             Y             Z
Electronic contribution:    -17.31926     -17.75133       7.45103
Nuclear contribution   :     17.58462      18.24594      -7.39968
                        -----------------------------------------
Total Dipole Moment    :      0.26535       0.49462       0.05135
                        -----------------------------------------
Magnitude (a.u.)       :      0.56364
Magnitude (Debye)      :      1.43267

Rotational constants in cm-1:     0.019751     0.007894     0.006967
Rotational constants in MHz :   592.125100   236.663376   208.875052

                             ****ORCA TERMINATED NORMALLY****
TOTAL RUN TIME: 0 days 0 hours 0 minutes 35 seconds 408 msec
