                         Program Version 4.2.1 -  RELEASE  -
|  1> ! wB97X-D3 SP def2-SVP
|  2> %pal
|  3> nprocs 16
|  4> end
|  5>
|  6> * xyz 0 1
|  7> S 	 7.26846 	 -14.3318 	 56.7223
|  8> C 	 5.59558 	 -14.0508 	 56.5319
|  9> C 	 4.95681 	 -14.9287 	 55.7013
| 10> C 	 5.9369 	 -15.7197 	 55.054
| 11> C 	 7.16938 	 -15.643 	 55.6039
| 12> H 	 5.68063 	 -16.404 	 54.2633
| 13> C 	 3.44483 	 -14.8225 	 55.2839
| 14> H 	 3.33207 	 -14.0788 	 54.4542
| 15> H 	 3.02154 	 -14.3083 	 56.0994
| 16> C 	 2.74331 	 -16.2157 	 55.0949
| 17> H 	 1.68814 	 -15.9474 	 55.0333
| 18> H 	 3.00623 	 -16.7523 	 54.1189
| 19> C 	 2.93663 	 -17.2228 	 56.2743
| 20> H 	 2.54013 	 -18.1932 	 56.1907
| 21> H 	 3.97157 	 -17.3342 	 56.5256
| 22> H 	 2.46637 	 -16.9303 	 57.2261
| 23> S 	 9.35617 	 -15.6501 	 53.9943
| 24> C 	 10.3125 	 -17.1185 	 53.9477
| 25> C 	 9.75961 	 -18.1652 	 54.7403
| 26> C 	 8.53343 	 -17.7644 	 55.3364
| 27> C 	 8.28136 	 -16.4178 	 55.1749
| 28> H 	 10.2937 	 -19.1443 	 54.6744
| 29> C 	 7.68091 	 -18.7635 	 56.1553
| 30> H 	 7.04666 	 -19.3487 	 55.436
| 31> H 	 7.04071 	 -18.1795 	 56.8703
| 32> C 	 8.42981 	 -19.7985 	 56.9709
| 33> H 	 9.3105 	 -19.3245 	 57.2798
| 34> H 	 8.68902 	 -20.5978 	 56.2848
| 35> C 	 7.49983 	 -20.3848 	 58.0628
| 36> H 	 6.95775 	 -19.6605 	 58.6019
| 37> H 	 8.14893 	 -21.1113 	 58.6453
| 38> H 	 6.65278 	 -20.9431 	 57.6161
| 39> H 	 5.01872 	 -13.3116 	 57.0972
| 40> H 	 11.2686 	 -17.2307 	 53.5367
| 41> *
| 42>
| 43>                          ****END OF INPUT****

CARTESIAN COORDINATES (ANGSTROEM)
---------------------------------
  S      7.268460  -14.331800   56.722300
  C      5.595580  -14.050800   56.531900
  C      4.956810  -14.928700   55.701300
  C      5.936900  -15.719700   55.054000
  C      7.169380  -15.643000   55.603900
  H      5.680630  -16.404000   54.263300
  C      3.444830  -14.822500   55.283900
  H      3.332070  -14.078800   54.454200
  H      3.021540  -14.308300   56.099400
  C      2.743310  -16.215700   55.094900
  H      1.688140  -15.947400   55.033300
  H      3.006230  -16.752300   54.118900
  C      2.936630  -17.222800   56.274300
  H      2.540130  -18.193200   56.190700
  H      3.971570  -17.334200   56.525600
  H      2.466370  -16.930300   57.226100
  S      9.356170  -15.650100   53.994300
  C     10.312500  -17.118500   53.947700
  C      9.759610  -18.165200   54.740300
  C      8.533430  -17.764400   55.336400
  C      8.281360  -16.417800   55.174900
  H     10.293700  -19.144300   54.674400
  C      7.680910  -18.763500   56.155300
  H      7.046660  -19.348700   55.436000
  H      7.040710  -18.179500   56.870300
  C      8.429810  -19.798500   56.970900
  H      9.310500  -19.324500   57.279800
  H      8.689020  -20.597800   56.284800
  C      7.499830  -20.384800   58.062800
  H      6.957750  -19.660500   58.601900
  H      8.148930  -21.111300   58.645300
  H      6.652780  -20.943100   57.616100
  H      5.018720  -13.311600   57.097200
  H     11.268600  -17.230700   53.536700

 Total Charge           Charge          ....    0
 Multiplicity           Mult            ....    1
 Number of Electrons    NEL             ....  134
 Basis Dimension        Dim             ....  322

ORBITAL ENERGIES
----------------

  NO   OCC          E(Eh)            E(eV)
   0   2.0000     -88.965614     -2420.8774
   1   2.0000     -88.964996     -2420.8606
   2   2.0000     -10.318795      -280.7887
   3   2.0000     -10.314606      -280.6747
   4   2.0000     -10.314492      -280.6716
   5   2.0000     -10.307373      -280.4779
   6   2.0000     -10.303898      -280.3833
   7   2.0000     -10.301498      -280.3180
   8   2.0000     -10.301044      -280.3056
   9   2.0000     -10.297917      -280.2206
  10   2.0000     -10.294671      -280.1322
  11   2.0000     -10.293775      -280.1078
  12   2.0000     -10.284573      -279.8575
  13   2.0000     -10.282638      -279.8048
  14   2.0000     -10.278728      -279.6984
  15   2.0000     -10.273700      -279.5616
  16   2.0000      -8.081028      -219.8959
  17   2.0000      -8.079891      -219.8650
  18   2.0000      -6.039332      -164.3386
  19   2.0000      -6.038329      -164.3113
  20   2.0000      -6.035425      -164.2323
  21   2.0000      -6.034502      -164.2071
  22   2.0000      -6.031861      -164.1353
  23   2.0000      -6.030726      -164.1044
  24   2.0000      -1.012859       -27.5613
  25   2.0000      -0.982781       -26.7428
  26   2.0000      -0.909270       -24.7425
  27   2.0000      -0.902457       -24.5571
  28   2.0000      -0.869245       -23.6534
  29   2.0000      -0.848481       -23.0883
  30   2.0000      -0.845136       -22.9973
  31   2.0000      -0.810141       -22.0450
  32   2.0000      -0.784305       -21.3420
  33   2.0000      -0.770904       -20.9774
  34   2.0000      -0.710793       -19.3417
  35   2.0000      -0.700107       -19.0509
  36   2.0000      -0.692429       -18.8420
  37   2.0000      -0.652290       -17.7497
  38   2.0000      -0.640498       -17.4288
  39   2.0000      -0.622220       -16.9315
  40   2.0000      -0.592137       -16.1129
  41   2.0000      -0.572037       -15.5659
  42   2.0000      -0.560935       -15.2638
  43   2.0000      -0.548680       -14.9303
  44   2.0000      -0.538004       -14.6398
  45   2.0000      -0.525025       -14.2867
  46   2.0000      -0.514463       -13.9993
  47   2.0000      -0.506473       -13.7818
  48   2.0000      -0.498125       -13.5547
  49   2.0000      -0.487000       -13.2519
  50   2.0000      -0.483606       -13.1596
  51   2.0000      -0.479224       -13.0403
  52   2.0000      -0.476893       -12.9769
  53   2.0000      -0.463249       -12.6057
  54   2.0000      -0.454881       -12.3779
  55   2.0000      -0.450435       -12.2570
  56   2.0000      -0.446314       -12.1448
  57   2.0000      -0.442761       -12.0482
  58   2.0000      -0.427534       -11.6338
  59   2.0000      -0.424618       -11.5544
  60   2.0000      -0.421706       -11.4752
  61   2.0000      -0.418849       -11.3975
  62   2.0000      -0.414408       -11.2766
  63   2.0000      -0.338372        -9.2076
  64   2.0000      -0.328418        -8.9367
  65   2.0000      -0.321062        -8.7365
  66   2.0000      -0.303422        -8.2565
  67   0.0000       0.040149         1.0925
  68   0.0000       0.062912         1.7119
  69   0.0000       0.114002         3.1022
  70   0.0000       0.128802         3.5049
  71   0.0000       0.132350         3.6014

MULLIKEN ATOMIC CHARGES
-----------------------
   0 S :    0.135471
   1 C :   -0.123983
   2 C :   -0.123086
   3 C :    0.049669
   4 C :   -0.189674
   5 H :    0.007243
   6 C :    0.091927
   7 H :    0.058317
   8 H :    0.000891
   9 C :   -0.094075
  10 H :    0.036134
  11 H :    0.051162
  12 C :   -0.041026
  13 H :    0.021955
  14 H :    0.033321
  15 H :    0.019338
  16 S :    0.118526
  17 C :   -0.075113
  18 C :   -0.079906
  19 C :   -0.002046
  20 C :   -0.179335
  21 H :    0.041586
  22 C :    0.024912
  23 H :    0.041332
  24 H :    0.042274
  25 C :   -0.059589
  26 H :    0.024765
  27 H :    0.026429
  28 C :   -0.038456
  29 H :    0.024415
  30 H :    0.051021
  31 H :    0.024291
  32 H :    0.043971
  33 H :    0.037340
Sum of atomic charges:   -0.0000000

LOEWDIN ATOMIC CHARGES
----------------------
   0 S :    0.432895
   1 C :   -0.208819
   2 C :   -0.072406
   3 C :   -0.049682
   4 C :   -0.219957
   5 H :    0.029646
   6 C :   -0.025660
   7 H :    0.042529
   8 H :    0.022010
   9 C :   -0.043585
  10 H :    0.027111
  11 H :    0.032207
  12 C :   -0.070124
  13 H :    0.021313
  14 H :    0.023400
  15 H :    0.027778
  16 S :    0.402264
  17 C :   -0.178674
  18 C :   -0.080037
  19 C :   -0.052776
  20 C :   -0.199358
  21 H :    0.041675
  22 C :   -0.033437
  23 H :    0.036756
  24 H :    0.031500
  25 C :   -0.040875
  26 H :    0.015984
  27 H :    0.023982
  28 C :   -0.062491
  29 H :    0.017283
  30 H :    0.036961
  31 H :    0.029272
  32 H :    0.027330
  33 H :    0.015985

  Mayer bond orders larger than 0.100000
B(  0-S ,  1-C ) :   1.1599 B(  0-S ,  4-C ) :   1.1426 B(  1-C ,  2-C ) :   1.6244
B(  1-C , 32-H ) :   0.9576 B(  2-C ,  3-C ) :   1.2395 B(  2-C ,  6-C ) :   1.0089
B(  3-C ,  4-C ) :   1.5923 B(  3-C ,  5-H ) :   0.9965 B(  4-C , 20-C ) :   1.0294
B(  6-C ,  7-H ) :   0.9472 B(  6-C ,  8-H ) :   0.9333 B(  6-C ,  9-C ) :   1.0558
B(  9-C , 10-H ) :   0.9596 B(  9-C , 11-H ) :   0.9586 B(  9-C , 12-C ) :   1.0669
B( 12-C , 13-H ) :   0.9751 B( 12-C , 14-H ) :   0.9734 B( 12-C , 15-H ) :   0.9723
B( 16-S , 17-C ) :   1.1621 B( 16-S , 20-C ) :   1.1408 B( 17-C , 18-C ) :   1.6163
B( 17-C , 20-C ) :   0.1118 B( 17-C , 33-H ) :   0.9676 B( 18-C , 19-C ) :   1.2230
B( 18-C , 21-H ) :   0.9824 B( 19-C , 20-C ) :   1.6249 B( 19-C , 22-C ) :   1.0309
B( 22-C , 23-H ) :   0.9287 B( 22-C , 24-H ) :   0.9465 B( 22-C , 25-C ) :   1.0714
B( 25-C , 26-H ) :   0.9630 B( 25-C , 27-H ) :   0.9424 B( 25-C , 28-C ) :   1.0803
B( 28-C , 29-H ) :   0.9772 B( 28-C , 30-H ) :   0.9739 B( 28-C , 31-H ) :   0.9704

Dispersion correction           -0.014591083
FINAL SINGLE POINT ENERGY     -1339.863301623172

DIPOLE MOMENT
-------------
                                X             Y             Z
Electronic contribution:     18.74123      20.28765      -7.78684
Nuclear contribution   :    -19.21372     -20.71001       7.78645
                        -----------------------------------------
Total Dipole Moment    :     -0.47249      -0.42236      -0.00040
                        -----------------------------------------
Magnitude (a.u.)       :      0.63374
Magnitude (Debye)      :      1.61085

Rotational constants in cm-1:     0.015992     0.009875     0.007352
Rotational constants in MHz :   479.418364   296.041123   220.415889

                             ****ORCA TERMINATED NORMALLY****
TOTAL RUN TIME: 0 days 0 hours 0 minutes 28 seconds 674 msec
