                         Program Version 4.2.1 -  RELEASE  -
|  1> ! wB97X-D3 SP def2-SVP
|  2> %pal
|  3> nprocs 16
|  4> end
|  5>
|  6> * xyz 0 1
|  7> S 	 -20.75 	 48.8017 	 64.352
|  8> C 	 -20.0138 	 47.3746 	 65.0735
|  9> C 	 -20.7037 	 46.9063 	 66.1876
| 10> C 	 -21.6729 	 47.8512 	 66.5809
| 11> C 	 -21.8843 	 48.9266 	 65.7201
| 12> H 	 -22.3606 	 47.7781 	 67.4642
| 13> C 	 -20.5512 	 45.6606 	 66.97
| 14> H 	 -20.5669 	 45.8141 	 68.0563
| 15> H 	 -19.5089 	 45.3259 	 66.8337
| 16> C 	 -21.5388 	 44.4592 	 66.6126
| 17> H 	 -21.7492 	 43.7293 	 67.3748
| 18> H 	 -22.5107 	 44.8645 	 66.421
| 19> C 	 -21.1237 	 43.5987 	 65.4191
| 20> H 	 -21.6772 	 42.6936 	 65.0857
| 21> H 	 -20.9701 	 44.2002 	 64.5722
| 22> H 	 -20.143 	 43.2179 	 65.6289
| 23> S 	 -23.7624 	 50.4208 	 64.4361
| 24> C 	 -24.7381 	 51.6176 	 65.3249
| 25> C 	 -24.1267 	 51.8755 	 66.5339
| 26> C 	 -23.0759 	 50.9616 	 66.877
| 27> C 	 -22.8475 	 49.9861 	 65.8677
| 28> H 	 -24.3856 	 52.7845 	 67.029
| 29> C 	 -22.3502 	 51.0887 	 68.2533
| 30> H 	 -22.0538 	 52.144 	 68.2978
| 31> H 	 -21.4445 	 50.512 	 68.1018
| 32> C 	 -23.1364 	 50.7449 	 69.5252
| 33> H 	 -23.1774 	 49.6413 	 69.736
| 34> H 	 -24.126 	 51.2424 	 69.4934
| 35> C 	 -22.602 	 51.3712 	 70.8148
| 36> H 	 -22.7153 	 52.4362 	 70.6735
| 37> H 	 -21.5541 	 51.2352 	 71.0158
| 38> H 	 -23.2177 	 51.1732 	 71.6451
| 39> H 	 -19.2744 	 46.8203 	 64.5925
| 40> H 	 -25.2368 	 52.3462 	 64.8148
| 41> *
| 42>
| 43>                          ****END OF INPUT****

CARTESIAN COORDINATES (ANGSTROEM)
---------------------------------
  S    -20.750000   48.801700   64.352000
  C    -20.013800   47.374600   65.073500
  C    -20.703700   46.906300   66.187600
  C    -21.672900   47.851200   66.580900
  C    -21.884300   48.926600   65.720100
  H    -22.360600   47.778100   67.464200
  C    -20.551200   45.660600   66.970000
  H    -20.566900   45.814100   68.056300
  H    -19.508900   45.325900   66.833700
  C    -21.538800   44.459200   66.612600
  H    -21.749200   43.729300   67.374800
  H    -22.510700   44.864500   66.421000
  C    -21.123700   43.598700   65.419100
  H    -21.677200   42.693600   65.085700
  H    -20.970100   44.200200   64.572200
  H    -20.143000   43.217900   65.628900
  S    -23.762400   50.420800   64.436100
  C    -24.738100   51.617600   65.324900
  C    -24.126700   51.875500   66.533900
  C    -23.075900   50.961600   66.877000
  C    -22.847500   49.986100   65.867700
  H    -24.385600   52.784500   67.029000
  C    -22.350200   51.088700   68.253300
  H    -22.053800   52.144000   68.297800
  H    -21.444500   50.512000   68.101800
  C    -23.136400   50.744900   69.525200
  H    -23.177400   49.641300   69.736000
  H    -24.126000   51.242400   69.493400
  C    -22.602000   51.371200   70.814800
  H    -22.715300   52.436200   70.673500
  H    -21.554100   51.235200   71.015800
  H    -23.217700   51.173200   71.645100
  H    -19.274400   46.820300   64.592500
  H    -25.236800   52.346200   64.814800

 Total Charge           Charge          ....    0
 Multiplicity           Mult            ....    1
 Number of Electrons    NEL             ....  134
 Basis Dimension        Dim             ....  322

ORBITAL ENERGIES
----------------

  NO   OCC          E(Eh)            E(eV)
   0   2.0000     -88.971527     -2421.0383
   1   2.0000     -88.962962     -2420.8053
   2   2.0000     -10.333383      -281.1857
   3   2.0000     -10.333016      -281.1756
   4   2.0000     -10.317527      -280.7542
   5   2.0000     -10.311562      -280.5919
   6   2.0000     -10.311414      -280.5878
   7   2.0000     -10.304086      -280.3884
   8   2.0000     -10.301078      -280.3066
   9   2.0000     -10.297375      -280.2058
  10   2.0000     -10.295753      -280.1617
  11   2.0000     -10.295399      -280.1520
  12   2.0000     -10.292761      -280.0803
  13   2.0000     -10.288420      -279.9621
  14   2.0000     -10.270796      -279.4826
  15   2.0000     -10.270533      -279.4754
  16   2.0000      -8.085478      -220.0170
  17   2.0000      -8.077459      -219.7988
  18   2.0000      -6.044034      -164.4665
  19   2.0000      -6.040134      -164.3604
  20   2.0000      -6.036182      -164.2529
  21   2.0000      -6.036019      -164.2484
  22   2.0000      -6.032066      -164.1409
  23   2.0000      -6.028108      -164.0332
  24   2.0000      -1.004474       -27.3331
  25   2.0000      -0.981841       -26.7173
  26   2.0000      -0.909935       -24.7606
  27   2.0000      -0.905819       -24.6486
  28   2.0000      -0.873054       -23.7570
  29   2.0000      -0.853569       -23.2268
  30   2.0000      -0.848082       -23.0775
  31   2.0000      -0.816788       -22.2259
  32   2.0000      -0.783615       -21.3232
  33   2.0000      -0.774038       -21.0626
  34   2.0000      -0.713302       -19.4099
  35   2.0000      -0.706610       -19.2278
  36   2.0000      -0.694363       -18.8946
  37   2.0000      -0.662645       -18.0315
  38   2.0000      -0.645266       -17.5586
  39   2.0000      -0.619829       -16.8664
  40   2.0000      -0.592376       -16.1194
  41   2.0000      -0.573117       -15.5953
  42   2.0000      -0.567449       -15.4411
  43   2.0000      -0.549061       -14.9407
  44   2.0000      -0.534696       -14.5498
  45   2.0000      -0.533292       -14.5116
  46   2.0000      -0.519400       -14.1336
  47   2.0000      -0.518148       -14.0995
  48   2.0000      -0.503160       -13.6917
  49   2.0000      -0.501401       -13.6438
  50   2.0000      -0.493142       -13.4191
  51   2.0000      -0.481504       -13.1024
  52   2.0000      -0.465053       -12.6547
  53   2.0000      -0.461356       -12.5541
  54   2.0000      -0.459813       -12.5121
  55   2.0000      -0.448930       -12.2160
  56   2.0000      -0.442408       -12.0385
  57   2.0000      -0.439135       -11.9495
  58   2.0000      -0.432172       -11.7600
  59   2.0000      -0.423969       -11.5368
  60   2.0000      -0.421395       -11.4667
  61   2.0000      -0.419983       -11.4283
  62   2.0000      -0.409882       -11.1534
  63   2.0000      -0.349824        -9.5192
  64   2.0000      -0.335563        -9.1311
  65   2.0000      -0.327123        -8.9015
  66   2.0000      -0.291874        -7.9423
  67   0.0000       0.020667         0.5624
  68   0.0000       0.058469         1.5910
  69   0.0000       0.104610         2.8466
  70   0.0000       0.116472         3.1694
  71   0.0000       0.120186         3.2704

MULLIKEN ATOMIC CHARGES
-----------------------
   0 S :    0.115065
   1 C :   -0.090421
   2 C :   -0.061325
   3 C :    0.000676
   4 C :   -0.149224
   5 H :    0.030390
   6 C :    0.041640
   7 H :    0.037216
   8 H :    0.018847
   9 C :   -0.035564
  10 H :    0.026087
  11 H :    0.023236
  12 C :   -0.046820
  13 H :    0.044491
  14 H :    0.012525
  15 H :    0.006155
  16 S :    0.073500
  17 C :   -0.042446
  18 C :   -0.048933
  19 C :   -0.038353
  20 C :   -0.161693
  21 H :    0.019151
  22 C :    0.080936
  23 H :    0.021962
  24 H :    0.028224
  25 C :   -0.078888
  26 H :    0.044153
  27 H :    0.033386
  28 C :   -0.033883
  29 H :    0.010021
  30 H :    0.030137
  31 H :    0.027489
  32 H :    0.025748
  33 H :    0.036515
Sum of atomic charges:   -0.0000000

LOEWDIN ATOMIC CHARGES
----------------------
   0 S :    0.394642
   1 C :   -0.176281
   2 C :   -0.066749
   3 C :   -0.059913
   4 C :   -0.192310
   5 H :    0.039603
   6 C :   -0.031712
   7 H :    0.037886
   8 H :    0.031670
   9 C :   -0.034044
  10 H :    0.024401
  11 H :    0.020945
  12 C :   -0.069750
  13 H :    0.033765
  14 H :    0.015042
  15 H :    0.018713
  16 S :    0.389758
  17 C :   -0.169178
  18 C :   -0.060125
  19 C :   -0.052654
  20 C :   -0.194969
  21 H :    0.029191
  22 C :   -0.032251
  23 H :    0.033498
  24 H :    0.030157
  25 C :   -0.043743
  26 H :    0.028258
  27 H :    0.031214
  28 C :   -0.062747
  29 H :    0.020945
  30 H :    0.020452
  31 H :    0.022069
  32 H :    0.014184
  33 H :    0.010033

  Mayer bond orders larger than 0.100000
B(  0-S ,  1-C ) :   1.1452 B(  0-S ,  4-C ) :   1.1290 B(  1-C ,  2-C ) :   1.5955
B(  1-C ,  4-C ) :   0.1019 B(  1-C , 32-H ) :   0.9719 B(  2-C ,  3-C ) :   1.2408
B(  2-C ,  6-C ) :   1.0368 B(  3-C ,  4-C ) :   1.5785 B(  3-C ,  5-H ) :   0.9871
B(  4-C , 20-C ) :   1.0769 B(  6-C ,  7-H ) :   0.9434 B(  6-C ,  8-H ) :   0.9426
B(  6-C ,  9-C ) :   1.0407 B(  9-C , 10-H ) :   0.9614 B(  9-C , 11-H ) :   0.9597
B(  9-C , 12-C ) :   1.0709 B( 12-C , 13-H ) :   0.9756 B( 12-C , 14-H ) :   0.9774
B( 12-C , 15-H ) :   0.9717 B( 16-S , 17-C ) :   1.1417 B( 16-S , 20-C ) :   1.1463
B( 17-C , 18-C ) :   1.6177 B( 17-C , 20-C ) :   0.1058 B( 17-C , 33-H ) :   0.9684
B( 18-C , 19-C ) :   1.2508 B( 18-C , 21-H ) :   0.9872 B( 19-C , 20-C ) :   1.5517
B( 19-C , 22-C ) :   1.0371 B( 22-C , 23-H ) :   0.9364 B( 22-C , 24-H ) :   0.9287
B( 22-C , 25-C ) :   1.0659 B( 25-C , 26-H ) :   0.9568 B( 25-C , 27-H ) :   0.9570
B( 25-C , 28-C ) :   1.0772 B( 28-C , 29-H ) :   0.9742 B( 28-C , 30-H ) :   0.9759
B( 28-C , 31-H ) :   0.9740

Dispersion correction           -0.013724788
FINAL SINGLE POINT ENERGY     -1339.856558854854

DIPOLE MOMENT
-------------
                                X             Y             Z
Electronic contribution:     -2.29928      11.98809     -22.04552
Nuclear contribution   :      2.44292     -12.00372      22.62045
                        -----------------------------------------
Total Dipole Moment    :      0.14364      -0.01562       0.57493
                        -----------------------------------------
Magnitude (a.u.)       :      0.59281
Magnitude (Debye)      :      1.50680

Rotational constants in cm-1:     0.017736     0.008115     0.006384
Rotational constants in MHz :   531.720338   243.279836   191.379556

                             ****ORCA TERMINATED NORMALLY****
TOTAL RUN TIME: 0 days 0 hours 0 minutes 31 seconds 593 msec
