                         Program Version 4.2.1 -  RELEASE  -
|  1> ! wB97X-D3 SP def2-SVP
|  2> %pal
|  3> nprocs 16
|  4> end
|  5>
|  6> * xyz 0 1
|  7> S 	 0.0593925 	 43.355 	 35.9522
|  8> C 	 0.101305 	 42.8098 	 37.5817
|  9> C 	 -0.290375 	 43.7939 	 38.4953
| 10> C 	 -0.456776 	 45.0608 	 37.8422
| 11> C 	 -0.280073 	 44.9819 	 36.419
| 12> H 	 -0.670383 	 46.033 	 38.1977
| 13> C 	 -0.274855 	 43.7144 	 40.0516
| 14> H 	 0.630513 	 44.2896 	 40.2775
| 15> H 	 -0.124244 	 42.6799 	 40.3715
| 16> C 	 -1.47782 	 44.3472 	 40.8258
| 17> H 	 -1.48978 	 45.4931 	 40.6568
| 18> H 	 -2.45444 	 44.0299 	 40.3977
| 19> C 	 -1.54687 	 44.3021 	 42.3693
| 20> H 	 -1.34814 	 43.2695 	 42.6563
| 21> H 	 -0.685986 	 44.8948 	 42.7838
| 22> H 	 -2.42232 	 44.7701 	 42.9201
| 23> S 	 0.744374 	 46.5841 	 34.361
| 24> C 	 -0.0942732 	 48.0876 	 33.9705
| 25> C 	 -1.26292 	 48.1727 	 34.6464
| 26> C 	 -1.51166 	 47.0509 	 35.51
| 27> C 	 -0.532613 	 46.0489 	 35.4552
| 28> H 	 -1.97122 	 49.021 	 34.5301
| 29> C 	 -2.79624 	 47.0511 	 36.4511
| 30> H 	 -3.1355 	 48.0468 	 36.6935
| 31> H 	 -2.51412 	 46.657 	 37.4431
| 32> C 	 -3.92903 	 46.1604 	 35.8719
| 33> H 	 -4.7365 	 46.0071 	 36.5825
| 34> H 	 -3.47579 	 45.1779 	 35.8493
| 35> C 	 -4.50735 	 46.6933 	 34.5443
| 36> H 	 -5.46988 	 46.3338 	 34.1909
| 37> H 	 -3.81323 	 46.5346 	 33.7326
| 38> H 	 -4.67863 	 47.7923 	 34.6575
| 39> H 	 0.165731 	 41.7932 	 37.922
| 40> H 	 0.314685 	 48.8456 	 33.2616
| 41> *
| 42>
| 43>                          ****END OF INPUT****

CARTESIAN COORDINATES (ANGSTROEM)
---------------------------------
  S      0.059393   43.355000   35.952200
  C      0.101305   42.809800   37.581700
  C     -0.290375   43.793900   38.495300
  C     -0.456776   45.060800   37.842200
  C     -0.280073   44.981900   36.419000
  H     -0.670383   46.033000   38.197700
  C     -0.274855   43.714400   40.051600
  H      0.630513   44.289600   40.277500
  H     -0.124244   42.679900   40.371500
  C     -1.477820   44.347200   40.825800
  H     -1.489780   45.493100   40.656800
  H     -2.454440   44.029900   40.397700
  C     -1.546870   44.302100   42.369300
  H     -1.348140   43.269500   42.656300
  H     -0.685986   44.894800   42.783800
  H     -2.422320   44.770100   42.920100
  S      0.744374   46.584100   34.361000
  C     -0.094273   48.087600   33.970500
  C     -1.262920   48.172700   34.646400
  C     -1.511660   47.050900   35.510000
  C     -0.532613   46.048900   35.455200
  H     -1.971220   49.021000   34.530100
  C     -2.796240   47.051100   36.451100
  H     -3.135500   48.046800   36.693500
  H     -2.514120   46.657000   37.443100
  C     -3.929030   46.160400   35.871900
  H     -4.736500   46.007100   36.582500
  H     -3.475790   45.177900   35.849300
  C     -4.507350   46.693300   34.544300
  H     -5.469880   46.333800   34.190900
  H     -3.813230   46.534600   33.732600
  H     -4.678630   47.792300   34.657500
  H      0.165731   41.793200   37.922000
  H      0.314685   48.845600   33.261600

 Total Charge           Charge          ....    0
 Multiplicity           Mult            ....    1
 Number of Electrons    NEL             ....  134
 Basis Dimension        Dim             ....  322

ORBITAL ENERGIES
----------------

  NO   OCC          E(Eh)            E(eV)
   0   2.0000     -88.971489     -2421.0373
   1   2.0000     -88.964909     -2420.8582
   2   2.0000     -10.332784      -281.1693
   3   2.0000     -10.330725      -281.1133
   4   2.0000     -10.322927      -280.9011
   5   2.0000     -10.314025      -280.6589
   6   2.0000     -10.310800      -280.5711
   7   2.0000     -10.310588      -280.5654
   8   2.0000     -10.305721      -280.4329
   9   2.0000     -10.301616      -280.3212
  10   2.0000     -10.297275      -280.2031
  11   2.0000     -10.297018      -280.1961
  12   2.0000     -10.296592      -280.1845
  13   2.0000     -10.291042      -280.0335
  14   2.0000     -10.283738      -279.8347
  15   2.0000     -10.275861      -279.6204
  16   2.0000      -8.086666      -220.0494
  17   2.0000      -8.079414      -219.8520
  18   2.0000      -6.045002      -164.4929
  19   2.0000      -6.040993      -164.3838
  20   2.0000      -6.038024      -164.3030
  21   2.0000      -6.037711      -164.2945
  22   2.0000      -6.033899      -164.1908
  23   2.0000      -6.030120      -164.0879
  24   2.0000      -1.005540       -27.3621
  25   2.0000      -0.984016       -26.7764
  26   2.0000      -0.903985       -24.5987
  27   2.0000      -0.899044       -24.4642
  28   2.0000      -0.870279       -23.6815
  29   2.0000      -0.850179       -23.1346
  30   2.0000      -0.838541       -22.8179
  31   2.0000      -0.810684       -22.0598
  32   2.0000      -0.783542       -21.3213
  33   2.0000      -0.773460       -21.0469
  34   2.0000      -0.709131       -19.2964
  35   2.0000      -0.694059       -18.8863
  36   2.0000      -0.687629       -18.7113
  37   2.0000      -0.659208       -17.9380
  38   2.0000      -0.642633       -17.4869
  39   2.0000      -0.615602       -16.7514
  40   2.0000      -0.591582       -16.0978
  41   2.0000      -0.566968       -15.4280
  42   2.0000      -0.559880       -15.2351
  43   2.0000      -0.548073       -14.9138
  44   2.0000      -0.541390       -14.7320
  45   2.0000      -0.523260       -14.2386
  46   2.0000      -0.512012       -13.9326
  47   2.0000      -0.509866       -13.8741
  48   2.0000      -0.502801       -13.6819
  49   2.0000      -0.497473       -13.5369
  50   2.0000      -0.482974       -13.1424
  51   2.0000      -0.478309       -13.0154
  52   2.0000      -0.475511       -12.9393
  53   2.0000      -0.469507       -12.7759
  54   2.0000      -0.461439       -12.5564
  55   2.0000      -0.450862       -12.2686
  56   2.0000      -0.439677       -11.9642
  57   2.0000      -0.435295       -11.8450
  58   2.0000      -0.427076       -11.6213
  59   2.0000      -0.422970       -11.5096
  60   2.0000      -0.421013       -11.4563
  61   2.0000      -0.410385       -11.1672
  62   2.0000      -0.408996       -11.1293
  63   2.0000      -0.349825        -9.5192
  64   2.0000      -0.332788        -9.0556
  65   2.0000      -0.329874        -8.9763
  66   2.0000      -0.293316        -7.9815
  67   0.0000       0.025759         0.7009
  68   0.0000       0.068786         1.8718
  69   0.0000       0.115916         3.1542
  70   0.0000       0.118511         3.2249
  71   0.0000       0.124901         3.3987

MULLIKEN ATOMIC CHARGES
-----------------------
   0 S :    0.133715
   1 C :   -0.102666
   2 C :   -0.089774
   3 C :    0.032517
   4 C :   -0.178596
   5 H :    0.009731
   6 C :    0.074905
   7 H :    0.050519
   8 H :    0.021719
   9 C :   -0.129080
  10 H :    0.033797
  11 H :    0.040840
  12 C :   -0.070893
  13 H :    0.030392
  14 H :    0.029486
  15 H :    0.059360
  16 S :    0.092920
  17 C :   -0.108868
  18 C :   -0.023110
  19 C :   -0.078495
  20 C :   -0.125211
  21 H :    0.034308
  22 C :    0.063490
  23 H :    0.016794
  24 H :    0.014309
  25 C :   -0.051552
  26 H :    0.024058
  27 H :    0.031418
  28 C :   -0.053452
  29 H :    0.031286
  30 H :    0.042244
  31 H :    0.022433
  32 H :    0.043973
  33 H :    0.077479
Sum of atomic charges:    0.0000000

LOEWDIN ATOMIC CHARGES
----------------------
   0 S :    0.441887
   1 C :   -0.214996
   2 C :   -0.058817
   3 C :   -0.054926
   4 C :   -0.205914
   5 H :    0.022527
   6 C :   -0.027548
   7 H :    0.040616
   8 H :    0.026628
   9 C :   -0.056883
  10 H :    0.028834
  11 H :    0.025317
  12 C :   -0.078618
  13 H :    0.020604
  14 H :    0.027898
  15 H :    0.040156
  16 S :    0.392752
  17 C :   -0.180472
  18 C :   -0.080661
  19 C :   -0.048574
  20 C :   -0.209158
  21 H :    0.039424
  22 C :   -0.024955
  23 H :    0.021401
  24 H :    0.028882
  25 C :   -0.039555
  26 H :    0.021951
  27 H :    0.025632
  28 C :   -0.069961
  29 H :    0.024776
  30 H :    0.025856
  31 H :    0.026850
  32 H :    0.027392
  33 H :    0.041657

  Mayer bond orders larger than 0.100000
B(  0-S ,  1-C ) :   1.1585 B(  0-S ,  4-C ) :   1.1764 B(  1-C ,  2-C ) :   1.5916
B(  1-C ,  4-C ) :   0.1020 B(  1-C , 32-H ) :   0.9650 B(  2-C ,  3-C ) :   1.2528
B(  2-C ,  6-C ) :   1.0201 B(  3-C ,  4-C ) :   1.5465 B(  3-C ,  5-H ) :   0.9928
B(  4-C , 20-C ) :   1.0260 B(  6-C ,  7-H ) :   0.9436 B(  6-C ,  8-H ) :   0.9447
B(  6-C ,  9-C ) :   1.0445 B(  9-C , 10-H ) :   0.9550 B(  9-C , 11-H ) :   0.9624
B(  9-C , 12-C ) :   1.0725 B( 12-C , 13-H ) :   0.9761 B( 12-C , 14-H ) :   0.9744
B( 12-C , 15-H ) :   0.9744 B( 16-S , 17-C ) :   1.1556 B( 16-S , 20-C ) :   1.1312
B( 17-C , 18-C ) :   1.6026 B( 17-C , 33-H ) :   0.9619 B( 18-C , 19-C ) :   1.2554
B( 18-C , 21-H ) :   0.9859 B( 19-C , 20-C ) :   1.5967 B( 19-C , 22-C ) :   1.0180
B( 22-C , 23-H ) :   0.9451 B( 22-C , 24-H ) :   0.9373 B( 22-C , 25-C ) :   1.0729
B( 25-C , 26-H ) :   0.9575 B( 25-C , 27-H ) :   0.9586 B( 25-C , 28-C ) :   1.0610
B( 28-C , 29-H ) :   0.9770 B( 28-C , 30-H ) :   0.9761 B( 28-C , 31-H ) :   0.9749

Dispersion correction           -0.014677732
FINAL SINGLE POINT ENERGY     -1339.874985409641

DIPOLE MOMENT
-------------
                                X             Y             Z
Electronic contribution:     19.11886      -3.30832     -20.78061
Nuclear contribution   :    -19.50307       3.61070      21.31392
                        -----------------------------------------
Total Dipole Moment    :     -0.38421       0.30238       0.53331
                        -----------------------------------------
Magnitude (a.u.)       :      0.72351
Magnitude (Debye)      :      1.83901

Rotational constants in cm-1:     0.018327     0.008293     0.006886
Rotational constants in MHz :   549.418845   248.614199   206.439067

                             ****ORCA TERMINATED NORMALLY****
TOTAL RUN TIME: 0 days 0 hours 0 minutes 34 seconds 127 msec
