                         Program Version 4.2.1 -  RELEASE  -
|  1> ! wB97X-D3 SP def2-SVP
|  2> %pal
|  3> nprocs 16
|  4> end
|  5>
|  6> * xyz 0 1
|  7> S 	 -37.5332 	 11.4615 	 80.0701
|  8> C 	 -36.2994 	 11.2805 	 78.8522
|  9> C 	 -36.7535 	 11.9288 	 77.6867
| 10> C 	 -38.0562 	 12.4163 	 77.7585
| 11> C 	 -38.6398 	 12.1503 	 78.9914
| 12> H 	 -38.5691 	 12.958 	 77.0187
| 13> C 	 -36.037 	 11.8846 	 76.3614
| 14> H 	 -36.7193 	 11.755 	 75.5132
| 15> H 	 -35.4235 	 11.0013 	 76.4354
| 16> C 	 -35.2533 	 13.1784 	 76.1013
| 17> H 	 -34.8176 	 13.6601 	 76.9865
| 18> H 	 -34.3773 	 12.8318 	 75.6611
| 19> C 	 -35.8816 	 14.2583 	 75.3283
| 20> H 	 -36.1486 	 13.7937 	 74.4126
| 21> H 	 -36.8335 	 14.5094 	 75.8433
| 22> H 	 -35.3966 	 15.2182 	 75.3242
| 23> S 	 -40.0356 	 13.3214 	 80.8889
| 24> C 	 -41.5026 	 14.1474 	 80.5069
| 25> C 	 -42.0489 	 13.6538 	 79.2821
| 26> C 	 -41.1689 	 12.7807 	 78.6084
| 27> C 	 -39.9947 	 12.6577 	 79.3067
| 28> H 	 -42.9426 	 14.1223 	 79.0195
| 29> C 	 -41.3663 	 12.3122 	 77.2182
| 30> H 	 -42.0738 	 11.4593 	 77.0777
| 31> H 	 -40.4748 	 11.8917 	 76.8238
| 32> C 	 -41.8498 	 13.4372 	 76.2822
| 33> H 	 -42.8556 	 13.7741 	 76.6028
| 34> H 	 -42.0239 	 13.0478 	 75.3
| 35> C 	 -41.0143 	 14.654 	 76.1032
| 36> H 	 -41.6745 	 15.3684 	 75.555
| 37> H 	 -40.2148 	 14.4459 	 75.3459
| 38> H 	 -40.5801 	 14.9793 	 77.0251
| 39> H 	 -35.4131 	 10.6939 	 78.9884
| 40> H 	 -41.8926 	 14.9557 	 81.175
| 41> *
| 42>
| 43>                          ****END OF INPUT****

CARTESIAN COORDINATES (ANGSTROEM)
---------------------------------
  S    -37.533200   11.461500   80.070100
  C    -36.299400   11.280500   78.852200
  C    -36.753500   11.928800   77.686700
  C    -38.056200   12.416300   77.758500
  C    -38.639800   12.150300   78.991400
  H    -38.569100   12.958000   77.018700
  C    -36.037000   11.884600   76.361400
  H    -36.719300   11.755000   75.513200
  H    -35.423500   11.001300   76.435400
  C    -35.253300   13.178400   76.101300
  H    -34.817600   13.660100   76.986500
  H    -34.377300   12.831800   75.661100
  C    -35.881600   14.258300   75.328300
  H    -36.148600   13.793700   74.412600
  H    -36.833500   14.509400   75.843300
  H    -35.396600   15.218200   75.324200
  S    -40.035600   13.321400   80.888900
  C    -41.502600   14.147400   80.506900
  C    -42.048900   13.653800   79.282100
  C    -41.168900   12.780700   78.608400
  C    -39.994700   12.657700   79.306700
  H    -42.942600   14.122300   79.019500
  C    -41.366300   12.312200   77.218200
  H    -42.073800   11.459300   77.077700
  H    -40.474800   11.891700   76.823800
  C    -41.849800   13.437200   76.282200
  H    -42.855600   13.774100   76.602800
  H    -42.023900   13.047800   75.300000
  C    -41.014300   14.654000   76.103200
  H    -41.674500   15.368400   75.555000
  H    -40.214800   14.445900   75.345900
  H    -40.580100   14.979300   77.025100
  H    -35.413100   10.693900   78.988400
  H    -41.892600   14.955700   81.175000

 Total Charge           Charge          ....    0
 Multiplicity           Mult            ....    1
 Number of Electrons    NEL             ....  134
 Basis Dimension        Dim             ....  322

ORBITAL ENERGIES
----------------

  NO   OCC          E(Eh)            E(eV)
   0   2.0000     -88.968170     -2420.9470
   1   2.0000     -88.963599     -2420.8226
   2   2.0000     -10.325984      -280.9843
   3   2.0000     -10.323624      -280.9201
   4   2.0000     -10.321087      -280.8510
   5   2.0000     -10.311643      -280.5941
   6   2.0000     -10.302408      -280.3428
   7   2.0000     -10.296875      -280.1922
   8   2.0000     -10.294989      -280.1409
   9   2.0000     -10.289028      -279.9787
  10   2.0000     -10.288657      -279.9686
  11   2.0000     -10.281719      -279.7798
  12   2.0000     -10.281038      -279.7613
  13   2.0000     -10.276926      -279.6494
  14   2.0000     -10.271417      -279.4995
  15   2.0000     -10.271209      -279.4938
  16   2.0000      -8.083706      -219.9688
  17   2.0000      -8.079901      -219.8653
  18   2.0000      -6.042147      -164.4152
  19   2.0000      -6.038093      -164.3049
  20   2.0000      -6.037933      -164.3005
  21   2.0000      -6.034687      -164.2122
  22   2.0000      -6.034272      -164.2009
  23   2.0000      -6.030817      -164.1069
  24   2.0000      -1.016815       -27.6689
  25   2.0000      -0.991422       -26.9780
  26   2.0000      -0.920305       -25.0428
  27   2.0000      -0.916528       -24.9400
  28   2.0000      -0.869143       -23.6506
  29   2.0000      -0.860004       -23.4019
  30   2.0000      -0.852253       -23.1910
  31   2.0000      -0.815294       -22.1853
  32   2.0000      -0.788120       -21.4458
  33   2.0000      -0.774659       -21.0795
  34   2.0000      -0.702739       -19.1225
  35   2.0000      -0.700563       -19.0633
  36   2.0000      -0.691655       -18.8209
  37   2.0000      -0.662858       -18.0373
  38   2.0000      -0.644363       -17.5340
  39   2.0000      -0.623669       -16.9709
  40   2.0000      -0.602831       -16.4039
  41   2.0000      -0.578595       -15.7444
  42   2.0000      -0.559163       -15.2156
  43   2.0000      -0.556321       -15.1383
  44   2.0000      -0.542322       -14.7573
  45   2.0000      -0.539365       -14.6769
  46   2.0000      -0.525320       -14.2947
  47   2.0000      -0.521942       -14.2028
  48   2.0000      -0.502190       -13.6653
  49   2.0000      -0.500502       -13.6193
  50   2.0000      -0.490978       -13.3602
  51   2.0000      -0.487679       -13.2704
  52   2.0000      -0.471511       -12.8305
  53   2.0000      -0.470369       -12.7994
  54   2.0000      -0.466040       -12.6816
  55   2.0000      -0.449844       -12.2409
  56   2.0000      -0.445130       -12.1126
  57   2.0000      -0.438303       -11.9268
  58   2.0000      -0.433233       -11.7889
  59   2.0000      -0.425120       -11.5681
  60   2.0000      -0.417301       -11.3553
  61   2.0000      -0.409173       -11.1342
  62   2.0000      -0.399089       -10.8598
  63   2.0000      -0.348884        -9.4936
  64   2.0000      -0.335980        -9.1425
  65   2.0000      -0.327385        -8.9086
  66   2.0000      -0.280693        -7.6380
  67   0.0000       0.029166         0.7936
  68   0.0000       0.069464         1.8902
  69   0.0000       0.104050         2.8313
  70   0.0000       0.118092         3.2134
  71   0.0000       0.129150         3.5143

MULLIKEN ATOMIC CHARGES
-----------------------
   0 S :    0.118961
   1 C :   -0.135994
   2 C :   -0.056613
   3 C :    0.013038
   4 C :   -0.101053
   5 H :   -0.018835
   6 C :    0.056296
   7 H :    0.024486
   8 H :    0.017122
   9 C :   -0.048840
  10 H :    0.016813
  11 H :    0.002007
  12 C :   -0.004337
  13 H :    0.017344
  14 H :    0.014636
  15 H :    0.040013
  16 S :    0.107342
  17 C :   -0.136080
  18 C :   -0.032620
  19 C :   -0.012029
  20 C :   -0.155735
  21 H :    0.002217
  22 C :    0.106322
  23 H :    0.038911
  24 H :    0.003105
  25 C :   -0.117415
  26 H :    0.025142
  27 H :    0.013928
  28 C :   -0.037632
  29 H :    0.036946
  30 H :    0.029535
  31 H :    0.047708
  32 H :    0.047299
  33 H :    0.078013
Sum of atomic charges:    0.0000000

LOEWDIN ATOMIC CHARGES
----------------------
   0 S :    0.435368
   1 C :   -0.214189
   2 C :   -0.052574
   3 C :   -0.071936
   4 C :   -0.206866
   5 H :    0.019903
   6 C :   -0.021910
   7 H :    0.030152
   8 H :    0.029721
   9 C :   -0.046894
  10 H :    0.026340
  11 H :    0.013530
  12 C :   -0.060609
  13 H :    0.018975
  14 H :    0.027628
  15 H :    0.030773
  16 S :    0.426816
  17 C :   -0.199347
  18 C :   -0.059616
  19 C :   -0.065172
  20 C :   -0.190757
  21 H :    0.022269
  22 C :   -0.031654
  23 H :    0.042124
  24 H :    0.023203
  25 C :   -0.045644
  26 H :    0.020639
  27 H :    0.020883
  28 C :   -0.067539
  29 H :    0.036255
  30 H :    0.025528
  31 H :    0.022157
  32 H :    0.026061
  33 H :    0.036382

  Mayer bond orders larger than 0.100000
B(  0-S ,  1-C ) :   1.1372 B(  0-S ,  4-C ) :   1.1952 B(  1-C ,  2-C ) :   1.5450
B(  1-C ,  4-C ) :   0.1047 B(  1-C , 32-H ) :   0.9790 B(  2-C ,  3-C ) :   1.2923
B(  2-C ,  6-C ) :   1.0294 B(  3-C ,  4-C ) :   1.5002 B(  3-C ,  5-H ) :   0.9996
B(  4-C , 20-C ) :   1.0199 B(  6-C ,  7-H ) :   0.9505 B(  6-C ,  8-H ) :   0.9429
B(  6-C ,  9-C ) :   1.0440 B(  9-C , 10-H ) :   0.9514 B(  9-C , 11-H ) :   0.9499
B(  9-C , 12-C ) :   1.0920 B( 12-C , 13-H ) :   0.9722 B( 12-C , 14-H ) :   0.9671
B( 12-C , 15-H ) :   0.9679 B( 16-S , 17-C ) :   1.1759 B( 16-S , 20-C ) :   1.1636
B( 17-C , 18-C ) :   1.5802 B( 17-C , 20-C ) :   0.1036 B( 17-C , 33-H ) :   0.9664
B( 18-C , 19-C ) :   1.2090 B( 18-C , 21-H ) :   1.0108 B( 19-C , 20-C ) :   1.5832
B( 19-C , 22-C ) :   1.0570 B( 22-C , 23-H ) :   0.9203 B( 22-C , 24-H ) :   0.9313
B( 22-C , 25-C ) :   1.0741 B( 25-C , 26-H ) :   0.9550 B( 25-C , 27-H ) :   0.9501
B( 25-C , 28-C ) :   1.0873 B( 28-C , 29-H ) :   0.9683 B( 28-C , 30-H ) :   0.9685
B( 28-C , 31-H ) :   0.9714

Dispersion correction           -0.015274923
FINAL SINGLE POINT ENERGY     -1339.851979466008

DIPOLE MOMENT
-------------
                                X             Y             Z
Electronic contribution:     -2.10022      -9.10514      28.08125
Nuclear contribution   :      2.05686       9.30262     -28.70838
                        -----------------------------------------
Total Dipole Moment    :     -0.04336       0.19748      -0.62713
                        -----------------------------------------
Magnitude (a.u.)       :      0.65891
Magnitude (Debye)      :      1.67483

Rotational constants in cm-1:     0.017937     0.010424     0.007510
Rotational constants in MHz :   537.752696   312.506093   225.157487

                             ****ORCA TERMINATED NORMALLY****
TOTAL RUN TIME: 0 days 0 hours 0 minutes 30 seconds 649 msec
