                         Program Version 4.2.1 -  RELEASE  -
|  1> ! wB97X-D3 SP def2-SVP
|  2> %pal
|  3> nprocs 16
|  4> end
|  5>
|  6> * xyz 0 1
|  7> S 	 -12.7432 	 33.6718 	 34.1467
|  8> C 	 -12.4019 	 33.9008 	 32.4292
|  9> C 	 -12.0029 	 35.1996 	 32.1583
| 10> C 	 -12.1194 	 36.0277 	 33.3012
| 11> C 	 -12.5566 	 35.3821 	 34.4456
| 12> H 	 -11.7828 	 37.0243 	 33.3819
| 13> C 	 -11.3643 	 35.6387 	 30.844
| 14> H 	 -11.353 	 36.7617 	 30.7595
| 15> H 	 -12.0679 	 35.2739 	 30.0783
| 16> C 	 -9.93031 	 35.0929 	 30.5783
| 17> H 	 -9.33471 	 35.4995 	 31.3908
| 18> H 	 -10.0527 	 33.9741 	 30.729
| 19> C 	 -9.43735 	 35.6118 	 29.1904
| 20> H 	 -8.40904 	 35.2564 	 28.9959
| 21> H 	 -10.0915 	 35.1869 	 28.4451
| 22> H 	 -9.47996 	 36.67 	 29.1748
| 23> S 	 -11.5526 	 36.9551 	 36.5547
| 24> C 	 -12.2314 	 36.7841 	 38.1278
| 25> C 	 -13.4018 	 36.0119 	 38.1232
| 26> C 	 -13.6344 	 35.4788 	 36.8228
| 27> C 	 -12.7538 	 35.8812 	 35.8422
| 28> H 	 -13.9432 	 35.8097 	 39.0847
| 29> C 	 -14.8475 	 34.6253 	 36.4922
| 30> H 	 -15.1252 	 33.9622 	 37.3343
| 31> H 	 -14.6553 	 33.8888 	 35.6438
| 32> C 	 -16.1317 	 35.4218 	 36.0546
| 33> H 	 -16.9481 	 34.7079 	 35.8637
| 34> H 	 -16.0547 	 35.8474 	 35.0806
| 35> C 	 -16.5544 	 36.5302 	 37.089
| 36> H 	 -17.3533 	 37.1278 	 36.6478
| 37> H 	 -15.7265 	 37.2465 	 37.282
| 38> H 	 -17.1169 	 36.0991 	 37.9759
| 39> H 	 -12.3124 	 33.0664 	 31.7465
| 40> H 	 -11.843 	 37.2884 	 38.9688
| 41> *
| 42>
| 43>                          ****END OF INPUT****

CARTESIAN COORDINATES (ANGSTROEM)
---------------------------------
  S    -12.743200   33.671800   34.146700
  C    -12.401900   33.900800   32.429200
  C    -12.002900   35.199600   32.158300
  C    -12.119400   36.027700   33.301200
  C    -12.556600   35.382100   34.445600
  H    -11.782800   37.024300   33.381900
  C    -11.364300   35.638700   30.844000
  H    -11.353000   36.761700   30.759500
  H    -12.067900   35.273900   30.078300
  C     -9.930310   35.092900   30.578300
  H     -9.334710   35.499500   31.390800
  H    -10.052700   33.974100   30.729000
  C     -9.437350   35.611800   29.190400
  H     -8.409040   35.256400   28.995900
  H    -10.091500   35.186900   28.445100
  H     -9.479960   36.670000   29.174800
  S    -11.552600   36.955100   36.554700
  C    -12.231400   36.784100   38.127800
  C    -13.401800   36.011900   38.123200
  C    -13.634400   35.478800   36.822800
  C    -12.753800   35.881200   35.842200
  H    -13.943200   35.809700   39.084700
  C    -14.847500   34.625300   36.492200
  H    -15.125200   33.962200   37.334300
  H    -14.655300   33.888800   35.643800
  C    -16.131700   35.421800   36.054600
  H    -16.948100   34.707900   35.863700
  H    -16.054700   35.847400   35.080600
  C    -16.554400   36.530200   37.089000
  H    -17.353300   37.127800   36.647800
  H    -15.726500   37.246500   37.282000
  H    -17.116900   36.099100   37.975900
  H    -12.312400   33.066400   31.746500
  H    -11.843000   37.288400   38.968800

 Total Charge           Charge          ....    0
 Multiplicity           Mult            ....    1
 Number of Electrons    NEL             ....  134
 Basis Dimension        Dim             ....  322

ORBITAL ENERGIES
----------------

  NO   OCC          E(Eh)            E(eV)
   0   2.0000     -88.967160     -2420.9195
   1   2.0000     -88.967136     -2420.9188
   2   2.0000     -10.333866      -281.1988
   3   2.0000     -10.329059      -281.0680
   4   2.0000     -10.317676      -280.7582
   5   2.0000     -10.314218      -280.6641
   6   2.0000     -10.303664      -280.3769
   7   2.0000     -10.302002      -280.3317
   8   2.0000     -10.301612      -280.3211
   9   2.0000     -10.296993      -280.1954
  10   2.0000     -10.294610      -280.1306
  11   2.0000     -10.291900      -280.0568
  12   2.0000     -10.290822      -280.0275
  13   2.0000     -10.284007      -279.8421
  14   2.0000     -10.281840      -279.7831
  15   2.0000     -10.279435      -279.7176
  16   2.0000      -8.082172      -219.9271
  17   2.0000      -8.081352      -219.9048
  18   2.0000      -6.040592      -164.3729
  19   2.0000      -6.039873      -164.3533
  20   2.0000      -6.036558      -164.2631
  21   2.0000      -6.035937      -164.2462
  22   2.0000      -6.033111      -164.1693
  23   2.0000      -6.032104      -164.1419
  24   2.0000      -1.006560       -27.3899
  25   2.0000      -0.985708       -26.8225
  26   2.0000      -0.908384       -24.7184
  27   2.0000      -0.896180       -24.3863
  28   2.0000      -0.864674       -23.5290
  29   2.0000      -0.848928       -23.1005
  30   2.0000      -0.840081       -22.8598
  31   2.0000      -0.814147       -22.1541
  32   2.0000      -0.777444       -21.1553
  33   2.0000      -0.769642       -20.9430
  34   2.0000      -0.702856       -19.1257
  35   2.0000      -0.700842       -19.0709
  36   2.0000      -0.687004       -18.6943
  37   2.0000      -0.666351       -18.1323
  38   2.0000      -0.640295       -17.4233
  39   2.0000      -0.616145       -16.7662
  40   2.0000      -0.588410       -16.0114
  41   2.0000      -0.573762       -15.6129
  42   2.0000      -0.561141       -15.2694
  43   2.0000      -0.542991       -14.7755
  44   2.0000      -0.538149       -14.6438
  45   2.0000      -0.519182       -14.1277
  46   2.0000      -0.514116       -13.9898
  47   2.0000      -0.508905       -13.8480
  48   2.0000      -0.504800       -13.7363
  49   2.0000      -0.492313       -13.3965
  50   2.0000      -0.486501       -13.2384
  51   2.0000      -0.476786       -12.9740
  52   2.0000      -0.473419       -12.8824
  53   2.0000      -0.464701       -12.6451
  54   2.0000      -0.461201       -12.5499
  55   2.0000      -0.450793       -12.2667
  56   2.0000      -0.438280       -11.9262
  57   2.0000      -0.434928       -11.8350
  58   2.0000      -0.430614       -11.7176
  59   2.0000      -0.423399       -11.5213
  60   2.0000      -0.421514       -11.4700
  61   2.0000      -0.413946       -11.2640
  62   2.0000      -0.406867       -11.0714
  63   2.0000      -0.348780        -9.4908
  64   2.0000      -0.334439        -9.1005
  65   2.0000      -0.329340        -8.9618
  66   2.0000      -0.289113        -7.8672
  67   0.0000       0.025092         0.6828
  68   0.0000       0.071450         1.9443
  69   0.0000       0.110754         3.0138
  70   0.0000       0.117941         3.2093
  71   0.0000       0.127624         3.4728

MULLIKEN ATOMIC CHARGES
-----------------------
   0 S :    0.107514
   1 C :   -0.135518
   2 C :   -0.062356
   3 C :    0.028934
   4 C :   -0.133548
   5 H :   -0.007488
   6 C :    0.005718
   7 H :    0.027427
   8 H :    0.033950
   9 C :   -0.089854
  10 H :    0.034742
  11 H :    0.038613
  12 C :   -0.011598
  13 H :    0.043660
  14 H :    0.029014
  15 H :    0.029065
  16 S :    0.105148
  17 C :   -0.087783
  18 C :   -0.042176
  19 C :   -0.063778
  20 C :   -0.110258
  21 H :    0.046181
  22 C :    0.019007
  23 H :    0.026871
  24 H :    0.042647
  25 C :   -0.055457
  26 H :    0.024184
  27 H :    0.024200
  28 C :   -0.087942
  29 H :    0.023235
  30 H :    0.064078
  31 H :    0.038372
  32 H :    0.048296
  33 H :    0.046900
Sum of atomic charges:   -0.0000000

LOEWDIN ATOMIC CHARGES
----------------------
   0 S :    0.428138
   1 C :   -0.194962
   2 C :   -0.062372
   3 C :   -0.066571
   4 C :   -0.181136
   5 H :    0.023428
   6 C :   -0.039305
   7 H :    0.029574
   8 H :    0.031041
   9 C :   -0.039938
  10 H :    0.023519
  11 H :    0.028875
  12 C :   -0.057076
  13 H :    0.031029
  14 H :    0.025227
  15 H :    0.021733
  16 S :    0.415285
  17 C :   -0.182679
  18 C :   -0.074457
  19 C :   -0.064988
  20 C :   -0.200411
  21 H :    0.045399
  22 C :   -0.048118
  23 H :    0.029036
  24 H :    0.020306
  25 C :   -0.038010
  26 H :    0.025646
  27 H :    0.019683
  28 C :   -0.081267
  29 H :    0.023985
  30 H :    0.033406
  31 H :    0.031000
  32 H :    0.024405
  33 H :    0.020574

  Mayer bond orders larger than 0.100000
B(  0-S ,  1-C ) :   1.1419 B(  0-S ,  4-C ) :   1.1633 B(  1-C ,  2-C ) :   1.5923
B(  1-C , 32-H ) :   0.9705 B(  2-C ,  3-C ) :   1.2586 B(  2-C ,  6-C ) :   1.0153
B(  3-C ,  4-C ) :   1.5645 B(  3-C ,  5-H ) :   1.0019 B(  4-C , 20-C ) :   1.0249
B(  6-C ,  7-H ) :   0.9468 B(  6-C ,  8-H ) :   0.9399 B(  6-C ,  9-C ) :   1.0498
B(  9-C , 10-H ) :   0.9570 B(  9-C , 11-H ) :   0.9581 B(  9-C , 12-C ) :   1.0683
B( 12-C , 13-H ) :   0.9750 B( 12-C , 14-H ) :   0.9766 B( 12-C , 15-H ) :   0.9742
B( 16-S , 17-C ) :   1.1871 B( 16-S , 20-C ) :   1.1292 B( 17-C , 18-C ) :   1.5712
B( 17-C , 33-H ) :   0.9722 B( 18-C , 19-C ) :   1.2527 B( 18-C , 21-H ) :   0.9880
B( 19-C , 20-C ) :   1.5828 B( 19-C , 22-C ) :   1.0480 B( 22-C , 23-H ) :   0.9380
B( 22-C , 24-H ) :   0.9262 B( 22-C , 25-C ) :   1.0624 B( 25-C , 26-H ) :   0.9549
B( 25-C , 27-H ) :   0.9592 B( 25-C , 28-C ) :   1.0760 B( 28-C , 29-H ) :   0.9730
B( 28-C , 30-H ) :   0.9695 B( 28-C , 31-H ) :   0.9756

Dispersion correction           -0.014324716
FINAL SINGLE POINT ENERGY     -1339.887382236925

DIPOLE MOMENT
-------------
                                X             Y             Z
Electronic contribution:      5.55138      -1.76026      13.12669
Nuclear contribution   :     -5.54144       1.81284     -13.31113
                        -----------------------------------------
Total Dipole Moment    :      0.00994       0.05258      -0.18445
                        -----------------------------------------
Magnitude (a.u.)       :      0.19205
Magnitude (Debye)      :      0.48816

Rotational constants in cm-1:     0.025476     0.007069     0.006201
Rotational constants in MHz :   763.749812   211.917890   185.901354

                             ****ORCA TERMINATED NORMALLY****
TOTAL RUN TIME: 0 days 0 hours 0 minutes 33 seconds 436 msec
