                         Program Version 4.2.1 -  RELEASE  -
|  1> ! wB97X-D3 SP def2-SVP
|  2> %pal
|  3> nprocs 16
|  4> end
|  5>
|  6> * xyz 0 1
|  7> S 	 -1.83528 	 33.3684 	 52.6176
|  8> C 	 -0.207812 	 32.9917 	 53.2146
|  9> C 	 -0.0449997 	 31.6086 	 53.258
| 10> C 	 -1.23212 	 30.9095 	 52.7819
| 11> C 	 -2.24656 	 31.7001 	 52.2505
| 12> H 	 -1.30065 	 29.8621 	 52.6749
| 13> C 	 1.19045 	 30.8656 	 53.7845
| 14> H 	 2.0775 	 31.4811 	 53.7358
| 15> H 	 1.28071 	 30.0298 	 53.1153
| 16> C 	 1.09665 	 30.3678 	 55.2374
| 17> H 	 1.40507 	 31.2145 	 55.8656
| 18> H 	 0.0548939 	 30.1285 	 55.5016
| 19> C 	 1.97957 	 29.1625 	 55.6531
| 20> H 	 3.02951 	 29.3778 	 55.7965
| 21> H 	 1.67678 	 28.7115 	 56.6027
| 22> H 	 1.93309 	 28.4058 	 54.9141
| 23> S 	 -4.95115 	 32.0162 	 52.2112
| 24> C 	 -5.98048 	 31.0843 	 51.1066
| 25> C 	 -5.18266 	 30.262 	 50.3887
| 26> C 	 -3.74261 	 30.4514 	 50.5606
| 27> C 	 -3.50073 	 31.3765 	 51.5784
| 28> H 	 -5.67088 	 29.5322 	 49.6971
| 29> C 	 -2.73746 	 29.7625 	 49.6441
| 30> H 	 -3.15216 	 28.7781 	 49.5176
| 31> H 	 -1.82235 	 29.6517 	 50.1685
| 32> C 	 -2.56326 	 30.554 	 48.3172
| 33> H 	 -3.5529 	 30.6716 	 47.8223
| 34> H 	 -1.95799 	 30.0634 	 47.6111
| 35> C 	 -1.86977 	 31.9618 	 48.5481
| 36> H 	 -1.35059 	 32.2166 	 47.5944
| 37> H 	 -1.10412 	 32.0169 	 49.3564
| 38> H 	 -2.66647 	 32.694 	 48.7646
| 39> H 	 0.556169 	 33.611 	 53.6296
| 40> H 	 -7.07679 	 31.0338 	 51.165
| 41> *
| 42>
| 43>                          ****END OF INPUT****

CARTESIAN COORDINATES (ANGSTROEM)
---------------------------------
  S     -1.835280   33.368400   52.617600
  C     -0.207812   32.991700   53.214600
  C     -0.045000   31.608600   53.258000
  C     -1.232120   30.909500   52.781900
  C     -2.246560   31.700100   52.250500
  H     -1.300650   29.862100   52.674900
  C      1.190450   30.865600   53.784500
  H      2.077500   31.481100   53.735800
  H      1.280710   30.029800   53.115300
  C      1.096650   30.367800   55.237400
  H      1.405070   31.214500   55.865600
  H      0.054894   30.128500   55.501600
  C      1.979570   29.162500   55.653100
  H      3.029510   29.377800   55.796500
  H      1.676780   28.711500   56.602700
  H      1.933090   28.405800   54.914100
  S     -4.951150   32.016200   52.211200
  C     -5.980480   31.084300   51.106600
  C     -5.182660   30.262000   50.388700
  C     -3.742610   30.451400   50.560600
  C     -3.500730   31.376500   51.578400
  H     -5.670880   29.532200   49.697100
  C     -2.737460   29.762500   49.644100
  H     -3.152160   28.778100   49.517600
  H     -1.822350   29.651700   50.168500
  C     -2.563260   30.554000   48.317200
  H     -3.552900   30.671600   47.822300
  H     -1.957990   30.063400   47.611100
  C     -1.869770   31.961800   48.548100
  H     -1.350590   32.216600   47.594400
  H     -1.104120   32.016900   49.356400
  H     -2.666470   32.694000   48.764600
  H      0.556169   33.611000   53.629600
  H     -7.076790   31.033800   51.165000

 Total Charge           Charge          ....    0
 Multiplicity           Mult            ....    1
 Number of Electrons    NEL             ....  134
 Basis Dimension        Dim             ....  322

ORBITAL ENERGIES
----------------

  NO   OCC          E(Eh)            E(eV)
   0   2.0000     -88.964512     -2420.8474
   1   2.0000     -88.963601     -2420.8227
   2   2.0000     -10.335205      -281.2352
   3   2.0000     -10.329493      -281.0798
   4   2.0000     -10.320596      -280.8377
   5   2.0000     -10.316797      -280.7343
   6   2.0000     -10.307919      -280.4927
   7   2.0000     -10.306958      -280.4666
   8   2.0000     -10.299196      -280.2554
   9   2.0000     -10.296253      -280.1753
  10   2.0000     -10.293865      -280.1103
  11   2.0000     -10.290480      -280.0182
  12   2.0000     -10.289312      -279.9864
  13   2.0000     -10.287885      -279.9476
  14   2.0000     -10.279112      -279.7089
  15   2.0000     -10.276388      -279.6347
  16   2.0000      -8.079073      -219.8427
  17   2.0000      -8.078631      -219.8307
  18   2.0000      -6.037683      -164.2937
  19   2.0000      -6.037336      -164.2843
  20   2.0000      -6.033373      -164.1764
  21   2.0000      -6.033082      -164.1685
  22   2.0000      -6.029745      -164.0777
  23   2.0000      -6.029331      -164.0664
  24   2.0000      -1.007765       -27.4227
  25   2.0000      -0.981676       -26.7128
  26   2.0000      -0.908907       -24.7326
  27   2.0000      -0.903382       -24.5823
  28   2.0000      -0.872020       -23.7289
  29   2.0000      -0.842898       -22.9364
  30   2.0000      -0.838077       -22.8052
  31   2.0000      -0.818047       -22.2602
  32   2.0000      -0.783454       -21.3189
  33   2.0000      -0.772589       -21.0232
  34   2.0000      -0.707279       -19.2460
  35   2.0000      -0.700432       -19.0597
  36   2.0000      -0.695851       -18.9351
  37   2.0000      -0.658207       -17.9107
  38   2.0000      -0.641060       -17.4441
  39   2.0000      -0.620723       -16.8907
  40   2.0000      -0.594418       -16.1749
  41   2.0000      -0.566238       -15.4081
  42   2.0000      -0.563339       -15.3292
  43   2.0000      -0.552101       -15.0234
  44   2.0000      -0.539462       -14.6795
  45   2.0000      -0.518977       -14.1221
  46   2.0000      -0.516997       -14.0682
  47   2.0000      -0.514229       -13.9929
  48   2.0000      -0.502834       -13.6828
  49   2.0000      -0.501147       -13.6369
  50   2.0000      -0.491649       -13.3785
  51   2.0000      -0.481840       -13.1115
  52   2.0000      -0.468225       -12.7411
  53   2.0000      -0.466080       -12.6827
  54   2.0000      -0.458646       -12.4804
  55   2.0000      -0.450312       -12.2536
  56   2.0000      -0.439498       -11.9593
  57   2.0000      -0.430963       -11.7271
  58   2.0000      -0.428868       -11.6701
  59   2.0000      -0.427238       -11.6257
  60   2.0000      -0.422207       -11.4888
  61   2.0000      -0.415244       -11.2994
  62   2.0000      -0.409905       -11.1541
  63   2.0000      -0.352528        -9.5928
  64   2.0000      -0.328068        -8.9272
  65   2.0000      -0.326436        -8.8828
  66   2.0000      -0.296766        -8.0754
  67   0.0000       0.029450         0.8014
  68   0.0000       0.071055         1.9335
  69   0.0000       0.109494         2.9795
  70   0.0000       0.118519         3.2251
  71   0.0000       0.133818         3.6414

MULLIKEN ATOMIC CHARGES
-----------------------
   0 S :    0.096879
   1 C :   -0.086054
   2 C :   -0.135568
   3 C :    0.061293
   4 C :   -0.165897
   5 H :   -0.004206
   6 C :    0.092006
   7 H :    0.022791
   8 H :    0.017502
   9 C :   -0.085399
  10 H :    0.028559
  11 H :    0.038253
  12 C :   -0.036844
  13 H :    0.026653
  14 H :    0.034087
  15 H :    0.017154
  16 S :    0.100228
  17 C :   -0.100452
  18 C :   -0.051146
  19 C :   -0.081909
  20 C :   -0.131767
  21 H :    0.035278
  22 C :    0.129011
  23 H :    0.018131
  24 H :    0.008183
  25 C :   -0.056870
  26 H :    0.034621
  27 H :    0.021260
  28 C :   -0.094857
  29 H :    0.037277
  30 H :    0.050988
  31 H :    0.052489
  32 H :    0.037482
  33 H :    0.070844
Sum of atomic charges:   -0.0000000

LOEWDIN ATOMIC CHARGES
----------------------
   0 S :    0.392520
   1 C :   -0.191372
   2 C :   -0.059018
   3 C :   -0.062761
   4 C :   -0.185623
   5 H :    0.020470
   6 C :   -0.027906
   7 H :    0.029504
   8 H :    0.026235
   9 C :   -0.041590
  10 H :    0.025696
  11 H :    0.026821
  12 C :   -0.064768
  13 H :    0.022989
  14 H :    0.030629
  15 H :    0.016558
  16 S :    0.410357
  17 C :   -0.183858
  18 C :   -0.075132
  19 C :   -0.053336
  20 C :   -0.215855
  21 H :    0.037851
  22 C :   -0.024299
  23 H :    0.029041
  24 H :    0.022362
  25 C :   -0.033247
  26 H :    0.028882
  27 H :    0.014166
  28 C :   -0.071601
  29 H :    0.028903
  30 H :    0.030020
  31 H :    0.029682
  32 H :    0.028711
  33 H :    0.038968

  Mayer bond orders larger than 0.100000
B(  0-S ,  1-C ) :   1.1273 B(  0-S ,  4-C ) :   1.1432 B(  1-C ,  2-C ) :   1.6234
B(  1-C , 32-H ) :   0.9697 B(  2-C ,  3-C ) :   1.2279 B(  2-C ,  6-C ) :   1.0319
B(  3-C ,  4-C ) :   1.5877 B(  3-C ,  5-H ) :   0.9949 B(  4-C , 20-C ) :   1.0243
B(  6-C ,  7-H ) :   0.9445 B(  6-C ,  8-H ) :   0.9392 B(  6-C ,  9-C ) :   1.0542
B(  9-C , 10-H ) :   0.9571 B(  9-C , 11-H ) :   0.9641 B(  9-C , 12-C ) :   1.0756
B( 12-C , 13-H ) :   0.9769 B( 12-C , 14-H ) :   0.9747 B( 12-C , 15-H ) :   0.9770
B( 16-S , 17-C ) :   1.1313 B( 16-S , 20-C ) :   1.1582 B( 17-C , 18-C ) :   1.6404
B( 17-C , 33-H ) :   0.9664 B( 18-C , 19-C ) :   1.2260 B( 18-C , 21-H ) :   0.9776
B( 19-C , 20-C ) :   1.5874 B( 19-C , 22-C ) :   1.0392 B( 22-C , 23-H ) :   0.9280
B( 22-C , 24-H ) :   0.9332 B( 22-C , 25-C ) :   1.0692 B( 25-C , 26-H ) :   0.9586
B( 25-C , 27-H ) :   0.9647 B( 25-C , 28-C ) :   1.0528 B( 28-C , 29-H ) :   0.9784
B( 28-C , 30-H ) :   0.9789 B( 28-C , 31-H ) :   0.9781

Dispersion correction           -0.014924525
FINAL SINGLE POINT ENERGY     -1339.884010013160

DIPOLE MOMENT
-------------
                                X             Y             Z
Electronic contribution:    -19.38074      13.40408       2.46566
Nuclear contribution   :     19.67655     -14.04600      -2.60388
                        -----------------------------------------
Total Dipole Moment    :      0.29581      -0.64192      -0.13822
                        -----------------------------------------
Magnitude (a.u.)       :      0.72019
Magnitude (Debye)      :      1.83057

Rotational constants in cm-1:     0.020756     0.007623     0.007134
Rotational constants in MHz :   622.247744   228.529498   213.875992

                             ****ORCA TERMINATED NORMALLY****
TOTAL RUN TIME: 0 days 0 hours 0 minutes 35 seconds 772 msec
