                         Program Version 4.2.1 -  RELEASE  -
|  1> ! wB97X-D3 SP def2-SVP
|  2> %pal
|  3> nprocs 16
|  4> end
|  5>
|  6> * xyz 0 1
|  7> S 	 -38.868 	 63.2145 	 110.471
|  8> C 	 -37.8773 	 62.2985 	 111.617
|  9> C 	 -36.6498 	 62.0322 	 111.145
| 10> C 	 -36.5012 	 62.4335 	 109.756
| 11> C 	 -37.6436 	 63.0043 	 109.194
| 12> H 	 -35.6602 	 62.2744 	 109.088
| 13> C 	 -35.6007 	 61.1839 	 111.87
| 14> H 	 -35.1264 	 60.5186 	 111.118
| 15> H 	 -36.1692 	 60.79 	 112.771
| 16> C 	 -34.5461 	 62.0778 	 112.526
| 17> H 	 -34.8762 	 63.107 	 112.597
| 18> H 	 -34.4179 	 61.6651 	 113.516
| 19> C 	 -33.1203 	 62.0722 	 111.853
| 20> H 	 -32.4528 	 62.9253 	 112.053
| 21> H 	 -32.5652 	 61.1757 	 112.091
| 22> H 	 -33.3405 	 61.9411 	 110.751
| 23> S 	 -36.6548 	 63.898 	 106.779
| 24> C 	 -37.657 	 63.7545 	 105.399
| 25> C 	 -38.8844 	 63.2134 	 105.616
| 26> C 	 -39.0818 	 62.8481 	 106.964
| 27> C 	 -37.9375 	 63.1719 	 107.761
| 28> H 	 -39.6398 	 63.1302 	 104.855
| 29> C 	 -40.2708 	 62.0595 	 107.394
| 30> H 	 -39.9954 	 61.3711 	 108.158
| 31> H 	 -40.5514 	 61.4711 	 106.552
| 32> C 	 -41.4473 	 62.9863 	 107.685
| 33> H 	 -41.1859 	 63.6566 	 108.549
| 34> H 	 -42.2219 	 62.5155 	 108.248
| 35> C 	 -41.9925 	 63.6623 	 106.53
| 36> H 	 -42.6631 	 63.0256 	 105.931
| 37> H 	 -41.2591 	 64.0916 	 105.858
| 38> H 	 -42.6796 	 64.5399 	 106.808
| 39> H 	 -38.2678 	 62.0307 	 112.572
| 40> H 	 -37.3449 	 64.0803 	 104.427
| 41> *
| 42>
| 43>                          ****END OF INPUT****

CARTESIAN COORDINATES (ANGSTROEM)
---------------------------------
  S    -38.868000   63.214500  110.471000
  C    -37.877300   62.298500  111.617000
  C    -36.649800   62.032200  111.145000
  C    -36.501200   62.433500  109.756000
  C    -37.643600   63.004300  109.194000
  H    -35.660200   62.274400  109.088000
  C    -35.600700   61.183900  111.870000
  H    -35.126400   60.518600  111.118000
  H    -36.169200   60.790000  112.771000
  C    -34.546100   62.077800  112.526000
  H    -34.876200   63.107000  112.597000
  H    -34.417900   61.665100  113.516000
  C    -33.120300   62.072200  111.853000
  H    -32.452800   62.925300  112.053000
  H    -32.565200   61.175700  112.091000
  H    -33.340500   61.941100  110.751000
  S    -36.654800   63.898000  106.779000
  C    -37.657000   63.754500  105.399000
  C    -38.884400   63.213400  105.616000
  C    -39.081800   62.848100  106.964000
  C    -37.937500   63.171900  107.761000
  H    -39.639800   63.130200  104.855000
  C    -40.270800   62.059500  107.394000
  H    -39.995400   61.371100  108.158000
  H    -40.551400   61.471100  106.552000
  C    -41.447300   62.986300  107.685000
  H    -41.185900   63.656600  108.549000
  H    -42.221900   62.515500  108.248000
  C    -41.992500   63.662300  106.530000
  H    -42.663100   63.025600  105.931000
  H    -41.259100   64.091600  105.858000
  H    -42.679600   64.539900  106.808000
  H    -38.267800   62.030700  112.572000
  H    -37.344900   64.080300  104.427000

 Total Charge           Charge          ....    0
 Multiplicity           Mult            ....    1
 Number of Electrons    NEL             ....  134
 Basis Dimension        Dim             ....  322

ORBITAL ENERGIES
----------------

  NO   OCC          E(Eh)            E(eV)
   0   2.0000     -88.968891     -2420.9666
   1   2.0000     -88.962782     -2420.8004
   2   2.0000     -10.333768      -281.1961
   3   2.0000     -10.331338      -281.1300
   4   2.0000     -10.311809      -280.5986
   5   2.0000     -10.310179      -280.5542
   6   2.0000     -10.303507      -280.3727
   7   2.0000     -10.301608      -280.3210
   8   2.0000     -10.300893      -280.3016
   9   2.0000     -10.296522      -280.1826
  10   2.0000     -10.288865      -279.9743
  11   2.0000     -10.284070      -279.8438
  12   2.0000     -10.283518      -279.8288
  13   2.0000     -10.282050      -279.7888
  14   2.0000     -10.276757      -279.6448
  15   2.0000     -10.276354      -279.6338
  16   2.0000      -8.083838      -219.9724
  17   2.0000      -8.076652      -219.7769
  18   2.0000      -6.042199      -164.4166
  19   2.0000      -6.038375      -164.3125
  20   2.0000      -6.035364      -164.2306
  21   2.0000      -6.034714      -164.2129
  22   2.0000      -6.031291      -164.1198
  23   2.0000      -6.027249      -164.0098
  24   2.0000      -1.004098       -27.3229
  25   2.0000      -0.983979       -26.7754
  26   2.0000      -0.921038       -25.0627
  27   2.0000      -0.909439       -24.7471
  28   2.0000      -0.868376       -23.6297
  29   2.0000      -0.855130       -23.2693
  30   2.0000      -0.838732       -22.8230
  31   2.0000      -0.814824       -22.1725
  32   2.0000      -0.785146       -21.3649
  33   2.0000      -0.770959       -20.9789
  34   2.0000      -0.708947       -19.2914
  35   2.0000      -0.696519       -18.9532
  36   2.0000      -0.692097       -18.8329
  37   2.0000      -0.666209       -18.1285
  38   2.0000      -0.639853       -17.4113
  39   2.0000      -0.611847       -16.6492
  40   2.0000      -0.599982       -16.3264
  41   2.0000      -0.571117       -15.5409
  42   2.0000      -0.561241       -15.2722
  43   2.0000      -0.554296       -15.0832
  44   2.0000      -0.546694       -14.8763
  45   2.0000      -0.528603       -14.3840
  46   2.0000      -0.516928       -14.0663
  47   2.0000      -0.514035       -13.9876
  48   2.0000      -0.499787       -13.5999
  49   2.0000      -0.494329       -13.4514
  50   2.0000      -0.488929       -13.3044
  51   2.0000      -0.483004       -13.1432
  52   2.0000      -0.478659       -13.0250
  53   2.0000      -0.466528       -12.6949
  54   2.0000      -0.460873       -12.5410
  55   2.0000      -0.450873       -12.2689
  56   2.0000      -0.442996       -12.0545
  57   2.0000      -0.432979       -11.7820
  58   2.0000      -0.432446       -11.7675
  59   2.0000      -0.426509       -11.6059
  60   2.0000      -0.420458       -11.4412
  61   2.0000      -0.408564       -11.1176
  62   2.0000      -0.395552       -10.7635
  63   2.0000      -0.350853        -9.5472
  64   2.0000      -0.335254        -9.1227
  65   2.0000      -0.327216        -8.9040
  66   2.0000      -0.286102        -7.7852
  67   0.0000       0.024310         0.6615
  68   0.0000       0.080877         2.2008
  69   0.0000       0.107305         2.9199
  70   0.0000       0.112153         3.0518
  71   0.0000       0.129017         3.5107

MULLIKEN ATOMIC CHARGES
-----------------------
   0 S :    0.086640
   1 C :   -0.135604
   2 C :   -0.059437
   3 C :    0.010949
   4 C :   -0.130802
   5 H :    0.013955
   6 C :    0.044027
   7 H :    0.050158
   8 H :    0.036135
   9 C :   -0.058967
  10 H :    0.043421
  11 H :    0.027087
  12 C :   -0.087869
  13 H :    0.052114
  14 H :    0.029851
  15 H :    0.027907
  16 S :    0.114380
  17 C :   -0.067163
  18 C :   -0.032668
  19 C :   -0.060920
  20 C :   -0.174529
  21 H :    0.018145
  22 C :    0.111413
  23 H :    0.026187
  24 H :    0.010109
  25 C :   -0.031305
  26 H :    0.017530
  27 H :    0.008963
  28 C :   -0.066917
  29 H :    0.026910
  30 H :    0.031063
  31 H :    0.039012
  32 H :    0.037668
  33 H :    0.042558
Sum of atomic charges:   -0.0000000

LOEWDIN ATOMIC CHARGES
----------------------
   0 S :    0.377864
   1 C :   -0.184942
   2 C :   -0.064802
   3 C :   -0.068691
   4 C :   -0.180423
   5 H :    0.025602
   6 C :   -0.028625
   7 H :    0.037645
   8 H :    0.044240
   9 C :   -0.042545
  10 H :    0.026496
  11 H :    0.021031
  12 C :   -0.074137
  13 H :    0.030310
  14 H :    0.021206
  15 H :    0.026112
  16 S :    0.420215
  17 C :   -0.188143
  18 C :   -0.074429
  19 C :   -0.044314
  20 C :   -0.195503
  21 H :    0.030476
  22 C :   -0.025256
  23 H :    0.029344
  24 H :    0.027911
  25 C :   -0.052959
  26 H :    0.024500
  27 H :    0.022467
  28 C :   -0.072229
  29 H :    0.025432
  30 H :    0.022508
  31 H :    0.039144
  32 H :    0.021212
  33 H :    0.023281

  Mayer bond orders larger than 0.100000
B(  0-S ,  1-C ) :   1.1159 B(  0-S ,  4-C ) :   1.1290 B(  1-C ,  2-C ) :   1.6548
B(  1-C , 32-H ) :   0.9683 B(  2-C ,  3-C ) :   1.1996 B(  2-C ,  6-C ) :   1.0256
B(  3-C ,  4-C ) :   1.6039 B(  3-C ,  5-H ) :   0.9853 B(  4-C , 20-C ) :   1.0440
B(  6-C ,  7-H ) :   0.9516 B(  6-C ,  8-H ) :   0.9442 B(  6-C ,  9-C ) :   1.0368
B(  9-C , 10-H ) :   0.9635 B(  9-C , 11-H ) :   0.9639 B(  9-C , 12-C ) :   1.0643
B( 12-C , 13-H ) :   0.9779 B( 12-C , 14-H ) :   0.9778 B( 12-C , 15-H ) :   0.9784
B( 16-S , 17-C ) :   1.1671 B( 16-S , 20-C ) :   1.1497 B( 17-C , 18-C ) :   1.5966
B( 17-C , 33-H ) :   0.9644 B( 18-C , 19-C ) :   1.2663 B( 18-C , 21-H ) :   0.9848
B( 19-C , 20-C ) :   1.5563 B( 19-C , 22-C ) :   1.0346 B( 22-C , 23-H ) :   0.9302
B( 22-C , 24-H ) :   0.9352 B( 22-C , 25-C ) :   1.0668 B( 25-C , 26-H ) :   0.9451
B( 25-C , 27-H ) :   0.9444 B( 25-C , 28-C ) :   1.0873 B( 28-C , 29-H ) :   0.9696
B( 28-C , 30-H ) :   0.9702 B( 28-C , 31-H ) :   0.9644

Dispersion correction           -0.014523237
FINAL SINGLE POINT ENERGY     -1339.866908207965

DIPOLE MOMENT
-------------
                                X             Y             Z
Electronic contribution:      0.16606       6.28557      -5.61847
Nuclear contribution   :     -0.17531      -6.66515       5.62674
                        -----------------------------------------
Total Dipole Moment    :     -0.00925      -0.37958       0.00826
                        -----------------------------------------
Magnitude (a.u.)       :      0.37978
Magnitude (Debye)      :      0.96534

Rotational constants in cm-1:     0.024612     0.007780     0.006241
Rotational constants in MHz :   737.861898   233.251562   187.086248

                             ****ORCA TERMINATED NORMALLY****
TOTAL RUN TIME: 0 days 0 hours 0 minutes 29 seconds 885 msec
