                         Program Version 4.2.1 -  RELEASE  -
|  1> ! wB97X-D3 SP def2-SVP
|  2> %pal
|  3> nprocs 16
|  4> end
|  5>
|  6> * xyz 0 1
|  7> S 	 60.7316 	 5.53562 	 77.7077
|  8> C 	 60.9672 	 6.73291 	 78.934
|  9> C 	 60.51 	 7.93889 	 78.4934
| 10> C 	 60.0175 	 7.88659 	 77.1189
| 11> C 	 60.1463 	 6.62983 	 76.5353
| 12> H 	 59.5923 	 8.67252 	 76.5139
| 13> C 	 60.307 	 9.17378 	 79.2537
| 14> H 	 60.5967 	 10.062 	 78.6346
| 15> H 	 61.0687 	 9.08943 	 80.0206
| 16> C 	 58.9258 	 9.36539 	 79.8675
| 17> H 	 58.2954 	 9.68061 	 79.0287
| 18> H 	 58.6616 	 8.39349 	 80.3009
| 19> C 	 58.9524 	 10.3917 	 81.0624
| 20> H 	 59.3527 	 11.3008 	 80.7395
| 21> H 	 57.9945 	 10.5367 	 81.575
| 22> H 	 59.6731 	 9.9312 	 81.6919
| 23> S 	 58.3219 	 5.15387 	 75.0918
| 24> C 	 58.5491 	 5.18479 	 73.3625
| 25> C 	 59.6306 	 5.9489 	 72.9002
| 26> C 	 60.2386 	 6.59216 	 73.9871
| 27> C 	 59.7234 	 6.19759 	 75.2534
| 28> H 	 59.825 	 6.22099 	 71.8367
| 29> C 	 61.3584 	 7.61379 	 73.7861
| 30> H 	 61.151 	 8.51619 	 74.304
| 31> H 	 61.6276 	 7.73728 	 72.6934
| 32> C 	 62.7214 	 7.00754 	 74.1789
| 33> H 	 62.9638 	 6.20179 	 73.5912
| 34> H 	 62.6892 	 6.56917 	 75.2111
| 35> C 	 63.8611 	 8.06042 	 74.1556
| 36> H 	 63.6557 	 8.87254 	 74.8609
| 37> H 	 63.9703 	 8.48998 	 73.1332
| 38> H 	 64.8183 	 7.59604 	 74.3572
| 39> H 	 61.5001 	 6.47387 	 79.8313
| 40> H 	 57.758 	 4.71843 	 72.7479
| 41> *
| 42>
| 43>                          ****END OF INPUT****

CARTESIAN COORDINATES (ANGSTROEM)
---------------------------------
  S     60.731600    5.535620   77.707700
  C     60.967200    6.732910   78.934000
  C     60.510000    7.938890   78.493400
  C     60.017500    7.886590   77.118900
  C     60.146300    6.629830   76.535300
  H     59.592300    8.672520   76.513900
  C     60.307000    9.173780   79.253700
  H     60.596700   10.062000   78.634600
  H     61.068700    9.089430   80.020600
  C     58.925800    9.365390   79.867500
  H     58.295400    9.680610   79.028700
  H     58.661600    8.393490   80.300900
  C     58.952400   10.391700   81.062400
  H     59.352700   11.300800   80.739500
  H     57.994500   10.536700   81.575000
  H     59.673100    9.931200   81.691900
  S     58.321900    5.153870   75.091800
  C     58.549100    5.184790   73.362500
  C     59.630600    5.948900   72.900200
  C     60.238600    6.592160   73.987100
  C     59.723400    6.197590   75.253400
  H     59.825000    6.220990   71.836700
  C     61.358400    7.613790   73.786100
  H     61.151000    8.516190   74.304000
  H     61.627600    7.737280   72.693400
  C     62.721400    7.007540   74.178900
  H     62.963800    6.201790   73.591200
  H     62.689200    6.569170   75.211100
  C     63.861100    8.060420   74.155600
  H     63.655700    8.872540   74.860900
  H     63.970300    8.489980   73.133200
  H     64.818300    7.596040   74.357200
  H     61.500100    6.473870   79.831300
  H     57.758000    4.718430   72.747900

 Total Charge           Charge          ....    0
 Multiplicity           Mult            ....    1
 Number of Electrons    NEL             ....  134
 Basis Dimension        Dim             ....  322

ORBITAL ENERGIES
----------------

  NO   OCC          E(Eh)            E(eV)
   0   2.0000     -88.972056     -2421.0527
   1   2.0000     -88.959735     -2420.7175
   2   2.0000     -10.322775      -280.8970
   3   2.0000     -10.322457      -280.8883
   4   2.0000     -10.321164      -280.8531
   5   2.0000     -10.311628      -280.5937
   6   2.0000     -10.304738      -280.4062
   7   2.0000     -10.299313      -280.2586
   8   2.0000     -10.299163      -280.2545
   9   2.0000     -10.292403      -280.0705
  10   2.0000     -10.291707      -280.0516
  11   2.0000     -10.288481      -279.9638
  12   2.0000     -10.286928      -279.9216
  13   2.0000     -10.276381      -279.6345
  14   2.0000     -10.276311      -279.6326
  15   2.0000     -10.274411      -279.5809
  16   2.0000      -8.086577      -220.0469
  17   2.0000      -8.075927      -219.7571
  18   2.0000      -6.044810      -164.4876
  19   2.0000      -6.041175      -164.3887
  20   2.0000      -6.037588      -164.2911
  21   2.0000      -6.034377      -164.2037
  22   2.0000      -6.030014      -164.0850
  23   2.0000      -6.026865      -163.9993
  24   2.0000      -1.010740       -27.5036
  25   2.0000      -0.986080       -26.8326
  26   2.0000      -0.917428       -24.9645
  27   2.0000      -0.906839       -24.6763
  28   2.0000      -0.872751       -23.7488
  29   2.0000      -0.850878       -23.1536
  30   2.0000      -0.846107       -23.0237
  31   2.0000      -0.809268       -22.0213
  32   2.0000      -0.781847       -21.2751
  33   2.0000      -0.768152       -20.9025
  34   2.0000      -0.706626       -19.2283
  35   2.0000      -0.698742       -19.0137
  36   2.0000      -0.689352       -18.7582
  37   2.0000      -0.662148       -18.0180
  38   2.0000      -0.648788       -17.6544
  39   2.0000      -0.615498       -16.7485
  40   2.0000      -0.597652       -16.2629
  41   2.0000      -0.576991       -15.7007
  42   2.0000      -0.567735       -15.4489
  43   2.0000      -0.556756       -15.1501
  44   2.0000      -0.524594       -14.2749
  45   2.0000      -0.522271       -14.2117
  46   2.0000      -0.515867       -14.0375
  47   2.0000      -0.513344       -13.9688
  48   2.0000      -0.503668       -13.7055
  49   2.0000      -0.499384       -13.5889
  50   2.0000      -0.494679       -13.4609
  51   2.0000      -0.477618       -12.9966
  52   2.0000      -0.472925       -12.8689
  53   2.0000      -0.464504       -12.6398
  54   2.0000      -0.454676       -12.3724
  55   2.0000      -0.450372       -12.2553
  56   2.0000      -0.445859       -12.1325
  57   2.0000      -0.441668       -12.0184
  58   2.0000      -0.432725       -11.7750
  59   2.0000      -0.425111       -11.5679
  60   2.0000      -0.420650       -11.4465
  61   2.0000      -0.414604       -11.2820
  62   2.0000      -0.405335       -11.0297
  63   2.0000      -0.342425        -9.3179
  64   2.0000      -0.333026        -9.0621
  65   2.0000      -0.324080        -8.8187
  66   2.0000      -0.293044        -7.9741
  67   0.0000       0.036291         0.9875
  68   0.0000       0.058544         1.5931
  69   0.0000       0.110645         3.0108
  70   0.0000       0.121254         3.2995
  71   0.0000       0.129971         3.5367

MULLIKEN ATOMIC CHARGES
-----------------------
   0 S :    0.107276
   1 C :   -0.133342
   2 C :   -0.072083
   3 C :    0.038088
   4 C :   -0.188926
   5 H :    0.009090
   6 C :    0.038895
   7 H :    0.031405
   8 H :    0.003475
   9 C :   -0.062506
  10 H :    0.034547
  11 H :    0.032858
  12 C :   -0.011670
  13 H :    0.015795
  14 H :    0.047321
  15 H :    0.017310
  16 S :    0.137153
  17 C :   -0.117148
  18 C :   -0.027856
  19 C :   -0.030774
  20 C :   -0.173421
  21 H :    0.040886
  22 C :    0.087605
  23 H :    0.022171
  24 H :    0.025685
  25 C :   -0.087252
  26 H :    0.007547
  27 H :    0.036137
  28 C :   -0.039860
  29 H :    0.037140
  30 H :    0.021605
  31 H :    0.032520
  32 H :    0.050938
  33 H :    0.069388
Sum of atomic charges:   -0.0000000

LOEWDIN ATOMIC CHARGES
----------------------
   0 S :    0.428695
   1 C :   -0.202084
   2 C :   -0.064665
   3 C :   -0.062874
   4 C :   -0.213682
   5 H :    0.028390
   6 C :   -0.042629
   7 H :    0.033727
   8 H :    0.023758
   9 C :   -0.031007
  10 H :    0.023407
  11 H :    0.026382
  12 C :   -0.054450
  13 H :    0.015005
  14 H :    0.030027
  15 H :    0.021530
  16 S :    0.424075
  17 C :   -0.185968
  18 C :   -0.077493
  19 C :   -0.043849
  20 C :   -0.219499
  21 H :    0.043623
  22 C :   -0.027362
  23 H :    0.023488
  24 H :    0.039614
  25 C :   -0.035819
  26 H :    0.010012
  27 H :    0.024508
  28 C :   -0.065308
  29 H :    0.025790
  30 H :    0.022693
  31 H :    0.024927
  32 H :    0.028094
  33 H :    0.028942

  Mayer bond orders larger than 0.100000
B(  0-S ,  1-C ) :   1.1399 B(  0-S ,  4-C ) :   1.1660 B(  1-C ,  2-C ) :   1.5895
B(  1-C , 32-H ) :   0.9787 B(  2-C ,  3-C ) :   1.2178 B(  2-C ,  6-C ) :   1.0487
B(  3-C ,  4-C ) :   1.5729 B(  3-C ,  5-H ) :   0.9965 B(  4-C , 20-C ) :   1.0469
B(  6-C ,  7-H ) :   0.9309 B(  6-C ,  8-H ) :   0.9327 B(  6-C ,  9-C ) :   1.0582
B(  9-C , 10-H ) :   0.9541 B(  9-C , 11-H ) :   0.9592 B(  9-C , 12-C ) :   1.0696
B( 12-C , 13-H ) :   0.9766 B( 12-C , 14-H ) :   0.9770 B( 12-C , 15-H ) :   0.9771
B( 16-S , 17-C ) :   1.1869 B( 16-S , 20-C ) :   1.1557 B( 17-C , 18-C ) :   1.5549
B( 17-C , 20-C ) :   0.1169 B( 17-C , 33-H ) :   0.9624 B( 18-C , 19-C ) :   1.3045
B( 18-C , 21-H ) :   0.9787 B( 19-C , 20-C ) :   1.5445 B( 19-C , 22-C ) :   1.0462
B( 22-C , 23-H ) :   0.9345 B( 22-C , 24-H ) :   0.9404 B( 22-C , 25-C ) :   1.0482
B( 25-C , 26-H ) :   0.9567 B( 25-C , 27-H ) :   0.9557 B( 25-C , 28-C ) :   1.0835
B( 28-C , 29-H ) :   0.9771 B( 28-C , 30-H ) :   0.9722 B( 28-C , 31-H ) :   0.9738

Dispersion correction           -0.014406324
FINAL SINGLE POINT ENERGY     -1339.874425632258

DIPOLE MOMENT
-------------
                                X             Y             Z
Electronic contribution:    -10.46263     -21.37881      -5.75563
Nuclear contribution   :     10.52253      21.87564       5.68620
                        -----------------------------------------
Total Dipole Moment    :      0.05990       0.49683      -0.06943
                        -----------------------------------------
Magnitude (a.u.)       :      0.50522
Magnitude (Debye)      :      1.28417

Rotational constants in cm-1:     0.018971     0.008264     0.006970
Rotational constants in MHz :   568.743952   247.759059   208.960780

                             ****ORCA TERMINATED NORMALLY****
TOTAL RUN TIME: 0 days 0 hours 0 minutes 32 seconds 72 msec
