                         Program Version 4.2.1 -  RELEASE  -
|  1> ! wB97X-D3 SP def2-SVP
|  2> %pal
|  3> nprocs 16
|  4> end
|  5>
|  6> * xyz 0 1
|  7> S 	 7.5245 	 -10.9685 	 68.7388
|  8> C 	 8.66269 	 -9.72888 	 69.1502
|  9> C 	 8.1529 	 -8.46719 	 69.1941
| 10> C 	 6.78644 	 -8.49468 	 68.8115
| 11> C 	 6.30955 	 -9.74555 	 68.4903
| 12> H 	 6.0482 	 -7.73174 	 68.8188
| 13> C 	 8.91664 	 -7.2291 	 69.4856
| 14> H 	 9.85978 	 -7.40292 	 70.0042
| 15> H 	 8.41633 	 -6.74606 	 70.3161
| 16> C 	 9.00668 	 -6.21366 	 68.2312
| 17> H 	 8.00786 	 -5.81406 	 67.9539
| 18> H 	 9.54364 	 -5.30924 	 68.6603
| 19> C 	 9.71873 	 -6.83654 	 67.0825
| 20> H 	 9.04167 	 -7.64767 	 66.6352
| 21> H 	 9.91397 	 -6.0673 	 66.2839
| 22> H 	 10.6401 	 -7.36574 	 67.2979
| 23> S 	 4.77673 	 -10.582 	 66.4956
| 24> C 	 3.09248 	 -10.8375 	 66.792
| 25> C 	 2.65637 	 -10.5202 	 68.0826
| 26> C 	 3.77982 	 -9.98677 	 68.8217
| 27> C 	 4.97479 	 -10.0592 	 68.1027
| 28> H 	 1.5902 	 -10.6959 	 68.3667
| 29> C 	 3.66572 	 -9.62531 	 70.2818
| 30> H 	 2.83281 	 -9.03121 	 70.5076
| 31> H 	 4.60826 	 -9.05888 	 70.5908
| 32> C 	 3.50457 	 -10.763 	 71.3008
| 33> H 	 2.62388 	 -11.2666 	 70.9638
| 34> H 	 3.15723 	 -10.4214 	 72.3306
| 35> C 	 4.76027 	 -11.6188 	 71.5651
| 36> H 	 4.5128 	 -12.3349 	 72.3963
| 37> H 	 5.52812 	 -10.8557 	 71.86
| 38> H 	 5.06001 	 -12.1728 	 70.7011
| 39> H 	 9.67544 	 -9.84945 	 69.3901
| 40> H 	 2.46911 	 -11.3335 	 66.1099
| 41> *
| 42>
| 43>                          ****END OF INPUT****

CARTESIAN COORDINATES (ANGSTROEM)
---------------------------------
  S      7.524500  -10.968500   68.738800
  C      8.662690   -9.728880   69.150200
  C      8.152900   -8.467190   69.194100
  C      6.786440   -8.494680   68.811500
  C      6.309550   -9.745550   68.490300
  H      6.048200   -7.731740   68.818800
  C      8.916640   -7.229100   69.485600
  H      9.859780   -7.402920   70.004200
  H      8.416330   -6.746060   70.316100
  C      9.006680   -6.213660   68.231200
  H      8.007860   -5.814060   67.953900
  H      9.543640   -5.309240   68.660300
  C      9.718730   -6.836540   67.082500
  H      9.041670   -7.647670   66.635200
  H      9.913970   -6.067300   66.283900
  H     10.640100   -7.365740   67.297900
  S      4.776730  -10.582000   66.495600
  C      3.092480  -10.837500   66.792000
  C      2.656370  -10.520200   68.082600
  C      3.779820   -9.986770   68.821700
  C      4.974790  -10.059200   68.102700
  H      1.590200  -10.695900   68.366700
  C      3.665720   -9.625310   70.281800
  H      2.832810   -9.031210   70.507600
  H      4.608260   -9.058880   70.590800
  C      3.504570  -10.763000   71.300800
  H      2.623880  -11.266600   70.963800
  H      3.157230  -10.421400   72.330600
  C      4.760270  -11.618800   71.565100
  H      4.512800  -12.334900   72.396300
  H      5.528120  -10.855700   71.860000
  H      5.060010  -12.172800   70.701100
  H      9.675440   -9.849450   69.390100
  H      2.469110  -11.333500   66.109900

 Total Charge           Charge          ....    0
 Multiplicity           Mult            ....    1
 Number of Electrons    NEL             ....  134
 Basis Dimension        Dim             ....  322

ORBITAL ENERGIES
----------------

  NO   OCC          E(Eh)            E(eV)
   0   2.0000     -88.967433     -2420.9269
   1   2.0000     -88.966489     -2420.9013
   2   2.0000     -10.320298      -280.8296
   3   2.0000     -10.318319      -280.7757
   4   2.0000     -10.312437      -280.6157
   5   2.0000     -10.306421      -280.4520
   6   2.0000     -10.303890      -280.3831
   7   2.0000     -10.301696      -280.3234
   8   2.0000     -10.298281      -280.2305
   9   2.0000     -10.294682      -280.1325
  10   2.0000     -10.293580      -280.1026
  11   2.0000     -10.287476      -279.9365
  12   2.0000     -10.286344      -279.9056
  13   2.0000     -10.283185      -279.8197
  14   2.0000     -10.281146      -279.7642
  15   2.0000     -10.275601      -279.6133
  16   2.0000      -8.083539      -219.9643
  17   2.0000      -8.081522      -219.9094
  18   2.0000      -6.041751      -164.4044
  19   2.0000      -6.039942      -164.3552
  20   2.0000      -6.037904      -164.2997
  21   2.0000      -6.036080      -164.2501
  22   2.0000      -6.034476      -164.2064
  23   2.0000      -6.032265      -164.1463
  24   2.0000      -1.014258       -27.5994
  25   2.0000      -0.988828       -26.9074
  26   2.0000      -0.909460       -24.7477
  27   2.0000      -0.906386       -24.6640
  28   2.0000      -0.872235       -23.7347
  29   2.0000      -0.850133       -23.1333
  30   2.0000      -0.846549       -23.0358
  31   2.0000      -0.814071       -22.1520
  32   2.0000      -0.783838       -21.3293
  33   2.0000      -0.771457       -20.9924
  34   2.0000      -0.708176       -19.2705
  35   2.0000      -0.692526       -18.8446
  36   2.0000      -0.689570       -18.7641
  37   2.0000      -0.658553       -17.9201
  38   2.0000      -0.646442       -17.5906
  39   2.0000      -0.619573       -16.8594
  40   2.0000      -0.595441       -16.2028
  41   2.0000      -0.568246       -15.4628
  42   2.0000      -0.549487       -14.9523
  43   2.0000      -0.547364       -14.8945
  44   2.0000      -0.541777       -14.7425
  45   2.0000      -0.533501       -14.5173
  46   2.0000      -0.516973       -14.0676
  47   2.0000      -0.508207       -13.8290
  48   2.0000      -0.499007       -13.5787
  49   2.0000      -0.496294       -13.5048
  50   2.0000      -0.489922       -13.3315
  51   2.0000      -0.482725       -13.1356
  52   2.0000      -0.469045       -12.7634
  53   2.0000      -0.463029       -12.5997
  54   2.0000      -0.455637       -12.3985
  55   2.0000      -0.450248       -12.2519
  56   2.0000      -0.444751       -12.1023
  57   2.0000      -0.431883       -11.7521
  58   2.0000      -0.430188       -11.7060
  59   2.0000      -0.426573       -11.6077
  60   2.0000      -0.422299       -11.4914
  61   2.0000      -0.411504       -11.1976
  62   2.0000      -0.405274       -11.0281
  63   2.0000      -0.339344        -9.2340
  64   2.0000      -0.329473        -8.9654
  65   2.0000      -0.327980        -8.9248
  66   2.0000      -0.299655        -8.1540
  67   0.0000       0.040831         1.1111
  68   0.0000       0.066144         1.7999
  69   0.0000       0.115604         3.1457
  70   0.0000       0.118666         3.2291
  71   0.0000       0.125213         3.4072

MULLIKEN ATOMIC CHARGES
-----------------------
   0 S :    0.129504
   1 C :   -0.088091
   2 C :   -0.079380
   3 C :    0.058496
   4 C :   -0.192493
   5 H :   -0.003454
   6 C :    0.069809
   7 H :    0.013927
   8 H :    0.021967
   9 C :   -0.088242
  10 H :    0.041648
  11 H :    0.036616
  12 C :   -0.066130
  13 H :    0.054071
  14 H :    0.045128
  15 H :    0.031278
  16 S :    0.137866
  17 C :   -0.079679
  18 C :   -0.061635
  19 C :    0.007589
  20 C :   -0.197114
  21 H :    0.044382
  22 C :    0.073893
  23 H :    0.011928
  24 H :    0.025233
  25 C :   -0.102976
  26 H :    0.007562
  27 H :    0.026969
  28 C :   -0.046108
  29 H :    0.042272
  30 H :    0.041368
  31 H :    0.036130
  32 H :    0.012298
  33 H :    0.035368
Sum of atomic charges:    0.0000000

LOEWDIN ATOMIC CHARGES
----------------------
   0 S :    0.417352
   1 C :   -0.193237
   2 C :   -0.067912
   3 C :   -0.051229
   4 C :   -0.205236
   5 H :    0.025656
   6 C :   -0.036626
   7 H :    0.029736
   8 H :    0.032664
   9 C :   -0.041471
  10 H :    0.028108
  11 H :    0.028176
  12 C :   -0.078234
  13 H :    0.038985
  14 H :    0.032727
  15 H :    0.022946
  16 S :    0.445165
  17 C :   -0.185239
  18 C :   -0.070381
  19 C :   -0.051001
  20 C :   -0.225070
  21 H :    0.043696
  22 C :   -0.037154
  23 H :    0.025310
  24 H :    0.033186
  25 C :   -0.046400
  26 H :    0.011918
  27 H :    0.028193
  28 C :   -0.066693
  29 H :    0.032126
  30 H :    0.032753
  31 H :    0.016998
  32 H :    0.016106
  33 H :    0.014082

  Mayer bond orders larger than 0.100000
B(  0-S ,  1-C ) :   1.1351 B(  0-S ,  4-C ) :   1.1469 B(  1-C ,  2-C ) :   1.6288
B(  1-C , 32-H ) :   0.9658 B(  2-C ,  3-C ) :   1.2057 B(  2-C ,  6-C ) :   1.0367
B(  3-C ,  4-C ) :   1.6025 B(  3-C ,  5-H ) :   1.0020 B(  4-C , 20-C ) :   1.0255
B(  6-C ,  7-H ) :   0.9394 B(  6-C ,  8-H ) :   0.9288 B(  6-C ,  9-C ) :   1.0559
B(  9-C , 10-H ) :   0.9557 B(  9-C , 11-H ) :   0.9565 B(  9-C , 12-C ) :   1.0735
B( 12-C , 13-H ) :   0.9676 B( 12-C , 14-H ) :   0.9713 B( 12-C , 15-H ) :   0.9760
B( 16-S , 17-C ) :   1.1682 B( 16-S , 20-C ) :   1.1714 B( 17-C , 18-C ) :   1.6143
B( 17-C , 33-H ) :   0.9706 B( 18-C , 19-C ) :   1.2197 B( 18-C , 21-H ) :   0.9844
B( 19-C , 20-C ) :   1.5834 B( 19-C , 22-C ) :   1.0593 B( 22-C , 23-H ) :   0.9242
B( 22-C , 24-H ) :   0.9319 B( 22-C , 25-C ) :   1.0767 B( 25-C , 26-H ) :   0.9506
B( 25-C , 27-H ) :   0.9560 B( 25-C , 28-C ) :   1.0687 B( 28-C , 29-H ) :   0.9739
B( 28-C , 30-H ) :   0.9727 B( 28-C , 31-H ) :   0.9784

Dispersion correction           -0.015827519
FINAL SINGLE POINT ENERGY     -1339.877902144580

DIPOLE MOMENT
-------------
                                X             Y             Z
Electronic contribution:     -4.28654     -11.53560     -12.49883
Nuclear contribution   :      4.16521      11.86241      12.78546
                        -----------------------------------------
Total Dipole Moment    :     -0.12133       0.32681       0.28663
                        -----------------------------------------
Magnitude (a.u.)       :      0.45131
Magnitude (Debye)      :      1.14713

Rotational constants in cm-1:     0.020960     0.008913     0.007765
Rotational constants in MHz :   628.370698   267.215416   232.782461

                             ****ORCA TERMINATED NORMALLY****
TOTAL RUN TIME: 0 days 0 hours 0 minutes 36 seconds 940 msec
