                         Program Version 4.2.1 -  RELEASE  -
|  1> ! wB97X-D3 SP def2-SVP
|  2> %pal
|  3> nprocs 16
|  4> end
|  5>
|  6> * xyz 0 1
|  7> S 	 8.4744 	 -19.6445 	 85.3609
|  8> C 	 7.7388 	 -20.4029 	 86.775
|  9> C 	 6.42088 	 -20.0177 	 86.8968
| 10> C 	 6.11392 	 -18.954 	 85.9642
| 11> C 	 7.15293 	 -18.5227 	 85.2004
| 12> H 	 5.17878 	 -18.4305 	 85.932
| 13> C 	 5.51714 	 -20.7275 	 87.8817
| 14> H 	 5.72405 	 -20.3162 	 88.8973
| 15> H 	 5.85143 	 -21.7541 	 87.8417
| 16> C 	 3.94441 	 -20.5657 	 87.5419
| 17> H 	 3.34369 	 -20.8997 	 88.3548
| 18> H 	 3.66402 	 -19.5214 	 87.3846
| 19> C 	 3.50294 	 -21.3123 	 86.3064
| 20> H 	 4.02554 	 -21.0812 	 85.4424
| 21> H 	 3.53817 	 -22.3875 	 86.4647
| 22> H 	 2.48153 	 -21.0449 	 86.1253
| 23> S 	 7.5443 	 -17.6904 	 82.5627
| 24> C 	 6.9569 	 -16.0804 	 82.1797
| 25> C 	 6.52057 	 -15.3871 	 83.2814
| 26> C 	 6.69256 	 -16.0878 	 84.4621
| 27> C 	 7.14301 	 -17.3907 	 84.2606
| 28> H 	 6.20057 	 -14.3409 	 83.2175
| 29> C 	 6.36258 	 -15.4304 	 85.7788
| 30> H 	 6.75807 	 -16.11 	 86.4883
| 31> H 	 5.26844 	 -15.4354 	 85.96
| 32> C 	 7.05989 	 -14.1001 	 86.0581
| 33> H 	 6.91991 	 -13.7615 	 87.0887
| 34> H 	 6.57739 	 -13.2604 	 85.5714
| 35> C 	 8.53769 	 -13.9682 	 85.6684
| 36> H 	 8.5658 	 -13.9942 	 84.6449
| 37> H 	 9.05221 	 -14.8296 	 85.9589
| 38> H 	 8.9338 	 -13.0787 	 86.1352
| 39> H 	 8.17264 	 -21.2278 	 87.3753
| 40> H 	 6.93798 	 -15.6186 	 81.1624
| 41> *
| 42>
| 43>                          ****END OF INPUT****

CARTESIAN COORDINATES (ANGSTROEM)
---------------------------------
  S      8.474400  -19.644500   85.360900
  C      7.738800  -20.402900   86.775000
  C      6.420880  -20.017700   86.896800
  C      6.113920  -18.954000   85.964200
  C      7.152930  -18.522700   85.200400
  H      5.178780  -18.430500   85.932000
  C      5.517140  -20.727500   87.881700
  H      5.724050  -20.316200   88.897300
  H      5.851430  -21.754100   87.841700
  C      3.944410  -20.565700   87.541900
  H      3.343690  -20.899700   88.354800
  H      3.664020  -19.521400   87.384600
  C      3.502940  -21.312300   86.306400
  H      4.025540  -21.081200   85.442400
  H      3.538170  -22.387500   86.464700
  H      2.481530  -21.044900   86.125300
  S      7.544300  -17.690400   82.562700
  C      6.956900  -16.080400   82.179700
  C      6.520570  -15.387100   83.281400
  C      6.692560  -16.087800   84.462100
  C      7.143010  -17.390700   84.260600
  H      6.200570  -14.340900   83.217500
  C      6.362580  -15.430400   85.778800
  H      6.758070  -16.110000   86.488300
  H      5.268440  -15.435400   85.960000
  C      7.059890  -14.100100   86.058100
  H      6.919910  -13.761500   87.088700
  H      6.577390  -13.260400   85.571400
  C      8.537690  -13.968200   85.668400
  H      8.565800  -13.994200   84.644900
  H      9.052210  -14.829600   85.958900
  H      8.933800  -13.078700   86.135200
  H      8.172640  -21.227800   87.375300
  H      6.937980  -15.618600   81.162400

 Total Charge           Charge          ....    0
 Multiplicity           Mult            ....    1
 Number of Electrons    NEL             ....  134
 Basis Dimension        Dim             ....  322

ORBITAL ENERGIES
----------------

  NO   OCC          E(Eh)            E(eV)
   0   2.0000     -88.969795     -2420.9912
   1   2.0000     -88.961864     -2420.7754
   2   2.0000     -10.329232      -281.0727
   3   2.0000     -10.327299      -281.0201
   4   2.0000     -10.320940      -280.8471
   5   2.0000     -10.313862      -280.6545
   6   2.0000     -10.300988      -280.3041
   7   2.0000     -10.300290      -280.2851
   8   2.0000     -10.298810      -280.2449
   9   2.0000     -10.292169      -280.0641
  10   2.0000     -10.289695      -279.9968
  11   2.0000     -10.289030      -279.9787
  12   2.0000     -10.287615      -279.9402
  13   2.0000     -10.281427      -279.7719
  14   2.0000     -10.266322      -279.3608
  15   2.0000     -10.260415      -279.2001
  16   2.0000      -8.084086      -219.9792
  17   2.0000      -8.076770      -219.7801
  18   2.0000      -6.042537      -164.4258
  19   2.0000      -6.038768      -164.3232
  20   2.0000      -6.035356      -164.2304
  21   2.0000      -6.034830      -164.2161
  22   2.0000      -6.031356      -164.1215
  23   2.0000      -6.027339      -164.0122
  24   2.0000      -1.007619       -27.4187
  25   2.0000      -0.986260       -26.8375
  26   2.0000      -0.911277       -24.7971
  27   2.0000      -0.906933       -24.6789
  28   2.0000      -0.870488       -23.6872
  29   2.0000      -0.853271       -23.2187
  30   2.0000      -0.843775       -22.9603
  31   2.0000      -0.818374       -22.2691
  32   2.0000      -0.787636       -21.4327
  33   2.0000      -0.771227       -20.9862
  34   2.0000      -0.712616       -19.3913
  35   2.0000      -0.699523       -19.0350
  36   2.0000      -0.691219       -18.8090
  37   2.0000      -0.657077       -17.8800
  38   2.0000      -0.638591       -17.3770
  39   2.0000      -0.620571       -16.8866
  40   2.0000      -0.592894       -16.1335
  41   2.0000      -0.563508       -15.3338
  42   2.0000      -0.558991       -15.2109
  43   2.0000      -0.549683       -14.9576
  44   2.0000      -0.543876       -14.7996
  45   2.0000      -0.540242       -14.7007
  46   2.0000      -0.519669       -14.1409
  47   2.0000      -0.514735       -14.0066
  48   2.0000      -0.501596       -13.6491
  49   2.0000      -0.495407       -13.4807
  50   2.0000      -0.489503       -13.3200
  51   2.0000      -0.480274       -13.0689
  52   2.0000      -0.468676       -12.7533
  53   2.0000      -0.466638       -12.6979
  54   2.0000      -0.460656       -12.5351
  55   2.0000      -0.453818       -12.3490
  56   2.0000      -0.445503       -12.1228
  57   2.0000      -0.440864       -11.9965
  58   2.0000      -0.437852       -11.9145
  59   2.0000      -0.426232       -11.5984
  60   2.0000      -0.424478       -11.5506
  61   2.0000      -0.413179       -11.2432
  62   2.0000      -0.404176       -10.9982
  63   2.0000      -0.346898        -9.4396
  64   2.0000      -0.335660        -9.1338
  65   2.0000      -0.326050        -8.8723
  66   2.0000      -0.291523        -7.9327
  67   0.0000       0.029366         0.7991
  68   0.0000       0.066745         1.8162
  69   0.0000       0.104891         2.8542
  70   0.0000       0.125866         3.4250
  71   0.0000       0.132760         3.6126

MULLIKEN ATOMIC CHARGES
-----------------------
   0 S :    0.097131
   1 C :   -0.133006
   2 C :   -0.112294
   3 C :    0.037366
   4 C :   -0.151998
   5 H :   -0.000332
   6 C :    0.065156
   7 H :    0.053409
   8 H :    0.029995
   9 C :   -0.078345
  10 H :    0.023309
  11 H :    0.028206
  12 C :   -0.021619
  13 H :    0.025706
  14 H :    0.027540
  15 H :    0.023043
  16 S :    0.114521
  17 C :   -0.103712
  18 C :   -0.035371
  19 C :   -0.085552
  20 C :   -0.151040
  21 H :    0.026864
  22 C :    0.125320
  23 H :    0.015342
  24 H :    0.046007
  25 C :   -0.117850
  26 H :    0.020849
  27 H :    0.009336
  28 C :    0.035551
  29 H :    0.009186
  30 H :    0.014278
  31 H :    0.037066
  32 H :    0.057393
  33 H :    0.068545
Sum of atomic charges:   -0.0000000

LOEWDIN ATOMIC CHARGES
----------------------
   0 S :    0.390572
   1 C :   -0.196820
   2 C :   -0.066456
   3 C :   -0.064068
   4 C :   -0.195568
   5 H :    0.026248
   6 C :   -0.029006
   7 H :    0.039571
   8 H :    0.030005
   9 C :   -0.035103
  10 H :    0.021411
  11 H :    0.023026
  12 C :   -0.057316
  13 H :    0.015987
  14 H :    0.025038
  15 H :    0.026224
  16 S :    0.399038
  17 C :   -0.184387
  18 C :   -0.076104
  19 C :   -0.059909
  20 C :   -0.192921
  21 H :    0.037643
  22 C :   -0.031672
  23 H :    0.027205
  24 H :    0.038577
  25 C :   -0.043686
  26 H :    0.024651
  27 H :    0.015610
  28 C :   -0.046047
  29 H :    0.014577
  30 H :    0.019877
  31 H :    0.030305
  32 H :    0.035198
  33 H :    0.038301

  Mayer bond orders larger than 0.100000
B(  0-S ,  1-C ) :   1.1294 B(  0-S ,  4-C ) :   1.1411 B(  1-C ,  2-C ) :   1.6346
B(  1-C , 32-H ) :   0.9664 B(  2-C ,  3-C ) :   1.2215 B(  2-C ,  6-C ) :   0.9961
B(  3-C ,  4-C ) :   1.5856 B(  3-C ,  5-H ) :   1.0011 B(  4-C , 20-C ) :   1.0233
B(  6-C ,  7-H ) :   0.9395 B(  6-C ,  8-H ) :   0.9495 B(  6-C ,  9-C ) :   1.0685
B(  9-C , 10-H ) :   0.9569 B(  9-C , 11-H ) :   0.9571 B(  9-C , 12-C ) :   1.0845
B( 12-C , 13-H ) :   0.9764 B( 12-C , 14-H ) :   0.9745 B( 12-C , 15-H ) :   0.9707
B( 16-S , 17-C ) :   1.1561 B( 16-S , 20-C ) :   1.1398 B( 17-C , 18-C ) :   1.6008
B( 17-C , 20-C ) :   0.1028 B( 17-C , 33-H ) :   0.9597 B( 18-C , 19-C ) :   1.2612
B( 18-C , 21-H ) :   0.9856 B( 19-C , 20-C ) :   1.5924 B( 19-C , 22-C ) :   1.0346
B( 22-C , 23-H ) :   0.9207 B( 22-C , 24-H ) :   0.9344 B( 22-C , 25-C ) :   1.0646
B( 25-C , 26-H ) :   0.9574 B( 25-C , 27-H ) :   0.9509 B( 25-C , 28-C ) :   1.0793
B( 28-C , 29-H ) :   0.9650 B( 28-C , 30-H ) :   0.9731 B( 28-C , 31-H ) :   0.9720

Dispersion correction           -0.014816371
FINAL SINGLE POINT ENERGY     -1339.873104214795

DIPOLE MOMENT
-------------
                                X             Y             Z
Electronic contribution:     13.49202      -6.25827     -14.93374
Nuclear contribution   :    -14.04865       6.46327      15.31828
                        -----------------------------------------
Total Dipole Moment    :     -0.55664       0.20500       0.38454
                        -----------------------------------------
Magnitude (a.u.)       :      0.70692
Magnitude (Debye)      :      1.79685

Rotational constants in cm-1:     0.019664     0.008174     0.007566
Rotational constants in MHz :   589.502719   245.045843   226.830202

                             ****ORCA TERMINATED NORMALLY****
TOTAL RUN TIME: 0 days 0 hours 0 minutes 34 seconds 547 msec
