                         Program Version 4.2.1 -  RELEASE  -
|  1> ! wB97X-D3 SP def2-SVP
|  2> %pal
|  3> nprocs 16
|  4> end
|  5>
|  6> * xyz 0 1
|  7> S 	 -41.3349 	 30.5018 	 89.115
|  8> C 	 -43.0928 	 30.5187 	 89.2546
|  9> C 	 -43.7318 	 30.3151 	 88.0299
| 10> C 	 -42.7966 	 29.9067 	 87.0248
| 11> C 	 -41.4536 	 30.0113 	 87.4204
| 12> H 	 -43.0161 	 29.5652 	 85.9745
| 13> C 	 -45.2392 	 30.4031 	 87.675
| 14> H 	 -45.4257 	 31.1103 	 86.8824
| 15> H 	 -45.8324 	 30.8252 	 88.5946
| 16> C 	 -46.0952 	 29.1362 	 87.4893
| 17> H 	 -47.1725 	 29.2209 	 87.721
| 18> H 	 -46.075 	 28.6836 	 86.4694
| 19> C 	 -45.6718 	 27.9541 	 88.3765
| 20> H 	 -46.3312 	 27.1394 	 88.1721
| 21> H 	 -44.5824 	 27.7904 	 88.2479
| 22> H 	 -46.0006 	 28.2783 	 89.393
| 23> S 	 -38.9407 	 30.9489 	 86.7982
| 24> C 	 -38.1262 	 30.4619 	 85.3635
| 25> C 	 -38.8065 	 29.4278 	 84.7449
| 26> C 	 -40.0303 	 29.0786 	 85.4141
| 27> C 	 -40.2711 	 29.8804 	 86.5375
| 28> H 	 -38.3653 	 29.0192 	 83.8842
| 29> C 	 -40.9302 	 27.9878 	 84.9343
| 30> H 	 -40.5171 	 27.5668 	 84.0183
| 31> H 	 -41.8982 	 28.5745 	 84.6603
| 32> C 	 -41.2873 	 26.7883 	 85.8778
| 33> H 	 -41.7303 	 26.1709 	 85.0532
| 34> H 	 -42.1077 	 26.8883 	 86.5144
| 35> C 	 -40.2243 	 26.0321 	 86.7256
| 36> H 	 -39.8281 	 26.58 	 87.5705
| 37> H 	 -39.4667 	 25.843 	 85.9534
| 38> H 	 -40.5952 	 25.0425 	 86.9886
| 39> H 	 -43.6217 	 30.8836 	 90.06
| 40> H 	 -37.1416 	 30.685 	 85.0457
| 41> *
| 42>
| 43>                          ****END OF INPUT****

CARTESIAN COORDINATES (ANGSTROEM)
---------------------------------
  S    -41.334900   30.501800   89.115000
  C    -43.092800   30.518700   89.254600
  C    -43.731800   30.315100   88.029900
  C    -42.796600   29.906700   87.024800
  C    -41.453600   30.011300   87.420400
  H    -43.016100   29.565200   85.974500
  C    -45.239200   30.403100   87.675000
  H    -45.425700   31.110300   86.882400
  H    -45.832400   30.825200   88.594600
  C    -46.095200   29.136200   87.489300
  H    -47.172500   29.220900   87.721000
  H    -46.075000   28.683600   86.469400
  C    -45.671800   27.954100   88.376500
  H    -46.331200   27.139400   88.172100
  H    -44.582400   27.790400   88.247900
  H    -46.000600   28.278300   89.393000
  S    -38.940700   30.948900   86.798200
  C    -38.126200   30.461900   85.363500
  C    -38.806500   29.427800   84.744900
  C    -40.030300   29.078600   85.414100
  C    -40.271100   29.880400   86.537500
  H    -38.365300   29.019200   83.884200
  C    -40.930200   27.987800   84.934300
  H    -40.517100   27.566800   84.018300
  H    -41.898200   28.574500   84.660300
  C    -41.287300   26.788300   85.877800
  H    -41.730300   26.170900   85.053200
  H    -42.107700   26.888300   86.514400
  C    -40.224300   26.032100   86.725600
  H    -39.828100   26.580000   87.570500
  H    -39.466700   25.843000   85.953400
  H    -40.595200   25.042500   86.988600
  H    -43.621700   30.883600   90.060000
  H    -37.141600   30.685000   85.045700

 Total Charge           Charge          ....    0
 Multiplicity           Mult            ....    1
 Number of Electrons    NEL             ....  134
 Basis Dimension        Dim             ....  322

ORBITAL ENERGIES
----------------

  NO   OCC          E(Eh)            E(eV)
   0   2.0000     -88.973520     -2421.0926
   1   2.0000     -88.966642     -2420.9054
   2   2.0000     -10.338427      -281.3229
   3   2.0000     -10.328338      -281.0484
   4   2.0000     -10.315831      -280.7080
   5   2.0000     -10.312132      -280.6074
   6   2.0000     -10.311903      -280.6011
   7   2.0000     -10.306151      -280.4446
   8   2.0000     -10.303435      -280.3707
   9   2.0000     -10.303079      -280.3610
  10   2.0000     -10.302009      -280.3319
  11   2.0000     -10.291132      -280.0360
  12   2.0000     -10.289288      -279.9858
  13   2.0000     -10.285203      -279.8746
  14   2.0000     -10.277423      -279.6629
  15   2.0000     -10.275289      -279.6048
  16   2.0000      -8.087379      -220.0688
  17   2.0000      -8.082117      -219.9256
  18   2.0000      -6.045998      -164.5200
  19   2.0000      -6.042071      -164.4131
  20   2.0000      -6.040632      -164.3740
  21   2.0000      -6.038027      -164.3031
  22   2.0000      -6.036353      -164.2575
  23   2.0000      -6.033007      -164.1665
  24   2.0000      -1.007642       -27.4193
  25   2.0000      -0.984058       -26.7776
  26   2.0000      -0.907490       -24.6941
  27   2.0000      -0.904809       -24.6211
  28   2.0000      -0.869023       -23.6473
  29   2.0000      -0.851380       -23.1672
  30   2.0000      -0.845294       -23.0016
  31   2.0000      -0.815009       -22.1775
  32   2.0000      -0.784302       -21.3420
  33   2.0000      -0.776516       -21.1301
  34   2.0000      -0.710705       -19.3393
  35   2.0000      -0.691039       -18.8041
  36   2.0000      -0.688017       -18.7219
  37   2.0000      -0.665042       -18.0967
  38   2.0000      -0.637823       -17.3560
  39   2.0000      -0.618027       -16.8174
  40   2.0000      -0.586570       -15.9614
  41   2.0000      -0.568431       -15.4678
  42   2.0000      -0.558836       -15.2067
  43   2.0000      -0.554633       -15.0923
  44   2.0000      -0.552118       -15.0239
  45   2.0000      -0.537635       -14.6298
  46   2.0000      -0.518568       -14.1109
  47   2.0000      -0.505818       -13.7640
  48   2.0000      -0.498904       -13.5759
  49   2.0000      -0.498053       -13.5527
  50   2.0000      -0.494819       -13.4647
  51   2.0000      -0.480000       -13.0615
  52   2.0000      -0.470504       -12.8031
  53   2.0000      -0.464179       -12.6309
  54   2.0000      -0.458013       -12.4632
  55   2.0000      -0.450244       -12.2518
  56   2.0000      -0.447955       -12.1895
  57   2.0000      -0.441504       -12.0139
  58   2.0000      -0.429418       -11.6851
  59   2.0000      -0.417665       -11.3652
  60   2.0000      -0.413766       -11.2592
  61   2.0000      -0.406085       -11.0501
  62   2.0000      -0.398361       -10.8400
  63   2.0000      -0.355620        -9.6769
  64   2.0000      -0.336653        -9.1608
  65   2.0000      -0.328321        -8.9341
  66   2.0000      -0.286281        -7.7901
  67   0.0000       0.021130         0.5750
  68   0.0000       0.074984         2.0404
  69   0.0000       0.106938         2.9099
  70   0.0000       0.114767         3.1230
  71   0.0000       0.121901         3.3171

MULLIKEN ATOMIC CHARGES
-----------------------
   0 S :    0.111471
   1 C :   -0.067714
   2 C :   -0.097670
   3 C :    0.002631
   4 C :   -0.130985
   5 H :    0.025045
   6 C :    0.053062
   7 H :    0.047545
   8 H :    0.030918
   9 C :   -0.121239
  10 H :    0.035517
  11 H :    0.024710
  12 C :   -0.059102
  13 H :    0.027136
  14 H :    0.068503
  15 H :    0.018512
  16 S :    0.109057
  17 C :   -0.068789
  18 C :   -0.037588
  19 C :   -0.038459
  20 C :   -0.135999
  21 H :   -0.001773
  22 C :    0.018273
  23 H :    0.017744
  24 H :    0.053817
  25 C :   -0.074261
  26 H :    0.026041
  27 H :    0.015859
  28 C :   -0.026252
  29 H :    0.057509
  30 H :    0.019783
  31 H :    0.034507
  32 H :    0.019877
  33 H :    0.042313
Sum of atomic charges:    0.0000000

LOEWDIN ATOMIC CHARGES
----------------------
   0 S :    0.397747
   1 C :   -0.180015
   2 C :   -0.058732
   3 C :   -0.068861
   4 C :   -0.183584
   5 H :    0.037793
   6 C :   -0.038454
   7 H :    0.032861
   8 H :    0.042895
   9 C :   -0.054226
  10 H :    0.027662
  11 H :    0.016990
  12 C :   -0.064852
  13 H :    0.021222
  14 H :    0.030825
  15 H :    0.023406
  16 S :    0.429499
  17 C :   -0.193710
  18 C :   -0.065693
  19 C :   -0.066143
  20 C :   -0.208346
  21 H :    0.023475
  22 C :   -0.038761
  23 H :    0.028964
  24 H :    0.046937
  25 C :   -0.045833
  26 H :    0.032593
  27 H :    0.010401
  28 C :   -0.060193
  29 H :    0.030149
  30 H :    0.025716
  31 H :    0.029990
  32 H :    0.012752
  33 H :    0.025525

  Mayer bond orders larger than 0.100000
B(  0-S ,  1-C ) :   1.1323 B(  0-S ,  4-C ) :   1.1471 B(  1-C ,  2-C ) :   1.6221
B(  1-C , 32-H ) :   0.9674 B(  2-C ,  3-C ) :   1.2342 B(  2-C ,  6-C ) :   1.0284
B(  3-C ,  4-C ) :   1.5724 B(  3-C ,  5-H ) :   0.9773 B(  4-C , 20-C ) :   1.0559
B(  6-C ,  7-H ) :   0.9477 B(  6-C ,  8-H ) :   0.9435 B(  6-C ,  9-C ) :   1.0458
B(  9-C , 10-H ) :   0.9653 B(  9-C , 11-H ) :   0.9567 B(  9-C , 12-C ) :   1.0817
B( 12-C , 13-H ) :   0.9729 B( 12-C , 14-H ) :   0.9667 B( 12-C , 15-H ) :   0.9789
B( 16-S , 17-C ) :   1.1675 B( 16-S , 20-C ) :   1.1486 B( 17-C , 18-C ) :   1.5964
B( 17-C , 33-H ) :   0.9675 B( 18-C , 19-C ) :   1.2559 B( 18-C , 21-H ) :   1.0004
B( 19-C , 20-C ) :   1.5461 B( 19-C , 22-C ) :   1.0472 B( 22-C , 23-H ) :   0.9367
B( 22-C , 24-H ) :   0.9270 B( 22-C , 25-C ) :   1.0495 B( 25-C , 26-H ) :   0.9571
B( 25-C , 27-H ) :   0.9563 B( 25-C , 28-C ) :   1.0736 B( 28-C , 29-H ) :   0.9733
B( 28-C , 30-H ) :   0.9788 B( 28-C , 31-H ) :   0.9711

Dispersion correction           -0.015235558
FINAL SINGLE POINT ENERGY     -1339.851479591210

DIPOLE MOMENT
-------------
                                X             Y             Z
Electronic contribution:     19.89023      19.31155       5.40366
Nuclear contribution   :    -20.26032     -19.63098      -5.82460
                        -----------------------------------------
Total Dipole Moment    :     -0.37008      -0.31942      -0.42093
                        -----------------------------------------
Magnitude (a.u.)       :      0.64512
Magnitude (Debye)      :      1.63976

Rotational constants in cm-1:     0.020065     0.009293     0.007484
Rotational constants in MHz :   601.519318   278.607022   224.356001

                             ****ORCA TERMINATED NORMALLY****
TOTAL RUN TIME: 0 days 0 hours 0 minutes 31 seconds 984 msec
