                         Program Version 4.2.1 -  RELEASE  -
|  1> ! wB97X-D3 SP def2-SVP
|  2> %pal
|  3> nprocs 16
|  4> end
|  5>
|  6> * xyz 0 1
|  7> S 	 38.2104 	 13.6735 	 79.3533
|  8> C 	 38.3236 	 12.7787 	 77.8201
|  9> C 	 39.6567 	 12.3511 	 77.5994
| 10> C 	 40.5357 	 12.8955 	 78.5894
| 11> C 	 39.9313 	 13.5821 	 79.5726
| 12> H 	 41.5659 	 12.761 	 78.4677
| 13> C 	 40.1931 	 11.7182 	 76.3312
| 14> H 	 41.1178 	 12.1951 	 75.9973
| 15> H 	 39.512 	 11.9217 	 75.4896
| 16> C 	 40.372 	 10.2093 	 76.4752
| 17> H 	 40.7861 	 9.96602 	 77.4148
| 18> H 	 39.4431 	 9.6469 	 76.4265
| 19> C 	 41.1746 	 9.70007 	 75.1998
| 20> H 	 40.7561 	 10.1649 	 74.3197
| 21> H 	 42.2254 	 9.945 	 75.2617
| 22> H 	 41.059 	 8.62648 	 75.1443
| 23> S 	 39.796 	 13.9946 	 82.2864
| 24> C 	 40.9292 	 15.0521 	 83.0401
| 25> C 	 42.0067 	 15.2556 	 82.3153
| 26> C 	 41.8534 	 14.8217 	 80.9497
| 27> C 	 40.7166 	 14.0281 	 80.7815
| 28> H 	 42.7507 	 15.9 	 82.6956
| 29> C 	 42.8216 	 15.2657 	 79.801
| 30> H 	 43.2293 	 14.3732 	 79.3897
| 31> H 	 43.751 	 15.7496 	 80.24
| 32> C 	 42.1971 	 16.1557 	 78.7369
| 33> H 	 41.9924 	 17.1488 	 79.2334
| 34> H 	 41.2134 	 15.7431 	 78.418
| 35> C 	 42.9819 	 16.4362 	 77.409
| 36> H 	 43.2636 	 15.4514 	 76.9295
| 37> H 	 43.8809 	 16.9842 	 77.6561
| 38> H 	 42.3994 	 17.0801 	 76.6203
| 39> H 	 37.5766 	 12.4621 	 77.1275
| 40> H 	 40.7613 	 15.3808 	 84.0544
| 41> *
| 42>
| 43>                          ****END OF INPUT****

CARTESIAN COORDINATES (ANGSTROEM)
---------------------------------
  S     38.210400   13.673500   79.353300
  C     38.323600   12.778700   77.820100
  C     39.656700   12.351100   77.599400
  C     40.535700   12.895500   78.589400
  C     39.931300   13.582100   79.572600
  H     41.565900   12.761000   78.467700
  C     40.193100   11.718200   76.331200
  H     41.117800   12.195100   75.997300
  H     39.512000   11.921700   75.489600
  C     40.372000   10.209300   76.475200
  H     40.786100    9.966020   77.414800
  H     39.443100    9.646900   76.426500
  C     41.174600    9.700070   75.199800
  H     40.756100   10.164900   74.319700
  H     42.225400    9.945000   75.261700
  H     41.059000    8.626480   75.144300
  S     39.796000   13.994600   82.286400
  C     40.929200   15.052100   83.040100
  C     42.006700   15.255600   82.315300
  C     41.853400   14.821700   80.949700
  C     40.716600   14.028100   80.781500
  H     42.750700   15.900000   82.695600
  C     42.821600   15.265700   79.801000
  H     43.229300   14.373200   79.389700
  H     43.751000   15.749600   80.240000
  C     42.197100   16.155700   78.736900
  H     41.992400   17.148800   79.233400
  H     41.213400   15.743100   78.418000
  C     42.981900   16.436200   77.409000
  H     43.263600   15.451400   76.929500
  H     43.880900   16.984200   77.656100
  H     42.399400   17.080100   76.620300
  H     37.576600   12.462100   77.127500
  H     40.761300   15.380800   84.054400

 Total Charge           Charge          ....    0
 Multiplicity           Mult            ....    1
 Number of Electrons    NEL             ....  134
 Basis Dimension        Dim             ....  322

ORBITAL ENERGIES
----------------

  NO   OCC          E(Eh)            E(eV)
   0   2.0000     -88.973450     -2421.0907
   1   2.0000     -88.959772     -2420.7185
   2   2.0000     -10.330763      -281.1144
   3   2.0000     -10.329252      -281.0732
   4   2.0000     -10.317505      -280.7536
   5   2.0000     -10.310848      -280.5724
   6   2.0000     -10.308603      -280.5113
   7   2.0000     -10.300668      -280.2954
   8   2.0000     -10.298390      -280.2334
   9   2.0000     -10.293750      -280.1072
  10   2.0000     -10.291353      -280.0420
  11   2.0000     -10.290258      -280.0122
  12   2.0000     -10.286329      -279.9052
  13   2.0000     -10.284297      -279.8499
  14   2.0000     -10.283243      -279.8213
  15   2.0000     -10.278434      -279.6904
  16   2.0000      -8.087151      -220.0626
  17   2.0000      -8.075504      -219.7456
  18   2.0000      -6.045858      -164.5162
  19   2.0000      -6.041784      -164.4053
  20   2.0000      -6.037754      -164.2956
  21   2.0000      -6.033940      -164.1919
  22   2.0000      -6.029955      -164.0834
  23   2.0000      -6.026203      -163.9813
  24   2.0000      -1.008073       -27.4311
  25   2.0000      -0.987018       -26.8581
  26   2.0000      -0.911588       -24.8056
  27   2.0000      -0.900681       -24.5088
  28   2.0000      -0.867314       -23.6008
  29   2.0000      -0.849766       -23.1233
  30   2.0000      -0.841861       -22.9082
  31   2.0000      -0.818044       -22.2601
  32   2.0000      -0.779068       -21.1995
  33   2.0000      -0.770709       -20.9720
  34   2.0000      -0.706422       -19.2227
  35   2.0000      -0.702860       -19.1258
  36   2.0000      -0.685414       -18.6511
  37   2.0000      -0.661880       -18.0107
  38   2.0000      -0.637270       -17.3410
  39   2.0000      -0.628974       -17.1153
  40   2.0000      -0.597436       -16.2571
  41   2.0000      -0.571117       -15.5409
  42   2.0000      -0.562505       -15.3065
  43   2.0000      -0.556866       -15.1531
  44   2.0000      -0.525369       -14.2960
  45   2.0000      -0.521963       -14.2033
  46   2.0000      -0.512952       -13.9581
  47   2.0000      -0.510809       -13.8998
  48   2.0000      -0.501656       -13.6508
  49   2.0000      -0.497125       -13.5275
  50   2.0000      -0.489848       -13.3294
  51   2.0000      -0.485510       -13.2114
  52   2.0000      -0.470297       -12.7974
  53   2.0000      -0.461553       -12.5595
  54   2.0000      -0.458336       -12.4720
  55   2.0000      -0.453123       -12.3301
  56   2.0000      -0.448999       -12.2179
  57   2.0000      -0.443449       -12.0669
  58   2.0000      -0.428921       -11.6715
  59   2.0000      -0.424588       -11.5536
  60   2.0000      -0.415822       -11.3151
  61   2.0000      -0.414959       -11.2916
  62   2.0000      -0.408655       -11.1201
  63   2.0000      -0.352639        -9.5958
  64   2.0000      -0.332126        -9.0376
  65   2.0000      -0.330925        -9.0049
  66   2.0000      -0.292110        -7.9487
  67   0.0000       0.029762         0.8099
  68   0.0000       0.076180         2.0730
  69   0.0000       0.105652         2.8749
  70   0.0000       0.115241         3.1359
  71   0.0000       0.136325         3.7096

MULLIKEN ATOMIC CHARGES
-----------------------
   0 S :    0.125538
   1 C :   -0.104981
   2 C :   -0.082253
   3 C :    0.023645
   4 C :   -0.092052
   5 H :   -0.014952
   6 C :    0.026279
   7 H :    0.029269
   8 H :    0.022262
   9 C :   -0.063144
  10 H :    0.023831
  11 H :    0.027999
  12 C :   -0.045592
  13 H :    0.027368
  14 H :    0.035197
  15 H :    0.033723
  16 S :    0.076563
  17 C :   -0.093222
  18 C :    0.016079
  19 C :   -0.081128
  20 C :   -0.134733
  21 H :    0.005328
  22 C :    0.079274
  23 H :    0.016984
  24 H :    0.022004
  25 C :   -0.105437
  26 H :    0.036390
  27 H :    0.055841
  28 C :   -0.083290
  29 H :    0.035820
  30 H :    0.031794
  31 H :    0.057752
  32 H :    0.036632
  33 H :    0.055214
Sum of atomic charges:    0.0000000

LOEWDIN ATOMIC CHARGES
----------------------
   0 S :    0.407749
   1 C :   -0.192574
   2 C :   -0.055205
   3 C :   -0.060955
   4 C :   -0.199537
   5 H :    0.021252
   6 C :   -0.035282
   7 H :    0.030343
   8 H :    0.031080
   9 C :   -0.031907
  10 H :    0.016420
  11 H :    0.025179
  12 C :   -0.059493
  13 H :    0.022994
  14 H :    0.021961
  15 H :    0.024000
  16 S :    0.393968
  17 C :   -0.176859
  18 C :   -0.074233
  19 C :   -0.048483
  20 C :   -0.182012
  21 H :    0.028579
  22 C :   -0.033617
  23 H :    0.020656
  24 H :    0.034463
  25 C :   -0.052185
  26 H :    0.029728
  27 H :    0.030120
  28 C :   -0.076159
  29 H :    0.026272
  30 H :    0.018628
  31 H :    0.041232
  32 H :    0.025958
  33 H :    0.027917

  Mayer bond orders larger than 0.100000
B(  0-S ,  1-C ) :   1.1265 B(  0-S ,  4-C ) :   1.1373 B(  1-C ,  2-C ) :   1.6123
B(  1-C , 32-H ) :   0.9666 B(  2-C ,  3-C ) :   1.2519 B(  2-C ,  6-C ) :   1.0226
B(  3-C ,  4-C ) :   1.5591 B(  3-C ,  5-H ) :   1.0079 B(  4-C , 20-C ) :   1.0229
B(  6-C ,  7-H ) :   0.9570 B(  6-C ,  8-H ) :   0.9410 B(  6-C ,  9-C ) :   1.0489
B(  9-C , 10-H ) :   0.9643 B(  9-C , 11-H ) :   0.9571 B(  9-C , 12-C ) :   1.0688
B( 12-C , 13-H ) :   0.9735 B( 12-C , 14-H ) :   0.9796 B( 12-C , 15-H ) :   0.9782
B( 16-S , 17-C ) :   1.1561 B( 16-S , 20-C ) :   1.1233 B( 17-C , 18-C ) :   1.6457
B( 17-C , 33-H ) :   0.9623 B( 18-C , 19-C ) :   1.2261 B( 18-C , 21-H ) :   0.9943
B( 19-C , 20-C ) :   1.6288 B( 19-C , 22-C ) :   1.0228 B( 22-C , 23-H ) :   0.9372
B( 22-C , 24-H ) :   0.9369 B( 22-C , 25-C ) :   1.0525 B( 25-C , 26-H ) :   0.9542
B( 25-C , 27-H ) :   0.9573 B( 25-C , 28-C ) :   1.0713 B( 28-C , 29-H ) :   0.9742
B( 28-C , 30-H ) :   0.9764 B( 28-C , 31-H ) :   0.9750

Dispersion correction           -0.014282758
FINAL SINGLE POINT ENERGY     -1339.868584503317

DIPOLE MOMENT
-------------
                                X             Y             Z
Electronic contribution:    -16.60639       3.82732      24.79784
Nuclear contribution   :     17.04867      -3.77317     -25.21270
                        -----------------------------------------
Total Dipole Moment    :      0.44228       0.05415      -0.41486
                        -----------------------------------------
Magnitude (a.u.)       :      0.60881
Magnitude (Debye)      :      1.54748

Rotational constants in cm-1:     0.018269     0.008499     0.006873
Rotational constants in MHz :   547.689596   254.789846   206.055388

                             ****ORCA TERMINATED NORMALLY****
TOTAL RUN TIME: 0 days 0 hours 0 minutes 28 seconds 324 msec
