                         Program Version 4.2.1 -  RELEASE  -
|  1> ! wB97X-D3 SP def2-SVP
|  2> %pal
|  3> nprocs 16
|  4> end
|  5>
|  6> * xyz 0 1
|  7> S 	 -47.053 	 65.5705 	 129.303
|  8> C 	 -45.7919 	 64.4468 	 129.456
|  9> C 	 -44.8612 	 64.7443 	 130.424
| 10> C 	 -45.0393 	 66.1425 	 130.797
| 11> C 	 -46.2088 	 66.7049 	 130.352
| 12> H 	 -44.3326 	 66.6201 	 131.501
| 13> C 	 -43.7996 	 63.8315 	 131.021
| 14> H 	 -44.3504 	 63.3164 	 131.869
| 15> H 	 -42.9997 	 64.3965 	 131.493
| 16> C 	 -43.0713 	 62.8579 	 130.122
| 17> H 	 -42.5197 	 62.2299 	 130.79
| 18> H 	 -43.7857 	 62.1681 	 129.579
| 19> C 	 -42.2074 	 63.6408 	 129.118
| 20> H 	 -42.8327 	 64.1643 	 128.336
| 21> H 	 -41.5566 	 64.4442 	 129.549
| 22> H 	 -41.5128 	 63.0051 	 128.572
| 23> S 	 -47.3634 	 69.0667 	 129.611
| 24> C 	 -47.408 	 70.3191 	 130.801
| 25> C 	 -47.4817 	 69.8066 	 132.039
| 26> C 	 -47.1746 	 68.4082 	 132.079
| 27> C 	 -46.7724 	 67.9436 	 130.838
| 28> H 	 -47.6095 	 70.5099 	 132.851
| 29> C 	 -46.9536 	 67.7672 	 133.438
| 30> H 	 -46.0494 	 68.2761 	 133.742
| 31> H 	 -46.7864 	 66.7053 	 133.289
| 32> C 	 -48.1276 	 67.9471 	 134.444
| 33> H 	 -49.0446 	 67.5718 	 133.986
| 34> H 	 -48.1591 	 69.0465 	 134.671
| 35> C 	 -47.7953 	 67.1024 	 135.691
| 36> H 	 -48.6121 	 67.1496 	 136.346
| 37> H 	 -46.9599 	 67.5675 	 136.217
| 38> H 	 -47.4495 	 66.1164 	 135.38
| 39> H 	 -45.8986 	 63.4841 	 128.934
| 40> H 	 -47.5058 	 71.3285 	 130.592
| 41> *
| 42>
| 43>                          ****END OF INPUT****

CARTESIAN COORDINATES (ANGSTROEM)
---------------------------------
  S    -47.053000   65.570500  129.303000
  C    -45.791900   64.446800  129.456000
  C    -44.861200   64.744300  130.424000
  C    -45.039300   66.142500  130.797000
  C    -46.208800   66.704900  130.352000
  H    -44.332600   66.620100  131.501000
  C    -43.799600   63.831500  131.021000
  H    -44.350400   63.316400  131.869000
  H    -42.999700   64.396500  131.493000
  C    -43.071300   62.857900  130.122000
  H    -42.519700   62.229900  130.790000
  H    -43.785700   62.168100  129.579000
  C    -42.207400   63.640800  129.118000
  H    -42.832700   64.164300  128.336000
  H    -41.556600   64.444200  129.549000
  H    -41.512800   63.005100  128.572000
  S    -47.363400   69.066700  129.611000
  C    -47.408000   70.319100  130.801000
  C    -47.481700   69.806600  132.039000
  C    -47.174600   68.408200  132.079000
  C    -46.772400   67.943600  130.838000
  H    -47.609500   70.509900  132.851000
  C    -46.953600   67.767200  133.438000
  H    -46.049400   68.276100  133.742000
  H    -46.786400   66.705300  133.289000
  C    -48.127600   67.947100  134.444000
  H    -49.044600   67.571800  133.986000
  H    -48.159100   69.046500  134.671000
  C    -47.795300   67.102400  135.691000
  H    -48.612100   67.149600  136.346000
  H    -46.959900   67.567500  136.217000
  H    -47.449500   66.116400  135.380000
  H    -45.898600   63.484100  128.934000
  H    -47.505800   71.328500  130.592000

 Total Charge           Charge          ....    0
 Multiplicity           Mult            ....    1
 Number of Electrons    NEL             ....  134
 Basis Dimension        Dim             ....  322

ORBITAL ENERGIES
----------------

  NO   OCC          E(Eh)            E(eV)
   0   2.0000     -88.962516     -2420.7931
   1   2.0000     -88.953098     -2420.5369
   2   2.0000     -10.324232      -280.9366
   3   2.0000     -10.321583      -280.8645
   4   2.0000     -10.308758      -280.5156
   5   2.0000     -10.304856      -280.4094
   6   2.0000     -10.302672      -280.3499
   7   2.0000     -10.301017      -280.3049
   8   2.0000     -10.297288      -280.2035
   9   2.0000     -10.294858      -280.1373
  10   2.0000     -10.292660      -280.0775
  11   2.0000     -10.292071      -280.0615
  12   2.0000     -10.287962      -279.9497
  13   2.0000     -10.286101      -279.8990
  14   2.0000     -10.283291      -279.8226
  15   2.0000     -10.275224      -279.6031
  16   2.0000      -8.078358      -219.8233
  17   2.0000      -8.069069      -219.5705
  18   2.0000      -6.036825      -164.2703
  19   2.0000      -6.032795      -164.1607
  20   2.0000      -6.029021      -164.0580
  21   2.0000      -6.027553      -164.0181
  22   2.0000      -6.023785      -163.9155
  23   2.0000      -6.019410      -163.7965
  24   2.0000      -1.009065       -27.4581
  25   2.0000      -0.988762       -26.9056
  26   2.0000      -0.914130       -24.8747
  27   2.0000      -0.909021       -24.7357
  28   2.0000      -0.871346       -23.7105
  29   2.0000      -0.850543       -23.1445
  30   2.0000      -0.844508       -22.9802
  31   2.0000      -0.812345       -22.1050
  32   2.0000      -0.779790       -21.2192
  33   2.0000      -0.770299       -20.9609
  34   2.0000      -0.704440       -19.1688
  35   2.0000      -0.702293       -19.1104
  36   2.0000      -0.695673       -18.9302
  37   2.0000      -0.655865       -17.8470
  38   2.0000      -0.638521       -17.3750
  39   2.0000      -0.610529       -16.6133
  40   2.0000      -0.596549       -16.2329
  41   2.0000      -0.577636       -15.7183
  42   2.0000      -0.571669       -15.5559
  43   2.0000      -0.556208       -15.1352
  44   2.0000      -0.536398       -14.5961
  45   2.0000      -0.532065       -14.4782
  46   2.0000      -0.518264       -14.1027
  47   2.0000      -0.503862       -13.7108
  48   2.0000      -0.501547       -13.6478
  49   2.0000      -0.496610       -13.5134
  50   2.0000      -0.481853       -13.1119
  51   2.0000      -0.474674       -12.9165
  52   2.0000      -0.470510       -12.8032
  53   2.0000      -0.468350       -12.7445
  54   2.0000      -0.459685       -12.5087
  55   2.0000      -0.448721       -12.2103
  56   2.0000      -0.441844       -12.0232
  57   2.0000      -0.435588       -11.8530
  58   2.0000      -0.431688       -11.7468
  59   2.0000      -0.428214       -11.6523
  60   2.0000      -0.426966       -11.6183
  61   2.0000      -0.420381       -11.4392
  62   2.0000      -0.410524       -11.1709
  63   2.0000      -0.343119        -9.3367
  64   2.0000      -0.326241        -8.8775
  65   2.0000      -0.320900        -8.7321
  66   2.0000      -0.290869        -7.9149
  67   0.0000       0.034940         0.9508
  68   0.0000       0.065391         1.7794
  69   0.0000       0.106837         2.9072
  70   0.0000       0.126328         3.4376
  71   0.0000       0.129966         3.5366

MULLIKEN ATOMIC CHARGES
-----------------------
   0 S :    0.120348
   1 C :   -0.140503
   2 C :   -0.102929
   3 C :    0.006159
   4 C :   -0.123847
   5 H :    0.019833
   6 C :    0.037526
   7 H :    0.052770
   8 H :    0.018398
   9 C :   -0.041584
  10 H :    0.024630
  11 H :    0.034491
  12 C :   -0.083216
  13 H :    0.051661
  14 H :    0.033457
  15 H :    0.032326
  16 S :    0.079883
  17 C :   -0.046249
  18 C :   -0.046706
  19 C :    0.017292
  20 C :   -0.190082
  21 H :    0.020436
  22 C :    0.028220
  23 H :    0.041376
  24 H :    0.024761
  25 C :   -0.111732
  26 H :    0.041427
  27 H :    0.040198
  28 C :    0.005565
  29 H :    0.027710
  30 H :    0.019102
  31 H :    0.030123
  32 H :    0.055475
  33 H :    0.023682
Sum of atomic charges:    0.0000000

LOEWDIN ATOMIC CHARGES
----------------------
   0 S :    0.416028
   1 C :   -0.216643
   2 C :   -0.066331
   3 C :   -0.061261
   4 C :   -0.200773
   5 H :    0.034036
   6 C :   -0.036690
   7 H :    0.042730
   8 H :    0.028061
   9 C :   -0.041808
  10 H :    0.023102
  11 H :    0.028246
  12 C :   -0.074508
  13 H :    0.035810
  14 H :    0.028476
  15 H :    0.023140
  16 S :    0.382907
  17 C :   -0.161910
  18 C :   -0.076615
  19 C :   -0.046536
  20 C :   -0.192601
  21 H :    0.031081
  22 C :   -0.031481
  23 H :    0.033836
  24 H :    0.025835
  25 C :   -0.035671
  26 H :    0.026606
  27 H :    0.027115
  28 C :   -0.056639
  29 H :    0.018694
  30 H :    0.025857
  31 H :    0.026207
  32 H :    0.027284
  33 H :    0.014415

  Mayer bond orders larger than 0.100000
B(  0-S ,  1-C ) :   1.1525 B(  0-S ,  4-C ) :   1.1383 B(  1-C ,  2-C ) :   1.6129
B(  1-C , 32-H ) :   0.9620 B(  2-C ,  3-C ) :   1.2378 B(  2-C ,  6-C ) :   1.0127
B(  3-C ,  4-C ) :   1.5887 B(  3-C ,  5-H ) :   0.9918 B(  4-C , 20-C ) :   1.0591
B(  6-C ,  7-H ) :   0.9308 B(  6-C ,  8-H ) :   0.9453 B(  6-C ,  9-C ) :   1.0842
B(  9-C , 10-H ) :   0.9525 B(  9-C , 11-H ) :   0.9499 B(  9-C , 12-C ) :   1.0665
B( 12-C , 13-H ) :   0.9731 B( 12-C , 14-H ) :   0.9762 B( 12-C , 15-H ) :   0.9760
B( 16-S , 17-C ) :   1.1460 B( 16-S , 20-C ) :   1.1104 B( 17-C , 18-C ) :   1.6600
B( 17-C , 33-H ) :   0.9776 B( 18-C , 19-C ) :   1.1669 B( 18-C , 21-H ) :   0.9922
B( 19-C , 20-C ) :   1.6084 B( 19-C , 22-C ) :   1.0425 B( 22-C , 23-H ) :   0.9429
B( 22-C , 24-H ) :   0.9362 B( 22-C , 25-C ) :   1.0615 B( 25-C , 26-H ) :   0.9597
B( 25-C , 27-H ) :   0.9515 B( 25-C , 28-C ) :   1.0868 B( 28-C , 29-H ) :   0.9738
B( 28-C , 30-H ) :   0.9718 B( 28-C , 31-H ) :   0.9736

Dispersion correction           -0.013819084
FINAL SINGLE POINT ENERGY     -1339.867738054384

DIPOLE MOMENT
-------------
                                X             Y             Z
Electronic contribution:    -12.62060      11.68720     -17.78283
Nuclear contribution   :     12.95576     -11.85657      18.53968
                        -----------------------------------------
Total Dipole Moment    :      0.33516      -0.16937       0.75686
                        -----------------------------------------
Magnitude (a.u.)       :      0.84490
Magnitude (Debye)      :      2.14756

Rotational constants in cm-1:     0.019271     0.007857     0.006319
Rotational constants in MHz :   577.738765   235.556567   189.453501

                             ****ORCA TERMINATED NORMALLY****
TOTAL RUN TIME: 0 days 0 hours 0 minutes 34 seconds 358 msec
