                         Program Version 4.2.1 -  RELEASE  -
|  1> ! wB97X-D3 SP def2-SVP
|  2> %pal
|  3> nprocs 16
|  4> end
|  5>
|  6> * xyz 0 1
|  7> S 	 -40.3492 	 50.1411 	 102.92
|  8> C 	 -40.3236 	 51.4883 	 104.084
|  9> C 	 -41.3983 	 51.5342 	 104.962
| 10> C 	 -42.2968 	 50.5214 	 104.596
| 11> C 	 -41.8615 	 49.6846 	 103.565
| 12> H 	 -43.3112 	 50.3273 	 104.977
| 13> C 	 -41.6012 	 52.7298 	 105.906
| 14> H 	 -41.191 	 53.617 	 105.599
| 15> H 	 -40.9679 	 52.586 	 106.786
| 16> C 	 -42.972 	 52.8237 	 106.379
| 17> H 	 -43.4047 	 51.8274 	 106.597
| 18> H 	 -43.0263 	 53.3445 	 107.355
| 19> C 	 -43.8523 	 53.4452 	 105.329
| 20> H 	 -43.498 	 54.4662 	 105.378
| 21> H 	 -43.7651 	 53.0057 	 104.359
| 22> H 	 -44.8639 	 53.3746 	 105.642
| 23> S 	 -43.7389 	 48.2613 	 102.325
| 24> C 	 -43.699 	 46.5274 	 102.228
| 25> C 	 -42.8458 	 46.0638 	 103.233
| 26> C 	 -42.0942 	 47.083 	 103.875
| 27> C 	 -42.3754 	 48.3389 	 103.34
| 28> H 	 -42.7603 	 45.0346 	 103.536
| 29> C 	 -41.1468 	 46.7684 	 104.958
| 30> H 	 -41.7843 	 46.2001 	 105.596
| 31> H 	 -41.0121 	 47.6133 	 105.499
| 32> C 	 -39.846 	 45.9938 	 104.546
| 33> H 	 -39.3464 	 46.6651 	 103.818
| 34> H 	 -40.0191 	 45.0643 	 103.945
| 35> C 	 -38.925 	 45.7506 	 105.693
| 36> H 	 -38.668 	 46.6843 	 106.138
| 37> H 	 -38.0336 	 45.1944 	 105.384
| 38> H 	 -39.5596 	 45.0835 	 106.311
| 39> H 	 -39.4238 	 52.1404 	 104.189
| 40> H 	 -44.4162 	 46.0128 	 101.697
| 41> *
| 42>
| 43>                          ****END OF INPUT****

CARTESIAN COORDINATES (ANGSTROEM)
---------------------------------
  S    -40.349200   50.141100  102.920000
  C    -40.323600   51.488300  104.084000
  C    -41.398300   51.534200  104.962000
  C    -42.296800   50.521400  104.596000
  C    -41.861500   49.684600  103.565000
  H    -43.311200   50.327300  104.977000
  C    -41.601200   52.729800  105.906000
  H    -41.191000   53.617000  105.599000
  H    -40.967900   52.586000  106.786000
  C    -42.972000   52.823700  106.379000
  H    -43.404700   51.827400  106.597000
  H    -43.026300   53.344500  107.355000
  C    -43.852300   53.445200  105.329000
  H    -43.498000   54.466200  105.378000
  H    -43.765100   53.005700  104.359000
  H    -44.863900   53.374600  105.642000
  S    -43.738900   48.261300  102.325000
  C    -43.699000   46.527400  102.228000
  C    -42.845800   46.063800  103.233000
  C    -42.094200   47.083000  103.875000
  C    -42.375400   48.338900  103.340000
  H    -42.760300   45.034600  103.536000
  C    -41.146800   46.768400  104.958000
  H    -41.784300   46.200100  105.596000
  H    -41.012100   47.613300  105.499000
  C    -39.846000   45.993800  104.546000
  H    -39.346400   46.665100  103.818000
  H    -40.019100   45.064300  103.945000
  C    -38.925000   45.750600  105.693000
  H    -38.668000   46.684300  106.138000
  H    -38.033600   45.194400  105.384000
  H    -39.559600   45.083500  106.311000
  H    -39.423800   52.140400  104.189000
  H    -44.416200   46.012800  101.697000

 Total Charge           Charge          ....    0
 Multiplicity           Mult            ....    1
 Number of Electrons    NEL             ....  134
 Basis Dimension        Dim             ....  322

ORBITAL ENERGIES
----------------

  NO   OCC          E(Eh)            E(eV)
   0   2.0000     -88.970997     -2421.0239
   1   2.0000     -88.956893     -2420.6401
   2   2.0000     -10.322503      -280.8896
   3   2.0000     -10.317684      -280.7584
   4   2.0000     -10.316697      -280.7316
   5   2.0000     -10.309540      -280.5368
   6   2.0000     -10.304286      -280.3939
   7   2.0000     -10.296808      -280.1904
   8   2.0000     -10.294950      -280.1398
   9   2.0000     -10.290371      -280.0152
  10   2.0000     -10.286877      -279.9202
  11   2.0000     -10.285514      -279.8831
  12   2.0000     -10.280526      -279.7473
  13   2.0000     -10.276880      -279.6481
  14   2.0000     -10.274100      -279.5725
  15   2.0000     -10.265899      -279.3493
  16   2.0000      -8.085714      -220.0235
  17   2.0000      -8.073064      -219.6792
  18   2.0000      -6.043834      -164.4611
  19   2.0000      -6.040238      -164.3632
  20   2.0000      -6.036872      -164.2716
  21   2.0000      -6.031370      -164.1219
  22   2.0000      -6.027281      -164.0107
  23   2.0000      -6.024063      -163.9231
  24   2.0000      -1.011461       -27.5232
  25   2.0000      -0.987890       -26.8819
  26   2.0000      -0.929886       -25.3035
  27   2.0000      -0.912833       -24.8394
  28   2.0000      -0.869746       -23.6670
  29   2.0000      -0.857023       -23.3208
  30   2.0000      -0.848585       -23.0912
  31   2.0000      -0.813890       -22.1471
  32   2.0000      -0.789934       -21.4952
  33   2.0000      -0.772409       -21.0183
  34   2.0000      -0.706103       -19.2141
  35   2.0000      -0.697159       -18.9707
  36   2.0000      -0.683191       -18.5906
  37   2.0000      -0.667315       -18.1586
  38   2.0000      -0.644228       -17.5303
  39   2.0000      -0.626462       -17.0469
  40   2.0000      -0.601694       -16.3729
  41   2.0000      -0.570567       -15.5259
  42   2.0000      -0.565054       -15.3759
  43   2.0000      -0.560112       -15.2414
  44   2.0000      -0.541849       -14.7445
  45   2.0000      -0.534171       -14.5355
  46   2.0000      -0.523490       -14.2449
  47   2.0000      -0.517034       -14.0692
  48   2.0000      -0.508919       -13.8484
  49   2.0000      -0.491866       -13.3844
  50   2.0000      -0.490613       -13.3503
  51   2.0000      -0.483572       -13.1587
  52   2.0000      -0.468757       -12.7555
  53   2.0000      -0.467747       -12.7281
  54   2.0000      -0.459734       -12.5100
  55   2.0000      -0.451288       -12.2802
  56   2.0000      -0.443776       -12.0758
  57   2.0000      -0.436873       -11.8879
  58   2.0000      -0.435350       -11.8465
  59   2.0000      -0.426600       -11.6084
  60   2.0000      -0.420564       -11.4441
  61   2.0000      -0.410359       -11.1664
  62   2.0000      -0.407035       -11.0760
  63   2.0000      -0.340408        -9.2630
  64   2.0000      -0.327396        -8.9089
  65   2.0000      -0.314907        -8.5691
  66   2.0000      -0.302314        -8.2264
  67   0.0000       0.041898         1.1401
  68   0.0000       0.053326         1.4511
  69   0.0000       0.110452         3.0056
  70   0.0000       0.116079         3.1587
  71   0.0000       0.131877         3.5886

MULLIKEN ATOMIC CHARGES
-----------------------
   0 S :    0.136915
   1 C :   -0.155976
   2 C :   -0.065165
   3 C :    0.017486
   4 C :   -0.169012
   5 H :    0.020049
   6 C :    0.152488
   7 H :   -0.005578
   8 H :    0.020876
   9 C :   -0.120121
  10 H :    0.022271
  11 H :    0.027670
  12 C :   -0.011723
  13 H :    0.022004
  14 H :    0.042943
  15 H :    0.025289
  16 S :    0.099698
  17 C :   -0.061621
  18 C :   -0.032355
  19 C :   -0.044295
  20 C :   -0.208380
  21 H :    0.011894
  22 C :    0.149918
  23 H :    0.006808
  24 H :   -0.016366
  25 C :   -0.103756
  26 H :    0.023657
  27 H :    0.033077
  28 C :   -0.008018
  29 H :    0.033091
  30 H :    0.037935
  31 H :    0.026988
  32 H :    0.058867
  33 H :    0.032441
Sum of atomic charges:    0.0000000

LOEWDIN ATOMIC CHARGES
----------------------
   0 S :    0.429228
   1 C :   -0.190460
   2 C :   -0.058910
   3 C :   -0.064955
   4 C :   -0.225282
   5 H :    0.034028
   6 C :   -0.024637
   7 H :    0.019395
   8 H :    0.038601
   9 C :   -0.048234
  10 H :    0.021566
  11 H :    0.027443
  12 C :   -0.055192
  13 H :    0.025819
  14 H :    0.025202
  15 H :    0.021174
  16 S :    0.432430
  17 C :   -0.180194
  18 C :   -0.065403
  19 C :   -0.055669
  20 C :   -0.223177
  21 H :    0.027325
  22 C :   -0.025362
  23 H :    0.031382
  24 H :    0.017777
  25 C :   -0.041943
  26 H :    0.021502
  27 H :    0.026589
  28 C :   -0.061484
  29 H :    0.023121
  30 H :    0.028749
  31 H :    0.028834
  32 H :    0.030220
  33 H :    0.010518

  Mayer bond orders larger than 0.100000
B(  0-S ,  1-C ) :   1.1611 B(  0-S ,  4-C ) :   1.1732 B(  1-C ,  2-C ) :   1.5910
B(  1-C ,  4-C ) :   0.1052 B(  1-C , 32-H ) :   0.9621 B(  2-C ,  3-C ) :   1.2684
B(  2-C ,  6-C ) :   0.9968 B(  3-C ,  4-C ) :   1.5626 B(  3-C ,  5-H ) :   0.9836
B(  4-C , 20-C ) :   0.9844 B(  6-C ,  7-H ) :   0.9405 B(  6-C ,  8-H ) :   0.9130
B(  6-C ,  9-C ) :   1.0965 B(  9-C , 10-H ) :   0.9458 B(  9-C , 11-H ) :   0.9515
B(  9-C , 12-C ) :   1.0708 B( 12-C , 13-H ) :   0.9755 B( 12-C , 14-H ) :   0.9748
B( 12-C , 15-H ) :   0.9734 B( 16-S , 17-C ) :   1.1744 B( 16-S , 20-C ) :   1.1749
B( 17-C , 18-C ) :   1.5441 B( 17-C , 20-C ) :   0.1066 B( 17-C , 33-H ) :   0.9851
B( 18-C , 19-C ) :   1.2777 B( 18-C , 21-H ) :   0.9922 B( 19-C , 20-C ) :   1.5583
B( 19-C , 22-C ) :   1.0465 B( 22-C , 23-H ) :   0.9168 B( 22-C , 24-H ) :   0.9173
B( 22-C , 25-C ) :   1.0457 B( 25-C , 26-H ) :   0.9516 B( 25-C , 27-H ) :   0.9574
B( 25-C , 28-C ) :   1.0858 B( 28-C , 29-H ) :   0.9729 B( 28-C , 30-H ) :   0.9717
B( 28-C , 31-H ) :   0.9756

Dispersion correction           -0.014550729
FINAL SINGLE POINT ENERGY     -1339.848081027568

DIPOLE MOMENT
-------------
                                X             Y             Z
Electronic contribution:     -3.89311      -2.28208     -18.08143
Nuclear contribution   :      4.01102       2.33187      18.72251
                        -----------------------------------------
Total Dipole Moment    :      0.11791       0.04978       0.64108
                        -----------------------------------------
Magnitude (a.u.)       :      0.65373
Magnitude (Debye)      :      1.66165

Rotational constants in cm-1:     0.018545     0.008814     0.007257
Rotational constants in MHz :   555.950590   264.236277   217.567927

                             ****ORCA TERMINATED NORMALLY****
TOTAL RUN TIME: 0 days 0 hours 0 minutes 30 seconds 245 msec
