                         Program Version 4.2.1 -  RELEASE  -
|  1> ! wB97X-D3 SP def2-SVP
|  2> %pal
|  3> nprocs 16
|  4> end
|  5>
|  6> * xyz 0 1
|  7> S 	 -70.0177 	 39.2794 	 113.851
|  8> C 	 -70.8813 	 38.9871 	 115.306
|  9> C 	 -71.6179 	 37.8154 	 115.255
| 10> C 	 -71.3821 	 37.1428 	 114.05
| 11> C 	 -70.6237 	 37.8145 	 113.148
| 12> H 	 -71.7953 	 36.152 	 113.856
| 13> C 	 -72.4819 	 37.2108 	 116.365
| 14> H 	 -73.4695 	 37.4278 	 116.105
| 15> H 	 -72.1489 	 37.6882 	 117.23
| 16> C 	 -72.3845 	 35.7389 	 116.666
| 17> H 	 -72.8131 	 35.209 	 115.865
| 18> H 	 -71.3461 	 35.3391 	 116.624
| 19> C 	 -73.0827 	 35.2484 	 117.964
| 20> H 	 -74.176 	 35.4975 	 118.045
| 21> H 	 -72.9527 	 34.1827 	 118.036
| 22> H 	 -72.6596 	 35.6355 	 118.851
| 23> S 	 -70.8972 	 38.1602 	 110.424
| 24> C 	 -70.0072 	 37.0584 	 109.33
| 25> C 	 -69.3925 	 36.043 	 110.035
| 26> C 	 -69.5964 	 36.1747 	 111.445
| 27> C 	 -70.182 	 37.3687 	 111.824
| 28> H 	 -68.8635 	 35.248 	 109.648
| 29> C 	 -68.839 	 35.1537 	 112.388
| 30> H 	 -69.2321 	 34.0869 	 112.246
| 31> H 	 -69.1492 	 35.4134 	 113.388
| 32> C 	 -67.2369 	 35.1565 	 112.356
| 33> H 	 -66.8738 	 36.13 	 112.572
| 34> H 	 -66.8266 	 34.9189 	 111.359
| 35> C 	 -66.5824 	 34.1156 	 113.31
| 36> H 	 -65.4937 	 34.1644 	 113.143
| 37> H 	 -66.7768 	 33.1352 	 112.953
| 38> H 	 -66.7111 	 34.3376 	 114.386
| 39> H 	 -70.9376 	 39.6462 	 116.121
| 40> H 	 -69.9861 	 37.0366 	 108.268
| 41> *
| 42>
| 43>                          ****END OF INPUT****

CARTESIAN COORDINATES (ANGSTROEM)
---------------------------------
  S    -70.017700   39.279400  113.851000
  C    -70.881300   38.987100  115.306000
  C    -71.617900   37.815400  115.255000
  C    -71.382100   37.142800  114.050000
  C    -70.623700   37.814500  113.148000
  H    -71.795300   36.152000  113.856000
  C    -72.481900   37.210800  116.365000
  H    -73.469500   37.427800  116.105000
  H    -72.148900   37.688200  117.230000
  C    -72.384500   35.738900  116.666000
  H    -72.813100   35.209000  115.865000
  H    -71.346100   35.339100  116.624000
  C    -73.082700   35.248400  117.964000
  H    -74.176000   35.497500  118.045000
  H    -72.952700   34.182700  118.036000
  H    -72.659600   35.635500  118.851000
  S    -70.897200   38.160200  110.424000
  C    -70.007200   37.058400  109.330000
  C    -69.392500   36.043000  110.035000
  C    -69.596400   36.174700  111.445000
  C    -70.182000   37.368700  111.824000
  H    -68.863500   35.248000  109.648000
  C    -68.839000   35.153700  112.388000
  H    -69.232100   34.086900  112.246000
  H    -69.149200   35.413400  113.388000
  C    -67.236900   35.156500  112.356000
  H    -66.873800   36.130000  112.572000
  H    -66.826600   34.918900  111.359000
  C    -66.582400   34.115600  113.310000
  H    -65.493700   34.164400  113.143000
  H    -66.776800   33.135200  112.953000
  H    -66.711100   34.337600  114.386000
  H    -70.937600   39.646200  116.121000
  H    -69.986100   37.036600  108.268000

 Total Charge           Charge          ....    0
 Multiplicity           Mult            ....    1
 Number of Electrons    NEL             ....  134
 Basis Dimension        Dim             ....  322

ORBITAL ENERGIES
----------------

  NO   OCC          E(Eh)            E(eV)
   0   2.0000     -88.965956     -2420.8868
   1   2.0000     -88.965609     -2420.8773
   2   2.0000     -10.326403      -280.9957
   3   2.0000     -10.323321      -280.9119
   4   2.0000     -10.318398      -280.7779
   5   2.0000     -10.308007      -280.4951
   6   2.0000     -10.303828      -280.3814
   7   2.0000     -10.300788      -280.2987
   8   2.0000     -10.295823      -280.1636
   9   2.0000     -10.290309      -280.0135
  10   2.0000     -10.287378      -279.9338
  11   2.0000     -10.287316      -279.9321
  12   2.0000     -10.285961      -279.8952
  13   2.0000     -10.282772      -279.8084
  14   2.0000     -10.280948      -279.7588
  15   2.0000     -10.279693      -279.7247
  16   2.0000      -8.081546      -219.9101
  17   2.0000      -8.079568      -219.8562
  18   2.0000      -6.039936      -164.3550
  19   2.0000      -6.038272      -164.3097
  20   2.0000      -6.035854      -164.2439
  21   2.0000      -6.034253      -164.2004
  22   2.0000      -6.032470      -164.1518
  23   2.0000      -6.030086      -164.0870
  24   2.0000      -1.010354       -27.4931
  25   2.0000      -0.983728       -26.7686
  26   2.0000      -0.915861       -24.9219
  27   2.0000      -0.891214       -24.2512
  28   2.0000      -0.870471       -23.6867
  29   2.0000      -0.851916       -23.1818
  30   2.0000      -0.845161       -22.9980
  31   2.0000      -0.816752       -22.2250
  32   2.0000      -0.786330       -21.3971
  33   2.0000      -0.768810       -20.9204
  34   2.0000      -0.713384       -19.4122
  35   2.0000      -0.698003       -18.9936
  36   2.0000      -0.694540       -18.8994
  37   2.0000      -0.664810       -18.0904
  38   2.0000      -0.644305       -17.5324
  39   2.0000      -0.625734       -17.0271
  40   2.0000      -0.588696       -16.0192
  41   2.0000      -0.578330       -15.7372
  42   2.0000      -0.567917       -15.4538
  43   2.0000      -0.560293       -15.2463
  44   2.0000      -0.528878       -14.3915
  45   2.0000      -0.519117       -14.1259
  46   2.0000      -0.511420       -13.9165
  47   2.0000      -0.506962       -13.7951
  48   2.0000      -0.502618       -13.6769
  49   2.0000      -0.496181       -13.5018
  50   2.0000      -0.489977       -13.3330
  51   2.0000      -0.483427       -13.1547
  52   2.0000      -0.473824       -12.8934
  53   2.0000      -0.466786       -12.7019
  54   2.0000      -0.459702       -12.5091
  55   2.0000      -0.450806       -12.2671
  56   2.0000      -0.448953       -12.2166
  57   2.0000      -0.436937       -11.8897
  58   2.0000      -0.426979       -11.6187
  59   2.0000      -0.423165       -11.5149
  60   2.0000      -0.422467       -11.4959
  61   2.0000      -0.420421       -11.4402
  62   2.0000      -0.414490       -11.2788
  63   2.0000      -0.342097        -9.3089
  64   2.0000      -0.332597        -9.0504
  65   2.0000      -0.327295        -8.9062
  66   2.0000      -0.301291        -8.1985
  67   0.0000       0.037256         1.0138
  68   0.0000       0.065831         1.7914
  69   0.0000       0.110617         3.0100
  70   0.0000       0.128456         3.4955
  71   0.0000       0.131284         3.5724

MULLIKEN ATOMIC CHARGES
-----------------------
   0 S :    0.127275
   1 C :   -0.105000
   2 C :   -0.121564
   3 C :    0.027384
   4 C :   -0.165305
   5 H :    0.010779
   6 C :    0.168542
   7 H :    0.027557
   8 H :   -0.001008
   9 C :   -0.105687
  10 H :    0.014989
  11 H :    0.030909
  12 C :   -0.038212
  13 H :    0.036904
  14 H :    0.031732
  15 H :    0.020185
  16 S :    0.102831
  17 C :   -0.061136
  18 C :    0.001542
  19 C :   -0.030365
  20 C :   -0.149752
  21 H :   -0.010810
  22 C :    0.035921
  23 H :    0.037142
  24 H :    0.016982
  25 C :   -0.064271
  26 H :    0.027532
  27 H :    0.023376
  28 C :   -0.055496
  29 H :    0.026644
  30 H :    0.025015
  31 H :    0.049983
  32 H :    0.021887
  33 H :    0.043497
Sum of atomic charges:    0.0000000

LOEWDIN ATOMIC CHARGES
----------------------
   0 S :    0.432858
   1 C :   -0.198958
   2 C :   -0.061847
   3 C :   -0.061713
   4 C :   -0.208015
   5 H :    0.032640
   6 C :   -0.019035
   7 H :    0.029213
   8 H :    0.022419
   9 C :   -0.043086
  10 H :    0.014447
  11 H :    0.029403
  12 C :   -0.060487
  13 H :    0.031363
  14 H :    0.027910
  15 H :    0.017131
  16 S :    0.389157
  17 C :   -0.164738
  18 C :   -0.056616
  19 C :   -0.053825
  20 C :   -0.200522
  21 H :    0.018655
  22 C :   -0.035402
  23 H :    0.035075
  24 H :    0.022415
  25 C :   -0.034242
  26 H :    0.019670
  27 H :    0.022208
  28 C :   -0.068145
  29 H :    0.030989
  30 H :    0.020101
  31 H :    0.029945
  32 H :    0.016543
  33 H :    0.024486

  Mayer bond orders larger than 0.100000
B(  0-S ,  1-C ) :   1.1591 B(  0-S ,  4-C ) :   1.1639 B(  1-C ,  2-C ) :   1.6027
B(  1-C , 32-H ) :   0.9714 B(  2-C ,  3-C ) :   1.2716 B(  2-C ,  6-C ) :   1.0035
B(  3-C ,  4-C ) :   1.5713 B(  3-C ,  5-H ) :   0.9980 B(  4-C , 20-C ) :   0.9915
B(  6-C ,  7-H ) :   0.9243 B(  6-C ,  8-H ) :   0.9407 B(  6-C ,  9-C ) :   1.0790
B(  9-C , 10-H ) :   0.9418 B(  9-C , 11-H ) :   0.9577 B(  9-C , 12-C ) :   1.0895
B( 12-C , 13-H ) :   0.9744 B( 12-C , 14-H ) :   0.9731 B( 12-C , 15-H ) :   0.9757
B( 16-S , 17-C ) :   1.1374 B( 16-S , 20-C ) :   1.1369 B( 17-C , 18-C ) :   1.6162
B( 17-C , 33-H ) :   0.9707 B( 18-C , 19-C ) :   1.2309 B( 18-C , 21-H ) :   1.0008
B( 19-C , 20-C ) :   1.6213 B( 19-C , 22-C ) :   1.0388 B( 22-C , 23-H ) :   0.9429
B( 22-C , 24-H ) :   0.9413 B( 22-C , 25-C ) :   1.0464 B( 25-C , 26-H ) :   0.9591
B( 25-C , 27-H ) :   0.9582 B( 25-C , 28-C ) :   1.0863 B( 28-C , 29-H ) :   0.9714
B( 28-C , 30-H ) :   0.9746 B( 28-C , 31-H ) :   0.9770

Dispersion correction           -0.013712464
FINAL SINGLE POINT ENERGY     -1339.868303131557

DIPOLE MOMENT
-------------
                                X             Y             Z
Electronic contribution:     -3.48207      22.78228     -18.90356
Nuclear contribution   :      3.53585     -23.42723      19.25568
                        -----------------------------------------
Total Dipole Moment    :      0.05378      -0.64495       0.35212
                        -----------------------------------------
Magnitude (a.u.)       :      0.73678
Magnitude (Debye)      :      1.87274

Rotational constants in cm-1:     0.016091     0.008410     0.006733
Rotational constants in MHz :   482.397853   252.116779   201.856239

                             ****ORCA TERMINATED NORMALLY****
TOTAL RUN TIME: 0 days 0 hours 0 minutes 29 seconds 35 msec
