                         Program Version 4.2.1 -  RELEASE  -
|  1> ! wB97X-D3 SP def2-SVP
|  2> %pal
|  3> nprocs 16
|  4> end
|  5>
|  6> * xyz 0 1
|  7> S 	 -29.9968 	 28.868 	 48.6396
|  8> C 	 -29.7521 	 29.6998 	 50.1296
|  9> C 	 -30.8173 	 30.5028 	 50.4791
| 10> C 	 -31.8987 	 30.4074 	 49.568
| 11> C 	 -31.6032 	 29.5551 	 48.5176
| 12> H 	 -32.8929 	 30.8867 	 49.6342
| 13> C 	 -30.8973 	 31.3981 	 51.7345
| 14> H 	 -29.8794 	 31.7361 	 52.0389
| 15> H 	 -31.3894 	 30.8858 	 52.5544
| 16> C 	 -31.6997 	 32.7431 	 51.5879
| 17> H 	 -32.7138 	 32.5194 	 51.3279
| 18> H 	 -31.7611 	 33.3147 	 52.5323
| 19> C 	 -31.107 	 33.7332 	 50.528
| 20> H 	 -31.0232 	 33.3477 	 49.5584
| 21> H 	 -31.8854 	 34.5094 	 50.517
| 22> H 	 -30.1811 	 34.1797 	 50.8372
| 23> S 	 -32.212 	 29.5752 	 45.8246
| 24> C 	 -33.6188 	 28.7401 	 45.2629
| 25> C 	 -34.2878 	 28.1571 	 46.2864
| 26> C 	 -33.6665 	 28.3254 	 47.5843
| 27> C 	 -32.5535 	 29.1246 	 47.4833
| 28> H 	 -35.2695 	 27.6455 	 46.0768
| 29> C 	 -34.296 	 27.7483 	 48.8157
| 30> H 	 -35.3015 	 28.0688 	 48.9118
| 31> H 	 -33.8312 	 28.3828 	 49.6366
| 32> C 	 -34.2509 	 26.2303 	 49.057
| 33> H 	 -33.1969 	 25.9815 	 49.1154
| 34> H 	 -34.6767 	 25.6941 	 48.2291
| 35> C 	 -35.1325 	 25.8013 	 50.2588
| 36> H 	 -34.8533 	 24.8093 	 50.4108
| 37> H 	 -36.1704 	 25.9468 	 49.9785
| 38> H 	 -34.9913 	 26.5324 	 51.0399
| 39> H 	 -28.8816 	 29.519 	 50.6874
| 40> H 	 -34.0065 	 28.8298 	 44.2558
| 41> *
| 42>
| 43>                          ****END OF INPUT****

CARTESIAN COORDINATES (ANGSTROEM)
---------------------------------
  S    -29.996800   28.868000   48.639600
  C    -29.752100   29.699800   50.129600
  C    -30.817300   30.502800   50.479100
  C    -31.898700   30.407400   49.568000
  C    -31.603200   29.555100   48.517600
  H    -32.892900   30.886700   49.634200
  C    -30.897300   31.398100   51.734500
  H    -29.879400   31.736100   52.038900
  H    -31.389400   30.885800   52.554400
  C    -31.699700   32.743100   51.587900
  H    -32.713800   32.519400   51.327900
  H    -31.761100   33.314700   52.532300
  C    -31.107000   33.733200   50.528000
  H    -31.023200   33.347700   49.558400
  H    -31.885400   34.509400   50.517000
  H    -30.181100   34.179700   50.837200
  S    -32.212000   29.575200   45.824600
  C    -33.618800   28.740100   45.262900
  C    -34.287800   28.157100   46.286400
  C    -33.666500   28.325400   47.584300
  C    -32.553500   29.124600   47.483300
  H    -35.269500   27.645500   46.076800
  C    -34.296000   27.748300   48.815700
  H    -35.301500   28.068800   48.911800
  H    -33.831200   28.382800   49.636600
  C    -34.250900   26.230300   49.057000
  H    -33.196900   25.981500   49.115400
  H    -34.676700   25.694100   48.229100
  C    -35.132500   25.801300   50.258800
  H    -34.853300   24.809300   50.410800
  H    -36.170400   25.946800   49.978500
  H    -34.991300   26.532400   51.039900
  H    -28.881600   29.519000   50.687400
  H    -34.006500   28.829800   44.255800

 Total Charge           Charge          ....    0
 Multiplicity           Mult            ....    1
 Number of Electrons    NEL             ....  134
 Basis Dimension        Dim             ....  322

ORBITAL ENERGIES
----------------

  NO   OCC          E(Eh)            E(eV)
   0   2.0000     -88.967515     -2420.9292
   1   2.0000     -88.960714     -2420.7441
   2   2.0000     -10.327461      -281.0245
   3   2.0000     -10.323526      -280.9174
   4   2.0000     -10.311237      -280.5830
   5   2.0000     -10.309413      -280.5334
   6   2.0000     -10.302947      -280.3574
   7   2.0000     -10.301314      -280.3130
   8   2.0000     -10.296776      -280.1895
   9   2.0000     -10.296254      -280.1753
  10   2.0000     -10.292570      -280.0751
  11   2.0000     -10.289819      -280.0002
  12   2.0000     -10.286843      -279.9192
  13   2.0000     -10.281860      -279.7836
  14   2.0000     -10.273251      -279.5494
  15   2.0000     -10.270377      -279.4712
  16   2.0000      -8.082785      -219.9438
  17   2.0000      -8.076201      -219.7646
  18   2.0000      -6.041117      -164.3872
  19   2.0000      -6.037242      -164.2817
  20   2.0000      -6.034711      -164.2128
  21   2.0000      -6.033677      -164.1847
  22   2.0000      -6.030626      -164.1017
  23   2.0000      -6.026903      -164.0004
  24   2.0000      -1.008409       -27.4402
  25   2.0000      -0.987216       -26.8635
  26   2.0000      -0.908493       -24.7214
  27   2.0000      -0.902413       -24.5559
  28   2.0000      -0.868928       -23.6447
  29   2.0000      -0.852038       -23.1851
  30   2.0000      -0.846660       -23.0388
  31   2.0000      -0.813935       -22.1483
  32   2.0000      -0.782793       -21.3009
  33   2.0000      -0.772162       -21.0116
  34   2.0000      -0.706478       -19.2243
  35   2.0000      -0.697934       -18.9917
  36   2.0000      -0.691728       -18.8229
  37   2.0000      -0.654839       -17.8191
  38   2.0000      -0.644968       -17.5505
  39   2.0000      -0.621112       -16.9013
  40   2.0000      -0.596918       -16.2430
  41   2.0000      -0.563068       -15.3219
  42   2.0000      -0.559206       -15.2168
  43   2.0000      -0.547921       -14.9097
  44   2.0000      -0.540899       -14.7186
  45   2.0000      -0.539192       -14.6721
  46   2.0000      -0.518525       -14.1098
  47   2.0000      -0.511878       -13.9289
  48   2.0000      -0.504547       -13.7294
  49   2.0000      -0.497110       -13.5271
  50   2.0000      -0.491304       -13.3691
  51   2.0000      -0.480621       -13.0784
  52   2.0000      -0.466570       -12.6960
  53   2.0000      -0.464235       -12.6325
  54   2.0000      -0.453887       -12.3509
  55   2.0000      -0.448738       -12.2108
  56   2.0000      -0.445492       -12.1225
  57   2.0000      -0.440607       -11.9895
  58   2.0000      -0.431710       -11.7474
  59   2.0000      -0.425802       -11.5867
  60   2.0000      -0.424406       -11.5487
  61   2.0000      -0.411180       -11.1888
  62   2.0000      -0.406039       -11.0489
  63   2.0000      -0.340058        -9.2535
  64   2.0000      -0.333481        -9.0745
  65   2.0000      -0.327455        -8.9105
  66   2.0000      -0.301680        -8.2091
  67   0.0000       0.044416         1.2086
  68   0.0000       0.062748         1.7075
  69   0.0000       0.121553         3.3076
  70   0.0000       0.125556         3.4165
  71   0.0000       0.130384         3.5479

MULLIKEN ATOMIC CHARGES
-----------------------
   0 S :    0.128698
   1 C :   -0.116981
   2 C :   -0.064488
   3 C :    0.025078
   4 C :   -0.170535
   5 H :    0.031718
   6 C :    0.078518
   7 H :    0.026700
   8 H :    0.043199
   9 C :   -0.118186
  10 H :    0.019916
  11 H :    0.035404
  12 C :   -0.035212
  13 H :    0.035217
  14 H :    0.027356
  15 H :    0.029949
  16 S :    0.100986
  17 C :   -0.088608
  18 C :   -0.051607
  19 C :   -0.010071
  20 C :   -0.198994
  21 H :    0.035576
  22 C :    0.056028
  23 H :    0.003356
  24 H :    0.018813
  25 C :   -0.071062
  26 H :    0.035295
  27 H :    0.021809
  28 C :   -0.002848
  29 H :    0.037550
  30 H :    0.025905
  31 H :    0.024328
  32 H :    0.029415
  33 H :    0.057773
Sum of atomic charges:   -0.0000000

LOEWDIN ATOMIC CHARGES
----------------------
   0 S :    0.422318
   1 C :   -0.193200
   2 C :   -0.066000
   3 C :   -0.063378
   4 C :   -0.196861
   5 H :    0.040094
   6 C :   -0.031719
   7 H :    0.031157
   8 H :    0.031761
   9 C :   -0.040232
  10 H :    0.013057
  11 H :    0.029511
  12 C :   -0.058500
  13 H :    0.017729
  14 H :    0.029600
  15 H :    0.021487
  16 S :    0.403106
  17 C :   -0.191600
  18 C :   -0.077868
  19 C :   -0.055543
  20 C :   -0.202441
  21 H :    0.039500
  22 C :   -0.042491
  23 H :    0.022047
  24 H :    0.036838
  25 C :   -0.032279
  26 H :    0.024339
  27 H :    0.020361
  28 C :   -0.050877
  29 H :    0.022759
  30 H :    0.025809
  31 H :    0.023419
  32 H :    0.017191
  33 H :    0.030906

  Mayer bond orders larger than 0.100000
B(  0-S ,  1-C ) :   1.1494 B(  0-S ,  4-C ) :   1.1689 B(  1-C ,  2-C ) :   1.6086
B(  1-C , 32-H ) :   0.9789 B(  2-C ,  3-C ) :   1.2376 B(  2-C ,  6-C ) :   1.0081
B(  3-C ,  4-C ) :   1.5804 B(  3-C ,  5-H ) :   0.9891 B(  4-C , 20-C ) :   1.0037
B(  6-C ,  7-H ) :   0.9490 B(  6-C ,  8-H ) :   0.9395 B(  6-C ,  9-C ) :   1.0744
B(  9-C , 10-H ) :   0.9536 B(  9-C , 11-H ) :   0.9585 B(  9-C , 12-C ) :   1.0743
B( 12-C , 13-H ) :   0.9779 B( 12-C , 14-H ) :   0.9752 B( 12-C , 15-H ) :   0.9776
B( 16-S , 17-C ) :   1.1434 B( 16-S , 20-C ) :   1.1433 B( 17-C , 18-C ) :   1.6444
B( 17-C , 33-H ) :   0.9653 B( 18-C , 19-C ) :   1.2083 B( 18-C , 21-H ) :   0.9798
B( 19-C , 20-C ) :   1.6263 B( 19-C , 22-C ) :   1.0470 B( 22-C , 23-H ) :   0.9305
B( 22-C , 24-H ) :   0.9201 B( 22-C , 25-C ) :   1.0605 B( 25-C , 26-H ) :   0.9569
B( 25-C , 27-H ) :   0.9573 B( 25-C , 28-C ) :   1.0712 B( 28-C , 29-H ) :   0.9750
B( 28-C , 30-H ) :   0.9745 B( 28-C , 31-H ) :   0.9770

Dispersion correction           -0.014194626
FINAL SINGLE POINT ENERGY     -1339.885305884301

DIPOLE MOMENT
-------------
                                X             Y             Z
Electronic contribution:     12.03499      -3.41895     -19.58387
Nuclear contribution   :    -12.50641       3.44615      20.03130
                        -----------------------------------------
Total Dipole Moment    :     -0.47142       0.02720       0.44743
                        -----------------------------------------
Magnitude (a.u.)       :      0.65052
Magnitude (Debye)      :      1.65348

Rotational constants in cm-1:     0.016999     0.008658     0.007316
Rotational constants in MHz :   509.613171   259.574963   219.330469

                             ****ORCA TERMINATED NORMALLY****
TOTAL RUN TIME: 0 days 0 hours 0 minutes 34 seconds 19 msec
