                         Program Version 4.2.1 -  RELEASE  -
|  1> ! wB97X-D3 SP def2-SVP
|  2> %pal
|  3> nprocs 16
|  4> end
|  5>
|  6> * xyz 0 1
|  7> S 	 -33.1319 	 30.7383 	 42.3714
|  8> C 	 -31.7385 	 29.8122 	 42.2193
|  9> C 	 -31.2341 	 29.3822 	 43.4445
| 10> C 	 -32.0695 	 29.8629 	 44.4924
| 11> C 	 -33.0708 	 30.7436 	 44.1652
| 12> H 	 -31.7613 	 29.5568 	 45.4861
| 13> C 	 -30.0476 	 28.4517 	 43.6515
| 14> H 	 -29.7713 	 27.7907 	 42.8382
| 15> H 	 -30.3726 	 27.8413 	 44.5267
| 16> C 	 -28.7346 	 29.2344 	 43.9564
| 17> H 	 -28.9496 	 29.6454 	 44.9306
| 18> H 	 -27.8596 	 28.5231 	 44.0285
| 19> C 	 -28.3773 	 30.2784 	 42.8618
| 20> H 	 -27.8578 	 29.8201 	 42.0839
| 21> H 	 -29.1057 	 31.0692 	 42.6095
| 22> H 	 -27.5313 	 30.8894 	 43.1604
| 23> S 	 -35.678 	 31.6149 	 44.4747
| 24> C 	 -36.0621 	 32.8622 	 45.704
| 25> C 	 -34.9458 	 33.1196 	 46.448
| 26> C 	 -33.8124 	 32.358 	 46.0721
| 27> C 	 -33.9461 	 31.6412 	 44.9098
| 28> H 	 -35.1212 	 33.9173 	 47.1784
| 29> C 	 -32.4423 	 32.5746 	 46.883
| 30> H 	 -32.1941 	 33.6258 	 46.6792
| 31> H 	 -31.701 	 31.9766 	 46.3027
| 32> C 	 -32.5294 	 32.3073 	 48.3852
| 33> H 	 -33.37 	 32.9176 	 48.7364
| 34> H 	 -31.6176 	 32.7675 	 48.8481
| 35> C 	 -32.6336 	 30.797 	 48.5908
| 36> H 	 -31.8181 	 30.2676 	 48.0906
| 37> H 	 -33.5697 	 30.4835 	 48.2204
| 38> H 	 -32.5174 	 30.5102 	 49.6243
| 39> H 	 -31.2917 	 29.613 	 41.2046
| 40> H 	 -36.9926 	 33.2738 	 46.0016
| 41> *
| 42>
| 43>                          ****END OF INPUT****

CARTESIAN COORDINATES (ANGSTROEM)
---------------------------------
  S    -33.131900   30.738300   42.371400
  C    -31.738500   29.812200   42.219300
  C    -31.234100   29.382200   43.444500
  C    -32.069500   29.862900   44.492400
  C    -33.070800   30.743600   44.165200
  H    -31.761300   29.556800   45.486100
  C    -30.047600   28.451700   43.651500
  H    -29.771300   27.790700   42.838200
  H    -30.372600   27.841300   44.526700
  C    -28.734600   29.234400   43.956400
  H    -28.949600   29.645400   44.930600
  H    -27.859600   28.523100   44.028500
  C    -28.377300   30.278400   42.861800
  H    -27.857800   29.820100   42.083900
  H    -29.105700   31.069200   42.609500
  H    -27.531300   30.889400   43.160400
  S    -35.678000   31.614900   44.474700
  C    -36.062100   32.862200   45.704000
  C    -34.945800   33.119600   46.448000
  C    -33.812400   32.358000   46.072100
  C    -33.946100   31.641200   44.909800
  H    -35.121200   33.917300   47.178400
  C    -32.442300   32.574600   46.883000
  H    -32.194100   33.625800   46.679200
  H    -31.701000   31.976600   46.302700
  C    -32.529400   32.307300   48.385200
  H    -33.370000   32.917600   48.736400
  H    -31.617600   32.767500   48.848100
  C    -32.633600   30.797000   48.590800
  H    -31.818100   30.267600   48.090600
  H    -33.569700   30.483500   48.220400
  H    -32.517400   30.510200   49.624300
  H    -31.291700   29.613000   41.204600
  H    -36.992600   33.273800   46.001600

 Total Charge           Charge          ....    0
 Multiplicity           Mult            ....    1
 Number of Electrons    NEL             ....  134
 Basis Dimension        Dim             ....  322

ORBITAL ENERGIES
----------------

  NO   OCC          E(Eh)            E(eV)
   0   2.0000     -88.963796     -2420.8280
   1   2.0000     -88.962978     -2420.8057
   2   2.0000     -10.335259      -281.2367
   3   2.0000     -10.332991      -281.1750
   4   2.0000     -10.317290      -280.7477
   5   2.0000     -10.315854      -280.7086
   6   2.0000     -10.307491      -280.4811
   7   2.0000     -10.300200      -280.2827
   8   2.0000     -10.297599      -280.2119
   9   2.0000     -10.296535      -280.1830
  10   2.0000     -10.295388      -280.1517
  11   2.0000     -10.294296      -280.1220
  12   2.0000     -10.293468      -280.0995
  13   2.0000     -10.291799      -280.0541
  14   2.0000     -10.273879      -279.5665
  15   2.0000     -10.273404      -279.5535
  16   2.0000      -8.079475      -219.8537
  17   2.0000      -8.076698      -219.7781
  18   2.0000      -6.037876      -164.2990
  19   2.0000      -6.035452      -164.2330
  20   2.0000      -6.033709      -164.1856
  21   2.0000      -6.031434      -164.1237
  22   2.0000      -6.030407      -164.0957
  23   2.0000      -6.027140      -164.0068
  24   2.0000      -1.007209       -27.4076
  25   2.0000      -0.985499       -26.8168
  26   2.0000      -0.908876       -24.7318
  27   2.0000      -0.905046       -24.6276
  28   2.0000      -0.872186       -23.7334
  29   2.0000      -0.849916       -23.1274
  30   2.0000      -0.839222       -22.8364
  31   2.0000      -0.817250       -22.2385
  32   2.0000      -0.784116       -21.3369
  33   2.0000      -0.774926       -21.0868
  34   2.0000      -0.711696       -19.3662
  35   2.0000      -0.695690       -18.9307
  36   2.0000      -0.693310       -18.8659
  37   2.0000      -0.656384       -17.8611
  38   2.0000      -0.638250       -17.3677
  39   2.0000      -0.630811       -17.1652
  40   2.0000      -0.589285       -16.0353
  41   2.0000      -0.574099       -15.6220
  42   2.0000      -0.553994       -15.0749
  43   2.0000      -0.552188       -15.0258
  44   2.0000      -0.545190       -14.8354
  45   2.0000      -0.535477       -14.5711
  46   2.0000      -0.518128       -14.0990
  47   2.0000      -0.510519       -13.8919
  48   2.0000      -0.501855       -13.6562
  49   2.0000      -0.498091       -13.5537
  50   2.0000      -0.488758       -13.2998
  51   2.0000      -0.474732       -12.9181
  52   2.0000      -0.470376       -12.7996
  53   2.0000      -0.465343       -12.6626
  54   2.0000      -0.459726       -12.5098
  55   2.0000      -0.445665       -12.1272
  56   2.0000      -0.441087       -12.0026
  57   2.0000      -0.437828       -11.9139
  58   2.0000      -0.430946       -11.7266
  59   2.0000      -0.427446       -11.6314
  60   2.0000      -0.418960       -11.4005
  61   2.0000      -0.409207       -11.1351
  62   2.0000      -0.405503       -11.0343
  63   2.0000      -0.356193        -9.6925
  64   2.0000      -0.332469        -9.0469
  65   2.0000      -0.328651        -8.9430
  66   2.0000      -0.288782        -7.8582
  67   0.0000       0.025178         0.6851
  68   0.0000       0.068557         1.8655
  69   0.0000       0.106455         2.8968
  70   0.0000       0.124878         3.3981
  71   0.0000       0.129141         3.5141

MULLIKEN ATOMIC CHARGES
-----------------------
   0 S :    0.109021
   1 C :   -0.130638
   2 C :   -0.131198
   3 C :    0.043515
   4 C :   -0.139134
   5 H :   -0.004434
   6 C :    0.054607
   7 H :    0.026944
   8 H :    0.037443
   9 C :   -0.078292
  10 H :    0.020723
  11 H :    0.040210
  12 C :   -0.036372
  13 H :    0.011098
  14 H :    0.059832
  15 H :    0.013343
  16 S :    0.079003
  17 C :   -0.071109
  18 C :   -0.058753
  19 C :   -0.047952
  20 C :   -0.107924
  21 H :    0.031281
  22 C :    0.026194
  23 H :    0.037715
  24 H :    0.021872
  25 C :   -0.068023
  26 H :    0.032198
  27 H :    0.036386
  28 C :   -0.014583
  29 H :    0.026474
  30 H :    0.037792
  31 H :    0.027108
  32 H :    0.073457
  33 H :    0.042198
Sum of atomic charges:   -0.0000000

LOEWDIN ATOMIC CHARGES
----------------------
   0 S :    0.421834
   1 C :   -0.214102
   2 C :   -0.075582
   3 C :   -0.060483
   4 C :   -0.186140
   5 H :    0.026368
   6 C :   -0.033471
   7 H :    0.027383
   8 H :    0.036075
   9 C :   -0.036736
  10 H :    0.016121
  11 H :    0.030707
  12 C :   -0.077923
  13 H :    0.019301
  14 H :    0.034999
  15 H :    0.030774
  16 S :    0.366650
  17 C :   -0.162756
  18 C :   -0.079694
  19 C :   -0.059751
  20 C :   -0.186131
  21 H :    0.038203
  22 C :   -0.028330
  23 H :    0.030882
  24 H :    0.026581
  25 C :   -0.043404
  26 H :    0.024840
  27 H :    0.029345
  28 C :   -0.056327
  29 H :    0.026032
  30 H :    0.024247
  31 H :    0.023648
  32 H :    0.040410
  33 H :    0.026430

  Mayer bond orders larger than 0.100000
B(  0-S ,  1-C ) :   1.1839 B(  0-S ,  4-C ) :   1.1463 B(  1-C ,  2-C ) :   1.5650
B(  1-C ,  4-C ) :   0.1023 B(  1-C , 32-H ) :   0.9596 B(  2-C ,  3-C ) :   1.2942
B(  2-C ,  6-C ) :   1.0150 B(  3-C ,  4-C ) :   1.5367 B(  3-C ,  5-H ) :   0.9918
B(  4-C , 20-C ) :   1.0331 B(  6-C ,  7-H ) :   0.9507 B(  6-C ,  8-H ) :   0.9449
B(  6-C ,  9-C ) :   1.0567 B(  9-C , 10-H ) :   0.9613 B(  9-C , 11-H ) :   0.9586
B(  9-C , 12-C ) :   1.0790 B( 12-C , 13-H ) :   0.9700 B( 12-C , 14-H ) :   0.9711
B( 12-C , 15-H ) :   0.9637 B( 16-S , 17-C ) :   1.1280 B( 16-S , 20-C ) :   1.1186
B( 17-C , 18-C ) :   1.6635 B( 17-C , 20-C ) :   0.1028 B( 17-C , 33-H ) :   0.9677
B( 18-C , 19-C ) :   1.1950 B( 18-C , 21-H ) :   0.9859 B( 19-C , 20-C ) :   1.6393
B( 19-C , 22-C ) :   1.0053 B( 22-C , 23-H ) :   0.9454 B( 22-C , 24-H ) :   0.9458
B( 22-C , 25-C ) :   1.0645 B( 25-C , 26-H ) :   0.9549 B( 25-C , 27-H ) :   0.9545
B( 25-C , 28-C ) :   1.0656 B( 28-C , 29-H ) :   0.9727 B( 28-C , 30-H ) :   0.9769
B( 28-C , 31-H ) :   0.9726

Dispersion correction           -0.014867612
FINAL SINGLE POINT ENERGY     -1339.862788667990

DIPOLE MOMENT
-------------
                                X             Y             Z
Electronic contribution:    -23.80861       3.41230     -14.15946
Nuclear contribution   :     24.40929      -3.36351      14.62986
                        -----------------------------------------
Total Dipole Moment    :      0.60068       0.04879       0.47040
                        -----------------------------------------
Magnitude (a.u.)       :      0.76451
Magnitude (Debye)      :      1.94323

Rotational constants in cm-1:     0.019454     0.009171     0.006859
Rotational constants in MHz :   583.207831   274.941194   205.618141

                             ****ORCA TERMINATED NORMALLY****
TOTAL RUN TIME: 0 days 0 hours 0 minutes 35 seconds 403 msec
