                         Program Version 4.2.1 -  RELEASE  -
|  1> ! wB97X-D3 SP def2-SVP
|  2> %pal
|  3> nprocs 16
|  4> end
|  5>
|  6> * xyz 0 1
|  7> S 	 -1.43418 	 -11.7528 	 80.2037
|  8> C 	 -1.93227 	 -10.2888 	 79.3932
|  9> C 	 -3.28314 	 -10.1698 	 79.4028
| 10> C 	 -3.88519 	 -11.2787 	 80.0401
| 11> C 	 -3.06407 	 -12.298 	 80.4623
| 12> H 	 -4.98482 	 -11.3475 	 80.0778
| 13> C 	 -4.09739 	 -9.08287 	 78.8534
| 14> H 	 -4.54385 	 -9.46094 	 77.9151
| 15> H 	 -3.43803 	 -8.25847 	 78.7086
| 16> C 	 -5.27202 	 -8.66635 	 79.8317
| 17> H 	 -5.64823 	 -9.50036 	 80.4012
| 18> H 	 -4.85023 	 -7.88982 	 80.5
| 19> C 	 -6.47438 	 -8.22895 	 78.9582
| 20> H 	 -7.35009 	 -8.11884 	 79.6407
| 21> H 	 -6.31641 	 -7.33926 	 78.4248
| 22> H 	 -6.76664 	 -9.02982 	 78.2393
| 23> S 	 -2.03864 	 -14.7012 	 81.3376
| 24> C 	 -3.12631 	 -15.9743 	 81.8087
| 25> C 	 -4.42111 	 -15.5217 	 81.7179
| 26> C 	 -4.62893 	 -14.1787 	 81.4039
| 27> C 	 -3.38295 	 -13.5806 	 81.1058
| 28> H 	 -5.19944 	 -16.1433 	 82.0671
| 29> C 	 -5.9625 	 -13.5062 	 81.4572
| 30> H 	 -5.83636 	 -12.4975 	 81.8475
| 31> H 	 -6.60439 	 -13.8463 	 82.2135
| 32> C 	 -6.76578 	 -13.6487 	 80.0982
| 33> H 	 -6.06419 	 -13.7117 	 79.3091
| 34> H 	 -7.30016 	 -12.8217 	 79.8704
| 35> C 	 -7.53965 	 -15.0061 	 80.2486
| 36> H 	 -6.7948 	 -15.7501 	 80.4941
| 37> H 	 -8.07118 	 -15.1534 	 79.3405
| 38> H 	 -8.29119 	 -15.0235 	 81.0484
| 39> H 	 -1.19917 	 -9.67877 	 78.8748
| 40> H 	 -2.8992 	 -16.9657 	 82.0985
| 41> *
| 42>
| 43>                          ****END OF INPUT****

CARTESIAN COORDINATES (ANGSTROEM)
---------------------------------
  S     -1.434180  -11.752800   80.203700
  C     -1.932270  -10.288800   79.393200
  C     -3.283140  -10.169800   79.402800
  C     -3.885190  -11.278700   80.040100
  C     -3.064070  -12.298000   80.462300
  H     -4.984820  -11.347500   80.077800
  C     -4.097390   -9.082870   78.853400
  H     -4.543850   -9.460940   77.915100
  H     -3.438030   -8.258470   78.708600
  C     -5.272020   -8.666350   79.831700
  H     -5.648230   -9.500360   80.401200
  H     -4.850230   -7.889820   80.500000
  C     -6.474380   -8.228950   78.958200
  H     -7.350090   -8.118840   79.640700
  H     -6.316410   -7.339260   78.424800
  H     -6.766640   -9.029820   78.239300
  S     -2.038640  -14.701200   81.337600
  C     -3.126310  -15.974300   81.808700
  C     -4.421110  -15.521700   81.717900
  C     -4.628930  -14.178700   81.403900
  C     -3.382950  -13.580600   81.105800
  H     -5.199440  -16.143300   82.067100
  C     -5.962500  -13.506200   81.457200
  H     -5.836360  -12.497500   81.847500
  H     -6.604390  -13.846300   82.213500
  C     -6.765780  -13.648700   80.098200
  H     -6.064190  -13.711700   79.309100
  H     -7.300160  -12.821700   79.870400
  C     -7.539650  -15.006100   80.248600
  H     -6.794800  -15.750100   80.494100
  H     -8.071180  -15.153400   79.340500
  H     -8.291190  -15.023500   81.048400
  H     -1.199170   -9.678770   78.874800
  H     -2.899200  -16.965700   82.098500

 Total Charge           Charge          ....    0
 Multiplicity           Mult            ....    1
 Number of Electrons    NEL             ....  134
 Basis Dimension        Dim             ....  322

ORBITAL ENERGIES
----------------

  NO   OCC          E(Eh)            E(eV)
   0   2.0000     -88.969509     -2420.9834
   1   2.0000     -88.958931     -2420.6956
   2   2.0000     -10.333776      -281.1963
   3   2.0000     -10.329518      -281.0805
   4   2.0000     -10.314930      -280.6835
   5   2.0000     -10.308799      -280.5167
   6   2.0000     -10.303793      -280.3805
   7   2.0000     -10.292234      -280.0659
   8   2.0000     -10.290813      -280.0273
   9   2.0000     -10.289538      -279.9926
  10   2.0000     -10.289111      -279.9809
  11   2.0000     -10.287108      -279.9265
  12   2.0000     -10.286565      -279.9117
  13   2.0000     -10.282332      -279.7965
  14   2.0000     -10.281687      -279.7789
  15   2.0000     -10.279412      -279.7170
  16   2.0000      -8.083961      -219.9758
  17   2.0000      -8.074373      -219.7149
  18   2.0000      -6.042497      -164.4247
  19   2.0000      -6.038457      -164.3148
  20   2.0000      -6.034768      -164.2144
  21   2.0000      -6.032988      -164.1660
  22   2.0000      -6.028776      -164.0513
  23   2.0000      -6.025001      -163.9486
  24   2.0000      -1.010282       -27.4912
  25   2.0000      -0.989809       -26.9341
  26   2.0000      -0.915465       -24.9111
  27   2.0000      -0.912271       -24.8242
  28   2.0000      -0.870613       -23.6906
  29   2.0000      -0.852892       -23.2084
  30   2.0000      -0.842990       -22.9389
  31   2.0000      -0.816180       -22.2094
  32   2.0000      -0.784247       -21.3405
  33   2.0000      -0.771499       -20.9936
  34   2.0000      -0.721237       -19.6259
  35   2.0000      -0.709842       -19.3158
  36   2.0000      -0.695687       -18.9306
  37   2.0000      -0.664283       -18.0761
  38   2.0000      -0.637947       -17.3594
  39   2.0000      -0.629822       -17.1383
  40   2.0000      -0.608314       -16.5531
  41   2.0000      -0.567755       -15.4494
  42   2.0000      -0.565731       -15.3943
  43   2.0000      -0.560584       -15.2543
  44   2.0000      -0.541277       -14.7289
  45   2.0000      -0.527324       -14.3492
  46   2.0000      -0.515652       -14.0316
  47   2.0000      -0.510667       -13.8960
  48   2.0000      -0.501301       -13.6411
  49   2.0000      -0.500446       -13.6178
  50   2.0000      -0.494299       -13.4505
  51   2.0000      -0.487940       -13.2775
  52   2.0000      -0.477010       -12.9801
  53   2.0000      -0.466666       -12.6986
  54   2.0000      -0.463082       -12.6011
  55   2.0000      -0.448795       -12.2123
  56   2.0000      -0.445361       -12.1189
  57   2.0000      -0.441641       -12.0177
  58   2.0000      -0.438140       -11.9224
  59   2.0000      -0.431225       -11.7342
  60   2.0000      -0.425346       -11.5742
  61   2.0000      -0.416190       -11.3251
  62   2.0000      -0.404113       -10.9965
  63   2.0000      -0.362036        -9.8515
  64   2.0000      -0.337458        -9.1827
  65   2.0000      -0.324401        -8.8274
  66   2.0000      -0.279781        -7.6132
  67   0.0000       0.017348         0.4721
  68   0.0000       0.094330         2.5668
  69   0.0000       0.097332         2.6485
  70   0.0000       0.119914         3.2630
  71   0.0000       0.132121         3.5952

MULLIKEN ATOMIC CHARGES
-----------------------
   0 S :    0.077843
   1 C :   -0.142625
   2 C :   -0.066281
   3 C :   -0.053341
   4 C :   -0.073985
   5 H :    0.003778
   6 C :    0.096264
   7 H :    0.042364
   8 H :    0.017244
   9 C :   -0.098758
  10 H :    0.034715
  11 H :    0.048019
  12 C :   -0.065322
  13 H :    0.034099
  14 H :    0.032537
  15 H :    0.036004
  16 S :    0.104793
  17 C :   -0.060378
  18 C :   -0.028927
  19 C :   -0.047615
  20 C :   -0.115388
  21 H :    0.004174
  22 C :    0.023023
  23 H :    0.025093
  24 H :    0.006635
  25 C :   -0.015309
  26 H :    0.027333
  27 H :    0.005953
  28 C :   -0.031057
  29 H :    0.031636
  30 H :    0.029846
  31 H :    0.029298
  32 H :    0.047416
  33 H :    0.040922
Sum of atomic charges:   -0.0000000

LOEWDIN ATOMIC CHARGES
----------------------
   0 S :    0.395325
   1 C :   -0.195693
   2 C :   -0.072259
   3 C :   -0.080079
   4 C :   -0.187739
   5 H :    0.027265
   6 C :   -0.025587
   7 H :    0.037020
   8 H :    0.027524
   9 C :   -0.032497
  10 H :    0.019660
  11 H :    0.031734
  12 C :   -0.064966
  13 H :    0.028225
  14 H :    0.015936
  15 H :    0.028181
  16 S :    0.410588
  17 C :   -0.183268
  18 C :   -0.071751
  19 C :   -0.052693
  20 C :   -0.181656
  21 H :    0.022080
  22 C :   -0.032181
  23 H :    0.030848
  24 H :    0.024170
  25 C :   -0.018009
  26 H :    0.022806
  27 H :    0.005389
  28 C :   -0.053996
  29 H :    0.026477
  30 H :    0.020794
  31 H :    0.024182
  32 H :    0.028391
  33 H :    0.025778

  Mayer bond orders larger than 0.100000
B(  0-S ,  1-C ) :   1.1302 B(  0-S ,  4-C ) :   1.1462 B(  1-C ,  2-C ) :   1.6029
B(  1-C , 32-H ) :   0.9706 B(  2-C ,  3-C ) :   1.2621 B(  2-C ,  6-C ) :   1.0261
B(  3-C ,  4-C ) :   1.5619 B(  3-C ,  5-H ) :   0.9803 B(  4-C , 20-C ) :   1.0760
B(  6-C ,  7-H ) :   0.9378 B(  6-C ,  8-H ) :   0.9360 B(  6-C ,  9-C ) :   1.0483
B(  9-C , 10-H ) :   0.9653 B(  9-C , 11-H ) :   0.9569 B(  9-C , 12-C ) :   1.0720
B( 12-C , 13-H ) :   0.9754 B( 12-C , 14-H ) :   0.9779 B( 12-C , 15-H ) :   0.9761
B( 16-S , 17-C ) :   1.1515 B( 16-S , 20-C ) :   1.1526 B( 17-C , 18-C ) :   1.5898
B( 17-C , 20-C ) :   0.1055 B( 17-C , 33-H ) :   0.9717 B( 18-C , 19-C ) :   1.2925
B( 18-C , 21-H ) :   0.9767 B( 19-C , 20-C ) :   1.5433 B( 19-C , 22-C ) :   1.0482
B( 22-C , 23-H ) :   0.9361 B( 22-C , 24-H ) :   0.9372 B( 22-C , 25-C ) :   1.0326
B( 25-C , 26-H ) :   0.9612 B( 25-C , 27-H ) :   0.9586 B( 25-C , 28-C ) :   1.0677
B( 28-C , 29-H ) :   0.9732 B( 28-C , 30-H ) :   0.9733 B( 28-C , 31-H ) :   0.9781

Dispersion correction           -0.014512797
FINAL SINGLE POINT ENERGY     -1339.866346416159

DIPOLE MOMENT
-------------
                                X             Y             Z
Electronic contribution:     29.04642     -10.96258       6.17701
Nuclear contribution   :    -29.81119      11.14122      -6.29291
                        -----------------------------------------
Total Dipole Moment    :     -0.76477       0.17864      -0.11589
                        -----------------------------------------
Magnitude (a.u.)       :      0.79386
Magnitude (Debye)      :      2.01784

Rotational constants in cm-1:     0.017548     0.010092     0.006662
Rotational constants in MHz :   526.069579   302.550843   199.712061

                             ****ORCA TERMINATED NORMALLY****
TOTAL RUN TIME: 0 days 0 hours 0 minutes 35 seconds 562 msec
