                         Program Version 4.2.1 -  RELEASE  -
|  1> ! wB97X-D3 SP def2-SVP
|  2> %pal
|  3> nprocs 16
|  4> end
|  5>
|  6> * xyz 0 1
|  7> S 	 28.6788 	 -7.43304 	 76.4934
|  8> C 	 30.1096 	 -6.65805 	 76.0039
|  9> C 	 30.7697 	 -6.06233 	 77.0524
| 10> C 	 30.1146 	 -6.32091 	 78.2969
| 11> C 	 29.0005 	 -7.10487 	 78.2127
| 12> H 	 30.4686 	 -5.94188 	 79.2603
| 13> C 	 32.0827 	 -5.46303 	 77.0504
| 14> H 	 32.0392 	 -4.49468 	 77.5604
| 15> H 	 32.2679 	 -5.27418 	 75.9831
| 16> C 	 33.2869 	 -6.23239 	 77.7323
| 17> H 	 33.2511 	 -6.28214 	 78.8444
| 18> H 	 33.3717 	 -7.24693 	 77.4792
| 19> C 	 34.5806 	 -5.53974 	 77.3657
| 20> H 	 35.4158 	 -5.94933 	 77.9068
| 21> H 	 34.836 	 -5.66081 	 76.2924
| 22> H 	 34.5488 	 -4.49388 	 77.6741
| 23> S 	 27.8907 	 -9.31187 	 79.4925
| 24> C 	 27.0092 	 -8.98307 	 80.9664
| 25> C 	 26.8659 	 -7.68759 	 81.3043
| 26> C 	 27.5264 	 -6.87182 	 80.3052
| 27> C 	 28.116 	 -7.61551 	 79.2459
| 28> H 	 26.41 	 -7.40264 	 82.3036
| 29> C 	 27.5501 	 -5.33338 	 80.5092
| 30> H 	 26.5465 	 -5.00361 	 80.7205
| 31> H 	 27.9096 	 -5.02207 	 79.5754
| 32> C 	 28.5073 	 -4.74371 	 81.6013
| 33> H 	 28.5511 	 -3.64271 	 81.4781
| 34> H 	 29.5067 	 -5.10207 	 81.3197
| 35> C 	 28.2388 	 -5.03868 	 83.1219
| 36> H 	 28.5176 	 -6.05696 	 83.4156
| 37> H 	 27.2126 	 -4.74255 	 83.3937
| 38> H 	 28.9253 	 -4.40973 	 83.6887
| 39> H 	 30.5394 	 -6.73262 	 75.0634
| 40> H 	 26.7495 	 -9.80592 	 81.6621
| 41> *
| 42>
| 43>                          ****END OF INPUT****

CARTESIAN COORDINATES (ANGSTROEM)
---------------------------------
  S     28.678800   -7.433040   76.493400
  C     30.109600   -6.658050   76.003900
  C     30.769700   -6.062330   77.052400
  C     30.114600   -6.320910   78.296900
  C     29.000500   -7.104870   78.212700
  H     30.468600   -5.941880   79.260300
  C     32.082700   -5.463030   77.050400
  H     32.039200   -4.494680   77.560400
  H     32.267900   -5.274180   75.983100
  C     33.286900   -6.232390   77.732300
  H     33.251100   -6.282140   78.844400
  H     33.371700   -7.246930   77.479200
  C     34.580600   -5.539740   77.365700
  H     35.415800   -5.949330   77.906800
  H     34.836000   -5.660810   76.292400
  H     34.548800   -4.493880   77.674100
  S     27.890700   -9.311870   79.492500
  C     27.009200   -8.983070   80.966400
  C     26.865900   -7.687590   81.304300
  C     27.526400   -6.871820   80.305200
  C     28.116000   -7.615510   79.245900
  H     26.410000   -7.402640   82.303600
  C     27.550100   -5.333380   80.509200
  H     26.546500   -5.003610   80.720500
  H     27.909600   -5.022070   79.575400
  C     28.507300   -4.743710   81.601300
  H     28.551100   -3.642710   81.478100
  H     29.506700   -5.102070   81.319700
  C     28.238800   -5.038680   83.121900
  H     28.517600   -6.056960   83.415600
  H     27.212600   -4.742550   83.393700
  H     28.925300   -4.409730   83.688700
  H     30.539400   -6.732620   75.063400
  H     26.749500   -9.805920   81.662100

 Total Charge           Charge          ....    0
 Multiplicity           Mult            ....    1
 Number of Electrons    NEL             ....  134
 Basis Dimension        Dim             ....  322

ORBITAL ENERGIES
----------------

  NO   OCC          E(Eh)            E(eV)
   0   2.0000     -88.967610     -2420.9317
   1   2.0000     -88.960715     -2420.7441
   2   2.0000     -10.327898      -281.0364
   3   2.0000     -10.327193      -281.0172
   4   2.0000     -10.316286      -280.7204
   5   2.0000     -10.309227      -280.5283
   6   2.0000     -10.304246      -280.3928
   7   2.0000     -10.297131      -280.1992
   8   2.0000     -10.294757      -280.1346
   9   2.0000     -10.291394      -280.0431
  10   2.0000     -10.291140      -280.0361
  11   2.0000     -10.290964      -280.0314
  12   2.0000     -10.287275      -279.9310
  13   2.0000     -10.287212      -279.9293
  14   2.0000     -10.285147      -279.8731
  15   2.0000     -10.276547      -279.6391
  16   2.0000      -8.082835      -219.9451
  17   2.0000      -8.076258      -219.7662
  18   2.0000      -6.041251      -164.3908
  19   2.0000      -6.037408      -164.2862
  20   2.0000      -6.034741      -164.2137
  21   2.0000      -6.033523      -164.1805
  22   2.0000      -6.030647      -164.1023
  23   2.0000      -6.027010      -164.0033
  24   2.0000      -1.008044       -27.4303
  25   2.0000      -0.987892       -26.8819
  26   2.0000      -0.913143       -24.8479
  27   2.0000      -0.899102       -24.4658
  28   2.0000      -0.874189       -23.7879
  29   2.0000      -0.853984       -23.2381
  30   2.0000      -0.845507       -23.0074
  31   2.0000      -0.819888       -22.3103
  32   2.0000      -0.783617       -21.3233
  33   2.0000      -0.766629       -20.8610
  34   2.0000      -0.710852       -19.3433
  35   2.0000      -0.701977       -19.1018
  36   2.0000      -0.688663       -18.7395
  37   2.0000      -0.656543       -17.8654
  38   2.0000      -0.642649       -17.4874
  39   2.0000      -0.621818       -16.9205
  40   2.0000      -0.587719       -15.9927
  41   2.0000      -0.575635       -15.6638
  42   2.0000      -0.562168       -15.2974
  43   2.0000      -0.552153       -15.0248
  44   2.0000      -0.537241       -14.6191
  45   2.0000      -0.527555       -14.3555
  46   2.0000      -0.514064       -13.9884
  47   2.0000      -0.511325       -13.9138
  48   2.0000      -0.507555       -13.8113
  49   2.0000      -0.502425       -13.6717
  50   2.0000      -0.491679       -13.3793
  51   2.0000      -0.478241       -13.0136
  52   2.0000      -0.470721       -12.8090
  53   2.0000      -0.461650       -12.5621
  54   2.0000      -0.457836       -12.4584
  55   2.0000      -0.447994       -12.1905
  56   2.0000      -0.443752       -12.0751
  57   2.0000      -0.437286       -11.8992
  58   2.0000      -0.433685       -11.8012
  59   2.0000      -0.427346       -11.6287
  60   2.0000      -0.423163       -11.5148
  61   2.0000      -0.422378       -11.4935
  62   2.0000      -0.411049       -11.1852
  63   2.0000      -0.349612        -9.5134
  64   2.0000      -0.330637        -8.9971
  65   2.0000      -0.323861        -8.8127
  66   2.0000      -0.294885        -8.0242
  67   0.0000       0.035002         0.9524
  68   0.0000       0.071723         1.9517
  69   0.0000       0.116589         3.1726
  70   0.0000       0.119757         3.2587
  71   0.0000       0.126680         3.4471

MULLIKEN ATOMIC CHARGES
-----------------------
   0 S :    0.104455
   1 C :   -0.079770
   2 C :   -0.087860
   3 C :    0.025614
   4 C :   -0.165449
   5 H :    0.006900
   6 C :    0.054624
   7 H :    0.029076
   8 H :    0.016400
   9 C :   -0.050138
  10 H :    0.029474
  11 H :    0.018329
  12 C :   -0.055044
  13 H :    0.023599
  14 H :    0.038613
  15 H :    0.027307
  16 S :    0.121816
  17 C :   -0.104769
  18 C :   -0.042012
  19 C :   -0.080575
  20 C :   -0.137133
  21 H :    0.052382
  22 C :    0.119124
  23 H :    0.025569
  24 H :    0.011689
  25 C :   -0.097189
  26 H :    0.038220
  27 H :    0.018040
  28 C :   -0.051734
  29 H :    0.041916
  30 H :    0.036286
  31 H :    0.030461
  32 H :    0.017762
  33 H :    0.064017
Sum of atomic charges:   -0.0000000

LOEWDIN ATOMIC CHARGES
----------------------
   0 S :    0.406950
   1 C :   -0.198227
   2 C :   -0.074390
   3 C :   -0.057470
   4 C :   -0.184577
   5 H :    0.030070
   6 C :   -0.035239
   7 H :    0.035888
   8 H :    0.032462
   9 C :   -0.035448
  10 H :    0.028105
  11 H :    0.016889
  12 C :   -0.065805
  13 H :    0.022847
  14 H :    0.027798
  15 H :    0.023975
  16 S :    0.416753
  17 C :   -0.183964
  18 C :   -0.082928
  19 C :   -0.042119
  20 C :   -0.223970
  21 H :    0.049979
  22 C :   -0.024791
  23 H :    0.027466
  24 H :    0.023248
  25 C :   -0.039014
  26 H :    0.028308
  27 H :    0.018915
  28 C :   -0.070000
  29 H :    0.026215
  30 H :    0.025320
  31 H :    0.028321
  32 H :    0.015493
  33 H :    0.032937

  Mayer bond orders larger than 0.100000
B(  0-S ,  1-C ) :   1.1444 B(  0-S ,  4-C ) :   1.1409 B(  1-C ,  2-C ) :   1.6055
B(  1-C , 32-H ) :   0.9706 B(  2-C ,  3-C ) :   1.2249 B(  2-C ,  6-C ) :   1.0635
B(  3-C ,  4-C ) :   1.5924 B(  3-C ,  5-H ) :   0.9970 B(  4-C , 20-C ) :   1.0262
B(  6-C ,  7-H ) :   0.9209 B(  6-C ,  8-H ) :   0.9416 B(  6-C ,  9-C ) :   1.0493
B(  9-C , 10-H ) :   0.9506 B(  9-C , 11-H ) :   0.9572 B(  9-C , 12-C ) :   1.0939
B( 12-C , 13-H ) :   0.9715 B( 12-C , 14-H ) :   0.9762 B( 12-C , 15-H ) :   0.9730
B( 16-S , 17-C ) :   1.1577 B( 16-S , 20-C ) :   1.1392 B( 17-C , 18-C ) :   1.6398
B( 17-C , 33-H ) :   0.9556 B( 18-C , 19-C ) :   1.2233 B( 18-C , 21-H ) :   0.9781
B( 19-C , 20-C ) :   1.5933 B( 19-C , 22-C ) :   1.0370 B( 22-C , 23-H ) :   0.9406
B( 22-C , 24-H ) :   0.9230 B( 22-C , 25-C ) :   1.0721 B( 25-C , 26-H ) :   0.9583
B( 25-C , 27-H ) :   0.9513 B( 25-C , 28-C ) :   1.0775 B( 28-C , 29-H ) :   0.9733
B( 28-C , 30-H ) :   0.9755 B( 28-C , 31-H ) :   0.9716

Dispersion correction           -0.014329709
FINAL SINGLE POINT ENERGY     -1339.880688398528

DIPOLE MOMENT
-------------
                                X             Y             Z
Electronic contribution:    -18.21454     -18.69114     -11.73586
Nuclear contribution   :     18.68059      19.04719      12.27888
                        -----------------------------------------
Total Dipole Moment    :      0.46605       0.35604       0.54302
                        -----------------------------------------
Magnitude (a.u.)       :      0.79928
Magnitude (Debye)      :      2.03160

Rotational constants in cm-1:     0.017783     0.008463     0.006709
Rotational constants in MHz :   533.135596   253.714724   201.138866

                             ****ORCA TERMINATED NORMALLY****
TOTAL RUN TIME: 0 days 0 hours 0 minutes 29 seconds 724 msec
