                         Program Version 4.2.1 -  RELEASE  -
|  1> ! wB97X-D3 SP def2-SVP
|  2> %pal
|  3> nprocs 16
|  4> end
|  5>
|  6> * xyz 0 1
|  7> S 	 -12.6631 	 47.1062 	 42.3909
|  8> C 	 -12.5002 	 48.0687 	 40.8958
|  9> C 	 -11.9369 	 47.2586 	 39.9042
| 10> C 	 -11.5068 	 45.9788 	 40.4234
| 11> C 	 -11.6532 	 45.8035 	 41.7685
| 12> H 	 -11.0751 	 45.1747 	 39.8229
| 13> C 	 -11.869 	 47.5455 	 38.4168
| 14> H 	 -10.8938 	 47.2214 	 38.0958
| 15> H 	 -11.9227 	 48.6522 	 38.3438
| 16> C 	 -13.0558 	 46.9201 	 37.5948
| 17> H 	 -13.1025 	 45.8476 	 37.6989
| 18> H 	 -13.9829 	 47.2657 	 38.0036
| 19> C 	 -13.085 	 47.3012 	 36.0894
| 20> H 	 -13.8801 	 46.8403 	 35.5012
| 21> H 	 -13.2132 	 48.2847 	 35.7749
| 22> H 	 -12.2343 	 46.9229 	 35.4959
| 23> S 	 -12.4408 	 43.7804 	 43.5168
| 24> C 	 -11.2136 	 42.7201 	 44.184
| 25> C 	 -10.0254 	 42.9377 	 43.537
| 26> C 	 -10.0117 	 43.9975 	 42.6031
| 27> C 	 -11.2208 	 44.6351 	 42.5482
| 28> H 	 -9.13687 	 42.3923 	 43.8693
| 29> C 	 -8.76785 	 44.3307 	 41.8783
| 30> H 	 -9.04977 	 44.445 	 40.87
| 31> H 	 -8.00072 	 43.519 	 41.8202
| 32> C 	 -8.00828 	 45.6436 	 42.3438
| 33> H 	 -7.86722 	 45.4828 	 43.4174
| 34> H 	 -8.6301 	 46.4707 	 42.2115
| 35> C 	 -6.77979 	 45.9542 	 41.5786
| 36> H 	 -6.98643 	 46.0265 	 40.4629
| 37> H 	 -5.99603 	 45.2306 	 41.817
| 38> H 	 -6.40154 	 46.9856 	 41.7364
| 39> H 	 -13.0071 	 48.9938 	 40.5664
| 40> H 	 -11.4144 	 41.984 	 44.9216
| 41> *
| 42>
| 43>                          ****END OF INPUT****

CARTESIAN COORDINATES (ANGSTROEM)
---------------------------------
  S    -12.663100   47.106200   42.390900
  C    -12.500200   48.068700   40.895800
  C    -11.936900   47.258600   39.904200
  C    -11.506800   45.978800   40.423400
  C    -11.653200   45.803500   41.768500
  H    -11.075100   45.174700   39.822900
  C    -11.869000   47.545500   38.416800
  H    -10.893800   47.221400   38.095800
  H    -11.922700   48.652200   38.343800
  C    -13.055800   46.920100   37.594800
  H    -13.102500   45.847600   37.698900
  H    -13.982900   47.265700   38.003600
  C    -13.085000   47.301200   36.089400
  H    -13.880100   46.840300   35.501200
  H    -13.213200   48.284700   35.774900
  H    -12.234300   46.922900   35.495900
  S    -12.440800   43.780400   43.516800
  C    -11.213600   42.720100   44.184000
  C    -10.025400   42.937700   43.537000
  C    -10.011700   43.997500   42.603100
  C    -11.220800   44.635100   42.548200
  H     -9.136870   42.392300   43.869300
  C     -8.767850   44.330700   41.878300
  H     -9.049770   44.445000   40.870000
  H     -8.000720   43.519000   41.820200
  C     -8.008280   45.643600   42.343800
  H     -7.867220   45.482800   43.417400
  H     -8.630100   46.470700   42.211500
  C     -6.779790   45.954200   41.578600
  H     -6.986430   46.026500   40.462900
  H     -5.996030   45.230600   41.817000
  H     -6.401540   46.985600   41.736400
  H    -13.007100   48.993800   40.566400
  H    -11.414400   41.984000   44.921600

 Total Charge           Charge          ....    0
 Multiplicity           Mult            ....    1
 Number of Electrons    NEL             ....  134
 Basis Dimension        Dim             ....  322

ORBITAL ENERGIES
----------------

  NO   OCC          E(Eh)            E(eV)
   0   2.0000     -88.967477     -2420.9281
   1   2.0000     -88.964954     -2420.8595
   2   2.0000     -10.331450      -281.1330
   3   2.0000     -10.329601      -281.0827
   4   2.0000     -10.320836      -280.8442
   5   2.0000     -10.315747      -280.7058
   6   2.0000     -10.304327      -280.3950
   7   2.0000     -10.300974      -280.3038
   8   2.0000     -10.298574      -280.2384
   9   2.0000     -10.293812      -280.1089
  10   2.0000     -10.293388      -280.0973
  11   2.0000     -10.291667      -280.0505
  12   2.0000     -10.289252      -279.9848
  13   2.0000     -10.281021      -279.7608
  14   2.0000     -10.278267      -279.6859
  15   2.0000     -10.276290      -279.6321
  16   2.0000      -8.081152      -219.8993
  17   2.0000      -8.079427      -219.8524
  18   2.0000      -6.039923      -164.3547
  19   2.0000      -6.037923      -164.3002
  20   2.0000      -6.035905      -164.2453
  21   2.0000      -6.034022      -164.1941
  22   2.0000      -6.031564      -164.1272
  23   2.0000      -6.030172      -164.0893
  24   2.0000      -1.006501       -27.3883
  25   2.0000      -0.983239       -26.7553
  26   2.0000      -0.910288       -24.7702
  27   2.0000      -0.906445       -24.6656
  28   2.0000      -0.868115       -23.6226
  29   2.0000      -0.857550       -23.3351
  30   2.0000      -0.843836       -22.9619
  31   2.0000      -0.815820       -22.1996
  32   2.0000      -0.782605       -21.2958
  33   2.0000      -0.773730       -21.0543
  34   2.0000      -0.714140       -19.4327
  35   2.0000      -0.706332       -19.2203
  36   2.0000      -0.694227       -18.8909
  37   2.0000      -0.664674       -18.0867
  38   2.0000      -0.635778       -17.3004
  39   2.0000      -0.618542       -16.8314
  40   2.0000      -0.599841       -16.3225
  41   2.0000      -0.572400       -15.5758
  42   2.0000      -0.566698       -15.4206
  43   2.0000      -0.555880       -15.1263
  44   2.0000      -0.524001       -14.2588
  45   2.0000      -0.518741       -14.1157
  46   2.0000      -0.517635       -14.0856
  47   2.0000      -0.511956       -13.9310
  48   2.0000      -0.505820       -13.7641
  49   2.0000      -0.502664       -13.6782
  50   2.0000      -0.497689       -13.5428
  51   2.0000      -0.484053       -13.1718
  52   2.0000      -0.471350       -12.8261
  53   2.0000      -0.464769       -12.6470
  54   2.0000      -0.459599       -12.5063
  55   2.0000      -0.447820       -12.1858
  56   2.0000      -0.446466       -12.1489
  57   2.0000      -0.433029       -11.7833
  58   2.0000      -0.428610       -11.6631
  59   2.0000      -0.427060       -11.6209
  60   2.0000      -0.421644       -11.4735
  61   2.0000      -0.417952       -11.3731
  62   2.0000      -0.414388       -11.2761
  63   2.0000      -0.347977        -9.4689
  64   2.0000      -0.331926        -9.0322
  65   2.0000      -0.326393        -8.8816
  66   2.0000      -0.295851        -8.0505
  67   0.0000       0.024813         0.6752
  68   0.0000       0.067458         1.8356
  69   0.0000       0.105867         2.8808
  70   0.0000       0.120832         3.2880
  71   0.0000       0.129889         3.5345

MULLIKEN ATOMIC CHARGES
-----------------------
   0 S :    0.104301
   1 C :   -0.107831
   2 C :   -0.130791
   3 C :    0.015542
   4 C :   -0.139700
   5 H :    0.023582
   6 C :    0.073878
   7 H :    0.025713
   8 H :    0.023607
   9 C :   -0.026689
  10 H :    0.030122
  11 H :    0.020953
  12 C :   -0.047395
  13 H :    0.019846
  14 H :    0.017192
  15 H :    0.022230
  16 S :    0.096219
  17 C :   -0.080427
  18 C :   -0.042159
  19 C :   -0.002215
  20 C :   -0.161308
  21 H :    0.022748
  22 C :    0.062493
  23 H :   -0.006077
  24 H :    0.021818
  25 C :   -0.042007
  26 H :    0.030548
  27 H :    0.024066
  28 C :   -0.062811
  29 H :    0.032757
  30 H :    0.036786
  31 H :    0.037172
  32 H :    0.058769
  33 H :    0.049067
Sum of atomic charges:   -0.0000000

LOEWDIN ATOMIC CHARGES
----------------------
   0 S :    0.387884
   1 C :   -0.200475
   2 C :   -0.063238
   3 C :   -0.068149
   4 C :   -0.188875
   5 H :    0.031616
   6 C :   -0.027944
   7 H :    0.026889
   8 H :    0.033290
   9 C :   -0.028595
  10 H :    0.025787
  11 H :    0.024250
  12 C :   -0.076156
  13 H :    0.030320
  14 H :    0.015848
  15 H :    0.026975
  16 S :    0.389694
  17 C :   -0.173611
  18 C :   -0.071376
  19 C :   -0.057235
  20 C :   -0.183782
  21 H :    0.033981
  22 C :   -0.031405
  23 H :    0.019852
  24 H :    0.033655
  25 C :   -0.033979
  26 H :    0.026007
  27 H :    0.019368
  28 C :   -0.072948
  29 H :    0.032918
  30 H :    0.023889
  31 H :    0.031799
  32 H :    0.038967
  33 H :    0.024778

  Mayer bond orders larger than 0.100000
B(  0-S ,  1-C ) :   1.1194 B(  0-S ,  4-C ) :   1.1335 B(  1-C ,  2-C ) :   1.6273
B(  1-C , 32-H ) :   0.9597 B(  2-C ,  3-C ) :   1.2272 B(  2-C ,  6-C ) :   1.0353
B(  3-C ,  4-C ) :   1.5894 B(  3-C ,  5-H ) :   0.9878 B(  4-C , 20-C ) :   1.0394
B(  6-C ,  7-H ) :   0.9401 B(  6-C ,  8-H ) :   0.9405 B(  6-C ,  9-C ) :   1.0539
B(  9-C , 10-H ) :   0.9583 B(  9-C , 11-H ) :   0.9552 B(  9-C , 12-C ) :   1.0763
B( 12-C , 13-H ) :   0.9710 B( 12-C , 14-H ) :   0.9783 B( 12-C , 15-H ) :   0.9744
B( 16-S , 17-C ) :   1.1459 B( 16-S , 20-C ) :   1.1374 B( 17-C , 18-C ) :   1.6075
B( 17-C , 33-H ) :   0.9749 B( 18-C , 19-C ) :   1.2384 B( 18-C , 21-H ) :   0.9883
B( 19-C , 20-C ) :   1.6045 B( 19-C , 22-C ) :   1.0553 B( 22-C , 23-H ) :   0.9138
B( 22-C , 24-H ) :   0.9397 B( 22-C , 25-C ) :   1.0551 B( 25-C , 26-H ) :   0.9563
B( 25-C , 27-H ) :   0.9521 B( 25-C , 28-C ) :   1.0981 B( 28-C , 29-H ) :   0.9675
B( 28-C , 30-H ) :   0.9741 B( 28-C , 31-H ) :   0.9704

Dispersion correction           -0.014091884
FINAL SINGLE POINT ENERGY     -1339.872913672179

DIPOLE MOMENT
-------------
                                X             Y             Z
Electronic contribution:    -14.28602      -6.26044      23.06940
Nuclear contribution   :     14.62131       6.16371     -23.63742
                        -----------------------------------------
Total Dipole Moment    :      0.33528      -0.09673      -0.56801
                        -----------------------------------------
Magnitude (a.u.)       :      0.66664
Magnitude (Debye)      :      1.69447

Rotational constants in cm-1:     0.017774     0.008179     0.006786
Rotational constants in MHz :   532.865215   245.203074   203.433443

                             ****ORCA TERMINATED NORMALLY****
TOTAL RUN TIME: 0 days 0 hours 0 minutes 31 seconds 161 msec
