                         Program Version 4.2.1 -  RELEASE  -
|  1> ! wB97X-D3 SP def2-SVP
|  2> %pal
|  3> nprocs 16
|  4> end
|  5>
|  6> * xyz 0 1
|  7> S 	 -97.6878 	 40.6699 	 121.254
|  8> C 	 -96.0517 	 40.5122 	 120.68
|  9> C 	 -96.0182 	 40.7336 	 119.32
| 10> C 	 -97.3004 	 41.2381 	 118.804
| 11> C 	 -98.366 	 41.1045 	 119.708
| 12> H 	 -97.5375 	 41.4801 	 117.761
| 13> C 	 -94.8458 	 40.6276 	 118.438
| 14> H 	 -93.9607 	 40.2949 	 119.104
| 15> H 	 -94.7313 	 41.662 	 117.933
| 16> C 	 -94.9616 	 39.6527 	 117.241
| 17> H 	 -94.9105 	 38.5883 	 117.407
| 18> H 	 -95.9593 	 39.8096 	 116.812
| 19> C 	 -93.9884 	 39.8396 	 116.054
| 20> H 	 -94.2317 	 39.109 	 115.257
| 21> H 	 -93.9246 	 40.8471 	 115.713
| 22> H 	 -93.0232 	 39.5981 	 116.404
| 23> S 	 -100.421 	 41.1111 	 117.752
| 24> C 	 -101.991 	 41.6874 	 118.167
| 25> C 	 -102.022 	 42.0922 	 119.464
| 26> C 	 -100.811 	 41.6716 	 120.198
| 27> C 	 -99.7819 	 41.3205 	 119.355
| 28> H 	 -102.88 	 42.5248 	 119.973
| 29> C 	 -100.744 	 41.988 	 121.698
| 30> H 	 -100.09 	 42.8506 	 121.777
| 31> H 	 -100.191 	 41.1153 	 122.094
| 32> C 	 -102.02 	 41.9887 	 122.551
| 33> H 	 -102.422 	 41.0283 	 122.696
| 34> H 	 -102.839 	 42.5212 	 122.03
| 35> C 	 -101.785 	 42.4439 	 123.974
| 36> H 	 -101.001 	 41.8753 	 124.495
| 37> H 	 -102.692 	 42.2374 	 124.608
| 38> H 	 -101.57 	 43.5076 	 124.068
| 39> H 	 -95.2544 	 40.303 	 121.274
| 40> H 	 -102.751 	 41.8452 	 117.531
| 41> *
| 42>
| 43>                          ****END OF INPUT****

CARTESIAN COORDINATES (ANGSTROEM)
---------------------------------
  S    -97.687800   40.669900  121.254000
  C    -96.051700   40.512200  120.680000
  C    -96.018200   40.733600  119.320000
  C    -97.300400   41.238100  118.804000
  C    -98.366000   41.104500  119.708000
  H    -97.537500   41.480100  117.761000
  C    -94.845800   40.627600  118.438000
  H    -93.960700   40.294900  119.104000
  H    -94.731300   41.662000  117.933000
  C    -94.961600   39.652700  117.241000
  H    -94.910500   38.588300  117.407000
  H    -95.959300   39.809600  116.812000
  C    -93.988400   39.839600  116.054000
  H    -94.231700   39.109000  115.257000
  H    -93.924600   40.847100  115.713000
  H    -93.023200   39.598100  116.404000
  S    -100.421000   41.111100  117.752000
  C    -101.991000   41.687400  118.167000
  C    -102.022000   42.092200  119.464000
  C    -100.811000   41.671600  120.198000
  C    -99.781900   41.320500  119.355000
  H    -102.880000   42.524800  119.973000
  C    -100.744000   41.988000  121.698000
  H    -100.090000   42.850600  121.777000
  H    -100.191000   41.115300  122.094000
  C    -102.020000   41.988700  122.551000
  H    -102.422000   41.028300  122.696000
  H    -102.839000   42.521200  122.030000
  C    -101.785000   42.443900  123.974000
  H    -101.001000   41.875300  124.495000
  H    -102.692000   42.237400  124.608000
  H    -101.570000   43.507600  124.068000
  H    -95.254400   40.303000  121.274000
  H    -102.751000   41.845200  117.531000

 Total Charge           Charge          ....    0
 Multiplicity           Mult            ....    1
 Number of Electrons    NEL             ....  134
 Basis Dimension        Dim             ....  322

ORBITAL ENERGIES
----------------

  NO   OCC          E(Eh)            E(eV)
   0   2.0000     -88.966727     -2420.9077
   1   2.0000     -88.966278     -2420.8955
   2   2.0000     -10.336382      -281.2673
   3   2.0000     -10.329716      -281.0859
   4   2.0000     -10.310074      -280.5514
   5   2.0000     -10.308834      -280.5176
   6   2.0000     -10.304980      -280.4128
   7   2.0000     -10.304722      -280.4058
   8   2.0000     -10.303409      -280.3700
   9   2.0000     -10.296466      -280.1811
  10   2.0000     -10.294597      -280.1302
  11   2.0000     -10.292953      -280.0855
  12   2.0000     -10.287139      -279.9273
  13   2.0000     -10.284468      -279.8546
  14   2.0000     -10.282085      -279.7897
  15   2.0000     -10.273000      -279.5426
  16   2.0000      -8.081939      -219.9207
  17   2.0000      -8.080609      -219.8845
  18   2.0000      -6.040705      -164.3759
  19   2.0000      -6.039376      -164.3398
  20   2.0000      -6.036330      -164.2569
  21   2.0000      -6.035013      -164.2211
  22   2.0000      -6.032462      -164.1516
  23   2.0000      -6.031275      -164.1193
  24   2.0000      -1.008784       -27.4504
  25   2.0000      -0.987605       -26.8741
  26   2.0000      -0.912318       -24.8254
  27   2.0000      -0.909024       -24.7358
  28   2.0000      -0.875370       -23.8200
  29   2.0000      -0.852271       -23.1915
  30   2.0000      -0.846606       -23.0373
  31   2.0000      -0.818904       -22.2835
  32   2.0000      -0.779544       -21.2125
  33   2.0000      -0.772923       -21.0323
  34   2.0000      -0.709273       -19.3003
  35   2.0000      -0.708036       -19.2666
  36   2.0000      -0.695285       -18.9197
  37   2.0000      -0.664252       -18.0752
  38   2.0000      -0.637989       -17.3606
  39   2.0000      -0.612975       -16.6799
  40   2.0000      -0.601445       -16.3662
  41   2.0000      -0.576731       -15.6937
  42   2.0000      -0.567691       -15.4477
  43   2.0000      -0.563327       -15.3289
  44   2.0000      -0.529699       -14.4138
  45   2.0000      -0.522694       -14.2232
  46   2.0000      -0.521826       -14.1996
  47   2.0000      -0.514499       -14.0002
  48   2.0000      -0.512558       -13.9474
  49   2.0000      -0.507317       -13.8048
  50   2.0000      -0.490721       -13.3532
  51   2.0000      -0.484768       -13.1912
  52   2.0000      -0.473684       -12.8896
  53   2.0000      -0.465332       -12.6623
  54   2.0000      -0.457857       -12.4589
  55   2.0000      -0.455618       -12.3980
  56   2.0000      -0.447014       -12.1639
  57   2.0000      -0.437641       -11.9088
  58   2.0000      -0.431339       -11.7373
  59   2.0000      -0.422654       -11.5010
  60   2.0000      -0.415821       -11.3151
  61   2.0000      -0.410462       -11.1692
  62   2.0000      -0.401888       -10.9359
  63   2.0000      -0.361833        -9.8460
  64   2.0000      -0.327653        -8.9159
  65   2.0000      -0.323189        -8.7944
  66   2.0000      -0.289475        -7.8770
  67   0.0000       0.025499         0.6939
  68   0.0000       0.086121         2.3435
  69   0.0000       0.110978         3.0199
  70   0.0000       0.120699         3.2844
  71   0.0000       0.128026         3.4838

MULLIKEN ATOMIC CHARGES
-----------------------
   0 S :    0.086143
   1 C :   -0.069218
   2 C :   -0.066316
   3 C :   -0.022636
   4 C :   -0.122333
   5 H :    0.024852
   6 C :    0.033307
   7 H :    0.035368
   8 H :    0.049641
   9 C :   -0.094104
  10 H :    0.027573
  11 H :    0.022468
  12 C :   -0.030053
  13 H :    0.042328
  14 H :    0.022219
  15 H :    0.012847
  16 S :    0.103615
  17 C :   -0.018554
  18 C :   -0.041787
  19 C :   -0.096457
  20 C :   -0.100582
  21 H :    0.025367
  22 C :    0.025076
  23 H :    0.054085
  24 H :    0.041070
  25 C :   -0.050039
  26 H :    0.020381
  27 H :    0.026760
  28 C :   -0.067720
  29 H :    0.034498
  30 H :    0.035654
  31 H :    0.035896
  32 H :    0.009931
  33 H :    0.010720
Sum of atomic charges:   -0.0000000

LOEWDIN ATOMIC CHARGES
----------------------
   0 S :    0.416044
   1 C :   -0.186740
   2 C :   -0.061870
   3 C :   -0.075799
   4 C :   -0.183247
   5 H :    0.025808
   6 C :   -0.042961
   7 H :    0.038059
   8 H :    0.047805
   9 C :   -0.046151
  10 H :    0.023603
  11 H :    0.021676
  12 C :   -0.058647
  13 H :    0.034224
  14 H :    0.016985
  15 H :    0.015724
  16 S :    0.419110
  17 C :   -0.169884
  18 C :   -0.067819
  19 C :   -0.054267
  20 C :   -0.203397
  21 H :    0.029747
  22 C :   -0.042666
  23 H :    0.035719
  24 H :    0.028843
  25 C :   -0.041961
  26 H :    0.023770
  27 H :    0.021650
  28 C :   -0.065590
  29 H :    0.028212
  30 H :    0.032692
  31 H :    0.022788
  32 H :    0.010365
  33 H :    0.008176

  Mayer bond orders larger than 0.100000
B(  0-S ,  1-C ) :   1.1188 B(  0-S ,  4-C ) :   1.1473 B(  1-C ,  2-C ) :   1.6071
B(  1-C , 32-H ) :   0.9857 B(  2-C ,  3-C ) :   1.2176 B(  2-C ,  6-C ) :   1.0543
B(  3-C ,  4-C ) :   1.5643 B(  3-C ,  5-H ) :   0.9811 B(  4-C , 20-C ) :   1.0828
B(  6-C ,  7-H ) :   0.9395 B(  6-C ,  8-H ) :   0.9336 B(  6-C ,  9-C ) :   1.0490
B(  9-C , 10-H ) :   0.9562 B(  9-C , 11-H ) :   0.9588 B(  9-C , 12-C ) :   1.0846
B( 12-C , 13-H ) :   0.9742 B( 12-C , 14-H ) :   0.9750 B( 12-C , 15-H ) :   0.9752
B( 16-S , 17-C ) :   1.1473 B( 16-S , 20-C ) :   1.1214 B( 17-C , 18-C ) :   1.6250
B( 17-C , 33-H ) :   0.9804 B( 18-C , 19-C ) :   1.2303 B( 18-C , 21-H ) :   0.9817
B( 19-C , 20-C ) :   1.5928 B( 19-C , 22-C ) :   1.0293 B( 22-C , 23-H ) :   0.9447
B( 22-C , 24-H ) :   0.9271 B( 22-C , 25-C ) :   1.0597 B( 25-C , 26-H ) :   0.9524
B( 25-C , 27-H ) :   0.9507 B( 25-C , 28-C ) :   1.0907 B( 28-C , 29-H ) :   0.9719
B( 28-C , 30-H ) :   0.9728 B( 28-C , 31-H ) :   0.9770

Dispersion correction           -0.013197588
FINAL SINGLE POINT ENERGY     -1339.860421687398

DIPOLE MOMENT
-------------
                                X             Y             Z
Electronic contribution:     -6.48215      -0.83324      -2.94250
Nuclear contribution   :      6.42095       0.92031       3.01398
                        -----------------------------------------
Total Dipole Moment    :     -0.06120       0.08707       0.07148
                        -----------------------------------------
Magnitude (a.u.)       :      0.12821
Magnitude (Debye)      :      0.32588

Rotational constants in cm-1:     0.023263     0.007314     0.005671
Rotational constants in MHz :   697.401085   219.269378   170.001122

                             ****ORCA TERMINATED NORMALLY****
TOTAL RUN TIME: 0 days 0 hours 0 minutes 32 seconds 560 msec
