                         Program Version 4.2.1 -  RELEASE  -
|  1> ! wB97X-D3 SP def2-SVP
|  2> %pal
|  3> nprocs 16
|  4> end
|  5>
|  6> * xyz 0 1
|  7> S 	 17.492 	 3.37178 	 85.539
|  8> C 	 18.6998 	 4.70587 	 85.5638
|  9> C 	 18.2341 	 5.74332 	 86.3994
| 10> C 	 17.0063 	 5.43868 	 87.0403
| 11> C 	 16.4899 	 4.17734 	 86.7601
| 12> H 	 16.5033 	 6.12476 	 87.7086
| 13> C 	 18.9756 	 6.99319 	 86.7866
| 14> H 	 20.0421 	 6.865 	 86.4455
| 15> H 	 19.1105 	 7.01692 	 87.8394
| 16> C 	 18.2071 	 8.21613 	 86.2225
| 17> H 	 18.6032 	 8.3606 	 85.2389
| 18> H 	 17.0809 	 8.0845 	 86.2427
| 19> C 	 18.502 	 9.5166 	 87.0591
| 20> H 	 19.5424 	 9.76016 	 87.0828
| 21> H 	 17.9046 	 10.3252 	 86.6312
| 22> H 	 18.2569 	 9.39727 	 88.1331
| 23> S 	 15.0499 	 1.96978 	 87.5935
| 24> C 	 13.2797 	 2.12524 	 87.9112
| 25> C 	 12.8007 	 3.32088 	 87.3023
| 26> C 	 13.8855 	 4.1315 	 86.9254
| 27> C 	 15.1792 	 3.62297 	 87.0848
| 28> H 	 11.735 	 3.52201 	 87.3615
| 29> C 	 13.7278 	 5.48647 	 86.4129
| 30> H 	 14.3573 	 6.02578 	 87.0632
| 31> H 	 12.8122 	 5.8513 	 86.6708
| 32> C 	 14.1861 	 5.84982 	 85.0192
| 33> H 	 13.5662 	 5.28575 	 84.4033
| 34> H 	 15.1599 	 5.40989 	 84.9096
| 35> C 	 14.1626 	 7.36578 	 84.9902
| 36> H 	 14.5847 	 7.70229 	 84.0784
| 37> H 	 14.7938 	 7.73509 	 85.789
| 38> H 	 13.1837 	 7.7636 	 85.1581
| 39> H 	 19.6257 	 4.77589 	 85.0184
| 40> H 	 12.5767 	 1.36788 	 88.3253
| 41> *
| 42>
| 43>                          ****END OF INPUT****

CARTESIAN COORDINATES (ANGSTROEM)
---------------------------------
  S     17.492000    3.371780   85.539000
  C     18.699800    4.705870   85.563800
  C     18.234100    5.743320   86.399400
  C     17.006300    5.438680   87.040300
  C     16.489900    4.177340   86.760100
  H     16.503300    6.124760   87.708600
  C     18.975600    6.993190   86.786600
  H     20.042100    6.865000   86.445500
  H     19.110500    7.016920   87.839400
  C     18.207100    8.216130   86.222500
  H     18.603200    8.360600   85.238900
  H     17.080900    8.084500   86.242700
  C     18.502000    9.516600   87.059100
  H     19.542400    9.760160   87.082800
  H     17.904600   10.325200   86.631200
  H     18.256900    9.397270   88.133100
  S     15.049900    1.969780   87.593500
  C     13.279700    2.125240   87.911200
  C     12.800700    3.320880   87.302300
  C     13.885500    4.131500   86.925400
  C     15.179200    3.622970   87.084800
  H     11.735000    3.522010   87.361500
  C     13.727800    5.486470   86.412900
  H     14.357300    6.025780   87.063200
  H     12.812200    5.851300   86.670800
  C     14.186100    5.849820   85.019200
  H     13.566200    5.285750   84.403300
  H     15.159900    5.409890   84.909600
  C     14.162600    7.365780   84.990200
  H     14.584700    7.702290   84.078400
  H     14.793800    7.735090   85.789000
  H     13.183700    7.763600   85.158100
  H     19.625700    4.775890   85.018400
  H     12.576700    1.367880   88.325300

 Total Charge           Charge          ....    0
 Multiplicity           Mult            ....    1
 Number of Electrons    NEL             ....  134
 Basis Dimension        Dim             ....  322

ORBITAL ENERGIES
----------------

  NO   OCC          E(Eh)            E(eV)
   0   2.0000     -88.969465     -2420.9822
   1   2.0000     -88.967104     -2420.9180
   2   2.0000     -10.336323      -281.2656
   3   2.0000     -10.328946      -281.0649
   4   2.0000     -10.323783      -280.9244
   5   2.0000     -10.321501      -280.8623
   6   2.0000     -10.303636      -280.3762
   7   2.0000     -10.299288      -280.2579
   8   2.0000     -10.297848      -280.2187
   9   2.0000     -10.296882      -280.1924
  10   2.0000     -10.295984      -280.1680
  11   2.0000     -10.294816      -280.1362
  12   2.0000     -10.281250      -279.7670
  13   2.0000     -10.271220      -279.4941
  14   2.0000     -10.269272      -279.4411
  15   2.0000     -10.262383      -279.2536
  16   2.0000      -8.082550      -219.9374
  17   2.0000      -8.080933      -219.8934
  18   2.0000      -6.041252      -164.3908
  19   2.0000      -6.039450      -164.3418
  20   2.0000      -6.037173      -164.2798
  21   2.0000      -6.035499      -164.2343
  22   2.0000      -6.033301      -164.1745
  23   2.0000      -6.031791      -164.1334
  24   2.0000      -1.003829       -27.3156
  25   2.0000      -0.978662       -26.6307
  26   2.0000      -0.920548       -25.0494
  27   2.0000      -0.911022       -24.7902
  28   2.0000      -0.866571       -23.5806
  29   2.0000      -0.852420       -23.1955
  30   2.0000      -0.844057       -22.9680
  31   2.0000      -0.815794       -22.1989
  32   2.0000      -0.779886       -21.2218
  33   2.0000      -0.765692       -20.8355
  34   2.0000      -0.716820       -19.5057
  35   2.0000      -0.703535       -19.1442
  36   2.0000      -0.697739       -18.9864
  37   2.0000      -0.665199       -18.1010
  38   2.0000      -0.640976       -17.4418
  39   2.0000      -0.625204       -17.0127
  40   2.0000      -0.593317       -16.1450
  41   2.0000      -0.575341       -15.6558
  42   2.0000      -0.566821       -15.4240
  43   2.0000      -0.559382       -15.2216
  44   2.0000      -0.533282       -14.5113
  45   2.0000      -0.527920       -14.3654
  46   2.0000      -0.518729       -14.1153
  47   2.0000      -0.507921       -13.8212
  48   2.0000      -0.505430       -13.7534
  49   2.0000      -0.497906       -13.5487
  50   2.0000      -0.491127       -13.3642
  51   2.0000      -0.488694       -13.2980
  52   2.0000      -0.471655       -12.8344
  53   2.0000      -0.466548       -12.6954
  54   2.0000      -0.457383       -12.4460
  55   2.0000      -0.447655       -12.1813
  56   2.0000      -0.445853       -12.1323
  57   2.0000      -0.439682       -11.9644
  58   2.0000      -0.434254       -11.8166
  59   2.0000      -0.427315       -11.6278
  60   2.0000      -0.419612       -11.4182
  61   2.0000      -0.413840       -11.2612
  62   2.0000      -0.410512       -11.1706
  63   2.0000      -0.343934        -9.3589
  64   2.0000      -0.332158        -9.0385
  65   2.0000      -0.326853        -8.8941
  66   2.0000      -0.287531        -7.8241
  67   0.0000       0.022085         0.6010
  68   0.0000       0.058640         1.5957
  69   0.0000       0.104797         2.8517
  70   0.0000       0.116477         3.1695
  71   0.0000       0.127305         3.4641

MULLIKEN ATOMIC CHARGES
-----------------------
   0 S :    0.102646
   1 C :   -0.112173
   2 C :   -0.102451
   3 C :    0.008010
   4 C :   -0.122941
   5 H :    0.021701
   6 C :    0.068116
   7 H :    0.024266
   8 H :    0.026118
   9 C :   -0.100050
  10 H :    0.036780
  11 H :    0.057839
  12 C :   -0.056696
  13 H :    0.027219
  14 H :    0.040319
  15 H :    0.031681
  16 S :    0.105084
  17 C :   -0.122010
  18 C :   -0.038906
  19 C :   -0.028313
  20 C :   -0.160562
  21 H :    0.028321
  22 C :    0.094187
  23 H :   -0.025289
  24 H :   -0.033259
  25 C :    0.003846
  26 H :    0.008573
  27 H :    0.026458
  28 C :    0.013744
  29 H :    0.024203
  30 H :    0.012609
  31 H :    0.022254
  32 H :    0.044168
  33 H :    0.074507
Sum of atomic charges:   -0.0000000

LOEWDIN ATOMIC CHARGES
----------------------
   0 S :    0.382156
   1 C :   -0.189439
   2 C :   -0.059285
   3 C :   -0.064897
   4 C :   -0.181069
   5 H :    0.029548
   6 C :   -0.032851
   7 H :    0.035699
   8 H :    0.024949
   9 C :   -0.034531
  10 H :    0.025979
  11 H :    0.031924
  12 C :   -0.067911
  13 H :    0.019523
  14 H :    0.027051
  15 H :    0.025229
  16 S :    0.402252
  17 C :   -0.175833
  18 C :   -0.070796
  19 C :   -0.050737
  20 C :   -0.218520
  21 H :    0.036859
  22 C :   -0.033899
  23 H :    0.023500
  24 H :    0.011273
  25 C :   -0.022705
  26 H :    0.014982
  27 H :    0.024501
  28 C :   -0.046681
  29 H :    0.021245
  30 H :    0.021707
  31 H :    0.024032
  32 H :    0.028020
  33 H :    0.038724

  Mayer bond orders larger than 0.100000
B(  0-S ,  1-C ) :   1.1205 B(  0-S ,  4-C ) :   1.1454 B(  1-C ,  2-C ) :   1.6069
B(  1-C ,  4-C ) :   0.1054 B(  1-C , 32-H ) :   0.9683 B(  2-C ,  3-C ) :   1.2399
B(  2-C ,  6-C ) :   1.0273 B(  3-C ,  4-C ) :   1.5738 B(  3-C ,  5-H ) :   0.9930
B(  4-C , 20-C ) :   1.0411 B(  6-C ,  7-H ) :   0.9395 B(  6-C ,  8-H ) :   0.9530
B(  6-C ,  9-C ) :   1.0268 B(  9-C , 10-H ) :   0.9527 B(  9-C , 11-H ) :   0.9623
B(  9-C , 12-C ) :   1.0757 B( 12-C , 13-H ) :   0.9747 B( 12-C , 14-H ) :   0.9757
B( 12-C , 15-H ) :   0.9783 B( 16-S , 17-C ) :   1.1759 B( 16-S , 20-C ) :   1.1294
B( 17-C , 18-C ) :   1.5566 B( 17-C , 20-C ) :   0.1157 B( 17-C , 33-H ) :   0.9619
B( 18-C , 19-C ) :   1.2777 B( 18-C , 21-H ) :   0.9930 B( 19-C , 20-C ) :   1.5339
B( 19-C , 22-C ) :   1.0359 B( 22-C , 23-H ) :   0.9223 B( 22-C , 24-H ) :   0.9142
B( 22-C , 25-C ) :   1.0482 B( 25-C , 26-H ) :   0.9517 B( 25-C , 27-H ) :   0.9492
B( 25-C , 28-C ) :   1.0766 B( 28-C , 29-H ) :   0.9716 B( 28-C , 30-H ) :   0.9688
B( 28-C , 31-H ) :   0.9689

Dispersion correction           -0.015915620
FINAL SINGLE POINT ENERGY     -1339.852468322781

DIPOLE MOMENT
-------------
                                X             Y             Z
Electronic contribution:     -0.74985     -31.34361       3.22704
Nuclear contribution   :      0.60504      32.07756      -3.19943
                        -----------------------------------------
Total Dipole Moment    :     -0.14481       0.73395       0.02761
                        -----------------------------------------
Magnitude (a.u.)       :      0.74861
Magnitude (Debye)      :      1.90281

Rotational constants in cm-1:     0.020891     0.009239     0.007417
Rotational constants in MHz :   626.299509   276.984542   222.361232

                             ****ORCA TERMINATED NORMALLY****
TOTAL RUN TIME: 0 days 0 hours 0 minutes 37 seconds 912 msec
