                         Program Version 4.2.1 -  RELEASE  -
|  1> ! wB97X-D3 SP def2-SVP
|  2> %pal
|  3> nprocs 16
|  4> end
|  5>
|  6> * xyz 0 1
|  7> S 	 -43.3344 	 23.6768 	 77.5679
|  8> C 	 -43.7991 	 24.2252 	 79.1459
|  9> C 	 -42.6959 	 24.1707 	 80.0041
| 10> C 	 -41.52 	 23.6072 	 79.3674
| 11> C 	 -41.703 	 23.4064 	 78.0712
| 12> H 	 -40.5739 	 23.4083 	 79.88
| 13> C 	 -42.7098 	 24.5601 	 81.4039
| 14> H 	 -42.1067 	 23.8236 	 81.8477
| 15> H 	 -43.6376 	 24.3218 	 81.9972
| 16> C 	 -42.3408 	 26.0182 	 81.6845
| 17> H 	 -42.0623 	 25.9891 	 82.7525
| 18> H 	 -41.4449 	 26.3528 	 81.149
| 19> C 	 -43.4822 	 26.9676 	 81.629
| 20> H 	 -43.1149 	 27.9637 	 81.7515
| 21> H 	 -44.1674 	 26.9421 	 80.7101
| 22> H 	 -44.1677 	 26.7968 	 82.4734
| 23> S 	 -41.4756 	 21.4182 	 76.1932
| 24> C 	 -39.9382 	 21.0547 	 75.4093
| 25> C 	 -38.9362 	 21.8664 	 75.9446
| 26> C 	 -39.4147 	 22.8639 	 76.9139
| 27> C 	 -40.7667 	 22.7227 	 77.1627
| 28> H 	 -37.9267 	 21.9613 	 75.6444
| 29> C 	 -38.4493 	 23.7525 	 77.6035
| 30> H 	 -37.4863 	 23.2745 	 77.5385
| 31> H 	 -38.8835 	 23.7221 	 78.642
| 32> C 	 -38.4396 	 25.2235 	 77.0671
| 33> H 	 -38.4524 	 25.0612 	 75.9863
| 34> H 	 -37.4271 	 25.6592 	 77.1992
| 35> C 	 -39.533 	 26.1458 	 77.5756
| 36> H 	 -39.6123 	 26.2909 	 78.751
| 37> H 	 -40.4995 	 25.8734 	 77.1469
| 38> H 	 -39.3647 	 27.1933 	 77.2473
| 39> H 	 -44.8212 	 24.6009 	 79.4059
| 40> H 	 -39.8766 	 20.2167 	 74.7543
| 41> *
| 42>
| 43>                          ****END OF INPUT****

CARTESIAN COORDINATES (ANGSTROEM)
---------------------------------
  S    -43.334400   23.676800   77.567900
  C    -43.799100   24.225200   79.145900
  C    -42.695900   24.170700   80.004100
  C    -41.520000   23.607200   79.367400
  C    -41.703000   23.406400   78.071200
  H    -40.573900   23.408300   79.880000
  C    -42.709800   24.560100   81.403900
  H    -42.106700   23.823600   81.847700
  H    -43.637600   24.321800   81.997200
  C    -42.340800   26.018200   81.684500
  H    -42.062300   25.989100   82.752500
  H    -41.444900   26.352800   81.149000
  C    -43.482200   26.967600   81.629000
  H    -43.114900   27.963700   81.751500
  H    -44.167400   26.942100   80.710100
  H    -44.167700   26.796800   82.473400
  S    -41.475600   21.418200   76.193200
  C    -39.938200   21.054700   75.409300
  C    -38.936200   21.866400   75.944600
  C    -39.414700   22.863900   76.913900
  C    -40.766700   22.722700   77.162700
  H    -37.926700   21.961300   75.644400
  C    -38.449300   23.752500   77.603500
  H    -37.486300   23.274500   77.538500
  H    -38.883500   23.722100   78.642000
  C    -38.439600   25.223500   77.067100
  H    -38.452400   25.061200   75.986300
  H    -37.427100   25.659200   77.199200
  C    -39.533000   26.145800   77.575600
  H    -39.612300   26.290900   78.751000
  H    -40.499500   25.873400   77.146900
  H    -39.364700   27.193300   77.247300
  H    -44.821200   24.600900   79.405900
  H    -39.876600   20.216700   74.754300

 Total Charge           Charge          ....    0
 Multiplicity           Mult            ....    1
 Number of Electrons    NEL             ....  134
 Basis Dimension        Dim             ....  322

ORBITAL ENERGIES
----------------

  NO   OCC          E(Eh)            E(eV)
   0   2.0000     -88.963569     -2420.8218
   1   2.0000     -88.961582     -2420.7677
   2   2.0000     -10.326256      -280.9917
   3   2.0000     -10.323118      -280.9063
   4   2.0000     -10.321003      -280.8488
   5   2.0000     -10.316201      -280.7181
   6   2.0000     -10.300235      -280.2836
   7   2.0000     -10.299086      -280.2524
   8   2.0000     -10.296697      -280.1874
   9   2.0000     -10.293379      -280.0971
  10   2.0000     -10.290830      -280.0277
  11   2.0000     -10.290458      -280.0176
  12   2.0000     -10.287038      -279.9245
  13   2.0000     -10.286756      -279.9169
  14   2.0000     -10.284277      -279.8494
  15   2.0000     -10.279980      -279.7325
  16   2.0000      -8.079050      -219.8421
  17   2.0000      -8.075996      -219.7590
  18   2.0000      -6.037547      -164.2900
  19   2.0000      -6.034629      -164.2106
  20   2.0000      -6.033438      -164.1782
  21   2.0000      -6.030430      -164.0963
  22   2.0000      -6.029787      -164.0788
  23   2.0000      -6.026763      -163.9966
  24   2.0000      -1.010288       -27.4913
  25   2.0000      -0.980803       -26.6890
  26   2.0000      -0.920192       -25.0397
  27   2.0000      -0.907667       -24.6989
  28   2.0000      -0.868050       -23.6208
  29   2.0000      -0.855562       -23.2810
  30   2.0000      -0.844810       -22.9885
  31   2.0000      -0.816479       -22.2175
  32   2.0000      -0.780696       -21.2438
  33   2.0000      -0.771187       -20.9851
  34   2.0000      -0.704587       -19.1728
  35   2.0000      -0.697445       -18.9784
  36   2.0000      -0.691607       -18.8196
  37   2.0000      -0.667744       -18.1702
  38   2.0000      -0.643690       -17.5157
  39   2.0000      -0.622440       -16.9374
  40   2.0000      -0.591953       -16.1079
  41   2.0000      -0.571372       -15.5478
  42   2.0000      -0.557552       -15.1718
  43   2.0000      -0.552026       -15.0214
  44   2.0000      -0.542576       -14.7642
  45   2.0000      -0.531582       -14.4651
  46   2.0000      -0.517519       -14.0824
  47   2.0000      -0.506810       -13.7910
  48   2.0000      -0.505043       -13.7429
  49   2.0000      -0.493486       -13.4284
  50   2.0000      -0.489962       -13.3325
  51   2.0000      -0.485868       -13.2211
  52   2.0000      -0.476911       -12.9774
  53   2.0000      -0.466499       -12.6941
  54   2.0000      -0.458797       -12.4845
  55   2.0000      -0.446669       -12.1545
  56   2.0000      -0.439938       -11.9713
  57   2.0000      -0.435975       -11.8635
  58   2.0000      -0.428965       -11.6727
  59   2.0000      -0.425563       -11.5802
  60   2.0000      -0.419460       -11.4141
  61   2.0000      -0.408065       -11.1040
  62   2.0000      -0.402444       -10.9511
  63   2.0000      -0.354004        -9.6329
  64   2.0000      -0.327169        -8.9027
  65   2.0000      -0.324669        -8.8347
  66   2.0000      -0.291314        -7.9270
  67   0.0000       0.032707         0.8900
  68   0.0000       0.073400         1.9973
  69   0.0000       0.106269         2.8917
  70   0.0000       0.118244         3.2176
  71   0.0000       0.126685         3.4473

MULLIKEN ATOMIC CHARGES
-----------------------
   0 S :    0.102438
   1 C :   -0.133753
   2 C :   -0.091359
   3 C :    0.010894
   4 C :   -0.118120
   5 H :    0.031433
   6 C :    0.048270
   7 H :    0.004689
   8 H :    0.020363
   9 C :   -0.045559
  10 H :    0.025450
  11 H :    0.032669
  12 C :   -0.049297
  13 H :    0.029945
  14 H :    0.037935
  15 H :    0.024099
  16 S :    0.086312
  17 C :   -0.080137
  18 C :    0.000818
  19 C :   -0.094173
  20 C :   -0.147591
  21 H :    0.004206
  22 C :    0.069949
  23 H :    0.021483
  24 H :    0.021455
  25 C :   -0.050992
  26 H :    0.025905
  27 H :    0.027439
  28 C :   -0.078148
  29 H :    0.049860
  30 H :    0.052757
  31 H :    0.034453
  32 H :    0.067978
  33 H :    0.058330
Sum of atomic charges:   -0.0000000

LOEWDIN ATOMIC CHARGES
----------------------
   0 S :    0.411806
   1 C :   -0.209382
   2 C :   -0.059980
   3 C :   -0.064459
   4 C :   -0.197192
   5 H :    0.035550
   6 C :   -0.045805
   7 H :    0.025823
   8 H :    0.037736
   9 C :   -0.040119
  10 H :    0.031446
  11 H :    0.024330
  12 C :   -0.069185
  13 H :    0.024712
  14 H :    0.029194
  15 H :    0.025542
  16 S :    0.385967
  17 C :   -0.173445
  18 C :   -0.064912
  19 C :   -0.062444
  20 C :   -0.188488
  21 H :    0.021649
  22 C :   -0.034530
  23 H :    0.030536
  24 H :    0.036336
  25 C :   -0.043792
  26 H :    0.027315
  27 H :    0.024998
  28 C :   -0.077702
  29 H :    0.037189
  30 H :    0.028868
  31 H :    0.029587
  32 H :    0.038768
  33 H :    0.024082

  Mayer bond orders larger than 0.100000
B(  0-S ,  1-C ) :   1.1272 B(  0-S ,  4-C ) :   1.1454 B(  1-C ,  2-C ) :   1.6070
B(  1-C , 32-H ) :   0.9651 B(  2-C ,  3-C ) :   1.2297 B(  2-C ,  6-C ) :   1.0411
B(  3-C ,  4-C ) :   1.6049 B(  3-C ,  5-H ) :   0.9824 B(  4-C , 20-C ) :   1.0086
B(  6-C ,  7-H ) :   0.9290 B(  6-C ,  8-H ) :   0.9369 B(  6-C ,  9-C ) :   1.0614
B(  9-C , 10-H ) :   0.9468 B(  9-C , 11-H ) :   0.9580 B(  9-C , 12-C ) :   1.0860
B( 12-C , 13-H ) :   0.9705 B( 12-C , 14-H ) :   0.9727 B( 12-C , 15-H ) :   0.9714
B( 16-S , 17-C ) :   1.1477 B( 16-S , 20-C ) :   1.1343 B( 17-C , 18-C ) :   1.5856
B( 17-C , 33-H ) :   0.9769 B( 18-C , 19-C ) :   1.2411 B( 18-C , 21-H ) :   0.9864
B( 19-C , 20-C ) :   1.6231 B( 19-C , 22-C ) :   1.0342 B( 22-C , 23-H ) :   0.9291
B( 22-C , 24-H ) :   0.9388 B( 22-C , 25-C ) :   1.0537 B( 25-C , 26-H ) :   0.9533
B( 25-C , 27-H ) :   0.9579 B( 25-C , 28-C ) :   1.0793 B( 28-C , 29-H ) :   0.9705
B( 28-C , 30-H ) :   0.9704 B( 28-C , 31-H ) :   0.9690

Dispersion correction           -0.015622379
FINAL SINGLE POINT ENERGY     -1339.873066546615

DIPOLE MOMENT
-------------
                                X             Y             Z
Electronic contribution:     -7.58015     -20.77811     -16.92555
Nuclear contribution   :      7.98325      21.06159      17.42453
                        -----------------------------------------
Total Dipole Moment    :      0.40310       0.28348       0.49898
                        -----------------------------------------
Magnitude (a.u.)       :      0.70130
Magnitude (Debye)      :      1.78257

Rotational constants in cm-1:     0.022531     0.009022     0.007227
Rotational constants in MHz :   675.468265   270.473618   216.649464

                             ****ORCA TERMINATED NORMALLY****
TOTAL RUN TIME: 0 days 0 hours 0 minutes 31 seconds 840 msec
