                         Program Version 4.2.1 -  RELEASE  -
|  1> ! wB97X-D3 SP def2-SVP
|  2> %pal
|  3> nprocs 16
|  4> end
|  5>
|  6> * xyz 0 1
|  7> S 	 -36.2127 	 58.9158 	 111.392
|  8> C 	 -34.8954 	 59.7229 	 112.193
|  9> C 	 -34.6187 	 59.2331 	 113.467
| 10> C 	 -35.5826 	 58.2556 	 113.856
| 11> C 	 -36.4796 	 57.9456 	 112.824
| 12> H 	 -35.7189 	 57.8003 	 114.843
| 13> C 	 -33.5863 	 59.7951 	 114.379
| 14> H 	 -33.4105 	 59.09 	 115.186
| 15> H 	 -34.0197 	 60.5653 	 115.004
| 16> C 	 -32.1694 	 60.1173 	 113.849
| 17> H 	 -32.1999 	 61.0758 	 113.294
| 18> H 	 -31.4015 	 60.4603 	 114.565
| 19> C 	 -31.5022 	 59.0264 	 113.131
| 20> H 	 -30.4036 	 59.0727 	 112.964
| 21> H 	 -31.7304 	 58.1251 	 113.68
| 22> H 	 -31.8832 	 58.9857 	 112.078
| 23> S 	 -38.1537 	 56.5949 	 114.702
| 24> C 	 -39.0426 	 55.2299 	 114.044
| 25> C 	 -39.0202 	 55.1286 	 112.667
| 26> C 	 -38.0615 	 56.0228 	 112.082
| 27> C 	 -37.4131 	 56.8438 	 113.021
| 28> H 	 -39.6958 	 54.3734 	 112.25
| 29> C 	 -37.7708 	 55.9109 	 110.583
| 30> H 	 -37.3812 	 54.9352 	 110.409
| 31> H 	 -36.9017 	 56.4948 	 110.29
| 32> C 	 -38.9657 	 56.1802 	 109.707
| 33> H 	 -39.425 	 57.1291 	 109.937
| 34> H 	 -39.7363 	 55.427 	 109.957
| 35> C 	 -38.6571 	 56.2814 	 108.194
| 36> H 	 -37.9412 	 57.0961 	 107.966
| 37> H 	 -39.491 	 56.2677 	 107.548
| 38> H 	 -38.1082 	 55.4435 	 107.867
| 39> H 	 -34.353 	 60.6192 	 111.867
| 40> H 	 -39.7189 	 54.6263 	 114.656
| 41> *
| 42>
| 43>                          ****END OF INPUT****

CARTESIAN COORDINATES (ANGSTROEM)
---------------------------------
  S    -36.212700   58.915800  111.392000
  C    -34.895400   59.722900  112.193000
  C    -34.618700   59.233100  113.467000
  C    -35.582600   58.255600  113.856000
  C    -36.479600   57.945600  112.824000
  H    -35.718900   57.800300  114.843000
  C    -33.586300   59.795100  114.379000
  H    -33.410500   59.090000  115.186000
  H    -34.019700   60.565300  115.004000
  C    -32.169400   60.117300  113.849000
  H    -32.199900   61.075800  113.294000
  H    -31.401500   60.460300  114.565000
  C    -31.502200   59.026400  113.131000
  H    -30.403600   59.072700  112.964000
  H    -31.730400   58.125100  113.680000
  H    -31.883200   58.985700  112.078000
  S    -38.153700   56.594900  114.702000
  C    -39.042600   55.229900  114.044000
  C    -39.020200   55.128600  112.667000
  C    -38.061500   56.022800  112.082000
  C    -37.413100   56.843800  113.021000
  H    -39.695800   54.373400  112.250000
  C    -37.770800   55.910900  110.583000
  H    -37.381200   54.935200  110.409000
  H    -36.901700   56.494800  110.290000
  C    -38.965700   56.180200  109.707000
  H    -39.425000   57.129100  109.937000
  H    -39.736300   55.427000  109.957000
  C    -38.657100   56.281400  108.194000
  H    -37.941200   57.096100  107.966000
  H    -39.491000   56.267700  107.548000
  H    -38.108200   55.443500  107.867000
  H    -34.353000   60.619200  111.867000
  H    -39.718900   54.626300  114.656000

 Total Charge           Charge          ....    0
 Multiplicity           Mult            ....    1
 Number of Electrons    NEL             ....  134
 Basis Dimension        Dim             ....  322

ORBITAL ENERGIES
----------------

  NO   OCC          E(Eh)            E(eV)
   0   2.0000     -88.976607     -2421.1766
   1   2.0000     -88.967216     -2420.9210
   2   2.0000     -10.335545      -281.2445
   3   2.0000     -10.330867      -281.1172
   4   2.0000     -10.318638      -280.7844
   5   2.0000     -10.313807      -280.6530
   6   2.0000     -10.308238      -280.5014
   7   2.0000     -10.302537      -280.3463
   8   2.0000     -10.296435      -280.1802
   9   2.0000     -10.295094      -280.1437
  10   2.0000     -10.292317      -280.0682
  11   2.0000     -10.287152      -279.9276
  12   2.0000     -10.286851      -279.9194
  13   2.0000     -10.285536      -279.8837
  14   2.0000     -10.274175      -279.5745
  15   2.0000     -10.272166      -279.5199
  16   2.0000      -8.090284      -220.1478
  17   2.0000      -8.080284      -219.8757
  18   2.0000      -6.048864      -164.5980
  19   2.0000      -6.044931      -164.4909
  20   2.0000      -6.041045      -164.3852
  21   2.0000      -6.038939      -164.3279
  22   2.0000      -6.035346      -164.2301
  23   2.0000      -6.030687      -164.1033
  24   2.0000      -1.001814       -27.2607
  25   2.0000      -0.976977       -26.5849
  26   2.0000      -0.916817       -24.9479
  27   2.0000      -0.909306       -24.7435
  28   2.0000      -0.867717       -23.6118
  29   2.0000      -0.857873       -23.3439
  30   2.0000      -0.846448       -23.0330
  31   2.0000      -0.808029       -21.9876
  32   2.0000      -0.787852       -21.4385
  33   2.0000      -0.773763       -21.0552
  34   2.0000      -0.709204       -19.2984
  35   2.0000      -0.701864       -19.0987
  36   2.0000      -0.696452       -18.9514
  37   2.0000      -0.658912       -17.9299
  38   2.0000      -0.632278       -17.2052
  39   2.0000      -0.607446       -16.5294
  40   2.0000      -0.596115       -16.2211
  41   2.0000      -0.573227       -15.5983
  42   2.0000      -0.565212       -15.3802
  43   2.0000      -0.560980       -15.2651
  44   2.0000      -0.538796       -14.6614
  45   2.0000      -0.527716       -14.3599
  46   2.0000      -0.512601       -13.9486
  47   2.0000      -0.508376       -13.8336
  48   2.0000      -0.504891       -13.7388
  49   2.0000      -0.495263       -13.4768
  50   2.0000      -0.481429       -13.1003
  51   2.0000      -0.474772       -12.9192
  52   2.0000      -0.471489       -12.8299
  53   2.0000      -0.471019       -12.8171
  54   2.0000      -0.459232       -12.4963
  55   2.0000      -0.454371       -12.3641
  56   2.0000      -0.448532       -12.2052
  57   2.0000      -0.446331       -12.1453
  58   2.0000      -0.432953       -11.7812
  59   2.0000      -0.423283       -11.5181
  60   2.0000      -0.419392       -11.4122
  61   2.0000      -0.410851       -11.1798
  62   2.0000      -0.396384       -10.7862
  63   2.0000      -0.356712        -9.7066
  64   2.0000      -0.334513        -9.1026
  65   2.0000      -0.330883        -9.0038
  66   2.0000      -0.277665        -7.5556
  67   0.0000       0.019263         0.5242
  68   0.0000       0.076872         2.0918
  69   0.0000       0.091513         2.4902
  70   0.0000       0.110651         3.0110
  71   0.0000       0.126190         3.4338

MULLIKEN ATOMIC CHARGES
-----------------------
   0 S :    0.134200
   1 C :   -0.125250
   2 C :   -0.063236
   3 C :   -0.036273
   4 C :   -0.108145
   5 H :    0.027562
   6 C :    0.074629
   7 H :    0.011630
   8 H :    0.039965
   9 C :   -0.086393
  10 H :    0.015847
  11 H :    0.024676
  12 C :   -0.050379
  13 H :    0.037792
  14 H :    0.031019
  15 H :    0.035583
  16 S :    0.073525
  17 C :   -0.093303
  18 C :   -0.044373
  19 C :   -0.053747
  20 C :   -0.125149
  21 H :    0.032892
  22 C :    0.083763
  23 H :    0.022912
  24 H :    0.003808
  25 C :   -0.086670
  26 H :    0.029634
  27 H :    0.030312
  28 C :   -0.009486
  29 H :    0.033790
  30 H :    0.027834
  31 H :    0.001654
  32 H :    0.051242
  33 H :    0.058137
Sum of atomic charges:    0.0000000

LOEWDIN ATOMIC CHARGES
----------------------
   0 S :    0.427729
   1 C :   -0.208255
   2 C :   -0.060477
   3 C :   -0.063115
   4 C :   -0.193031
   5 H :    0.028604
   6 C :   -0.038128
   7 H :    0.031564
   8 H :    0.039402
   9 C :   -0.057878
  10 H :    0.019173
  11 H :    0.032020
  12 C :   -0.071476
  13 H :    0.030196
  14 H :    0.026355
  15 H :    0.029643
  16 S :    0.357019
  17 C :   -0.177098
  18 C :   -0.074314
  19 C :   -0.053070
  20 C :   -0.157126
  21 H :    0.038545
  22 C :   -0.034550
  23 H :    0.030376
  24 H :    0.016699
  25 C :   -0.039083
  26 H :    0.024280
  27 H :    0.024851
  28 C :   -0.062558
  29 H :    0.032042
  30 H :    0.022546
  31 H :    0.016672
  32 H :    0.033491
  33 H :    0.028950

  Mayer bond orders larger than 0.100000
B(  0-S ,  1-C ) :   1.1366 B(  0-S ,  4-C ) :   1.1416 B(  1-C ,  2-C ) :   1.5984
B(  1-C , 32-H ) :   0.9606 B(  2-C ,  3-C ) :   1.2591 B(  2-C ,  6-C ) :   1.0239
B(  3-C ,  4-C ) :   1.5171 B(  3-C ,  5-H ) :   0.9886 B(  4-C , 20-C ) :   1.1066
B(  6-C ,  7-H ) :   0.9338 B(  6-C ,  8-H ) :   0.9309 B(  6-C ,  9-C ) :   1.0666
B(  9-C , 10-H ) :   0.9499 B(  9-C , 11-H ) :   0.9543 B(  9-C , 12-C ) :   1.0782
B( 12-C , 13-H ) :   0.9748 B( 12-C , 14-H ) :   0.9733 B( 12-C , 15-H ) :   0.9683
B( 16-S , 17-C ) :   1.1340 B( 16-S , 20-C ) :   1.0976 B( 17-C , 18-C ) :   1.6643
B( 17-C , 33-H ) :   0.9600 B( 18-C , 19-C ) :   1.1883 B( 18-C , 21-H ) :   0.9869
B( 19-C , 20-C ) :   1.6171 B( 19-C , 22-C ) :   1.0362 B( 22-C , 23-H ) :   0.9289
B( 22-C , 24-H ) :   0.9355 B( 22-C , 25-C ) :   1.0496 B( 25-C , 26-H ) :   0.9587
B( 25-C , 27-H ) :   0.9546 B( 25-C , 28-C ) :   1.0847 B( 28-C , 29-H ) :   0.9728
B( 28-C , 30-H ) :   0.9740 B( 28-C , 31-H ) :   0.9698

Dispersion correction           -0.014033783
FINAL SINGLE POINT ENERGY     -1339.865345449293

DIPOLE MOMENT
-------------
                                X             Y             Z
Electronic contribution:    -11.96841      -0.61621      10.76764
Nuclear contribution   :     12.10591       0.57725     -10.83972
                        -----------------------------------------
Total Dipole Moment    :      0.13750      -0.03897      -0.07207
                        -----------------------------------------
Magnitude (a.u.)       :      0.16006
Magnitude (Debye)      :      0.40684

Rotational constants in cm-1:     0.020623     0.007911     0.006172
Rotational constants in MHz :   618.276131   237.176964   185.026984

                             ****ORCA TERMINATED NORMALLY****
TOTAL RUN TIME: 0 days 0 hours 0 minutes 30 seconds 773 msec
