                         Program Version 4.2.1 -  RELEASE  -
|  1> ! wB97X-D3 SP def2-SVP
|  2> %pal
|  3> nprocs 16
|  4> end
|  5>
|  6> * xyz 0 1
|  7> S 	 -79.1837 	 43.4611 	 139.776
|  8> C 	 -78.0095 	 42.4983 	 140.692
|  9> C 	 -76.7356 	 42.3783 	 140.073
| 10> C 	 -76.8059 	 42.9088 	 138.743
| 11> C 	 -78.07 	 43.4723 	 138.399
| 12> H 	 -76.0444 	 42.9368 	 138
| 13> C 	 -75.5819 	 41.4837 	 140.52
| 14> H 	 -75.7707 	 41.2189 	 141.573
| 15> H 	 -74.6273 	 42.0039 	 140.522
| 16> C 	 -75.3786 	 40.0848 	 139.819
| 17> H 	 -75.0559 	 40.2835 	 138.812
| 18> H 	 -74.6384 	 39.5648 	 140.384
| 19> C 	 -76.7113 	 39.2108 	 139.853
| 20> H 	 -77.5195 	 39.7305 	 139.391
| 21> H 	 -76.6714 	 38.2836 	 139.238
| 22> H 	 -77.01 	 38.9284 	 140.854
| 23> S 	 -77.7778 	 45.649 	 136.924
| 24> C 	 -78.6775 	 45.8244 	 135.399
| 25> C 	 -79.4301 	 44.7009 	 135.15
| 26> C 	 -79.3707 	 43.7912 	 136.237
| 27> C 	 -78.4473 	 44.1172 	 137.188
| 28> H 	 -80.0231 	 44.5869 	 134.237
| 29> C 	 -80.1559 	 42.5417 	 136.093
| 30> H 	 -79.6388 	 41.676 	 136.602
| 31> H 	 -80.2312 	 42.1287 	 135.175
| 32> C 	 -81.5734 	 42.7325 	 136.643
| 33> H 	 -81.5464 	 42.7387 	 137.756
| 34> H 	 -82.0672 	 41.7913 	 136.372
| 35> C 	 -82.3755 	 43.9512 	 136.049
| 36> H 	 -83.3995 	 43.9091 	 136.346
| 37> H 	 -82.276 	 43.9872 	 134.967
| 38> H 	 -81.9452 	 44.917 	 136.404
| 39> H 	 -78.1565 	 42.035 	 141.639
| 40> H 	 -78.6998 	 46.6857 	 134.75
| 41> *
| 42>
| 43>                          ****END OF INPUT****

CARTESIAN COORDINATES (ANGSTROEM)
---------------------------------
  S    -79.183700   43.461100  139.776000
  C    -78.009500   42.498300  140.692000
  C    -76.735600   42.378300  140.073000
  C    -76.805900   42.908800  138.743000
  C    -78.070000   43.472300  138.399000
  H    -76.044400   42.936800  138.000000
  C    -75.581900   41.483700  140.520000
  H    -75.770700   41.218900  141.573000
  H    -74.627300   42.003900  140.522000
  C    -75.378600   40.084800  139.819000
  H    -75.055900   40.283500  138.812000
  H    -74.638400   39.564800  140.384000
  C    -76.711300   39.210800  139.853000
  H    -77.519500   39.730500  139.391000
  H    -76.671400   38.283600  139.238000
  H    -77.010000   38.928400  140.854000
  S    -77.777800   45.649000  136.924000
  C    -78.677500   45.824400  135.399000
  C    -79.430100   44.700900  135.150000
  C    -79.370700   43.791200  136.237000
  C    -78.447300   44.117200  137.188000
  H    -80.023100   44.586900  134.237000
  C    -80.155900   42.541700  136.093000
  H    -79.638800   41.676000  136.602000
  H    -80.231200   42.128700  135.175000
  C    -81.573400   42.732500  136.643000
  H    -81.546400   42.738700  137.756000
  H    -82.067200   41.791300  136.372000
  C    -82.375500   43.951200  136.049000
  H    -83.399500   43.909100  136.346000
  H    -82.276000   43.987200  134.967000
  H    -81.945200   44.917000  136.404000
  H    -78.156500   42.035000  141.639000
  H    -78.699800   46.685700  134.750000

 Total Charge           Charge          ....    0
 Multiplicity           Mult            ....    1
 Number of Electrons    NEL             ....  134
 Basis Dimension        Dim             ....  322

ORBITAL ENERGIES
----------------

  NO   OCC          E(Eh)            E(eV)
   0   2.0000     -88.972957     -2421.0772
   1   2.0000     -88.964365     -2420.8435
   2   2.0000     -10.329968      -281.0927
   3   2.0000     -10.318367      -280.7771
   4   2.0000     -10.316149      -280.7167
   5   2.0000     -10.315526      -280.6997
   6   2.0000     -10.307663      -280.4858
   7   2.0000     -10.298079      -280.2250
   8   2.0000     -10.297156      -280.1999
   9   2.0000     -10.294781      -280.1352
  10   2.0000     -10.292144      -280.0635
  11   2.0000     -10.292068      -280.0614
  12   2.0000     -10.286058      -279.8979
  13   2.0000     -10.278976      -279.7052
  14   2.0000     -10.277431      -279.6631
  15   2.0000     -10.276654      -279.6420
  16   2.0000      -8.086208      -220.0369
  17   2.0000      -8.079755      -219.8613
  18   2.0000      -6.044659      -164.4835
  19   2.0000      -6.040935      -164.3822
  20   2.0000      -6.038257      -164.3093
  21   2.0000      -6.037115      -164.2783
  22   2.0000      -6.034108      -164.1964
  23   2.0000      -6.030521      -164.0988
  24   2.0000      -1.011370       -27.5208
  25   2.0000      -0.977621       -26.6024
  26   2.0000      -0.909720       -24.7547
  27   2.0000      -0.903266       -24.5791
  28   2.0000      -0.869436       -23.6586
  29   2.0000      -0.843757       -22.9598
  30   2.0000      -0.838842       -22.8260
  31   2.0000      -0.809761       -22.0347
  32   2.0000      -0.785381       -21.3713
  33   2.0000      -0.773990       -21.0613
  34   2.0000      -0.711902       -19.3718
  35   2.0000      -0.698619       -19.0104
  36   2.0000      -0.689144       -18.7526
  37   2.0000      -0.668262       -18.1843
  38   2.0000      -0.639142       -17.3919
  39   2.0000      -0.615405       -16.7460
  40   2.0000      -0.602540       -16.3960
  41   2.0000      -0.565671       -15.3927
  42   2.0000      -0.551502       -15.0071
  43   2.0000      -0.546491       -14.8708
  44   2.0000      -0.542416       -14.7599
  45   2.0000      -0.534604       -14.5473
  46   2.0000      -0.519287       -14.1305
  47   2.0000      -0.506752       -13.7894
  48   2.0000      -0.502624       -13.6771
  49   2.0000      -0.487694       -13.2708
  50   2.0000      -0.484485       -13.1835
  51   2.0000      -0.474337       -12.9074
  52   2.0000      -0.471729       -12.8364
  53   2.0000      -0.464829       -12.6486
  54   2.0000      -0.460632       -12.5344
  55   2.0000      -0.445621       -12.1260
  56   2.0000      -0.441846       -12.0232
  57   2.0000      -0.438434       -11.9304
  58   2.0000      -0.435121       -11.8402
  59   2.0000      -0.427441       -11.6313
  60   2.0000      -0.421819       -11.4783
  61   2.0000      -0.413068       -11.2402
  62   2.0000      -0.409523       -11.1437
  63   2.0000      -0.339255        -9.2316
  64   2.0000      -0.333925        -9.0866
  65   2.0000      -0.321144        -8.7388
  66   2.0000      -0.299306        -8.1445
  67   0.0000       0.033506         0.9117
  68   0.0000       0.060990         1.6596
  69   0.0000       0.106751         2.9048
  70   0.0000       0.111766         3.0413
  71   0.0000       0.128722         3.5027

MULLIKEN ATOMIC CHARGES
-----------------------
   0 S :    0.133936
   1 C :   -0.103481
   2 C :   -0.070924
   3 C :    0.043245
   4 C :   -0.181465
   5 H :    0.002232
   6 C :    0.029759
   7 H :    0.015690
   8 H :    0.039924
   9 C :   -0.045273
  10 H :    0.032126
  11 H :    0.033984
  12 C :   -0.069191
  13 H :    0.037046
  14 H :    0.034224
  15 H :    0.026056
  16 S :    0.123769
  17 C :   -0.094530
  18 C :   -0.039839
  19 C :   -0.008804
  20 C :   -0.176382
  21 H :    0.027843
  22 C :    0.081752
  23 H :    0.027619
  24 H :   -0.007806
  25 C :   -0.093682
  26 H :    0.034118
  27 H :    0.022702
  28 C :   -0.046071
  29 H :    0.038244
  30 H :    0.020400
  31 H :    0.048286
  32 H :    0.034195
  33 H :    0.050300
Sum of atomic charges:   -0.0000000

LOEWDIN ATOMIC CHARGES
----------------------
   0 S :    0.405538
   1 C :   -0.186154
   2 C :   -0.061761
   3 C :   -0.051053
   4 C :   -0.193480
   5 H :    0.025237
   6 C :   -0.035381
   7 H :    0.028316
   8 H :    0.032517
   9 C :   -0.024631
  10 H :    0.019453
  11 H :    0.022925
  12 C :   -0.068673
  13 H :    0.022659
  14 H :    0.029912
  15 H :    0.021092
  16 S :    0.427038
  17 C :   -0.178088
  18 C :   -0.064804
  19 C :   -0.055975
  20 C :   -0.231649
  21 H :    0.035501
  22 C :   -0.033203
  23 H :    0.039449
  24 H :    0.013260
  25 C :   -0.036753
  26 H :    0.020252
  27 H :    0.021514
  28 C :   -0.065842
  29 H :    0.023941
  30 H :    0.019893
  31 H :    0.031797
  32 H :    0.019678
  33 H :    0.027473

  Mayer bond orders larger than 0.100000
B(  0-S ,  1-C ) :   1.1487 B(  0-S ,  4-C ) :   1.1408 B(  1-C ,  2-C ) :   1.5959
B(  1-C ,  4-C ) :   0.1090 B(  1-C , 32-H ) :   0.9649 B(  2-C ,  3-C ) :   1.2256
B(  2-C ,  6-C ) :   1.0423 B(  3-C ,  4-C ) :   1.5770 B(  3-C ,  5-H ) :   0.9969
B(  4-C , 20-C ) :   1.0430 B(  6-C ,  7-H ) :   0.9422 B(  6-C ,  8-H ) :   0.9410
B(  6-C ,  9-C ) :   1.0603 B(  9-C , 10-H ) :   0.9590 B(  9-C , 11-H ) :   0.9590
B(  9-C , 12-C ) :   1.0674 B( 12-C , 13-H ) :   0.9766 B( 12-C , 14-H ) :   0.9763
B( 12-C , 15-H ) :   0.9783 B( 16-S , 17-C ) :   1.1515 B( 16-S , 20-C ) :   1.1509
B( 17-C , 18-C ) :   1.6069 B( 17-C , 33-H ) :   0.9690 B( 18-C , 19-C ) :   1.2368
B( 18-C , 21-H ) :   0.9871 B( 19-C , 20-C ) :   1.5958 B( 19-C , 22-C ) :   1.0501
B( 22-C , 23-H ) :   0.9290 B( 22-C , 24-H ) :   0.9385 B( 22-C , 25-C ) :   1.0710
B( 25-C , 26-H ) :   0.9547 B( 25-C , 27-H ) :   0.9564 B( 25-C , 28-C ) :   1.0759
B( 28-C , 29-H ) :   0.9740 B( 28-C , 30-H ) :   0.9730 B( 28-C , 31-H ) :   0.9676

Dispersion correction           -0.015629670
FINAL SINGLE POINT ENERGY     -1339.871245140439

DIPOLE MOMENT
-------------
                                X             Y             Z
Electronic contribution:      3.47427      18.95704       1.22889
Nuclear contribution   :     -3.45811     -19.37529      -1.45794
                        -----------------------------------------
Total Dipole Moment    :      0.01616      -0.41825      -0.22905
                        -----------------------------------------
Magnitude (a.u.)       :      0.47713
Magnitude (Debye)      :      1.21278

Rotational constants in cm-1:     0.022511     0.008279     0.007383
Rotational constants in MHz :   674.863079   248.198878   221.333252

                             ****ORCA TERMINATED NORMALLY****
TOTAL RUN TIME: 0 days 0 hours 0 minutes 34 seconds 23 msec
