                         Program Version 4.2.1 -  RELEASE  -
|  1> ! wB97X-D3 SP def2-SVP
|  2> %pal
|  3> nprocs 16
|  4> end
|  5>
|  6> * xyz 0 1
|  7> S 	 -49.7081 	 33.2832 	 95.8967
|  8> C 	 -49.119 	 34.9121 	 95.3696
|  9> C 	 -48.7927 	 35.6645 	 96.4708
| 10> C 	 -48.6646 	 34.8443 	 97.6542
| 11> C 	 -49.1512 	 33.5507 	 97.5867
| 12> H 	 -48.3394 	 35.3373 	 98.5907
| 13> C 	 -48.5071 	 37.1378 	 96.4683
| 14> H 	 -47.4382 	 37.357 	 96.3648
| 15> H 	 -48.9056 	 37.5224 	 97.4764
| 16> C 	 -49.3106 	 37.9616 	 95.4042
| 17> H 	 -48.8298 	 38.9386 	 95.4317
| 18> H 	 -49.0567 	 37.5862 	 94.3746
| 19> C 	 -50.7631 	 37.9209 	 95.8024
| 20> H 	 -50.9471 	 38.1545 	 96.8881
| 21> H 	 -51.3357 	 38.5594 	 95.1358
| 22> H 	 -51.0858 	 36.8692 	 95.6126
| 23> S 	 -48.6723 	 30.9472 	 98.3003
| 24> C 	 -48.5817 	 30.553 	 99.9781
| 25> C 	 -49.0723 	 31.5512 	 100.749
| 26> C 	 -49.4566 	 32.7255 	 100.05
| 27> C 	 -49.3155 	 32.5611 	 98.6525
| 28> H 	 -49.1897 	 31.404 	 101.784
| 29> C 	 -50.03 	 33.9558 	 100.847
| 30> H 	 -51.0685 	 33.7491 	 100.78
| 31> H 	 -49.8302 	 34.8261 	 100.188
| 32> C 	 -49.4338 	 34.3367 	 102.22
| 33> H 	 -49.5412 	 33.5178 	 102.917
| 34> H 	 -50.0326 	 35.2644 	 102.513
| 35> C 	 -47.8978 	 34.5562 	 102.277
| 36> H 	 -47.5209 	 35.1041 	 103.173
| 37> H 	 -47.4492 	 35.0477 	 101.405
| 38> H 	 -47.441 	 33.5082 	 102.27
| 39> H 	 -49.0846 	 35.3186 	 94.3489
| 40> H 	 -48.1593 	 29.6287 	 100.384
| 41> *
| 42>
| 43>                          ****END OF INPUT****

CARTESIAN COORDINATES (ANGSTROEM)
---------------------------------
  S    -49.708100   33.283200   95.896700
  C    -49.119000   34.912100   95.369600
  C    -48.792700   35.664500   96.470800
  C    -48.664600   34.844300   97.654200
  C    -49.151200   33.550700   97.586700
  H    -48.339400   35.337300   98.590700
  C    -48.507100   37.137800   96.468300
  H    -47.438200   37.357000   96.364800
  H    -48.905600   37.522400   97.476400
  C    -49.310600   37.961600   95.404200
  H    -48.829800   38.938600   95.431700
  H    -49.056700   37.586200   94.374600
  C    -50.763100   37.920900   95.802400
  H    -50.947100   38.154500   96.888100
  H    -51.335700   38.559400   95.135800
  H    -51.085800   36.869200   95.612600
  S    -48.672300   30.947200   98.300300
  C    -48.581700   30.553000   99.978100
  C    -49.072300   31.551200  100.749000
  C    -49.456600   32.725500  100.050000
  C    -49.315500   32.561100   98.652500
  H    -49.189700   31.404000  101.784000
  C    -50.030000   33.955800  100.847000
  H    -51.068500   33.749100  100.780000
  H    -49.830200   34.826100  100.188000
  C    -49.433800   34.336700  102.220000
  H    -49.541200   33.517800  102.917000
  H    -50.032600   35.264400  102.513000
  C    -47.897800   34.556200  102.277000
  H    -47.520900   35.104100  103.173000
  H    -47.449200   35.047700  101.405000
  H    -47.441000   33.508200  102.270000
  H    -49.084600   35.318600   94.348900
  H    -48.159300   29.628700  100.384000

 Total Charge           Charge          ....    0
 Multiplicity           Mult            ....    1
 Number of Electrons    NEL             ....  134
 Basis Dimension        Dim             ....  322

ORBITAL ENERGIES
----------------

  NO   OCC          E(Eh)            E(eV)
   0   2.0000     -88.966270     -2420.8953
   1   2.0000     -88.962296     -2420.7871
   2   2.0000     -10.336305      -281.2651
   3   2.0000     -10.332082      -281.1502
   4   2.0000     -10.318730      -280.7869
   5   2.0000     -10.316594      -280.7288
   6   2.0000     -10.312920      -280.6288
   7   2.0000     -10.301747      -280.3248
   8   2.0000     -10.299296      -280.2581
   9   2.0000     -10.298818      -280.2451
  10   2.0000     -10.298477      -280.2358
  11   2.0000     -10.295326      -280.1501
  12   2.0000     -10.291768      -280.0533
  13   2.0000     -10.290423      -280.0167
  14   2.0000     -10.288432      -279.9625
  15   2.0000     -10.280788      -279.7545
  16   2.0000      -8.081270      -219.9025
  17   2.0000      -8.075346      -219.7413
  18   2.0000      -6.039756      -164.3501
  19   2.0000      -6.035652      -164.2384
  20   2.0000      -6.034215      -164.1993
  21   2.0000      -6.032099      -164.1417
  22   2.0000      -6.030190      -164.0898
  23   2.0000      -6.025718      -163.9681
  24   2.0000      -1.003079       -27.2952
  25   2.0000      -0.978190       -26.6179
  26   2.0000      -0.912624       -24.8338
  27   2.0000      -0.906249       -24.6603
  28   2.0000      -0.867860       -23.6157
  29   2.0000      -0.848318       -23.0839
  30   2.0000      -0.837905       -22.8006
  31   2.0000      -0.811639       -22.0858
  32   2.0000      -0.783494       -21.3200
  33   2.0000      -0.771068       -20.9818
  34   2.0000      -0.708521       -19.2798
  35   2.0000      -0.702627       -19.1194
  36   2.0000      -0.692484       -18.8434
  37   2.0000      -0.657685       -17.8965
  38   2.0000      -0.625989       -17.0340
  39   2.0000      -0.613599       -16.6969
  40   2.0000      -0.597377       -16.2555
  41   2.0000      -0.575290       -15.6544
  42   2.0000      -0.560602       -15.2547
  43   2.0000      -0.557260       -15.1638
  44   2.0000      -0.542700       -14.7676
  45   2.0000      -0.533471       -14.5165
  46   2.0000      -0.514688       -14.0054
  47   2.0000      -0.505034       -13.7427
  48   2.0000      -0.501202       -13.6384
  49   2.0000      -0.496596       -13.5131
  50   2.0000      -0.490438       -13.3455
  51   2.0000      -0.475193       -12.9307
  52   2.0000      -0.470495       -12.8028
  53   2.0000      -0.464644       -12.6436
  54   2.0000      -0.455785       -12.4025
  55   2.0000      -0.452933       -12.3249
  56   2.0000      -0.442602       -12.0438
  57   2.0000      -0.438725       -11.9383
  58   2.0000      -0.430534       -11.7154
  59   2.0000      -0.419243       -11.4082
  60   2.0000      -0.418199       -11.3798
  61   2.0000      -0.412852       -11.2343
  62   2.0000      -0.410671       -11.1749
  63   2.0000      -0.350655        -9.5418
  64   2.0000      -0.332683        -9.0528
  65   2.0000      -0.324209        -8.8222
  66   2.0000      -0.289291        -7.8720
  67   0.0000       0.023221         0.6319
  68   0.0000       0.071180         1.9369
  69   0.0000       0.098796         2.6884
  70   0.0000       0.122115         3.3229
  71   0.0000       0.129351         3.5198

MULLIKEN ATOMIC CHARGES
-----------------------
   0 S :    0.078004
   1 C :   -0.126965
   2 C :   -0.108332
   3 C :    0.008978
   4 C :   -0.107830
   5 H :    0.015691
   6 C :    0.005990
   7 H :    0.052593
   8 H :    0.032015
   9 C :   -0.084290
  10 H :    0.025966
  11 H :    0.031145
  12 C :   -0.045978
  13 H :    0.042983
  14 H :    0.035441
  15 H :    0.048092
  16 S :    0.106185
  17 C :   -0.086072
  18 C :   -0.024850
  19 C :   -0.073265
  20 C :   -0.137197
  21 H :   -0.000878
  22 C :    0.079735
  23 H :    0.049454
  24 H :    0.019716
  25 C :   -0.078559
  26 H :    0.034279
  27 H :    0.054644
  28 C :   -0.097009
  29 H :    0.052019
  30 H :    0.035436
  31 H :    0.042927
  32 H :    0.056245
  33 H :    0.063683
Sum of atomic charges:   -0.0000000

LOEWDIN ATOMIC CHARGES
----------------------
   0 S :    0.349533
   1 C :   -0.184681
   2 C :   -0.070092
   3 C :   -0.070927
   4 C :   -0.174105
   5 H :    0.029443
   6 C :   -0.036307
   7 H :    0.033683
   8 H :    0.035988
   9 C :   -0.045897
  10 H :    0.022240
  11 H :    0.025012
  12 C :   -0.069229
  13 H :    0.032416
  14 H :    0.023571
  15 H :    0.034699
  16 S :    0.415392
  17 C :   -0.181717
  18 C :   -0.079851
  19 C :   -0.041477
  20 C :   -0.205581
  21 H :    0.023247
  22 C :   -0.029686
  23 H :    0.036072
  24 H :    0.032050
  25 C :   -0.045385
  26 H :    0.020923
  27 H :    0.038345
  28 C :   -0.077189
  29 H :    0.033373
  30 H :    0.021734
  31 H :    0.035360
  32 H :    0.033208
  33 H :    0.035832

  Mayer bond orders larger than 0.100000
B(  0-S ,  1-C ) :   1.1067 B(  0-S ,  4-C ) :   1.1169 B(  1-C ,  2-C ) :   1.6347
B(  1-C , 32-H ) :   0.9644 B(  2-C ,  3-C ) :   1.2394 B(  2-C ,  6-C ) :   1.0065
B(  3-C ,  4-C ) :   1.6008 B(  3-C ,  5-H ) :   0.9775 B(  4-C , 20-C ) :   1.0338
B(  6-C ,  7-H ) :   0.9389 B(  6-C ,  8-H ) :   0.9469 B(  6-C ,  9-C ) :   1.0792
B(  9-C , 10-H ) :   0.9544 B(  9-C , 11-H ) :   0.9494 B(  9-C , 12-C ) :   1.0679
B( 12-C , 13-H ) :   0.9724 B( 12-C , 14-H ) :   0.9734 B( 12-C , 15-H ) :   0.9702
B( 16-S , 17-C ) :   1.1748 B( 16-S , 20-C ) :   1.1367 B( 17-C , 18-C ) :   1.5927
B( 17-C , 33-H ) :   0.9632 B( 18-C , 19-C ) :   1.2636 B( 18-C , 21-H ) :   0.9966
B( 19-C , 20-C ) :   1.5813 B( 19-C , 22-C ) :   0.9945 B( 22-C , 23-H ) :   0.9397
B( 22-C , 24-H ) :   0.9377 B( 22-C , 25-C ) :   1.0668 B( 25-C , 26-H ) :   0.9562
B( 25-C , 27-H ) :   0.9554 B( 25-C , 28-C ) :   1.0610 B( 28-C , 29-H ) :   0.9750
B( 28-C , 30-H ) :   0.9787 B( 28-C , 31-H ) :   0.9718

Dispersion correction           -0.014614385
FINAL SINGLE POINT ENERGY     -1339.867410259656

DIPOLE MOMENT
-------------
                                X             Y             Z
Electronic contribution:      0.43471     -25.00081     -10.85484
Nuclear contribution   :     -0.31120      25.56541      11.47038
                        -----------------------------------------
Total Dipole Moment    :      0.12351       0.56460       0.61555
                        -----------------------------------------
Magnitude (a.u.)       :      0.84435
Magnitude (Debye)      :      2.14617

Rotational constants in cm-1:     0.019824     0.008533     0.006462
Rotational constants in MHz :   594.319483   255.801299   193.713672

                             ****ORCA TERMINATED NORMALLY****
TOTAL RUN TIME: 0 days 0 hours 0 minutes 30 seconds 200 msec
