                         Program Version 4.2.1 -  RELEASE  -
|  1> ! wB97X-D3 SP def2-SVP
|  2> %pal
|  3> nprocs 16
|  4> end
|  5>
|  6> * xyz 0 1
|  7> S 	 12.2621 	 -15.0641 	 78.6915
|  8> C 	 12.321 	 -13.7786 	 79.8606
|  9> C 	 13.5412 	 -13.656 	 80.4657
| 10> C 	 14.479 	 -14.6481 	 80.0183
| 11> C 	 14.0126 	 -15.3537 	 78.9197
| 12> H 	 15.52 	 -14.7924 	 80.3807
| 13> C 	 13.7901 	 -12.7879 	 81.666
| 14> H 	 14.6523 	 -13.1824 	 82.2054
| 15> H 	 12.8866 	 -12.8931 	 82.3362
| 16> C 	 14.2197 	 -11.3339 	 81.3129
| 17> H 	 15.139 	 -11.3004 	 80.8218
| 18> H 	 13.4756 	 -10.9973 	 80.6023
| 19> C 	 14.207 	 -10.402 	 82.5439
| 20> H 	 13.2707 	 -10.401 	 83.0691
| 21> H 	 15.0416 	 -10.767 	 83.1909
| 22> H 	 14.3854 	 -9.30144 	 82.2365
| 23> S 	 14.0916 	 -17.9813 	 77.887
| 24> C 	 15.5592 	 -18.5873 	 77.2234
| 25> C 	 16.5758 	 -17.6458 	 77.2975
| 26> C 	 16.1199 	 -16.3359 	 77.744
| 27> C 	 14.7644 	 -16.3759 	 78.1997
| 28> H 	 17.5501 	 -17.9622 	 76.9744
| 29> C 	 17.0352 	 -15.1352 	 77.8462
| 30> H 	 17.9619 	 -15.4307 	 77.3948
| 31> H 	 17.2942 	 -14.9895 	 78.8736
| 32> C 	 16.5404 	 -13.8868 	 77.101
| 33> H 	 15.5812 	 -13.3987 	 77.4734
| 34> H 	 16.4293 	 -14.1822 	 76.0552
| 35> C 	 17.5436 	 -12.6886 	 77.0943
| 36> H 	 17.9801 	 -12.5584 	 78.0891
| 37> H 	 17.1917 	 -11.7447 	 76.7508
| 38> H 	 18.3629 	 -12.8816 	 76.4358
| 39> H 	 11.3864 	 -13.3364 	 80.1015
| 40> H 	 15.7823 	 -19.6281 	 77.0871
| 41> *
| 42>
| 43>                          ****END OF INPUT****

CARTESIAN COORDINATES (ANGSTROEM)
---------------------------------
  S     12.262100  -15.064100   78.691500
  C     12.321000  -13.778600   79.860600
  C     13.541200  -13.656000   80.465700
  C     14.479000  -14.648100   80.018300
  C     14.012600  -15.353700   78.919700
  H     15.520000  -14.792400   80.380700
  C     13.790100  -12.787900   81.666000
  H     14.652300  -13.182400   82.205400
  H     12.886600  -12.893100   82.336200
  C     14.219700  -11.333900   81.312900
  H     15.139000  -11.300400   80.821800
  H     13.475600  -10.997300   80.602300
  C     14.207000  -10.402000   82.543900
  H     13.270700  -10.401000   83.069100
  H     15.041600  -10.767000   83.190900
  H     14.385400   -9.301440   82.236500
  S     14.091600  -17.981300   77.887000
  C     15.559200  -18.587300   77.223400
  C     16.575800  -17.645800   77.297500
  C     16.119900  -16.335900   77.744000
  C     14.764400  -16.375900   78.199700
  H     17.550100  -17.962200   76.974400
  C     17.035200  -15.135200   77.846200
  H     17.961900  -15.430700   77.394800
  H     17.294200  -14.989500   78.873600
  C     16.540400  -13.886800   77.101000
  H     15.581200  -13.398700   77.473400
  H     16.429300  -14.182200   76.055200
  C     17.543600  -12.688600   77.094300
  H     17.980100  -12.558400   78.089100
  H     17.191700  -11.744700   76.750800
  H     18.362900  -12.881600   76.435800
  H     11.386400  -13.336400   80.101500
  H     15.782300  -19.628100   77.087100

 Total Charge           Charge          ....    0
 Multiplicity           Mult            ....    1
 Number of Electrons    NEL             ....  134
 Basis Dimension        Dim             ....  322

ORBITAL ENERGIES
----------------

  NO   OCC          E(Eh)            E(eV)
   0   2.0000     -88.966064     -2420.8897
   1   2.0000     -88.964916     -2420.8584
   2   2.0000     -10.332979      -281.1747
   3   2.0000     -10.331389      -281.1314
   4   2.0000     -10.314847      -280.6812
   5   2.0000     -10.311557      -280.5917
   6   2.0000     -10.310708      -280.5686
   7   2.0000     -10.300739      -280.2974
   8   2.0000     -10.299644      -280.2675
   9   2.0000     -10.297053      -280.1970
  10   2.0000     -10.295177      -280.1460
  11   2.0000     -10.290771      -280.0261
  12   2.0000     -10.289421      -279.9894
  13   2.0000     -10.286930      -279.9216
  14   2.0000     -10.282643      -279.8049
  15   2.0000     -10.271050      -279.4895
  16   2.0000      -8.080899      -219.8924
  17   2.0000      -8.079613      -219.8574
  18   2.0000      -6.039357      -164.3392
  19   2.0000      -6.038098      -164.3050
  20   2.0000      -6.035268      -164.2280
  21   2.0000      -6.034208      -164.1991
  22   2.0000      -6.031837      -164.1346
  23   2.0000      -6.030333      -164.0937
  24   2.0000      -1.002484       -27.2790
  25   2.0000      -0.982206       -26.7272
  26   2.0000      -0.909391       -24.7458
  27   2.0000      -0.906492       -24.6669
  28   2.0000      -0.868659       -23.6374
  29   2.0000      -0.850455       -23.1420
  30   2.0000      -0.844925       -22.9916
  31   2.0000      -0.814303       -22.1583
  32   2.0000      -0.781753       -21.2726
  33   2.0000      -0.767228       -20.8773
  34   2.0000      -0.707811       -19.2605
  35   2.0000      -0.701348       -19.0846
  36   2.0000      -0.690110       -18.7788
  37   2.0000      -0.661331       -17.9957
  38   2.0000      -0.643552       -17.5119
  39   2.0000      -0.616698       -16.7812
  40   2.0000      -0.590463       -16.0673
  41   2.0000      -0.574077       -15.6214
  42   2.0000      -0.565460       -15.3870
  43   2.0000      -0.555856       -15.1256
  44   2.0000      -0.523631       -14.2487
  45   2.0000      -0.519540       -14.1374
  46   2.0000      -0.516814       -14.0632
  47   2.0000      -0.513356       -13.9691
  48   2.0000      -0.509241       -13.8571
  49   2.0000      -0.497713       -13.5435
  50   2.0000      -0.487189       -13.2571
  51   2.0000      -0.485923       -13.2227
  52   2.0000      -0.477477       -12.9928
  53   2.0000      -0.464903       -12.6507
  54   2.0000      -0.455625       -12.3982
  55   2.0000      -0.445177       -12.1139
  56   2.0000      -0.444833       -12.1045
  57   2.0000      -0.440420       -11.9844
  58   2.0000      -0.430094       -11.7035
  59   2.0000      -0.423390       -11.5210
  60   2.0000      -0.421482       -11.4691
  61   2.0000      -0.415179       -11.2976
  62   2.0000      -0.410317       -11.1653
  63   2.0000      -0.350094        -9.5265
  64   2.0000      -0.331396        -9.0177
  65   2.0000      -0.328609        -8.9419
  66   2.0000      -0.287544        -7.8245
  67   0.0000       0.022214         0.6045
  68   0.0000       0.071266         1.9392
  69   0.0000       0.104499         2.8436
  70   0.0000       0.123266         3.3542
  71   0.0000       0.127553         3.4709

MULLIKEN ATOMIC CHARGES
-----------------------
   0 S :    0.098797
   1 C :   -0.117734
   2 C :   -0.056565
   3 C :    0.012225
   4 C :   -0.156248
   5 H :    0.031475
   6 C :    0.023418
   7 H :    0.016210
   8 H :    0.045756
   9 C :   -0.045370
  10 H :    0.019906
  11 H :    0.020301
  12 C :   -0.067361
  13 H :    0.033320
  14 H :    0.037966
  15 H :    0.047758
  16 S :    0.109107
  17 C :   -0.086034
  18 C :   -0.041881
  19 C :   -0.068248
  20 C :   -0.136681
  21 H :    0.016287
  22 C :    0.113287
  23 H :   -0.000127
  24 H :    0.023342
  25 C :   -0.104452
  26 H :    0.063286
  27 H :    0.035930
  28 C :   -0.028839
  29 H :    0.020084
  30 H :    0.026178
  31 H :    0.012920
  32 H :    0.041976
  33 H :    0.060013
Sum of atomic charges:   -0.0000000

LOEWDIN ATOMIC CHARGES
----------------------
   0 S :    0.389521
   1 C :   -0.186532
   2 C :   -0.068496
   3 C :   -0.057745
   4 C :   -0.181351
   5 H :    0.039084
   6 C :   -0.033760
   7 H :    0.026777
   8 H :    0.038475
   9 C :   -0.034734
  10 H :    0.017350
  11 H :    0.019496
  12 C :   -0.070065
  13 H :    0.020314
  14 H :    0.028436
  15 H :    0.035830
  16 S :    0.412795
  17 C :   -0.197485
  18 C :   -0.071021
  19 C :   -0.049685
  20 C :   -0.197022
  21 H :    0.028749
  22 C :   -0.031187
  23 H :    0.029254
  24 H :    0.024703
  25 C :   -0.040303
  26 H :    0.035714
  27 H :    0.027621
  28 C :   -0.066597
  29 H :    0.022294
  30 H :    0.022064
  31 H :    0.017733
  32 H :    0.019410
  33 H :    0.030363

  Mayer bond orders larger than 0.100000
B(  0-S ,  1-C ) :   1.1399 B(  0-S ,  4-C ) :   1.1401 B(  1-C ,  2-C ) :   1.6010
B(  1-C , 32-H ) :   0.9769 B(  2-C ,  3-C ) :   1.2406 B(  2-C ,  6-C ) :   1.0238
B(  3-C ,  4-C ) :   1.5702 B(  3-C ,  5-H ) :   0.9828 B(  4-C , 20-C ) :   1.0791
B(  6-C ,  7-H ) :   0.9414 B(  6-C ,  8-H ) :   0.9512 B(  6-C ,  9-C ) :   1.0472
B(  9-C , 10-H ) :   0.9560 B(  9-C , 11-H ) :   0.9607 B(  9-C , 12-C ) :   1.0792
B( 12-C , 13-H ) :   0.9770 B( 12-C , 14-H ) :   0.9746 B( 12-C , 15-H ) :   0.9746
B( 16-S , 17-C ) :   1.1674 B( 16-S , 20-C ) :   1.1467 B( 17-C , 18-C ) :   1.6068
B( 17-C , 33-H ) :   0.9627 B( 18-C , 19-C ) :   1.2546 B( 18-C , 21-H ) :   0.9901
B( 19-C , 20-C ) :   1.5467 B( 19-C , 22-C ) :   1.0484 B( 22-C , 23-H ) :   0.9243
B( 22-C , 24-H ) :   0.9277 B( 22-C , 25-C ) :   1.0543 B( 25-C , 26-H ) :   0.9580
B( 25-C , 27-H ) :   0.9583 B( 25-C , 28-C ) :   1.0783 B( 28-C , 29-H ) :   0.9750
B( 28-C , 30-H ) :   0.9769 B( 28-C , 31-H ) :   0.9747

Dispersion correction           -0.014336329
FINAL SINGLE POINT ENERGY     -1339.880851310634

DIPOLE MOMENT
-------------
                                X             Y             Z
Electronic contribution:    -15.47068     -26.73648      -8.77012
Nuclear contribution   :     15.99916      27.02192       9.09191
                        -----------------------------------------
Total Dipole Moment    :      0.52848       0.28545       0.32180
                        -----------------------------------------
Magnitude (a.u.)       :      0.68141
Magnitude (Debye)      :      1.73202

Rotational constants in cm-1:     0.019417     0.008552     0.006606
Rotational constants in MHz :   582.095380   256.377321   198.037098

                             ****ORCA TERMINATED NORMALLY****
TOTAL RUN TIME: 0 days 0 hours 0 minutes 30 seconds 513 msec
