                         Program Version 4.2.1 -  RELEASE  -
|  1> ! wB97X-D3 SP def2-SVP
|  2> %pal
|  3> nprocs 16
|  4> end
|  5>
|  6> * xyz 0 1
|  7> S 	 29.8847 	 17.4689 	 70.227
|  8> C 	 29.3221 	 15.8682 	 70.8028
|  9> C 	 30.1848 	 14.8487 	 70.5133
| 10> C 	 31.3695 	 15.3763 	 69.8484
| 11> C 	 31.3744 	 16.7134 	 69.5983
| 12> H 	 32.1459 	 14.6705 	 69.5152
| 13> C 	 29.9522 	 13.395 	 70.8281
| 14> H 	 29.0261 	 13.3361 	 71.2649
| 15> H 	 30.7443 	 13.123 	 71.5605
| 16> C 	 30.0424 	 12.4899 	 69.5584
| 17> H 	 29.4218 	 12.9217 	 68.8182
| 18> H 	 31.0464 	 12.5389 	 69.1668
| 19> C 	 29.6138 	 11.0378 	 69.9244
| 20> H 	 28.6707 	 10.9716 	 70.4922
| 21> H 	 29.6208 	 10.4566 	 69.0068
| 22> H 	 30.4247 	 10.6549 	 70.4882
| 23> S 	 31.79 	 17.6644 	 67.0959
| 24> C 	 33.4248 	 18.1235 	 66.653
| 25> C 	 34.2913 	 18.1119 	 67.7786
| 26> C 	 33.6708 	 17.6658 	 68.9539
| 27> C 	 32.3265 	 17.3816 	 68.7228
| 28> H 	 35.2655 	 18.5745 	 67.6422
| 29> C 	 34.3346 	 17.6718 	 70.2562
| 30> H 	 33.5659 	 17.3688 	 71.0202
| 31> H 	 34.7823 	 18.6383 	 70.5249
| 32> C 	 35.4196 	 16.5855 	 70.4503
| 33> H 	 34.955 	 15.568 	 70.5166
| 34> H 	 35.9769 	 16.6813 	 71.4107
| 35> C 	 36.5079 	 16.6283 	 69.3869
| 36> H 	 37.0038 	 17.5272 	 69.4772
| 37> H 	 36.269 	 16.4857 	 68.2689
| 38> H 	 37.0966 	 15.7853 	 69.6788
| 39> H 	 28.4349 	 15.8044 	 71.3735
| 40> H 	 33.8824 	 18.3351 	 65.686
| 41> *
| 42>
| 43>                          ****END OF INPUT****

CARTESIAN COORDINATES (ANGSTROEM)
---------------------------------
  S     29.884700   17.468900   70.227000
  C     29.322100   15.868200   70.802800
  C     30.184800   14.848700   70.513300
  C     31.369500   15.376300   69.848400
  C     31.374400   16.713400   69.598300
  H     32.145900   14.670500   69.515200
  C     29.952200   13.395000   70.828100
  H     29.026100   13.336100   71.264900
  H     30.744300   13.123000   71.560500
  C     30.042400   12.489900   69.558400
  H     29.421800   12.921700   68.818200
  H     31.046400   12.538900   69.166800
  C     29.613800   11.037800   69.924400
  H     28.670700   10.971600   70.492200
  H     29.620800   10.456600   69.006800
  H     30.424700   10.654900   70.488200
  S     31.790000   17.664400   67.095900
  C     33.424800   18.123500   66.653000
  C     34.291300   18.111900   67.778600
  C     33.670800   17.665800   68.953900
  C     32.326500   17.381600   68.722800
  H     35.265500   18.574500   67.642200
  C     34.334600   17.671800   70.256200
  H     33.565900   17.368800   71.020200
  H     34.782300   18.638300   70.524900
  C     35.419600   16.585500   70.450300
  H     34.955000   15.568000   70.516600
  H     35.976900   16.681300   71.410700
  C     36.507900   16.628300   69.386900
  H     37.003800   17.527200   69.477200
  H     36.269000   16.485700   68.268900
  H     37.096600   15.785300   69.678800
  H     28.434900   15.804400   71.373500
  H     33.882400   18.335100   65.686000

 Total Charge           Charge          ....    0
 Multiplicity           Mult            ....    1
 Number of Electrons    NEL             ....  134
 Basis Dimension        Dim             ....  322

ORBITAL ENERGIES
----------------

  NO   OCC          E(Eh)            E(eV)
   0   2.0000     -88.970587     -2421.0128
   1   2.0000     -88.961780     -2420.7731
   2   2.0000     -10.327849      -281.0351
   3   2.0000     -10.322538      -280.8905
   4   2.0000     -10.317638      -280.7572
   5   2.0000     -10.311572      -280.5921
   6   2.0000     -10.299000      -280.2500
   7   2.0000     -10.297453      -280.2079
   8   2.0000     -10.294775      -280.1351
   9   2.0000     -10.291602      -280.0487
  10   2.0000     -10.289566      -279.9933
  11   2.0000     -10.289185      -279.9830
  12   2.0000     -10.287976      -279.9501
  13   2.0000     -10.286266      -279.9035
  14   2.0000     -10.279339      -279.7150
  15   2.0000     -10.269529      -279.4481
  16   2.0000      -8.084964      -220.0030
  17   2.0000      -8.075662      -219.7499
  18   2.0000      -6.043356      -164.4481
  19   2.0000      -6.039515      -164.3435
  20   2.0000      -6.035873      -164.2444
  21   2.0000      -6.034278      -164.2011
  22   2.0000      -6.030451      -164.0969
  23   2.0000      -6.026202      -163.9813
  24   2.0000      -1.004271       -27.3276
  25   2.0000      -0.978727       -26.6325
  26   2.0000      -0.912723       -24.8364
  27   2.0000      -0.910385       -24.7728
  28   2.0000      -0.867355       -23.6019
  29   2.0000      -0.852525       -23.1984
  30   2.0000      -0.842490       -22.9253
  31   2.0000      -0.813646       -22.1404
  32   2.0000      -0.783526       -21.3208
  33   2.0000      -0.769973       -20.9520
  34   2.0000      -0.712330       -19.3835
  35   2.0000      -0.699108       -19.0237
  36   2.0000      -0.685067       -18.6416
  37   2.0000      -0.660378       -17.9698
  38   2.0000      -0.641556       -17.4576
  39   2.0000      -0.621347       -16.9077
  40   2.0000      -0.589571       -16.0430
  41   2.0000      -0.571224       -15.5438
  42   2.0000      -0.563400       -15.3309
  43   2.0000      -0.550083       -14.9685
  44   2.0000      -0.542661       -14.7666
  45   2.0000      -0.527013       -14.3408
  46   2.0000      -0.518880       -14.1194
  47   2.0000      -0.511119       -13.9082
  48   2.0000      -0.503693       -13.7062
  49   2.0000      -0.495256       -13.4766
  50   2.0000      -0.485945       -13.2232
  51   2.0000      -0.484333       -13.1794
  52   2.0000      -0.472802       -12.8656
  53   2.0000      -0.467623       -12.7247
  54   2.0000      -0.453019       -12.3273
  55   2.0000      -0.449218       -12.2238
  56   2.0000      -0.442220       -12.0334
  57   2.0000      -0.435778       -11.8581
  58   2.0000      -0.433382       -11.7929
  59   2.0000      -0.430772       -11.7219
  60   2.0000      -0.419038       -11.4026
  61   2.0000      -0.416482       -11.3331
  62   2.0000      -0.407181       -11.0799
  63   2.0000      -0.339748        -9.2450
  64   2.0000      -0.327483        -8.9113
  65   2.0000      -0.323651        -8.8070
  66   2.0000      -0.298511        -8.1229
  67   0.0000       0.041728         1.1355
  68   0.0000       0.056680         1.5423
  69   0.0000       0.112825         3.0701
  70   0.0000       0.116785         3.1779
  71   0.0000       0.128627         3.5001

MULLIKEN ATOMIC CHARGES
-----------------------
   0 S :    0.086351
   1 C :   -0.127254
   2 C :   -0.096784
   3 C :    0.035671
   4 C :   -0.167580
   5 H :    0.020723
   6 C :    0.115456
   7 H :   -0.009992
   8 H :    0.041271
   9 C :   -0.098593
  10 H :    0.029656
  11 H :    0.027830
  12 C :   -0.020618
  13 H :    0.045185
  14 H :    0.035263
  15 H :    0.019779
  16 S :    0.141484
  17 C :   -0.099651
  18 C :   -0.072543
  19 C :    0.022784
  20 C :   -0.178332
  21 H :    0.027081
  22 C :    0.057704
  23 H :    0.037162
  24 H :    0.039861
  25 C :   -0.107333
  26 H :    0.028282
  27 H :    0.033500
  28 C :   -0.051756
  29 H :    0.013156
  30 H :    0.055963
  31 H :    0.028035
  32 H :    0.033514
  33 H :    0.054725
Sum of atomic charges:   -0.0000000

LOEWDIN ATOMIC CHARGES
----------------------
   0 S :    0.360228
   1 C :   -0.173695
   2 C :   -0.061594
   3 C :   -0.057957
   4 C :   -0.190411
   5 H :    0.032598
   6 C :   -0.021574
   7 H :    0.015584
   8 H :    0.037899
   9 C :   -0.029720
  10 H :    0.018860
  11 H :    0.021468
  12 C :   -0.060519
  13 H :    0.029999
  14 H :    0.028019
  15 H :    0.021275
  16 S :    0.428177
  17 C :   -0.197706
  18 C :   -0.068728
  19 C :   -0.058035
  20 C :   -0.203444
  21 H :    0.032697
  22 C :   -0.039240
  23 H :    0.040447
  24 H :    0.034567
  25 C :   -0.040445
  26 H :    0.023185
  27 H :    0.029541
  28 C :   -0.072066
  29 H :    0.010569
  30 H :    0.035403
  31 H :    0.025496
  32 H :    0.017004
  33 H :    0.032120

  Mayer bond orders larger than 0.100000
B(  0-S ,  1-C ) :   1.1172 B(  0-S ,  4-C ) :   1.1188 B(  1-C ,  2-C ) :   1.6533
B(  1-C , 32-H ) :   0.9704 B(  2-C ,  3-C ) :   1.2034 B(  2-C ,  6-C ) :   1.0293
B(  3-C ,  4-C ) :   1.6276 B(  3-C ,  5-H ) :   0.9861 B(  4-C , 20-C ) :   1.0059
B(  6-C ,  7-H ) :   0.9354 B(  6-C ,  8-H ) :   0.9327 B(  6-C ,  9-C ) :   1.0569
B(  9-C , 10-H ) :   0.9616 B(  9-C , 11-H ) :   0.9544 B(  9-C , 12-C ) :   1.0829
B( 12-C , 13-H ) :   0.9765 B( 12-C , 14-H ) :   0.9740 B( 12-C , 15-H ) :   0.9740
B( 16-S , 17-C ) :   1.1592 B( 16-S , 20-C ) :   1.1630 B( 17-C , 18-C ) :   1.6004
B( 17-C , 20-C ) :   0.1073 B( 17-C , 33-H ) :   0.9628 B( 18-C , 19-C ) :   1.2471
B( 18-C , 21-H ) :   0.9812 B( 19-C , 20-C ) :   1.5823 B( 19-C , 22-C ) :   1.0524
B( 22-C , 23-H ) :   0.9214 B( 22-C , 24-H ) :   0.9424 B( 22-C , 25-C ) :   1.0743
B( 25-C , 26-H ) :   0.9545 B( 25-C , 27-H ) :   0.9546 B( 25-C , 28-C ) :   1.0809
B( 28-C , 29-H ) :   0.9734 B( 28-C , 30-H ) :   0.9639 B( 28-C , 31-H ) :   0.9715

Dispersion correction           -0.014336623
FINAL SINGLE POINT ENERGY     -1339.870728627351

DIPOLE MOMENT
-------------
                                X             Y             Z
Electronic contribution:    -12.35697      20.73486      -7.56230
Nuclear contribution   :     12.71708     -21.29830       7.71510
                        -----------------------------------------
Total Dipole Moment    :      0.36011      -0.56344       0.15280
                        -----------------------------------------
Magnitude (a.u.)       :      0.68592
Magnitude (Debye)      :      1.74347

Rotational constants in cm-1:     0.018346     0.008051     0.007104
Rotational constants in MHz :   549.989003   241.370437   212.979839

                             ****ORCA TERMINATED NORMALLY****
TOTAL RUN TIME: 0 days 0 hours 0 minutes 28 seconds 196 msec
