                         Program Version 4.2.1 -  RELEASE  -
|  1> ! wB97X-D3 SP def2-SVP
|  2> %pal
|  3> nprocs 16
|  4> end
|  5>
|  6> * xyz 0 1
|  7> S 	 41.6237 	 15.0038 	 49.7661
|  8> C 	 41.6637 	 15.6519 	 51.3727
|  9> C 	 42.8686 	 15.365 	 52.0525
| 10> C 	 43.786 	 14.5983 	 51.2666
| 11> C 	 43.2039 	 14.2755 	 50.0616
| 12> H 	 44.7424 	 14.1741 	 51.5919
| 13> C 	 43.2406 	 15.7566 	 53.457
| 14> H 	 43.329 	 16.8601 	 53.577
| 15> H 	 44.2893 	 15.4679 	 53.4241
| 16> C 	 42.3365 	 15.1482 	 54.5381
| 17> H 	 41.373 	 15.6064 	 54.4817
| 18> H 	 42.12 	 14.094 	 54.295
| 19> C 	 42.9008 	 15.2269 	 56.023
| 20> H 	 42.0163 	 14.899 	 56.6149
| 21> H 	 43.5995 	 14.5319 	 56.2442
| 22> H 	 43.2242 	 16.2544 	 56.2595
| 23> S 	 42.7391 	 12.3399 	 48.1555
| 24> C 	 44.1056 	 11.7023 	 47.2687
| 25> C 	 45.3235 	 12.1329 	 47.7875
| 26> C 	 45.2084 	 13.1501 	 48.7503
| 27> C 	 43.8524 	 13.454 	 49.071
| 28> H 	 46.2321 	 11.7075 	 47.3189
| 29> C 	 46.5086 	 13.8623 	 49.1832
| 30> H 	 47.0092 	 13.037 	 49.7164
| 31> H 	 46.2055 	 14.6203 	 49.9448
| 32> C 	 47.3462 	 14.6227 	 48.096
| 33> H 	 47.9233 	 13.8855 	 47.4122
| 34> H 	 48.1162 	 15.1187 	 48.6646
| 35> C 	 46.5386 	 15.6882 	 47.358
| 36> H 	 47.1377 	 16.4092 	 46.7875
| 37> H 	 45.9211 	 16.3199 	 47.9061
| 38> H 	 45.9631 	 15.1233 	 46.6595
| 39> H 	 40.8767 	 16.2225 	 51.8754
| 40> H 	 43.9991 	 11.0145 	 46.4261
| 41> *
| 42>
| 43>                          ****END OF INPUT****

CARTESIAN COORDINATES (ANGSTROEM)
---------------------------------
  S     41.623700   15.003800   49.766100
  C     41.663700   15.651900   51.372700
  C     42.868600   15.365000   52.052500
  C     43.786000   14.598300   51.266600
  C     43.203900   14.275500   50.061600
  H     44.742400   14.174100   51.591900
  C     43.240600   15.756600   53.457000
  H     43.329000   16.860100   53.577000
  H     44.289300   15.467900   53.424100
  C     42.336500   15.148200   54.538100
  H     41.373000   15.606400   54.481700
  H     42.120000   14.094000   54.295000
  C     42.900800   15.226900   56.023000
  H     42.016300   14.899000   56.614900
  H     43.599500   14.531900   56.244200
  H     43.224200   16.254400   56.259500
  S     42.739100   12.339900   48.155500
  C     44.105600   11.702300   47.268700
  C     45.323500   12.132900   47.787500
  C     45.208400   13.150100   48.750300
  C     43.852400   13.454000   49.071000
  H     46.232100   11.707500   47.318900
  C     46.508600   13.862300   49.183200
  H     47.009200   13.037000   49.716400
  H     46.205500   14.620300   49.944800
  C     47.346200   14.622700   48.096000
  H     47.923300   13.885500   47.412200
  H     48.116200   15.118700   48.664600
  C     46.538600   15.688200   47.358000
  H     47.137700   16.409200   46.787500
  H     45.921100   16.319900   47.906100
  H     45.963100   15.123300   46.659500
  H     40.876700   16.222500   51.875400
  H     43.999100   11.014500   46.426100

 Total Charge           Charge          ....    0
 Multiplicity           Mult            ....    1
 Number of Electrons    NEL             ....  134
 Basis Dimension        Dim             ....  322

ORBITAL ENERGIES
----------------

  NO   OCC          E(Eh)            E(eV)
   0   2.0000     -88.972710     -2421.0705
   1   2.0000     -88.963740     -2420.8264
   2   2.0000     -10.331830      -281.1434
   3   2.0000     -10.328170      -281.0438
   4   2.0000     -10.317377      -280.7501
   5   2.0000     -10.313031      -280.6319
   6   2.0000     -10.307295      -280.4758
   7   2.0000     -10.300626      -280.2943
   8   2.0000     -10.300249      -280.2840
   9   2.0000     -10.297361      -280.2054
  10   2.0000     -10.294056      -280.1155
  11   2.0000     -10.293463      -280.0994
  12   2.0000     -10.290344      -280.0145
  13   2.0000     -10.289625      -279.9949
  14   2.0000     -10.277990      -279.6783
  15   2.0000     -10.268191      -279.4117
  16   2.0000      -8.086986      -220.0581
  17   2.0000      -8.077540      -219.8010
  18   2.0000      -6.045466      -164.5055
  19   2.0000      -6.041689      -164.4027
  20   2.0000      -6.037683      -164.2937
  21   2.0000      -6.035955      -164.2467
  22   2.0000      -6.032258      -164.1461
  23   2.0000      -6.028384      -164.0407
  24   2.0000      -1.002253       -27.2727
  25   2.0000      -0.976635       -26.5756
  26   2.0000      -0.907743       -24.7010
  27   2.0000      -0.902051       -24.5461
  28   2.0000      -0.864900       -23.5351
  29   2.0000      -0.854885       -23.2626
  30   2.0000      -0.845822       -23.0160
  31   2.0000      -0.807914       -21.9845
  32   2.0000      -0.783016       -21.3070
  33   2.0000      -0.767849       -20.8942
  34   2.0000      -0.712427       -19.3861
  35   2.0000      -0.706260       -19.2183
  36   2.0000      -0.689152       -18.7528
  37   2.0000      -0.658014       -17.9055
  38   2.0000      -0.634361       -17.2618
  39   2.0000      -0.616087       -16.7646
  40   2.0000      -0.587668       -15.9913
  41   2.0000      -0.557814       -15.1789
  42   2.0000      -0.554693       -15.0940
  43   2.0000      -0.549836       -14.9618
  44   2.0000      -0.542047       -14.7499
  45   2.0000      -0.525479       -14.2990
  46   2.0000      -0.521270       -14.1845
  47   2.0000      -0.503626       -13.7044
  48   2.0000      -0.500540       -13.6204
  49   2.0000      -0.495171       -13.4743
  50   2.0000      -0.494179       -13.4473
  51   2.0000      -0.474024       -12.8988
  52   2.0000      -0.470630       -12.8065
  53   2.0000      -0.464768       -12.6470
  54   2.0000      -0.456873       -12.4321
  55   2.0000      -0.451993       -12.2993
  56   2.0000      -0.446519       -12.1504
  57   2.0000      -0.438610       -11.9352
  58   2.0000      -0.437317       -11.9000
  59   2.0000      -0.422427       -11.4948
  60   2.0000      -0.416414       -11.3312
  61   2.0000      -0.416313       -11.3284
  62   2.0000      -0.406956       -11.0738
  63   2.0000      -0.353108        -9.6086
  64   2.0000      -0.331686        -9.0256
  65   2.0000      -0.331202        -9.0125
  66   2.0000      -0.276385        -7.5208
  67   0.0000       0.018918         0.5148
  68   0.0000       0.075535         2.0554
  69   0.0000       0.099312         2.7024
  70   0.0000       0.116282         3.1642
  71   0.0000       0.140214         3.8154

MULLIKEN ATOMIC CHARGES
-----------------------
   0 S :    0.132697
   1 C :   -0.122046
   2 C :   -0.122734
   3 C :   -0.013935
   4 C :   -0.119348
   5 H :    0.034393
   6 C :    0.088769
   7 H :    0.035962
   8 H :    0.003853
   9 C :   -0.087610
  10 H :    0.024559
  11 H :    0.034783
  12 C :   -0.023174
  13 H :    0.034004
  14 H :    0.018510
  15 H :    0.040461
  16 S :    0.080278
  17 C :   -0.101351
  18 C :   -0.052690
  19 C :   -0.049503
  20 C :   -0.148915
  21 H :    0.031626
  22 C :    0.031300
  23 H :    0.044660
  24 H :    0.023493
  25 C :   -0.070523
  26 H :    0.042274
  27 H :    0.027293
  28 C :   -0.011372
  29 H :    0.027826
  30 H :    0.021132
  31 H :    0.034080
  32 H :    0.048888
  33 H :    0.062359
Sum of atomic charges:   -0.0000000

LOEWDIN ATOMIC CHARGES
----------------------
   0 S :    0.414642
   1 C :   -0.215910
   2 C :   -0.058228
   3 C :   -0.066695
   4 C :   -0.188424
   5 H :    0.038058
   6 C :   -0.042403
   7 H :    0.034509
   8 H :    0.027677
   9 C :   -0.036097
  10 H :    0.019783
  11 H :    0.028413
  12 C :   -0.055800
  13 H :    0.035085
  14 H :    0.008425
  15 H :    0.028049
  16 S :    0.371004
  17 C :   -0.184288
  18 C :   -0.079372
  19 C :   -0.062648
  20 C :   -0.175936
  21 H :    0.038262
  22 C :   -0.036292
  23 H :    0.037273
  24 H :    0.029527
  25 C :   -0.039849
  26 H :    0.031643
  27 H :    0.021633
  28 C :   -0.059060
  29 H :    0.029538
  30 H :    0.019900
  31 H :    0.027601
  32 H :    0.030111
  33 H :    0.029870

  Mayer bond orders larger than 0.100000
B(  0-S ,  1-C ) :   1.1279 B(  0-S ,  4-C ) :   1.1498 B(  1-C ,  2-C ) :   1.6007
B(  1-C , 32-H ) :   0.9665 B(  2-C ,  3-C ) :   1.2559 B(  2-C ,  6-C ) :   1.0209
B(  3-C ,  4-C ) :   1.5687 B(  3-C ,  5-H ) :   0.9786 B(  4-C , 20-C ) :   1.0803
B(  6-C ,  7-H ) :   0.9287 B(  6-C ,  8-H ) :   0.9431 B(  6-C ,  9-C ) :   1.0493
B(  9-C , 10-H ) :   0.9574 B(  9-C , 11-H ) :   0.9599 B(  9-C , 12-C ) :   1.0757
B( 12-C , 13-H ) :   0.9747 B( 12-C , 14-H ) :   0.9803 B( 12-C , 15-H ) :   0.9766
B( 16-S , 17-C ) :   1.1543 B( 16-S , 20-C ) :   1.1265 B( 17-C , 18-C ) :   1.6036
B( 17-C , 20-C ) :   0.1096 B( 17-C , 33-H ) :   0.9662 B( 18-C , 19-C ) :   1.2462
B( 18-C , 21-H ) :   0.9870 B( 19-C , 20-C ) :   1.5660 B( 19-C , 22-C ) :   1.0219
B( 22-C , 23-H ) :   0.9359 B( 22-C , 24-H ) :   0.9376 B( 22-C , 25-C ) :   1.0665
B( 25-C , 26-H ) :   0.9555 B( 25-C , 27-H ) :   0.9556 B( 25-C , 28-C ) :   1.0649
B( 28-C , 29-H ) :   0.9732 B( 28-C , 30-H ) :   0.9759 B( 28-C , 31-H ) :   0.9743

Dispersion correction           -0.014141846
FINAL SINGLE POINT ENERGY     -1339.864332276707

DIPOLE MOMENT
-------------
                                X             Y             Z
Electronic contribution:    -15.61650      -9.20154     -15.85711
Nuclear contribution   :     16.12732       9.30877      16.17622
                        -----------------------------------------
Total Dipole Moment    :      0.51081       0.10722       0.31911
                        -----------------------------------------
Magnitude (a.u.)       :      0.61177
Magnitude (Debye)      :      1.55499

Rotational constants in cm-1:     0.020323     0.007568     0.006534
Rotational constants in MHz :   609.268383   226.891570   195.897254

                             ****ORCA TERMINATED NORMALLY****
TOTAL RUN TIME: 0 days 0 hours 0 minutes 32 seconds 921 msec
