                         Program Version 4.2.1 -  RELEASE  -
|  1> ! wB97X-D3 SP def2-SVP
|  2> %pal
|  3> nprocs 16
|  4> end
|  5>
|  6> * xyz 0 1
|  7> S 	 -4.30755 	 -13.8325 	 69.5679
|  8> C 	 -5.87016 	 -13.4052 	 70.2109
|  9> C 	 -6.48777 	 -12.6198 	 69.2068
| 10> C 	 -5.75469 	 -12.2732 	 68.0539
| 11> C 	 -4.47976 	 -12.739 	 68.1139
| 12> H 	 -6.09001 	 -11.8165 	 67.1434
| 13> C 	 -7.95051 	 -12.2578 	 69.332
| 14> H 	 -8.37705 	 -12.8468 	 70.1742
| 15> H 	 -8.43586 	 -12.5983 	 68.409
| 16> C 	 -8.17483 	 -10.7762 	 69.4539
| 17> H 	 -7.93819 	 -10.443 	 70.4492
| 18> H 	 -7.50593 	 -10.1958 	 68.7892
| 19> C 	 -9.59756 	 -10.4962 	 68.9439
| 20> H 	 -10.4354 	 -10.7905 	 69.637
| 21> H 	 -9.67286 	 -9.46764 	 68.8983
| 22> H 	 -9.83282 	 -10.866 	 67.9656
| 23> S 	 -2.39028 	 -11.2969 	 67.0325
| 24> C 	 -1.63463 	 -11.8707 	 65.6453
| 25> C 	 -2.2869 	 -12.9199 	 65.0812
| 26> C 	 -3.34916 	 -13.4261 	 65.918
| 27> C 	 -3.53018 	 -12.5873 	 67.0441
| 28> H 	 -2.06661 	 -13.4198 	 64.1267
| 29> C 	 -4.05182 	 -14.7465 	 65.5978
| 30> H 	 -4.0432 	 -14.9261 	 64.4701
| 31> H 	 -5.11087 	 -14.5282 	 65.8828
| 32> C 	 -3.34764 	 -15.9059 	 66.2865
| 33> H 	 -3.58016 	 -15.8814 	 67.395
| 34> H 	 -2.31647 	 -15.7677 	 66.0279
| 35> C 	 -3.87023 	 -17.2299 	 65.6219
| 36> H 	 -4.92853 	 -17.4875 	 65.6959
| 37> H 	 -3.32712 	 -18.0697 	 66.0727
| 38> H 	 -3.53779 	 -17.3859 	 64.5967
| 39> H 	 -6.40053 	 -13.5597 	 71.1688
| 40> H 	 -0.783003 	 -11.365 	 65.2396
| 41> *
| 42>
| 43>                          ****END OF INPUT****

CARTESIAN COORDINATES (ANGSTROEM)
---------------------------------
  S     -4.307550  -13.832500   69.567900
  C     -5.870160  -13.405200   70.210900
  C     -6.487770  -12.619800   69.206800
  C     -5.754690  -12.273200   68.053900
  C     -4.479760  -12.739000   68.113900
  H     -6.090010  -11.816500   67.143400
  C     -7.950510  -12.257800   69.332000
  H     -8.377050  -12.846800   70.174200
  H     -8.435860  -12.598300   68.409000
  C     -8.174830  -10.776200   69.453900
  H     -7.938190  -10.443000   70.449200
  H     -7.505930  -10.195800   68.789200
  C     -9.597560  -10.496200   68.943900
  H    -10.435400  -10.790500   69.637000
  H     -9.672860   -9.467640   68.898300
  H     -9.832820  -10.866000   67.965600
  S     -2.390280  -11.296900   67.032500
  C     -1.634630  -11.870700   65.645300
  C     -2.286900  -12.919900   65.081200
  C     -3.349160  -13.426100   65.918000
  C     -3.530180  -12.587300   67.044100
  H     -2.066610  -13.419800   64.126700
  C     -4.051820  -14.746500   65.597800
  H     -4.043200  -14.926100   64.470100
  H     -5.110870  -14.528200   65.882800
  C     -3.347640  -15.905900   66.286500
  H     -3.580160  -15.881400   67.395000
  H     -2.316470  -15.767700   66.027900
  C     -3.870230  -17.229900   65.621900
  H     -4.928530  -17.487500   65.695900
  H     -3.327120  -18.069700   66.072700
  H     -3.537790  -17.385900   64.596700
  H     -6.400530  -13.559700   71.168800
  H     -0.783003  -11.365000   65.239600

 Total Charge           Charge          ....    0
 Multiplicity           Mult            ....    1
 Number of Electrons    NEL             ....  134
 Basis Dimension        Dim             ....  322

ORBITAL ENERGIES
----------------

  NO   OCC          E(Eh)            E(eV)
   0   2.0000     -88.965781     -2420.8820
   1   2.0000     -88.964727     -2420.8533
   2   2.0000     -10.328748      -281.0595
   3   2.0000     -10.320211      -280.8272
   4   2.0000     -10.318701      -280.7861
   5   2.0000     -10.311046      -280.5778
   6   2.0000     -10.303260      -280.3660
   7   2.0000     -10.295984      -280.1680
   8   2.0000     -10.295800      -280.1630
   9   2.0000     -10.291788      -280.0538
  10   2.0000     -10.290780      -280.0264
  11   2.0000     -10.290551      -280.0201
  12   2.0000     -10.284711      -279.8612
  13   2.0000     -10.283046      -279.8159
  14   2.0000     -10.276956      -279.6502
  15   2.0000     -10.271555      -279.5032
  16   2.0000      -8.081400      -219.9061
  17   2.0000      -8.078733      -219.8335
  18   2.0000      -6.039700      -164.3486
  19   2.0000      -6.037447      -164.2873
  20   2.0000      -6.035479      -164.2337
  21   2.0000      -6.033403      -164.1772
  22   2.0000      -6.032432      -164.1508
  23   2.0000      -6.029427      -164.0690
  24   2.0000      -1.010050       -27.4849
  25   2.0000      -0.985112       -26.8063
  26   2.0000      -0.913348       -24.8535
  27   2.0000      -0.908113       -24.7110
  28   2.0000      -0.874149       -23.7868
  29   2.0000      -0.846900       -23.0453
  30   2.0000      -0.845180       -22.9985
  31   2.0000      -0.815771       -22.1983
  32   2.0000      -0.778049       -21.1718
  33   2.0000      -0.762313       -20.7436
  34   2.0000      -0.708278       -19.2732
  35   2.0000      -0.696707       -18.9584
  36   2.0000      -0.693419       -18.8689
  37   2.0000      -0.660399       -17.9704
  38   2.0000      -0.639923       -17.4132
  39   2.0000      -0.617841       -16.8123
  40   2.0000      -0.597741       -16.2654
  41   2.0000      -0.569880       -15.5072
  42   2.0000      -0.564605       -15.3637
  43   2.0000      -0.556964       -15.1558
  44   2.0000      -0.527591       -14.3565
  45   2.0000      -0.519022       -14.1233
  46   2.0000      -0.515546       -14.0287
  47   2.0000      -0.510279       -13.8854
  48   2.0000      -0.507876       -13.8200
  49   2.0000      -0.499241       -13.5850
  50   2.0000      -0.494158       -13.4467
  51   2.0000      -0.475712       -12.9448
  52   2.0000      -0.468671       -12.7532
  53   2.0000      -0.462390       -12.5823
  54   2.0000      -0.457236       -12.4420
  55   2.0000      -0.451034       -12.2733
  56   2.0000      -0.449047       -12.2192
  57   2.0000      -0.437022       -11.8920
  58   2.0000      -0.434695       -11.8287
  59   2.0000      -0.423588       -11.5264
  60   2.0000      -0.420100       -11.4315
  61   2.0000      -0.411961       -11.2100
  62   2.0000      -0.399052       -10.8588
  63   2.0000      -0.337600        -9.1866
  64   2.0000      -0.332436        -9.0460
  65   2.0000      -0.314848        -8.5674
  66   2.0000      -0.304873        -8.2960
  67   0.0000       0.043372         1.1802
  68   0.0000       0.051002         1.3878
  69   0.0000       0.107844         2.9346
  70   0.0000       0.124439         3.3862
  71   0.0000       0.131189         3.5698

MULLIKEN ATOMIC CHARGES
-----------------------
   0 S :    0.102499
   1 C :   -0.113111
   2 C :   -0.113045
   3 C :    0.053441
   4 C :   -0.149596
   5 H :    0.020164
   6 C :    0.063007
   7 H :    0.020129
   8 H :    0.022990
   9 C :   -0.070068
  10 H :    0.023834
  11 H :    0.032778
  12 C :   -0.027388
  13 H :    0.034230
  14 H :    0.007034
  15 H :    0.027614
  16 S :    0.136857
  17 C :   -0.077935
  18 C :   -0.028196
  19 C :   -0.055672
  20 C :   -0.220120
  21 H :    0.021290
  22 C :    0.042230
  23 H :    0.029927
  24 H :    0.036880
  25 C :   -0.047113
  26 H :    0.053788
  27 H :    0.029224
  28 C :   -0.057304
  29 H :    0.041388
  30 H :    0.021880
  31 H :    0.023674
  32 H :    0.062420
  33 H :    0.052265
Sum of atomic charges:   -0.0000000

LOEWDIN ATOMIC CHARGES
----------------------
   0 S :    0.380541
   1 C :   -0.217113
   2 C :   -0.065374
   3 C :   -0.055510
   4 C :   -0.171556
   5 H :    0.036223
   6 C :   -0.035800
   7 H :    0.029271
   8 H :    0.029860
   9 C :   -0.037535
  10 H :    0.023806
  11 H :    0.027613
  12 C :   -0.062618
  13 H :    0.030643
  14 H :    0.013643
  15 H :    0.022087
  16 S :    0.454083
  17 C :   -0.199456
  18 C :   -0.080968
  19 C :   -0.045839
  20 C :   -0.231755
  21 H :    0.033375
  22 C :   -0.040617
  23 H :    0.034402
  24 H :    0.033998
  25 C :   -0.034011
  26 H :    0.031505
  27 H :    0.026043
  28 C :   -0.075667
  29 H :    0.026911
  30 H :    0.026055
  31 H :    0.023577
  32 H :    0.044126
  33 H :    0.026060

  Mayer bond orders larger than 0.100000
B(  0-S ,  1-C ) :   1.1275 B(  0-S ,  4-C ) :   1.1205 B(  1-C ,  2-C ) :   1.6021
B(  1-C ,  4-C ) :   0.1012 B(  1-C , 32-H ) :   0.9633 B(  2-C ,  3-C ) :   1.2274
B(  2-C ,  6-C ) :   1.0346 B(  3-C ,  4-C ) :   1.5975 B(  3-C ,  5-H ) :   0.9928
B(  4-C , 20-C ) :   1.0420 B(  6-C ,  7-H ) :   0.9399 B(  6-C ,  8-H ) :   0.9459
B(  6-C ,  9-C ) :   1.0541 B(  9-C , 10-H ) :   0.9510 B(  9-C , 11-H ) :   0.9617
B(  9-C , 12-C ) :   1.0772 B( 12-C , 13-H ) :   0.9727 B( 12-C , 14-H ) :   0.9722
B( 12-C , 15-H ) :   0.9758 B( 16-S , 17-C ) :   1.1892 B( 16-S , 20-C ) :   1.1635
B( 17-C , 18-C ) :   1.5628 B( 17-C , 33-H ) :   0.9710 B( 18-C , 19-C ) :   1.2777
B( 18-C , 21-H ) :   0.9866 B( 19-C , 20-C ) :   1.5624 B( 19-C , 22-C ) :   1.0389
B( 22-C , 23-H ) :   0.9423 B( 22-C , 24-H ) :   0.9223 B( 22-C , 25-C ) :   1.0626
B( 25-C , 26-H ) :   0.9472 B( 25-C , 27-H ) :   0.9522 B( 25-C , 28-C ) :   1.0847
B( 28-C , 29-H ) :   0.9767 B( 28-C , 30-H ) :   0.9722 B( 28-C , 31-H ) :   0.9727

Dispersion correction           -0.014426103
FINAL SINGLE POINT ENERGY     -1339.864183794390

DIPOLE MOMENT
-------------
                                X             Y             Z
Electronic contribution:     19.05254       7.29668       5.20481
Nuclear contribution   :    -19.41788      -7.34374      -5.58669
                        -----------------------------------------
Total Dipole Moment    :     -0.36534      -0.04706      -0.38188
                        -----------------------------------------
Magnitude (a.u.)       :      0.53058
Magnitude (Debye)      :      1.34864

Rotational constants in cm-1:     0.018569     0.008093     0.006942
Rotational constants in MHz :   556.673661   242.635640   208.122218

                             ****ORCA TERMINATED NORMALLY****
TOTAL RUN TIME: 0 days 0 hours 0 minutes 34 seconds 496 msec
