                         Program Version 4.2.1 -  RELEASE  -
|  1> ! wB97X-D3 SP def2-SVP
|  2> %pal
|  3> nprocs 16
|  4> end
|  5>
|  6> * xyz 0 1
|  7> S 	 -0.599261 	 77.8333 	 47.132
|  8> C 	 -0.317383 	 78.6088 	 48.7062
|  9> C 	 0.310576 	 77.7847 	 49.6136
| 10> C 	 0.427888 	 76.4301 	 49.0534
| 11> C 	 0.00505249 	 76.3511 	 47.7136
| 12> H 	 0.871342 	 75.644 	 49.6114
| 13> C 	 0.66184 	 78.2137 	 51.0211
| 14> H 	 0.0810053 	 77.5669 	 51.6348
| 15> H 	 0.334403 	 79.1961 	 51.1638
| 16> C 	 2.16354 	 78.2138 	 51.4218
| 17> H 	 2.40939 	 78.4564 	 52.4564
| 18> H 	 2.55799 	 77.1956 	 51.2943
| 19> C 	 3.07936 	 79.0254 	 50.5079
| 20> H 	 3.00915 	 78.895 	 49.4439
| 21> H 	 2.74512 	 80.0584 	 50.5862
| 22> H 	 4.13985 	 78.9326 	 50.92
| 23> S 	 0.847684 	 75.4139 	 45.274
| 24> C 	 0.251003 	 73.9178 	 44.6977
| 25> C 	 -0.196177 	 73.2018 	 45.7979
| 26> C 	 -0.373082 	 73.9101 	 47.0021
| 27> C 	 0.126313 	 75.1836 	 46.8528
| 28> H 	 -0.580198 	 72.1998 	 45.616
| 29> C 	 -0.887772 	 73.3565 	 48.3198
| 30> H 	 -1.97417 	 73.3291 	 48.2859
| 31> H 	 -0.728804 	 74.0799 	 49.0501
| 32> C 	 -0.444016 	 71.8684 	 48.6494
| 33> H 	 -0.872997 	 71.1346 	 47.9473
| 34> H 	 -0.709192 	 71.6691 	 49.6638
| 35> C 	 1.12723 	 71.7337 	 48.5543
| 36> H 	 1.59352 	 70.8454 	 48.9369
| 37> H 	 1.67483 	 72.6706 	 48.9547
| 38> H 	 1.46957 	 71.7377 	 47.5073
| 39> H 	 -0.65982 	 79.6076 	 49.0422
| 40> H 	 0.36061 	 73.4819 	 43.6937
| 41> *
| 42>
| 43>                          ****END OF INPUT****

CARTESIAN COORDINATES (ANGSTROEM)
---------------------------------
  S     -0.599261   77.833300   47.132000
  C     -0.317383   78.608800   48.706200
  C      0.310576   77.784700   49.613600
  C      0.427888   76.430100   49.053400
  C      0.005052   76.351100   47.713600
  H      0.871342   75.644000   49.611400
  C      0.661840   78.213700   51.021100
  H      0.081005   77.566900   51.634800
  H      0.334403   79.196100   51.163800
  C      2.163540   78.213800   51.421800
  H      2.409390   78.456400   52.456400
  H      2.557990   77.195600   51.294300
  C      3.079360   79.025400   50.507900
  H      3.009150   78.895000   49.443900
  H      2.745120   80.058400   50.586200
  H      4.139850   78.932600   50.920000
  S      0.847684   75.413900   45.274000
  C      0.251003   73.917800   44.697700
  C     -0.196177   73.201800   45.797900
  C     -0.373082   73.910100   47.002100
  C      0.126313   75.183600   46.852800
  H     -0.580198   72.199800   45.616000
  C     -0.887772   73.356500   48.319800
  H     -1.974170   73.329100   48.285900
  H     -0.728804   74.079900   49.050100
  C     -0.444016   71.868400   48.649400
  H     -0.872997   71.134600   47.947300
  H     -0.709192   71.669100   49.663800
  C      1.127230   71.733700   48.554300
  H      1.593520   70.845400   48.936900
  H      1.674830   72.670600   48.954700
  H      1.469570   71.737700   47.507300
  H     -0.659820   79.607600   49.042200
  H      0.360610   73.481900   43.693700

 Total Charge           Charge          ....    0
 Multiplicity           Mult            ....    1
 Number of Electrons    NEL             ....  134
 Basis Dimension        Dim             ....  322

ORBITAL ENERGIES
----------------

  NO   OCC          E(Eh)            E(eV)
   0   2.0000     -88.969990     -2420.9965
   1   2.0000     -88.963626     -2420.8233
   2   2.0000     -10.330847      -281.1166
   3   2.0000     -10.322166      -280.8804
   4   2.0000     -10.315821      -280.7078
   5   2.0000     -10.315578      -280.7012
   6   2.0000     -10.304811      -280.4082
   7   2.0000     -10.299863      -280.2735
   8   2.0000     -10.297583      -280.2115
   9   2.0000     -10.297378      -280.2059
  10   2.0000     -10.290852      -280.0283
  11   2.0000     -10.290546      -280.0200
  12   2.0000     -10.290252      -280.0120
  13   2.0000     -10.289073      -279.9799
  14   2.0000     -10.280390      -279.7436
  15   2.0000     -10.276462      -279.6367
  16   2.0000      -8.084826      -219.9993
  17   2.0000      -8.079112      -219.8438
  18   2.0000      -6.043389      -164.4490
  19   2.0000      -6.039285      -164.3373
  20   2.0000      -6.037532      -164.2896
  21   2.0000      -6.035540      -164.2354
  22   2.0000      -6.033452      -164.1786
  23   2.0000      -6.029983      -164.0842
  24   2.0000      -1.011677       -27.5291
  25   2.0000      -0.985999       -26.8304
  26   2.0000      -0.914097       -24.8738
  27   2.0000      -0.904444       -24.6112
  28   2.0000      -0.868521       -23.6337
  29   2.0000      -0.848473       -23.0881
  30   2.0000      -0.839881       -22.8543
  31   2.0000      -0.811484       -22.0816
  32   2.0000      -0.786877       -21.4120
  33   2.0000      -0.776445       -21.1281
  34   2.0000      -0.710168       -19.3247
  35   2.0000      -0.702475       -19.1153
  36   2.0000      -0.693457       -18.8699
  37   2.0000      -0.655049       -17.8248
  38   2.0000      -0.635116       -17.2824
  39   2.0000      -0.623232       -16.9590
  40   2.0000      -0.598177       -16.2772
  41   2.0000      -0.563023       -15.3206
  42   2.0000      -0.556282       -15.1372
  43   2.0000      -0.549367       -14.9490
  44   2.0000      -0.547905       -14.9093
  45   2.0000      -0.537314       -14.6211
  46   2.0000      -0.521296       -14.1852
  47   2.0000      -0.510784       -13.8991
  48   2.0000      -0.497980       -13.5507
  49   2.0000      -0.492147       -13.3920
  50   2.0000      -0.491029       -13.3616
  51   2.0000      -0.479973       -13.0607
  52   2.0000      -0.466552       -12.6955
  53   2.0000      -0.465236       -12.6597
  54   2.0000      -0.458485       -12.4760
  55   2.0000      -0.452217       -12.3054
  56   2.0000      -0.438175       -11.9233
  57   2.0000      -0.436092       -11.8667
  58   2.0000      -0.433437       -11.7944
  59   2.0000      -0.427500       -11.6329
  60   2.0000      -0.426794       -11.6137
  61   2.0000      -0.419497       -11.4151
  62   2.0000      -0.407413       -11.0863
  63   2.0000      -0.345047        -9.3892
  64   2.0000      -0.333168        -9.0660
  65   2.0000      -0.327407        -8.9092
  66   2.0000      -0.291183        -7.9235
  67   0.0000       0.030613         0.8330
  68   0.0000       0.072297         1.9673
  69   0.0000       0.113340         3.0841
  70   0.0000       0.119117         3.2413
  71   0.0000       0.126861         3.4521

MULLIKEN ATOMIC CHARGES
-----------------------
   0 S :    0.132978
   1 C :   -0.138081
   2 C :   -0.128017
   3 C :    0.038114
   4 C :   -0.144835
   5 H :    0.005462
   6 C :    0.138890
   7 H :    0.030021
   8 H :   -0.003135
   9 C :   -0.080408
  10 H :    0.035115
  11 H :    0.021403
  12 C :   -0.073819
  13 H :    0.045900
  14 H :    0.012465
  15 H :    0.048847
  16 S :    0.113733
  17 C :   -0.105533
  18 C :   -0.052091
  19 C :   -0.037448
  20 C :   -0.185131
  21 H :    0.015044
  22 C :    0.137140
  23 H :    0.028816
  24 H :   -0.011709
  25 C :   -0.055055
  26 H :    0.044231
  27 H :    0.034257
  28 C :   -0.093643
  29 H :    0.035135
  30 H :    0.038733
  31 H :    0.031095
  32 H :    0.052856
  33 H :    0.068669
Sum of atomic charges:   -0.0000000

LOEWDIN ATOMIC CHARGES
----------------------
   0 S :    0.423252
   1 C :   -0.203032
   2 C :   -0.056262
   3 C :   -0.061920
   4 C :   -0.206409
   5 H :    0.021755
   6 C :   -0.021402
   7 H :    0.032241
   8 H :    0.020566
   9 C :   -0.043821
  10 H :    0.027536
  11 H :    0.021070
  12 C :   -0.071494
  13 H :    0.025455
  14 H :    0.019015
  15 H :    0.037295
  16 S :    0.418257
  17 C :   -0.204263
  18 C :   -0.076874
  19 C :   -0.054810
  20 C :   -0.200711
  21 H :    0.027150
  22 C :   -0.022755
  23 H :    0.037098
  24 H :    0.019684
  25 C :   -0.027646
  26 H :    0.028165
  27 H :    0.023552
  28 C :   -0.082783
  29 H :    0.019733
  30 H :    0.033273
  31 H :    0.026333
  32 H :    0.033735
  33 H :    0.039017

  Mayer bond orders larger than 0.100000
B(  0-S ,  1-C ) :   1.1236 B(  0-S ,  4-C ) :   1.1679 B(  1-C ,  2-C ) :   1.6342
B(  1-C , 32-H ) :   0.9572 B(  2-C ,  3-C ) :   1.2306 B(  2-C ,  6-C ) :   1.0241
B(  3-C ,  4-C ) :   1.5469 B(  3-C ,  5-H ) :   0.9939 B(  4-C , 20-C ) :   1.0324
B(  6-C ,  7-H ) :   0.9360 B(  6-C ,  8-H ) :   0.9377 B(  6-C ,  9-C ) :   1.0600
B(  9-C , 10-H ) :   0.9594 B(  9-C , 11-H ) :   0.9589 B(  9-C , 12-C ) :   1.0700
B( 12-C , 13-H ) :   0.9742 B( 12-C , 14-H ) :   0.9747 B( 12-C , 15-H ) :   0.9738
B( 16-S , 17-C ) :   1.1595 B( 16-S , 20-C ) :   1.1599 B( 17-C , 18-C ) :   1.5900
B( 17-C , 33-H ) :   0.9656 B( 18-C , 19-C ) :   1.2647 B( 18-C , 21-H ) :   0.9802
B( 19-C , 20-C ) :   1.5747 B( 19-C , 22-C ) :   1.0375 B( 22-C , 23-H ) :   0.9171
B( 22-C , 24-H ) :   0.9281 B( 22-C , 25-C ) :   1.0694 B( 25-C , 26-H ) :   0.9539
B( 25-C , 27-H ) :   0.9593 B( 25-C , 28-C ) :   1.0651 B( 28-C , 29-H ) :   0.9781
B( 28-C , 30-H ) :   0.9766 B( 28-C , 31-H ) :   0.9706

Dispersion correction           -0.014825385
FINAL SINGLE POINT ENERGY     -1339.870108732106

DIPOLE MOMENT
-------------
                                X             Y             Z
Electronic contribution:     -8.41162       7.24997     -21.53806
Nuclear contribution   :      8.35197      -7.55358      22.05883
                        -----------------------------------------
Total Dipole Moment    :     -0.05965      -0.30361       0.52077
                        -----------------------------------------
Magnitude (a.u.)       :      0.60575
Magnitude (Debye)      :      1.53970

Rotational constants in cm-1:     0.019829     0.008538     0.007009
Rotational constants in MHz :   594.454974   255.951513   210.124885

                             ****ORCA TERMINATED NORMALLY****
TOTAL RUN TIME: 0 days 0 hours 0 minutes 32 seconds 643 msec
