                         Program Version 4.2.1 -  RELEASE  -
|  1> ! wB97X-D3 SP def2-SVP
|  2> %pal
|  3> nprocs 16
|  4> end
|  5>
|  6> * xyz 0 1
|  7> S 	 44.678 	 19.349 	 47.9079
|  8> C 	 43.8085 	 17.8782 	 48.1014
|  9> C 	 43.5242 	 17.3021 	 46.8617
| 10> C 	 44.3031 	 17.9977 	 45.8454
| 11> C 	 44.9896 	 19.0855 	 46.2827
| 12> H 	 44.4397 	 17.7338 	 44.797
| 13> C 	 42.6328 	 16.112 	 46.5222
| 14> H 	 42.2746 	 16.2508 	 45.4892
| 15> H 	 41.7577 	 16.16 	 47.1202
| 16> C 	 43.2346 	 14.7339 	 46.6799
| 17> H 	 43.528 	 14.6355 	 47.7069
| 18> H 	 42.4477 	 13.9998 	 46.3364
| 19> C 	 44.4974 	 14.4994 	 45.8487
| 20> H 	 44.1792 	 14.6266 	 44.8026
| 21> H 	 45.2144 	 15.2934 	 46.1197
| 22> H 	 44.8727 	 13.4212 	 45.9434
| 23> S 	 47.2589 	 20.623 	 46.3048
| 24> C 	 47.4763 	 21.8723 	 45.0837
| 25> C 	 46.5596 	 21.7654 	 44.077
| 26> C 	 45.5883 	 20.676 	 44.3277
| 27> C 	 45.7748 	 20.0308 	 45.5323
| 28> H 	 46.6834 	 22.4612 	 43.2436
| 29> C 	 44.5738 	 20.456 	 43.3168
| 30> H 	 44.1282 	 21.3857 	 43.1997
| 31> H 	 43.8225 	 19.802 	 43.7911
| 32> C 	 45.1191 	 19.9521 	 41.9517
| 33> H 	 45.9203 	 20.5547 	 41.5913
| 34> H 	 44.3628 	 20.2218 	 41.2343
| 35> C 	 45.3894 	 18.4424 	 41.7
| 36> H 	 46.3312 	 18.1429 	 42.1418
| 37> H 	 45.3696 	 18.1657 	 40.6652
| 38> H 	 44.6358 	 17.8469 	 42.2024
| 39> H 	 43.3373 	 17.4991 	 48.9726
| 40> H 	 48.3377 	 22.5382 	 45.0261
| 41> *
| 42>
| 43>                          ****END OF INPUT****

CARTESIAN COORDINATES (ANGSTROEM)
---------------------------------
  S     44.678000   19.349000   47.907900
  C     43.808500   17.878200   48.101400
  C     43.524200   17.302100   46.861700
  C     44.303100   17.997700   45.845400
  C     44.989600   19.085500   46.282700
  H     44.439700   17.733800   44.797000
  C     42.632800   16.112000   46.522200
  H     42.274600   16.250800   45.489200
  H     41.757700   16.160000   47.120200
  C     43.234600   14.733900   46.679900
  H     43.528000   14.635500   47.706900
  H     42.447700   13.999800   46.336400
  C     44.497400   14.499400   45.848700
  H     44.179200   14.626600   44.802600
  H     45.214400   15.293400   46.119700
  H     44.872700   13.421200   45.943400
  S     47.258900   20.623000   46.304800
  C     47.476300   21.872300   45.083700
  C     46.559600   21.765400   44.077000
  C     45.588300   20.676000   44.327700
  C     45.774800   20.030800   45.532300
  H     46.683400   22.461200   43.243600
  C     44.573800   20.456000   43.316800
  H     44.128200   21.385700   43.199700
  H     43.822500   19.802000   43.791100
  C     45.119100   19.952100   41.951700
  H     45.920300   20.554700   41.591300
  H     44.362800   20.221800   41.234300
  C     45.389400   18.442400   41.700000
  H     46.331200   18.142900   42.141800
  H     45.369600   18.165700   40.665200
  H     44.635800   17.846900   42.202400
  H     43.337300   17.499100   48.972600
  H     48.337700   22.538200   45.026100

 Total Charge           Charge          ....    0
 Multiplicity           Mult            ....    1
 Number of Electrons    NEL             ....  134
 Basis Dimension        Dim             ....  322

ORBITAL ENERGIES
----------------

  NO   OCC          E(Eh)            E(eV)
   0   2.0000     -88.964797     -2420.8552
   1   2.0000     -88.959971     -2420.7239
   2   2.0000     -10.326645      -281.0023
   3   2.0000     -10.320474      -280.8344
   4   2.0000     -10.318140      -280.7709
   5   2.0000     -10.311017      -280.5770
   6   2.0000     -10.305817      -280.4355
   7   2.0000     -10.304055      -280.3876
   8   2.0000     -10.296405      -280.1794
   9   2.0000     -10.290721      -280.0248
  10   2.0000     -10.290485      -280.0183
  11   2.0000     -10.286896      -279.9207
  12   2.0000     -10.285670      -279.8873
  13   2.0000     -10.284585      -279.8578
  14   2.0000     -10.280613      -279.7497
  15   2.0000     -10.277558      -279.6666
  16   2.0000      -8.081425      -219.9068
  17   2.0000      -8.074621      -219.7216
  18   2.0000      -6.039859      -164.3529
  19   2.0000      -6.035562      -164.2360
  20   2.0000      -6.033274      -164.1737
  21   2.0000      -6.032210      -164.1448
  22   2.0000      -6.029198      -164.0628
  23   2.0000      -6.025160      -163.9529
  24   2.0000      -1.016337       -27.6559
  25   2.0000      -0.985212       -26.8090
  26   2.0000      -0.917369       -24.9629
  27   2.0000      -0.911755       -24.8101
  28   2.0000      -0.873953       -23.7815
  29   2.0000      -0.851159       -23.1612
  30   2.0000      -0.842628       -22.9291
  31   2.0000      -0.818802       -22.2807
  32   2.0000      -0.785568       -21.3764
  33   2.0000      -0.777204       -21.1488
  34   2.0000      -0.714682       -19.4475
  35   2.0000      -0.698363       -19.0034
  36   2.0000      -0.693216       -18.8634
  37   2.0000      -0.660940       -17.9851
  38   2.0000      -0.642229       -17.4759
  39   2.0000      -0.614686       -16.7265
  40   2.0000      -0.593294       -16.1443
  41   2.0000      -0.580366       -15.7926
  42   2.0000      -0.561069       -15.2675
  43   2.0000      -0.551741       -15.0136
  44   2.0000      -0.545554       -14.8453
  45   2.0000      -0.534054       -14.5324
  46   2.0000      -0.523023       -14.2322
  47   2.0000      -0.508906       -13.8480
  48   2.0000      -0.508329       -13.8323
  49   2.0000      -0.502274       -13.6676
  50   2.0000      -0.494198       -13.4478
  51   2.0000      -0.477963       -13.0060
  52   2.0000      -0.467930       -12.7330
  53   2.0000      -0.467202       -12.7132
  54   2.0000      -0.458081       -12.4650
  55   2.0000      -0.448560       -12.2059
  56   2.0000      -0.443387       -12.0652
  57   2.0000      -0.439168       -11.9504
  58   2.0000      -0.434814       -11.8319
  59   2.0000      -0.427203       -11.6248
  60   2.0000      -0.418885       -11.3984
  61   2.0000      -0.415022       -11.2933
  62   2.0000      -0.409881       -11.1534
  63   2.0000      -0.353243        -9.6122
  64   2.0000      -0.329756        -8.9731
  65   2.0000      -0.323359        -8.7990
  66   2.0000      -0.294804        -8.0220
  67   0.0000       0.033595         0.9142
  68   0.0000       0.077533         2.1098
  69   0.0000       0.107588         2.9276
  70   0.0000       0.112754         3.0682
  71   0.0000       0.131400         3.5756

MULLIKEN ATOMIC CHARGES
-----------------------
   0 S :    0.132783
   1 C :   -0.091291
   2 C :   -0.131175
   3 C :    0.003225
   4 C :   -0.134693
   5 H :   -0.001196
   6 C :    0.091180
   7 H :    0.021480
   8 H :    0.018276
   9 C :   -0.067643
  10 H :    0.023878
  11 H :    0.041108
  12 C :   -0.088728
  13 H :    0.021366
  14 H :    0.059126
  15 H :    0.052878
  16 S :    0.084235
  17 C :   -0.087629
  18 C :   -0.051465
  19 C :   -0.043199
  20 C :   -0.144281
  21 H :    0.030043
  22 C :    0.106413
  23 H :    0.011070
  24 H :    0.016570
  25 C :   -0.066467
  26 H :    0.016562
  27 H :    0.015215
  28 C :   -0.024428
  29 H :    0.035932
  30 H :    0.034313
  31 H :    0.024066
  32 H :    0.031439
  33 H :    0.061037
Sum of atomic charges:   -0.0000000

LOEWDIN ATOMIC CHARGES
----------------------
   0 S :    0.454874
   1 C :   -0.205888
   2 C :   -0.058026
   3 C :   -0.075078
   4 C :   -0.221193
   5 H :    0.027588
   6 C :   -0.032899
   7 H :    0.032200
   8 H :    0.027700
   9 C :   -0.041768
  10 H :    0.019009
  11 H :    0.031133
  12 C :   -0.074564
  13 H :    0.020524
  14 H :    0.030913
  15 H :    0.035829
  16 S :    0.375514
  17 C :   -0.174863
  18 C :   -0.075414
  19 C :   -0.048033
  20 C :   -0.194646
  21 H :    0.035863
  22 C :   -0.031442
  23 H :    0.029360
  24 H :    0.033136
  25 C :   -0.034092
  26 H :    0.019788
  27 H :    0.024079
  28 C :   -0.059331
  29 H :    0.025506
  30 H :    0.026897
  31 H :    0.022236
  32 H :    0.022587
  33 H :    0.032502

  Mayer bond orders larger than 0.100000
B(  0-S ,  1-C ) :   1.1516 B(  0-S ,  4-C ) :   1.1715 B(  1-C ,  2-C ) :   1.5998
B(  1-C , 32-H ) :   0.9724 B(  2-C ,  3-C ) :   1.2239 B(  2-C ,  6-C ) :   1.0205
B(  3-C ,  4-C ) :   1.5830 B(  3-C ,  5-H ) :   0.9977 B(  4-C , 20-C ) :   1.0363
B(  6-C ,  7-H ) :   0.9384 B(  6-C ,  8-H ) :   0.9322 B(  6-C ,  9-C ) :   1.0822
B(  9-C , 10-H ) :   0.9540 B(  9-C , 11-H ) :   0.9534 B(  9-C , 12-C ) :   1.0780
B( 12-C , 13-H ) :   0.9751 B( 12-C , 14-H ) :   0.9704 B( 12-C , 15-H ) :   0.9726
B( 16-S , 17-C ) :   1.1350 B( 16-S , 20-C ) :   1.1096 B( 17-C , 18-C ) :   1.6674
B( 17-C , 33-H ) :   0.9627 B( 18-C , 19-C ) :   1.1720 B( 18-C , 21-H ) :   0.9866
B( 19-C , 20-C ) :   1.6248 B( 19-C , 22-C ) :   1.0665 B( 22-C , 23-H ) :   0.9123
B( 22-C , 24-H ) :   0.9309 B( 22-C , 25-C ) :   1.0715 B( 25-C , 26-H ) :   0.9545
B( 25-C , 27-H ) :   0.9527 B( 25-C , 28-C ) :   1.0711 B( 28-C , 29-H ) :   0.9784
B( 28-C , 30-H ) :   0.9736 B( 28-C , 31-H ) :   0.9719

Dispersion correction           -0.014788008
FINAL SINGLE POINT ENERGY     -1339.876973666228

DIPOLE MOMENT
-------------
                                X             Y             Z
Electronic contribution:      9.10789      18.51083      18.66572
Nuclear contribution   :     -9.46268     -18.61761     -19.28940
                        -----------------------------------------
Total Dipole Moment    :     -0.35479      -0.10678      -0.62368
                        -----------------------------------------
Magnitude (a.u.)       :      0.72544
Magnitude (Debye)      :      1.84391

Rotational constants in cm-1:     0.018881     0.009390     0.007096
Rotational constants in MHz :   566.042612   281.501806   212.734872

                             ****ORCA TERMINATED NORMALLY****
TOTAL RUN TIME: 0 days 0 hours 0 minutes 35 seconds 793 msec
