                         Program Version 4.2.1 -  RELEASE  -
|  1> ! wB97X-D3 SP def2-SVP
|  2> %pal
|  3> nprocs 16
|  4> end
|  5>
|  6> * xyz 0 1
|  7> S 	 0.0912303 	 -22.9855 	 54.9985
|  8> C 	 -0.0110426 	 -24.6962 	 55.1708
|  9> C 	 1.21955 	 -25.346 	 55.0433
| 10> C 	 2.24844 	 -24.3382 	 54.9681
| 11> C 	 1.74202 	 -23.048 	 54.9276
| 12> H 	 3.30775 	 -24.4933 	 54.8112
| 13> C 	 1.35987 	 -26.8624 	 54.8913
| 14> H 	 2.11525 	 -26.9458 	 54.1387
| 15> H 	 0.550363 	 -27.282 	 54.2896
| 16> C 	 1.69353 	 -27.61 	 56.0877
| 17> H 	 1.82838 	 -28.5686 	 55.6936
| 18> H 	 2.66405 	 -27.3183 	 56.4288
| 19> C 	 0.629386 	 -27.3167 	 57.2838
| 20> H 	 -0.299138 	 -27.7882 	 57.0997
| 21> H 	 1.03087 	 -27.7959 	 58.1739
| 22> H 	 0.493674 	 -26.1937 	 57.621
| 23> S 	 2.12519 	 -21.1183 	 53.0894
| 24> C 	 3.40036 	 -19.885 	 53.405
| 25> C 	 4.11152 	 -20.1873 	 54.5472
| 26> C 	 3.67649 	 -21.3386 	 55.2444
| 27> C 	 2.60293 	 -21.9186 	 54.6017
| 28> H 	 4.87253 	 -19.5117 	 54.8309
| 29> C 	 4.40366 	 -21.953 	 56.4595
| 30> H 	 4.08229 	 -22.9689 	 56.542
| 31> H 	 4.06083 	 -21.5102 	 57.3847
| 32> C 	 5.92481 	 -21.8835 	 56.4403
| 33> H 	 6.28337 	 -22.2699 	 57.3158
| 34> H 	 6.20537 	 -20.7924 	 56.4242
| 35> C 	 6.54232 	 -22.7115 	 55.2628
| 36> H 	 6.12202 	 -22.4094 	 54.3068
| 37> H 	 6.36124 	 -23.8446 	 55.3922
| 38> H 	 7.61484 	 -22.6202 	 55.2412
| 39> H 	 -0.889748 	 -25.3169 	 55.3158
| 40> H 	 3.60429 	 -19.0788 	 52.7914
| 41> *
| 42>
| 43>                          ****END OF INPUT****

CARTESIAN COORDINATES (ANGSTROEM)
---------------------------------
  S      0.091230  -22.985500   54.998500
  C     -0.011043  -24.696200   55.170800
  C      1.219550  -25.346000   55.043300
  C      2.248440  -24.338200   54.968100
  C      1.742020  -23.048000   54.927600
  H      3.307750  -24.493300   54.811200
  C      1.359870  -26.862400   54.891300
  H      2.115250  -26.945800   54.138700
  H      0.550363  -27.282000   54.289600
  C      1.693530  -27.610000   56.087700
  H      1.828380  -28.568600   55.693600
  H      2.664050  -27.318300   56.428800
  C      0.629386  -27.316700   57.283800
  H     -0.299138  -27.788200   57.099700
  H      1.030870  -27.795900   58.173900
  H      0.493674  -26.193700   57.621000
  S      2.125190  -21.118300   53.089400
  C      3.400360  -19.885000   53.405000
  C      4.111520  -20.187300   54.547200
  C      3.676490  -21.338600   55.244400
  C      2.602930  -21.918600   54.601700
  H      4.872530  -19.511700   54.830900
  C      4.403660  -21.953000   56.459500
  H      4.082290  -22.968900   56.542000
  H      4.060830  -21.510200   57.384700
  C      5.924810  -21.883500   56.440300
  H      6.283370  -22.269900   57.315800
  H      6.205370  -20.792400   56.424200
  C      6.542320  -22.711500   55.262800
  H      6.122020  -22.409400   54.306800
  H      6.361240  -23.844600   55.392200
  H      7.614840  -22.620200   55.241200
  H     -0.889748  -25.316900   55.315800
  H      3.604290  -19.078800   52.791400

 Total Charge           Charge          ....    0
 Multiplicity           Mult            ....    1
 Number of Electrons    NEL             ....  134
 Basis Dimension        Dim             ....  322

ORBITAL ENERGIES
----------------

  NO   OCC          E(Eh)            E(eV)
   0   2.0000     -88.969383     -2420.9800
   1   2.0000     -88.963081     -2420.8085
   2   2.0000     -10.324720      -280.9499
   3   2.0000     -10.316741      -280.7328
   4   2.0000     -10.312901      -280.6283
   5   2.0000     -10.306521      -280.4547
   6   2.0000     -10.301293      -280.3124
   7   2.0000     -10.299163      -280.2545
   8   2.0000     -10.290269      -280.0125
   9   2.0000     -10.289814      -280.0001
  10   2.0000     -10.287026      -279.9242
  11   2.0000     -10.286985      -279.9231
  12   2.0000     -10.285928      -279.8943
  13   2.0000     -10.285185      -279.8741
  14   2.0000     -10.283351      -279.8242
  15   2.0000     -10.282401      -279.7984
  16   2.0000      -8.085930      -220.0294
  17   2.0000      -8.076846      -219.7821
  18   2.0000      -6.044160      -164.4699
  19   2.0000      -6.040160      -164.3611
  20   2.0000      -6.036904      -164.2725
  21   2.0000      -6.035391      -164.2313
  22   2.0000      -6.031586      -164.1278
  23   2.0000      -6.027531      -164.0175
  24   2.0000      -1.013834       -27.5878
  25   2.0000      -0.981331       -26.7034
  26   2.0000      -0.920994       -25.0615
  27   2.0000      -0.906026       -24.6542
  28   2.0000      -0.866581       -23.5809
  29   2.0000      -0.847660       -23.0660
  30   2.0000      -0.839999       -22.8575
  31   2.0000      -0.807795       -21.9812
  32   2.0000      -0.787442       -21.4274
  33   2.0000      -0.777106       -21.1461
  34   2.0000      -0.712840       -19.3974
  35   2.0000      -0.700900       -19.0724
  36   2.0000      -0.695615       -18.9287
  37   2.0000      -0.659169       -17.9369
  38   2.0000      -0.640861       -17.4387
  39   2.0000      -0.617103       -16.7922
  40   2.0000      -0.598004       -16.2725
  41   2.0000      -0.572939       -15.5905
  42   2.0000      -0.551504       -15.0072
  43   2.0000      -0.549735       -14.9590
  44   2.0000      -0.545816       -14.8524
  45   2.0000      -0.538581       -14.6555
  46   2.0000      -0.516781       -14.0623
  47   2.0000      -0.511739       -13.9251
  48   2.0000      -0.496640       -13.5143
  49   2.0000      -0.490375       -13.3438
  50   2.0000      -0.485663       -13.2156
  51   2.0000      -0.474554       -12.9133
  52   2.0000      -0.466707       -12.6997
  53   2.0000      -0.465309       -12.6617
  54   2.0000      -0.458350       -12.4723
  55   2.0000      -0.450415       -12.2564
  56   2.0000      -0.446606       -12.1528
  57   2.0000      -0.443739       -12.0748
  58   2.0000      -0.433302       -11.7907
  59   2.0000      -0.425012       -11.5652
  60   2.0000      -0.423705       -11.5296
  61   2.0000      -0.419653       -11.4193
  62   2.0000      -0.405578       -11.0363
  63   2.0000      -0.340814        -9.2740
  64   2.0000      -0.332620        -9.0511
  65   2.0000      -0.329177        -8.9574
  66   2.0000      -0.290732        -7.9112
  67   0.0000       0.039013         1.0616
  68   0.0000       0.069334         1.8867
  69   0.0000       0.110008         2.9935
  70   0.0000       0.120915         3.2903
  71   0.0000       0.134487         3.6596

MULLIKEN ATOMIC CHARGES
-----------------------
   0 S :    0.150436
   1 C :   -0.123530
   2 C :   -0.110890
   3 C :    0.026346
   4 C :   -0.158971
   5 H :    0.010708
   6 C :    0.058629
   7 H :    0.009142
   8 H :    0.022176
   9 C :    0.012441
  10 H :    0.017093
  11 H :    0.013857
  12 C :   -0.091966
  13 H :    0.029579
  14 H :    0.030177
  15 H :    0.073875
  16 S :    0.089920
  17 C :   -0.068069
  18 C :   -0.031874
  19 C :   -0.022785
  20 C :   -0.184980
  21 H :    0.004473
  22 C :    0.116774
  23 H :   -0.000087
  24 H :    0.027238
  25 C :   -0.047884
  26 H :    0.007961
  27 H :    0.034140
  28 C :   -0.078567
  29 H :    0.047630
  30 H :    0.036315
  31 H :    0.033631
  32 H :    0.040308
  33 H :    0.026753
Sum of atomic charges:    0.0000000

LOEWDIN ATOMIC CHARGES
----------------------
   0 S :    0.467838
   1 C :   -0.216377
   2 C :   -0.054256
   3 C :   -0.065683
   4 C :   -0.240744
   5 H :    0.027584
   6 C :   -0.038815
   7 H :    0.030330
   8 H :    0.031685
   9 C :   -0.030350
  10 H :    0.023272
  11 H :    0.021634
  12 C :   -0.072302
  13 H :    0.015826
  14 H :    0.023705
  15 H :    0.048481
  16 S :    0.368163
  17 C :   -0.158021
  18 C :   -0.062910
  19 C :   -0.059577
  20 C :   -0.175911
  21 H :    0.025791
  22 C :   -0.024206
  23 H :    0.023798
  24 H :    0.032441
  25 C :   -0.032607
  26 H :    0.013017
  27 H :    0.027478
  28 C :   -0.068424
  29 H :    0.025365
  30 H :    0.032446
  31 H :    0.022056
  32 H :    0.026625
  33 H :    0.012650

  Mayer bond orders larger than 0.100000
B(  0-S ,  1-C ) :   1.1540 B(  0-S ,  4-C ) :   1.1890 B(  1-C ,  2-C ) :   1.5847
B(  1-C , 32-H ) :   0.9666 B(  2-C ,  3-C ) :   1.2763 B(  2-C ,  6-C ) :   1.0045
B(  3-C ,  4-C ) :   1.5320 B(  3-C ,  5-H ) :   0.9903 B(  4-C , 20-C ) :   1.0121
B(  6-C ,  7-H ) :   0.9288 B(  6-C ,  8-H ) :   0.9417 B(  6-C ,  9-C ) :   1.0866
B(  9-C , 10-H ) :   0.9521 B(  9-C , 11-H ) :   0.9516 B(  9-C , 12-C ) :   1.0556
B( 12-C , 13-H ) :   0.9790 B( 12-C , 14-H ) :   0.9773 B( 12-C , 15-H ) :   0.9699
B( 16-S , 17-C ) :   1.1237 B( 16-S , 20-C ) :   1.1446 B( 17-C , 18-C ) :   1.6437
B( 17-C , 20-C ) :   0.1029 B( 17-C , 33-H ) :   0.9761 B( 18-C , 19-C ) :   1.2072
B( 18-C , 21-H ) :   0.9932 B( 19-C , 20-C ) :   1.6335 B( 19-C , 22-C ) :   1.0276
B( 22-C , 23-H ) :   0.9320 B( 22-C , 24-H ) :   0.9233 B( 22-C , 25-C ) :   1.0867
B( 25-C , 26-H ) :   0.9498 B( 25-C , 27-H ) :   0.9507 B( 25-C , 28-C ) :   1.0695
B( 28-C , 29-H ) :   0.9774 B( 28-C , 30-H ) :   0.9731 B( 28-C , 31-H ) :   0.9762

Dispersion correction           -0.014956746
FINAL SINGLE POINT ENERGY     -1339.855888115515

DIPOLE MOMENT
-------------
                                X             Y             Z
Electronic contribution:    -15.02345      17.75235     -12.46770
Nuclear contribution   :     15.47394     -18.17987      12.69044
                        -----------------------------------------
Total Dipole Moment    :      0.45050      -0.42752       0.22274
                        -----------------------------------------
Magnitude (a.u.)       :      0.65980
Magnitude (Debye)      :      1.67707

Rotational constants in cm-1:     0.020117     0.008820     0.006836
Rotational constants in MHz :   603.098847   264.403560   204.949505

                             ****ORCA TERMINATED NORMALLY****
TOTAL RUN TIME: 0 days 0 hours 0 minutes 36 seconds 864 msec
