                         Program Version 4.2.1 -  RELEASE  -
|  1> ! wB97X-D3 SP def2-SVP
|  2> %pal
|  3> nprocs 16
|  4> end
|  5>
|  6> * xyz 0 1
|  7> S 	 40.5013 	 14.4459 	 51.3202
|  8> C 	 40.538 	 14.3849 	 53.0646
|  9> C 	 39.4438 	 14.8488 	 53.7074
| 10> C 	 38.4723 	 15.2707 	 52.752
| 11> C 	 38.939 	 15.2253 	 51.4511
| 12> H 	 37.511 	 15.7483 	 53.0687
| 13> C 	 39.348 	 14.7843 	 55.225
| 14> H 	 38.5196 	 15.3698 	 55.5144
| 15> H 	 40.2397 	 15.1969 	 55.6631
| 16> C 	 38.9896 	 13.3743 	 55.6731
| 17> H 	 38.3676 	 12.8356 	 54.9284
| 18> H 	 39.9377 	 12.8842 	 55.5845
| 19> C 	 38.6675 	 13.1149 	 57.0476
| 20> H 	 39.2122 	 13.8203 	 57.6873
| 21> H 	 37.591 	 13.2543 	 57.2234
| 22> H 	 38.8783 	 12.0321 	 57.2299
| 23> S 	 38.9045 	 17.1163 	 49.4859
| 24> C 	 37.5154 	 17.3275 	 48.4223
| 25> C 	 36.5821 	 16.3814 	 48.636
| 26> C 	 36.9407 	 15.4677 	 49.6912
| 27> C 	 38.2326 	 15.681 	 50.2112
| 28> H 	 35.6538 	 16.3168 	 48.1175
| 29> C 	 36.053 	 14.2945 	 50.0986
| 30> H 	 35.0815 	 14.688 	 49.8819
| 31> H 	 36.1318 	 14.1518 	 51.1367
| 32> C 	 36.203 	 12.9377 	 49.367
| 33> H 	 36.2007 	 13.0181 	 48.3119
| 34> H 	 35.3602 	 12.2919 	 49.7848
| 35> C 	 37.4505 	 11.9738 	 49.7373
| 36> H 	 37.6953 	 11.2182 	 48.9676
| 37> H 	 37.2925 	 11.5615 	 50.7248
| 38> H 	 38.3574 	 12.5299 	 49.8974
| 39> H 	 41.291 	 13.7912 	 53.6051
| 40> H 	 37.4506 	 18.0133 	 47.5593
| 41> *
| 42>
| 43>                          ****END OF INPUT****

CARTESIAN COORDINATES (ANGSTROEM)
---------------------------------
  S     40.501300   14.445900   51.320200
  C     40.538000   14.384900   53.064600
  C     39.443800   14.848800   53.707400
  C     38.472300   15.270700   52.752000
  C     38.939000   15.225300   51.451100
  H     37.511000   15.748300   53.068700
  C     39.348000   14.784300   55.225000
  H     38.519600   15.369800   55.514400
  H     40.239700   15.196900   55.663100
  C     38.989600   13.374300   55.673100
  H     38.367600   12.835600   54.928400
  H     39.937700   12.884200   55.584500
  C     38.667500   13.114900   57.047600
  H     39.212200   13.820300   57.687300
  H     37.591000   13.254300   57.223400
  H     38.878300   12.032100   57.229900
  S     38.904500   17.116300   49.485900
  C     37.515400   17.327500   48.422300
  C     36.582100   16.381400   48.636000
  C     36.940700   15.467700   49.691200
  C     38.232600   15.681000   50.211200
  H     35.653800   16.316800   48.117500
  C     36.053000   14.294500   50.098600
  H     35.081500   14.688000   49.881900
  H     36.131800   14.151800   51.136700
  C     36.203000   12.937700   49.367000
  H     36.200700   13.018100   48.311900
  H     35.360200   12.291900   49.784800
  C     37.450500   11.973800   49.737300
  H     37.695300   11.218200   48.967600
  H     37.292500   11.561500   50.724800
  H     38.357400   12.529900   49.897400
  H     41.291000   13.791200   53.605100
  H     37.450600   18.013300   47.559300

 Total Charge           Charge          ....    0
 Multiplicity           Mult            ....    1
 Number of Electrons    NEL             ....  134
 Basis Dimension        Dim             ....  322

ORBITAL ENERGIES
----------------

  NO   OCC          E(Eh)            E(eV)
   0   2.0000     -88.969636     -2420.9869
   1   2.0000     -88.960860     -2420.7481
   2   2.0000     -10.334074      -281.2045
   3   2.0000     -10.326948      -281.0106
   4   2.0000     -10.316512      -280.7266
   5   2.0000     -10.308829      -280.5175
   6   2.0000     -10.303590      -280.3749
   7   2.0000     -10.301057      -280.3060
   8   2.0000     -10.297457      -280.2081
   9   2.0000     -10.291678      -280.0508
  10   2.0000     -10.290023      -280.0058
  11   2.0000     -10.289713      -279.9973
  12   2.0000     -10.286153      -279.9005
  13   2.0000     -10.278936      -279.7041
  14   2.0000     -10.277237      -279.6578
  15   2.0000     -10.272689      -279.5341
  16   2.0000      -8.084222      -219.9829
  17   2.0000      -8.075794      -219.7535
  18   2.0000      -6.042557      -164.4263
  19   2.0000      -6.038937      -164.3278
  20   2.0000      -6.034982      -164.2202
  21   2.0000      -6.034379      -164.2038
  22   2.0000      -6.030123      -164.0880
  23   2.0000      -6.026585      -163.9917
  24   2.0000      -1.006494       -27.3881
  25   2.0000      -0.985963       -26.8294
  26   2.0000      -0.926423       -25.2092
  27   2.0000      -0.897068       -24.4104
  28   2.0000      -0.873969       -23.7819
  29   2.0000      -0.853809       -23.2333
  30   2.0000      -0.837778       -22.7971
  31   2.0000      -0.817979       -22.2583
  32   2.0000      -0.787041       -21.4165
  33   2.0000      -0.770718       -20.9723
  34   2.0000      -0.702111       -19.1054
  35   2.0000      -0.695757       -18.9325
  36   2.0000      -0.688650       -18.7391
  37   2.0000      -0.660574       -17.9751
  38   2.0000      -0.638242       -17.3675
  39   2.0000      -0.621504       -16.9120
  40   2.0000      -0.594143       -16.1675
  41   2.0000      -0.575627       -15.6636
  42   2.0000      -0.570125       -15.5139
  43   2.0000      -0.545681       -14.8487
  44   2.0000      -0.538952       -14.6656
  45   2.0000      -0.531296       -14.4573
  46   2.0000      -0.519329       -14.1317
  47   2.0000      -0.509222       -13.8566
  48   2.0000      -0.506275       -13.7765
  49   2.0000      -0.493658       -13.4331
  50   2.0000      -0.488554       -13.2942
  51   2.0000      -0.474190       -12.9034
  52   2.0000      -0.468807       -12.7569
  53   2.0000      -0.466393       -12.6912
  54   2.0000      -0.461828       -12.5670
  55   2.0000      -0.454322       -12.3627
  56   2.0000      -0.444136       -12.0855
  57   2.0000      -0.438562       -11.9339
  58   2.0000      -0.434080       -11.8119
  59   2.0000      -0.430823       -11.7233
  60   2.0000      -0.424217       -11.5435
  61   2.0000      -0.399214       -10.8632
  62   2.0000      -0.397322       -10.8117
  63   2.0000      -0.344906        -9.3854
  64   2.0000      -0.335594        -9.1320
  65   2.0000      -0.324028        -8.8172
  66   2.0000      -0.300150        -8.1675
  67   0.0000       0.037619         1.0237
  68   0.0000       0.064222         1.7476
  69   0.0000       0.111762         3.0412
  70   0.0000       0.120724         3.2851
  71   0.0000       0.129373         3.5204

MULLIKEN ATOMIC CHARGES
-----------------------
   0 S :    0.124269
   1 C :   -0.132392
   2 C :   -0.122895
   3 C :    0.035724
   4 C :   -0.174786
   5 H :    0.031555
   6 C :    0.133638
   7 H :   -0.003013
   8 H :    0.034573
   9 C :   -0.112928
  10 H :    0.037941
  11 H :    0.004497
  12 C :   -0.011281
  13 H :    0.029541
  14 H :    0.027694
  15 H :    0.042715
  16 S :    0.096722
  17 C :   -0.085914
  18 C :   -0.017917
  19 C :   -0.088324
  20 C :   -0.134113
  21 H :    0.009649
  22 C :    0.127256
  23 H :    0.008345
  24 H :    0.006346
  25 C :   -0.077318
  26 H :    0.026364
  27 H :    0.043842
  28 C :   -0.059635
  29 H :    0.045620
  30 H :    0.023327
  31 H :    0.013966
  32 H :    0.051688
  33 H :    0.065246
Sum of atomic charges:    0.0000000

LOEWDIN ATOMIC CHARGES
----------------------
   0 S :    0.412271
   1 C :   -0.197542
   2 C :   -0.063223
   3 C :   -0.061725
   4 C :   -0.196290
   5 H :    0.040437
   6 C :   -0.019866
   7 H :    0.019805
   8 H :    0.032365
   9 C :   -0.057219
  10 H :    0.030896
  11 H :    0.020059
  12 C :   -0.063815
  13 H :    0.029100
  14 H :    0.022543
  15 H :    0.037168
  16 S :    0.403988
  17 C :   -0.183207
  18 C :   -0.072774
  19 C :   -0.055404
  20 C :   -0.208944
  21 H :    0.029144
  22 C :   -0.027285
  23 H :    0.028756
  24 H :    0.023341
  25 C :   -0.032490
  26 H :    0.016230
  27 H :    0.035122
  28 C :   -0.073322
  29 H :    0.031007
  30 H :    0.021419
  31 H :    0.014290
  32 H :    0.027392
  33 H :    0.037772

  Mayer bond orders larger than 0.100000
B(  0-S ,  1-C ) :   1.1346 B(  0-S ,  4-C ) :   1.1603 B(  1-C ,  2-C ) :   1.6435
B(  1-C , 32-H ) :   0.9585 B(  2-C ,  3-C ) :   1.2505 B(  2-C ,  6-C ) :   1.0153
B(  3-C ,  4-C ) :   1.5895 B(  3-C ,  5-H ) :   0.9856 B(  4-C , 20-C ) :   0.9785
B(  6-C ,  7-H ) :   0.9308 B(  6-C ,  8-H ) :   0.9361 B(  6-C ,  9-C ) :   1.0610
B(  9-C , 10-H ) :   0.9528 B(  9-C , 11-H ) :   0.9494 B(  9-C , 12-C ) :   1.0966
B( 12-C , 13-H ) :   0.9636 B( 12-C , 14-H ) :   0.9715 B( 12-C , 15-H ) :   0.9716
B( 16-S , 17-C ) :   1.1529 B( 16-S , 20-C ) :   1.1476 B( 17-C , 18-C ) :   1.6140
B( 17-C , 33-H ) :   0.9591 B( 18-C , 19-C ) :   1.2497 B( 18-C , 21-H ) :   0.9924
B( 19-C , 20-C ) :   1.5977 B( 19-C , 22-C ) :   1.0408 B( 22-C , 23-H ) :   0.9254
B( 22-C , 24-H ) :   0.9327 B( 22-C , 25-C ) :   1.0712 B( 25-C , 26-H ) :   0.9618
B( 25-C , 27-H ) :   0.9602 B( 25-C , 28-C ) :   1.0599 B( 28-C , 29-H ) :   0.9775
B( 28-C , 30-H ) :   0.9779 B( 28-C , 31-H ) :   0.9751

Dispersion correction           -0.014630242
FINAL SINGLE POINT ENERGY     -1339.862439236898

DIPOLE MOMENT
-------------
                                X             Y             Z
Electronic contribution:     10.93614      17.69835     -16.64630
Nuclear contribution   :    -11.35682     -17.94998      17.06273
                        -----------------------------------------
Total Dipole Moment    :     -0.42069      -0.25163       0.41644
                        -----------------------------------------
Magnitude (a.u.)       :      0.64321
Magnitude (Debye)      :      1.63490

Rotational constants in cm-1:     0.020761     0.007962     0.006968
Rotational constants in MHz :   622.413908   238.696135   208.898638

                             ****ORCA TERMINATED NORMALLY****
TOTAL RUN TIME: 0 days 0 hours 0 minutes 35 seconds 917 msec
