                         Program Version 4.2.1 -  RELEASE  -
|  1> ! wB97X-D3 SP def2-SVP
|  2> %pal
|  3> nprocs 16
|  4> end
|  5>
|  6> * xyz 0 1
|  7> S 	 -2.7595 	 79.0691 	 52.2549
|  8> C 	 -1.52483 	 80.1498 	 52.8285
|  9> C 	 -0.802478 	 79.6185 	 53.8883
| 10> C 	 -1.38519 	 78.3568 	 54.3062
| 11> C 	 -2.39273 	 77.9414 	 53.5647
| 12> H 	 -1.10941 	 77.7531 	 55.1997
| 13> C 	 0.386389 	 80.2832 	 54.6033
| 14> H 	 -0.0669918 	 80.9431 	 55.412
| 15> H 	 0.818224 	 81.0283 	 54.0048
| 16> C 	 1.41249 	 79.3149 	 55.1547
| 17> H 	 2.24544 	 79.8493 	 55.7342
| 18> H 	 0.968375 	 78.5456 	 55.7524
| 19> C 	 2.17294 	 78.4222 	 54.2464
| 20> H 	 2.88763 	 79.0277 	 53.6339
| 21> H 	 2.8467 	 77.7451 	 54.8071
| 22> H 	 1.45737 	 77.7933 	 53.7286
| 23> S 	 -4.8554 	 76.9802 	 54.1093
| 24> C 	 -5.06436 	 75.237 	 54.1853
| 25> C 	 -3.95637 	 74.477 	 53.9663
| 26> C 	 -2.8502 	 75.3221 	 53.5622
| 27> C 	 -3.14111 	 76.6734 	 53.6788
| 28> H 	 -3.94887 	 73.3475 	 53.9183
| 29> C 	 -1.50694 	 74.7143 	 53.0379
| 30> H 	 -0.950647 	 75.5465 	 52.6577
| 31> H 	 -1.8036 	 74.1031 	 52.1598
| 32> C 	 -0.773471 	 73.8989 	 54.138
| 33> H 	 0.19242 	 73.534 	 53.7552
| 34> H 	 -1.43173 	 73.055 	 54.3177
| 35> C 	 -0.419209 	 74.6297 	 55.4786
| 36> H 	 -1.29308 	 74.8145 	 56.0538
| 37> H 	 0.00969875 	 75.6021 	 55.3176
| 38> H 	 0.208953 	 73.8877 	 56.0847
| 39> H 	 -1.19118 	 81.0273 	 52.3534
| 40> H 	 -5.94281 	 74.6923 	 54.3838
| 41> *
| 42>
| 43>                          ****END OF INPUT****

CARTESIAN COORDINATES (ANGSTROEM)
---------------------------------
  S     -2.759500   79.069100   52.254900
  C     -1.524830   80.149800   52.828500
  C     -0.802478   79.618500   53.888300
  C     -1.385190   78.356800   54.306200
  C     -2.392730   77.941400   53.564700
  H     -1.109410   77.753100   55.199700
  C      0.386389   80.283200   54.603300
  H     -0.066992   80.943100   55.412000
  H      0.818224   81.028300   54.004800
  C      1.412490   79.314900   55.154700
  H      2.245440   79.849300   55.734200
  H      0.968375   78.545600   55.752400
  C      2.172940   78.422200   54.246400
  H      2.887630   79.027700   53.633900
  H      2.846700   77.745100   54.807100
  H      1.457370   77.793300   53.728600
  S     -4.855400   76.980200   54.109300
  C     -5.064360   75.237000   54.185300
  C     -3.956370   74.477000   53.966300
  C     -2.850200   75.322100   53.562200
  C     -3.141110   76.673400   53.678800
  H     -3.948870   73.347500   53.918300
  C     -1.506940   74.714300   53.037900
  H     -0.950647   75.546500   52.657700
  H     -1.803600   74.103100   52.159800
  C     -0.773471   73.898900   54.138000
  H      0.192420   73.534000   53.755200
  H     -1.431730   73.055000   54.317700
  C     -0.419209   74.629700   55.478600
  H     -1.293080   74.814500   56.053800
  H      0.009699   75.602100   55.317600
  H      0.208953   73.887700   56.084700
  H     -1.191180   81.027300   52.353400
  H     -5.942810   74.692300   54.383800

 Total Charge           Charge          ....    0
 Multiplicity           Mult            ....    1
 Number of Electrons    NEL             ....  134
 Basis Dimension        Dim             ....  322

ORBITAL ENERGIES
----------------

  NO   OCC          E(Eh)            E(eV)
   0   2.0000     -88.966138     -2420.8917
   1   2.0000     -88.964033     -2420.8344
   2   2.0000     -10.328498      -281.0527
   3   2.0000     -10.324539      -280.9450
   4   2.0000     -10.313654      -280.6488
   5   2.0000     -10.310330      -280.5584
   6   2.0000     -10.309425      -280.5337
   7   2.0000     -10.305119      -280.4165
   8   2.0000     -10.298399      -280.2337
   9   2.0000     -10.297031      -280.1965
  10   2.0000     -10.296669      -280.1866
  11   2.0000     -10.293033      -280.0877
  12   2.0000     -10.292858      -280.0829
  13   2.0000     -10.286346      -279.9057
  14   2.0000     -10.282745      -279.8077
  15   2.0000     -10.277270      -279.6587
  16   2.0000      -8.080236      -219.8744
  17   2.0000      -8.078936      -219.8390
  18   2.0000      -6.038822      -164.3247
  19   2.0000      -6.037483      -164.2883
  20   2.0000      -6.035049      -164.2220
  21   2.0000      -6.033556      -164.1814
  22   2.0000      -6.030724      -164.1043
  23   2.0000      -6.029498      -164.0710
  24   2.0000      -1.005682       -27.3660
  25   2.0000      -0.981635       -26.7117
  26   2.0000      -0.916644       -24.9431
  27   2.0000      -0.901460       -24.5300
  28   2.0000      -0.871796       -23.7228
  29   2.0000      -0.848420       -23.0867
  30   2.0000      -0.842763       -22.9327
  31   2.0000      -0.821700       -22.3596
  32   2.0000      -0.786103       -21.3909
  33   2.0000      -0.774846       -21.0846
  34   2.0000      -0.706623       -19.2282
  35   2.0000      -0.694618       -18.9015
  36   2.0000      -0.684752       -18.6330
  37   2.0000      -0.656451       -17.8629
  38   2.0000      -0.646235       -17.5849
  39   2.0000      -0.624033       -16.9808
  40   2.0000      -0.590369       -16.0648
  41   2.0000      -0.568632       -15.4733
  42   2.0000      -0.551974       -15.0200
  43   2.0000      -0.549214       -14.9449
  44   2.0000      -0.543126       -14.7792
  45   2.0000      -0.542780       -14.7698
  46   2.0000      -0.515303       -14.0221
  47   2.0000      -0.514219       -13.9926
  48   2.0000      -0.501486       -13.6461
  49   2.0000      -0.496927       -13.5221
  50   2.0000      -0.491907       -13.3855
  51   2.0000      -0.477049       -12.9812
  52   2.0000      -0.467916       -12.7327
  53   2.0000      -0.462241       -12.5782
  54   2.0000      -0.458777       -12.4840
  55   2.0000      -0.449421       -12.2294
  56   2.0000      -0.446522       -12.1505
  57   2.0000      -0.441949       -12.0260
  58   2.0000      -0.438399       -11.9295
  59   2.0000      -0.426632       -11.6092
  60   2.0000      -0.417511       -11.3610
  61   2.0000      -0.413077       -11.2404
  62   2.0000      -0.403045       -10.9674
  63   2.0000      -0.344722        -9.3804
  64   2.0000      -0.331463        -9.0196
  65   2.0000      -0.326507        -8.8847
  66   2.0000      -0.303212        -8.2508
  67   0.0000       0.042037         1.1439
  68   0.0000       0.064205         1.7471
  69   0.0000       0.107085         2.9139
  70   0.0000       0.116330         3.1655
  71   0.0000       0.124817         3.3964

MULLIKEN ATOMIC CHARGES
-----------------------
   0 S :    0.113007
   1 C :   -0.089027
   2 C :   -0.128950
   3 C :    0.015235
   4 C :   -0.150382
   5 H :    0.027390
   6 C :    0.135879
   7 H :    0.052812
   8 H :   -0.001799
   9 C :   -0.108415
  10 H :    0.038527
  11 H :    0.021995
  12 C :   -0.058646
  13 H :    0.028555
  14 H :    0.031514
  15 H :    0.038884
  16 S :    0.103728
  17 C :   -0.043600
  18 C :   -0.072849
  19 C :   -0.053737
  20 C :   -0.194844
  21 H :    0.046889
  22 C :    0.086007
  23 H :    0.021851
  24 H :    0.044617
  25 C :   -0.083756
  26 H :    0.037365
  27 H :    0.027221
  28 C :   -0.055611
  29 H :    0.033881
  30 H :    0.028214
  31 H :    0.049616
  32 H :    0.026957
  33 H :    0.031473
Sum of atomic charges:   -0.0000000

LOEWDIN ATOMIC CHARGES
----------------------
   0 S :    0.395279
   1 C :   -0.192023
   2 C :   -0.059205
   3 C :   -0.071688
   4 C :   -0.195333
   5 H :    0.040049
   6 C :   -0.031209
   7 H :    0.048362
   8 H :    0.021050
   9 C :   -0.054690
  10 H :    0.034902
  11 H :    0.020327
  12 C :   -0.065311
  13 H :    0.023822
  14 H :    0.029030
  15 H :    0.021312
  16 S :    0.383539
  17 C :   -0.169424
  18 C :   -0.082055
  19 C :   -0.048250
  20 C :   -0.189228
  21 H :    0.043678
  22 C :   -0.026685
  23 H :    0.024175
  24 H :    0.039006
  25 C :   -0.039215
  26 H :    0.025895
  27 H :    0.021036
  28 C :   -0.065374
  29 H :    0.020483
  30 H :    0.018997
  31 H :    0.039520
  32 H :    0.019103
  33 H :    0.020125

  Mayer bond orders larger than 0.100000
B(  0-S ,  1-C ) :   1.1288 B(  0-S ,  4-C ) :   1.1311 B(  1-C ,  2-C ) :   1.6564
B(  1-C , 32-H ) :   0.9682 B(  2-C ,  3-C ) :   1.1831 B(  2-C ,  6-C ) :   1.0114
B(  3-C ,  4-C ) :   1.6725 B(  3-C ,  5-H ) :   0.9816 B(  4-C , 20-C ) :   0.9804
B(  6-C ,  7-H ) :   0.9337 B(  6-C ,  8-H ) :   0.9361 B(  6-C ,  9-C ) :   1.0662
B(  9-C , 10-H ) :   0.9542 B(  9-C , 11-H ) :   0.9544 B(  9-C , 12-C ) :   1.0881
B( 12-C , 13-H ) :   0.9728 B( 12-C , 14-H ) :   0.9724 B( 12-C , 15-H ) :   0.9700
B( 16-S , 17-C ) :   1.1363 B( 16-S , 20-C ) :   1.1187 B( 17-C , 18-C ) :   1.6778
B( 17-C , 33-H ) :   0.9629 B( 18-C , 19-C ) :   1.1915 B( 18-C , 21-H ) :   0.9729
B( 19-C , 20-C ) :   1.6703 B( 19-C , 22-C ) :   1.0200 B( 22-C , 23-H ) :   0.9384
B( 22-C , 24-H ) :   0.9422 B( 22-C , 25-C ) :   1.0613 B( 25-C , 26-H ) :   0.9608
B( 25-C , 27-H ) :   0.9577 B( 25-C , 28-C ) :   1.0689 B( 28-C , 29-H ) :   0.9725
B( 28-C , 30-H ) :   0.9736 B( 28-C , 31-H ) :   0.9727

Dispersion correction           -0.015807712
FINAL SINGLE POINT ENERGY     -1339.869214420012

DIPOLE MOMENT
-------------
                                X             Y             Z
Electronic contribution:    -26.80035       8.22182      -9.19405
Nuclear contribution   :     27.33355      -8.53808       9.38801
                        -----------------------------------------
Total Dipole Moment    :      0.53320      -0.31626       0.19396
                        -----------------------------------------
Magnitude (a.u.)       :      0.64957
Magnitude (Debye)      :      1.65108

Rotational constants in cm-1:     0.017939     0.010515     0.007485
Rotational constants in MHz :   537.785898   315.234178   224.389896

                             ****ORCA TERMINATED NORMALLY****
TOTAL RUN TIME: 0 days 0 hours 0 minutes 35 seconds 993 msec
