                         Program Version 4.2.1 -  RELEASE  -
|  1> ! wB97X-D3 SP def2-SVP
|  2> %pal
|  3> nprocs 16
|  4> end
|  5>
|  6> * xyz 0 1
|  7> S 	 -35.1986 	 74.1227 	 149.799
|  8> C 	 -33.4887 	 74.5706 	 149.777
|  9> C 	 -32.7582 	 73.5054 	 150.264
| 10> C 	 -33.5103 	 72.4112 	 150.742
| 11> C 	 -34.8643 	 72.5343 	 150.488
| 12> H 	 -33.0498 	 71.5025 	 151.158
| 13> C 	 -31.2668 	 73.4496 	 150.336
| 14> H 	 -31.0222 	 72.5052 	 150.818
| 15> H 	 -30.8908 	 74.1489 	 151.097
| 16> C 	 -30.4792 	 73.6177 	 149.039
| 17> H 	 -30.9305 	 72.9654 	 148.18
| 18> H 	 -30.5225 	 74.7038 	 148.757
| 19> C 	 -28.9746 	 73.2678 	 149.093
| 20> H 	 -28.6066 	 73.1542 	 148.15
| 21> H 	 -28.3515 	 73.9739 	 149.677
| 22> H 	 -28.9551 	 72.377 	 149.631
| 23> S 	 -36.5802 	 70.5996 	 149.396
| 24> C 	 -37.3521 	 69.4971 	 150.526
| 25> C 	 -37.0144 	 69.847 	 151.853
| 26> C 	 -36.2371 	 71.0268 	 151.975
| 27> C 	 -35.8969 	 71.5786 	 150.794
| 28> H 	 -37.4837 	 69.1557 	 152.587
| 29> C 	 -35.859 	 71.5282 	 153.396
| 30> H 	 -34.7547 	 71.6825 	 153.401
| 31> H 	 -36.0261 	 70.7998 	 154.128
| 32> C 	 -36.4663 	 72.8785 	 153.768
| 33> H 	 -37.5424 	 73.0835 	 153.645
| 34> H 	 -35.9766 	 73.5414 	 152.971
| 35> C 	 -36.0731 	 73.344 	 155.155
| 36> H 	 -36.3321 	 74.4259 	 155.272
| 37> H 	 -34.9532 	 73.331 	 155.249
| 38> H 	 -36.6507 	 72.7307 	 155.825
| 39> H 	 -32.9594 	 75.5143 	 149.372
| 40> H 	 -37.8376 	 68.5504 	 150.209
| 41> *
| 42>
| 43>                          ****END OF INPUT****

CARTESIAN COORDINATES (ANGSTROEM)
---------------------------------
  S    -35.198600   74.122700  149.799000
  C    -33.488700   74.570600  149.777000
  C    -32.758200   73.505400  150.264000
  C    -33.510300   72.411200  150.742000
  C    -34.864300   72.534300  150.488000
  H    -33.049800   71.502500  151.158000
  C    -31.266800   73.449600  150.336000
  H    -31.022200   72.505200  150.818000
  H    -30.890800   74.148900  151.097000
  C    -30.479200   73.617700  149.039000
  H    -30.930500   72.965400  148.180000
  H    -30.522500   74.703800  148.757000
  C    -28.974600   73.267800  149.093000
  H    -28.606600   73.154200  148.150000
  H    -28.351500   73.973900  149.677000
  H    -28.955100   72.377000  149.631000
  S    -36.580200   70.599600  149.396000
  C    -37.352100   69.497100  150.526000
  C    -37.014400   69.847000  151.853000
  C    -36.237100   71.026800  151.975000
  C    -35.896900   71.578600  150.794000
  H    -37.483700   69.155700  152.587000
  C    -35.859000   71.528200  153.396000
  H    -34.754700   71.682500  153.401000
  H    -36.026100   70.799800  154.128000
  C    -36.466300   72.878500  153.768000
  H    -37.542400   73.083500  153.645000
  H    -35.976600   73.541400  152.971000
  C    -36.073100   73.344000  155.155000
  H    -36.332100   74.425900  155.272000
  H    -34.953200   73.331000  155.249000
  H    -36.650700   72.730700  155.825000
  H    -32.959400   75.514300  149.372000
  H    -37.837600   68.550400  150.209000

 Total Charge           Charge          ....    0
 Multiplicity           Mult            ....    1
 Number of Electrons    NEL             ....  134
 Basis Dimension        Dim             ....  322

ORBITAL ENERGIES
----------------

  NO   OCC          E(Eh)            E(eV)
   0   2.0000     -88.968734     -2420.9623
   1   2.0000     -88.963850     -2420.8294
   2   2.0000     -10.330816      -281.1158
   3   2.0000     -10.327224      -281.0180
   4   2.0000     -10.325324      -280.9664
   5   2.0000     -10.321535      -280.8633
   6   2.0000     -10.306634      -280.4578
   7   2.0000     -10.298545      -280.2376
   8   2.0000     -10.297167      -280.2002
   9   2.0000     -10.296559      -280.1836
  10   2.0000     -10.295752      -280.1617
  11   2.0000     -10.292785      -280.0809
  12   2.0000     -10.289414      -279.9892
  13   2.0000     -10.284658      -279.8598
  14   2.0000     -10.279685      -279.7245
  15   2.0000     -10.269375      -279.4439
  16   2.0000      -8.082462      -219.9350
  17   2.0000      -8.077482      -219.7995
  18   2.0000      -6.041091      -164.3865
  19   2.0000      -6.036938      -164.2734
  20   2.0000      -6.035988      -164.2476
  21   2.0000      -6.033306      -164.1746
  22   2.0000      -6.032174      -164.1438
  23   2.0000      -6.028267      -164.0375
  24   2.0000      -1.004047       -27.3215
  25   2.0000      -0.980346       -26.6766
  26   2.0000      -0.911225       -24.7957
  27   2.0000      -0.907119       -24.6840
  28   2.0000      -0.868826       -23.6420
  29   2.0000      -0.853174       -23.2160
  30   2.0000      -0.846780       -23.0421
  31   2.0000      -0.810115       -22.0443
  32   2.0000      -0.783410       -21.3177
  33   2.0000      -0.772881       -21.0312
  34   2.0000      -0.706738       -19.2313
  35   2.0000      -0.696979       -18.9658
  36   2.0000      -0.684146       -18.6166
  37   2.0000      -0.658673       -17.9234
  38   2.0000      -0.633725       -17.2445
  39   2.0000      -0.616683       -16.7808
  40   2.0000      -0.592797       -16.1308
  41   2.0000      -0.569392       -15.4939
  42   2.0000      -0.567354       -15.4385
  43   2.0000      -0.558030       -15.1848
  44   2.0000      -0.532643       -14.4939
  45   2.0000      -0.521249       -14.1839
  46   2.0000      -0.518924       -14.1206
  47   2.0000      -0.515666       -14.0320
  48   2.0000      -0.504263       -13.7217
  49   2.0000      -0.498377       -13.5615
  50   2.0000      -0.493667       -13.4334
  51   2.0000      -0.486573       -13.2403
  52   2.0000      -0.474219       -12.9042
  53   2.0000      -0.459401       -12.5009
  54   2.0000      -0.455476       -12.3941
  55   2.0000      -0.446628       -12.1534
  56   2.0000      -0.435944       -11.8626
  57   2.0000      -0.434480       -11.8228
  58   2.0000      -0.430015       -11.7013
  59   2.0000      -0.421534       -11.4705
  60   2.0000      -0.416797       -11.3416
  61   2.0000      -0.410390       -11.1673
  62   2.0000      -0.403352       -10.9758
  63   2.0000      -0.337665        -9.1883
  64   2.0000      -0.335398        -9.1266
  65   2.0000      -0.327783        -8.9194
  66   2.0000      -0.301108        -8.1936
  67   0.0000       0.032174         0.8755
  68   0.0000       0.051969         1.4141
  69   0.0000       0.112539         3.0623
  70   0.0000       0.118610         3.2275
  71   0.0000       0.127870         3.4795

MULLIKEN ATOMIC CHARGES
-----------------------
   0 S :    0.116316
   1 C :   -0.146101
   2 C :   -0.097813
   3 C :    0.044303
   4 C :   -0.183000
   5 H :    0.028383
   6 C :    0.076153
   7 H :   -0.002901
   8 H :    0.034877
   9 C :   -0.138934
  10 H :    0.051705
  11 H :    0.032776
  12 C :    0.014367
  13 H :    0.022789
  14 H :    0.029836
  15 H :    0.007192
  16 S :    0.091119
  17 C :   -0.120281
  18 C :   -0.072963
  19 C :    0.016085
  20 C :   -0.163989
  21 H :    0.036673
  22 C :    0.126663
  23 H :    0.023321
  24 H :   -0.001341
  25 C :   -0.131301
  26 H :    0.038939
  27 H :    0.036328
  28 C :   -0.041290
  29 H :    0.040481
  30 H :    0.034823
  31 H :    0.036950
  32 H :    0.081788
  33 H :    0.078046
Sum of atomic charges:   -0.0000000

LOEWDIN ATOMIC CHARGES
----------------------
   0 S :    0.404808
   1 C :   -0.210044
   2 C :   -0.072102
   3 C :   -0.060322
   4 C :   -0.193290
   5 H :    0.038055
   6 C :   -0.042459
   7 H :    0.023288
   8 H :    0.035478
   9 C :   -0.045631
  10 H :    0.037172
  11 H :    0.023280
  12 C :   -0.053330
  13 H :    0.015736
  14 H :    0.028320
  15 H :    0.016293
  16 S :    0.367721
  17 C :   -0.183901
  18 C :   -0.082054
  19 C :   -0.046399
  20 C :   -0.181575
  21 H :    0.039497
  22 C :   -0.021383
  23 H :    0.036811
  24 H :    0.015253
  25 C :   -0.053311
  26 H :    0.025753
  27 H :    0.028723
  28 C :   -0.067560
  29 H :    0.032896
  30 H :    0.029391
  31 H :    0.022860
  32 H :    0.053672
  33 H :    0.038356

  Mayer bond orders larger than 0.100000
B(  0-S ,  1-C ) :   1.1309 B(  0-S ,  4-C ) :   1.1531 B(  1-C ,  2-C ) :   1.6010
B(  1-C ,  4-C ) :   0.1016 B(  1-C , 32-H ) :   0.9587 B(  2-C ,  3-C ) :   1.2684
B(  2-C ,  6-C ) :   1.0276 B(  3-C ,  4-C ) :   1.5639 B(  3-C ,  5-H ) :   0.9857
B(  4-C , 20-C ) :   1.0248 B(  6-C ,  7-H ) :   0.9369 B(  6-C ,  8-H ) :   0.9273
B(  6-C ,  9-C ) :   1.0598 B(  9-C , 10-H ) :   0.9596 B(  9-C , 11-H ) :   0.9519
B(  9-C , 12-C ) :   1.0821 B( 12-C , 13-H ) :   0.9748 B( 12-C , 14-H ) :   0.9732
B( 12-C , 15-H ) :   0.9738 B( 16-S , 17-C ) :   1.1623 B( 16-S , 20-C ) :   1.1130
B( 17-C , 18-C ) :   1.6163 B( 17-C , 20-C ) :   0.1017 B( 17-C , 33-H ) :   0.9609
B( 18-C , 19-C ) :   1.2169 B( 18-C , 21-H ) :   0.9876 B( 19-C , 20-C ) :   1.6319
B( 19-C , 22-C ) :   1.0292 B( 22-C , 23-H ) :   0.9262 B( 22-C , 24-H ) :   0.9390
B( 22-C , 25-C ) :   1.0489 B( 25-C , 26-H ) :   0.9594 B( 25-C , 27-H ) :   0.9521
B( 25-C , 28-C ) :   1.0891 B( 28-C , 29-H ) :   0.9720 B( 28-C , 30-H ) :   0.9718
B( 28-C , 31-H ) :   0.9755

Dispersion correction           -0.014124405
FINAL SINGLE POINT ENERGY     -1339.863441206091

DIPOLE MOMENT
-------------
                                X             Y             Z
Electronic contribution:    -19.13079      -5.12332     -13.66607
Nuclear contribution   :     19.64284       4.91338      14.09269
                        -----------------------------------------
Total Dipole Moment    :      0.51206      -0.20993       0.42662
                        -----------------------------------------
Magnitude (a.u.)       :      0.69877
Magnitude (Debye)      :      1.77613

Rotational constants in cm-1:     0.018383     0.007843     0.006702
Rotational constants in MHz :   551.118396   235.112614   200.935220

                             ****ORCA TERMINATED NORMALLY****
TOTAL RUN TIME: 0 days 0 hours 0 minutes 32 seconds 69 msec
