                         Program Version 4.2.1 -  RELEASE  -
|  1> ! wB97X-D3 SP def2-SVP
|  2> %pal
|  3> nprocs 16
|  4> end
|  5>
|  6> * xyz 0 1
|  7> S 	 -22.5664 	 36.6735 	 35.1121
|  8> C 	 -23.0353 	 36.0314 	 33.5114
|  9> C 	 -22.5469 	 34.7575 	 33.3366
| 10> C 	 -21.7366 	 34.3594 	 34.4376
| 11> C 	 -21.4889 	 35.2836 	 35.4271
| 12> H 	 -21.2356 	 33.3739 	 34.3983
| 13> C 	 -22.6729 	 33.954 	 32.0794
| 14> H 	 -23.4974 	 33.164 	 32.1983
| 15> H 	 -21.82 	 33.3286 	 31.9093
| 16> C 	 -22.8141 	 34.728 	 30.7703
| 17> H 	 -22.7918 	 34.0801 	 29.902
| 18> H 	 -23.7696 	 35.2848 	 30.7572
| 19> C 	 -21.6325 	 35.6477 	 30.5054
| 20> H 	 -21.5774 	 36.3336 	 31.3931
| 21> H 	 -20.614 	 35.1267 	 30.4378
| 22> H 	 -21.7508 	 36.205 	 29.6202
| 23> S 	 -20.704 	 33.3948 	 37.2826
| 24> C 	 -19.3928 	 33.8415 	 38.3955
| 25> C 	 -19.316 	 35.2395 	 38.451
| 26> C 	 -20.0771 	 35.9189 	 37.4367
| 27> C 	 -20.8129 	 35.025 	 36.6728
| 28> H 	 -18.6196 	 35.6913 	 39.1105
| 29> C 	 -20.0727 	 37.4675 	 37.3038
| 30> H 	 -19.6546 	 37.847 	 38.2424
| 31> H 	 -21.1639 	 37.8345 	 37.3696
| 32> C 	 -19.4211 	 38.0166 	 36.0232
| 33> H 	 -19.3631 	 39.0615 	 36.072
| 34> H 	 -19.9185 	 37.6317 	 35.1611
| 35> C 	 -17.9859 	 37.4826 	 35.7872
| 36> H 	 -17.6302 	 37.977 	 34.9663
| 37> H 	 -17.9313 	 36.418 	 35.6725
| 38> H 	 -17.3456 	 37.793 	 36.604
| 39> H 	 -23.4536 	 36.6203 	 32.7017
| 40> H 	 -18.9266 	 33.0091 	 38.9431
| 41> *
| 42>
| 43>                          ****END OF INPUT****

CARTESIAN COORDINATES (ANGSTROEM)
---------------------------------
  S    -22.566400   36.673500   35.112100
  C    -23.035300   36.031400   33.511400
  C    -22.546900   34.757500   33.336600
  C    -21.736600   34.359400   34.437600
  C    -21.488900   35.283600   35.427100
  H    -21.235600   33.373900   34.398300
  C    -22.672900   33.954000   32.079400
  H    -23.497400   33.164000   32.198300
  H    -21.820000   33.328600   31.909300
  C    -22.814100   34.728000   30.770300
  H    -22.791800   34.080100   29.902000
  H    -23.769600   35.284800   30.757200
  C    -21.632500   35.647700   30.505400
  H    -21.577400   36.333600   31.393100
  H    -20.614000   35.126700   30.437800
  H    -21.750800   36.205000   29.620200
  S    -20.704000   33.394800   37.282600
  C    -19.392800   33.841500   38.395500
  C    -19.316000   35.239500   38.451000
  C    -20.077100   35.918900   37.436700
  C    -20.812900   35.025000   36.672800
  H    -18.619600   35.691300   39.110500
  C    -20.072700   37.467500   37.303800
  H    -19.654600   37.847000   38.242400
  H    -21.163900   37.834500   37.369600
  C    -19.421100   38.016600   36.023200
  H    -19.363100   39.061500   36.072000
  H    -19.918500   37.631700   35.161100
  C    -17.985900   37.482600   35.787200
  H    -17.630200   37.977000   34.966300
  H    -17.931300   36.418000   35.672500
  H    -17.345600   37.793000   36.604000
  H    -23.453600   36.620300   32.701700
  H    -18.926600   33.009100   38.943100

 Total Charge           Charge          ....    0
 Multiplicity           Mult            ....    1
 Number of Electrons    NEL             ....  134
 Basis Dimension        Dim             ....  322

ORBITAL ENERGIES
----------------

  NO   OCC          E(Eh)            E(eV)
   0   2.0000     -88.966009     -2420.8882
   1   2.0000     -88.965766     -2420.8816
   2   2.0000     -10.332277      -281.1556
   3   2.0000     -10.326962      -281.0109
   4   2.0000     -10.325825      -280.9800
   5   2.0000     -10.317152      -280.7440
   6   2.0000     -10.306946      -280.4662
   7   2.0000     -10.301046      -280.3057
   8   2.0000     -10.300471      -280.2901
   9   2.0000     -10.300262      -280.2844
  10   2.0000     -10.296210      -280.1741
  11   2.0000     -10.294389      -280.1246
  12   2.0000     -10.289150      -279.9820
  13   2.0000     -10.278937      -279.7041
  14   2.0000     -10.275364      -279.6069
  15   2.0000     -10.259923      -279.1867
  16   2.0000      -8.080299      -219.8761
  17   2.0000      -8.078982      -219.8403
  18   2.0000      -6.038730      -164.3222
  19   2.0000      -6.037784      -164.2965
  20   2.0000      -6.034891      -164.2177
  21   2.0000      -6.033761      -164.1870
  22   2.0000      -6.031089      -164.1143
  23   2.0000      -6.029490      -164.0708
  24   2.0000      -1.004916       -27.3451
  25   2.0000      -0.981180       -26.6993
  26   2.0000      -0.916549       -24.9406
  27   2.0000      -0.903857       -24.5952
  28   2.0000      -0.869377       -23.6569
  29   2.0000      -0.849755       -23.1230
  30   2.0000      -0.842464       -22.9246
  31   2.0000      -0.809471       -22.0268
  32   2.0000      -0.783661       -21.3245
  33   2.0000      -0.776188       -21.1212
  34   2.0000      -0.709004       -19.2930
  35   2.0000      -0.701097       -19.0778
  36   2.0000      -0.688284       -18.7292
  37   2.0000      -0.669142       -18.2083
  38   2.0000      -0.630562       -17.1585
  39   2.0000      -0.609815       -16.5939
  40   2.0000      -0.593558       -16.1515
  41   2.0000      -0.581869       -15.8334
  42   2.0000      -0.562052       -15.2942
  43   2.0000      -0.556363       -15.1394
  44   2.0000      -0.543865       -14.7993
  45   2.0000      -0.536589       -14.6013
  46   2.0000      -0.520018       -14.1504
  47   2.0000      -0.506011       -13.7692
  48   2.0000      -0.499893       -13.6028
  49   2.0000      -0.497707       -13.5433
  50   2.0000      -0.484644       -13.1878
  51   2.0000      -0.478163       -13.0115
  52   2.0000      -0.470960       -12.8155
  53   2.0000      -0.465855       -12.6766
  54   2.0000      -0.461787       -12.5659
  55   2.0000      -0.446351       -12.1458
  56   2.0000      -0.442879       -12.0513
  57   2.0000      -0.436353       -11.8738
  58   2.0000      -0.429463       -11.6863
  59   2.0000      -0.424485       -11.5508
  60   2.0000      -0.419253       -11.4085
  61   2.0000      -0.411064       -11.1856
  62   2.0000      -0.407530       -11.0895
  63   2.0000      -0.351446        -9.5633
  64   2.0000      -0.332592        -9.0503
  65   2.0000      -0.328411        -8.9365
  66   2.0000      -0.287462        -7.8222
  67   0.0000       0.014037         0.3820
  68   0.0000       0.080002         2.1770
  69   0.0000       0.100150         2.7252
  70   0.0000       0.112031         3.0485
  71   0.0000       0.126578         3.4444

MULLIKEN ATOMIC CHARGES
-----------------------
   0 S :    0.078766
   1 C :   -0.123705
   2 C :   -0.086381
   3 C :   -0.030702
   4 C :   -0.109175
   5 H :    0.023542
   6 C :    0.067618
   7 H :    0.054426
   8 H :    0.014204
   9 C :   -0.094070
  10 H :    0.029014
  11 H :    0.036436
  12 C :   -0.071463
  13 H :    0.036899
  14 H :    0.039339
  15 H :    0.030592
  16 S :    0.098424
  17 C :   -0.131055
  18 C :    0.005952
  19 C :   -0.076604
  20 C :   -0.111432
  21 H :    0.013114
  22 C :    0.033116
  23 H :    0.017947
  24 H :    0.052853
  25 C :   -0.033660
  26 H :    0.022843
  27 H :    0.039039
  28 C :   -0.028288
  29 H :    0.009908
  30 H :    0.043756
  31 H :    0.012693
  32 H :    0.057914
  33 H :    0.078139
Sum of atomic charges:   -0.0000000

LOEWDIN ATOMIC CHARGES
----------------------
   0 S :    0.384206
   1 C :   -0.184190
   2 C :   -0.065678
   3 C :   -0.070074
   4 C :   -0.176970
   5 H :    0.030987
   6 C :   -0.036862
   7 H :    0.045597
   8 H :    0.026976
   9 C :   -0.046394
  10 H :    0.026979
  11 H :    0.023727
  12 C :   -0.070692
  13 H :    0.027186
  14 H :    0.033272
  15 H :    0.017856
  16 S :    0.402162
  17 C :   -0.176247
  18 C :   -0.063731
  19 C :   -0.054199
  20 C :   -0.200017
  21 H :    0.025678
  22 C :   -0.037116
  23 H :    0.028406
  24 H :    0.036104
  25 C :   -0.031109
  26 H :    0.019301
  27 H :    0.017243
  28 C :   -0.052837
  29 H :    0.013605
  30 H :    0.024712
  31 H :    0.019036
  32 H :    0.028943
  33 H :    0.034137

  Mayer bond orders larger than 0.100000
B(  0-S ,  1-C ) :   1.1229 B(  0-S ,  4-C ) :   1.1176 B(  1-C ,  2-C ) :   1.6190
B(  1-C , 32-H ) :   0.9555 B(  2-C ,  3-C ) :   1.2589 B(  2-C ,  6-C ) :   1.0145
B(  3-C ,  4-C ) :   1.5635 B(  3-C ,  5-H ) :   0.9845 B(  4-C , 20-C ) :   1.0881
B(  6-C ,  7-H ) :   0.9273 B(  6-C ,  8-H ) :   0.9456 B(  6-C ,  9-C ) :   1.0790
B(  9-C , 10-H ) :   0.9536 B(  9-C , 11-H ) :   0.9497 B(  9-C , 12-C ) :   1.0778
B( 12-C , 13-H ) :   0.9722 B( 12-C , 14-H ) :   0.9718 B( 12-C , 15-H ) :   0.9737
B( 16-S , 17-C ) :   1.1569 B( 16-S , 20-C ) :   1.1421 B( 17-C , 18-C ) :   1.5663
B( 17-C , 33-H ) :   0.9715 B( 18-C , 19-C ) :   1.2613 B( 18-C , 21-H ) :   0.9951
B( 19-C , 20-C ) :   1.5511 B( 19-C , 22-C ) :   1.0190 B( 22-C , 23-H ) :   0.9375
B( 22-C , 24-H ) :   0.9432 B( 22-C , 25-C ) :   1.0628 B( 25-C , 26-H ) :   0.9556
B( 25-C , 27-H ) :   0.9535 B( 25-C , 28-C ) :   1.0819 B( 28-C , 29-H ) :   0.9730
B( 28-C , 30-H ) :   0.9734 B( 28-C , 31-H ) :   0.9759

Dispersion correction           -0.015251818
FINAL SINGLE POINT ENERGY     -1339.874079504958

DIPOLE MOMENT
-------------
                                X             Y             Z
Electronic contribution:     -7.68838      -8.22817      17.68261
Nuclear contribution   :      8.00904       8.19848     -17.99693
                        -----------------------------------------
Total Dipole Moment    :      0.32067      -0.02969      -0.31432
                        -----------------------------------------
Magnitude (a.u.)       :      0.45001
Magnitude (Debye)      :      1.14383

Rotational constants in cm-1:     0.021844     0.008670     0.007381
Rotational constants in MHz :   654.866254   259.916298   221.289499

                             ****ORCA TERMINATED NORMALLY****
TOTAL RUN TIME: 0 days 0 hours 0 minutes 34 seconds 859 msec
