                         Program Version 4.2.1 -  RELEASE  -
|  1> ! wB97X-D3 SP def2-SVP
|  2> %pal
|  3> nprocs 16
|  4> end
|  5>
|  6> * xyz 0 1
|  7> S 	 -51.312 	 7.02267 	 92.544
|  8> C 	 -50.419 	 6.47431 	 93.9429
|  9> C 	 -49.2041 	 7.08486 	 94.0593
| 10> C 	 -48.8786 	 7.90708 	 92.8902
| 11> C 	 -49.8769 	 7.92471 	 91.9522
| 12> H 	 -48.0281 	 8.53082 	 92.8506
| 13> C 	 -48.137 	 7.04031 	 95.1401
| 14> H 	 -47.8633 	 8.11061 	 95.3078
| 15> H 	 -47.2981 	 6.5836 	 94.758
| 16> C 	 -48.6192 	 6.41192 	 96.4809
| 17> H 	 -47.8266 	 6.70441 	 97.1685
| 18> H 	 -49.5115 	 6.81045 	 96.9487
| 19> C 	 -48.6814 	 4.83931 	 96.5035
| 20> H 	 -48.6189 	 4.51629 	 97.5111
| 21> H 	 -49.6122 	 4.47098 	 96.1488
| 22> H 	 -47.9081 	 4.39741 	 95.9062
| 23> S 	 -49.6615 	 7.75865 	 89.2575
| 24> C 	 -49.9009 	 9.19839 	 88.3612
| 25> C 	 -50.0354 	 10.3133 	 89.1412
| 26> C 	 -49.9609 	 10.046 	 90.5188
| 27> C 	 -49.877 	 8.67194 	 90.7126
| 28> H 	 -50.2432 	 11.3372 	 88.6866
| 29> C 	 -50.1161 	 11.0533 	 91.6237
| 30> H 	 -49.1386 	 11.2364 	 92.0919
| 31> H 	 -50.7346 	 10.6266 	 92.4718
| 32> C 	 -50.8485 	 12.362 	 91.2591
| 33> H 	 -50.9627 	 12.9342 	 92.1939
| 34> H 	 -51.7556 	 12.0802 	 90.788
| 35> C 	 -49.9742 	 13.3819 	 90.4752
| 36> H 	 -49.5604 	 13.112 	 89.5144
| 37> H 	 -49.061 	 13.6254 	 91.0493
| 38> H 	 -50.3885 	 14.3074 	 90.2477
| 39> H 	 -50.7531 	 5.8051 	 94.769
| 40> H 	 -49.8779 	 9.26602 	 87.3143
| 41> *
| 42>
| 43>                          ****END OF INPUT****

CARTESIAN COORDINATES (ANGSTROEM)
---------------------------------
  S    -51.312000    7.022670   92.544000
  C    -50.419000    6.474310   93.942900
  C    -49.204100    7.084860   94.059300
  C    -48.878600    7.907080   92.890200
  C    -49.876900    7.924710   91.952200
  H    -48.028100    8.530820   92.850600
  C    -48.137000    7.040310   95.140100
  H    -47.863300    8.110610   95.307800
  H    -47.298100    6.583600   94.758000
  C    -48.619200    6.411920   96.480900
  H    -47.826600    6.704410   97.168500
  H    -49.511500    6.810450   96.948700
  C    -48.681400    4.839310   96.503500
  H    -48.618900    4.516290   97.511100
  H    -49.612200    4.470980   96.148800
  H    -47.908100    4.397410   95.906200
  S    -49.661500    7.758650   89.257500
  C    -49.900900    9.198390   88.361200
  C    -50.035400   10.313300   89.141200
  C    -49.960900   10.046000   90.518800
  C    -49.877000    8.671940   90.712600
  H    -50.243200   11.337200   88.686600
  C    -50.116100   11.053300   91.623700
  H    -49.138600   11.236400   92.091900
  H    -50.734600   10.626600   92.471800
  C    -50.848500   12.362000   91.259100
  H    -50.962700   12.934200   92.193900
  H    -51.755600   12.080200   90.788000
  C    -49.974200   13.381900   90.475200
  H    -49.560400   13.112000   89.514400
  H    -49.061000   13.625400   91.049300
  H    -50.388500   14.307400   90.247700
  H    -50.753100    5.805100   94.769000
  H    -49.877900    9.266020   87.314300

 Total Charge           Charge          ....    0
 Multiplicity           Mult            ....    1
 Number of Electrons    NEL             ....  134
 Basis Dimension        Dim             ....  322

ORBITAL ENERGIES
----------------

  NO   OCC          E(Eh)            E(eV)
   0   2.0000     -88.965751     -2420.8811
   1   2.0000     -88.962089     -2420.7815
   2   2.0000     -10.324847      -280.9534
   3   2.0000     -10.316723      -280.7323
   4   2.0000     -10.311542      -280.5913
   5   2.0000     -10.306345      -280.4499
   6   2.0000     -10.299187      -280.2551
   7   2.0000     -10.295161      -280.1456
   8   2.0000     -10.295123      -280.1445
   9   2.0000     -10.293035      -280.0877
  10   2.0000     -10.291282      -280.0400
  11   2.0000     -10.290873      -280.0289
  12   2.0000     -10.289939      -280.0035
  13   2.0000     -10.287889      -279.9477
  14   2.0000     -10.274077      -279.5718
  15   2.0000     -10.273521      -279.5567
  16   2.0000      -8.081472      -219.9080
  17   2.0000      -8.076126      -219.7626
  18   2.0000      -6.039711      -164.3489
  19   2.0000      -6.035934      -164.2461
  20   2.0000      -6.034856      -164.2168
  21   2.0000      -6.032376      -164.1493
  22   2.0000      -6.030891      -164.1089
  23   2.0000      -6.026536      -163.9904
  24   2.0000      -1.008376       -27.4393
  25   2.0000      -0.980975       -26.6937
  26   2.0000      -0.909804       -24.7570
  27   2.0000      -0.906450       -24.6658
  28   2.0000      -0.866464       -23.5777
  29   2.0000      -0.850985       -23.1565
  30   2.0000      -0.845617       -23.0104
  31   2.0000      -0.810770       -22.0622
  32   2.0000      -0.787932       -21.4407
  33   2.0000      -0.776470       -21.1288
  34   2.0000      -0.711015       -19.3477
  35   2.0000      -0.707371       -19.2485
  36   2.0000      -0.695770       -18.9329
  37   2.0000      -0.653198       -17.7744
  38   2.0000      -0.634079       -17.2542
  39   2.0000      -0.612504       -16.6671
  40   2.0000      -0.602926       -16.4064
  41   2.0000      -0.572658       -15.5828
  42   2.0000      -0.556742       -15.1497
  43   2.0000      -0.547511       -14.8985
  44   2.0000      -0.530727       -14.4418
  45   2.0000      -0.528660       -14.3856
  46   2.0000      -0.523524       -14.2458
  47   2.0000      -0.511538       -13.9197
  48   2.0000      -0.502965       -13.6864
  49   2.0000      -0.494480       -13.4555
  50   2.0000      -0.488531       -13.2936
  51   2.0000      -0.483264       -13.1503
  52   2.0000      -0.476435       -12.9645
  53   2.0000      -0.468085       -12.7372
  54   2.0000      -0.460381       -12.5276
  55   2.0000      -0.447598       -12.1798
  56   2.0000      -0.440859       -11.9964
  57   2.0000      -0.439914       -11.9707
  58   2.0000      -0.437700       -11.9104
  59   2.0000      -0.425500       -11.5784
  60   2.0000      -0.422765       -11.5040
  61   2.0000      -0.421253       -11.4629
  62   2.0000      -0.405742       -11.0408
  63   2.0000      -0.337496        -9.1837
  64   2.0000      -0.327412        -8.9093
  65   2.0000      -0.319251        -8.6873
  66   2.0000      -0.303449        -8.2573
  67   0.0000       0.043130         1.1736
  68   0.0000       0.065680         1.7873
  69   0.0000       0.111131         3.0240
  70   0.0000       0.126306         3.4370
  71   0.0000       0.133494         3.6325

MULLIKEN ATOMIC CHARGES
-----------------------
   0 S :    0.107160
   1 C :   -0.131670
   2 C :   -0.101057
   3 C :    0.046777
   4 C :   -0.156621
   5 H :   -0.001555
   6 C :    0.081112
   7 H :    0.038269
   8 H :    0.022351
   9 C :   -0.089504
  10 H :    0.022940
  11 H :    0.032375
  12 C :   -0.018943
  13 H :    0.026311
  14 H :    0.017115
  15 H :    0.030189
  16 S :    0.139756
  17 C :   -0.057896
  18 C :   -0.082337
  19 C :    0.014350
  20 C :   -0.218218
  21 H :    0.042374
  22 C :    0.044964
  23 H :    0.031379
  24 H :    0.050175
  25 C :   -0.049758
  26 H :    0.038938
  27 H :    0.037958
  28 C :   -0.043803
  29 H :    0.011733
  30 H :    0.018993
  31 H :    0.016463
  32 H :    0.051197
  33 H :    0.028483
Sum of atomic charges:   -0.0000000

LOEWDIN ATOMIC CHARGES
----------------------
   0 S :    0.378126
   1 C :   -0.210808
   2 C :   -0.064922
   3 C :   -0.051068
   4 C :   -0.183413
   5 H :    0.023640
   6 C :   -0.023674
   7 H :    0.040208
   8 H :    0.022607
   9 C :   -0.041923
  10 H :    0.025703
  11 H :    0.024393
  12 C :   -0.055309
  13 H :    0.023751
  14 H :    0.015366
  15 H :    0.024635
  16 S :    0.440065
  17 C :   -0.191210
  18 C :   -0.081756
  19 C :   -0.054025
  20 C :   -0.214120
  21 H :    0.043539
  22 C :   -0.035628
  23 H :    0.032466
  24 H :    0.043957
  25 C :   -0.032834
  26 H :    0.036551
  27 H :    0.021897
  28 C :   -0.072093
  29 H :    0.015965
  30 H :    0.029231
  31 H :    0.016319
  32 H :    0.036790
  33 H :    0.017575

  Mayer bond orders larger than 0.100000
B(  0-S ,  1-C ) :   1.1082 B(  0-S ,  4-C ) :   1.1208 B(  1-C ,  2-C ) :   1.6834
B(  1-C , 32-H ) :   0.9515 B(  2-C ,  3-C ) :   1.2011 B(  2-C ,  6-C ) :   1.0003
B(  3-C ,  4-C ) :   1.6245 B(  3-C ,  5-H ) :   1.0023 B(  4-C , 20-C ) :   1.0278
B(  6-C ,  7-H ) :   0.9420 B(  6-C ,  8-H ) :   0.9377 B(  6-C ,  9-C ) :   1.0740
B(  9-C , 10-H ) :   0.9560 B(  9-C , 11-H ) :   0.9611 B(  9-C , 12-C ) :   1.0670
B( 12-C , 13-H ) :   0.9737 B( 12-C , 14-H ) :   0.9783 B( 12-C , 15-H ) :   0.9762
B( 16-S , 17-C ) :   1.1643 B( 16-S , 20-C ) :   1.1729 B( 17-C , 18-C ) :   1.6040
B( 17-C , 20-C ) :   0.1017 B( 17-C , 33-H ) :   0.9680 B( 18-C , 19-C ) :   1.2684
B( 18-C , 21-H ) :   0.9694 B( 19-C , 20-C ) :   1.5777 B( 19-C , 22-C ) :   1.0345
B( 22-C , 23-H ) :   0.9231 B( 22-C , 24-H ) :   0.9326 B( 22-C , 25-C ) :   1.0812
B( 25-C , 26-H ) :   0.9524 B( 25-C , 27-H ) :   0.9606 B( 25-C , 28-C ) :   1.0591
B( 28-C , 29-H ) :   0.9753 B( 28-C , 30-H ) :   0.9700 B( 28-C , 31-H ) :   0.9745

Dispersion correction           -0.014283275
FINAL SINGLE POINT ENERGY     -1339.870493371956

DIPOLE MOMENT
-------------
                                X             Y             Z
Electronic contribution:     -6.79111     -11.33702     -17.44897
Nuclear contribution   :      7.16049      11.82130      17.88606
                        -----------------------------------------
Total Dipole Moment    :      0.36938       0.48429       0.43709
                        -----------------------------------------
Magnitude (a.u.)       :      0.74968
Magnitude (Debye)      :      1.90554

Rotational constants in cm-1:     0.023658     0.007113     0.006121
Rotational constants in MHz :   709.235846   213.243830   183.492700

                             ****ORCA TERMINATED NORMALLY****
TOTAL RUN TIME: 0 days 0 hours 0 minutes 29 seconds 360 msec
