                         Program Version 4.2.1 -  RELEASE  -
|  1> ! wB97X-D3 SP def2-SVP
|  2> %pal
|  3> nprocs 16
|  4> end
|  5>
|  6> * xyz 0 1
|  7> S 	 -99.0704 	 42.9793 	 120.053
|  8> C 	 -98.814 	 44.149 	 121.279
|  9> C 	 -97.515 	 44.6849 	 121.268
| 10> C 	 -96.7613 	 43.9828 	 120.287
| 11> C 	 -97.4068 	 42.9842 	 119.582
| 12> H 	 -95.6989 	 44.1677 	 120.098
| 13> C 	 -96.8705 	 45.6824 	 122.173
| 14> H 	 -96.0116 	 45.163 	 122.659
| 15> H 	 -97.4373 	 45.8491 	 123.092
| 16> C 	 -96.5064 	 47.0988 	 121.617
| 17> H 	 -97.2013 	 47.33 	 120.851
| 18> H 	 -96.6149 	 47.7999 	 122.418
| 19> C 	 -95.0132 	 47.267 	 121.017
| 20> H 	 -94.9724 	 47.9834 	 120.201
| 21> H 	 -94.3008 	 47.6751 	 121.76
| 22> H 	 -94.7866 	 46.252 	 120.656
| 23> S 	 -96.8902 	 40.5078 	 118.638
| 24> C 	 -96.0546 	 40.2084 	 117.122
| 25> C 	 -95.606 	 41.476 	 116.665
| 26> C 	 -96.0584 	 42.6141 	 117.386
| 27> C 	 -96.9048 	 42.2714 	 118.433
| 28> H 	 -95.0114 	 41.6488 	 115.723
| 29> C 	 -95.8414 	 44.0436 	 116.811
| 30> H 	 -96.5214 	 44.767 	 117.294
| 31> H 	 -96.0683 	 44.0485 	 115.825
| 32> C 	 -94.4168 	 44.742 	 117.165
| 33> H 	 -94.3922 	 44.76 	 118.227
| 34> H 	 -94.4876 	 45.8194 	 116.837
| 35> C 	 -93.2096 	 44.0203 	 116.621
| 36> H 	 -93.233 	 44.1415 	 115.612
| 37> H 	 -93.2311 	 42.9085 	 116.898
| 38> H 	 -92.2415 	 44.4522 	 116.998
| 39> H 	 -99.5981 	 44.5469 	 121.976
| 40> H 	 -96.1007 	 39.2626 	 116.601
| 41> *
| 42>
| 43>                          ****END OF INPUT****

CARTESIAN COORDINATES (ANGSTROEM)
---------------------------------
  S    -99.070400   42.979300  120.053000
  C    -98.814000   44.149000  121.279000
  C    -97.515000   44.684900  121.268000
  C    -96.761300   43.982800  120.287000
  C    -97.406800   42.984200  119.582000
  H    -95.698900   44.167700  120.098000
  C    -96.870500   45.682400  122.173000
  H    -96.011600   45.163000  122.659000
  H    -97.437300   45.849100  123.092000
  C    -96.506400   47.098800  121.617000
  H    -97.201300   47.330000  120.851000
  H    -96.614900   47.799900  122.418000
  C    -95.013200   47.267000  121.017000
  H    -94.972400   47.983400  120.201000
  H    -94.300800   47.675100  121.760000
  H    -94.786600   46.252000  120.656000
  S    -96.890200   40.507800  118.638000
  C    -96.054600   40.208400  117.122000
  C    -95.606000   41.476000  116.665000
  C    -96.058400   42.614100  117.386000
  C    -96.904800   42.271400  118.433000
  H    -95.011400   41.648800  115.723000
  C    -95.841400   44.043600  116.811000
  H    -96.521400   44.767000  117.294000
  H    -96.068300   44.048500  115.825000
  C    -94.416800   44.742000  117.165000
  H    -94.392200   44.760000  118.227000
  H    -94.487600   45.819400  116.837000
  C    -93.209600   44.020300  116.621000
  H    -93.233000   44.141500  115.612000
  H    -93.231100   42.908500  116.898000
  H    -92.241500   44.452200  116.998000
  H    -99.598100   44.546900  121.976000
  H    -96.100700   39.262600  116.601000

 Total Charge           Charge          ....    0
 Multiplicity           Mult            ....    1
 Number of Electrons    NEL             ....  134
 Basis Dimension        Dim             ....  322

ORBITAL ENERGIES
----------------

  NO   OCC          E(Eh)            E(eV)
   0   2.0000     -88.969182     -2420.9745
   1   2.0000     -88.961422     -2420.7634
   2   2.0000     -10.328602      -281.0555
   3   2.0000     -10.325112      -280.9606
   4   2.0000     -10.324767      -280.9512
   5   2.0000     -10.320827      -280.8440
   6   2.0000     -10.307472      -280.4806
   7   2.0000     -10.303352      -280.3685
   8   2.0000     -10.303163      -280.3633
   9   2.0000     -10.297351      -280.2052
  10   2.0000     -10.293662      -280.1048
  11   2.0000     -10.292383      -280.0700
  12   2.0000     -10.291697      -280.0513
  13   2.0000     -10.290716      -280.0246
  14   2.0000     -10.287136      -279.9272
  15   2.0000     -10.276363      -279.6340
  16   2.0000      -8.084714      -219.9963
  17   2.0000      -8.075979      -219.7586
  18   2.0000      -6.043049      -164.4397
  19   2.0000      -6.039027      -164.3303
  20   2.0000      -6.035673      -164.2390
  21   2.0000      -6.034478      -164.2065
  22   2.0000      -6.030358      -164.0944
  23   2.0000      -6.026887      -163.9999
  24   2.0000      -1.009927       -27.4815
  25   2.0000      -0.983757       -26.7694
  26   2.0000      -0.907452       -24.6930
  27   2.0000      -0.900295       -24.4983
  28   2.0000      -0.867917       -23.6172
  29   2.0000      -0.849727       -23.1222
  30   2.0000      -0.844642       -22.9839
  31   2.0000      -0.808535       -22.0014
  32   2.0000      -0.784643       -21.3512
  33   2.0000      -0.774685       -21.0803
  34   2.0000      -0.707760       -19.2591
  35   2.0000      -0.702282       -19.1101
  36   2.0000      -0.691221       -18.8091
  37   2.0000      -0.664291       -18.0763
  38   2.0000      -0.641860       -17.4659
  39   2.0000      -0.620449       -16.8833
  40   2.0000      -0.596285       -16.2257
  41   2.0000      -0.568123       -15.4594
  42   2.0000      -0.554626       -15.0921
  43   2.0000      -0.546258       -14.8644
  44   2.0000      -0.533246       -14.5104
  45   2.0000      -0.530709       -14.4413
  46   2.0000      -0.521333       -14.1862
  47   2.0000      -0.510327       -13.8867
  48   2.0000      -0.505768       -13.7627
  49   2.0000      -0.497504       -13.5378
  50   2.0000      -0.493737       -13.4353
  51   2.0000      -0.483746       -13.1634
  52   2.0000      -0.480804       -13.0833
  53   2.0000      -0.464070       -12.6280
  54   2.0000      -0.456341       -12.4177
  55   2.0000      -0.444758       -12.1025
  56   2.0000      -0.435479       -11.8500
  57   2.0000      -0.435119       -11.8402
  58   2.0000      -0.432102       -11.7581
  59   2.0000      -0.429402       -11.6846
  60   2.0000      -0.423677       -11.5288
  61   2.0000      -0.411932       -11.2092
  62   2.0000      -0.408385       -11.1127
  63   2.0000      -0.341021        -9.2796
  64   2.0000      -0.333857        -9.0847
  65   2.0000      -0.327944        -8.9238
  66   2.0000      -0.297053        -8.0832
  67   0.0000       0.023088         0.6283
  68   0.0000       0.067644         1.8407
  69   0.0000       0.113440         3.0868
  70   0.0000       0.119180         3.2431
  71   0.0000       0.126450         3.4409

MULLIKEN ATOMIC CHARGES
-----------------------
   0 S :    0.134197
   1 C :   -0.128627
   2 C :   -0.070097
   3 C :    0.006896
   4 C :   -0.138005
   5 H :    0.008740
   6 C :    0.011449
   7 H :    0.041692
   8 H :    0.013653
   9 C :   -0.039921
  10 H :    0.030150
  11 H :    0.027508
  12 C :   -0.073341
  13 H :    0.034591
  14 H :    0.044827
  15 H :    0.033807
  16 S :    0.084094
  17 C :   -0.094269
  18 C :   -0.057320
  19 C :   -0.032179
  20 C :   -0.155890
  21 H :    0.039752
  22 C :    0.060480
  23 H :    0.032774
  24 H :    0.013058
  25 C :   -0.080443
  26 H :    0.012815
  27 H :    0.039503
  28 C :   -0.045714
  29 H :    0.012876
  30 H :    0.052955
  31 H :    0.039904
  32 H :    0.065195
  33 H :    0.074890
Sum of atomic charges:    0.0000000

LOEWDIN ATOMIC CHARGES
----------------------
   0 S :    0.441010
   1 C :   -0.210297
   2 C :   -0.071553
   3 C :   -0.057483
   4 C :   -0.221386
   5 H :    0.027383
   6 C :   -0.044753
   7 H :    0.040396
   8 H :    0.032721
   9 C :   -0.028487
  10 H :    0.021670
  11 H :    0.021492
  12 C :   -0.068006
  13 H :    0.024163
  14 H :    0.029486
  15 H :    0.022632
  16 S :    0.396990
  17 C :   -0.187247
  18 C :   -0.077094
  19 C :   -0.060845
  20 C :   -0.189484
  21 H :    0.036597
  22 C :   -0.016196
  23 H :    0.036999
  24 H :    0.011807
  25 C :   -0.034112
  26 H :    0.011640
  27 H :    0.029965
  28 C :   -0.070063
  29 H :    0.008659
  30 H :    0.037900
  31 H :    0.032551
  32 H :    0.039396
  33 H :    0.033548

  Mayer bond orders larger than 0.100000
B(  0-S ,  1-C ) :   1.1748 B(  0-S ,  4-C ) :   1.1559 B(  1-C ,  2-C ) :   1.5690
B(  1-C , 32-H ) :   0.9580 B(  2-C ,  3-C ) :   1.2750 B(  2-C ,  6-C ) :   1.0338
B(  3-C ,  4-C ) :   1.5582 B(  3-C ,  5-H ) :   0.9930 B(  4-C , 20-C ) :   1.0119
B(  6-C ,  7-H ) :   0.9458 B(  6-C ,  8-H ) :   0.9402 B(  6-C ,  9-C ) :   1.0512
B(  9-C , 10-H ) :   0.9633 B(  9-C , 11-H ) :   0.9641 B(  9-C , 12-C ) :   1.0570
B( 12-C , 13-H ) :   0.9788 B( 12-C , 14-H ) :   0.9779 B( 12-C , 15-H ) :   0.9823
B( 16-S , 17-C ) :   1.1651 B( 16-S , 20-C ) :   1.1537 B( 17-C , 18-C ) :   1.5465
B( 17-C , 20-C ) :   0.1193 B( 17-C , 33-H ) :   0.9749 B( 18-C , 19-C ) :   1.2747
B( 18-C , 21-H ) :   0.9723 B( 19-C , 20-C ) :   1.5825 B( 19-C , 22-C ) :   1.0201
B( 22-C , 23-H ) :   0.9431 B( 22-C , 24-H ) :   0.9515 B( 22-C , 25-C ) :   1.0548
B( 25-C , 26-H ) :   0.9559 B( 25-C , 27-H ) :   0.9556 B( 25-C , 28-C ) :   1.0848
B( 28-C , 29-H ) :   0.9766 B( 28-C , 30-H ) :   0.9672 B( 28-C , 31-H ) :   0.9704

Dispersion correction           -0.015129543
FINAL SINGLE POINT ENERGY     -1339.858487936144

DIPOLE MOMENT
-------------
                                X             Y             Z
Electronic contribution:    -19.54299     -24.24147       1.10107
Nuclear contribution   :     19.83604      24.90769      -1.15751
                        -----------------------------------------
Total Dipole Moment    :      0.29305       0.66622      -0.05644
                        -----------------------------------------
Magnitude (a.u.)       :      0.73001
Magnitude (Debye)      :      1.85554

Rotational constants in cm-1:     0.016754     0.010370     0.006940
Rotational constants in MHz :   502.280453   310.872985   208.055212

                             ****ORCA TERMINATED NORMALLY****
TOTAL RUN TIME: 0 days 0 hours 0 minutes 35 seconds 80 msec
