                         Program Version 4.2.1 -  RELEASE  -
|  1> ! wB97X-D3 SP def2-SVP
|  2> %pal
|  3> nprocs 16
|  4> end
|  5>
|  6> * xyz 0 1
|  7> S 	 -44.2007 	 15.1454 	 78.008
|  8> C 	 -42.738 	 16.1007 	 78.1949
|  9> C 	 -41.6317 	 15.3518 	 77.8903
| 10> C 	 -41.9678 	 14.0372 	 77.4399
| 11> C 	 -43.3322 	 13.7447 	 77.4741
| 12> H 	 -41.2968 	 13.3287 	 76.9611
| 13> C 	 -40.2199 	 15.847 	 77.9081
| 14> H 	 -40.2192 	 16.8573 	 78.3563
| 15> H 	 -39.9164 	 15.9494 	 76.8963
| 16> C 	 -39.1672 	 14.9494 	 78.6612
| 17> H 	 -39.6353 	 14.5642 	 79.5966
| 18> H 	 -39.035 	 14.0575 	 78.0519
| 19> C 	 -37.8769 	 15.7461 	 79.0094
| 20> H 	 -38.0513 	 16.5663 	 79.6798
| 21> H 	 -37.1225 	 15.167 	 79.6225
| 22> H 	 -37.4924 	 16.3579 	 78.1844
| 23> S 	 -45.0045 	 12.8176 	 75.4681
| 24> C 	 -45.0035 	 11.0836 	 75.1169
| 25> C 	 -44.5277 	 10.3673 	 76.2046
| 26> C 	 -43.7635 	 11.1843 	 77.1299
| 27> C 	 -43.9682 	 12.5773 	 76.911
| 28> H 	 -44.9074 	 9.35924 	 76.173
| 29> C 	 -42.9179 	 10.558 	 78.2192
| 30> H 	 -43.3785 	 9.74359 	 78.7273
| 31> H 	 -42.8549 	 11.2709 	 78.9689
| 32> C 	 -41.5647 	 10.1346 	 77.7475
| 33> H 	 -41.052 	 10.8474 	 77.0515
| 34> H 	 -41.7158 	 9.20866 	 77.2258
| 35> C 	 -40.5271 	 9.77607 	 78.8507
| 36> H 	 -40.8498 	 8.72685 	 79.2161
| 37> H 	 -40.4848 	 10.5748 	 79.6302
| 38> H 	 -39.4879 	 9.69444 	 78.5527
| 39> H 	 -42.8136 	 17.1934 	 78.3024
| 40> H 	 -45.6627 	 10.4917 	 74.4141
| 41> *
| 42>
| 43>                          ****END OF INPUT****

CARTESIAN COORDINATES (ANGSTROEM)
---------------------------------
  S    -44.200700   15.145400   78.008000
  C    -42.738000   16.100700   78.194900
  C    -41.631700   15.351800   77.890300
  C    -41.967800   14.037200   77.439900
  C    -43.332200   13.744700   77.474100
  H    -41.296800   13.328700   76.961100
  C    -40.219900   15.847000   77.908100
  H    -40.219200   16.857300   78.356300
  H    -39.916400   15.949400   76.896300
  C    -39.167200   14.949400   78.661200
  H    -39.635300   14.564200   79.596600
  H    -39.035000   14.057500   78.051900
  C    -37.876900   15.746100   79.009400
  H    -38.051300   16.566300   79.679800
  H    -37.122500   15.167000   79.622500
  H    -37.492400   16.357900   78.184400
  S    -45.004500   12.817600   75.468100
  C    -45.003500   11.083600   75.116900
  C    -44.527700   10.367300   76.204600
  C    -43.763500   11.184300   77.129900
  C    -43.968200   12.577300   76.911000
  H    -44.907400    9.359240   76.173000
  C    -42.917900   10.558000   78.219200
  H    -43.378500    9.743590   78.727300
  H    -42.854900   11.270900   78.968900
  C    -41.564700   10.134600   77.747500
  H    -41.052000   10.847400   77.051500
  H    -41.715800    9.208660   77.225800
  C    -40.527100    9.776070   78.850700
  H    -40.849800    8.726850   79.216100
  H    -40.484800   10.574800   79.630200
  H    -39.487900    9.694440   78.552700
  H    -42.813600   17.193400   78.302400
  H    -45.662700   10.491700   74.414100

 Total Charge           Charge          ....    0
 Multiplicity           Mult            ....    1
 Number of Electrons    NEL             ....  134
 Basis Dimension        Dim             ....  322

ORBITAL ENERGIES
----------------

  NO   OCC          E(Eh)            E(eV)
   0   2.0000     -88.966771     -2420.9089
   1   2.0000     -88.964567     -2420.8489
   2   2.0000     -10.335118      -281.2329
   3   2.0000     -10.329745      -281.0866
   4   2.0000     -10.321615      -280.8654
   5   2.0000     -10.316361      -280.7225
   6   2.0000     -10.315571      -280.7010
   7   2.0000     -10.301954      -280.3304
   8   2.0000     -10.296329      -280.1773
   9   2.0000     -10.296156      -280.1726
  10   2.0000     -10.295719      -280.1608
  11   2.0000     -10.291856      -280.0556
  12   2.0000     -10.287596      -279.9397
  13   2.0000     -10.286196      -279.9016
  14   2.0000     -10.285480      -279.8821
  15   2.0000     -10.281844      -279.7832
  16   2.0000      -8.080355      -219.8776
  17   2.0000      -8.079731      -219.8607
  18   2.0000      -6.039080      -164.3317
  19   2.0000      -6.038197      -164.3077
  20   2.0000      -6.035090      -164.2231
  21   2.0000      -6.034118      -164.1967
  22   2.0000      -6.030849      -164.1077
  23   2.0000      -6.030565      -164.1000
  24   2.0000      -1.005028       -27.3482
  25   2.0000      -0.979684       -26.6586
  26   2.0000      -0.913171       -24.8486
  27   2.0000      -0.909085       -24.7375
  28   2.0000      -0.870515       -23.6879
  29   2.0000      -0.847103       -23.0509
  30   2.0000      -0.842707       -22.9312
  31   2.0000      -0.815424       -22.1888
  32   2.0000      -0.783115       -21.3096
  33   2.0000      -0.771662       -20.9980
  34   2.0000      -0.714678       -19.4474
  35   2.0000      -0.699062       -19.0224
  36   2.0000      -0.692763       -18.8510
  37   2.0000      -0.653651       -17.7868
  38   2.0000      -0.641110       -17.4455
  39   2.0000      -0.621204       -16.9038
  40   2.0000      -0.591760       -16.1026
  41   2.0000      -0.574026       -15.6200
  42   2.0000      -0.567524       -15.4431
  43   2.0000      -0.555676       -15.1207
  44   2.0000      -0.527283       -14.3481
  45   2.0000      -0.523934       -14.2570
  46   2.0000      -0.514250       -13.9935
  47   2.0000      -0.511943       -13.9307
  48   2.0000      -0.507582       -13.8120
  49   2.0000      -0.497717       -13.5436
  50   2.0000      -0.493042       -13.4164
  51   2.0000      -0.484020       -13.1709
  52   2.0000      -0.472597       -12.8600
  53   2.0000      -0.469890       -12.7864
  54   2.0000      -0.452139       -12.3033
  55   2.0000      -0.444143       -12.0857
  56   2.0000      -0.441479       -12.0133
  57   2.0000      -0.436701       -11.8832
  58   2.0000      -0.431379       -11.7384
  59   2.0000      -0.426891       -11.6163
  60   2.0000      -0.417460       -11.3597
  61   2.0000      -0.414086       -11.2679
  62   2.0000      -0.412190       -11.2163
  63   2.0000      -0.343100        -9.3362
  64   2.0000      -0.329836        -8.9753
  65   2.0000      -0.325820        -8.8660
  66   2.0000      -0.296504        -8.0683
  67   0.0000       0.026190         0.7127
  68   0.0000       0.062148         1.6911
  69   0.0000       0.107387         2.9221
  70   0.0000       0.122225         3.3259
  71   0.0000       0.126173         3.4333

MULLIKEN ATOMIC CHARGES
-----------------------
   0 S :    0.099829
   1 C :   -0.144176
   2 C :   -0.073560
   3 C :    0.024882
   4 C :   -0.157175
   5 H :    0.016393
   6 C :    0.066314
   7 H :    0.015906
   8 H :    0.035133
   9 C :   -0.079476
  10 H :    0.038153
  11 H :    0.033686
  12 C :   -0.054749
  13 H :    0.016539
  14 H :    0.049382
  15 H :    0.031652
  16 S :    0.104277
  17 C :   -0.122505
  18 C :   -0.046338
  19 C :   -0.044473
  20 C :   -0.139574
  21 H :    0.028276
  22 C :    0.150794
  23 H :    0.012026
  24 H :   -0.003592
  25 C :   -0.094400
  26 H :    0.037259
  27 H :    0.023361
  28 C :   -0.079439
  29 H :    0.040039
  30 H :    0.038365
  31 H :    0.036387
  32 H :    0.065842
  33 H :    0.074963
Sum of atomic charges:    0.0000000

LOEWDIN ATOMIC CHARGES
----------------------
   0 S :    0.408028
   1 C :   -0.197984
   2 C :   -0.064979
   3 C :   -0.060482
   4 C :   -0.205532
   5 H :    0.030656
   6 C :   -0.030108
   7 H :    0.029868
   8 H :    0.029427
   9 C :   -0.038196
  10 H :    0.029181
  11 H :    0.020918
  12 C :   -0.079324
  13 H :    0.023704
  14 H :    0.037058
  15 H :    0.028703
  16 S :    0.384061
  17 C :   -0.195400
  18 C :   -0.074838
  19 C :   -0.036800
  20 C :   -0.189236
  21 H :    0.035365
  22 C :   -0.027542
  23 H :    0.031109
  24 H :    0.019982
  25 C :   -0.042831
  26 H :    0.024764
  27 H :    0.021810
  28 C :   -0.073683
  29 H :    0.033389
  30 H :    0.026325
  31 H :    0.024352
  32 H :    0.035150
  33 H :    0.043085

  Mayer bond orders larger than 0.100000
B(  0-S ,  1-C ) :   1.1354 B(  0-S ,  4-C ) :   1.1586 B(  1-C ,  2-C ) :   1.6083
B(  1-C , 32-H ) :   0.9658 B(  2-C ,  3-C ) :   1.2385 B(  2-C ,  6-C ) :   1.0348
B(  3-C ,  4-C ) :   1.5633 B(  3-C ,  5-H ) :   0.9912 B(  4-C , 20-C ) :   1.0435
B(  6-C ,  7-H ) :   0.9468 B(  6-C ,  8-H ) :   0.9298 B(  6-C ,  9-C ) :   1.0481
B(  9-C , 10-H ) :   0.9626 B(  9-C , 11-H ) :   0.9551 B(  9-C , 12-C ) :   1.0755
B( 12-C , 13-H ) :   0.9704 B( 12-C , 14-H ) :   0.9742 B( 12-C , 15-H ) :   0.9730
B( 16-S , 17-C ) :   1.1448 B( 16-S , 20-C ) :   1.1223 B( 17-C , 18-C ) :   1.6553
B( 17-C , 20-C ) :   0.1012 B( 17-C , 33-H ) :   0.9527 B( 18-C , 19-C ) :   1.1939
B( 18-C , 21-H ) :   0.9877 B( 19-C , 20-C ) :   1.6016 B( 19-C , 22-C ) :   1.0556
B( 22-C , 23-H ) :   0.9311 B( 22-C , 24-H ) :   0.9221 B( 22-C , 25-C ) :   1.0525
B( 25-C , 26-H ) :   0.9579 B( 25-C , 27-H ) :   0.9571 B( 25-C , 28-C ) :   1.0755
B( 28-C , 29-H ) :   0.9766 B( 28-C , 30-H ) :   0.9763 B( 28-C , 31-H ) :   0.9770

Dispersion correction           -0.014142830
FINAL SINGLE POINT ENERGY     -1339.856672665041

DIPOLE MOMENT
-------------
                                X             Y             Z
Electronic contribution:    -29.25869       7.14411     -11.05670
Nuclear contribution   :     29.76876      -7.36601      11.14477
                        -----------------------------------------
Total Dipole Moment    :      0.51006      -0.22190       0.08806
                        -----------------------------------------
Magnitude (a.u.)       :      0.56317
Magnitude (Debye)      :      1.43147

Rotational constants in cm-1:     0.017005     0.009237     0.006571
Rotational constants in MHz :   509.799565   276.909160   196.996576

                             ****ORCA TERMINATED NORMALLY****
TOTAL RUN TIME: 0 days 0 hours 0 minutes 30 seconds 305 msec
