                         Program Version 4.2.1 -  RELEASE  -
|  1> ! wB97X-D3 SP def2-SVP
|  2> %pal
|  3> nprocs 16
|  4> end
|  5>
|  6> * xyz 0 1
|  7> S 	 -35.6769 	 51.0102 	 100.835
|  8> C 	 -34.4522 	 52.014 	 101.486
|  9> C 	 -34.7062 	 52.648 	 102.707
| 10> C 	 -36.0382 	 52.2457 	 103.08
| 11> C 	 -36.6856 	 51.3647 	 102.228
| 12> H 	 -36.5823 	 52.628 	 103.921
| 13> C 	 -33.7936 	 53.5257 	 103.586
| 14> H 	 -32.9596 	 53.9814 	 102.999
| 15> H 	 -33.2377 	 52.9365 	 104.291
| 16> C 	 -34.4355 	 54.5955 	 104.421
| 17> H 	 -35.2411 	 54.2135 	 105.089
| 18> H 	 -33.5421 	 55.0136 	 104.948
| 19> C 	 -35.0344 	 55.6916 	 103.529
| 20> H 	 -34.3383 	 56.0475 	 102.801
| 21> H 	 -35.9311 	 55.3833 	 102.934
| 22> H 	 -35.2146 	 56.6237 	 104.107
| 23> S 	 -38.998 	 51.2262 	 100.836
| 24> C 	 -40.497 	 50.7206 	 101.614
| 25> C 	 -40.2481 	 50.3474 	 102.961
| 26> C 	 -38.9038 	 50.6164 	 103.37
| 27> C 	 -38.1017 	 51.0644 	 102.34
| 28> H 	 -41.1142 	 50.0143 	 103.503
| 29> C 	 -38.4212 	 50.4039 	 104.787
| 30> H 	 -37.9377 	 51.2932 	 105.106
| 31> H 	 -37.7334 	 49.624 	 104.85
| 32> C 	 -39.487 	 49.9646 	 105.811
| 33> H 	 -40.0605 	 49.0902 	 105.563
| 34> H 	 -40.2208 	 50.7215 	 105.912
| 35> C 	 -38.8417 	 49.4883 	 107.171
| 36> H 	 -38.2684 	 50.249 	 107.676
| 37> H 	 -38.1129 	 48.7559 	 106.952
| 38> H 	 -39.5614 	 49.0791 	 107.869
| 39> H 	 -33.5602 	 52.3007 	 101.001
| 40> H 	 -41.4941 	 50.5776 	 101.112
| 41> *
| 42>
| 43>                          ****END OF INPUT****

CARTESIAN COORDINATES (ANGSTROEM)
---------------------------------
  S    -35.676900   51.010200  100.835000
  C    -34.452200   52.014000  101.486000
  C    -34.706200   52.648000  102.707000
  C    -36.038200   52.245700  103.080000
  C    -36.685600   51.364700  102.228000
  H    -36.582300   52.628000  103.921000
  C    -33.793600   53.525700  103.586000
  H    -32.959600   53.981400  102.999000
  H    -33.237700   52.936500  104.291000
  C    -34.435500   54.595500  104.421000
  H    -35.241100   54.213500  105.089000
  H    -33.542100   55.013600  104.948000
  C    -35.034400   55.691600  103.529000
  H    -34.338300   56.047500  102.801000
  H    -35.931100   55.383300  102.934000
  H    -35.214600   56.623700  104.107000
  S    -38.998000   51.226200  100.836000
  C    -40.497000   50.720600  101.614000
  C    -40.248100   50.347400  102.961000
  C    -38.903800   50.616400  103.370000
  C    -38.101700   51.064400  102.340000
  H    -41.114200   50.014300  103.503000
  C    -38.421200   50.403900  104.787000
  H    -37.937700   51.293200  105.106000
  H    -37.733400   49.624000  104.850000
  C    -39.487000   49.964600  105.811000
  H    -40.060500   49.090200  105.563000
  H    -40.220800   50.721500  105.912000
  C    -38.841700   49.488300  107.171000
  H    -38.268400   50.249000  107.676000
  H    -38.112900   48.755900  106.952000
  H    -39.561400   49.079100  107.869000
  H    -33.560200   52.300700  101.001000
  H    -41.494100   50.577600  101.112000

 Total Charge           Charge          ....    0
 Multiplicity           Mult            ....    1
 Number of Electrons    NEL             ....  134
 Basis Dimension        Dim             ....  322

ORBITAL ENERGIES
----------------

  NO   OCC          E(Eh)            E(eV)
   0   2.0000     -88.973975     -2421.1050
   1   2.0000     -88.964575     -2420.8492
   2   2.0000     -10.326882      -281.0087
   3   2.0000     -10.324526      -280.9446
   4   2.0000     -10.322638      -280.8933
   5   2.0000     -10.310631      -280.5665
   6   2.0000     -10.306251      -280.4474
   7   2.0000     -10.303605      -280.3753
   8   2.0000     -10.297848      -280.2187
   9   2.0000     -10.296422      -280.1799
  10   2.0000     -10.294769      -280.1349
  11   2.0000     -10.292492      -280.0730
  12   2.0000     -10.284512      -279.8558
  13   2.0000     -10.284130      -279.8454
  14   2.0000     -10.276697      -279.6432
  15   2.0000     -10.275362      -279.6068
  16   2.0000      -8.088693      -220.1045
  17   2.0000      -8.078874      -219.8373
  18   2.0000      -6.047159      -164.5516
  19   2.0000      -6.043286      -164.4462
  20   2.0000      -6.039427      -164.3412
  21   2.0000      -6.037381      -164.2855
  22   2.0000      -6.033380      -164.1766
  23   2.0000      -6.029730      -164.0773
  24   2.0000      -1.006749       -27.3950
  25   2.0000      -0.981193       -26.6996
  26   2.0000      -0.917456       -24.9652
  27   2.0000      -0.908638       -24.7253
  28   2.0000      -0.868497       -23.6330
  29   2.0000      -0.852114       -23.1872
  30   2.0000      -0.843957       -22.9652
  31   2.0000      -0.810325       -22.0501
  32   2.0000      -0.785952       -21.3869
  33   2.0000      -0.775326       -21.0977
  34   2.0000      -0.714187       -19.4340
  35   2.0000      -0.700757       -19.0686
  36   2.0000      -0.691306       -18.8114
  37   2.0000      -0.654754       -17.8168
  38   2.0000      -0.638593       -17.3770
  39   2.0000      -0.627637       -17.0789
  40   2.0000      -0.597079       -16.2473
  41   2.0000      -0.573648       -15.6098
  42   2.0000      -0.569192       -15.4885
  43   2.0000      -0.551028       -14.9942
  44   2.0000      -0.540939       -14.7197
  45   2.0000      -0.528345       -14.3770
  46   2.0000      -0.514235       -13.9930
  47   2.0000      -0.510113       -13.8809
  48   2.0000      -0.499549       -13.5934
  49   2.0000      -0.495937       -13.4951
  50   2.0000      -0.487746       -13.2722
  51   2.0000      -0.477025       -12.9805
  52   2.0000      -0.473175       -12.8757
  53   2.0000      -0.464789       -12.6475
  54   2.0000      -0.456246       -12.4151
  55   2.0000      -0.449715       -12.2374
  56   2.0000      -0.449366       -12.2279
  57   2.0000      -0.434352       -11.8193
  58   2.0000      -0.430321       -11.7096
  59   2.0000      -0.428653       -11.6642
  60   2.0000      -0.428312       -11.6550
  61   2.0000      -0.425363       -11.5747
  62   2.0000      -0.413677       -11.2567
  63   2.0000      -0.349869        -9.5204
  64   2.0000      -0.331381        -9.0173
  65   2.0000      -0.330761        -9.0005
  66   2.0000      -0.284823        -7.7504
  67   0.0000       0.027850         0.7578
  68   0.0000       0.070049         1.9061
  69   0.0000       0.111289         3.0283
  70   0.0000       0.121475         3.3055
  71   0.0000       0.136545         3.7156

MULLIKEN ATOMIC CHARGES
-----------------------
   0 S :    0.141252
   1 C :   -0.102795
   2 C :   -0.072647
   3 C :   -0.004537
   4 C :   -0.136392
   5 H :    0.001081
   6 C :    0.073246
   7 H :    0.020281
   8 H :    0.035938
   9 C :   -0.098728
  10 H :    0.049749
  11 H :    0.040123
  12 C :   -0.063746
  13 H :    0.011579
  14 H :    0.053338
  15 H :    0.034990
  16 S :    0.098147
  17 C :   -0.118992
  18 C :   -0.055299
  19 C :   -0.032296
  20 C :   -0.156614
  21 H :    0.019486
  22 C :    0.131160
  23 H :    0.018591
  24 H :    0.014931
  25 C :   -0.098492
  26 H :    0.028479
  27 H :    0.020609
  28 C :   -0.027875
  29 H :    0.019931
  30 H :    0.018282
  31 H :    0.036607
  32 H :    0.024152
  33 H :    0.076461
Sum of atomic charges:    0.0000000

LOEWDIN ATOMIC CHARGES
----------------------
   0 S :    0.426189
   1 C :   -0.200980
   2 C :   -0.059934
   3 C :   -0.055542
   4 C :   -0.204034
   5 H :    0.022082
   6 C :   -0.035027
   7 H :    0.033840
   8 H :    0.032407
   9 C :   -0.046101
  10 H :    0.028631
  11 H :    0.036654
  12 C :   -0.075676
  13 H :    0.018583
  14 H :    0.033679
  15 H :    0.028746
  16 S :    0.397867
  17 C :   -0.196611
  18 C :   -0.071956
  19 C :   -0.057639
  20 C :   -0.190939
  21 H :    0.030807
  22 C :   -0.020828
  23 H :    0.026988
  24 H :    0.027006
  25 C :   -0.033770
  26 H :    0.023013
  27 H :    0.014620
  28 C :   -0.058095
  29 H :    0.020101
  30 H :    0.019643
  31 H :    0.027155
  32 H :    0.017867
  33 H :    0.041255

  Mayer bond orders larger than 0.100000
B(  0-S ,  1-C ) :   1.1585 B(  0-S ,  4-C ) :   1.1311 B(  1-C ,  2-C ) :   1.6154
B(  1-C , 32-H ) :   0.9597 B(  2-C ,  3-C ) :   1.2531 B(  2-C ,  6-C ) :   1.0072
B(  3-C ,  4-C ) :   1.5739 B(  3-C ,  5-H ) :   0.9850 B(  4-C , 20-C ) :   1.0673
B(  6-C ,  7-H ) :   0.9388 B(  6-C ,  8-H ) :   0.9366 B(  6-C ,  9-C ) :   1.0866
B(  9-C , 10-H ) :   0.9488 B(  9-C , 11-H ) :   0.9502 B(  9-C , 12-C ) :   1.0803
B( 12-C , 13-H ) :   0.9717 B( 12-C , 14-H ) :   0.9729 B( 12-C , 15-H ) :   0.9748
B( 16-S , 17-C ) :   1.1589 B( 16-S , 20-C ) :   1.1377 B( 17-C , 18-C ) :   1.5949
B( 17-C , 20-C ) :   0.1039 B( 17-C , 33-H ) :   0.9580 B( 18-C , 19-C ) :   1.2462
B( 18-C , 21-H ) :   0.9906 B( 19-C , 20-C ) :   1.5993 B( 19-C , 22-C ) :   1.0269
B( 22-C , 23-H ) :   0.9269 B( 22-C , 24-H ) :   0.9233 B( 22-C , 25-C ) :   1.0861
B( 25-C , 26-H ) :   0.9510 B( 25-C , 27-H ) :   0.9550 B( 25-C , 28-C ) :   1.0741
B( 28-C , 29-H ) :   0.9764 B( 28-C , 30-H ) :   0.9739 B( 28-C , 31-H ) :   0.9762

Dispersion correction           -0.013737854
FINAL SINGLE POINT ENERGY     -1339.871214070867

DIPOLE MOMENT
-------------
                                X             Y             Z
Electronic contribution:     -3.43006      -8.53058     -26.31315
Nuclear contribution   :      3.57681       8.72686      26.91183
                        -----------------------------------------
Total Dipole Moment    :      0.14675       0.19628       0.59868
                        -----------------------------------------
Magnitude (a.u.)       :      0.64690
Magnitude (Debye)      :      1.64428

Rotational constants in cm-1:     0.015964     0.009066     0.006867
Rotational constants in MHz :   478.596356   271.781325   205.880069

                             ****ORCA TERMINATED NORMALLY****
TOTAL RUN TIME: 0 days 0 hours 0 minutes 29 seconds 654 msec
