                         Program Version 4.2.1 -  RELEASE  -
|  1> ! wB97X-D3 SP def2-SVP
|  2> %pal
|  3> nprocs 16
|  4> end
|  5>
|  6> * xyz 0 1
|  7> S 	 42.483 	 14.0985 	 49.4505
|  8> C 	 42.5816 	 13.8366 	 51.1648
|  9> C 	 41.4923 	 14.3382 	 51.8658
| 10> C 	 40.473 	 14.9436 	 51.007
| 11> C 	 40.823 	 14.8181 	 49.6583
| 12> H 	 39.6152 	 15.4631 	 51.2832
| 13> C 	 41.3898 	 14.4397 	 53.3904
| 14> H 	 40.9253 	 15.4022 	 53.6993
| 15> H 	 42.4164 	 14.6332 	 53.8279
| 16> C 	 40.7579 	 13.1294 	 53.9491
| 17> H 	 39.6248 	 13.3033 	 53.9614
| 18> H 	 41.0958 	 12.3602 	 53.2939
| 19> C 	 41.0958 	 12.6738 	 55.3826
| 20> H 	 42.1982 	 12.5188 	 55.4707
| 21> H 	 40.8727 	 13.4203 	 56.1514
| 22> H 	 40.5396 	 11.8047 	 55.6485
| 23> S 	 41.0879 	 15.8992 	 47.1491
| 24> C 	 39.7134 	 16.5167 	 46.2914
| 25> C 	 38.558 	 16.1834 	 46.9676
| 26> C 	 38.7534 	 15.5906 	 48.2823
| 27> C 	 40.0854 	 15.396 	 48.5294
| 28> H 	 37.6238 	 16.3177 	 46.4542
| 29> C 	 37.6929 	 14.9773 	 49.1474
| 30> H 	 37.3682 	 15.6861 	 49.8157
| 31> H 	 38.1673 	 14.068 	 49.6544
| 32> C 	 36.4805 	 14.523 	 48.2964
| 33> H 	 36.0703 	 15.3601 	 47.6822
| 34> H 	 35.7353 	 14.2254 	 48.9671
| 35> C 	 36.8932 	 13.3607 	 47.2952
| 36> H 	 36.0403 	 12.9883 	 46.7768
| 37> H 	 37.237 	 12.4043 	 47.8539
| 38> H 	 37.6774 	 13.5627 	 46.6084
| 39> H 	 43.3715 	 13.2182 	 51.6371
| 40> H 	 39.647 	 16.6348 	 45.2156
| 41> *
| 42>
| 43>                          ****END OF INPUT****

CARTESIAN COORDINATES (ANGSTROEM)
---------------------------------
  S     42.483000   14.098500   49.450500
  C     42.581600   13.836600   51.164800
  C     41.492300   14.338200   51.865800
  C     40.473000   14.943600   51.007000
  C     40.823000   14.818100   49.658300
  H     39.615200   15.463100   51.283200
  C     41.389800   14.439700   53.390400
  H     40.925300   15.402200   53.699300
  H     42.416400   14.633200   53.827900
  C     40.757900   13.129400   53.949100
  H     39.624800   13.303300   53.961400
  H     41.095800   12.360200   53.293900
  C     41.095800   12.673800   55.382600
  H     42.198200   12.518800   55.470700
  H     40.872700   13.420300   56.151400
  H     40.539600   11.804700   55.648500
  S     41.087900   15.899200   47.149100
  C     39.713400   16.516700   46.291400
  C     38.558000   16.183400   46.967600
  C     38.753400   15.590600   48.282300
  C     40.085400   15.396000   48.529400
  H     37.623800   16.317700   46.454200
  C     37.692900   14.977300   49.147400
  H     37.368200   15.686100   49.815700
  H     38.167300   14.068000   49.654400
  C     36.480500   14.523000   48.296400
  H     36.070300   15.360100   47.682200
  H     35.735300   14.225400   48.967100
  C     36.893200   13.360700   47.295200
  H     36.040300   12.988300   46.776800
  H     37.237000   12.404300   47.853900
  H     37.677400   13.562700   46.608400
  H     43.371500   13.218200   51.637100
  H     39.647000   16.634800   45.215600

 Total Charge           Charge          ....    0
 Multiplicity           Mult            ....    1
 Number of Electrons    NEL             ....  134
 Basis Dimension        Dim             ....  322

ORBITAL ENERGIES
----------------

  NO   OCC          E(Eh)            E(eV)
   0   2.0000     -88.970820     -2421.0191
   1   2.0000     -88.960471     -2420.7375
   2   2.0000     -10.338558      -281.3265
   3   2.0000     -10.327184      -281.0170
   4   2.0000     -10.319395      -280.8050
   5   2.0000     -10.312340      -280.6130
   6   2.0000     -10.308152      -280.4991
   7   2.0000     -10.301608      -280.3210
   8   2.0000     -10.300577      -280.2930
   9   2.0000     -10.299311      -280.2585
  10   2.0000     -10.295385      -280.1517
  11   2.0000     -10.292616      -280.0763
  12   2.0000     -10.291438      -280.0443
  13   2.0000     -10.291016      -280.0328
  14   2.0000     -10.279610      -279.7224
  15   2.0000     -10.278620      -279.6955
  16   2.0000      -8.084542      -219.9916
  17   2.0000      -8.075374      -219.7421
  18   2.0000      -6.043209      -164.4441
  19   2.0000      -6.039348      -164.3390
  20   2.0000      -6.035043      -164.2219
  21   2.0000      -6.034054      -164.1950
  22   2.0000      -6.029925      -164.0826
  23   2.0000      -6.025886      -163.9727
  24   2.0000      -1.002474       -27.2787
  25   2.0000      -0.978602       -26.6291
  26   2.0000      -0.909434       -24.7470
  27   2.0000      -0.904092       -24.6016
  28   2.0000      -0.869545       -23.6615
  29   2.0000      -0.850035       -23.1306
  30   2.0000      -0.836693       -22.7676
  31   2.0000      -0.815148       -22.1813
  32   2.0000      -0.782996       -21.3064
  33   2.0000      -0.770362       -20.9626
  34   2.0000      -0.708940       -19.2912
  35   2.0000      -0.697842       -18.9892
  36   2.0000      -0.694797       -18.9064
  37   2.0000      -0.659413       -17.9435
  38   2.0000      -0.640478       -17.4283
  39   2.0000      -0.617087       -16.7918
  40   2.0000      -0.594766       -16.1844
  41   2.0000      -0.570844       -15.5334
  42   2.0000      -0.561444       -15.2777
  43   2.0000      -0.551099       -14.9962
  44   2.0000      -0.533538       -14.5183
  45   2.0000      -0.524946       -14.2845
  46   2.0000      -0.517453       -14.0806
  47   2.0000      -0.513620       -13.9763
  48   2.0000      -0.502593       -13.6762
  49   2.0000      -0.499900       -13.6030
  50   2.0000      -0.488671       -13.2974
  51   2.0000      -0.480619       -13.0783
  52   2.0000      -0.465071       -12.6552
  53   2.0000      -0.464547       -12.6410
  54   2.0000      -0.455877       -12.4050
  55   2.0000      -0.447006       -12.1637
  56   2.0000      -0.445389       -12.1197
  57   2.0000      -0.435279       -11.8446
  58   2.0000      -0.432056       -11.7568
  59   2.0000      -0.424722       -11.5573
  60   2.0000      -0.421604       -11.4724
  61   2.0000      -0.415130       -11.2963
  62   2.0000      -0.409957       -11.1555
  63   2.0000      -0.359600        -9.7852
  64   2.0000      -0.332863        -9.0576
  65   2.0000      -0.326045        -8.8721
  66   2.0000      -0.285262        -7.7624
  67   0.0000       0.018887         0.5139
  68   0.0000       0.071945         1.9577
  69   0.0000       0.100547         2.7360
  70   0.0000       0.118983         3.2377
  71   0.0000       0.134275         3.6538

MULLIKEN ATOMIC CHARGES
-----------------------
   0 S :    0.104161
   1 C :   -0.119650
   2 C :   -0.090310
   3 C :    0.035016
   4 C :   -0.119166
   5 H :   -0.000885
   6 C :    0.020715
   7 H :    0.033973
   8 H :    0.028461
   9 C :   -0.079451
  10 H :    0.045315
  11 H :    0.036278
  12 C :   -0.046992
  13 H :    0.031411
  14 H :    0.026208
  15 H :    0.036236
  16 S :    0.077089
  17 C :   -0.069482
  18 C :   -0.067630
  19 C :   -0.063611
  20 C :   -0.147845
  21 H :    0.016955
  22 C :    0.082042
  23 H :    0.019948
  24 H :    0.059946
  25 C :   -0.073940
  26 H :    0.037729
  27 H :    0.020011
  28 C :   -0.069663
  29 H :    0.027348
  30 H :    0.031986
  31 H :    0.046490
  32 H :    0.065901
  33 H :    0.065407
Sum of atomic charges:   -0.0000000

LOEWDIN ATOMIC CHARGES
----------------------
   0 S :    0.381214
   1 C :   -0.205006
   2 C :   -0.060023
   3 C :   -0.046404
   4 C :   -0.165564
   5 H :    0.023445
   6 C :   -0.042725
   7 H :    0.032640
   8 H :    0.032475
   9 C :   -0.043125
  10 H :    0.034819
  11 H :    0.022474
  12 C :   -0.069165
  13 H :    0.026263
  14 H :    0.023513
  15 H :    0.024174
  16 S :    0.385669
  17 C :   -0.201865
  18 C :   -0.065405
  19 C :   -0.064702
  20 C :   -0.178803
  21 H :    0.026838
  22 C :   -0.027498
  23 H :    0.018689
  24 H :    0.045805
  25 C :   -0.030963
  26 H :    0.026411
  27 H :    0.017506
  28 C :   -0.069126
  29 H :    0.019891
  30 H :    0.034471
  31 H :    0.021820
  32 H :    0.037317
  33 H :    0.034941

  Mayer bond orders larger than 0.100000
B(  0-S ,  1-C ) :   1.1288 B(  0-S ,  4-C ) :   1.1277 B(  1-C ,  2-C ) :   1.6362
B(  1-C , 32-H ) :   0.9593 B(  2-C ,  3-C ) :   1.2107 B(  2-C ,  6-C ) :   1.0210
B(  3-C ,  4-C ) :   1.5709 B(  3-C ,  5-H ) :   1.0027 B(  4-C , 20-C ) :   1.0761
B(  6-C ,  7-H ) :   0.9484 B(  6-C ,  8-H ) :   0.9530 B(  6-C ,  9-C ) :   1.0322
B(  9-C , 10-H ) :   0.9552 B(  9-C , 11-H ) :   0.9638 B(  9-C , 12-C ) :   1.0874
B( 12-C , 13-H ) :   0.9748 B( 12-C , 14-H ) :   0.9742 B( 12-C , 15-H ) :   0.9743
B( 16-S , 17-C ) :   1.1432 B( 16-S , 20-C ) :   1.1245 B( 17-C , 18-C ) :   1.6444
B( 17-C , 33-H ) :   0.9553 B( 18-C , 19-C ) :   1.2162 B( 18-C , 21-H ) :   0.9839
B( 19-C , 20-C ) :   1.6181 B( 19-C , 22-C ) :   1.0250 B( 22-C , 23-H ) :   0.9138
B( 22-C , 24-H ) :   0.9434 B( 22-C , 25-C ) :   1.0883 B( 25-C , 26-H ) :   0.9507
B( 25-C , 27-H ) :   0.9539 B( 25-C , 28-C ) :   1.0665 B( 28-C , 29-H ) :   0.9769
B( 28-C , 30-H ) :   0.9735 B( 28-C , 31-H ) :   0.9773

Dispersion correction           -0.014158285
FINAL SINGLE POINT ENERGY     -1339.865311347160

DIPOLE MOMENT
-------------
                                X             Y             Z
Electronic contribution:     16.62940       9.99753     -18.17805
Nuclear contribution   :    -17.19551     -10.21281      18.62145
                        -----------------------------------------
Total Dipole Moment    :     -0.56612      -0.21529       0.44340
                        -----------------------------------------
Magnitude (a.u.)       :      0.75063
Magnitude (Debye)      :      1.90794

Rotational constants in cm-1:     0.021346     0.007742     0.006193
Rotational constants in MHz :   639.937703   232.111549   185.660951

                             ****ORCA TERMINATED NORMALLY****
TOTAL RUN TIME: 0 days 0 hours 0 minutes 32 seconds 376 msec
