                         Program Version 4.2.1 -  RELEASE  -
|  1> ! wB97X-D3 SP def2-SVP
|  2> %pal
|  3> nprocs 16
|  4> end
|  5>
|  6> * xyz 0 1
|  7> S 	 50.7566 	 4.19774 	 85.2536
|  8> C 	 51.8726 	 5.27183 	 84.3967
|  9> C 	 51.3732 	 5.62254 	 83.1355
| 10> C 	 50.0437 	 5.09978 	 82.9133
| 11> C 	 49.5771 	 4.33111 	 83.9437
| 12> H 	 49.4314 	 5.39192 	 82.0084
| 13> C 	 52.1498 	 6.45708 	 82.0907
| 14> H 	 51.7276 	 7.45102 	 81.9969
| 15> H 	 51.9877 	 5.9201 	 81.2149
| 16> C 	 53.6887 	 6.59499 	 82.3125
| 17> H 	 53.8778 	 7.08063 	 83.328
| 18> H 	 54.0724 	 5.57399 	 82.4636
| 19> C 	 54.2936 	 7.43174 	 81.2116
| 20> H 	 53.8673 	 7.07866 	 80.2657
| 21> H 	 53.9857 	 8.46292 	 81.4004
| 22> H 	 55.3807 	 7.23729 	 81.1398
| 23> S 	 46.9599 	 4.49942 	 84.8192
| 24> C 	 45.7221 	 3.39849 	 84.1668
| 25> C 	 46.297 	 2.47231 	 83.3625
| 26> C 	 47.716 	 2.64978 	 83.1841
| 27> C 	 48.2605 	 3.75161 	 83.9114
| 28> H 	 45.6705 	 1.71391 	 82.9352
| 29> C 	 48.5954 	 1.77667 	 82.2709
| 30> H 	 49.0506 	 2.46066 	 81.5249
| 31> H 	 47.9012 	 1.248 	 81.566
| 32> C 	 49.6826 	 0.879334 	 82.9147
| 33> H 	 49.1658 	 0.196958 	 83.5839
| 34> H 	 50.3373 	 1.44597 	 83.6119
| 35> C 	 50.4935 	 0.235885 	 81.7622
| 36> H 	 50.8939 	 -0.743951 	 82.1042
| 37> H 	 51.3335 	 0.803828 	 81.4813
| 38> H 	 49.8538 	 0.125639 	 80.8773
| 39> H 	 52.8342 	 5.58678 	 84.8378
| 40> H 	 44.7459 	 3.42269 	 84.5411
| 41> *
| 42>
| 43>                          ****END OF INPUT****

CARTESIAN COORDINATES (ANGSTROEM)
---------------------------------
  S     50.756600    4.197740   85.253600
  C     51.872600    5.271830   84.396700
  C     51.373200    5.622540   83.135500
  C     50.043700    5.099780   82.913300
  C     49.577100    4.331110   83.943700
  H     49.431400    5.391920   82.008400
  C     52.149800    6.457080   82.090700
  H     51.727600    7.451020   81.996900
  H     51.987700    5.920100   81.214900
  C     53.688700    6.594990   82.312500
  H     53.877800    7.080630   83.328000
  H     54.072400    5.573990   82.463600
  C     54.293600    7.431740   81.211600
  H     53.867300    7.078660   80.265700
  H     53.985700    8.462920   81.400400
  H     55.380700    7.237290   81.139800
  S     46.959900    4.499420   84.819200
  C     45.722100    3.398490   84.166800
  C     46.297000    2.472310   83.362500
  C     47.716000    2.649780   83.184100
  C     48.260500    3.751610   83.911400
  H     45.670500    1.713910   82.935200
  C     48.595400    1.776670   82.270900
  H     49.050600    2.460660   81.524900
  H     47.901200    1.248000   81.566000
  C     49.682600    0.879334   82.914700
  H     49.165800    0.196958   83.583900
  H     50.337300    1.445970   83.611900
  C     50.493500    0.235885   81.762200
  H     50.893900   -0.743951   82.104200
  H     51.333500    0.803828   81.481300
  H     49.853800    0.125639   80.877300
  H     52.834200    5.586780   84.837800
  H     44.745900    3.422690   84.541100

 Total Charge           Charge          ....    0
 Multiplicity           Mult            ....    1
 Number of Electrons    NEL             ....  134
 Basis Dimension        Dim             ....  322

ORBITAL ENERGIES
----------------

  NO   OCC          E(Eh)            E(eV)
   0   2.0000     -88.968768     -2420.9633
   1   2.0000     -88.959567     -2420.7129
   2   2.0000     -10.329240      -281.0729
   3   2.0000     -10.326105      -280.9876
   4   2.0000     -10.321001      -280.8487
   5   2.0000     -10.313604      -280.6474
   6   2.0000     -10.307716      -280.4872
   7   2.0000     -10.307089      -280.4701
   8   2.0000     -10.300702      -280.2963
   9   2.0000     -10.293800      -280.1085
  10   2.0000     -10.293382      -280.0972
  11   2.0000     -10.293333      -280.0958
  12   2.0000     -10.291599      -280.0486
  13   2.0000     -10.285915      -279.8940
  14   2.0000     -10.284581      -279.8577
  15   2.0000     -10.275309      -279.6054
  16   2.0000      -8.082545      -219.9372
  17   2.0000      -8.074083      -219.7070
  18   2.0000      -6.041174      -164.3887
  19   2.0000      -6.037140      -164.2789
  20   2.0000      -6.033274      -164.1737
  21   2.0000      -6.032614      -164.1558
  22   2.0000      -6.028461      -164.0428
  23   2.0000      -6.025004      -163.9487
  24   2.0000      -1.000505       -27.2251
  25   2.0000      -0.977166       -26.5900
  26   2.0000      -0.912417       -24.8281
  27   2.0000      -0.898268       -24.4431
  28   2.0000      -0.871608       -23.7177
  29   2.0000      -0.849880       -23.1264
  30   2.0000      -0.840944       -22.8833
  31   2.0000      -0.814316       -22.1587
  32   2.0000      -0.778316       -21.1790
  33   2.0000      -0.762546       -20.7499
  34   2.0000      -0.711941       -19.3729
  35   2.0000      -0.701280       -19.0828
  36   2.0000      -0.689146       -18.7526
  37   2.0000      -0.657884       -17.9019
  38   2.0000      -0.638768       -17.3818
  39   2.0000      -0.611942       -16.6518
  40   2.0000      -0.592873       -16.1329
  41   2.0000      -0.576638       -15.6911
  42   2.0000      -0.567043       -15.4300
  43   2.0000      -0.551899       -15.0179
  44   2.0000      -0.522672       -14.2226
  45   2.0000      -0.520655       -14.1677
  46   2.0000      -0.514908       -14.0113
  47   2.0000      -0.513436       -13.9713
  48   2.0000      -0.508347       -13.8328
  49   2.0000      -0.500018       -13.6062
  50   2.0000      -0.493284       -13.4229
  51   2.0000      -0.474661       -12.9162
  52   2.0000      -0.471416       -12.8279
  53   2.0000      -0.464052       -12.6275
  54   2.0000      -0.454570       -12.3695
  55   2.0000      -0.452931       -12.3249
  56   2.0000      -0.443037       -12.0556
  57   2.0000      -0.432466       -11.7680
  58   2.0000      -0.428476       -11.6594
  59   2.0000      -0.423431       -11.5221
  60   2.0000      -0.422451       -11.4955
  61   2.0000      -0.417550       -11.3621
  62   2.0000      -0.404323       -11.0022
  63   2.0000      -0.339592        -9.2408
  64   2.0000      -0.329703        -8.9717
  65   2.0000      -0.319138        -8.6842
  66   2.0000      -0.305297        -8.3075
  67   0.0000       0.037912         1.0316
  68   0.0000       0.057240         1.5576
  69   0.0000       0.116355         3.1662
  70   0.0000       0.127310         3.4643
  71   0.0000       0.128661         3.5010

MULLIKEN ATOMIC CHARGES
-----------------------
   0 S :    0.118702
   1 C :   -0.150535
   2 C :   -0.094730
   3 C :    0.024881
   4 C :   -0.159181
   5 H :    0.044911
   6 C :    0.083082
   7 H :    0.037991
   8 H :    0.016156
   9 C :   -0.141437
  10 H :    0.036614
  11 H :    0.032790
  12 C :   -0.013745
  13 H :    0.024488
  14 H :    0.043729
  15 H :    0.045710
  16 S :    0.090449
  17 C :   -0.083230
  18 C :   -0.016253
  19 C :   -0.035290
  20 C :   -0.171498
  21 H :    0.015851
  22 C :    0.023858
  23 H :    0.024052
  24 H :    0.016332
  25 C :   -0.046070
  26 H :    0.028223
  27 H :    0.036592
  28 C :   -0.035336
  29 H :    0.034419
  30 H :    0.030116
  31 H :    0.031124
  32 H :    0.063051
  33 H :    0.044183
Sum of atomic charges:    0.0000000

LOEWDIN ATOMIC CHARGES
----------------------
   0 S :    0.392414
   1 C :   -0.197728
   2 C :   -0.060806
   3 C :   -0.058201
   4 C :   -0.199543
   5 H :    0.046404
   6 C :   -0.025795
   7 H :    0.031785
   8 H :    0.022387
   9 C :   -0.050067
  10 H :    0.025145
  11 H :    0.022291
  12 C :   -0.063070
  13 H :    0.025310
  14 H :    0.031224
  15 H :    0.033472
  16 S :    0.391833
  17 C :   -0.164215
  18 C :   -0.072920
  19 C :   -0.053106
  20 C :   -0.202548
  21 H :    0.032392
  22 C :   -0.045310
  23 H :    0.031213
  24 H :    0.029269
  25 C :   -0.038234
  26 H :    0.022130
  27 H :    0.026006
  28 C :   -0.060315
  29 H :    0.030465
  30 H :    0.020872
  31 H :    0.025535
  32 H :    0.032413
  33 H :    0.019298

  Mayer bond orders larger than 0.100000
B(  0-S ,  1-C ) :   1.1253 B(  0-S ,  4-C ) :   1.1306 B(  1-C ,  2-C ) :   1.6247
B(  1-C , 32-H ) :   0.9617 B(  2-C ,  3-C ) :   1.2384 B(  2-C ,  6-C ) :   0.9971
B(  3-C ,  4-C ) :   1.6035 B(  3-C ,  5-H ) :   0.9811 B(  4-C , 20-C ) :   1.0411
B(  6-C ,  7-H ) :   0.9380 B(  6-C ,  8-H ) :   0.9380 B(  6-C ,  9-C ) :   1.0796
B(  9-C , 10-H ) :   0.9503 B(  9-C , 11-H ) :   0.9568 B(  9-C , 12-C ) :   1.0738
B( 12-C , 13-H ) :   0.9740 B( 12-C , 14-H ) :   0.9734 B( 12-C , 15-H ) :   0.9716
B( 16-S , 17-C ) :   1.1570 B( 16-S , 20-C ) :   1.1488 B( 17-C , 18-C ) :   1.5980
B( 17-C , 20-C ) :   0.1024 B( 17-C , 33-H ) :   0.9744 B( 18-C , 19-C ) :   1.2524
B( 18-C , 21-H ) :   0.9950 B( 19-C , 20-C ) :   1.5713 B( 19-C , 22-C ) :   1.0341
B( 22-C , 23-H ) :   0.9349 B( 22-C , 24-H ) :   0.9332 B( 22-C , 25-C ) :   1.0497
B( 25-C , 26-H ) :   0.9596 B( 25-C , 27-H ) :   0.9557 B( 25-C , 28-C ) :   1.0642
B( 28-C , 29-H ) :   0.9747 B( 28-C , 30-H ) :   0.9765 B( 28-C , 31-H ) :   0.9763

Dispersion correction           -0.014163580
FINAL SINGLE POINT ENERGY     -1339.883969455424

DIPOLE MOMENT
-------------
                                X             Y             Z
Electronic contribution:    -18.94306       2.84331      19.37314
Nuclear contribution   :     19.20419      -2.84367     -19.97029
                        -----------------------------------------
Total Dipole Moment    :      0.26113      -0.00035      -0.59715
                        -----------------------------------------
Magnitude (a.u.)       :      0.65175
Magnitude (Debye)      :      1.65662

Rotational constants in cm-1:     0.019686     0.007713     0.006548
Rotational constants in MHz :   590.170044   231.225568   196.302278

                             ****ORCA TERMINATED NORMALLY****
TOTAL RUN TIME: 0 days 0 hours 0 minutes 29 seconds 139 msec
