                         Program Version 4.2.1 -  RELEASE  -
|  1> ! wB97X-D3 SP def2-SVP
|  2> %pal
|  3> nprocs 16
|  4> end
|  5>
|  6> * xyz 0 1
|  7> S 	 -84.8821 	 53.9082 	 137.241
|  8> C 	 -85.7164 	 54.3539 	 138.703
|  9> C 	 -84.796 	 54.5045 	 139.693
| 10> C 	 -83.4586 	 54.0137 	 139.383
| 11> C 	 -83.3808 	 53.515 	 138.05
| 12> H 	 -82.5608 	 54.0409 	 140.009
| 13> C 	 -85.1241 	 54.8469 	 141.08
| 14> H 	 -85.8137 	 55.6519 	 141.042
| 15> H 	 -84.1479 	 55.3251 	 141.392
| 16> C 	 -85.5417 	 53.7008 	 142.11
| 17> H 	 -86.2854 	 52.9961 	 141.696
| 18> H 	 -84.6413 	 53.0832 	 142.313
| 19> C 	 -85.9879 	 54.2377 	 143.442
| 20> H 	 -85.1664 	 54.6406 	 143.962
| 21> H 	 -86.8323 	 54.9861 	 143.174
| 22> H 	 -86.2669 	 53.5254 	 144.173
| 23> S 	 -82.12 	 53.3923 	 135.6
| 24> C 	 -80.5095 	 52.806 	 135.492
| 25> C 	 -80.1575 	 52.1138 	 136.646
| 26> C 	 -81.1619 	 52.1048 	 137.654
| 27> C 	 -82.2508 	 52.9548 	 137.337
| 28> H 	 -79.2101 	 51.5703 	 136.798
| 29> C 	 -80.8621 	 51.3429 	 138.948
| 30> H 	 -80.9322 	 50.3028 	 138.636
| 31> H 	 -81.5946 	 51.6885 	 139.633
| 32> C 	 -79.4285 	 51.4353 	 139.542
| 33> H 	 -78.6699 	 51.111 	 138.852
| 34> H 	 -79.4286 	 50.7626 	 140.417
| 35> C 	 -79.0697 	 52.8663 	 140
| 36> H 	 -77.9803 	 52.7812 	 140.324
| 37> H 	 -79.7342 	 53.2219 	 140.825
| 38> H 	 -79.0412 	 53.6597 	 139.341
| 39> H 	 -86.7391 	 54.6472 	 138.817
| 40> H 	 -79.7084 	 53.103 	 134.851
| 41> *
| 42>
| 43>                          ****END OF INPUT****

CARTESIAN COORDINATES (ANGSTROEM)
---------------------------------
  S    -84.882100   53.908200  137.241000
  C    -85.716400   54.353900  138.703000
  C    -84.796000   54.504500  139.693000
  C    -83.458600   54.013700  139.383000
  C    -83.380800   53.515000  138.050000
  H    -82.560800   54.040900  140.009000
  C    -85.124100   54.846900  141.080000
  H    -85.813700   55.651900  141.042000
  H    -84.147900   55.325100  141.392000
  C    -85.541700   53.700800  142.110000
  H    -86.285400   52.996100  141.696000
  H    -84.641300   53.083200  142.313000
  C    -85.987900   54.237700  143.442000
  H    -85.166400   54.640600  143.962000
  H    -86.832300   54.986100  143.174000
  H    -86.266900   53.525400  144.173000
  S    -82.120000   53.392300  135.600000
  C    -80.509500   52.806000  135.492000
  C    -80.157500   52.113800  136.646000
  C    -81.161900   52.104800  137.654000
  C    -82.250800   52.954800  137.337000
  H    -79.210100   51.570300  136.798000
  C    -80.862100   51.342900  138.948000
  H    -80.932200   50.302800  138.636000
  H    -81.594600   51.688500  139.633000
  C    -79.428500   51.435300  139.542000
  H    -78.669900   51.111000  138.852000
  H    -79.428600   50.762600  140.417000
  C    -79.069700   52.866300  140.000000
  H    -77.980300   52.781200  140.324000
  H    -79.734200   53.221900  140.825000
  H    -79.041200   53.659700  139.341000
  H    -86.739100   54.647200  138.817000
  H    -79.708400   53.103000  134.851000

 Total Charge           Charge          ....    0
 Multiplicity           Mult            ....    1
 Number of Electrons    NEL             ....  134
 Basis Dimension        Dim             ....  322

ORBITAL ENERGIES
----------------

  NO   OCC          E(Eh)            E(eV)
   0   2.0000     -88.966580     -2420.9037
   1   2.0000     -88.963879     -2420.8302
   2   2.0000     -10.337455      -281.2964
   3   2.0000     -10.336004      -281.2570
   4   2.0000     -10.316253      -280.7195
   5   2.0000     -10.309694      -280.5410
   6   2.0000     -10.308679      -280.5134
   7   2.0000     -10.300751      -280.2977
   8   2.0000     -10.296962      -280.1946
   9   2.0000     -10.295752      -280.1617
  10   2.0000     -10.294465      -280.1266
  11   2.0000     -10.293169      -280.0914
  12   2.0000     -10.292446      -280.0717
  13   2.0000     -10.290967      -280.0315
  14   2.0000     -10.280808      -279.7550
  15   2.0000     -10.277180      -279.6563
  16   2.0000      -8.081266      -219.9024
  17   2.0000      -8.078838      -219.8364
  18   2.0000      -6.039871      -164.3532
  19   2.0000      -6.037525      -164.2894
  20   2.0000      -6.035828      -164.2432
  21   2.0000      -6.033303      -164.1745
  22   2.0000      -6.031857      -164.1352
  23   2.0000      -6.029405      -164.0685
  24   2.0000      -1.005141       -27.3513
  25   2.0000      -0.984388       -26.7866
  26   2.0000      -0.912141       -24.8206
  27   2.0000      -0.908993       -24.7350
  28   2.0000      -0.872952       -23.7542
  29   2.0000      -0.852346       -23.1935
  30   2.0000      -0.845700       -23.0127
  31   2.0000      -0.813716       -22.1423
  32   2.0000      -0.784156       -21.3380
  33   2.0000      -0.771184       -20.9850
  34   2.0000      -0.714183       -19.4339
  35   2.0000      -0.701876       -19.0990
  36   2.0000      -0.700237       -19.0544
  37   2.0000      -0.659635       -17.9496
  38   2.0000      -0.639694       -17.4069
  39   2.0000      -0.615854       -16.7582
  40   2.0000      -0.594578       -16.1793
  41   2.0000      -0.565610       -15.3910
  42   2.0000      -0.561844       -15.2886
  43   2.0000      -0.557076       -15.1588
  44   2.0000      -0.535850       -14.5812
  45   2.0000      -0.528300       -14.3758
  46   2.0000      -0.524297       -14.2668
  47   2.0000      -0.515633       -14.0311
  48   2.0000      -0.514139       -13.9904
  49   2.0000      -0.509878       -13.8745
  50   2.0000      -0.492925       -13.4132
  51   2.0000      -0.485439       -13.2095
  52   2.0000      -0.469677       -12.7806
  53   2.0000      -0.460954       -12.5432
  54   2.0000      -0.453573       -12.3423
  55   2.0000      -0.451992       -12.2993
  56   2.0000      -0.450958       -12.2712
  57   2.0000      -0.433320       -11.7912
  58   2.0000      -0.428549       -11.6614
  59   2.0000      -0.421221       -11.4620
  60   2.0000      -0.418681       -11.3929
  61   2.0000      -0.417766       -11.3680
  62   2.0000      -0.405232       -11.0269
  63   2.0000      -0.358090        -9.7441
  64   2.0000      -0.331786        -9.0284
  65   2.0000      -0.322995        -8.7891
  66   2.0000      -0.280558        -7.6344
  67   0.0000       0.017299         0.4707
  68   0.0000       0.066253         1.8028
  69   0.0000       0.099300         2.7021
  70   0.0000       0.114179         3.1070
  71   0.0000       0.128732         3.5030

MULLIKEN ATOMIC CHARGES
-----------------------
   0 S :    0.095345
   1 C :   -0.095254
   2 C :   -0.093017
   3 C :    0.008486
   4 C :   -0.129050
   5 H :    0.019022
   6 C :    0.041804
   7 H :    0.008883
   8 H :    0.026178
   9 C :   -0.060103
  10 H :    0.037332
  11 H :    0.023504
  12 C :   -0.029292
  13 H :    0.016351
  14 H :    0.045133
  15 H :    0.024628
  16 S :    0.099414
  17 C :   -0.053563
  18 C :   -0.078605
  19 C :   -0.056829
  20 C :   -0.162252
  21 H :    0.026716
  22 C :    0.105799
  23 H :    0.042165
  24 H :    0.011516
  25 C :   -0.077553
  26 H :    0.026920
  27 H :    0.042717
  28 C :   -0.064611
  29 H :    0.036069
  30 H :    0.034862
  31 H :    0.025743
  32 H :    0.041918
  33 H :    0.059625
Sum of atomic charges:   -0.0000000

LOEWDIN ATOMIC CHARGES
----------------------
   0 S :    0.402687
   1 C :   -0.196616
   2 C :   -0.070261
   3 C :   -0.072713
   4 C :   -0.185585
   5 H :    0.031286
   6 C :   -0.037818
   7 H :    0.020314
   8 H :    0.038973
   9 C :   -0.039127
  10 H :    0.025452
  11 H :    0.025358
  12 C :   -0.069095
  13 H :    0.020260
  14 H :    0.036947
  15 H :    0.023509
  16 S :    0.401275
  17 C :   -0.194985
  18 C :   -0.076457
  19 C :   -0.052796
  20 C :   -0.186961
  21 H :    0.033297
  22 C :   -0.026627
  23 H :    0.040315
  24 H :    0.023258
  25 C :   -0.036118
  26 H :    0.018540
  27 H :    0.033377
  28 C :   -0.069920
  29 H :    0.035637
  30 H :    0.027695
  31 H :    0.013093
  32 H :    0.030563
  33 H :    0.033244

  Mayer bond orders larger than 0.100000
B(  0-S ,  1-C ) :   1.1195 B(  0-S ,  4-C ) :   1.1552 B(  1-C ,  2-C ) :   1.6119
B(  1-C , 32-H ) :   0.9754 B(  2-C ,  3-C ) :   1.2208 B(  2-C ,  6-C ) :   1.0480
B(  3-C ,  4-C ) :   1.5425 B(  3-C ,  5-H ) :   0.9907 B(  4-C , 20-C ) :   1.0926
B(  6-C ,  7-H ) :   0.9377 B(  6-C ,  8-H ) :   0.9369 B(  6-C ,  9-C ) :   1.0401
B(  9-C , 10-H ) :   0.9610 B(  9-C , 11-H ) :   0.9525 B(  9-C , 12-C ) :   1.0860
B( 12-C , 13-H ) :   0.9721 B( 12-C , 14-H ) :   0.9748 B( 12-C , 15-H ) :   0.9692
B( 16-S , 17-C ) :   1.1625 B( 16-S , 20-C ) :   1.1251 B( 17-C , 18-C ) :   1.5978
B( 17-C , 20-C ) :   0.1020 B( 17-C , 33-H ) :   0.9630 B( 18-C , 19-C ) :   1.2610
B( 18-C , 21-H ) :   0.9804 B( 19-C , 20-C ) :   1.5548 B( 19-C , 22-C ) :   1.0336
B( 22-C , 23-H ) :   0.9227 B( 22-C , 24-H ) :   0.9384 B( 22-C , 25-C ) :   1.0851
B( 25-C , 26-H ) :   0.9505 B( 25-C , 27-H ) :   0.9525 B( 25-C , 28-C ) :   1.0722
B( 28-C , 29-H ) :   0.9734 B( 28-C , 30-H ) :   0.9751 B( 28-C , 31-H ) :   0.9786

Dispersion correction           -0.013888136
FINAL SINGLE POINT ENERGY     -1339.846113518895

DIPOLE MOMENT
-------------
                                X             Y             Z
Electronic contribution:     -6.09481       2.28402     -29.99341
Nuclear contribution   :      6.56039      -2.40076      30.69826
                        -----------------------------------------
Total Dipole Moment    :      0.46558      -0.11674       0.70484
                        -----------------------------------------
Magnitude (a.u.)       :      0.85276
Magnitude (Debye)      :      2.16754

Rotational constants in cm-1:     0.018812     0.008451     0.006143
Rotational constants in MHz :   563.972810   253.353150   184.177159

                             ****ORCA TERMINATED NORMALLY****
TOTAL RUN TIME: 0 days 0 hours 0 minutes 33 seconds 914 msec
