                         Program Version 4.2.1 -  RELEASE  -
|  1> ! wB97X-D3 SP def2-SVP
|  2> %pal
|  3> nprocs 16
|  4> end
|  5>
|  6> * xyz 0 1
|  7> S 	 -43.4856 	 55.6461 	 107.917
|  8> C 	 -44.6224 	 56.7095 	 108.838
|  9> C 	 -44.0447 	 57.9816 	 109.076
| 10> C 	 -42.6177 	 58.0215 	 108.705
| 11> C 	 -42.1233 	 56.8003 	 108.204
| 12> H 	 -41.8857 	 58.8251 	 108.744
| 13> C 	 -44.8014 	 59.2115 	 109.533
| 14> H 	 -44.2263 	 59.7188 	 110.29
| 15> H 	 -45.7231 	 59.042 	 110.105
| 16> C 	 -44.9847 	 60.2938 	 108.445
| 17> H 	 -44.1141 	 60.4471 	 107.822
| 18> H 	 -45.7316 	 59.9565 	 107.762
| 19> C 	 -45.6409 	 61.5801 	 109.038
| 20> H 	 -46.5452 	 61.2599 	 109.59
| 21> H 	 -44.9067 	 62.1146 	 109.702
| 22> H 	 -45.843 	 62.2457 	 108.202
| 23> S 	 -40.2608 	 54.8659 	 108.92
| 24> C 	 -38.6335 	 54.9323 	 108.283
| 25> C 	 -38.4016 	 56.1135 	 107.643
| 26> C 	 -39.5551 	 56.9566 	 107.563
| 27> C 	 -40.7328 	 56.3461 	 108.044
| 28> H 	 -37.4063 	 56.3066 	 107.156
| 29> C 	 -39.4015 	 58.3768 	 107.047
| 30> H 	 -40.3455 	 58.6618 	 106.605
| 31> H 	 -38.6401 	 58.3209 	 106.243
| 32> C 	 -38.9385 	 59.5074 	 107.932
| 33> H 	 -38.0729 	 59.0131 	 108.34
| 34> H 	 -39.8259 	 59.7495 	 108.61
| 35> C 	 -38.4795 	 60.7288 	 107.099
| 36> H 	 -39.2485 	 61.4203 	 106.93
| 37> H 	 -38.2563 	 60.4001 	 106.099
| 38> H 	 -37.6654 	 61.2184 	 107.462
| 39> H 	 -45.6982 	 56.5628 	 108.917
| 40> H 	 -37.8792 	 54.2397 	 108.537
| 41> *
| 42>
| 43>                          ****END OF INPUT****

CARTESIAN COORDINATES (ANGSTROEM)
---------------------------------
  S    -43.485600   55.646100  107.917000
  C    -44.622400   56.709500  108.838000
  C    -44.044700   57.981600  109.076000
  C    -42.617700   58.021500  108.705000
  C    -42.123300   56.800300  108.204000
  H    -41.885700   58.825100  108.744000
  C    -44.801400   59.211500  109.533000
  H    -44.226300   59.718800  110.290000
  H    -45.723100   59.042000  110.105000
  C    -44.984700   60.293800  108.445000
  H    -44.114100   60.447100  107.822000
  H    -45.731600   59.956500  107.762000
  C    -45.640900   61.580100  109.038000
  H    -46.545200   61.259900  109.590000
  H    -44.906700   62.114600  109.702000
  H    -45.843000   62.245700  108.202000
  S    -40.260800   54.865900  108.920000
  C    -38.633500   54.932300  108.283000
  C    -38.401600   56.113500  107.643000
  C    -39.555100   56.956600  107.563000
  C    -40.732800   56.346100  108.044000
  H    -37.406300   56.306600  107.156000
  C    -39.401500   58.376800  107.047000
  H    -40.345500   58.661800  106.605000
  H    -38.640100   58.320900  106.243000
  C    -38.938500   59.507400  107.932000
  H    -38.072900   59.013100  108.340000
  H    -39.825900   59.749500  108.610000
  C    -38.479500   60.728800  107.099000
  H    -39.248500   61.420300  106.930000
  H    -38.256300   60.400100  106.099000
  H    -37.665400   61.218400  107.462000
  H    -45.698200   56.562800  108.917000
  H    -37.879200   54.239700  108.537000

 Total Charge           Charge          ....    0
 Multiplicity           Mult            ....    1
 Number of Electrons    NEL             ....  134
 Basis Dimension        Dim             ....  322

ORBITAL ENERGIES
----------------

  NO   OCC          E(Eh)            E(eV)
   0   2.0000     -88.967777     -2420.9363
   1   2.0000     -88.965059     -2420.8623
   2   2.0000     -10.341489      -281.4062
   3   2.0000     -10.334903      -281.2270
   4   2.0000     -10.324548      -280.9452
   5   2.0000     -10.316480      -280.7257
   6   2.0000     -10.314969      -280.6846
   7   2.0000     -10.308441      -280.5069
   8   2.0000     -10.307359      -280.4775
   9   2.0000     -10.297552      -280.2106
  10   2.0000     -10.294921      -280.1390
  11   2.0000     -10.292878      -280.0835
  12   2.0000     -10.288742      -279.9709
  13   2.0000     -10.288144      -279.9546
  14   2.0000     -10.286269      -279.9036
  15   2.0000     -10.269168      -279.4383
  16   2.0000      -8.080556      -219.8831
  17   2.0000      -8.079371      -219.8509
  18   2.0000      -6.039364      -164.3394
  19   2.0000      -6.037940      -164.3007
  20   2.0000      -6.035406      -164.2318
  21   2.0000      -6.033973      -164.1927
  22   2.0000      -6.031019      -164.1124
  23   2.0000      -6.030018      -164.0851
  24   2.0000      -0.998309       -27.1654
  25   2.0000      -0.971694       -26.4411
  26   2.0000      -0.916481       -24.9387
  27   2.0000      -0.910000       -24.7624
  28   2.0000      -0.866690       -23.5838
  29   2.0000      -0.851842       -23.1798
  30   2.0000      -0.840022       -22.8581
  31   2.0000      -0.814156       -22.1543
  32   2.0000      -0.785403       -21.3719
  33   2.0000      -0.771426       -20.9916
  34   2.0000      -0.709474       -19.3058
  35   2.0000      -0.700967       -19.0743
  36   2.0000      -0.693598       -18.8738
  37   2.0000      -0.660316       -17.9681
  38   2.0000      -0.644132       -17.5277
  39   2.0000      -0.614282       -16.7155
  40   2.0000      -0.598277       -16.2800
  41   2.0000      -0.577229       -15.7072
  42   2.0000      -0.567463       -15.4414
  43   2.0000      -0.560821       -15.2607
  44   2.0000      -0.531231       -14.4555
  45   2.0000      -0.526567       -14.3286
  46   2.0000      -0.518671       -14.1138
  47   2.0000      -0.512268       -13.9395
  48   2.0000      -0.503733       -13.7073
  49   2.0000      -0.496397       -13.5077
  50   2.0000      -0.491132       -13.3644
  51   2.0000      -0.479236       -13.0407
  52   2.0000      -0.468178       -12.7398
  53   2.0000      -0.464272       -12.6335
  54   2.0000      -0.458579       -12.4786
  55   2.0000      -0.454774       -12.3750
  56   2.0000      -0.448940       -12.2163
  57   2.0000      -0.438175       -11.9233
  58   2.0000      -0.431441       -11.7401
  59   2.0000      -0.423914       -11.5353
  60   2.0000      -0.421950       -11.4818
  61   2.0000      -0.416610       -11.3365
  62   2.0000      -0.413304       -11.2466
  63   2.0000      -0.349334        -9.5059
  64   2.0000      -0.328404        -8.9363
  65   2.0000      -0.324080        -8.8187
  66   2.0000      -0.291655        -7.9363
  67   0.0000       0.018558         0.5050
  68   0.0000       0.064649         1.7592
  69   0.0000       0.097368         2.6495
  70   0.0000       0.109907         2.9907
  71   0.0000       0.126067         3.4305

MULLIKEN ATOMIC CHARGES
-----------------------
   0 S :    0.095228
   1 C :   -0.110007
   2 C :   -0.075007
   3 C :    0.055881
   4 C :   -0.172754
   5 H :   -0.004526
   6 C :    0.057552
   7 H :    0.014640
   8 H :    0.020450
   9 C :   -0.076510
  10 H :    0.031172
  11 H :    0.019339
  12 C :   -0.070268
  13 H :    0.043838
  14 H :    0.040188
  15 H :    0.041655
  16 S :    0.103398
  17 C :   -0.074638
  18 C :   -0.052544
  19 C :   -0.028253
  20 C :   -0.129327
  21 H :    0.041318
  22 C :    0.004765
  23 H :    0.016236
  24 H :    0.017864
  25 C :   -0.057792
  26 H :    0.022867
  27 H :    0.052242
  28 C :    0.023263
  29 H :    0.017499
  30 H :    0.007540
  31 H :    0.019392
  32 H :    0.057984
  33 H :    0.047313
Sum of atomic charges:   -0.0000000

LOEWDIN ATOMIC CHARGES
----------------------
   0 S :    0.360055
   1 C :   -0.183960
   2 C :   -0.052092
   3 C :   -0.057246
   4 C :   -0.173928
   5 H :    0.028423
   6 C :   -0.039380
   7 H :    0.027753
   8 H :    0.031926
   9 C :   -0.038020
  10 H :    0.022360
  11 H :    0.019818
  12 C :   -0.064640
  13 H :    0.029821
  14 H :    0.026593
  15 H :    0.027603
  16 S :    0.400936
  17 C :   -0.175694
  18 C :   -0.081467
  19 C :   -0.054165
  20 C :   -0.193488
  21 H :    0.042195
  22 C :   -0.040775
  23 H :    0.021195
  24 H :    0.028652
  25 C :   -0.036861
  26 H :    0.025292
  27 H :    0.031121
  28 C :   -0.050312
  29 H :    0.022636
  30 H :    0.025296
  31 H :    0.015636
  32 H :    0.031243
  33 H :    0.023473

  Mayer bond orders larger than 0.100000
B(  0-S ,  1-C ) :   1.1149 B(  0-S ,  4-C ) :   1.1336 B(  1-C ,  2-C ) :   1.6311
B(  1-C , 32-H ) :   0.9653 B(  2-C ,  3-C ) :   1.2000 B(  2-C ,  6-C ) :   1.0355
B(  3-C ,  4-C ) :   1.5933 B(  3-C ,  5-H ) :   0.9851 B(  4-C , 20-C ) :   1.0443
B(  6-C ,  7-H ) :   0.9381 B(  6-C ,  8-H ) :   0.9434 B(  6-C ,  9-C ) :   1.0512
B(  9-C , 10-H ) :   0.9588 B(  9-C , 11-H ) :   0.9548 B(  9-C , 12-C ) :   1.0733
B( 12-C , 13-H ) :   0.9740 B( 12-C , 14-H ) :   0.9778 B( 12-C , 15-H ) :   0.9754
B( 16-S , 17-C ) :   1.1568 B( 16-S , 20-C ) :   1.1348 B( 17-C , 18-C ) :   1.6098
B( 17-C , 33-H ) :   0.9703 B( 18-C , 19-C ) :   1.2429 B( 18-C , 21-H ) :   0.9798
B( 19-C , 20-C ) :   1.5797 B( 19-C , 22-C ) :   1.0567 B( 22-C , 23-H ) :   0.9287
B( 22-C , 24-H ) :   0.9330 B( 22-C , 25-C ) :   1.0693 B( 25-C , 26-H ) :   0.9515
B( 25-C , 27-H ) :   0.9503 B( 25-C , 28-C ) :   1.0779 B( 28-C , 29-H ) :   0.9715
B( 28-C , 30-H ) :   0.9707 B( 28-C , 31-H ) :   0.9749

Dispersion correction           -0.013610198
FINAL SINGLE POINT ENERGY     -1339.851178734567

DIPOLE MOMENT
-------------
                                X             Y             Z
Electronic contribution:      1.31649     -32.13412       1.83288
Nuclear contribution   :     -1.13826      32.92276      -1.90017
                        -----------------------------------------
Total Dipole Moment    :      0.17823       0.78864      -0.06730
                        -----------------------------------------
Magnitude (a.u.)       :      0.81132
Magnitude (Debye)      :      2.06221

Rotational constants in cm-1:     0.016625     0.008852     0.006101
Rotational constants in MHz :   498.405596   265.377615   182.908573

                             ****ORCA TERMINATED NORMALLY****
TOTAL RUN TIME: 0 days 0 hours 0 minutes 29 seconds 570 msec
