                         Program Version 4.2.1 -  RELEASE  -
|  1> ! wB97X-D3 SP def2-SVP
|  2> %pal
|  3> nprocs 16
|  4> end
|  5>
|  6> * xyz 0 1
|  7> S 	 -73.2449 	 52.0594 	 125.847
|  8> C 	 -73.5535 	 53.7138 	 126.281
|  9> C 	 -74.2044 	 54.3841 	 125.296
| 10> C 	 -74.5651 	 53.5319 	 124.218
| 11> C 	 -74.3928 	 52.1542 	 124.503
| 12> H 	 -74.9659 	 53.8249 	 123.224
| 13> C 	 -74.4754 	 55.8709 	 125.313
| 14> H 	 -75.3252 	 56.0422 	 125.95
| 15> H 	 -74.7975 	 56.2449 	 124.308
| 16> C 	 -73.2817 	 56.7096 	 125.791
| 17> H 	 -72.9246 	 56.4185 	 126.827
| 18> H 	 -72.3916 	 56.5177 	 125.143
| 19> C 	 -73.5602 	 58.2135 	 125.777
| 20> H 	 -72.6349 	 58.7835 	 125.821
| 21> H 	 -74.0376 	 58.4495 	 124.774
| 22> H 	 -74.1218 	 58.5772 	 126.623
| 23> S 	 -73.1742 	 50.2511 	 123.057
| 24> C 	 -74.1279 	 49.0525 	 122.281
| 25> C 	 -75.4839 	 49.2573 	 122.423
| 26> C 	 -75.8329 	 50.3772 	 123.22
| 27> C 	 -74.6638 	 51.0237 	 123.71
| 28> H 	 -76.1469 	 48.5225 	 121.969
| 29> C 	 -77.1993 	 50.8211 	 123.624
| 30> H 	 -77.8699 	 50.7722 	 122.771
| 31> H 	 -77.1681 	 51.9082 	 123.885
| 32> C 	 -77.8326 	 49.9343 	 124.753
| 33> H 	 -77.0288 	 49.9698 	 125.51
| 34> H 	 -78.0051 	 48.9274 	 124.322
| 35> C 	 -79.1353 	 50.5322 	 125.285
| 36> H 	 -79.4692 	 50.0061 	 126.16
| 37> H 	 -79.9909 	 50.3152 	 124.637
| 38> H 	 -79.0772 	 51.6192 	 125.411
| 39> H 	 -73.0666 	 54.2483 	 127.055
| 40> H 	 -73.7063 	 48.2787 	 121.72
| 41> *
| 42>
| 43>                          ****END OF INPUT****

CARTESIAN COORDINATES (ANGSTROEM)
---------------------------------
  S    -73.244900   52.059400  125.847000
  C    -73.553500   53.713800  126.281000
  C    -74.204400   54.384100  125.296000
  C    -74.565100   53.531900  124.218000
  C    -74.392800   52.154200  124.503000
  H    -74.965900   53.824900  123.224000
  C    -74.475400   55.870900  125.313000
  H    -75.325200   56.042200  125.950000
  H    -74.797500   56.244900  124.308000
  C    -73.281700   56.709600  125.791000
  H    -72.924600   56.418500  126.827000
  H    -72.391600   56.517700  125.143000
  C    -73.560200   58.213500  125.777000
  H    -72.634900   58.783500  125.821000
  H    -74.037600   58.449500  124.774000
  H    -74.121800   58.577200  126.623000
  S    -73.174200   50.251100  123.057000
  C    -74.127900   49.052500  122.281000
  C    -75.483900   49.257300  122.423000
  C    -75.832900   50.377200  123.220000
  C    -74.663800   51.023700  123.710000
  H    -76.146900   48.522500  121.969000
  C    -77.199300   50.821100  123.624000
  H    -77.869900   50.772200  122.771000
  H    -77.168100   51.908200  123.885000
  C    -77.832600   49.934300  124.753000
  H    -77.028800   49.969800  125.510000
  H    -78.005100   48.927400  124.322000
  C    -79.135300   50.532200  125.285000
  H    -79.469200   50.006100  126.160000
  H    -79.990900   50.315200  124.637000
  H    -79.077200   51.619200  125.411000
  H    -73.066600   54.248300  127.055000
  H    -73.706300   48.278700  121.720000

 Total Charge           Charge          ....    0
 Multiplicity           Mult            ....    1
 Number of Electrons    NEL             ....  134
 Basis Dimension        Dim             ....  322

ORBITAL ENERGIES
----------------

  NO   OCC          E(Eh)            E(eV)
   0   2.0000     -88.963371     -2420.8164
   1   2.0000     -88.962690     -2420.7979
   2   2.0000     -10.327651      -281.0297
   3   2.0000     -10.325475      -280.9704
   4   2.0000     -10.310692      -280.5682
   5   2.0000     -10.308019      -280.4955
   6   2.0000     -10.305627      -280.4304
   7   2.0000     -10.299200      -280.2555
   8   2.0000     -10.296478      -280.1814
   9   2.0000     -10.295047      -280.1425
  10   2.0000     -10.294786      -280.1354
  11   2.0000     -10.293034      -280.0877
  12   2.0000     -10.290479      -280.0182
  13   2.0000     -10.289842      -280.0008
  14   2.0000     -10.282106      -279.7903
  15   2.0000     -10.275757      -279.6176
  16   2.0000      -8.078215      -219.8194
  17   2.0000      -8.077467      -219.7991
  18   2.0000      -6.036547      -164.2628
  19   2.0000      -6.035956      -164.2467
  20   2.0000      -6.032700      -164.1581
  21   2.0000      -6.032122      -164.1424
  22   2.0000      -6.029152      -164.0616
  23   2.0000      -6.028078      -164.0323
  24   2.0000      -1.006082       -27.3769
  25   2.0000      -0.982910       -26.7463
  26   2.0000      -0.912616       -24.8335
  27   2.0000      -0.906540       -24.6682
  28   2.0000      -0.872497       -23.7418
  29   2.0000      -0.851893       -23.1812
  30   2.0000      -0.844708       -22.9857
  31   2.0000      -0.810851       -22.0644
  32   2.0000      -0.783083       -21.3088
  33   2.0000      -0.768706       -20.9176
  34   2.0000      -0.711218       -19.3532
  35   2.0000      -0.698541       -19.0083
  36   2.0000      -0.692807       -18.8522
  37   2.0000      -0.658691       -17.9239
  38   2.0000      -0.637995       -17.3607
  39   2.0000      -0.612639       -16.6707
  40   2.0000      -0.596650       -16.2357
  41   2.0000      -0.573671       -15.6104
  42   2.0000      -0.566511       -15.4156
  43   2.0000      -0.557373       -15.1669
  44   2.0000      -0.525728       -14.3058
  45   2.0000      -0.521680       -14.1956
  46   2.0000      -0.518539       -14.1102
  47   2.0000      -0.508023       -13.8240
  48   2.0000      -0.506027       -13.7697
  49   2.0000      -0.501740       -13.6530
  50   2.0000      -0.498582       -13.5671
  51   2.0000      -0.475982       -12.9521
  52   2.0000      -0.472051       -12.8452
  53   2.0000      -0.459647       -12.5076
  54   2.0000      -0.455450       -12.3934
  55   2.0000      -0.447937       -12.1890
  56   2.0000      -0.444726       -12.1016
  57   2.0000      -0.434043       -11.8109
  58   2.0000      -0.432158       -11.7596
  59   2.0000      -0.429067       -11.6755
  60   2.0000      -0.424313       -11.5461
  61   2.0000      -0.416749       -11.3403
  62   2.0000      -0.412649       -11.2287
  63   2.0000      -0.337386        -9.1807
  64   2.0000      -0.331383        -9.0174
  65   2.0000      -0.324783        -8.8378
  66   2.0000      -0.288384        -7.8473
  67   0.0000       0.024325         0.6619
  68   0.0000       0.057450         1.5633
  69   0.0000       0.109955         2.9920
  70   0.0000       0.124818         3.3965
  71   0.0000       0.131625         3.5817

MULLIKEN ATOMIC CHARGES
-----------------------
   0 S :    0.102630
   1 C :   -0.090846
   2 C :   -0.078651
   3 C :    0.031697
   4 C :   -0.179721
   5 H :    0.029046
   6 C :    0.091046
   7 H :    0.037930
   8 H :    0.021493
   9 C :   -0.143299
  10 H :    0.035705
  11 H :    0.041707
  12 C :   -0.042704
  13 H :    0.030712
  14 H :    0.035141
  15 H :    0.036814
  16 S :    0.103160
  17 C :   -0.063654
  18 C :   -0.052006
  19 C :    0.006017
  20 C :   -0.191486
  21 H :    0.018250
  22 C :    0.049159
  23 H :    0.015887
  24 H :    0.029981
  25 C :   -0.083908
  26 H :    0.042465
  27 H :    0.037830
  28 C :   -0.022227
  29 H :    0.028876
  30 H :    0.019964
  31 H :    0.037917
  32 H :    0.029510
  33 H :    0.035565
Sum of atomic charges:   -0.0000000

LOEWDIN ATOMIC CHARGES
----------------------
   0 S :    0.401826
   1 C :   -0.192734
   2 C :   -0.069059
   3 C :   -0.056977
   4 C :   -0.200551
   5 H :    0.036230
   6 C :   -0.031538
   7 H :    0.033380
   8 H :    0.032654
   9 C :   -0.050090
  10 H :    0.024391
  11 H :    0.029606
  12 C :   -0.069829
  13 H :    0.026977
  14 H :    0.031456
  15 H :    0.023291
  16 S :    0.401637
  17 C :   -0.181217
  18 C :   -0.075753
  19 C :   -0.045707
  20 C :   -0.192022
  21 H :    0.033376
  22 C :   -0.037979
  23 H :    0.025835
  24 H :    0.033573
  25 C :   -0.035061
  26 H :    0.028711
  27 H :    0.028187
  28 C :   -0.069122
  29 H :    0.026039
  30 H :    0.025804
  31 H :    0.028222
  32 H :    0.019485
  33 H :    0.016958

  Mayer bond orders larger than 0.100000
B(  0-S ,  1-C ) :   1.1394 B(  0-S ,  4-C ) :   1.1432 B(  1-C ,  2-C ) :   1.6081
B(  1-C ,  4-C ) :   0.1061 B(  1-C , 32-H ) :   0.9704 B(  2-C ,  3-C ) :   1.2566
B(  2-C ,  6-C ) :   1.0127 B(  3-C ,  4-C ) :   1.5370 B(  3-C ,  5-H ) :   0.9883
B(  4-C , 20-C ) :   1.0876 B(  6-C ,  7-H ) :   0.9332 B(  6-C ,  8-H ) :   0.9428
B(  6-C ,  9-C ) :   1.0594 B(  9-C , 10-H ) :   0.9487 B(  9-C , 11-H ) :   0.9612
B(  9-C , 12-C ) :   1.0880 B( 12-C , 13-H ) :   0.9732 B( 12-C , 14-H ) :   0.9716
B( 12-C , 15-H ) :   0.9753 B( 16-S , 17-C ) :   1.1631 B( 16-S , 20-C ) :   1.1431
B( 17-C , 18-C ) :   1.6039 B( 17-C , 20-C ) :   0.1095 B( 17-C , 33-H ) :   0.9731
B( 18-C , 19-C ) :   1.2332 B( 18-C , 21-H ) :   0.9927 B( 19-C , 20-C ) :   1.5625
B( 19-C , 22-C ) :   1.0649 B( 22-C , 23-H ) :   0.9258 B( 22-C , 24-H ) :   0.9307
B( 22-C , 25-C ) :   1.0512 B( 25-C , 26-H ) :   0.9592 B( 25-C , 27-H ) :   0.9546
B( 25-C , 28-C ) :   1.0875 B( 28-C , 29-H ) :   0.9714 B( 28-C , 30-H ) :   0.9705
B( 28-C , 31-H ) :   0.9745

Dispersion correction           -0.013471789
FINAL SINGLE POINT ENERGY     -1339.877967035388

DIPOLE MOMENT
-------------
                                X             Y             Z
Electronic contribution:     16.65345     -17.62022      -5.24328
Nuclear contribution   :    -17.03433      17.96431       5.08132
                        -----------------------------------------
Total Dipole Moment    :     -0.38088       0.34409      -0.16196
                        -----------------------------------------
Magnitude (a.u.)       :      0.53824
Magnitude (Debye)      :      1.36809

Rotational constants in cm-1:     0.020120     0.007443     0.006148
Rotational constants in MHz :   603.174375   223.130389   184.303844

                             ****ORCA TERMINATED NORMALLY****
TOTAL RUN TIME: 0 days 0 hours 0 minutes 34 seconds 814 msec
