                         Program Version 4.2.1 -  RELEASE  -
|  1> ! wB97X-D3 SP def2-SVP
|  2> %pal
|  3> nprocs 16
|  4> end
|  5>
|  6> * xyz 0 1
|  7> S 	 -111.717 	 54.0901 	 113.768
|  8> C 	 -111.739 	 54.2401 	 112.068
|  9> C 	 -110.833 	 53.412 	 111.336
| 10> C 	 -110.122 	 52.6003 	 112.288
| 11> C 	 -110.471 	 52.8235 	 113.625
| 12> H 	 -109.354 	 51.8991 	 112.091
| 13> C 	 -110.506 	 53.3169 	 109.847
| 14> H 	 -111.41 	 53.3574 	 109.332
| 15> H 	 -110.235 	 52.3138 	 109.477
| 16> C 	 -109.391 	 54.3058 	 109.331
| 17> H 	 -109.099 	 54.0672 	 108.269
| 18> H 	 -109.874 	 55.2756 	 109.31
| 19> C 	 -108.136 	 54.4199 	 110.157
| 20> H 	 -107.43 	 55.0644 	 109.638
| 21> H 	 -108.494 	 54.8638 	 111.134
| 22> H 	 -107.681 	 53.4724 	 110.389
| 23> S 	 -109.451 	 52.8467 	 116.096
| 24> C 	 -109.305 	 51.391 	 116.998
| 25> C 	 -109.706 	 50.3118 	 116.19
| 26> C 	 -110.119 	 50.5764 	 114.867
| 27> C 	 -110.202 	 51.9502 	 114.736
| 28> H 	 -109.496 	 49.3702 	 116.66
| 29> C 	 -110.443 	 49.3906 	 113.997
| 30> H 	 -110.041 	 48.4539 	 114.482
| 31> H 	 -109.953 	 49.4755 	 113.062
| 32> C 	 -111.983 	 49.138 	 113.806
| 33> H 	 -112.565 	 49.1151 	 114.745
| 34> H 	 -112.113 	 48.1412 	 113.284
| 35> C 	 -112.773 	 50.0869 	 112.883
| 36> H 	 -113.061 	 51.044 	 113.26
| 37> H 	 -113.756 	 49.6396 	 112.604
| 38> H 	 -112.192 	 50.1526 	 111.933
| 39> H 	 -112.312 	 54.8688 	 111.543
| 40> H 	 -109.042 	 51.388 	 118.044
| 41> *
| 42>
| 43>                          ****END OF INPUT****

CARTESIAN COORDINATES (ANGSTROEM)
---------------------------------
  S    -111.717000   54.090100  113.768000
  C    -111.739000   54.240100  112.068000
  C    -110.833000   53.412000  111.336000
  C    -110.122000   52.600300  112.288000
  C    -110.471000   52.823500  113.625000
  H    -109.354000   51.899100  112.091000
  C    -110.506000   53.316900  109.847000
  H    -111.410000   53.357400  109.332000
  H    -110.235000   52.313800  109.477000
  C    -109.391000   54.305800  109.331000
  H    -109.099000   54.067200  108.269000
  H    -109.874000   55.275600  109.310000
  C    -108.136000   54.419900  110.157000
  H    -107.430000   55.064400  109.638000
  H    -108.494000   54.863800  111.134000
  H    -107.681000   53.472400  110.389000
  S    -109.451000   52.846700  116.096000
  C    -109.305000   51.391000  116.998000
  C    -109.706000   50.311800  116.190000
  C    -110.119000   50.576400  114.867000
  C    -110.202000   51.950200  114.736000
  H    -109.496000   49.370200  116.660000
  C    -110.443000   49.390600  113.997000
  H    -110.041000   48.453900  114.482000
  H    -109.953000   49.475500  113.062000
  C    -111.983000   49.138000  113.806000
  H    -112.565000   49.115100  114.745000
  H    -112.113000   48.141200  113.284000
  C    -112.773000   50.086900  112.883000
  H    -113.061000   51.044000  113.260000
  H    -113.756000   49.639600  112.604000
  H    -112.192000   50.152600  111.933000
  H    -112.312000   54.868800  111.543000
  H    -109.042000   51.388000  118.044000

 Total Charge           Charge          ....    0
 Multiplicity           Mult            ....    1
 Number of Electrons    NEL             ....  134
 Basis Dimension        Dim             ....  322

ORBITAL ENERGIES
----------------

  NO   OCC          E(Eh)            E(eV)
   0   2.0000     -88.972051     -2421.0526
   1   2.0000     -88.961216     -2420.7578
   2   2.0000     -10.326285      -280.9925
   3   2.0000     -10.324220      -280.9363
   4   2.0000     -10.313005      -280.6311
   5   2.0000     -10.310478      -280.5624
   6   2.0000     -10.308131      -280.4985
   7   2.0000     -10.305539      -280.4280
   8   2.0000     -10.300607      -280.2938
   9   2.0000     -10.293771      -280.1077
  10   2.0000     -10.293197      -280.0921
  11   2.0000     -10.292095      -280.0622
  12   2.0000     -10.289386      -279.9884
  13   2.0000     -10.288773      -279.9717
  14   2.0000     -10.275517      -279.6110
  15   2.0000     -10.273074      -279.5446
  16   2.0000      -8.086513      -220.0452
  17   2.0000      -8.076200      -219.7646
  18   2.0000      -6.044845      -164.4886
  19   2.0000      -6.041026      -164.3847
  20   2.0000      -6.037505      -164.2889
  21   2.0000      -6.034575      -164.2091
  22   2.0000      -6.030666      -164.1028
  23   2.0000      -6.027103      -164.0058
  24   2.0000      -1.004209       -27.3259
  25   2.0000      -0.980601       -26.6835
  26   2.0000      -0.907313       -24.6892
  27   2.0000      -0.904112       -24.6021
  28   2.0000      -0.866461       -23.5776
  29   2.0000      -0.852132       -23.1877
  30   2.0000      -0.847975       -23.0746
  31   2.0000      -0.807707       -21.9788
  32   2.0000      -0.786403       -21.3991
  33   2.0000      -0.775703       -21.1080
  34   2.0000      -0.703346       -19.1390
  35   2.0000      -0.695450       -18.9242
  36   2.0000      -0.686907       -18.6917
  37   2.0000      -0.663547       -18.0560
  38   2.0000      -0.646290       -17.5865
  39   2.0000      -0.616191       -16.7674
  40   2.0000      -0.598526       -16.2867
  41   2.0000      -0.569169       -15.4879
  42   2.0000      -0.549065       -14.9408
  43   2.0000      -0.547058       -14.8862
  44   2.0000      -0.541666       -14.7395
  45   2.0000      -0.536601       -14.6017
  46   2.0000      -0.518201       -14.1010
  47   2.0000      -0.506152       -13.7731
  48   2.0000      -0.500412       -13.6169
  49   2.0000      -0.494916       -13.4673
  50   2.0000      -0.490552       -13.3486
  51   2.0000      -0.476765       -12.9734
  52   2.0000      -0.470286       -12.7971
  53   2.0000      -0.465949       -12.6791
  54   2.0000      -0.459174       -12.4948
  55   2.0000      -0.444079       -12.0840
  56   2.0000      -0.440036       -11.9740
  57   2.0000      -0.438925       -11.9438
  58   2.0000      -0.424891       -11.5619
  59   2.0000      -0.418602       -11.3907
  60   2.0000      -0.417126       -11.3506
  61   2.0000      -0.414832       -11.2882
  62   2.0000      -0.409998       -11.1566
  63   2.0000      -0.340309        -9.2603
  64   2.0000      -0.334704        -9.1078
  65   2.0000      -0.328708        -8.9446
  66   2.0000      -0.285945        -7.7810
  67   0.0000       0.026721         0.7271
  68   0.0000       0.062886         1.7112
  69   0.0000       0.104877         2.8539
  70   0.0000       0.112988         3.0746
  71   0.0000       0.134440         3.6583

MULLIKEN ATOMIC CHARGES
-----------------------
   0 S :    0.135450
   1 C :   -0.047306
   2 C :   -0.121282
   3 C :    0.026547
   4 C :   -0.144427
   5 H :    0.001303
   6 C :    0.094479
   7 H :    0.006024
   8 H :    0.017978
   9 C :   -0.089060
  10 H :    0.033285
  11 H :    0.025974
  12 C :   -0.050522
  13 H :    0.040965
  14 H :    0.054113
  15 H :    0.026776
  16 S :    0.092184
  17 C :   -0.097979
  18 C :   -0.060014
  19 C :    0.009168
  20 C :   -0.180861
  21 H :    0.009810
  22 C :    0.104919
  23 H :    0.033874
  24 H :    0.016335
  25 C :   -0.098745
  26 H :    0.037658
  27 H :    0.036420
  28 C :   -0.051703
  29 H :    0.034836
  30 H :    0.027317
  31 H :    0.026327
  32 H :   -0.010791
  33 H :    0.060950
Sum of atomic charges:   -0.0000000

LOEWDIN ATOMIC CHARGES
----------------------
   0 S :    0.424881
   1 C :   -0.188380
   2 C :   -0.056527
   3 C :   -0.047834
   4 C :   -0.203053
   5 H :    0.023679
   6 C :   -0.036353
   7 H :    0.023863
   8 H :    0.033486
   9 C :   -0.040698
  10 H :    0.025478
  11 H :    0.020985
  12 C :   -0.066962
  13 H :    0.028988
  14 H :    0.037274
  15 H :    0.019028
  16 S :    0.400906
  17 C :   -0.197906
  18 C :   -0.072041
  19 C :   -0.054518
  20 C :   -0.185150
  21 H :    0.025107
  22 C :   -0.023879
  23 H :    0.043088
  24 H :    0.024124
  25 C :   -0.042460
  26 H :    0.027514
  27 H :    0.030501
  28 C :   -0.070838
  29 H :    0.017183
  30 H :    0.028935
  31 H :    0.024984
  32 H :   -0.001388
  33 H :    0.027985

  Mayer bond orders larger than 0.100000
B(  0-S ,  1-C ) :   1.1710 B(  0-S ,  4-C ) :   1.1353 B(  1-C ,  2-C ) :   1.5817
B(  1-C ,  4-C ) :   0.1031 B(  1-C , 32-H ) :   0.9757 B(  2-C ,  3-C ) :   1.2414
B(  2-C ,  6-C ) :   1.0206 B(  3-C ,  4-C ) :   1.5761 B(  3-C ,  5-H ) :   1.0029
B(  4-C , 20-C ) :   1.0192 B(  6-C ,  7-H ) :   0.9346 B(  6-C ,  8-H ) :   0.9443
B(  6-C ,  9-C ) :   1.0545 B(  9-C , 10-H ) :   0.9580 B(  9-C , 11-H ) :   0.9589
B(  9-C , 12-C ) :   1.0862 B( 12-C , 13-H ) :   0.9715 B( 12-C , 14-H ) :   0.9665
B( 12-C , 15-H ) :   0.9756 B( 16-S , 17-C ) :   1.1600 B( 16-S , 20-C ) :   1.1575
B( 17-C , 18-C ) :   1.5959 B( 17-C , 20-C ) :   0.1109 B( 17-C , 33-H ) :   0.9701
B( 18-C , 19-C ) :   1.2354 B( 18-C , 21-H ) :   0.9889 B( 19-C , 20-C ) :   1.5761
B( 19-C , 22-C ) :   1.0371 B( 22-C , 23-H ) :   0.9316 B( 22-C , 24-H ) :   0.9302
B( 22-C , 25-C ) :   1.0699 B( 25-C , 26-H ) :   0.9559 B( 25-C , 27-H ) :   0.9572
B( 25-C , 28-C ) :   1.0808 B( 28-C , 29-H ) :   0.9747 B( 28-C , 30-H ) :   0.9718
B( 28-C , 31-H ) :   0.9728

Dispersion correction           -0.016041121
FINAL SINGLE POINT ENERGY     -1339.857416785005

DIPOLE MOMENT
-------------
                                X             Y             Z
Electronic contribution:     -0.08398       9.45716      20.91258
Nuclear contribution   :      0.11731      -9.89735     -21.37411
                        -----------------------------------------
Total Dipole Moment    :      0.03333      -0.44018      -0.46153
                        -----------------------------------------
Magnitude (a.u.)       :      0.63865
Magnitude (Debye)      :      1.62333

Rotational constants in cm-1:     0.019407     0.009251     0.008052
Rotational constants in MHz :   581.807739   277.340318   241.405546

                             ****ORCA TERMINATED NORMALLY****
TOTAL RUN TIME: 0 days 0 hours 0 minutes 33 seconds 435 msec
