                         Program Version 4.2.1 -  RELEASE  -
|  1> ! wB97X-D3 SP def2-SVP
|  2> %pal
|  3> nprocs 16
|  4> end
|  5>
|  6> * xyz 0 1
|  7> S 	 -91.2631 	 58.3328 	 127.597
|  8> C 	 -90.4882 	 57.1229 	 128.573
|  9> C 	 -89.8625 	 56.2315 	 127.769
| 10> C 	 -90.3879 	 56.265 	 126.458
| 11> C 	 -91.2274 	 57.3019 	 126.206
| 12> H 	 -90.0209 	 55.6524 	 125.654
| 13> C 	 -89.0339 	 55.055 	 128.204
| 14> H 	 -88.6165 	 55.4438 	 129.036
| 15> H 	 -88.3265 	 54.8665 	 127.411
| 16> C 	 -89.8996 	 53.7948 	 128.471
| 17> H 	 -90.857 	 54.125 	 128.918
| 18> H 	 -90.1953 	 53.4236 	 127.553
| 19> C 	 -89.1409 	 52.7445 	 129.326
| 20> H 	 -88.2263 	 52.3795 	 128.825
| 21> H 	 -88.9805 	 53.2131 	 130.283
| 22> H 	 -89.8105 	 51.8798 	 129.323
| 23> S 	 -91.2745 	 59.4224 	 124.582
| 24> C 	 -91.8618 	 59.3089 	 122.887
| 25> C 	 -92.2978 	 58.0425 	 122.67
| 26> C 	 -92.2075 	 57.1703 	 123.801
| 27> C 	 -91.6724 	 57.7498 	 124.928
| 28> H 	 -92.6874 	 57.7027 	 121.767
| 29> C 	 -92.6027 	 55.6629 	 123.655
| 30> H 	 -92.3412 	 55.1627 	 124.592
| 31> H 	 -91.8994 	 55.1194 	 122.993
| 32> C 	 -94.0702 	 55.464 	 123.166
| 33> H 	 -94.1916 	 55.9515 	 122.132
| 34> H 	 -94.7524 	 55.953 	 123.8
| 35> C 	 -94.6046 	 54.0341 	 123.077
| 36> H 	 -94.3042 	 53.4615 	 123.971
| 37> H 	 -94.2897 	 53.4305 	 122.214
| 38> H 	 -95.6697 	 53.8948 	 123.045
| 39> H 	 -90.2423 	 57.1402 	 129.596
| 40> H 	 -91.8152 	 60.1438 	 122.173
| 41> *
| 42>
| 43>                          ****END OF INPUT****

CARTESIAN COORDINATES (ANGSTROEM)
---------------------------------
  S    -91.263100   58.332800  127.597000
  C    -90.488200   57.122900  128.573000
  C    -89.862500   56.231500  127.769000
  C    -90.387900   56.265000  126.458000
  C    -91.227400   57.301900  126.206000
  H    -90.020900   55.652400  125.654000
  C    -89.033900   55.055000  128.204000
  H    -88.616500   55.443800  129.036000
  H    -88.326500   54.866500  127.411000
  C    -89.899600   53.794800  128.471000
  H    -90.857000   54.125000  128.918000
  H    -90.195300   53.423600  127.553000
  C    -89.140900   52.744500  129.326000
  H    -88.226300   52.379500  128.825000
  H    -88.980500   53.213100  130.283000
  H    -89.810500   51.879800  129.323000
  S    -91.274500   59.422400  124.582000
  C    -91.861800   59.308900  122.887000
  C    -92.297800   58.042500  122.670000
  C    -92.207500   57.170300  123.801000
  C    -91.672400   57.749800  124.928000
  H    -92.687400   57.702700  121.767000
  C    -92.602700   55.662900  123.655000
  H    -92.341200   55.162700  124.592000
  H    -91.899400   55.119400  122.993000
  C    -94.070200   55.464000  123.166000
  H    -94.191600   55.951500  122.132000
  H    -94.752400   55.953000  123.800000
  C    -94.604600   54.034100  123.077000
  H    -94.304200   53.461500  123.971000
  H    -94.289700   53.430500  122.214000
  H    -95.669700   53.894800  123.045000
  H    -90.242300   57.140200  129.596000
  H    -91.815200   60.143800  122.173000

 Total Charge           Charge          ....    0
 Multiplicity           Mult            ....    1
 Number of Electrons    NEL             ....  134
 Basis Dimension        Dim             ....  322

ORBITAL ENERGIES
----------------

  NO   OCC          E(Eh)            E(eV)
   0   2.0000     -88.964928     -2420.8588
   1   2.0000     -88.959730     -2420.7173
   2   2.0000     -10.326160      -280.9891
   3   2.0000     -10.324315      -280.9389
   4   2.0000     -10.321034      -280.8496
   5   2.0000     -10.307166      -280.4722
   6   2.0000     -10.303428      -280.3705
   7   2.0000     -10.299074      -280.2521
   8   2.0000     -10.291941      -280.0580
   9   2.0000     -10.290923      -280.0303
  10   2.0000     -10.288989      -279.9776
  11   2.0000     -10.286194      -279.9016
  12   2.0000     -10.283988      -279.8415
  13   2.0000     -10.282955      -279.8134
  14   2.0000     -10.280530      -279.7475
  15   2.0000     -10.277450      -279.6636
  16   2.0000      -8.080364      -219.8779
  17   2.0000      -8.074277      -219.7122
  18   2.0000      -6.038976      -164.3289
  19   2.0000      -6.034956      -164.2195
  20   2.0000      -6.033003      -164.1664
  21   2.0000      -6.030762      -164.1054
  22   2.0000      -6.028809      -164.0522
  23   2.0000      -6.024789      -163.9428
  24   2.0000      -1.017262       -27.6811
  25   2.0000      -0.987171       -26.8623
  26   2.0000      -0.917942       -24.9785
  27   2.0000      -0.899106       -24.4659
  28   2.0000      -0.877898       -23.8888
  29   2.0000      -0.852007       -23.1843
  30   2.0000      -0.843018       -22.9397
  31   2.0000      -0.821104       -22.3434
  32   2.0000      -0.782373       -21.2894
  33   2.0000      -0.773525       -21.0487
  34   2.0000      -0.713905       -19.4263
  35   2.0000      -0.705208       -19.1897
  36   2.0000      -0.701274       -19.0826
  37   2.0000      -0.666331       -18.1318
  38   2.0000      -0.642953       -17.4956
  39   2.0000      -0.624816       -17.0021
  40   2.0000      -0.596380       -16.2283
  41   2.0000      -0.575040       -15.6476
  42   2.0000      -0.564013       -15.3476
  43   2.0000      -0.555828       -15.1248
  44   2.0000      -0.533442       -14.5157
  45   2.0000      -0.521955       -14.2031
  46   2.0000      -0.521843       -14.2001
  47   2.0000      -0.511138       -13.9088
  48   2.0000      -0.510283       -13.8855
  49   2.0000      -0.507708       -13.8154
  50   2.0000      -0.491735       -13.3808
  51   2.0000      -0.486013       -13.2251
  52   2.0000      -0.470569       -12.8048
  53   2.0000      -0.462212       -12.5774
  54   2.0000      -0.461771       -12.5654
  55   2.0000      -0.450077       -12.2472
  56   2.0000      -0.446169       -12.1409
  57   2.0000      -0.441541       -12.0149
  58   2.0000      -0.428095       -11.6491
  59   2.0000      -0.426190       -11.5972
  60   2.0000      -0.418459       -11.3868
  61   2.0000      -0.415349       -11.3022
  62   2.0000      -0.411779       -11.2051
  63   2.0000      -0.358248        -9.7484
  64   2.0000      -0.329540        -8.9672
  65   2.0000      -0.326434        -8.8827
  66   2.0000      -0.291638        -7.9359
  67   0.0000       0.028232         0.7682
  68   0.0000       0.070257         1.9118
  69   0.0000       0.102422         2.7870
  70   0.0000       0.128674         3.5014
  71   0.0000       0.132510         3.6058

MULLIKEN ATOMIC CHARGES
-----------------------
   0 S :    0.107301
   1 C :   -0.079606
   2 C :   -0.133627
   3 C :    0.008610
   4 C :   -0.112632
   5 H :    0.008257
   6 C :    0.125427
   7 H :   -0.015737
   8 H :    0.025508
   9 C :   -0.069706
  10 H :    0.031085
  11 H :    0.001160
  12 C :   -0.027414
  13 H :    0.036483
  14 H :    0.041952
  15 H :    0.035927
  16 S :    0.067015
  17 C :   -0.093084
  18 C :    0.013706
  19 C :   -0.059237
  20 C :   -0.132543
  21 H :   -0.008089
  22 C :    0.070475
  23 H :    0.011871
  24 H :    0.033645
  25 C :   -0.076567
  26 H :    0.039482
  27 H :    0.029921
  28 C :   -0.056422
  29 H :    0.025110
  30 H :    0.027739
  31 H :    0.028306
  32 H :    0.026370
  33 H :    0.069312
Sum of atomic charges:    0.0000000

LOEWDIN ATOMIC CHARGES
----------------------
   0 S :    0.415285
   1 C :   -0.191304
   2 C :   -0.061486
   3 C :   -0.062203
   4 C :   -0.197235
   5 H :    0.027890
   6 C :   -0.019200
   7 H :    0.010193
   8 H :    0.031750
   9 C :   -0.030252
  10 H :    0.027849
  11 H :    0.009972
  12 C :   -0.060003
  13 H :    0.028977
  14 H :    0.025601
  15 H :    0.029193
  16 S :    0.374064
  17 C :   -0.168084
  18 C :   -0.060969
  19 C :   -0.062223
  20 C :   -0.184771
  21 H :    0.019993
  22 C :   -0.032634
  23 H :    0.026182
  24 H :    0.032390
  25 C :   -0.041612
  26 H :    0.031361
  27 H :    0.022189
  28 C :   -0.075085
  29 H :    0.026851
  30 H :    0.024023
  31 H :    0.025395
  32 H :    0.021497
  33 H :    0.036403

  Mayer bond orders larger than 0.100000
B(  0-S ,  1-C ) :   1.1311 B(  0-S ,  4-C ) :   1.1398 B(  1-C ,  2-C ) :   1.6187
B(  1-C , 32-H ) :   0.9697 B(  2-C ,  3-C ) :   1.2325 B(  2-C ,  6-C ) :   1.0381
B(  3-C ,  4-C ) :   1.5628 B(  3-C ,  5-H ) :   0.9969 B(  4-C , 20-C ) :   1.0549
B(  6-C ,  7-H ) :   0.9326 B(  6-C ,  8-H ) :   0.9326 B(  6-C ,  9-C ) :   1.0585
B(  9-C , 10-H ) :   0.9583 B(  9-C , 11-H ) :   0.9510 B(  9-C , 12-C ) :   1.0783
B( 12-C , 13-H ) :   0.9738 B( 12-C , 14-H ) :   0.9790 B( 12-C , 15-H ) :   0.9743
B( 16-S , 17-C ) :   1.1268 B( 16-S , 20-C ) :   1.1273 B( 17-C , 18-C ) :   1.6150
B( 17-C , 33-H ) :   0.9699 B( 18-C , 19-C ) :   1.2298 B( 18-C , 21-H ) :   0.9998
B( 19-C , 20-C ) :   1.6324 B( 19-C , 22-C ) :   1.0381 B( 22-C , 23-H ) :   0.9333
B( 22-C , 24-H ) :   0.9416 B( 22-C , 25-C ) :   1.0485 B( 25-C , 26-H ) :   0.9549
B( 25-C , 27-H ) :   0.9585 B( 25-C , 28-C ) :   1.0834 B( 28-C , 29-H ) :   0.9723
B( 28-C , 30-H ) :   0.9750 B( 28-C , 31-H ) :   0.9758

Dispersion correction           -0.013450806
FINAL SINGLE POINT ENERGY     -1339.858572202121

DIPOLE MOMENT
-------------
                                X             Y             Z
Electronic contribution:      2.70062      30.00728       0.43400
Nuclear contribution   :     -2.53281     -30.72633      -0.61227
                        -----------------------------------------
Total Dipole Moment    :      0.16781      -0.71905      -0.17827
                        -----------------------------------------
Magnitude (a.u.)       :      0.75959
Magnitude (Debye)      :      1.93073

Rotational constants in cm-1:     0.016975     0.008570     0.006197
Rotational constants in MHz :   508.882832   256.922236   185.776833

                             ****ORCA TERMINATED NORMALLY****
TOTAL RUN TIME: 0 days 0 hours 0 minutes 33 seconds 913 msec
