                         Program Version 4.2.1 -  RELEASE  -
|  1> ! wB97X-D3 SP def2-SVP
|  2> %pal
|  3> nprocs 16
|  4> end
|  5>
|  6> * xyz 0 1
|  7> S 	 51.0894 	 23.6538 	 92.4057
|  8> C 	 49.4413 	 23.5597 	 93.0303
|  9> C 	 49.3231 	 22.3433 	 93.7074
| 10> C 	 50.5033 	 21.4844 	 93.634
| 11> C 	 51.5525 	 22.0484 	 92.958
| 12> H 	 50.4974 	 20.4871 	 94.025
| 13> C 	 48.0909 	 21.9615 	 94.4359
| 14> H 	 47.5731 	 21.0749 	 93.9657
| 15> H 	 47.4262 	 22.787 	 94.2106
| 16> C 	 48.1952 	 21.6986 	 95.9803
| 17> H 	 47.3253 	 21.216 	 96.4293
| 18> H 	 48.9001 	 20.9271 	 96.1695
| 19> C 	 48.6086 	 22.9612 	 96.7315
| 20> H 	 47.7461 	 23.618 	 96.7733
| 21> H 	 48.868 	 22.6373 	 97.7647
| 22> H 	 49.4956 	 23.4712 	 96.2762
| 23> S 	 54.0547 	 22.3668 	 91.9361
| 24> C 	 55.2518 	 21.0861 	 92.1034
| 25> C 	 54.7178 	 19.9152 	 92.5876
| 26> C 	 53.3696 	 20.0988 	 92.9959
| 27> C 	 52.8394 	 21.406 	 92.7474
| 28> H 	 55.1512 	 19.0029 	 92.5436
| 29> C 	 52.5808 	 18.924 	 93.4879
| 30> H 	 53.1466 	 18.0398 	 93.185
| 31> H 	 51.6654 	 19.054 	 92.9041
| 32> C 	 52.4253 	 18.7509 	 95.0103
| 33> H 	 51.6469 	 17.9979 	 95.3137
| 34> H 	 51.9579 	 19.6499 	 95.4008
| 35> C 	 53.7486 	 18.3339 	 95.7382
| 36> H 	 53.9603 	 17.3039 	 95.5724
| 37> H 	 53.6033 	 18.3805 	 96.8071
| 38> H 	 54.5324 	 18.9947 	 95.4317
| 39> H 	 48.6684 	 24.3018 	 92.8553
| 40> H 	 56.2703 	 21.1146 	 91.8791
| 41> *
| 42>
| 43>                          ****END OF INPUT****

CARTESIAN COORDINATES (ANGSTROEM)
---------------------------------
  S     51.089400   23.653800   92.405700
  C     49.441300   23.559700   93.030300
  C     49.323100   22.343300   93.707400
  C     50.503300   21.484400   93.634000
  C     51.552500   22.048400   92.958000
  H     50.497400   20.487100   94.025000
  C     48.090900   21.961500   94.435900
  H     47.573100   21.074900   93.965700
  H     47.426200   22.787000   94.210600
  C     48.195200   21.698600   95.980300
  H     47.325300   21.216000   96.429300
  H     48.900100   20.927100   96.169500
  C     48.608600   22.961200   96.731500
  H     47.746100   23.618000   96.773300
  H     48.868000   22.637300   97.764700
  H     49.495600   23.471200   96.276200
  S     54.054700   22.366800   91.936100
  C     55.251800   21.086100   92.103400
  C     54.717800   19.915200   92.587600
  C     53.369600   20.098800   92.995900
  C     52.839400   21.406000   92.747400
  H     55.151200   19.002900   92.543600
  C     52.580800   18.924000   93.487900
  H     53.146600   18.039800   93.185000
  H     51.665400   19.054000   92.904100
  C     52.425300   18.750900   95.010300
  H     51.646900   17.997900   95.313700
  H     51.957900   19.649900   95.400800
  C     53.748600   18.333900   95.738200
  H     53.960300   17.303900   95.572400
  H     53.603300   18.380500   96.807100
  H     54.532400   18.994700   95.431700
  H     48.668400   24.301800   92.855300
  H     56.270300   21.114600   91.879100

 Total Charge           Charge          ....    0
 Multiplicity           Mult            ....    1
 Number of Electrons    NEL             ....  134
 Basis Dimension        Dim             ....  322

ORBITAL ENERGIES
----------------

  NO   OCC          E(Eh)            E(eV)
   0   2.0000     -88.970078     -2420.9989
   1   2.0000     -88.966911     -2420.9127
   2   2.0000     -10.336281      -281.2645
   3   2.0000     -10.333897      -281.1996
   4   2.0000     -10.320960      -280.8476
   5   2.0000     -10.316571      -280.7282
   6   2.0000     -10.306543      -280.4553
   7   2.0000     -10.304718      -280.4056
   8   2.0000     -10.292881      -280.0835
   9   2.0000     -10.292849      -280.0826
  10   2.0000     -10.292732      -280.0795
  11   2.0000     -10.292326      -280.0684
  12   2.0000     -10.288297      -279.9588
  13   2.0000     -10.285311      -279.8775
  14   2.0000     -10.277869      -279.6750
  15   2.0000     -10.276502      -279.6378
  16   2.0000      -8.084483      -219.9900
  17   2.0000      -8.081145      -219.8991
  18   2.0000      -6.043079      -164.4405
  19   2.0000      -6.039973      -164.3560
  20   2.0000      -6.038961      -164.3285
  21   2.0000      -6.035676      -164.2391
  22   2.0000      -6.035270      -164.2280
  23   2.0000      -6.031634      -164.1291
  24   2.0000      -1.007012       -27.4022
  25   2.0000      -0.983549       -26.7637
  26   2.0000      -0.911980       -24.8163
  27   2.0000      -0.908711       -24.7273
  28   2.0000      -0.874512       -23.7967
  29   2.0000      -0.852145       -23.1881
  30   2.0000      -0.843035       -22.9401
  31   2.0000      -0.821664       -22.3586
  32   2.0000      -0.782024       -21.2800
  33   2.0000      -0.768195       -20.9036
  34   2.0000      -0.716765       -19.5042
  35   2.0000      -0.703249       -19.1364
  36   2.0000      -0.693850       -18.8806
  37   2.0000      -0.673578       -18.3290
  38   2.0000      -0.640634       -17.4325
  39   2.0000      -0.625584       -17.0230
  40   2.0000      -0.588937       -16.0258
  41   2.0000      -0.570113       -15.5136
  42   2.0000      -0.561480       -15.2787
  43   2.0000      -0.550572       -14.9818
  44   2.0000      -0.549268       -14.9463
  45   2.0000      -0.536950       -14.6111
  46   2.0000      -0.522225       -14.2105
  47   2.0000      -0.514471       -13.9995
  48   2.0000      -0.504710       -13.7339
  49   2.0000      -0.500926       -13.6309
  50   2.0000      -0.492258       -13.3950
  51   2.0000      -0.479553       -13.0493
  52   2.0000      -0.471674       -12.8349
  53   2.0000      -0.465324       -12.6621
  54   2.0000      -0.460752       -12.5377
  55   2.0000      -0.455114       -12.3843
  56   2.0000      -0.447353       -12.1731
  57   2.0000      -0.438795       -11.9402
  58   2.0000      -0.428541       -11.6612
  59   2.0000      -0.424806       -11.5596
  60   2.0000      -0.419666       -11.4197
  61   2.0000      -0.412221       -11.2171
  62   2.0000      -0.407580       -11.0908
  63   2.0000      -0.366215        -9.9652
  64   2.0000      -0.336286        -9.1508
  65   2.0000      -0.323928        -8.8145
  66   2.0000      -0.280729        -7.6390
  67   0.0000       0.014155         0.3852
  68   0.0000       0.082755         2.2519
  69   0.0000       0.095603         2.6015
  70   0.0000       0.114491         3.1155
  71   0.0000       0.132015         3.5923

MULLIKEN ATOMIC CHARGES
-----------------------
   0 S :    0.091782
   1 C :   -0.122462
   2 C :   -0.099802
   3 C :   -0.026821
   4 C :   -0.047999
   5 H :   -0.000626
   6 C :    0.052022
   7 H :    0.042719
   8 H :    0.003074
   9 C :   -0.047516
  10 H :    0.022524
  11 H :    0.010024
  12 C :   -0.072125
  13 H :    0.032253
  14 H :    0.034356
  15 H :    0.060148
  16 S :    0.104486
  17 C :   -0.047119
  18 C :    0.015804
  19 C :   -0.092732
  20 C :   -0.135656
  21 H :   -0.020286
  22 C :    0.047803
  23 H :    0.012012
  24 H :    0.048739
  25 C :   -0.085542
  26 H :    0.030591
  27 H :    0.024328
  28 C :   -0.028110
  29 H :    0.025390
  30 H :    0.030805
  31 H :    0.042428
  32 H :    0.061864
  33 H :    0.033644
Sum of atomic charges:   -0.0000000

LOEWDIN ATOMIC CHARGES
----------------------
   0 S :    0.385167
   1 C :   -0.195146
   2 C :   -0.059931
   3 C :   -0.071503
   4 C :   -0.181032
   5 H :    0.026681
   6 C :   -0.040063
   7 H :    0.037489
   8 H :    0.025411
   9 C :   -0.042360
  10 H :    0.026253
  11 H :    0.015148
  12 C :   -0.067344
  13 H :    0.022374
  14 H :    0.028846
  15 H :    0.034734
  16 S :    0.410132
  17 C :   -0.166377
  18 C :   -0.057660
  19 C :   -0.051148
  20 C :   -0.195184
  21 H :    0.016051
  22 C :   -0.039190
  23 H :    0.030074
  24 H :    0.036366
  25 C :   -0.044884
  26 H :    0.027989
  27 H :    0.016750
  28 C :   -0.057302
  29 H :    0.021661
  30 H :    0.028984
  31 H :    0.024464
  32 H :    0.035095
  33 H :    0.019457

  Mayer bond orders larger than 0.100000
B(  0-S ,  1-C ) :   1.1150 B(  0-S ,  4-C ) :   1.1307 B(  1-C ,  2-C ) :   1.6018
B(  1-C , 32-H ) :   0.9689 B(  2-C ,  3-C ) :   1.2249 B(  2-C ,  6-C ) :   1.0484
B(  3-C ,  4-C ) :   1.5575 B(  3-C ,  5-H ) :   0.9943 B(  4-C , 20-C ) :   1.1118
B(  6-C ,  7-H ) :   0.9346 B(  6-C ,  8-H ) :   0.9402 B(  6-C ,  9-C ) :   1.0572
B(  9-C , 10-H ) :   0.9540 B(  9-C , 11-H ) :   0.9568 B(  9-C , 12-C ) :   1.0701
B( 12-C , 13-H ) :   0.9780 B( 12-C , 14-H ) :   0.9734 B( 12-C , 15-H ) :   0.9762
B( 16-S , 17-C ) :   1.1639 B( 16-S , 20-C ) :   1.1359 B( 17-C , 18-C ) :   1.5784
B( 17-C , 20-C ) :   0.1003 B( 17-C , 33-H ) :   0.9695 B( 18-C , 19-C ) :   1.2904
B( 18-C , 21-H ) :   0.9979 B( 19-C , 20-C ) :   1.5292 B( 19-C , 22-C ) :   1.0303
B( 22-C , 23-H ) :   0.9340 B( 22-C , 24-H ) :   0.9340 B( 22-C , 25-C ) :   1.0595
B( 25-C , 26-H ) :   0.9569 B( 25-C , 27-H ) :   0.9551 B( 25-C , 28-C ) :   1.0723
B( 28-C , 29-H ) :   0.9742 B( 28-C , 30-H ) :   0.9722 B( 28-C , 31-H ) :   0.9787

Dispersion correction           -0.014783747
FINAL SINGLE POINT ENERGY     -1339.871810125624

DIPOLE MOMENT
-------------
                                X             Y             Z
Electronic contribution:     11.64765      15.51305     -21.83768
Nuclear contribution   :    -11.85344     -16.15329      22.17336
                        -----------------------------------------
Total Dipole Moment    :     -0.20579      -0.64024       0.33568
                        -----------------------------------------
Magnitude (a.u.)       :      0.75162
Magnitude (Debye)      :      1.91048

Rotational constants in cm-1:     0.018359     0.009771     0.006920
Rotational constants in MHz :   550.394823   292.935069   207.442295

                             ****ORCA TERMINATED NORMALLY****
TOTAL RUN TIME: 0 days 0 hours 0 minutes 32 seconds 96 msec
