                         Program Version 4.2.1 -  RELEASE  -
|  1> ! wB97X-D3 SP def2-SVP
|  2> %pal
|  3> nprocs 16
|  4> end
|  5>
|  6> * xyz 0 1
|  7> S 	 41.5929 	 14.3325 	 90.045
|  8> C 	 41.3946 	 14.8299 	 88.3782
|  9> C 	 40.4405 	 14.0321 	 87.7398
| 10> C 	 39.9407 	 12.957 	 88.5532
| 11> C 	 40.3459 	 13.0333 	 89.8483
| 12> H 	 39.3241 	 12.2126 	 88.2361
| 13> C 	 39.975 	 14.0829 	 86.2953
| 14> H 	 40.6375 	 14.7317 	 85.7652
| 15> H 	 38.9548 	 14.4846 	 86.1248
| 16> C 	 40.1689 	 12.7065 	 85.5304
| 17> H 	 39.4456 	 12.0247 	 85.7984
| 18> H 	 39.8968 	 12.8782 	 84.4626
| 19> C 	 41.561 	 12.1091 	 85.6901
| 20> H 	 41.8381 	 12.1817 	 86.7214
| 21> H 	 41.6079 	 11.1531 	 85.2258
| 22> H 	 42.2941 	 12.7085 	 85.1625
| 23> S 	 38.2324 	 12.4999 	 91.4581
| 24> C 	 38.5123 	 11.4396 	 92.7852
| 25> C 	 39.7304 	 10.8599 	 92.8336
| 26> C 	 40.583 	 11.4518 	 91.8571
| 27> C 	 39.9296 	 12.3213 	 91.0157
| 28> H 	 40.0148 	 10.0765 	 93.5905
| 29> C 	 41.9938 	 11.0054 	 91.7543
| 30> H 	 42.3761 	 10.4335 	 92.6234
| 31> H 	 42.52 	 11.9648 	 91.7383
| 32> C 	 42.379 	 10.217 	 90.4685
| 33> H 	 42.0938 	 10.8361 	 89.5666
| 34> H 	 41.8214 	 9.33785 	 90.4681
| 35> C 	 43.8635 	 9.9978 	 90.3669
| 36> H 	 44.2129 	 9.33309 	 91.1971
| 37> H 	 44.36 	 10.948 	 90.4063
| 38> H 	 44.1423 	 9.4553 	 89.4356
| 39> H 	 41.9507 	 15.6519 	 87.8903
| 40> H 	 37.8412 	 11.2181 	 93.596
| 41> *
| 42>
| 43>                          ****END OF INPUT****

CARTESIAN COORDINATES (ANGSTROEM)
---------------------------------
  S     41.592900   14.332500   90.045000
  C     41.394600   14.829900   88.378200
  C     40.440500   14.032100   87.739800
  C     39.940700   12.957000   88.553200
  C     40.345900   13.033300   89.848300
  H     39.324100   12.212600   88.236100
  C     39.975000   14.082900   86.295300
  H     40.637500   14.731700   85.765200
  H     38.954800   14.484600   86.124800
  C     40.168900   12.706500   85.530400
  H     39.445600   12.024700   85.798400
  H     39.896800   12.878200   84.462600
  C     41.561000   12.109100   85.690100
  H     41.838100   12.181700   86.721400
  H     41.607900   11.153100   85.225800
  H     42.294100   12.708500   85.162500
  S     38.232400   12.499900   91.458100
  C     38.512300   11.439600   92.785200
  C     39.730400   10.859900   92.833600
  C     40.583000   11.451800   91.857100
  C     39.929600   12.321300   91.015700
  H     40.014800   10.076500   93.590500
  C     41.993800   11.005400   91.754300
  H     42.376100   10.433500   92.623400
  H     42.520000   11.964800   91.738300
  C     42.379000   10.217000   90.468500
  H     42.093800   10.836100   89.566600
  H     41.821400    9.337850   90.468100
  C     43.863500    9.997800   90.366900
  H     44.212900    9.333090   91.197100
  H     44.360000   10.948000   90.406300
  H     44.142300    9.455300   89.435600
  H     41.950700   15.651900   87.890300
  H     37.841200   11.218100   93.596000

 Total Charge           Charge          ....    0
 Multiplicity           Mult            ....    1
 Number of Electrons    NEL             ....  134
 Basis Dimension        Dim             ....  322

ORBITAL ENERGIES
----------------

  NO   OCC          E(Eh)            E(eV)
   0   2.0000     -88.968041     -2420.9435
   1   2.0000     -88.963599     -2420.8226
   2   2.0000     -10.330241      -281.1002
   3   2.0000     -10.320738      -280.8416
   4   2.0000     -10.319783      -280.8156
   5   2.0000     -10.310588      -280.5654
   6   2.0000     -10.303270      -280.3662
   7   2.0000     -10.300332      -280.2863
   8   2.0000     -10.292665      -280.0776
   9   2.0000     -10.291995      -280.0594
  10   2.0000     -10.287720      -279.9431
  11   2.0000     -10.287268      -279.9308
  12   2.0000     -10.282715      -279.8069
  13   2.0000     -10.278938      -279.7041
  14   2.0000     -10.275764      -279.6177
  15   2.0000     -10.268160      -279.4108
  16   2.0000      -8.083064      -219.9514
  17   2.0000      -8.077469      -219.7991
  18   2.0000      -6.041529      -164.3984
  19   2.0000      -6.037656      -164.2930
  20   2.0000      -6.036113      -164.2510
  21   2.0000      -6.033721      -164.1859
  22   2.0000      -6.032088      -164.1414
  23   2.0000      -6.028151      -164.0343
  24   2.0000      -1.009920       -27.4813
  25   2.0000      -0.983119       -26.7520
  26   2.0000      -0.910570       -24.7779
  27   2.0000      -0.907142       -24.6846
  28   2.0000      -0.873037       -23.7565
  29   2.0000      -0.855163       -23.2702
  30   2.0000      -0.844194       -22.9717
  31   2.0000      -0.817372       -22.2418
  32   2.0000      -0.782280       -21.2869
  33   2.0000      -0.766770       -20.8649
  34   2.0000      -0.711855       -19.3705
  35   2.0000      -0.698029       -18.9943
  36   2.0000      -0.688161       -18.7258
  37   2.0000      -0.665023       -18.0962
  38   2.0000      -0.643594       -17.5131
  39   2.0000      -0.624862       -17.0034
  40   2.0000      -0.595903       -16.2153
  41   2.0000      -0.568698       -15.4751
  42   2.0000      -0.562612       -15.3094
  43   2.0000      -0.554545       -15.0899
  44   2.0000      -0.536584       -14.6012
  45   2.0000      -0.521863       -14.2006
  46   2.0000      -0.514780       -14.0079
  47   2.0000      -0.512453       -13.9445
  48   2.0000      -0.507918       -13.8212
  49   2.0000      -0.503045       -13.6885
  50   2.0000      -0.488041       -13.2803
  51   2.0000      -0.476498       -12.9662
  52   2.0000      -0.472992       -12.8708
  53   2.0000      -0.465886       -12.6774
  54   2.0000      -0.456600       -12.4247
  55   2.0000      -0.449106       -12.2208
  56   2.0000      -0.441590       -12.0163
  57   2.0000      -0.439271       -11.9532
  58   2.0000      -0.433155       -11.7868
  59   2.0000      -0.424118       -11.5408
  60   2.0000      -0.420512       -11.4427
  61   2.0000      -0.412419       -11.2225
  62   2.0000      -0.410852       -11.1799
  63   2.0000      -0.342219        -9.3122
  64   2.0000      -0.335445        -9.1279
  65   2.0000      -0.326053        -8.8724
  66   2.0000      -0.295112        -8.0304
  67   0.0000       0.035912         0.9772
  68   0.0000       0.061614         1.6766
  69   0.0000       0.105185         2.8622
  70   0.0000       0.112847         3.0707
  71   0.0000       0.130885         3.5616

MULLIKEN ATOMIC CHARGES
-----------------------
   0 S :    0.092896
   1 C :   -0.119785
   2 C :   -0.122746
   3 C :    0.078905
   4 C :   -0.163627
   5 H :   -0.025469
   6 C :    0.084594
   7 H :    0.002426
   8 H :    0.050307
   9 C :   -0.105090
  10 H :    0.013545
  11 H :    0.026518
  12 C :   -0.017427
  13 H :    0.048871
  14 H :    0.031761
  15 H :    0.016429
  16 S :    0.133950
  17 C :   -0.070045
  18 C :   -0.064414
  19 C :    0.000559
  20 C :   -0.175636
  21 H :    0.039232
  22 C :    0.050967
  23 H :    0.020311
  24 H :    0.017794
  25 C :   -0.068317
  26 H :    0.046435
  27 H :    0.015486
  28 C :   -0.042569
  29 H :    0.027093
  30 H :    0.031643
  31 H :    0.039581
  32 H :    0.061603
  33 H :    0.044220
Sum of atomic charges:   -0.0000000

LOEWDIN ATOMIC CHARGES
----------------------
   0 S :    0.374499
   1 C :   -0.201901
   2 C :   -0.066020
   3 C :   -0.050221
   4 C :   -0.165440
   5 H :    0.017760
   6 C :   -0.030416
   7 H :    0.021983
   8 H :    0.037160
   9 C :   -0.037837
  10 H :    0.006429
  11 H :    0.027928
  12 C :   -0.058910
  13 H :    0.026580
  14 H :    0.025154
  15 H :    0.024177
  16 S :    0.420260
  17 C :   -0.186751
  18 C :   -0.078810
  19 C :   -0.047947
  20 C :   -0.209734
  21 H :    0.044251
  22 C :   -0.037491
  23 H :    0.030116
  24 H :    0.029391
  25 C :   -0.036689
  26 H :    0.032287
  27 H :    0.012635
  28 C :   -0.066323
  29 H :    0.025144
  30 H :    0.023778
  31 H :    0.030565
  32 H :    0.036858
  33 H :    0.027535

  Mayer bond orders larger than 0.100000
B(  0-S ,  1-C ) :   1.1281 B(  0-S ,  4-C ) :   1.1209 B(  1-C ,  2-C ) :   1.6306
B(  1-C , 32-H ) :   0.9630 B(  2-C ,  3-C ) :   1.1901 B(  2-C ,  6-C ) :   1.0318
B(  3-C ,  4-C ) :   1.6125 B(  3-C ,  5-H ) :   1.0164 B(  4-C , 20-C ) :   1.0527
B(  6-C ,  7-H ) :   0.9405 B(  6-C ,  8-H ) :   0.9410 B(  6-C ,  9-C ) :   1.0617
B(  9-C , 10-H ) :   0.9564 B(  9-C , 11-H ) :   0.9550 B(  9-C , 12-C ) :   1.0745
B( 12-C , 13-H ) :   0.9706 B( 12-C , 14-H ) :   0.9716 B( 12-C , 15-H ) :   0.9719
B( 16-S , 17-C ) :   1.1602 B( 16-S , 20-C ) :   1.1218 B( 17-C , 18-C ) :   1.6316
B( 17-C , 33-H ) :   0.9595 B( 18-C , 19-C ) :   1.2381 B( 18-C , 21-H ) :   0.9816
B( 19-C , 20-C ) :   1.5926 B( 19-C , 22-C ) :   1.0488 B( 22-C , 23-H ) :   0.9389
B( 22-C , 24-H ) :   0.9151 B( 22-C , 25-C ) :   1.0633 B( 25-C , 26-H ) :   0.9505
B( 25-C , 27-H ) :   0.9544 B( 25-C , 28-C ) :   1.0910 B( 28-C , 29-H ) :   0.9718
B( 28-C , 30-H ) :   0.9733 B( 28-C , 31-H ) :   0.9719

Dispersion correction           -0.015543335
FINAL SINGLE POINT ENERGY     -1339.877313759635

DIPOLE MOMENT
-------------
                                X             Y             Z
Electronic contribution:    -13.63166      12.06559      16.62778
Nuclear contribution   :     13.69898     -12.44501     -16.86753
                        -----------------------------------------
Total Dipole Moment    :      0.06731      -0.37942      -0.23975
                        -----------------------------------------
Magnitude (a.u.)       :      0.45384
Magnitude (Debye)      :      1.15356

Rotational constants in cm-1:     0.017993     0.009776     0.008071
Rotational constants in MHz :   539.425742   293.075844   241.964950

                             ****ORCA TERMINATED NORMALLY****
TOTAL RUN TIME: 0 days 0 hours 0 minutes 30 seconds 769 msec
