                         Program Version 4.2.1 -  RELEASE  -
|  1> ! wB97X-D3 SP def2-SVP
|  2> %pal
|  3> nprocs 16
|  4> end
|  5>
|  6> * xyz 0 1
|  7> S 	 7.64243 	 21.0577 	 59.4549
|  8> C 	 7.74561 	 21.3251 	 57.7581
|  9> C 	 6.50753 	 21.2621 	 57.1941
| 10> C 	 5.45601 	 21.0677 	 58.1417
| 11> C 	 5.91248 	 20.9112 	 59.4685
| 12> H 	 4.46776 	 20.9194 	 57.8924
| 13> C 	 6.21089 	 21.4648 	 55.7629
| 14> H 	 5.49565 	 22.2958 	 55.6726
| 15> H 	 5.50949 	 20.6323 	 55.4064
| 16> C 	 7.43475 	 21.5111 	 54.7707
| 17> H 	 7.11508 	 21.9908 	 53.8294
| 18> H 	 8.13645 	 22.3119 	 55.1658
| 19> C 	 8.20824 	 20.2058 	 54.5511
| 20> H 	 7.51032 	 19.385 	 54.3612
| 21> H 	 9.08107 	 20.1281 	 53.856
| 22> H 	 8.66261 	 19.8449 	 55.4453
| 23> S 	 5.93046 	 19.5568 	 61.8141
| 24> C 	 4.49595 	 19.5985 	 62.8867
| 25> C 	 3.62119 	 20.4808 	 62.3609
| 26> C 	 3.85037 	 20.908 	 61.0248
| 27> C 	 5.15204 	 20.5873 	 60.6565
| 28> H 	 2.77917 	 20.6678 	 62.9945
| 29> C 	 3.05903 	 21.9973 	 60.4052
| 30> H 	 3.64732 	 22.5337 	 59.6791
| 31> H 	 2.93112 	 22.7825 	 61.1237
| 32> C 	 1.6133 	 21.6121 	 59.8318
| 33> H 	 1.13233 	 22.5404 	 59.573
| 34> H 	 0.963677 	 21.1721 	 60.5954
| 35> C 	 1.61477 	 20.764 	 58.61
| 36> H 	 1.95583 	 19.7122 	 58.8573
| 37> H 	 2.17649 	 21.2734 	 57.7873
| 38> H 	 0.467936 	 20.7878 	 58.3527
| 39> H 	 8.6128 	 21.6002 	 57.1703
| 40> H 	 4.42796 	 19.0485 	 63.8387
| 41> *
| 42>
| 43>                          ****END OF INPUT****

CARTESIAN COORDINATES (ANGSTROEM)
---------------------------------
  S      7.642430   21.057700   59.454900
  C      7.745610   21.325100   57.758100
  C      6.507530   21.262100   57.194100
  C      5.456010   21.067700   58.141700
  C      5.912480   20.911200   59.468500
  H      4.467760   20.919400   57.892400
  C      6.210890   21.464800   55.762900
  H      5.495650   22.295800   55.672600
  H      5.509490   20.632300   55.406400
  C      7.434750   21.511100   54.770700
  H      7.115080   21.990800   53.829400
  H      8.136450   22.311900   55.165800
  C      8.208240   20.205800   54.551100
  H      7.510320   19.385000   54.361200
  H      9.081070   20.128100   53.856000
  H      8.662610   19.844900   55.445300
  S      5.930460   19.556800   61.814100
  C      4.495950   19.598500   62.886700
  C      3.621190   20.480800   62.360900
  C      3.850370   20.908000   61.024800
  C      5.152040   20.587300   60.656500
  H      2.779170   20.667800   62.994500
  C      3.059030   21.997300   60.405200
  H      3.647320   22.533700   59.679100
  H      2.931120   22.782500   61.123700
  C      1.613300   21.612100   59.831800
  H      1.132330   22.540400   59.573000
  H      0.963677   21.172100   60.595400
  C      1.614770   20.764000   58.610000
  H      1.955830   19.712200   58.857300
  H      2.176490   21.273400   57.787300
  H      0.467936   20.787800   58.352700
  H      8.612800   21.600200   57.170300
  H      4.427960   19.048500   63.838700

 Total Charge           Charge          ....    0
 Multiplicity           Mult            ....    1
 Number of Electrons    NEL             ....  134
 Basis Dimension        Dim             ....  322

ORBITAL ENERGIES
----------------

  NO   OCC          E(Eh)            E(eV)
   0   2.0000     -88.965676     -2420.8791
   1   2.0000     -88.962208     -2420.7847
   2   2.0000     -10.332457      -281.1605
   3   2.0000     -10.329774      -281.0874
   4   2.0000     -10.318591      -280.7831
   5   2.0000     -10.307904      -280.4923
   6   2.0000     -10.301730      -280.3243
   7   2.0000     -10.301241      -280.3110
   8   2.0000     -10.301069      -280.3063
   9   2.0000     -10.295553      -280.1563
  10   2.0000     -10.291660      -280.0503
  11   2.0000     -10.290494      -280.0186
  12   2.0000     -10.288940      -279.9763
  13   2.0000     -10.287162      -279.9279
  14   2.0000     -10.286789      -279.9178
  15   2.0000     -10.280748      -279.7534
  16   2.0000      -8.080922      -219.8931
  17   2.0000      -8.077050      -219.7877
  18   2.0000      -6.039496      -164.3430
  19   2.0000      -6.035646      -164.2383
  20   2.0000      -6.035258      -164.2277
  21   2.0000      -6.031682      -164.1304
  22   2.0000      -6.031528      -164.1262
  23   2.0000      -6.027716      -164.0225
  24   2.0000      -1.012070       -27.5398
  25   2.0000      -0.989240       -26.9186
  26   2.0000      -0.911605       -24.8060
  27   2.0000      -0.907270       -24.6881
  28   2.0000      -0.871844       -23.7241
  29   2.0000      -0.856581       -23.3088
  30   2.0000      -0.849236       -23.1089
  31   2.0000      -0.817431       -22.2434
  32   2.0000      -0.782764       -21.3001
  33   2.0000      -0.773107       -21.0373
  34   2.0000      -0.713293       -19.4097
  35   2.0000      -0.706740       -19.2314
  36   2.0000      -0.690460       -18.7884
  37   2.0000      -0.661206       -17.9923
  38   2.0000      -0.639243       -17.3947
  39   2.0000      -0.613663       -16.6986
  40   2.0000      -0.598012       -16.2727
  41   2.0000      -0.579113       -15.7585
  42   2.0000      -0.554233       -15.0814
  43   2.0000      -0.550712       -14.9856
  44   2.0000      -0.543955       -14.8018
  45   2.0000      -0.532581       -14.4923
  46   2.0000      -0.521518       -14.1912
  47   2.0000      -0.509288       -13.8584
  48   2.0000      -0.506669       -13.7872
  49   2.0000      -0.495474       -13.4825
  50   2.0000      -0.492042       -13.3891
  51   2.0000      -0.485967       -13.2238
  52   2.0000      -0.473814       -12.8931
  53   2.0000      -0.468819       -12.7572
  54   2.0000      -0.464807       -12.6480
  55   2.0000      -0.451370       -12.2824
  56   2.0000      -0.438088       -11.9210
  57   2.0000      -0.433471       -11.7954
  58   2.0000      -0.427976       -11.6458
  59   2.0000      -0.423015       -11.5108
  60   2.0000      -0.421542       -11.4707
  61   2.0000      -0.414534       -11.2801
  62   2.0000      -0.409110       -11.1324
  63   2.0000      -0.360766        -9.8169
  64   2.0000      -0.330197        -8.9851
  65   2.0000      -0.324888        -8.8406
  66   2.0000      -0.285522        -7.7695
  67   0.0000       0.022930         0.6240
  68   0.0000       0.081135         2.2078
  69   0.0000       0.113258         3.0819
  70   0.0000       0.118354         3.2206
  71   0.0000       0.125183         3.4064

MULLIKEN ATOMIC CHARGES
-----------------------
   0 S :    0.111001
   1 C :   -0.115869
   2 C :   -0.072188
   3 C :    0.056033
   4 C :   -0.119814
   5 H :   -0.055781
   6 C :    0.016875
   7 H :    0.038613
   8 H :    0.037177
   9 C :   -0.085584
  10 H :    0.033558
  11 H :    0.031326
  12 C :   -0.035440
  13 H :    0.026517
  14 H :    0.047425
  15 H :    0.013702
  16 S :    0.085400
  17 C :   -0.111079
  18 C :   -0.015890
  19 C :   -0.001045
  20 C :   -0.125868
  21 H :    0.013873
  22 C :    0.024881
  23 H :    0.014774
  24 H :    0.023070
  25 C :   -0.069031
  26 H :    0.018795
  27 H :    0.028940
  28 C :   -0.095816
  29 H :    0.062302
  30 H :    0.053216
  31 H :    0.047241
  32 H :    0.048371
  33 H :    0.070317
Sum of atomic charges:   -0.0000000

LOEWDIN ATOMIC CHARGES
----------------------
   0 S :    0.423571
   1 C :   -0.212906
   2 C :   -0.068650
   3 C :   -0.055855
   4 C :   -0.190375
   5 H :    0.011855
   6 C :   -0.041078
   7 H :    0.037608
   8 H :    0.040004
   9 C :   -0.047893
  10 H :    0.028914
  11 H :    0.026036
  12 C :   -0.077399
  13 H :    0.028389
  14 H :    0.036099
  15 H :    0.020919
  16 S :    0.385859
  17 C :   -0.175712
  18 C :   -0.064174
  19 C :   -0.068419
  20 C :   -0.186283
  21 H :    0.030011
  22 C :   -0.034709
  23 H :    0.027797
  24 H :    0.032602
  25 C :   -0.043956
  26 H :    0.020723
  27 H :    0.023268
  28 C :   -0.078933
  29 H :    0.034339
  30 H :    0.026241
  31 H :    0.042024
  32 H :    0.032002
  33 H :    0.038081

  Mayer bond orders larger than 0.100000
B(  0-S ,  1-C ) :   1.1262 B(  0-S ,  4-C ) :   1.1629 B(  1-C ,  2-C ) :   1.6152
B(  1-C , 32-H ) :   0.9556 B(  2-C ,  3-C ) :   1.2629 B(  2-C ,  6-C ) :   1.0177
B(  3-C ,  4-C ) :   1.5213 B(  3-C ,  5-H ) :   1.0082 B(  4-C , 20-C ) :   1.0727
B(  6-C ,  7-H ) :   0.9369 B(  6-C ,  8-H ) :   0.9355 B(  6-C ,  9-C ) :   1.0703
B(  9-C , 10-H ) :   0.9548 B(  9-C , 11-H ) :   0.9518 B(  9-C , 12-C ) :   1.0592
B( 12-C , 13-H ) :   0.9716 B( 12-C , 14-H ) :   0.9757 B( 12-C , 15-H ) :   0.9708
B( 16-S , 17-C ) :   1.1170 B( 16-S , 20-C ) :   1.1507 B( 17-C , 18-C ) :   1.6444
B( 17-C , 33-H ) :   0.9674 B( 18-C , 19-C ) :   1.2099 B( 18-C , 21-H ) :   0.9872
B( 19-C , 20-C ) :   1.5570 B( 19-C , 22-C ) :   1.0496 B( 22-C , 23-H ) :   0.9428
B( 22-C , 24-H ) :   0.9379 B( 22-C , 25-C ) :   1.0557 B( 25-C , 26-H ) :   0.9547
B( 25-C , 27-H ) :   0.9588 B( 25-C , 28-C ) :   1.0858 B( 28-C , 29-H ) :   0.9703
B( 28-C , 30-H ) :   0.9607 B( 28-C , 31-H ) :   0.9691

Dispersion correction           -0.014565176
FINAL SINGLE POINT ENERGY     -1339.870029872433

DIPOLE MOMENT
-------------
                                X             Y             Z
Electronic contribution:     12.26522      -4.42187      22.54737
Nuclear contribution   :    -12.80217       4.68686     -22.81372
                        -----------------------------------------
Total Dipole Moment    :     -0.53696       0.26499      -0.26635
                        -----------------------------------------
Magnitude (a.u.)       :      0.65535
Magnitude (Debye)      :      1.66577

Rotational constants in cm-1:     0.021286     0.008431     0.006462
Rotational constants in MHz :   638.144735   252.765215   193.739804

                             ****ORCA TERMINATED NORMALLY****
TOTAL RUN TIME: 0 days 0 hours 0 minutes 36 seconds 44 msec
