                         Program Version 4.2.1 -  RELEASE  -
|  1> ! wB97X-D3 SP def2-SVP
|  2> %pal
|  3> nprocs 16
|  4> end
|  5>
|  6> * xyz 0 1
|  7> S 	 -31.4959 	 77.4246 	 155.524
|  8> C 	 -30.6737 	 78.8649 	 156.108
|  9> C 	 -29.911 	 78.5309 	 157.226
| 10> C 	 -29.9463 	 77.1404 	 157.587
| 11> C 	 -30.869 	 76.461 	 156.853
| 12> H 	 -29.5129 	 76.7217 	 158.449
| 13> C 	 -29.0997 	 79.5295 	 158.012
| 14> H 	 -28.9373 	 79.0255 	 158.871
| 15> H 	 -29.6209 	 80.5098 	 158.122
| 16> C 	 -27.687 	 79.7131 	 157.427
| 17> H 	 -27.1775 	 78.8277 	 157.164
| 18> H 	 -27.6063 	 80.2833 	 156.525
| 19> C 	 -26.6775 	 80.4036 	 158.481
| 20> H 	 -26.8756 	 81.4847 	 158.434
| 21> H 	 -26.7654 	 80.0029 	 159.446
| 22> H 	 -25.6442 	 80.2857 	 158.214
| 23> S 	 -31.0192 	 74.0438 	 155.499
| 24> C 	 -31.3276 	 72.5798 	 156.412
| 25> C 	 -31.4141 	 72.864 	 157.731
| 26> C 	 -31.2332 	 74.2386 	 158.12
| 27> C 	 -31.135 	 75.0516 	 157.022
| 28> H 	 -31.6152 	 72.0544 	 158.374
| 29> C 	 -31.2599 	 74.5592 	 159.584
| 30> H 	 -30.8773 	 75.6287 	 159.725
| 31> H 	 -30.6795 	 73.7942 	 160.103
| 32> C 	 -32.6766 	 74.5205 	 160.286
| 33> H 	 -32.722 	 74.794 	 161.322
| 34> H 	 -33.0716 	 73.4972 	 160.124
| 35> C 	 -33.62 	 75.528 	 159.693
| 36> H 	 -33.6064 	 75.5129 	 158.564
| 37> H 	 -33.3481 	 76.5976 	 160.047
| 38> H 	 -34.6235 	 75.4145 	 160.08
| 39> H 	 -30.6503 	 79.8903 	 155.687
| 40> H 	 -31.5691 	 71.5691 	 156.05
| 41> *
| 42>
| 43>                          ****END OF INPUT****

CARTESIAN COORDINATES (ANGSTROEM)
---------------------------------
  S    -31.495900   77.424600  155.524000
  C    -30.673700   78.864900  156.108000
  C    -29.911000   78.530900  157.226000
  C    -29.946300   77.140400  157.587000
  C    -30.869000   76.461000  156.853000
  H    -29.512900   76.721700  158.449000
  C    -29.099700   79.529500  158.012000
  H    -28.937300   79.025500  158.871000
  H    -29.620900   80.509800  158.122000
  C    -27.687000   79.713100  157.427000
  H    -27.177500   78.827700  157.164000
  H    -27.606300   80.283300  156.525000
  C    -26.677500   80.403600  158.481000
  H    -26.875600   81.484700  158.434000
  H    -26.765400   80.002900  159.446000
  H    -25.644200   80.285700  158.214000
  S    -31.019200   74.043800  155.499000
  C    -31.327600   72.579800  156.412000
  C    -31.414100   72.864000  157.731000
  C    -31.233200   74.238600  158.120000
  C    -31.135000   75.051600  157.022000
  H    -31.615200   72.054400  158.374000
  C    -31.259900   74.559200  159.584000
  H    -30.877300   75.628700  159.725000
  H    -30.679500   73.794200  160.103000
  C    -32.676600   74.520500  160.286000
  H    -32.722000   74.794000  161.322000
  H    -33.071600   73.497200  160.124000
  C    -33.620000   75.528000  159.693000
  H    -33.606400   75.512900  158.564000
  H    -33.348100   76.597600  160.047000
  H    -34.623500   75.414500  160.080000
  H    -30.650300   79.890300  155.687000
  H    -31.569100   71.569100  156.050000

 Total Charge           Charge          ....    0
 Multiplicity           Mult            ....    1
 Number of Electrons    NEL             ....  134
 Basis Dimension        Dim             ....  322

ORBITAL ENERGIES
----------------

  NO   OCC          E(Eh)            E(eV)
   0   2.0000     -88.969442     -2420.9816
   1   2.0000     -88.962556     -2420.7942
   2   2.0000     -10.333166      -281.1797
   3   2.0000     -10.329233      -281.0727
   4   2.0000     -10.317208      -280.7455
   5   2.0000     -10.316326      -280.7215
   6   2.0000     -10.306460      -280.4530
   7   2.0000     -10.302582      -280.3475
   8   2.0000     -10.300712      -280.2966
   9   2.0000     -10.291054      -280.0338
  10   2.0000     -10.288101      -279.9535
  11   2.0000     -10.287905      -279.9481
  12   2.0000     -10.287017      -279.9240
  13   2.0000     -10.283425      -279.8262
  14   2.0000     -10.277922      -279.6765
  15   2.0000     -10.274713      -279.5892
  16   2.0000      -8.083573      -219.9652
  17   2.0000      -8.076401      -219.7701
  18   2.0000      -6.042257      -164.4182
  19   2.0000      -6.038111      -164.3053
  20   2.0000      -6.035231      -164.2270
  21   2.0000      -6.034223      -164.1996
  22   2.0000      -6.031132      -164.1154
  23   2.0000      -6.026759      -163.9965
  24   2.0000      -1.006884       -27.3987
  25   2.0000      -0.982917       -26.7465
  26   2.0000      -0.911576       -24.8052
  27   2.0000      -0.908259       -24.7150
  28   2.0000      -0.872085       -23.7306
  29   2.0000      -0.851357       -23.1666
  30   2.0000      -0.844513       -22.9804
  31   2.0000      -0.816192       -22.2097
  32   2.0000      -0.780968       -21.2512
  33   2.0000      -0.771857       -21.0033
  34   2.0000      -0.709125       -19.2963
  35   2.0000      -0.707750       -19.2589
  36   2.0000      -0.687933       -18.7196
  37   2.0000      -0.662981       -18.0406
  38   2.0000      -0.640600       -17.4316
  39   2.0000      -0.621985       -16.9251
  40   2.0000      -0.590870       -16.0784
  41   2.0000      -0.571031       -15.5385
  42   2.0000      -0.563136       -15.3237
  43   2.0000      -0.556188       -15.1347
  44   2.0000      -0.548398       -14.9227
  45   2.0000      -0.520347       -14.1594
  46   2.0000      -0.518821       -14.1178
  47   2.0000      -0.511014       -13.9054
  48   2.0000      -0.507863       -13.8197
  49   2.0000      -0.502061       -13.6618
  50   2.0000      -0.495514       -13.4836
  51   2.0000      -0.477303       -12.9881
  52   2.0000      -0.473494       -12.8844
  53   2.0000      -0.457318       -12.4443
  54   2.0000      -0.455298       -12.3893
  55   2.0000      -0.449397       -12.2287
  56   2.0000      -0.443168       -12.0592
  57   2.0000      -0.438001       -11.9186
  58   2.0000      -0.435287       -11.8448
  59   2.0000      -0.428054       -11.6479
  60   2.0000      -0.419775       -11.4227
  61   2.0000      -0.409541       -11.1442
  62   2.0000      -0.408662       -11.1203
  63   2.0000      -0.353979        -9.6323
  64   2.0000      -0.329339        -8.9618
  65   2.0000      -0.328889        -8.9495
  66   2.0000      -0.292904        -7.9703
  67   0.0000       0.024848         0.6761
  68   0.0000       0.072847         1.9823
  69   0.0000       0.104697         2.8490
  70   0.0000       0.114466         3.1148
  71   0.0000       0.133923         3.6442

MULLIKEN ATOMIC CHARGES
-----------------------
   0 S :    0.115781
   1 C :   -0.121064
   2 C :   -0.133968
   3 C :    0.045517
   4 C :   -0.140000
   5 H :    0.004621
   6 C :    0.155702
   7 H :   -0.021643
   8 H :    0.044817
   9 C :   -0.078323
  10 H :    0.018782
  11 H :    0.018948
  12 C :   -0.058219
  13 H :    0.033961
  14 H :    0.022986
  15 H :    0.027653
  16 S :    0.079381
  17 C :   -0.077499
  18 C :   -0.039563
  19 C :   -0.032922
  20 C :   -0.136540
  21 H :    0.001029
  22 C :    0.053568
  23 H :    0.028312
  24 H :    0.038618
  25 C :   -0.057115
  26 H :    0.034923
  27 H :    0.029645
  28 C :   -0.100021
  29 H :    0.056128
  30 H :    0.031254
  31 H :    0.032327
  32 H :    0.060380
  33 H :    0.062543
Sum of atomic charges:   -0.0000000

LOEWDIN ATOMIC CHARGES
----------------------
   0 S :    0.402816
   1 C :   -0.207117
   2 C :   -0.056426
   3 C :   -0.055519
   4 C :   -0.188824
   5 H :    0.024201
   6 C :   -0.021438
   7 H :    0.014881
   8 H :    0.040342
   9 C :   -0.029988
  10 H :    0.018661
  11 H :    0.018429
  12 C :   -0.062962
  13 H :    0.025936
  14 H :    0.014010
  15 H :    0.023042
  16 S :    0.361260
  17 C :   -0.182626
  18 C :   -0.069861
  19 C :   -0.060051
  20 C :   -0.162483
  21 H :    0.022770
  22 C :   -0.032315
  23 H :    0.034275
  24 H :    0.035284
  25 C :   -0.042085
  26 H :    0.026190
  27 H :    0.022888
  28 C :   -0.076120
  29 H :    0.030719
  30 H :    0.029689
  31 H :    0.022245
  32 H :    0.040494
  33 H :    0.039684

  Mayer bond orders larger than 0.100000
B(  0-S ,  1-C ) :   1.1191 B(  0-S ,  4-C ) :   1.1474 B(  1-C ,  2-C ) :   1.6144
B(  1-C , 32-H ) :   0.9665 B(  2-C ,  3-C ) :   1.2373 B(  2-C ,  6-C ) :   1.0330
B(  3-C ,  4-C ) :   1.5763 B(  3-C ,  5-H ) :   0.9892 B(  4-C , 20-C ) :   1.0507
B(  6-C ,  7-H ) :   0.9213 B(  6-C ,  8-H ) :   0.9436 B(  6-C ,  9-C ) :   1.0565
B(  9-C , 10-H ) :   0.9606 B(  9-C , 11-H ) :   0.9601 B(  9-C , 12-C ) :   1.0721
B( 12-C , 13-H ) :   0.9802 B( 12-C , 14-H ) :   0.9796 B( 12-C , 15-H ) :   0.9787
B( 16-S , 17-C ) :   1.1206 B( 16-S , 20-C ) :   1.1094 B( 17-C , 18-C ) :   1.6765
B( 17-C , 33-H ) :   0.9589 B( 18-C , 19-C ) :   1.1806 B( 18-C , 21-H ) :   0.9919
B( 19-C , 20-C ) :   1.6384 B( 19-C , 22-C ) :   1.0536 B( 22-C , 23-H ) :   0.9316
B( 22-C , 24-H ) :   0.9305 B( 22-C , 25-C ) :   1.0673 B( 25-C , 26-H ) :   0.9575
B( 25-C , 27-H ) :   0.9552 B( 25-C , 28-C ) :   1.0764 B( 28-C , 29-H ) :   0.9740
B( 28-C , 30-H ) :   0.9730 B( 28-C , 31-H ) :   0.9718

Dispersion correction           -0.014291143
FINAL SINGLE POINT ENERGY     -1339.861942556121

DIPOLE MOMENT
-------------
                                X             Y             Z
Electronic contribution:     -7.10802     -11.85534     -21.20218
Nuclear contribution   :      7.30265      11.90534      21.88111
                        -----------------------------------------
Total Dipole Moment    :      0.19463       0.05000       0.67893
                        -----------------------------------------
Magnitude (a.u.)       :      0.70804
Magnitude (Debye)      :      1.79971

Rotational constants in cm-1:     0.019614     0.007947     0.006946
Rotational constants in MHz :   588.006676   238.257965   208.234696

                             ****ORCA TERMINATED NORMALLY****
TOTAL RUN TIME: 0 days 0 hours 0 minutes 32 seconds 612 msec
