                         Program Version 4.2.1 -  RELEASE  -
|  1> ! wB97X-D3 SP def2-SVP
|  2> %pal
|  3> nprocs 16
|  4> end
|  5>
|  6> * xyz 0 1
|  7> S 	 -57.4036 	 38.9606 	 111.063
|  8> C 	 -56.1946 	 40.0828 	 110.385
|  9> C 	 -56.7134 	 41.0518 	 109.565
| 10> C 	 -58.1221 	 40.9915 	 109.552
| 11> C 	 -58.6827 	 39.9205 	 110.17
| 12> H 	 -58.7653 	 41.6939 	 109.003
| 13> C 	 -55.9392 	 42.107 	 108.861
| 14> H 	 -56.2199 	 42.2394 	 107.834
| 15> H 	 -54.8356 	 41.8947 	 108.785
| 16> C 	 -56.0348 	 43.5483 	 109.369
| 17> H 	 -55.5196 	 44.2175 	 108.748
| 18> H 	 -57.1369 	 43.9122 	 109.257
| 19> C 	 -55.4706 	 43.6825 	 110.808
| 20> H 	 -56.1342 	 43.2196 	 111.532
| 21> H 	 -54.4551 	 43.175 	 110.875
| 22> H 	 -55.3938 	 44.7824 	 111.066
| 23> S 	 -60.612 	 37.8987 	 110.176
| 24> C 	 -62.3245 	 38.2374 	 109.974
| 25> C 	 -62.4542 	 39.5782 	 110.305
| 26> C 	 -61.2084 	 40.3424 	 110.332
| 27> C 	 -60.1026 	 39.5581 	 110.289
| 28> H 	 -63.4279 	 40.1292 	 110.305
| 29> C 	 -61.2067 	 41.8818 	 110.565
| 30> H 	 -60.2243 	 42.1857 	 110.955
| 31> H 	 -61.879 	 42.0909 	 111.433
| 32> C 	 -61.781 	 42.6966 	 109.39
| 33> H 	 -62.818 	 42.4282 	 109.149
| 34> H 	 -61.1596 	 42.4237 	 108.556
| 35> C 	 -61.5284 	 44.1943 	 109.371
| 36> H 	 -60.481 	 44.4492 	 109.222
| 37> H 	 -61.9843 	 44.7098 	 110.191
| 38> H 	 -61.8837 	 44.5812 	 108.422
| 39> H 	 -55.122 	 40.1021 	 110.486
| 40> H 	 -63.1607 	 37.5947 	 109.989
| 41> *
| 42>
| 43>                          ****END OF INPUT****

CARTESIAN COORDINATES (ANGSTROEM)
---------------------------------
  S    -57.403600   38.960600  111.063000
  C    -56.194600   40.082800  110.385000
  C    -56.713400   41.051800  109.565000
  C    -58.122100   40.991500  109.552000
  C    -58.682700   39.920500  110.170000
  H    -58.765300   41.693900  109.003000
  C    -55.939200   42.107000  108.861000
  H    -56.219900   42.239400  107.834000
  H    -54.835600   41.894700  108.785000
  C    -56.034800   43.548300  109.369000
  H    -55.519600   44.217500  108.748000
  H    -57.136900   43.912200  109.257000
  C    -55.470600   43.682500  110.808000
  H    -56.134200   43.219600  111.532000
  H    -54.455100   43.175000  110.875000
  H    -55.393800   44.782400  111.066000
  S    -60.612000   37.898700  110.176000
  C    -62.324500   38.237400  109.974000
  C    -62.454200   39.578200  110.305000
  C    -61.208400   40.342400  110.332000
  C    -60.102600   39.558100  110.289000
  H    -63.427900   40.129200  110.305000
  C    -61.206700   41.881800  110.565000
  H    -60.224300   42.185700  110.955000
  H    -61.879000   42.090900  111.433000
  C    -61.781000   42.696600  109.390000
  H    -62.818000   42.428200  109.149000
  H    -61.159600   42.423700  108.556000
  C    -61.528400   44.194300  109.371000
  H    -60.481000   44.449200  109.222000
  H    -61.984300   44.709800  110.191000
  H    -61.883700   44.581200  108.422000
  H    -55.122000   40.102100  110.486000
  H    -63.160700   37.594700  109.989000

 Total Charge           Charge          ....    0
 Multiplicity           Mult            ....    1
 Number of Electrons    NEL             ....  134
 Basis Dimension        Dim             ....  322

ORBITAL ENERGIES
----------------

  NO   OCC          E(Eh)            E(eV)
   0   2.0000     -88.971472     -2421.0368
   1   2.0000     -88.963005     -2420.8064
   2   2.0000     -10.338658      -281.3292
   3   2.0000     -10.328243      -281.0458
   4   2.0000     -10.321144      -280.8526
   5   2.0000     -10.317327      -280.7487
   6   2.0000     -10.304271      -280.3935
   7   2.0000     -10.301538      -280.3191
   8   2.0000     -10.300359      -280.2870
   9   2.0000     -10.298103      -280.2256
  10   2.0000     -10.297175      -280.2004
  11   2.0000     -10.295076      -280.1433
  12   2.0000     -10.293428      -280.0984
  13   2.0000     -10.287377      -279.9338
  14   2.0000     -10.285944      -279.8948
  15   2.0000     -10.277600      -279.6677
  16   2.0000      -8.084343      -219.9862
  17   2.0000      -8.077998      -219.8135
  18   2.0000      -6.043162      -164.4428
  19   2.0000      -6.039319      -164.3382
  20   2.0000      -6.036779      -164.2691
  21   2.0000      -6.034682      -164.2120
  22   2.0000      -6.032412      -164.1503
  23   2.0000      -6.028456      -164.0426
  24   2.0000      -1.007351       -27.4114
  25   2.0000      -0.985334       -26.8123
  26   2.0000      -0.913882       -24.8680
  27   2.0000      -0.908122       -24.7113
  28   2.0000      -0.871953       -23.7270
  29   2.0000      -0.851407       -23.1680
  30   2.0000      -0.842946       -22.9377
  31   2.0000      -0.819091       -22.2886
  32   2.0000      -0.782574       -21.2949
  33   2.0000      -0.777516       -21.1573
  34   2.0000      -0.711398       -19.3581
  35   2.0000      -0.698528       -19.0079
  36   2.0000      -0.695352       -18.9215
  37   2.0000      -0.661933       -18.0121
  38   2.0000      -0.641076       -17.4446
  39   2.0000      -0.621339       -16.9075
  40   2.0000      -0.592865       -16.1327
  41   2.0000      -0.572008       -15.5651
  42   2.0000      -0.569408       -15.4944
  43   2.0000      -0.549280       -14.9467
  44   2.0000      -0.545062       -14.8319
  45   2.0000      -0.526113       -14.3163
  46   2.0000      -0.518527       -14.1098
  47   2.0000      -0.518152       -14.0996
  48   2.0000      -0.507850       -13.8193
  49   2.0000      -0.491990       -13.3877
  50   2.0000      -0.490815       -13.3557
  51   2.0000      -0.484050       -13.1717
  52   2.0000      -0.472244       -12.8504
  53   2.0000      -0.467574       -12.7233
  54   2.0000      -0.463786       -12.6202
  55   2.0000      -0.447958       -12.1895
  56   2.0000      -0.440123       -11.9764
  57   2.0000      -0.432713       -11.7747
  58   2.0000      -0.431193       -11.7334
  59   2.0000      -0.424808       -11.5596
  60   2.0000      -0.419851       -11.4247
  61   2.0000      -0.419015       -11.4020
  62   2.0000      -0.405370       -11.0307
  63   2.0000      -0.359084        -9.7712
  64   2.0000      -0.336544        -9.1578
  65   2.0000      -0.325293        -8.8517
  66   2.0000      -0.294577        -8.0158
  67   0.0000       0.025561         0.6955
  68   0.0000       0.067294         1.8312
  69   0.0000       0.102032         2.7764
  70   0.0000       0.110337         3.0024
  71   0.0000       0.121403         3.3036

MULLIKEN ATOMIC CHARGES
-----------------------
   0 S :    0.101262
   1 C :   -0.092897
   2 C :   -0.051172
   3 C :   -0.005086
   4 C :   -0.113971
   5 H :    0.012733
   6 C :    0.045353
   7 H :    0.024653
   8 H :    0.026378
   9 C :   -0.090407
  10 H :    0.020378
  11 H :    0.034219
  12 C :   -0.080299
  13 H :    0.048059
  14 H :    0.037058
  15 H :    0.044267
  16 S :    0.086303
  17 C :   -0.060645
  18 C :   -0.046431
  19 C :   -0.080646
  20 C :   -0.109360
  21 H :    0.035407
  22 C :    0.033836
  23 H :    0.031851
  24 H :    0.031497
  25 C :   -0.077333
  26 H :    0.036144
  27 H :    0.015243
  28 C :   -0.021936
  29 H :    0.021770
  30 H :    0.034682
  31 H :    0.021803
  32 H :    0.031665
  33 H :    0.055622
Sum of atomic charges:   -0.0000000

LOEWDIN ATOMIC CHARGES
----------------------
   0 S :    0.357857
   1 C :   -0.175549
   2 C :   -0.067227
   3 C :   -0.057206
   4 C :   -0.153901
   5 H :    0.034708
   6 C :   -0.038171
   7 H :    0.031521
   8 H :    0.034562
   9 C :   -0.042665
  10 H :    0.015432
  11 H :    0.027970
  12 C :   -0.073824
  13 H :    0.025259
  14 H :    0.030186
  15 H :    0.031612
  16 S :    0.401165
  17 C :   -0.178602
  18 C :   -0.071284
  19 C :   -0.062409
  20 C :   -0.201595
  21 H :    0.033561
  22 C :   -0.036005
  23 H :    0.030749
  24 H :    0.033516
  25 C :   -0.045648
  26 H :    0.026020
  27 H :    0.021457
  28 C :   -0.062256
  29 H :    0.025648
  30 H :    0.018892
  31 H :    0.029471
  32 H :    0.027422
  33 H :    0.029331

  Mayer bond orders larger than 0.100000
B(  0-S ,  1-C ) :   1.1169 B(  0-S ,  4-C ) :   1.1044 B(  1-C ,  2-C ) :   1.6591
B(  1-C , 32-H ) :   0.9555 B(  2-C ,  3-C ) :   1.2015 B(  2-C ,  6-C ) :   1.0392
B(  3-C ,  4-C ) :   1.6389 B(  3-C ,  5-H ) :   0.9857 B(  4-C , 20-C ) :   1.0306
B(  6-C ,  7-H ) :   0.9316 B(  6-C ,  8-H ) :   0.9405 B(  6-C ,  9-C ) :   1.0821
B(  9-C , 10-H ) :   0.9544 B(  9-C , 11-H ) :   0.9507 B(  9-C , 12-C ) :   1.0635
B( 12-C , 13-H ) :   0.9768 B( 12-C , 14-H ) :   0.9732 B( 12-C , 15-H ) :   0.9756
B( 16-S , 17-C ) :   1.1421 B( 16-S , 20-C ) :   1.1221 B( 17-C , 18-C ) :   1.6136
B( 17-C , 33-H ) :   0.9709 B( 18-C , 19-C ) :   1.2436 B( 18-C , 21-H ) :   0.9728
B( 19-C , 20-C ) :   1.6285 B( 19-C , 22-C ) :   1.0330 B( 22-C , 23-H ) :   0.9457
B( 22-C , 24-H ) :   0.9369 B( 22-C , 25-C ) :   1.0479 B( 25-C , 26-H ) :   0.9552
B( 25-C , 27-H ) :   0.9548 B( 25-C , 28-C ) :   1.0936 B( 28-C , 29-H ) :   0.9727
B( 28-C , 30-H ) :   0.9750 B( 28-C , 31-H ) :   0.9681

Dispersion correction           -0.014691790
FINAL SINGLE POINT ENERGY     -1339.867351775453

DIPOLE MOMENT
-------------
                                X             Y             Z
Electronic contribution:     -2.80560     -31.49604       5.22337
Nuclear contribution   :      2.67514      32.32211      -5.49540
                        -----------------------------------------
Total Dipole Moment    :     -0.13046       0.82607      -0.27203
                        -----------------------------------------
Magnitude (a.u.)       :      0.87944
Magnitude (Debye)      :      2.23535

Rotational constants in cm-1:     0.017398     0.009831     0.006698
Rotational constants in MHz :   521.590882   294.719559   200.811017

                             ****ORCA TERMINATED NORMALLY****
TOTAL RUN TIME: 0 days 0 hours 0 minutes 31 seconds 41 msec
