                         Program Version 4.2.1 -  RELEASE  -
|  1> ! wB97X-D3 SP def2-SVP
|  2> %pal
|  3> nprocs 16
|  4> end
|  5>
|  6> * xyz 0 1
|  7> S 	 -101.72 	 53.0852 	 118.566
|  8> C 	 -102.144 	 53.5649 	 116.927
|  9> C 	 -103.358 	 54.2745 	 117.016
| 10> C 	 -103.88 	 54.421 	 118.328
| 11> C 	 -103.215 	 53.7324 	 119.299
| 12> H 	 -104.836 	 54.8988 	 118.658
| 13> C 	 -103.978 	 54.9884 	 115.806
| 14> H 	 -104.874 	 54.4021 	 115.499
| 15> H 	 -103.327 	 54.7335 	 114.98
| 16> C 	 -104.038 	 56.5533 	 115.823
| 17> H 	 -103.14 	 56.9947 	 116.214
| 18> H 	 -104.176 	 56.8199 	 114.778
| 19> C 	 -105.313 	 57.006 	 116.566
| 20> H 	 -106.132 	 56.2824 	 116.354
| 21> H 	 -105.157 	 57.1014 	 117.624
| 22> H 	 -105.616 	 57.9953 	 116.262
| 23> S 	 -102.296 	 52.7889 	 121.613
| 24> C 	 -103.312 	 52.784 	 123.078
| 25> C 	 -104.513 	 53.3079 	 122.836
| 26> C 	 -104.654 	 53.8357 	 121.549
| 27> C 	 -103.515 	 53.569 	 120.714
| 28> H 	 -105.259 	 53.4629 	 123.62
| 29> C 	 -105.926 	 54.4783 	 121.168
| 30> H 	 -106.685 	 54.1486 	 121.727
| 31> H 	 -106.223 	 54.1439 	 120.152
| 32> C 	 -105.912 	 56.0263 	 121.31
| 33> H 	 -104.975 	 56.4114 	 120.897
| 34> H 	 -105.988 	 56.3045 	 122.372
| 35> C 	 -107.071 	 56.7036 	 120.596
| 36> H 	 -107.205 	 57.6085 	 121.056
| 37> H 	 -108.026 	 56.1151 	 120.701
| 38> H 	 -106.82 	 56.7677 	 119.509
| 39> H 	 -101.618 	 53.35 	 115.987
| 40> H 	 -103 	 52.4244 	 124.031
| 41> *
| 42>
| 43>                          ****END OF INPUT****

CARTESIAN COORDINATES (ANGSTROEM)
---------------------------------
  S    -101.720000   53.085200  118.566000
  C    -102.144000   53.564900  116.927000
  C    -103.358000   54.274500  117.016000
  C    -103.880000   54.421000  118.328000
  C    -103.215000   53.732400  119.299000
  H    -104.836000   54.898800  118.658000
  C    -103.978000   54.988400  115.806000
  H    -104.874000   54.402100  115.499000
  H    -103.327000   54.733500  114.980000
  C    -104.038000   56.553300  115.823000
  H    -103.140000   56.994700  116.214000
  H    -104.176000   56.819900  114.778000
  C    -105.313000   57.006000  116.566000
  H    -106.132000   56.282400  116.354000
  H    -105.157000   57.101400  117.624000
  H    -105.616000   57.995300  116.262000
  S    -102.296000   52.788900  121.613000
  C    -103.312000   52.784000  123.078000
  C    -104.513000   53.307900  122.836000
  C    -104.654000   53.835700  121.549000
  C    -103.515000   53.569000  120.714000
  H    -105.259000   53.462900  123.620000
  C    -105.926000   54.478300  121.168000
  H    -106.685000   54.148600  121.727000
  H    -106.223000   54.143900  120.152000
  C    -105.912000   56.026300  121.310000
  H    -104.975000   56.411400  120.897000
  H    -105.988000   56.304500  122.372000
  C    -107.071000   56.703600  120.596000
  H    -107.205000   57.608500  121.056000
  H    -108.026000   56.115100  120.701000
  H    -106.820000   56.767700  119.509000
  H    -101.618000   53.350000  115.987000
  H    -103.000000   52.424400  124.031000

 Total Charge           Charge          ....    0
 Multiplicity           Mult            ....    1
 Number of Electrons    NEL             ....  134
 Basis Dimension        Dim             ....  322

ORBITAL ENERGIES
----------------

  NO   OCC          E(Eh)            E(eV)
   0   2.0000     -88.966528     -2420.9023
   1   2.0000     -88.963540     -2420.8210
   2   2.0000     -10.332858      -281.1714
   3   2.0000     -10.331310      -281.1292
   4   2.0000     -10.319820      -280.8166
   5   2.0000     -10.313258      -280.6380
   6   2.0000     -10.303051      -280.3603
   7   2.0000     -10.302463      -280.3443
   8   2.0000     -10.292502      -280.0732
   9   2.0000     -10.292039      -280.0606
  10   2.0000     -10.290224      -280.0112
  11   2.0000     -10.288697      -279.9697
  12   2.0000     -10.287182      -279.9284
  13   2.0000     -10.282587      -279.8034
  14   2.0000     -10.277590      -279.6674
  15   2.0000     -10.277093      -279.6539
  16   2.0000      -8.081691      -219.9140
  17   2.0000      -8.077470      -219.7991
  18   2.0000      -6.040202      -164.3623
  19   2.0000      -6.036266      -164.2551
  20   2.0000      -6.036121      -164.2512
  21   2.0000      -6.032448      -164.1512
  22   2.0000      -6.032037      -164.1401
  23   2.0000      -6.028014      -164.0306
  24   2.0000      -1.010789       -27.5050
  25   2.0000      -0.984222       -26.7820
  26   2.0000      -0.916415       -24.9369
  27   2.0000      -0.905636       -24.6436
  28   2.0000      -0.876702       -23.8563
  29   2.0000      -0.856019       -23.2935
  30   2.0000      -0.839825       -22.8528
  31   2.0000      -0.823781       -22.4162
  32   2.0000      -0.780780       -21.2461
  33   2.0000      -0.768679       -20.9168
  34   2.0000      -0.708400       -19.2766
  35   2.0000      -0.701143       -19.0791
  36   2.0000      -0.694439       -18.8966
  37   2.0000      -0.667379       -18.1603
  38   2.0000      -0.639243       -17.3947
  39   2.0000      -0.617542       -16.8042
  40   2.0000      -0.603813       -16.4306
  41   2.0000      -0.572552       -15.5799
  42   2.0000      -0.571043       -15.5389
  43   2.0000      -0.541445       -14.7335
  44   2.0000      -0.536756       -14.6059
  45   2.0000      -0.530553       -14.4371
  46   2.0000      -0.517702       -14.0874
  47   2.0000      -0.512506       -13.9460
  48   2.0000      -0.510641       -13.8953
  49   2.0000      -0.506722       -13.7886
  50   2.0000      -0.493094       -13.4178
  51   2.0000      -0.487716       -13.2714
  52   2.0000      -0.473084       -12.8733
  53   2.0000      -0.465244       -12.6599
  54   2.0000      -0.458809       -12.4848
  55   2.0000      -0.450505       -12.2589
  56   2.0000      -0.446566       -12.1517
  57   2.0000      -0.437615       -11.9081
  58   2.0000      -0.433564       -11.7979
  59   2.0000      -0.422596       -11.4994
  60   2.0000      -0.419374       -11.4118
  61   2.0000      -0.415580       -11.3085
  62   2.0000      -0.401429       -10.9234
  63   2.0000      -0.367988       -10.0135
  64   2.0000      -0.338920        -9.2225
  65   2.0000      -0.322795        -8.7837
  66   2.0000      -0.278428        -7.5764
  67   0.0000       0.014865         0.4045
  68   0.0000       0.089701         2.4409
  69   0.0000       0.097131         2.6431
  70   0.0000       0.121747         3.3129
  71   0.0000       0.128870         3.5067

MULLIKEN ATOMIC CHARGES
-----------------------
   0 S :    0.081949
   1 C :   -0.109091
   2 C :   -0.108801
   3 C :   -0.015967
   4 C :   -0.090370
   5 H :    0.008471
   6 C :    0.036490
   7 H :    0.042065
   8 H :   -0.004553
   9 C :   -0.030003
  10 H :    0.038590
  11 H :    0.031614
  12 C :   -0.063638
  13 H :    0.036406
  14 H :    0.038254
  15 H :    0.025043
  16 S :    0.090007
  17 C :   -0.065036
  18 C :   -0.016346
  19 C :   -0.069555
  20 C :   -0.116113
  21 H :    0.021959
  22 C :    0.093175
  23 H :   -0.026476
  24 H :    0.027708
  25 C :   -0.091866
  26 H :    0.036139
  27 H :    0.027355
  28 C :   -0.026502
  29 H :    0.020623
  30 H :    0.031106
  31 H :    0.041959
  32 H :    0.064365
  33 H :    0.041039
Sum of atomic charges:    0.0000000

LOEWDIN ATOMIC CHARGES
----------------------
   0 S :    0.375141
   1 C :   -0.201575
   2 C :   -0.065265
   3 C :   -0.083675
   4 C :   -0.173232
   5 H :    0.037052
   6 C :   -0.039493
   7 H :    0.035943
   8 H :    0.023230
   9 C :   -0.026973
  10 H :    0.027207
  11 H :    0.027411
  12 C :   -0.068373
  13 H :    0.029192
  14 H :    0.019134
  15 H :    0.022190
  16 S :    0.416307
  17 C :   -0.166976
  18 C :   -0.070569
  19 C :   -0.055114
  20 C :   -0.203454
  21 H :    0.038234
  22 C :   -0.030223
  23 H :    0.011546
  24 H :    0.032527
  25 C :   -0.034694
  26 H :    0.023675
  27 H :    0.024682
  28 C :   -0.061148
  29 H :    0.014356
  30 H :    0.029288
  31 H :    0.029468
  32 H :    0.039657
  33 H :    0.024523

  Mayer bond orders larger than 0.100000
B(  0-S ,  1-C ) :   1.1245 B(  0-S ,  4-C ) :   1.1304 B(  1-C ,  2-C ) :   1.6018
B(  1-C ,  4-C ) :   0.1011 B(  1-C , 32-H ) :   0.9654 B(  2-C ,  3-C ) :   1.2411
B(  2-C ,  6-C ) :   1.0291 B(  3-C ,  4-C ) :   1.5934 B(  3-C ,  5-H ) :   0.9780
B(  4-C , 20-C ) :   1.0975 B(  6-C ,  7-H ) :   0.9378 B(  6-C ,  8-H ) :   0.9370
B(  6-C ,  9-C ) :   1.0600 B(  9-C , 10-H ) :   0.9573 B(  9-C , 11-H ) :   0.9573
B(  9-C , 12-C ) :   1.0766 B( 12-C , 13-H ) :   0.9779 B( 12-C , 14-H ) :   0.9708
B( 12-C , 15-H ) :   0.9701 B( 16-S , 17-C ) :   1.1439 B( 16-S , 20-C ) :   1.1573
B( 17-C , 18-C ) :   1.5994 B( 17-C , 33-H ) :   0.9708 B( 18-C , 19-C ) :   1.2957
B( 18-C , 21-H ) :   0.9821 B( 19-C , 20-C ) :   1.5064 B( 19-C , 22-C ) :   1.0602
B( 22-C , 23-H ) :   0.9086 B( 22-C , 24-H ) :   0.9351 B( 22-C , 25-C ) :   1.0493
B( 25-C , 26-H ) :   0.9622 B( 25-C , 27-H ) :   0.9560 B( 25-C , 28-C ) :   1.0832
B( 28-C , 29-H ) :   0.9727 B( 28-C , 30-H ) :   0.9701 B( 28-C , 31-H ) :   0.9744

Dispersion correction           -0.015028279
FINAL SINGLE POINT ENERGY     -1339.865926693174

DIPOLE MOMENT
-------------
                                X             Y             Z
Electronic contribution:     22.50323     -21.09674      10.13458
Nuclear contribution   :    -23.12998      21.52098     -10.18123
                        -----------------------------------------
Total Dipole Moment    :     -0.62674       0.42423      -0.04665
                        -----------------------------------------
Magnitude (a.u.)       :      0.75826
Magnitude (Debye)      :      1.92735

Rotational constants in cm-1:     0.016926     0.010836     0.006843
Rotational constants in MHz :   507.421635   324.850841   205.133411

                             ****ORCA TERMINATED NORMALLY****
TOTAL RUN TIME: 0 days 0 hours 0 minutes 34 seconds 854 msec
