                         Program Version 4.2.1 -  RELEASE  -
|  1> ! wB97X-D3 SP def2-SVP
|  2> %pal
|  3> nprocs 16
|  4> end
|  5>
|  6> * xyz 0 1
|  7> S 	 -6.24634 	 73.9212 	 48.4863
|  8> C 	 -4.97528 	 75.12 	 48.1463
|  9> C 	 -5.14382 	 75.7399 	 46.9159
| 10> C 	 -6.32025 	 75.1867 	 46.2894
| 11> C 	 -7.08725 	 74.336 	 47.0885
| 12> H 	 -6.69276 	 75.2761 	 45.2768
| 13> C 	 -4.25036 	 76.6776 	 46.2242
| 14> H 	 -4.21707 	 76.3286 	 45.1584
| 15> H 	 -3.1891 	 76.6226 	 46.502
| 16> C 	 -4.68692 	 78.1193 	 46.1057
| 17> H 	 -5.71512 	 78.0906 	 45.6902
| 18> H 	 -4.6923 	 78.7051 	 47.1007
| 19> C 	 -3.73441 	 78.9381 	 45.2819
| 20> H 	 -3.5838 	 78.3561 	 44.3328
| 21> H 	 -4.08066 	 79.8998 	 45.0382
| 22> H 	 -2.85339 	 79.0757 	 45.9556
| 23> S 	 -8.34098 	 71.8726 	 47.1504
| 24> C 	 -9.74168 	 71.6369 	 46.1356
| 25> C 	 -10.0991 	 72.7248 	 45.3986
| 26> C 	 -9.16756 	 73.7997 	 45.6412
| 27> C 	 -8.24675 	 73.5688 	 46.695
| 28> H 	 -10.8958 	 72.7024 	 44.6828
| 29> C 	 -9.43383 	 75.1557 	 45.1204
| 30> H 	 -10.2406 	 74.9691 	 44.4183
| 31> H 	 -8.59955 	 75.4747 	 44.4761
| 32> C 	 -9.67184 	 76.2889 	 46.0733
| 33> H 	 -8.77608 	 76.4873 	 46.6353
| 34> H 	 -10.456 	 75.9564 	 46.7118
| 35> C 	 -10.0653 	 77.563 	 45.3013
| 36> H 	 -10.4606 	 78.3302 	 45.9677
| 37> H 	 -10.6811 	 77.2157 	 44.449
| 38> H 	 -9.3579 	 78.0994 	 44.7411
| 39> H 	 -4.31071 	 75.478 	 48.9084
| 40> H 	 -10.319 	 70.7723 	 46.1801
| 41> *
| 42>
| 43>                          ****END OF INPUT****

CARTESIAN COORDINATES (ANGSTROEM)
---------------------------------
  S     -6.246340   73.921200   48.486300
  C     -4.975280   75.120000   48.146300
  C     -5.143820   75.739900   46.915900
  C     -6.320250   75.186700   46.289400
  C     -7.087250   74.336000   47.088500
  H     -6.692760   75.276100   45.276800
  C     -4.250360   76.677600   46.224200
  H     -4.217070   76.328600   45.158400
  H     -3.189100   76.622600   46.502000
  C     -4.686920   78.119300   46.105700
  H     -5.715120   78.090600   45.690200
  H     -4.692300   78.705100   47.100700
  C     -3.734410   78.938100   45.281900
  H     -3.583800   78.356100   44.332800
  H     -4.080660   79.899800   45.038200
  H     -2.853390   79.075700   45.955600
  S     -8.340980   71.872600   47.150400
  C     -9.741680   71.636900   46.135600
  C    -10.099100   72.724800   45.398600
  C     -9.167560   73.799700   45.641200
  C     -8.246750   73.568800   46.695000
  H    -10.895800   72.702400   44.682800
  C     -9.433830   75.155700   45.120400
  H    -10.240600   74.969100   44.418300
  H     -8.599550   75.474700   44.476100
  C     -9.671840   76.288900   46.073300
  H     -8.776080   76.487300   46.635300
  H    -10.456000   75.956400   46.711800
  C    -10.065300   77.563000   45.301300
  H    -10.460600   78.330200   45.967700
  H    -10.681100   77.215700   44.449000
  H     -9.357900   78.099400   44.741100
  H     -4.310710   75.478000   48.908400
  H    -10.319000   70.772300   46.180100

 Total Charge           Charge          ....    0
 Multiplicity           Mult            ....    1
 Number of Electrons    NEL             ....  134
 Basis Dimension        Dim             ....  322

ORBITAL ENERGIES
----------------

  NO   OCC          E(Eh)            E(eV)
   0   2.0000     -88.966697     -2420.9069
   1   2.0000     -88.966148     -2420.8920
   2   2.0000     -10.327255      -281.0189
   3   2.0000     -10.326117      -280.9879
   4   2.0000     -10.315463      -280.6980
   5   2.0000     -10.313295      -280.6390
   6   2.0000     -10.306837      -280.4633
   7   2.0000     -10.302646      -280.3493
   8   2.0000     -10.295990      -280.1681
   9   2.0000     -10.295427      -280.1528
  10   2.0000     -10.293788      -280.1082
  11   2.0000     -10.291418      -280.0437
  12   2.0000     -10.283359      -279.8244
  13   2.0000     -10.280960      -279.7592
  14   2.0000     -10.277297      -279.6595
  15   2.0000     -10.273223      -279.5486
  16   2.0000      -8.081877      -219.9190
  17   2.0000      -8.081481      -219.9083
  18   2.0000      -6.040336      -164.3659
  19   2.0000      -6.040002      -164.3568
  20   2.0000      -6.036246      -164.2546
  21   2.0000      -6.035994      -164.2478
  22   2.0000      -6.032631      -164.1562
  23   2.0000      -6.032221      -164.1451
  24   2.0000      -1.012391       -27.5486
  25   2.0000      -0.986100       -26.8332
  26   2.0000      -0.924761       -25.1640
  27   2.0000      -0.916764       -24.9464
  28   2.0000      -0.877870       -23.8881
  29   2.0000      -0.853159       -23.2156
  30   2.0000      -0.849811       -23.1245
  31   2.0000      -0.815265       -22.1845
  32   2.0000      -0.786644       -21.4057
  33   2.0000      -0.771173       -20.9847
  34   2.0000      -0.715769       -19.4771
  35   2.0000      -0.694954       -18.9106
  36   2.0000      -0.691997       -18.8302
  37   2.0000      -0.668162       -18.1816
  38   2.0000      -0.644411       -17.5353
  39   2.0000      -0.621866       -16.9218
  40   2.0000      -0.599259       -16.3067
  41   2.0000      -0.579067       -15.7572
  42   2.0000      -0.573266       -15.5994
  43   2.0000      -0.566393       -15.4123
  44   2.0000      -0.533188       -14.5088
  45   2.0000      -0.527842       -14.3633
  46   2.0000      -0.513917       -13.9844
  47   2.0000      -0.513781       -13.9807
  48   2.0000      -0.509661       -13.8686
  49   2.0000      -0.503713       -13.7067
  50   2.0000      -0.492443       -13.4001
  51   2.0000      -0.487842       -13.2749
  52   2.0000      -0.470003       -12.7894
  53   2.0000      -0.466405       -12.6915
  54   2.0000      -0.460463       -12.5298
  55   2.0000      -0.451431       -12.2841
  56   2.0000      -0.443311       -12.0631
  57   2.0000      -0.438877       -11.9425
  58   2.0000      -0.429708       -11.6929
  59   2.0000      -0.426821       -11.6144
  60   2.0000      -0.421275       -11.4635
  61   2.0000      -0.411334       -11.1930
  62   2.0000      -0.407345       -11.0844
  63   2.0000      -0.358310        -9.7501
  64   2.0000      -0.332312        -9.0427
  65   2.0000      -0.328947        -8.9511
  66   2.0000      -0.282494        -7.6871
  67   0.0000       0.017099         0.4653
  68   0.0000       0.076637         2.0854
  69   0.0000       0.100327         2.7300
  70   0.0000       0.116403         3.1675
  71   0.0000       0.124524         3.3885

MULLIKEN ATOMIC CHARGES
-----------------------
   0 S :    0.093055
   1 C :   -0.118127
   2 C :   -0.023408
   3 C :   -0.007408
   4 C :   -0.135739
   5 H :    0.005476
   6 C :    0.032476
   7 H :    0.029830
   8 H :    0.022553
   9 C :   -0.109367
  10 H :    0.029752
  11 H :    0.036563
  12 C :   -0.023420
  13 H :    0.029926
  14 H :    0.026618
  15 H :    0.037882
  16 S :    0.095288
  17 C :   -0.056846
  18 C :   -0.010563
  19 C :   -0.073179
  20 C :   -0.103646
  21 H :    0.018909
  22 C :    0.007481
  23 H :    0.003844
  24 H :    0.018589
  25 C :   -0.003180
  26 H :    0.040920
  27 H :    0.027520
  28 C :   -0.038921
  29 H :    0.039631
  30 H :    0.017774
  31 H :    0.009303
  32 H :    0.047610
  33 H :    0.032804
Sum of atomic charges:    0.0000000

LOEWDIN ATOMIC CHARGES
----------------------
   0 S :    0.420106
   1 C :   -0.185664
   2 C :   -0.055482
   3 C :   -0.067247
   4 C :   -0.211427
   5 H :    0.027303
   6 C :   -0.042487
   7 H :    0.041282
   8 H :    0.031097
   9 C :   -0.049470
  10 H :    0.021968
  11 H :    0.029772
  12 C :   -0.062858
  13 H :    0.027627
  14 H :    0.018517
  15 H :    0.032964
  16 S :    0.401362
  17 C :   -0.167661
  18 C :   -0.065261
  19 C :   -0.055118
  20 C :   -0.199146
  21 H :    0.033058
  22 C :   -0.044299
  23 H :    0.025456
  24 H :    0.027118
  25 C :   -0.029967
  26 H :    0.025837
  27 H :    0.024022
  28 C :   -0.067476
  29 H :    0.030305
  30 H :    0.028533
  31 H :    0.016806
  32 H :    0.024439
  33 H :    0.015990

  Mayer bond orders larger than 0.100000
B(  0-S ,  1-C ) :   1.1327 B(  0-S ,  4-C ) :   1.1700 B(  1-C ,  2-C ) :   1.6053
B(  1-C , 32-H ) :   0.9698 B(  2-C ,  3-C ) :   1.2314 B(  2-C ,  6-C ) :   1.0300
B(  3-C ,  4-C ) :   1.5483 B(  3-C ,  5-H ) :   0.9844 B(  4-C , 20-C ) :   1.0714
B(  6-C ,  7-H ) :   0.9315 B(  6-C ,  8-H ) :   0.9429 B(  6-C ,  9-C ) :   1.0631
B(  9-C , 10-H ) :   0.9520 B(  9-C , 11-H ) :   0.9547 B(  9-C , 12-C ) :   1.0807
B( 12-C , 13-H ) :   0.9710 B( 12-C , 14-H ) :   0.9727 B( 12-C , 15-H ) :   0.9743
B( 16-S , 17-C ) :   1.1653 B( 16-S , 20-C ) :   1.1253 B( 17-C , 18-C ) :   1.6098
B( 17-C , 33-H ) :   0.9684 B( 18-C , 19-C ) :   1.2476 B( 18-C , 21-H ) :   0.9909
B( 19-C , 20-C ) :   1.5613 B( 19-C , 22-C ) :   1.0660 B( 22-C , 23-H ) :   0.9295
B( 22-C , 24-H ) :   0.9149 B( 22-C , 25-C ) :   1.0777 B( 25-C , 26-H ) :   0.9388
B( 25-C , 27-H ) :   0.9539 B( 25-C , 28-C ) :   1.0791 B( 28-C , 29-H ) :   0.9730
B( 28-C , 30-H ) :   0.9726 B( 28-C , 31-H ) :   0.9718

Dispersion correction           -0.014261522
FINAL SINGLE POINT ENERGY     -1339.859644539410

DIPOLE MOMENT
-------------
                                X             Y             Z
Electronic contribution:     -2.32326     -29.02578      14.43769
Nuclear contribution   :      2.29810      29.49809     -14.91859
                        -----------------------------------------
Total Dipole Moment    :     -0.02516       0.47231      -0.48090
                        -----------------------------------------
Magnitude (a.u.)       :      0.67452
Magnitude (Debye)      :      1.71448

Rotational constants in cm-1:     0.019147     0.009147     0.006756
Rotational constants in MHz :   574.001850   274.211847   202.531827

                             ****ORCA TERMINATED NORMALLY****
TOTAL RUN TIME: 0 days 0 hours 0 minutes 34 seconds 518 msec
