                         Program Version 4.2.1 -  RELEASE  -
|  1> ! wB97X-D3 SP def2-SVP
|  2> %pal
|  3> nprocs 16
|  4> end
|  5>
|  6> * xyz 0 1
|  7> S 	 60.3203 	 5.41113 	 78.332
|  8> C 	 58.9839 	 6.41135 	 78.5537
|  9> C 	 58.4194 	 6.84964 	 77.3779
| 10> C 	 59.2374 	 6.50519 	 76.2845
| 11> C 	 60.2911 	 5.64591 	 76.6067
| 12> H 	 59.0054 	 6.72879 	 75.3017
| 13> C 	 57.1597 	 7.65841 	 77.2214
| 14> H 	 57.3966 	 8.58998 	 76.6928
| 15> H 	 56.8634 	 7.93283 	 78.2465
| 16> C 	 56.0929 	 6.80383 	 76.6307
| 17> H 	 56.3935 	 6.52831 	 75.5858
| 18> H 	 56.1356 	 5.8468 	 77.1481
| 19> C 	 54.6717 	 7.3151 	 76.4957
| 20> H 	 54.256 	 7.56532 	 77.4773
| 21> H 	 54.7325 	 8.0928 	 75.7269
| 22> H 	 54.0589 	 6.59368 	 76.011
| 23> S 	 61.8336 	 3.38769 	 76.3019
| 24> C 	 62.9718 	 3.31829 	 74.9253
| 25> C 	 62.9002 	 4.40442 	 74.1783
| 26> C 	 61.8731 	 5.32293 	 74.5314
| 27> C 	 61.2663 	 4.9971 	 75.7246
| 28> H 	 63.5784 	 4.66177 	 73.3878
| 29> C 	 61.734 	 6.63276 	 73.8012
| 30> H 	 61.4359 	 7.30376 	 74.6214
| 31> H 	 61.0528 	 6.63153 	 72.9957
| 32> C 	 63.0426 	 7.26053 	 73.1717
| 33> H 	 63.5094 	 6.5533 	 72.402
| 34> H 	 63.7252 	 7.35685 	 73.9983
| 35> C 	 62.6493 	 8.6082 	 72.4751
| 36> H 	 63.5255 	 9.13216 	 72.1547
| 37> H 	 62.2539 	 9.1479 	 73.3038
| 38> H 	 61.9316 	 8.46349 	 71.6427
| 39> H 	 58.2929 	 6.31716 	 79.4148
| 40> H 	 63.5333 	 2.3942 	 74.6467
| 41> *
| 42>
| 43>                          ****END OF INPUT****

CARTESIAN COORDINATES (ANGSTROEM)
---------------------------------
  S     60.320300    5.411130   78.332000
  C     58.983900    6.411350   78.553700
  C     58.419400    6.849640   77.377900
  C     59.237400    6.505190   76.284500
  C     60.291100    5.645910   76.606700
  H     59.005400    6.728790   75.301700
  C     57.159700    7.658410   77.221400
  H     57.396600    8.589980   76.692800
  H     56.863400    7.932830   78.246500
  C     56.092900    6.803830   76.630700
  H     56.393500    6.528310   75.585800
  H     56.135600    5.846800   77.148100
  C     54.671700    7.315100   76.495700
  H     54.256000    7.565320   77.477300
  H     54.732500    8.092800   75.726900
  H     54.058900    6.593680   76.011000
  S     61.833600    3.387690   76.301900
  C     62.971800    3.318290   74.925300
  C     62.900200    4.404420   74.178300
  C     61.873100    5.322930   74.531400
  C     61.266300    4.997100   75.724600
  H     63.578400    4.661770   73.387800
  C     61.734000    6.632760   73.801200
  H     61.435900    7.303760   74.621400
  H     61.052800    6.631530   72.995700
  C     63.042600    7.260530   73.171700
  H     63.509400    6.553300   72.402000
  H     63.725200    7.356850   73.998300
  C     62.649300    8.608200   72.475100
  H     63.525500    9.132160   72.154700
  H     62.253900    9.147900   73.303800
  H     61.931600    8.463490   71.642700
  H     58.292900    6.317160   79.414800
  H     63.533300    2.394200   74.646700

 Total Charge           Charge          ....    0
 Multiplicity           Mult            ....    1
 Number of Electrons    NEL             ....  134
 Basis Dimension        Dim             ....  322

ORBITAL ENERGIES
----------------

  NO   OCC          E(Eh)            E(eV)
   0   2.0000     -88.967269     -2420.9225
   1   2.0000     -88.961894     -2420.7762
   2   2.0000     -10.332051      -281.1494
   3   2.0000     -10.331634      -281.1381
   4   2.0000     -10.317135      -280.7435
   5   2.0000     -10.305839      -280.4361
   6   2.0000     -10.300993      -280.3043
   7   2.0000     -10.296886      -280.1925
   8   2.0000     -10.295477      -280.1542
   9   2.0000     -10.291654      -280.0502
  10   2.0000     -10.290783      -280.0264
  11   2.0000     -10.286806      -279.9182
  12   2.0000     -10.285377      -279.8793
  13   2.0000     -10.283775      -279.8357
  14   2.0000     -10.281900      -279.7847
  15   2.0000     -10.277519      -279.6655
  16   2.0000      -8.083156      -219.9539
  17   2.0000      -8.075763      -219.7527
  18   2.0000      -6.041559      -164.3992
  19   2.0000      -6.037431      -164.2868
  20   2.0000      -6.034462      -164.2061
  21   2.0000      -6.034024      -164.1942
  22   2.0000      -6.030534      -164.0992
  23   2.0000      -6.026233      -163.9821
  24   2.0000      -1.011807       -27.5327
  25   2.0000      -0.988492       -26.8982
  26   2.0000      -0.921098       -25.0643
  27   2.0000      -0.906537       -24.6681
  28   2.0000      -0.873108       -23.7585
  29   2.0000      -0.856830       -23.3155
  30   2.0000      -0.846459       -23.0333
  31   2.0000      -0.819297       -22.2942
  32   2.0000      -0.784942       -21.3594
  33   2.0000      -0.771657       -20.9978
  34   2.0000      -0.707788       -19.2599
  35   2.0000      -0.699808       -19.0428
  36   2.0000      -0.691453       -18.8154
  37   2.0000      -0.659790       -17.9538
  38   2.0000      -0.639033       -17.3890
  39   2.0000      -0.625796       -17.0288
  40   2.0000      -0.600710       -16.3461
  41   2.0000      -0.576968       -15.7001
  42   2.0000      -0.575841       -15.6694
  43   2.0000      -0.560768       -15.2593
  44   2.0000      -0.527791       -14.3619
  45   2.0000      -0.525785       -14.3073
  46   2.0000      -0.519831       -14.1453
  47   2.0000      -0.514703       -14.0058
  48   2.0000      -0.512077       -13.9343
  49   2.0000      -0.497400       -13.5349
  50   2.0000      -0.492998       -13.4152
  51   2.0000      -0.479674       -13.0526
  52   2.0000      -0.469382       -12.7725
  53   2.0000      -0.465461       -12.6658
  54   2.0000      -0.460639       -12.5346
  55   2.0000      -0.456221       -12.4144
  56   2.0000      -0.447474       -12.1764
  57   2.0000      -0.438976       -11.9452
  58   2.0000      -0.431748       -11.7485
  59   2.0000      -0.421747       -11.4763
  60   2.0000      -0.418584       -11.3903
  61   2.0000      -0.415293       -11.3007
  62   2.0000      -0.411094       -11.1864
  63   2.0000      -0.358961        -9.7678
  64   2.0000      -0.335092        -9.1183
  65   2.0000      -0.330386        -8.9903
  66   2.0000      -0.286046        -7.7837
  67   0.0000       0.022674         0.6170
  68   0.0000       0.076033         2.0690
  69   0.0000       0.109502         2.9797
  70   0.0000       0.123916         3.3719
  71   0.0000       0.137191         3.7331

MULLIKEN ATOMIC CHARGES
-----------------------
   0 S :    0.119685
   1 C :   -0.098711
   2 C :   -0.156559
   3 C :    0.040435
   4 C :   -0.135469
   5 H :   -0.020382
   6 C :    0.119952
   7 H :    0.035385
   8 H :    0.006135
   9 C :   -0.137999
  10 H :    0.021396
  11 H :    0.027406
  12 C :    0.016595
  13 H :    0.038253
  14 H :    0.023522
  15 H :    0.024196
  16 S :    0.069595
  17 C :   -0.085456
  18 C :   -0.008774
  19 C :   -0.033282
  20 C :   -0.139760
  21 H :    0.008402
  22 C :    0.041556
  23 H :    0.037979
  24 H :    0.026165
  25 C :   -0.149633
  26 H :    0.046261
  27 H :    0.038879
  28 C :   -0.015597
  29 H :    0.033999
  30 H :    0.025212
  31 H :    0.046932
  32 H :    0.061145
  33 H :    0.072538
Sum of atomic charges:    0.0000000

LOEWDIN ATOMIC CHARGES
----------------------
   0 S :    0.439773
   1 C :   -0.235940
   2 C :   -0.059657
   3 C :   -0.058778
   4 C :   -0.192927
   5 H :    0.016040
   6 C :   -0.029405
   7 H :    0.033329
   8 H :    0.028608
   9 C :   -0.051732
  10 H :    0.025274
  11 H :    0.024233
  12 C :   -0.060187
  13 H :    0.025756
  14 H :    0.028806
  15 H :    0.025197
  16 S :    0.353273
  17 C :   -0.171032
  18 C :   -0.071883
  19 C :   -0.059780
  20 C :   -0.170825
  21 H :    0.030299
  22 C :   -0.032125
  23 H :    0.036875
  24 H :    0.022635
  25 C :   -0.039228
  26 H :    0.023118
  27 H :    0.021387
  28 C :   -0.058996
  29 H :    0.024529
  30 H :    0.024279
  31 H :    0.031477
  32 H :    0.036085
  33 H :    0.041523

  Mayer bond orders larger than 0.100000
B(  0-S ,  1-C ) :   1.1577 B(  0-S ,  4-C ) :   1.1707 B(  1-C ,  2-C ) :   1.6076
B(  1-C , 32-H ) :   0.9439 B(  2-C ,  3-C ) :   1.2765 B(  2-C ,  6-C ) :   1.0283
B(  3-C ,  4-C ) :   1.5237 B(  3-C ,  5-H ) :   1.0078 B(  4-C , 20-C ) :   1.0590
B(  6-C ,  7-H ) :   0.9360 B(  6-C ,  8-H ) :   0.9309 B(  6-C ,  9-C ) :   1.0605
B(  9-C , 10-H ) :   0.9526 B(  9-C , 11-H ) :   0.9519 B(  9-C , 12-C ) :   1.0945
B( 12-C , 13-H ) :   0.9735 B( 12-C , 14-H ) :   0.9692 B( 12-C , 15-H ) :   0.9689
B( 16-S , 17-C ) :   1.1157 B( 16-S , 20-C ) :   1.1169 B( 17-C , 18-C ) :   1.6498
B( 17-C , 33-H ) :   0.9572 B( 18-C , 19-C ) :   1.2296 B( 18-C , 21-H ) :   0.9843
B( 19-C , 20-C ) :   1.6277 B( 19-C , 22-C ) :   1.0302 B( 22-C , 23-H ) :   0.9390
B( 22-C , 24-H ) :   0.9275 B( 22-C , 25-C ) :   1.0712 B( 25-C , 26-H ) :   0.9471
B( 25-C , 27-H ) :   0.9610 B( 25-C , 28-C ) :   1.0709 B( 28-C , 29-H ) :   0.9732
B( 28-C , 30-H ) :   0.9749 B( 28-C , 31-H ) :   0.9751

Dispersion correction           -0.013328283
FINAL SINGLE POINT ENERGY     -1339.870174546487

DIPOLE MOMENT
-------------
                                X             Y             Z
Electronic contribution:     12.73907     -19.15103      15.31337
Nuclear contribution   :    -12.98845      19.50518     -15.89846
                        -----------------------------------------
Total Dipole Moment    :     -0.24938       0.35415      -0.58509
                        -----------------------------------------
Magnitude (a.u.)       :      0.72797
Magnitude (Debye)      :      1.85036

Rotational constants in cm-1:     0.017417     0.008064     0.006243
Rotational constants in MHz :   522.148226   241.762454   187.151977

                             ****ORCA TERMINATED NORMALLY****
TOTAL RUN TIME: 0 days 0 hours 0 minutes 29 seconds 563 msec
