                         Program Version 4.2.1 -  RELEASE  -
|  1> ! wB97X-D3 SP def2-SVP
|  2> %pal
|  3> nprocs 16
|  4> end
|  5>
|  6> * xyz 0 1
|  7> S 	 44.727 	 7.34639 	 100.841
|  8> C 	 46.3015 	 7.85811 	 101.216
|  9> C 	 47.1524 	 7.6467 	 100.092
| 10> C 	 46.4748 	 7.21638 	 98.9591
| 11> C 	 45.1177 	 7.00263 	 99.1638
| 12> H 	 46.945 	 7.13056 	 97.9981
| 13> C 	 48.599 	 8.04388 	 99.9843
| 14> H 	 48.7025 	 8.90489 	 100.745
| 15> H 	 48.8343 	 8.33593 	 99.0338
| 16> C 	 49.6554 	 6.94511 	 100.397
| 17> H 	 49.5029 	 6.78967 	 101.459
| 18> H 	 49.365 	 6.03835 	 99.8013
| 19> C 	 51.1015 	 7.34476 	 100.198
| 20> H 	 51.5094 	 7.94469 	 101.019
| 21> H 	 51.6967 	 6.54764 	 100.189
| 22> H 	 51.1614 	 7.91175 	 99.273
| 23> S 	 42.9938 	 5.40703 	 98.459
| 24> C 	 42.1582 	 5.73401 	 96.9399
| 25> C 	 42.9574 	 6.39159 	 96.0857
| 26> C 	 44.1564 	 6.85009 	 96.7009
| 27> C 	 44.1225 	 6.62706 	 98.1064
| 28> H 	 42.5852 	 6.54482 	 95.1089
| 29> C 	 45.1849 	 7.68982 	 96.0298
| 30> H 	 45.9198 	 6.9371 	 95.8516
| 31> H 	 45.6636 	 8.34969 	 96.7574
| 32> C 	 44.8064 	 8.60919 	 94.8732
| 33> H 	 44.6784 	 7.98588 	 94.0323
| 34> H 	 45.6893 	 9.22711 	 94.5666
| 35> C 	 43.7633 	 9.72326 	 95.2202
| 36> H 	 42.8328 	 9.2968 	 95.5531
| 37> H 	 43.7475 	 10.4965 	 94.4382
| 38> H 	 44.2081 	 10.325 	 96.0502
| 39> H 	 46.6234 	 8.26947 	 102.161
| 40> H 	 41.1789 	 5.36989 	 96.6556
| 41> *
| 42>
| 43>                          ****END OF INPUT****

CARTESIAN COORDINATES (ANGSTROEM)
---------------------------------
  S     44.727000    7.346390  100.841000
  C     46.301500    7.858110  101.216000
  C     47.152400    7.646700  100.092000
  C     46.474800    7.216380   98.959100
  C     45.117700    7.002630   99.163800
  H     46.945000    7.130560   97.998100
  C     48.599000    8.043880   99.984300
  H     48.702500    8.904890  100.745000
  H     48.834300    8.335930   99.033800
  C     49.655400    6.945110  100.397000
  H     49.502900    6.789670  101.459000
  H     49.365000    6.038350   99.801300
  C     51.101500    7.344760  100.198000
  H     51.509400    7.944690  101.019000
  H     51.696700    6.547640  100.189000
  H     51.161400    7.911750   99.273000
  S     42.993800    5.407030   98.459000
  C     42.158200    5.734010   96.939900
  C     42.957400    6.391590   96.085700
  C     44.156400    6.850090   96.700900
  C     44.122500    6.627060   98.106400
  H     42.585200    6.544820   95.108900
  C     45.184900    7.689820   96.029800
  H     45.919800    6.937100   95.851600
  H     45.663600    8.349690   96.757400
  C     44.806400    8.609190   94.873200
  H     44.678400    7.985880   94.032300
  H     45.689300    9.227110   94.566600
  C     43.763300    9.723260   95.220200
  H     42.832800    9.296800   95.553100
  H     43.747500   10.496500   94.438200
  H     44.208100   10.325000   96.050200
  H     46.623400    8.269470  102.161000
  H     41.178900    5.369890   96.655600

 Total Charge           Charge          ....    0
 Multiplicity           Mult            ....    1
 Number of Electrons    NEL             ....  134
 Basis Dimension        Dim             ....  322

ORBITAL ENERGIES
----------------

  NO   OCC          E(Eh)            E(eV)
   0   2.0000     -88.971366     -2421.0340
   1   2.0000     -88.960188     -2420.7298
   2   2.0000     -10.332107      -281.1509
   3   2.0000     -10.326319      -280.9934
   4   2.0000     -10.316427      -280.7242
   5   2.0000     -10.309377      -280.5324
   6   2.0000     -10.303324      -280.3677
   7   2.0000     -10.298404      -280.2338
   8   2.0000     -10.289938      -280.0034
   9   2.0000     -10.289089      -279.9804
  10   2.0000     -10.288102      -279.9535
  11   2.0000     -10.287235      -279.9299
  12   2.0000     -10.287028      -279.9243
  13   2.0000     -10.285224      -279.8752
  14   2.0000     -10.283754      -279.8352
  15   2.0000     -10.268175      -279.4113
  16   2.0000      -8.086314      -220.0398
  17   2.0000      -8.075970      -219.7583
  18   2.0000      -6.044647      -164.4832
  19   2.0000      -6.040559      -164.3720
  20   2.0000      -6.037478      -164.2881
  21   2.0000      -6.034355      -164.2031
  22   2.0000      -6.030651      -164.1024
  23   2.0000      -6.026487      -163.9890
  24   2.0000      -1.010599       -27.4998
  25   2.0000      -0.991589       -26.9825
  26   2.0000      -0.911388       -24.8001
  27   2.0000      -0.908898       -24.7324
  28   2.0000      -0.870549       -23.6888
  29   2.0000      -0.859620       -23.3915
  30   2.0000      -0.845527       -23.0080
  31   2.0000      -0.819923       -22.3112
  32   2.0000      -0.783224       -21.3126
  33   2.0000      -0.770610       -20.9694
  34   2.0000      -0.708120       -19.2689
  35   2.0000      -0.698887       -19.0177
  36   2.0000      -0.695340       -18.9212
  37   2.0000      -0.656429       -17.8623
  38   2.0000      -0.640961       -17.4414
  39   2.0000      -0.624378       -16.9902
  40   2.0000      -0.593474       -16.1493
  41   2.0000      -0.579430       -15.7671
  42   2.0000      -0.563805       -15.3419
  43   2.0000      -0.560731       -15.2583
  44   2.0000      -0.545909       -14.8549
  45   2.0000      -0.529352       -14.4044
  46   2.0000      -0.518278       -14.1031
  47   2.0000      -0.513785       -13.9808
  48   2.0000      -0.501938       -13.6584
  49   2.0000      -0.499161       -13.5829
  50   2.0000      -0.487282       -13.2596
  51   2.0000      -0.483550       -13.1581
  52   2.0000      -0.477952       -13.0057
  53   2.0000      -0.464828       -12.6486
  54   2.0000      -0.460060       -12.5189
  55   2.0000      -0.454716       -12.3734
  56   2.0000      -0.445228       -12.1153
  57   2.0000      -0.443957       -12.0807
  58   2.0000      -0.429388       -11.6842
  59   2.0000      -0.424784       -11.5590
  60   2.0000      -0.418570       -11.3899
  61   2.0000      -0.413312       -11.2468
  62   2.0000      -0.406607       -11.0643
  63   2.0000      -0.353815        -9.6278
  64   2.0000      -0.333174        -9.0661
  65   2.0000      -0.323570        -8.8048
  66   2.0000      -0.281922        -7.6715
  67   0.0000       0.022904         0.6232
  68   0.0000       0.075666         2.0590
  69   0.0000       0.112241         3.0542
  70   0.0000       0.121843         3.3155
  71   0.0000       0.139440         3.7944

MULLIKEN ATOMIC CHARGES
-----------------------
   0 S :    0.136845
   1 C :   -0.116352
   2 C :   -0.082477
   3 C :    0.013303
   4 C :   -0.137539
   5 H :    0.000508
   6 C :    0.055980
   7 H :    0.030978
   8 H :   -0.006176
   9 C :   -0.100375
  10 H :    0.023925
  11 H :    0.035782
  12 C :    0.026481
  13 H :    0.027423
  14 H :    0.005690
  15 H :    0.022322
  16 S :    0.098136
  17 C :   -0.079167
  18 C :   -0.027330
  19 C :   -0.053093
  20 C :   -0.139736
  21 H :    0.005651
  22 C :    0.024470
  23 H :    0.039573
  24 H :    0.035062
  25 C :   -0.045526
  26 H :    0.016966
  27 H :    0.023754
  28 C :   -0.044723
  29 H :    0.047415
  30 H :    0.038880
  31 H :    0.029531
  32 H :    0.048387
  33 H :    0.045431
Sum of atomic charges:   -0.0000000

LOEWDIN ATOMIC CHARGES
----------------------
   0 S :    0.443434
   1 C :   -0.215763
   2 C :   -0.066257
   3 C :   -0.065320
   4 C :   -0.198359
   5 H :    0.028695
   6 C :   -0.026979
   7 H :    0.037346
   8 H :    0.009528
   9 C :   -0.037490
  10 H :    0.021114
  11 H :    0.027046
  12 C :   -0.055625
  13 H :    0.030444
  14 H :    0.009932
  15 H :    0.025464
  16 S :    0.407830
  17 C :   -0.176121
  18 C :   -0.069980
  19 C :   -0.055527
  20 C :   -0.208496
  21 H :    0.029218
  22 C :   -0.044492
  23 H :    0.034016
  24 H :    0.033699
  25 C :   -0.043715
  26 H :    0.012906
  27 H :    0.032617
  28 C :   -0.061806
  29 H :    0.022345
  30 H :    0.030209
  31 H :    0.033412
  32 H :    0.028935
  33 H :    0.027742

  Mayer bond orders larger than 0.100000
B(  0-S ,  1-C ) :   1.1758 B(  0-S ,  4-C ) :   1.1780 B(  1-C ,  2-C ) :   1.5254
B(  1-C ,  4-C ) :   0.1105 B(  1-C , 32-H ) :   0.9722 B(  2-C ,  3-C ) :   1.3179
B(  2-C ,  6-C ) :   1.0328 B(  3-C ,  4-C ) :   1.4962 B(  3-C ,  5-H ) :   0.9951
B(  4-C , 20-C ) :   1.0383 B(  6-C ,  7-H ) :   0.9449 B(  6-C ,  8-H ) :   0.9397
B(  6-C ,  9-C ) :   1.0580 B(  9-C , 10-H ) :   0.9579 B(  9-C , 11-H ) :   0.9584
B(  9-C , 12-C ) :   1.0844 B( 12-C , 13-H ) :   0.9716 B( 12-C , 14-H ) :   0.9689
B( 12-C , 15-H ) :   0.9729 B( 16-S , 17-C ) :   1.1365 B( 16-S , 20-C ) :   1.1626
B( 17-C , 18-C ) :   1.6262 B( 17-C , 33-H ) :   0.9680 B( 18-C , 19-C ) :   1.2235
B( 18-C , 21-H ) :   1.0025 B( 19-C , 20-C ) :   1.5601 B( 19-C , 22-C ) :   1.0346
B( 22-C , 23-H ) :   0.9142 B( 22-C , 24-H ) :   0.9369 B( 22-C , 25-C ) :   1.0777
B( 25-C , 26-H ) :   0.9507 B( 25-C , 27-H ) :   0.9515 B( 25-C , 28-C ) :   1.0640
B( 28-C , 29-H ) :   0.9786 B( 28-C , 30-H ) :   0.9751 B( 28-C , 31-H ) :   0.9702

Dispersion correction           -0.013912772
FINAL SINGLE POINT ENERGY     -1339.847794940456

DIPOLE MOMENT
-------------
                                X             Y             Z
Electronic contribution:    -21.96482     -12.10409      11.26214
Nuclear contribution   :     22.50030      12.41510     -11.67129
                        -----------------------------------------
Total Dipole Moment    :      0.53548       0.31101      -0.40915
                        -----------------------------------------
Magnitude (a.u.)       :      0.74221
Magnitude (Debye)      :      1.88654

Rotational constants in cm-1:     0.019351     0.007869     0.006417
Rotational constants in MHz :   580.120869   235.895506   192.378098

                             ****ORCA TERMINATED NORMALLY****
TOTAL RUN TIME: 0 days 0 hours 0 minutes 30 seconds 151 msec
