                         Program Version 4.2.1 -  RELEASE  -
|  1> ! wB97X-D3 SP def2-SVP
|  2> %pal
|  3> nprocs 16
|  4> end
|  5>
|  6> * xyz 0 1
|  7> S 	 -1.71119 	 -23.2752 	 58.3206
|  8> C 	 -2.79152 	 -22.5512 	 57.1443
|  9> C 	 -3.1723 	 -21.2535 	 57.5333
| 10> C 	 -2.69075 	 -20.957 	 58.8453
| 11> C 	 -1.72184 	 -21.7982 	 59.2992
| 12> H 	 -3.02262 	 -20.1755 	 59.5081
| 13> C 	 -4.1546 	 -20.3042 	 56.9566
| 14> H 	 -3.81127 	 -20.1636 	 55.8892
| 15> H 	 -4.02731 	 -19.3867 	 57.5261
| 16> C 	 -5.64539 	 -20.8362 	 57.0651
| 17> H 	 -6.20479 	 -20.3332 	 56.2914
| 18> H 	 -5.73875 	 -21.8913 	 56.9045
| 19> C 	 -6.34197 	 -20.4871 	 58.3793
| 20> H 	 -7.27741 	 -21.0953 	 58.5763
| 21> H 	 -5.69102 	 -20.7369 	 59.2352
| 22> H 	 -6.63877 	 -19.4832 	 58.4252
| 23> S 	 -1.60559 	 -22.8252 	 61.7868
| 24> C 	 -0.474172 	 -22.2152 	 63.0071
| 25> C 	 0.144865 	 -21.1339 	 62.5016
| 26> C 	 -0.185285 	 -20.743 	 61.1307
| 27> C 	 -1.03684 	 -21.7118 	 60.5652
| 28> H 	 0.874839 	 -20.5399 	 63.0884
| 29> C 	 0.448842 	 -19.4699 	 60.457
| 30> H 	 0.268657 	 -19.3699 	 59.4235
| 31> H 	 1.47651 	 -19.4297 	 60.665
| 32> C 	 0.0631167 	 -18.2052 	 61.1938
| 33> H 	 0.640961 	 -17.4141 	 60.7963
| 34> H 	 0.614427 	 -18.0889 	 62.2008
| 35> C 	 -1.43422 	 -17.7419 	 61.4144
| 36> H 	 -1.5286 	 -16.9832 	 62.1848
| 37> H 	 -1.97167 	 -18.6794 	 61.7915
| 38> H 	 -1.87241 	 -17.311 	 60.5428
| 39> H 	 -2.9195 	 -22.9567 	 56.1218
| 40> H 	 -0.397006 	 -22.6146 	 63.9815
| 41> *
| 42>
| 43>                          ****END OF INPUT****

CARTESIAN COORDINATES (ANGSTROEM)
---------------------------------
  S     -1.711190  -23.275200   58.320600
  C     -2.791520  -22.551200   57.144300
  C     -3.172300  -21.253500   57.533300
  C     -2.690750  -20.957000   58.845300
  C     -1.721840  -21.798200   59.299200
  H     -3.022620  -20.175500   59.508100
  C     -4.154600  -20.304200   56.956600
  H     -3.811270  -20.163600   55.889200
  H     -4.027310  -19.386700   57.526100
  C     -5.645390  -20.836200   57.065100
  H     -6.204790  -20.333200   56.291400
  H     -5.738750  -21.891300   56.904500
  C     -6.341970  -20.487100   58.379300
  H     -7.277410  -21.095300   58.576300
  H     -5.691020  -20.736900   59.235200
  H     -6.638770  -19.483200   58.425200
  S     -1.605590  -22.825200   61.786800
  C     -0.474172  -22.215200   63.007100
  C      0.144865  -21.133900   62.501600
  C     -0.185285  -20.743000   61.130700
  C     -1.036840  -21.711800   60.565200
  H      0.874839  -20.539900   63.088400
  C      0.448842  -19.469900   60.457000
  H      0.268657  -19.369900   59.423500
  H      1.476510  -19.429700   60.665000
  C      0.063117  -18.205200   61.193800
  H      0.640961  -17.414100   60.796300
  H      0.614427  -18.088900   62.200800
  C     -1.434220  -17.741900   61.414400
  H     -1.528600  -16.983200   62.184800
  H     -1.971670  -18.679400   61.791500
  H     -1.872410  -17.311000   60.542800
  H     -2.919500  -22.956700   56.121800
  H     -0.397006  -22.614600   63.981500

 Total Charge           Charge          ....    0
 Multiplicity           Mult            ....    1
 Number of Electrons    NEL             ....  134
 Basis Dimension        Dim             ....  322

ORBITAL ENERGIES
----------------

  NO   OCC          E(Eh)            E(eV)
   0   2.0000     -88.965023     -2420.8614
   1   2.0000     -88.959292     -2420.7054
   2   2.0000     -10.327343      -281.0213
   3   2.0000     -10.324202      -280.9358
   4   2.0000     -10.318627      -280.7841
   5   2.0000     -10.314250      -280.6650
   6   2.0000     -10.312754      -280.6243
   7   2.0000     -10.300102      -280.2800
   8   2.0000     -10.297117      -280.1988
   9   2.0000     -10.296305      -280.1767
  10   2.0000     -10.293189      -280.0919
  11   2.0000     -10.290009      -280.0054
  12   2.0000     -10.288835      -279.9734
  13   2.0000     -10.286240      -279.9028
  14   2.0000     -10.282325      -279.7963
  15   2.0000     -10.276768      -279.6451
  16   2.0000      -8.079383      -219.8512
  17   2.0000      -8.074209      -219.7104
  18   2.0000      -6.037954      -164.3011
  19   2.0000      -6.033939      -164.1918
  20   2.0000      -6.032900      -164.1635
  21   2.0000      -6.030096      -164.0873
  22   2.0000      -6.028675      -164.0486
  23   2.0000      -6.024766      -163.9422
  24   2.0000      -1.004694       -27.3391
  25   2.0000      -0.980643       -26.6847
  26   2.0000      -0.909867       -24.7588
  27   2.0000      -0.906764       -24.6743
  28   2.0000      -0.870379       -23.6842
  29   2.0000      -0.849411       -23.1136
  30   2.0000      -0.835655       -22.7393
  31   2.0000      -0.814194       -22.1554
  32   2.0000      -0.788102       -21.4453
  33   2.0000      -0.771535       -20.9945
  34   2.0000      -0.707633       -19.2557
  35   2.0000      -0.702717       -19.1219
  36   2.0000      -0.692789       -18.8518
  37   2.0000      -0.655217       -17.8294
  38   2.0000      -0.641414       -17.4538
  39   2.0000      -0.612759       -16.6740
  40   2.0000      -0.599692       -16.3185
  41   2.0000      -0.569417       -15.4946
  42   2.0000      -0.555421       -15.1138
  43   2.0000      -0.545587       -14.8462
  44   2.0000      -0.541815       -14.7435
  45   2.0000      -0.534996       -14.5580
  46   2.0000      -0.522166       -14.2089
  47   2.0000      -0.515887       -14.0380
  48   2.0000      -0.500735       -13.6257
  49   2.0000      -0.489970       -13.3328
  50   2.0000      -0.488677       -13.2976
  51   2.0000      -0.480021       -13.0620
  52   2.0000      -0.471162       -12.8210
  53   2.0000      -0.465857       -12.6766
  54   2.0000      -0.459551       -12.5050
  55   2.0000      -0.445418       -12.1204
  56   2.0000      -0.442531       -12.0419
  57   2.0000      -0.433491       -11.7959
  58   2.0000      -0.431621       -11.7450
  59   2.0000      -0.427163       -11.6237
  60   2.0000      -0.419682       -11.4201
  61   2.0000      -0.414896       -11.2899
  62   2.0000      -0.402781       -10.9602
  63   2.0000      -0.343847        -9.3566
  64   2.0000      -0.324786        -8.8379
  65   2.0000      -0.323452        -8.8016
  66   2.0000      -0.298490        -8.1223
  67   0.0000       0.032462         0.8833
  68   0.0000       0.060972         1.6591
  69   0.0000       0.115543         3.1441
  70   0.0000       0.122617         3.3366
  71   0.0000       0.127231         3.4621

MULLIKEN ATOMIC CHARGES
-----------------------
   0 S :    0.108053
   1 C :   -0.130762
   2 C :   -0.094898
   3 C :    0.017549
   4 C :   -0.163578
   5 H :    0.020041
   6 C :    0.044128
   7 H :    0.043716
   8 H :    0.026304
   9 C :   -0.031325
  10 H :    0.024874
  11 H :    0.030553
  12 C :   -0.071275
  13 H :    0.039177
  14 H :    0.034673
  15 H :    0.025168
  16 S :    0.086698
  17 C :   -0.069578
  18 C :   -0.033179
  19 C :   -0.053083
  20 C :   -0.169541
  21 H :    0.025398
  22 C :    0.182263
  23 H :    0.026087
  24 H :    0.014645
  25 C :   -0.148130
  26 H :    0.007607
  27 H :    0.019593
  28 C :   -0.045635
  29 H :    0.029924
  30 H :    0.057267
  31 H :    0.032224
  32 H :    0.067786
  33 H :    0.047256
Sum of atomic charges:   -0.0000000

LOEWDIN ATOMIC CHARGES
----------------------
   0 S :    0.398493
   1 C :   -0.205516
   2 C :   -0.065296
   3 C :   -0.060241
   4 C :   -0.196432
   5 H :    0.031675
   6 C :   -0.032532
   7 H :    0.040591
   8 H :    0.030562
   9 C :   -0.031325
  10 H :    0.021928
  11 H :    0.023095
  12 C :   -0.068127
  13 H :    0.035081
  14 H :    0.026517
  15 H :    0.015160
  16 S :    0.389684
  17 C :   -0.171401
  18 C :   -0.072095
  19 C :   -0.051717
  20 C :   -0.200078
  21 H :    0.033017
  22 C :   -0.014437
  23 H :    0.027357
  24 H :    0.034486
  25 C :   -0.055424
  26 H :    0.017005
  27 H :    0.029522
  28 C :   -0.070908
  29 H :    0.026394
  30 H :    0.036823
  31 H :    0.018059
  32 H :    0.034784
  33 H :    0.025296

  Mayer bond orders larger than 0.100000
B(  0-S ,  1-C ) :   1.1431 B(  0-S ,  4-C ) :   1.1433 B(  1-C ,  2-C ) :   1.5944
B(  1-C ,  4-C ) :   0.1017 B(  1-C , 32-H ) :   0.9620 B(  2-C ,  3-C ) :   1.2336
B(  2-C ,  6-C ) :   1.0349 B(  3-C ,  4-C ) :   1.5987 B(  3-C ,  5-H ) :   0.9856
B(  4-C , 20-C ) :   1.0195 B(  6-C ,  7-H ) :   0.9347 B(  6-C ,  8-H ) :   0.9446
B(  6-C ,  9-C ) :   1.0487 B(  9-C , 10-H ) :   0.9578 B(  9-C , 11-H ) :   0.9629
B(  9-C , 12-C ) :   1.0795 B( 12-C , 13-H ) :   0.9725 B( 12-C , 14-H ) :   0.9753
B( 12-C , 15-H ) :   0.9777 B( 16-S , 17-C ) :   1.1219 B( 16-S , 20-C ) :   1.1560
B( 17-C , 18-C ) :   1.6358 B( 17-C , 33-H ) :   0.9791 B( 18-C , 19-C ) :   1.2130
B( 18-C , 21-H ) :   0.9804 B( 19-C , 20-C ) :   1.6053 B( 19-C , 22-C ) :   1.0465
B( 22-C , 23-H ) :   0.9436 B( 22-C , 24-H ) :   0.9227 B( 22-C , 25-C ) :   1.0683
B( 25-C , 26-H ) :   0.9488 B( 25-C , 27-H ) :   0.9521 B( 25-C , 28-C ) :   1.0605
B( 28-C , 29-H ) :   0.9731 B( 28-C , 30-H ) :   0.9731 B( 28-C , 31-H ) :   0.9782

Dispersion correction           -0.014877254
FINAL SINGLE POINT ENERGY     -1339.856394346188

DIPOLE MOMENT
-------------
                                X             Y             Z
Electronic contribution:     10.38803     -23.09501       2.52981
Nuclear contribution   :    -10.46230      23.82803      -2.55678
                        -----------------------------------------
Total Dipole Moment    :     -0.07428       0.73302      -0.02697
                        -----------------------------------------
Magnitude (a.u.)       :      0.73726
Magnitude (Debye)      :      1.87398

Rotational constants in cm-1:     0.018376     0.009020     0.007485
Rotational constants in MHz :   550.890047   270.407976   224.392747

                             ****ORCA TERMINATED NORMALLY****
TOTAL RUN TIME: 0 days 0 hours 0 minutes 35 seconds 244 msec
