                         Program Version 4.2.1 -  RELEASE  -
|  1> ! wB97X-D3 SP def2-SVP
|  2> %pal
|  3> nprocs 16
|  4> end
|  5>
|  6> * xyz 0 1
|  7> S 	 48.92 	 13.6246 	 83.9977
|  8> C 	 47.4702 	 14.5219 	 84.3468
|  9> C 	 46.3489 	 14.0116 	 83.7668
| 10> C 	 46.6468 	 12.8416 	 83.0413
| 11> C 	 47.9765 	 12.4648 	 83.0778
| 12> H 	 45.9927 	 12.1734 	 82.516
| 13> C 	 45.0027 	 14.7473 	 83.7172
| 14> H 	 44.547 	 14.7261 	 84.7415
| 15> H 	 44.2661 	 14.2374 	 83.1408
| 16> C 	 45.1814 	 16.1167 	 82.989
| 17> H 	 45.9448 	 16.8014 	 83.4671
| 18> H 	 45.5092 	 16.0189 	 81.9419
| 19> C 	 43.8744 	 16.9405 	 83.0478
| 20> H 	 43.7027 	 17.2569 	 84.1029
| 21> H 	 43.9289 	 17.7771 	 82.3468
| 22> H 	 43.0366 	 16.382 	 82.7685
| 23> S 	 48.7712 	 11.0384 	 80.7315
| 24> C 	 49.8259 	 9.64947 	 80.9427
| 25> C 	 50.0639 	 9.42031 	 82.2366
| 26> C 	 49.3356 	 10.1994 	 83.1674
| 27> C 	 48.6415 	 11.2627 	 82.4927
| 28> H 	 50.6783 	 8.61099 	 82.5031
| 29> C 	 49.5248 	 9.9811 	 84.6249
| 30> H 	 49.289 	 10.849 	 85.1812
| 31> H 	 50.596 	 9.93223 	 84.7145
| 32> C 	 48.9366 	 8.77267 	 85.389
| 33> H 	 49.5302 	 7.91575 	 85.1381
| 34> H 	 47.888 	 8.59171 	 85.1075
| 35> C 	 49.0405 	 8.88849 	 86.8261
| 36> H 	 48.5295 	 8.03635 	 87.2687
| 37> H 	 48.5138 	 9.73702 	 87.2708
| 38> H 	 50.0306 	 8.8825 	 87.2749
| 39> H 	 47.4946 	 15.2474 	 85.1185
| 40> H 	 50.3734 	 9.13611 	 80.2159
| 41> *
| 42>
| 43>                          ****END OF INPUT****

CARTESIAN COORDINATES (ANGSTROEM)
---------------------------------
  S     48.920000   13.624600   83.997700
  C     47.470200   14.521900   84.346800
  C     46.348900   14.011600   83.766800
  C     46.646800   12.841600   83.041300
  C     47.976500   12.464800   83.077800
  H     45.992700   12.173400   82.516000
  C     45.002700   14.747300   83.717200
  H     44.547000   14.726100   84.741500
  H     44.266100   14.237400   83.140800
  C     45.181400   16.116700   82.989000
  H     45.944800   16.801400   83.467100
  H     45.509200   16.018900   81.941900
  C     43.874400   16.940500   83.047800
  H     43.702700   17.256900   84.102900
  H     43.928900   17.777100   82.346800
  H     43.036600   16.382000   82.768500
  S     48.771200   11.038400   80.731500
  C     49.825900    9.649470   80.942700
  C     50.063900    9.420310   82.236600
  C     49.335600   10.199400   83.167400
  C     48.641500   11.262700   82.492700
  H     50.678300    8.610990   82.503100
  C     49.524800    9.981100   84.624900
  H     49.289000   10.849000   85.181200
  H     50.596000    9.932230   84.714500
  C     48.936600    8.772670   85.389000
  H     49.530200    7.915750   85.138100
  H     47.888000    8.591710   85.107500
  C     49.040500    8.888490   86.826100
  H     48.529500    8.036350   87.268700
  H     48.513800    9.737020   87.270800
  H     50.030600    8.882500   87.274900
  H     47.494600   15.247400   85.118500
  H     50.373400    9.136110   80.215900

 Total Charge           Charge          ....    0
 Multiplicity           Mult            ....    1
 Number of Electrons    NEL             ....  134
 Basis Dimension        Dim             ....  322

ORBITAL ENERGIES
----------------

  NO   OCC          E(Eh)            E(eV)
   0   2.0000     -88.965088     -2420.8631
   1   2.0000     -88.964755     -2420.8540
   2   2.0000     -10.332975      -281.1745
   3   2.0000     -10.328000      -281.0392
   4   2.0000     -10.307958      -280.4938
   5   2.0000     -10.306626      -280.4576
   6   2.0000     -10.303903      -280.3835
   7   2.0000     -10.298221      -280.2288
   8   2.0000     -10.297825      -280.2181
   9   2.0000     -10.293070      -280.0887
  10   2.0000     -10.290098      -280.0078
  11   2.0000     -10.280815      -279.7552
  12   2.0000     -10.280218      -279.7389
  13   2.0000     -10.279563      -279.7211
  14   2.0000     -10.274492      -279.5831
  15   2.0000     -10.270069      -279.4628
  16   2.0000      -8.079435      -219.8526
  17   2.0000      -8.079057      -219.8423
  18   2.0000      -6.037796      -164.2968
  19   2.0000      -6.037599      -164.2914
  20   2.0000      -6.033898      -164.1907
  21   2.0000      -6.033670      -164.1845
  22   2.0000      -6.030415      -164.0959
  23   2.0000      -6.029829      -164.0800
  24   2.0000      -1.002644       -27.2833
  25   2.0000      -0.984587       -26.7920
  26   2.0000      -0.916345       -24.9350
  27   2.0000      -0.906226       -24.6597
  28   2.0000      -0.865435       -23.5497
  29   2.0000      -0.858612       -23.3640
  30   2.0000      -0.848231       -23.0815
  31   2.0000      -0.817107       -22.2346
  32   2.0000      -0.783285       -21.3143
  33   2.0000      -0.768850       -20.9215
  34   2.0000      -0.704540       -19.1715
  35   2.0000      -0.698436       -19.0054
  36   2.0000      -0.694372       -18.8948
  37   2.0000      -0.658753       -17.9256
  38   2.0000      -0.645224       -17.5574
  39   2.0000      -0.614290       -16.7157
  40   2.0000      -0.599862       -16.3231
  41   2.0000      -0.574525       -15.6336
  42   2.0000      -0.570765       -15.5313
  43   2.0000      -0.554962       -15.1013
  44   2.0000      -0.528316       -14.3762
  45   2.0000      -0.525492       -14.2994
  46   2.0000      -0.518223       -14.1016
  47   2.0000      -0.512926       -13.9574
  48   2.0000      -0.511083       -13.9073
  49   2.0000      -0.500198       -13.6111
  50   2.0000      -0.486984       -13.2515
  51   2.0000      -0.478026       -13.0078
  52   2.0000      -0.467525       -12.7220
  53   2.0000      -0.464509       -12.6399
  54   2.0000      -0.455688       -12.3999
  55   2.0000      -0.448628       -12.2078
  56   2.0000      -0.445932       -12.1344
  57   2.0000      -0.438481       -11.9317
  58   2.0000      -0.427914       -11.6441
  59   2.0000      -0.425039       -11.5659
  60   2.0000      -0.423341       -11.5197
  61   2.0000      -0.413971       -11.2647
  62   2.0000      -0.413447       -11.2505
  63   2.0000      -0.337193        -9.1755
  64   2.0000      -0.334674        -9.1070
  65   2.0000      -0.322832        -8.7847
  66   2.0000      -0.297607        -8.0983
  67   0.0000       0.034733         0.9451
  68   0.0000       0.064403         1.7525
  69   0.0000       0.114619         3.1189
  70   0.0000       0.122898         3.3442
  71   0.0000       0.128214         3.4889

MULLIKEN ATOMIC CHARGES
-----------------------
   0 S :    0.115434
   1 C :   -0.128951
   2 C :   -0.050669
   3 C :    0.044580
   4 C :   -0.179721
   5 H :    0.001300
   6 C :    0.072748
   7 H :    0.043582
   8 H :    0.009009
   9 C :   -0.114929
  10 H :    0.041540
  11 H :    0.042874
  12 C :   -0.027251
  13 H :    0.033398
  14 H :    0.035068
  15 H :    0.010892
  16 S :    0.105268
  17 C :   -0.053545
  18 C :   -0.024023
  19 C :   -0.013425
  20 C :   -0.168715
  21 H :    0.000268
  22 C :    0.070065
  23 H :   -0.007571
  24 H :    0.016752
  25 C :   -0.019196
  26 H :    0.014128
  27 H :    0.033888
  28 C :   -0.054066
  29 H :    0.024783
  30 H :    0.026299
  31 H :    0.027052
  32 H :    0.039926
  33 H :    0.033205
Sum of atomic charges:    0.0000000

LOEWDIN ATOMIC CHARGES
----------------------
   0 S :    0.414059
   1 C :   -0.188152
   2 C :   -0.065824
   3 C :   -0.059774
   4 C :   -0.193555
   5 H :    0.030208
   6 C :   -0.029941
   7 H :    0.038512
   8 H :    0.024558
   9 C :   -0.039946
  10 H :    0.027826
  11 H :    0.029101
  12 C :   -0.064807
  13 H :    0.029019
  14 H :    0.027214
  15 H :    0.011359
  16 S :    0.391015
  17 C :   -0.172612
  18 C :   -0.068432
  19 C :   -0.046936
  20 C :   -0.199124
  21 H :    0.024157
  22 C :   -0.037304
  23 H :    0.017296
  24 H :    0.034245
  25 C :   -0.036252
  26 H :    0.022166
  27 H :    0.030122
  28 C :   -0.068030
  29 H :    0.030229
  30 H :    0.024313
  31 H :    0.024365
  32 H :    0.018212
  33 H :    0.022713

  Mayer bond orders larger than 0.100000
B(  0-S ,  1-C ) :   1.1557 B(  0-S ,  4-C ) :   1.1539 B(  1-C ,  2-C ) :   1.5991
B(  1-C , 32-H ) :   0.9706 B(  2-C ,  3-C ) :   1.2476 B(  2-C ,  6-C ) :   1.0164
B(  3-C ,  4-C ) :   1.5905 B(  3-C ,  5-H ) :   0.9996 B(  4-C , 20-C ) :   1.0160
B(  6-C ,  7-H ) :   0.9414 B(  6-C ,  8-H ) :   0.9446 B(  6-C ,  9-C ) :   1.0473
B(  9-C , 10-H ) :   0.9612 B(  9-C , 11-H ) :   0.9584 B(  9-C , 12-C ) :   1.0785
B( 12-C , 13-H ) :   0.9770 B( 12-C , 14-H ) :   0.9742 B( 12-C , 15-H ) :   0.9742
B( 16-S , 17-C ) :   1.1374 B( 16-S , 20-C ) :   1.1418 B( 17-C , 18-C ) :   1.6401
B( 17-C , 33-H ) :   0.9667 B( 18-C , 19-C ) :   1.2439 B( 18-C , 21-H ) :   0.9900
B( 19-C , 20-C ) :   1.5584 B( 19-C , 22-C ) :   1.0547 B( 22-C , 23-H ) :   0.9265
B( 22-C , 24-H ) :   0.9271 B( 22-C , 25-C ) :   1.0623 B( 25-C , 26-H ) :   0.9444
B( 25-C , 27-H ) :   0.9518 B( 25-C , 28-C ) :   1.1123 B( 28-C , 29-H ) :   0.9666
B( 28-C , 30-H ) :   0.9680 B( 28-C , 31-H ) :   0.9711

Dispersion correction           -0.013523935
FINAL SINGLE POINT ENERGY     -1339.871939494766

DIPOLE MOMENT
-------------
                                X             Y             Z
Electronic contribution:     12.50084      -2.74383     -14.36065
Nuclear contribution   :    -12.67425       2.57880      14.70809
                        -----------------------------------------
Total Dipole Moment    :     -0.17341      -0.16502       0.34745
                        -----------------------------------------
Magnitude (a.u.)       :      0.42193
Magnitude (Debye)      :      1.07246

Rotational constants in cm-1:     0.020826     0.007190     0.005973
Rotational constants in MHz :   624.355027   215.552116   179.061742

                             ****ORCA TERMINATED NORMALLY****
TOTAL RUN TIME: 0 days 0 hours 0 minutes 28 seconds 189 msec
