                         Program Version 4.2.1 -  RELEASE  -
|  1> ! wB97X-D3 SP def2-SVP
|  2> %pal
|  3> nprocs 16
|  4> end
|  5>
|  6> * xyz 0 1
|  7> S 	 -58.8724 	 17.9662 	 84.9927
|  8> C 	 -57.1193 	 17.8677 	 84.9358
|  9> C 	 -56.5202 	 18.4685 	 85.9961
| 10> C 	 -57.5105 	 19.049 	 86.847
| 11> C 	 -58.8112 	 18.8875 	 86.4081
| 12> H 	 -57.4025 	 19.6353 	 87.709
| 13> C 	 -55.073 	 18.5417 	 86.2347
| 14> H 	 -54.7058 	 17.7298 	 86.856
| 15> H 	 -54.9566 	 19.4276 	 86.8861
| 16> C 	 -54.0987 	 18.5827 	 85.0605
| 17> H 	 -53.0683 	 18.7015 	 85.3922
| 18> H 	 -54.0981 	 17.5656 	 84.6143
| 19> C 	 -54.4067 	 19.6568 	 84.0273
| 20> H 	 -54.6582 	 20.5285 	 84.492
| 21> H 	 -53.5178 	 19.8074 	 83.3847
| 22> H 	 -55.2445 	 19.4021 	 83.457
| 23> S 	 -60.8069 	 20.4799 	 85.5636
| 24> C 	 -62.1207 	 20.8212 	 86.6213
| 25> C 	 -61.933 	 20.2749 	 87.8722
| 26> C 	 -60.6557 	 19.5843 	 88.0799
| 27> C 	 -59.9498 	 19.5634 	 86.8941
| 28> H 	 -62.6443 	 20.4533 	 88.6667
| 29> C 	 -60.3097 	 18.8564 	 89.3269
| 30> H 	 -60.5153 	 19.496 	 90.21
| 31> H 	 -59.1837 	 18.8842 	 89.4031
| 32> C 	 -61.0135 	 17.4941 	 89.5503
| 33> H 	 -60.8587 	 16.9397 	 88.659
| 34> H 	 -62.0308 	 17.5715 	 89.7197
| 35> C 	 -60.4337 	 16.649 	 90.7128
| 36> H 	 -60.9169 	 15.6493 	 90.7582
| 37> H 	 -60.5114 	 17.0544 	 91.7536
| 38> H 	 -59.3542 	 16.5291 	 90.3623
| 39> H 	 -56.4412 	 17.3739 	 84.1429
| 40> H 	 -62.8719 	 21.5009 	 86.2836
| 41> *
| 42>
| 43>                          ****END OF INPUT****

CARTESIAN COORDINATES (ANGSTROEM)
---------------------------------
  S    -58.872400   17.966200   84.992700
  C    -57.119300   17.867700   84.935800
  C    -56.520200   18.468500   85.996100
  C    -57.510500   19.049000   86.847000
  C    -58.811200   18.887500   86.408100
  H    -57.402500   19.635300   87.709000
  C    -55.073000   18.541700   86.234700
  H    -54.705800   17.729800   86.856000
  H    -54.956600   19.427600   86.886100
  C    -54.098700   18.582700   85.060500
  H    -53.068300   18.701500   85.392200
  H    -54.098100   17.565600   84.614300
  C    -54.406700   19.656800   84.027300
  H    -54.658200   20.528500   84.492000
  H    -53.517800   19.807400   83.384700
  H    -55.244500   19.402100   83.457000
  S    -60.806900   20.479900   85.563600
  C    -62.120700   20.821200   86.621300
  C    -61.933000   20.274900   87.872200
  C    -60.655700   19.584300   88.079900
  C    -59.949800   19.563400   86.894100
  H    -62.644300   20.453300   88.666700
  C    -60.309700   18.856400   89.326900
  H    -60.515300   19.496000   90.210000
  H    -59.183700   18.884200   89.403100
  C    -61.013500   17.494100   89.550300
  H    -60.858700   16.939700   88.659000
  H    -62.030800   17.571500   89.719700
  C    -60.433700   16.649000   90.712800
  H    -60.916900   15.649300   90.758200
  H    -60.511400   17.054400   91.753600
  H    -59.354200   16.529100   90.362300
  H    -56.441200   17.373900   84.142900
  H    -62.871900   21.500900   86.283600

 Total Charge           Charge          ....    0
 Multiplicity           Mult            ....    1
 Number of Electrons    NEL             ....  134
 Basis Dimension        Dim             ....  322

ORBITAL ENERGIES
----------------

  NO   OCC          E(Eh)            E(eV)
   0   2.0000     -88.966511     -2420.9018
   1   2.0000     -88.959786     -2420.7188
   2   2.0000     -10.327285      -281.0197
   3   2.0000     -10.318501      -280.7807
   4   2.0000     -10.315198      -280.6908
   5   2.0000     -10.313507      -280.6448
   6   2.0000     -10.307879      -280.4917
   7   2.0000     -10.298546      -280.2377
   8   2.0000     -10.295995      -280.1683
   9   2.0000     -10.295705      -280.1604
  10   2.0000     -10.288673      -279.9690
  11   2.0000     -10.288148      -279.9547
  12   2.0000     -10.287738      -279.9436
  13   2.0000     -10.286572      -279.9118
  14   2.0000     -10.281855      -279.7835
  15   2.0000     -10.263347      -279.2799
  16   2.0000      -8.082095      -219.9250
  17   2.0000      -8.074663      -219.7228
  18   2.0000      -6.040555      -164.3718
  19   2.0000      -6.036467      -164.2606
  20   2.0000      -6.033190      -164.1714
  21   2.0000      -6.032832      -164.1617
  22   2.0000      -6.029177      -164.0623
  23   2.0000      -6.025341      -163.9579
  24   2.0000      -1.013746       -27.5854
  25   2.0000      -0.982320       -26.7303
  26   2.0000      -0.920834       -25.0572
  27   2.0000      -0.909125       -24.7386
  28   2.0000      -0.872503       -23.7420
  29   2.0000      -0.856009       -23.2932
  30   2.0000      -0.845796       -23.0153
  31   2.0000      -0.810013       -22.0416
  32   2.0000      -0.787875       -21.4392
  33   2.0000      -0.774215       -21.0675
  34   2.0000      -0.710185       -19.3251
  35   2.0000      -0.707291       -19.2464
  36   2.0000      -0.696358       -18.9489
  37   2.0000      -0.664394       -18.0791
  38   2.0000      -0.636811       -17.3285
  39   2.0000      -0.609125       -16.5751
  40   2.0000      -0.596787       -16.2394
  41   2.0000      -0.576282       -15.6814
  42   2.0000      -0.567749       -15.4492
  43   2.0000      -0.554871       -15.0988
  44   2.0000      -0.541352       -14.7309
  45   2.0000      -0.526062       -14.3149
  46   2.0000      -0.517478       -14.0813
  47   2.0000      -0.517214       -14.0741
  48   2.0000      -0.510454       -13.8902
  49   2.0000      -0.497029       -13.5249
  50   2.0000      -0.492225       -13.3941
  51   2.0000      -0.477928       -13.0051
  52   2.0000      -0.471517       -12.8306
  53   2.0000      -0.461173       -12.5492
  54   2.0000      -0.455417       -12.3925
  55   2.0000      -0.449794       -12.2395
  56   2.0000      -0.442290       -12.0353
  57   2.0000      -0.435698       -11.8560
  58   2.0000      -0.431867       -11.7517
  59   2.0000      -0.431411       -11.7393
  60   2.0000      -0.422552       -11.4982
  61   2.0000      -0.414303       -11.2738
  62   2.0000      -0.412928       -11.2363
  63   2.0000      -0.346673        -9.4334
  64   2.0000      -0.334979        -9.1152
  65   2.0000      -0.323525        -8.8036
  66   2.0000      -0.291718        -7.9380
  67   0.0000       0.033546         0.9128
  68   0.0000       0.066093         1.7985
  69   0.0000       0.112966         3.0740
  70   0.0000       0.117351         3.1933
  71   0.0000       0.131419         3.5761

MULLIKEN ATOMIC CHARGES
-----------------------
   0 S :    0.131020
   1 C :   -0.162140
   2 C :   -0.069483
   3 C :    0.044161
   4 C :   -0.155769
   5 H :   -0.014169
   6 C :    0.074436
   7 H :    0.041651
   8 H :    0.019804
   9 C :   -0.111683
  10 H :    0.027176
  11 H :    0.025545
  12 C :    0.019669
  13 H :    0.007062
  14 H :    0.036380
  15 H :    0.014557
  16 S :    0.083399
  17 C :   -0.080171
  18 C :   -0.028170
  19 C :   -0.020854
  20 C :   -0.180585
  21 H :    0.015080
  22 C :    0.043729
  23 H :    0.020941
  24 H :    0.020854
  25 C :   -0.006727
  26 H :    0.029221
  27 H :    0.016270
  28 C :   -0.104599
  29 H :    0.043972
  30 H :    0.045687
  31 H :    0.044957
  32 H :    0.071048
  33 H :    0.057731
Sum of atomic charges:   -0.0000000

LOEWDIN ATOMIC CHARGES
----------------------
   0 S :    0.432203
   1 C :   -0.213684
   2 C :   -0.068894
   3 C :   -0.056737
   4 C :   -0.221310
   5 H :    0.019489
   6 C :   -0.038900
   7 H :    0.038454
   8 H :    0.032378
   9 C :   -0.042262
  10 H :    0.027002
  11 H :    0.022449
  12 C :   -0.053459
  13 H :    0.014338
  14 H :    0.032332
  15 H :    0.017935
  16 S :    0.377746
  17 C :   -0.183756
  18 C :   -0.070600
  19 C :   -0.052774
  20 C :   -0.167832
  21 H :    0.027775
  22 C :   -0.042353
  23 H :    0.034014
  24 H :    0.036457
  25 C :   -0.027968
  26 H :    0.025690
  27 H :    0.014481
  28 C :   -0.074955
  29 H :    0.029908
  30 H :    0.026949
  31 H :    0.034461
  32 H :    0.046200
  33 H :    0.025221

  Mayer bond orders larger than 0.100000
B(  0-S ,  1-C ) :   1.1231 B(  0-S ,  4-C ) :   1.1583 B(  1-C ,  2-C ) :   1.6335
B(  1-C , 32-H ) :   0.9472 B(  2-C ,  3-C ) :   1.2290 B(  2-C ,  6-C ) :   1.0160
B(  3-C ,  4-C ) :   1.5698 B(  3-C ,  5-H ) :   1.0004 B(  4-C , 20-C ) :   1.0598
B(  6-C ,  7-H ) :   0.9261 B(  6-C ,  8-H ) :   0.9361 B(  6-C ,  9-C ) :   1.0867
B(  9-C , 10-H ) :   0.9536 B(  9-C , 11-H ) :   0.9481 B(  9-C , 12-C ) :   1.0816
B( 12-C , 13-H ) :   0.9727 B( 12-C , 14-H ) :   0.9742 B( 12-C , 15-H ) :   0.9677
B( 16-S , 17-C ) :   1.1477 B( 16-S , 20-C ) :   1.1201 B( 17-C , 18-C ) :   1.6198
B( 17-C , 33-H ) :   0.9725 B( 18-C , 19-C ) :   1.1992 B( 18-C , 21-H ) :   0.9903
B( 19-C , 20-C ) :   1.6200 B( 19-C , 22-C ) :   1.0711 B( 22-C , 23-H ) :   0.9197
B( 22-C , 24-H ) :   0.9298 B( 22-C , 25-C ) :   1.0516 B( 25-C , 26-H ) :   0.9572
B( 25-C , 27-H ) :   0.9532 B( 25-C , 28-C ) :   1.0774 B( 28-C , 29-H ) :   0.9738
B( 28-C , 30-H ) :   0.9762 B( 28-C , 31-H ) :   0.9785

Dispersion correction           -0.014103374
FINAL SINGLE POINT ENERGY     -1339.869219899823

DIPOLE MOMENT
-------------
                                X             Y             Z
Electronic contribution:    -15.10414       6.33958     -12.47778
Nuclear contribution   :     15.34335      -6.34536      12.93753
                        -----------------------------------------
Total Dipole Moment    :      0.23922      -0.00577       0.45975
                        -----------------------------------------
Magnitude (a.u.)       :      0.51829
Magnitude (Debye)      :      1.31740

Rotational constants in cm-1:     0.020443     0.008133     0.006575
Rotational constants in MHz :   612.857816   243.824816   197.113993

                             ****ORCA TERMINATED NORMALLY****
TOTAL RUN TIME: 0 days 0 hours 0 minutes 30 seconds 117 msec
