                         Program Version 4.2.1 -  RELEASE  -
|  1> ! wB97X-D3 SP def2-SVP
|  2> %pal
|  3> nprocs 16
|  4> end
|  5>
|  6> * xyz 0 1
|  7> S 	 -94.9135 	 50.3646 	 121.583
|  8> C 	 -93.518 	 49.5147 	 122.203
|  9> C 	 -93.7745 	 48.2285 	 122.538
| 10> C 	 -95.2034 	 48.0099 	 122.535
| 11> C 	 -95.9299 	 49.0462 	 121.977
| 12> H 	 -95.7556 	 47.0841 	 122.825
| 13> C 	 -92.8452 	 47.165 	 123.095
| 14> H 	 -93.3006 	 46.8179 	 124.039
| 15> H 	 -91.9418 	 47.6591 	 123.486
| 16> C 	 -92.3434 	 46.1168 	 122.119
| 17> H 	 -92.0849 	 46.5261 	 121.178
| 18> H 	 -91.3294 	 45.698 	 122.356
| 19> C 	 -93.3506 	 45.0371 	 121.704
| 20> H 	 -94.3069 	 45.4876 	 121.328
| 21> H 	 -92.9019 	 44.417 	 120.893
| 22> H 	 -93.434 	 44.2827 	 122.487
| 23> S 	 -98.0857 	 50.7487 	 121.979
| 24> C 	 -99.6573 	 50.1227 	 122.101
| 25> C 	 -99.6921 	 48.7949 	 122.142
| 26> C 	 -98.3891 	 48.2322 	 121.952
| 27> C 	 -97.4015 	 49.1862 	 121.903
| 28> H 	 -100.742 	 48.391 	 122.207
| 29> C 	 -98.265 	 46.7761 	 121.613
| 30> H 	 -97.266 	 46.6779 	 121.201
| 31> H 	 -98.8116 	 46.5961 	 120.699
| 32> C 	 -98.6835 	 45.7876 	 122.685
| 33> H 	 -99.709 	 45.9497 	 122.954
| 34> H 	 -98.1574 	 46.0191 	 123.555
| 35> C 	 -98.6181 	 44.3022 	 122.363
| 36> H 	 -99.0755 	 43.705 	 123.161
| 37> H 	 -97.629 	 43.8735 	 122.041
| 38> H 	 -99.2097 	 44.1932 	 121.521
| 39> H 	 -92.5116 	 49.85 	 122.123
| 40> H 	 -100.523 	 50.6718 	 122.08
| 41> *
| 42>
| 43>                          ****END OF INPUT****

CARTESIAN COORDINATES (ANGSTROEM)
---------------------------------
  S    -94.913500   50.364600  121.583000
  C    -93.518000   49.514700  122.203000
  C    -93.774500   48.228500  122.538000
  C    -95.203400   48.009900  122.535000
  C    -95.929900   49.046200  121.977000
  H    -95.755600   47.084100  122.825000
  C    -92.845200   47.165000  123.095000
  H    -93.300600   46.817900  124.039000
  H    -91.941800   47.659100  123.486000
  C    -92.343400   46.116800  122.119000
  H    -92.084900   46.526100  121.178000
  H    -91.329400   45.698000  122.356000
  C    -93.350600   45.037100  121.704000
  H    -94.306900   45.487600  121.328000
  H    -92.901900   44.417000  120.893000
  H    -93.434000   44.282700  122.487000
  S    -98.085700   50.748700  121.979000
  C    -99.657300   50.122700  122.101000
  C    -99.692100   48.794900  122.142000
  C    -98.389100   48.232200  121.952000
  C    -97.401500   49.186200  121.903000
  H    -100.742000   48.391000  122.207000
  C    -98.265000   46.776100  121.613000
  H    -97.266000   46.677900  121.201000
  H    -98.811600   46.596100  120.699000
  C    -98.683500   45.787600  122.685000
  H    -99.709000   45.949700  122.954000
  H    -98.157400   46.019100  123.555000
  C    -98.618100   44.302200  122.363000
  H    -99.075500   43.705000  123.161000
  H    -97.629000   43.873500  122.041000
  H    -99.209700   44.193200  121.521000
  H    -92.511600   49.850000  122.123000
  H    -100.523000   50.671800  122.080000

 Total Charge           Charge          ....    0
 Multiplicity           Mult            ....    1
 Number of Electrons    NEL             ....  134
 Basis Dimension        Dim             ....  322

ORBITAL ENERGIES
----------------

  NO   OCC          E(Eh)            E(eV)
   0   2.0000     -88.966503     -2420.9016
   1   2.0000     -88.961609     -2420.7684
   2   2.0000     -10.328367      -281.0492
   3   2.0000     -10.323940      -280.9287
   4   2.0000     -10.308990      -280.5219
   5   2.0000     -10.300589      -280.2933
   6   2.0000     -10.300266      -280.2845
   7   2.0000     -10.299688      -280.2687
   8   2.0000     -10.296305      -280.1767
   9   2.0000     -10.294252      -280.1208
  10   2.0000     -10.289037      -279.9789
  11   2.0000     -10.286356      -279.9060
  12   2.0000     -10.285135      -279.8727
  13   2.0000     -10.281890      -279.7844
  14   2.0000     -10.278455      -279.6910
  15   2.0000     -10.276045      -279.6254
  16   2.0000      -8.082095      -219.9250
  17   2.0000      -8.078610      -219.8302
  18   2.0000      -6.040607      -164.3733
  19   2.0000      -6.037028      -164.2759
  20   2.0000      -6.036616      -164.2647
  21   2.0000      -6.032875      -164.1629
  22   2.0000      -6.032678      -164.1575
  23   2.0000      -6.029250      -164.0642
  24   2.0000      -1.019538       -27.7430
  25   2.0000      -0.995417       -27.0867
  26   2.0000      -0.915517       -24.9125
  27   2.0000      -0.913538       -24.8586
  28   2.0000      -0.875148       -23.8140
  29   2.0000      -0.857972       -23.3466
  30   2.0000      -0.845249       -23.0004
  31   2.0000      -0.820519       -22.3275
  32   2.0000      -0.786999       -21.4153
  33   2.0000      -0.778629       -21.1876
  34   2.0000      -0.710423       -19.3316
  35   2.0000      -0.703271       -19.1370
  36   2.0000      -0.700935       -19.0734
  37   2.0000      -0.662100       -18.0167
  38   2.0000      -0.636252       -17.3133
  39   2.0000      -0.619609       -16.8604
  40   2.0000      -0.599883       -16.3236
  41   2.0000      -0.574948       -15.6451
  42   2.0000      -0.564881       -15.3712
  43   2.0000      -0.550166       -14.9708
  44   2.0000      -0.538166       -14.6442
  45   2.0000      -0.534894       -14.5552
  46   2.0000      -0.517786       -14.0897
  47   2.0000      -0.512962       -13.9584
  48   2.0000      -0.507476       -13.8091
  49   2.0000      -0.495572       -13.4852
  50   2.0000      -0.492361       -13.3978
  51   2.0000      -0.489707       -13.3256
  52   2.0000      -0.474219       -12.9042
  53   2.0000      -0.467690       -12.7265
  54   2.0000      -0.461979       -12.5711
  55   2.0000      -0.450429       -12.2568
  56   2.0000      -0.444874       -12.1056
  57   2.0000      -0.436477       -11.8771
  58   2.0000      -0.432125       -11.7587
  59   2.0000      -0.424215       -11.5435
  60   2.0000      -0.418149       -11.3784
  61   2.0000      -0.414541       -11.2802
  62   2.0000      -0.409866       -11.1530
  63   2.0000      -0.363107        -9.8807
  64   2.0000      -0.334952        -9.1145
  65   2.0000      -0.328045        -8.9266
  66   2.0000      -0.288994        -7.8639
  67   0.0000       0.029296         0.7972
  68   0.0000       0.094316         2.5665
  69   0.0000       0.104057         2.8315
  70   0.0000       0.119319         3.2468
  71   0.0000       0.129918         3.5352

MULLIKEN ATOMIC CHARGES
-----------------------
   0 S :    0.102822
   1 C :   -0.095767
   2 C :   -0.087288
   3 C :   -0.024984
   4 C :   -0.126199
   5 H :    0.029190
   6 C :    0.069962
   7 H :    0.039182
   8 H :    0.014759
   9 C :   -0.047780
  10 H :    0.010901
  11 H :    0.026844
  12 C :   -0.078034
  13 H :    0.056140
  14 H :    0.029143
  15 H :    0.028857
  16 S :    0.103091
  17 C :   -0.051578
  18 C :   -0.048240
  19 C :   -0.073765
  20 C :   -0.098825
  21 H :    0.037142
  22 C :    0.065636
  23 H :    0.005998
  24 H :    0.018827
  25 C :   -0.038315
  26 H :    0.016327
  27 H :    0.010020
  28 C :   -0.023450
  29 H :    0.040029
  30 H :    0.035434
  31 H :    0.004911
  32 H :    0.032524
  33 H :    0.016487
Sum of atomic charges:   -0.0000000

LOEWDIN ATOMIC CHARGES
----------------------
   0 S :    0.413902
   1 C :   -0.190017
   2 C :   -0.061199
   3 C :   -0.073564
   4 C :   -0.198545
   5 H :    0.036858
   6 C :   -0.034178
   7 H :    0.037353
   8 H :    0.034332
   9 C :   -0.049240
  10 H :    0.022308
  11 H :    0.030549
  12 C :   -0.072837
  13 H :    0.032082
  14 H :    0.029689
  15 H :    0.021008
  16 S :    0.431729
  17 C :   -0.184798
  18 C :   -0.077832
  19 C :   -0.059253
  20 C :   -0.208565
  21 H :    0.046051
  22 C :   -0.035908
  23 H :    0.026464
  24 H :    0.030982
  25 C :   -0.035801
  26 H :    0.025134
  27 H :    0.013686
  28 C :   -0.061360
  29 H :    0.031558
  30 H :    0.029010
  31 H :    0.014194
  32 H :    0.022649
  33 H :    0.013556

  Mayer bond orders larger than 0.100000
B(  0-S ,  1-C ) :   1.1293 B(  0-S ,  4-C ) :   1.1529 B(  1-C ,  2-C ) :   1.6559
B(  1-C , 32-H ) :   0.9619 B(  2-C ,  3-C ) :   1.2143 B(  2-C ,  6-C ) :   1.0177
B(  3-C ,  4-C ) :   1.5977 B(  3-C ,  5-H ) :   0.9772 B(  4-C , 20-C ) :   1.0298
B(  6-C ,  7-H ) :   0.9494 B(  6-C ,  8-H ) :   0.9355 B(  6-C ,  9-C ) :   1.0596
B(  9-C , 10-H ) :   0.9508 B(  9-C , 11-H ) :   0.9537 B(  9-C , 12-C ) :   1.0827
B( 12-C , 13-H ) :   0.9703 B( 12-C , 14-H ) :   0.9717 B( 12-C , 15-H ) :   0.9767
B( 16-S , 17-C ) :   1.1565 B( 16-S , 20-C ) :   1.1395 B( 17-C , 18-C ) :   1.6538
B( 17-C , 33-H ) :   0.9710 B( 18-C , 19-C ) :   1.2124 B( 18-C , 21-H ) :   0.9853
B( 19-C , 20-C ) :   1.6153 B( 19-C , 22-C ) :   1.0438 B( 22-C , 23-H ) :   0.9352
B( 22-C , 24-H ) :   0.9290 B( 22-C , 25-C ) :   1.0490 B( 25-C , 26-H ) :   0.9491
B( 25-C , 27-H ) :   0.9556 B( 25-C , 28-C ) :   1.0860 B( 28-C , 29-H ) :   0.9731
B( 28-C , 30-H ) :   0.9749 B( 28-C , 31-H ) :   0.9700

Dispersion correction           -0.014339709
FINAL SINGLE POINT ENERGY     -1339.867809681828

DIPOLE MOMENT
-------------
                                X             Y             Z
Electronic contribution:     -4.59170      32.17251      -2.16414
Nuclear contribution   :      4.54498     -32.78051       2.18968
                        -----------------------------------------
Total Dipole Moment    :     -0.04672      -0.60800       0.02553
                        -----------------------------------------
Magnitude (a.u.)       :      0.61033
Magnitude (Debye)      :      1.55133

Rotational constants in cm-1:     0.016373     0.010517     0.006645
Rotational constants in MHz :   490.839818   315.285221   199.209822

                             ****ORCA TERMINATED NORMALLY****
TOTAL RUN TIME: 0 days 0 hours 0 minutes 34 seconds 464 msec
