                         Program Version 4.2.1 -  RELEASE  -
|  1> ! wB97X-D3 SP def2-SVP
|  2> %pal
|  3> nprocs 16
|  4> end
|  5>
|  6> * xyz 0 1
|  7> S 	 58.2327 	 -7.59903 	 86.8367
|  8> C 	 58.7205 	 -6.00421 	 87.5132
|  9> C 	 59.0967 	 -5.15016 	 86.4367
| 10> C 	 59.0886 	 -5.79322 	 85.1912
| 11> C 	 58.6894 	 -7.10652 	 85.2249
| 12> H 	 59.2246 	 -5.35893 	 84.2706
| 13> C 	 59.4032 	 -3.67708 	 86.6115
| 14> H 	 60.4762 	 -3.60629 	 86.9412
| 15> H 	 58.7315 	 -3.25159 	 87.3562
| 16> C 	 59.3729 	 -2.81282 	 85.3489
| 17> H 	 59.81 	 -1.88802 	 85.6395
| 18> H 	 59.9585 	 -3.19089 	 84.5394
| 19> C 	 57.9572 	 -2.56278 	 84.8267
| 20> H 	 57.4049 	 -1.87325 	 85.4011
| 21> H 	 58.1209 	 -2.11197 	 83.8001
| 22> H 	 57.3232 	 -3.47125 	 84.6908
| 23> S 	 56.8873 	 -8.18817 	 83.5053
| 24> C 	 57.4923 	 -8.97781 	 82.0674
| 25> C 	 58.8707 	 -8.97856 	 82.0511
| 26> C 	 59.4698 	 -8.16278 	 83.0444
| 27> C 	 58.5224 	 -7.88442 	 84.0342
| 28> H 	 59.3498 	 -9.4753 	 81.2034
| 29> C 	 61.0197 	 -7.98692 	 83.1694
| 30> H 	 61.219 	 -7.26374 	 83.9569
| 31> H 	 61.3148 	 -7.5699 	 82.2914
| 32> C 	 61.8163 	 -9.26108 	 83.4005
| 33> H 	 62.899 	 -9.05396 	 83.3524
| 34> H 	 61.6693 	 -10.0217 	 82.5439
| 35> C 	 61.6781 	 -10.1213 	 84.673
| 36> H 	 62.2724 	 -11.0518 	 84.4942
| 37> H 	 60.6754 	 -10.4199 	 84.8536
| 38> H 	 62.0415 	 -9.64535 	 85.574
| 39> H 	 58.5709 	 -5.79678 	 88.5359
| 40> H 	 57.0086 	 -9.68506 	 81.4895
| 41> *
| 42>
| 43>                          ****END OF INPUT****

CARTESIAN COORDINATES (ANGSTROEM)
---------------------------------
  S     58.232700   -7.599030   86.836700
  C     58.720500   -6.004210   87.513200
  C     59.096700   -5.150160   86.436700
  C     59.088600   -5.793220   85.191200
  C     58.689400   -7.106520   85.224900
  H     59.224600   -5.358930   84.270600
  C     59.403200   -3.677080   86.611500
  H     60.476200   -3.606290   86.941200
  H     58.731500   -3.251590   87.356200
  C     59.372900   -2.812820   85.348900
  H     59.810000   -1.888020   85.639500
  H     59.958500   -3.190890   84.539400
  C     57.957200   -2.562780   84.826700
  H     57.404900   -1.873250   85.401100
  H     58.120900   -2.111970   83.800100
  H     57.323200   -3.471250   84.690800
  S     56.887300   -8.188170   83.505300
  C     57.492300   -8.977810   82.067400
  C     58.870700   -8.978560   82.051100
  C     59.469800   -8.162780   83.044400
  C     58.522400   -7.884420   84.034200
  H     59.349800   -9.475300   81.203400
  C     61.019700   -7.986920   83.169400
  H     61.219000   -7.263740   83.956900
  H     61.314800   -7.569900   82.291400
  C     61.816300   -9.261080   83.400500
  H     62.899000   -9.053960   83.352400
  H     61.669300  -10.021700   82.543900
  C     61.678100  -10.121300   84.673000
  H     62.272400  -11.051800   84.494200
  H     60.675400  -10.419900   84.853600
  H     62.041500   -9.645350   85.574000
  H     58.570900   -5.796780   88.535900
  H     57.008600   -9.685060   81.489500

 Total Charge           Charge          ....    0
 Multiplicity           Mult            ....    1
 Number of Electrons    NEL             ....  134
 Basis Dimension        Dim             ....  322

ORBITAL ENERGIES
----------------

  NO   OCC          E(Eh)            E(eV)
   0   2.0000     -88.967378     -2420.9254
   1   2.0000     -88.965137     -2420.8645
   2   2.0000     -10.323945      -280.9288
   3   2.0000     -10.322985      -280.9027
   4   2.0000     -10.318385      -280.7775
   5   2.0000     -10.307168      -280.4723
   6   2.0000     -10.304889      -280.4103
   7   2.0000     -10.304772      -280.4071
   8   2.0000     -10.293963      -280.1130
   9   2.0000     -10.292382      -280.0699
  10   2.0000     -10.291608      -280.0489
  11   2.0000     -10.288277      -279.9583
  12   2.0000     -10.283844      -279.8376
  13   2.0000     -10.282893      -279.8117
  14   2.0000     -10.277491      -279.6648
  15   2.0000     -10.271148      -279.4922
  16   2.0000      -8.081200      -219.9006
  17   2.0000      -8.080052      -219.8694
  18   2.0000      -6.039669      -164.3477
  19   2.0000      -6.038558      -164.3175
  20   2.0000      -6.035726      -164.2405
  21   2.0000      -6.034550      -164.2085
  22   2.0000      -6.032190      -164.1442
  23   2.0000      -6.030785      -164.1060
  24   2.0000      -1.007493       -27.4153
  25   2.0000      -0.981061       -26.6960
  26   2.0000      -0.913996       -24.8711
  27   2.0000      -0.903791       -24.5934
  28   2.0000      -0.871102       -23.7039
  29   2.0000      -0.848524       -23.0895
  30   2.0000      -0.843904       -22.9638
  31   2.0000      -0.814577       -22.1658
  32   2.0000      -0.789093       -21.4723
  33   2.0000      -0.773931       -21.0597
  34   2.0000      -0.711017       -19.3478
  35   2.0000      -0.697253       -18.9732
  36   2.0000      -0.690050       -18.7772
  37   2.0000      -0.654243       -17.8029
  38   2.0000      -0.646124       -17.5819
  39   2.0000      -0.626656       -17.0522
  40   2.0000      -0.593358       -16.1461
  41   2.0000      -0.566790       -15.4231
  42   2.0000      -0.552429       -15.0324
  43   2.0000      -0.548521       -14.9260
  44   2.0000      -0.540556       -14.7093
  45   2.0000      -0.533866       -14.5272
  46   2.0000      -0.528299       -14.3757
  47   2.0000      -0.517772       -14.0893
  48   2.0000      -0.503327       -13.6962
  49   2.0000      -0.495169       -13.4742
  50   2.0000      -0.490730       -13.3534
  51   2.0000      -0.478626       -13.0241
  52   2.0000      -0.467573       -12.7233
  53   2.0000      -0.461827       -12.5670
  54   2.0000      -0.461636       -12.5618
  55   2.0000      -0.445512       -12.1230
  56   2.0000      -0.442270       -12.0348
  57   2.0000      -0.440143       -11.9769
  58   2.0000      -0.438942       -11.9442
  59   2.0000      -0.420071       -11.4307
  60   2.0000      -0.417723       -11.3668
  61   2.0000      -0.414100       -11.2682
  62   2.0000      -0.408737       -11.1223
  63   2.0000      -0.340956        -9.2779
  64   2.0000      -0.330256        -8.9867
  65   2.0000      -0.328097        -8.9280
  66   2.0000      -0.295152        -8.0315
  67   0.0000       0.028497         0.7754
  68   0.0000       0.063270         1.7217
  69   0.0000       0.115950         3.1552
  70   0.0000       0.120910         3.2901
  71   0.0000       0.129904         3.5349

MULLIKEN ATOMIC CHARGES
-----------------------
   0 S :    0.105356
   1 C :   -0.129287
   2 C :   -0.076670
   3 C :    0.062569
   4 C :   -0.154992
   5 H :   -0.018512
   6 C :    0.064852
   7 H :    0.049041
   8 H :    0.031282
   9 C :   -0.061376
  10 H :    0.019891
  11 H :    0.026273
  12 C :   -0.074183
  13 H :    0.024639
  14 H :    0.036205
  15 H :    0.050422
  16 S :    0.112271
  17 C :   -0.056352
  18 C :   -0.062613
  19 C :   -0.058476
  20 C :   -0.170585
  21 H :    0.025757
  22 C :    0.172779
  23 H :    0.023716
  24 H :   -0.001013
  25 C :   -0.132703
  26 H :    0.030835
  27 H :    0.029571
  28 C :   -0.036244
  29 H :    0.033657
  30 H :    0.028986
  31 H :    0.031632
  32 H :    0.039130
  33 H :    0.034142
Sum of atomic charges:    0.0000000

LOEWDIN ATOMIC CHARGES
----------------------
   0 S :    0.395156
   1 C :   -0.181657
   2 C :   -0.055158
   3 C :   -0.056214
   4 C :   -0.199754
   5 H :    0.018793
   6 C :   -0.033689
   7 H :    0.042442
   8 H :    0.031666
   9 C :   -0.040797
  10 H :    0.024752
  11 H :    0.019985
  12 C :   -0.068906
  13 H :    0.015877
  14 H :    0.033688
  15 H :    0.030907
  16 S :    0.410336
  17 C :   -0.186649
  18 C :   -0.065226
  19 C :   -0.053325
  20 C :   -0.198414
  21 H :    0.033256
  22 C :   -0.018988
  23 H :    0.031700
  24 H :    0.020071
  25 C :   -0.048846
  26 H :    0.026935
  27 H :    0.028337
  28 C :   -0.063641
  29 H :    0.033421
  30 H :    0.018569
  31 H :    0.021902
  32 H :    0.017664
  33 H :    0.015806

  Mayer bond orders larger than 0.100000
B(  0-S ,  1-C ) :   1.1400 B(  0-S ,  4-C ) :   1.1609 B(  1-C ,  2-C ) :   1.5609
B(  1-C ,  4-C ) :   0.1086 B(  1-C , 32-H ) :   0.9859 B(  2-C ,  3-C ) :   1.2703
B(  2-C ,  6-C ) :   1.0092 B(  3-C ,  4-C ) :   1.5419 B(  3-C ,  5-H ) :   1.0029
B(  4-C , 20-C ) :   1.0310 B(  6-C ,  7-H ) :   0.9295 B(  6-C ,  8-H ) :   0.9447
B(  6-C ,  9-C ) :   1.0996 B(  9-C , 10-H ) :   0.9482 B(  9-C , 11-H ) :   0.9505
B(  9-C , 12-C ) :   1.0751 B( 12-C , 13-H ) :   0.9761 B( 12-C , 14-H ) :   0.9752
B( 12-C , 15-H ) :   0.9771 B( 16-S , 17-C ) :   1.1401 B( 16-S , 20-C ) :   1.1626
B( 17-C , 18-C ) :   1.6467 B( 17-C , 20-C ) :   0.1059 B( 17-C , 33-H ) :   0.9644
B( 18-C , 19-C ) :   1.2247 B( 18-C , 21-H ) :   0.9812 B( 19-C , 20-C ) :   1.5804
B( 19-C , 22-C ) :   1.0399 B( 22-C , 23-H ) :   0.9347 B( 22-C , 24-H ) :   0.9150
B( 22-C , 25-C ) :   1.0777 B( 25-C , 26-H ) :   0.9532 B( 25-C , 27-H ) :   0.9551
B( 25-C , 28-C ) :   1.0790 B( 28-C , 29-H ) :   0.9719 B( 28-C , 30-H ) :   0.9764
B( 28-C , 31-H ) :   0.9753

Dispersion correction           -0.015003651
FINAL SINGLE POINT ENERGY     -1339.866810315056

DIPOLE MOMENT
-------------
                                X             Y             Z
Electronic contribution:    -15.64129     -10.48199       3.30355
Nuclear contribution   :     16.08124      10.86565      -3.46641
                        -----------------------------------------
Total Dipole Moment    :      0.43995       0.38366      -0.16286
                        -----------------------------------------
Magnitude (a.u.)       :      0.60603
Magnitude (Debye)      :      1.54041

Rotational constants in cm-1:     0.018194     0.008883     0.008313
Rotational constants in MHz :   545.441015   266.316079   249.203458

                             ****ORCA TERMINATED NORMALLY****
TOTAL RUN TIME: 0 days 0 hours 0 minutes 31 seconds 343 msec
