                         Program Version 4.2.1 -  RELEASE  -
|  1> ! wB97X-D3 SP def2-SVP
|  2> %pal
|  3> nprocs 16
|  4> end
|  5>
|  6> * xyz 0 1
|  7> S 	 7.71498 	 22.4899 	 55.2594
|  8> C 	 8.51632 	 24.0167 	 55.0123
|  9> C 	 8.60366 	 24.6441 	 56.1973
| 10> C 	 8.02179 	 23.9185 	 57.2574
| 11> C 	 7.4653 	 22.7276 	 56.9375
| 12> H 	 8.03203 	 24.1166 	 58.2491
| 13> C 	 9.41601 	 25.8707 	 56.3639
| 14> H 	 10.2738 	 25.6727 	 55.7814
| 15> H 	 9.71406 	 25.7832 	 57.4489
| 16> C 	 8.72182 	 27.2429 	 56.1023
| 17> H 	 9.45042 	 28.0329 	 56.0909
| 18> H 	 8.22522 	 27.2309 	 55.1248
| 19> C 	 7.72163 	 27.6799 	 57.2412
| 20> H 	 7.14228 	 28.5795 	 56.9205
| 21> H 	 6.91515 	 26.9814 	 57.3981
| 22> H 	 8.1737 	 27.9833 	 58.156
| 23> S 	 5.018 	 21.4171 	 57.5352
| 24> C 	 4.94214 	 20.7506 	 59.1163
| 25> C 	 6.18154 	 20.5625 	 59.6928
| 26> C 	 7.15671 	 21.3166 	 59.0252
| 27> C 	 6.73958 	 21.8049 	 57.7857
| 28> H 	 6.36113 	 20.0916 	 60.6753
| 29> C 	 8.57002 	 21.3514 	 59.5845
| 30> H 	 8.33989 	 21.561 	 60.5738
| 31> H 	 9.28586 	 22.159 	 59.2179
| 32> C 	 9.35442 	 19.9845 	 59.5737
| 33> H 	 9.70021 	 19.8526 	 58.5589
| 34> H 	 8.70135 	 19.1535 	 59.8021
| 35> C 	 10.6154 	 19.8355 	 60.5788
| 36> H 	 11.2688 	 18.9191 	 60.4512
| 37> H 	 10.3601 	 19.8059 	 61.6858
| 38> H 	 11.2104 	 20.7209 	 60.1848
| 39> H 	 8.82122 	 24.4712 	 54.0653
| 40> H 	 3.96918 	 20.4388 	 59.6292
| 41> *
| 42>
| 43>                          ****END OF INPUT****

CARTESIAN COORDINATES (ANGSTROEM)
---------------------------------
  S      7.714980   22.489900   55.259400
  C      8.516320   24.016700   55.012300
  C      8.603660   24.644100   56.197300
  C      8.021790   23.918500   57.257400
  C      7.465300   22.727600   56.937500
  H      8.032030   24.116600   58.249100
  C      9.416010   25.870700   56.363900
  H     10.273800   25.672700   55.781400
  H      9.714060   25.783200   57.448900
  C      8.721820   27.242900   56.102300
  H      9.450420   28.032900   56.090900
  H      8.225220   27.230900   55.124800
  C      7.721630   27.679900   57.241200
  H      7.142280   28.579500   56.920500
  H      6.915150   26.981400   57.398100
  H      8.173700   27.983300   58.156000
  S      5.018000   21.417100   57.535200
  C      4.942140   20.750600   59.116300
  C      6.181540   20.562500   59.692800
  C      7.156710   21.316600   59.025200
  C      6.739580   21.804900   57.785700
  H      6.361130   20.091600   60.675300
  C      8.570020   21.351400   59.584500
  H      8.339890   21.561000   60.573800
  H      9.285860   22.159000   59.217900
  C      9.354420   19.984500   59.573700
  H      9.700210   19.852600   58.558900
  H      8.701350   19.153500   59.802100
  C     10.615400   19.835500   60.578800
  H     11.268800   18.919100   60.451200
  H     10.360100   19.805900   61.685800
  H     11.210400   20.720900   60.184800
  H      8.821220   24.471200   54.065300
  H      3.969180   20.438800   59.629200

 Total Charge           Charge          ....    0
 Multiplicity           Mult            ....    1
 Number of Electrons    NEL             ....  134
 Basis Dimension        Dim             ....  322

ORBITAL ENERGIES
----------------

  NO   OCC          E(Eh)            E(eV)
   0   2.0000     -88.970918     -2421.0218
   1   2.0000     -88.957291     -2420.6510
   2   2.0000     -10.327678      -281.0304
   3   2.0000     -10.326380      -280.9951
   4   2.0000     -10.320377      -280.8317
   5   2.0000     -10.306021      -280.4411
   6   2.0000     -10.305783      -280.4346
   7   2.0000     -10.298079      -280.2250
   8   2.0000     -10.296198      -280.1738
   9   2.0000     -10.295453      -280.1535
  10   2.0000     -10.292474      -280.0725
  11   2.0000     -10.292015      -280.0600
  12   2.0000     -10.287871      -279.9472
  13   2.0000     -10.287628      -279.9406
  14   2.0000     -10.276773      -279.6452
  15   2.0000     -10.276217      -279.6301
  16   2.0000      -8.085736      -220.0241
  17   2.0000      -8.073184      -219.6825
  18   2.0000      -6.044194      -164.4709
  19   2.0000      -6.040320      -164.3655
  20   2.0000      -6.036430      -164.2596
  21   2.0000      -6.031637      -164.1292
  22   2.0000      -6.027384      -164.0135
  23   2.0000      -6.024065      -163.9231
  24   2.0000      -1.014666       -27.6105
  25   2.0000      -0.994083       -27.0504
  26   2.0000      -0.910306       -24.7707
  27   2.0000      -0.903031       -24.5727
  28   2.0000      -0.870138       -23.6777
  29   2.0000      -0.848151       -23.0794
  30   2.0000      -0.843511       -22.9531
  31   2.0000      -0.816542       -22.2192
  32   2.0000      -0.782839       -21.3021
  33   2.0000      -0.770100       -20.9555
  34   2.0000      -0.708315       -19.2742
  35   2.0000      -0.704310       -19.1653
  36   2.0000      -0.693678       -18.8759
  37   2.0000      -0.662142       -18.0178
  38   2.0000      -0.645266       -17.5586
  39   2.0000      -0.616863       -16.7857
  40   2.0000      -0.597180       -16.2501
  41   2.0000      -0.572120       -15.5682
  42   2.0000      -0.558463       -15.1965
  43   2.0000      -0.546508       -14.8712
  44   2.0000      -0.542657       -14.7664
  45   2.0000      -0.522337       -14.2135
  46   2.0000      -0.512973       -13.9587
  47   2.0000      -0.508394       -13.8341
  48   2.0000      -0.506640       -13.7864
  49   2.0000      -0.498612       -13.5679
  50   2.0000      -0.485483       -13.2107
  51   2.0000      -0.479914       -13.0591
  52   2.0000      -0.473921       -12.8960
  53   2.0000      -0.465895       -12.6777
  54   2.0000      -0.463370       -12.6089
  55   2.0000      -0.453880       -12.3507
  56   2.0000      -0.440740       -11.9931
  57   2.0000      -0.434694       -11.8286
  58   2.0000      -0.431885       -11.7522
  59   2.0000      -0.426429       -11.6037
  60   2.0000      -0.424224       -11.5437
  61   2.0000      -0.408289       -11.1101
  62   2.0000      -0.407006       -11.0752
  63   2.0000      -0.345936        -9.4134
  64   2.0000      -0.335033        -9.1167
  65   2.0000      -0.326522        -8.8851
  66   2.0000      -0.294267        -8.0074
  67   0.0000       0.035211         0.9581
  68   0.0000       0.063558         1.7295
  69   0.0000       0.113260         3.0820
  70   0.0000       0.125241         3.4080
  71   0.0000       0.128048         3.4844

MULLIKEN ATOMIC CHARGES
-----------------------
   0 S :    0.093919
   1 C :   -0.124480
   2 C :   -0.085248
   3 C :    0.069054
   4 C :   -0.164863
   5 H :   -0.046495
   6 C :    0.060382
   7 H :    0.023325
   8 H :    0.023156
   9 C :   -0.033651
  10 H :    0.027342
  11 H :    0.030823
  12 C :   -0.070181
  13 H :    0.027801
  14 H :    0.036477
  15 H :    0.030574
  16 S :    0.129905
  17 C :   -0.125099
  18 C :   -0.031677
  19 C :   -0.054047
  20 C :   -0.129470
  21 H :    0.033693
  22 C :    0.074264
  23 H :    0.004717
  24 H :    0.044440
  25 C :   -0.073569
  26 H :    0.037641
  27 H :    0.025026
  28 C :   -0.122743
  29 H :    0.051575
  30 H :    0.053657
  31 H :    0.048132
  32 H :    0.049358
  33 H :    0.086263
Sum of atomic charges:   -0.0000000

LOEWDIN ATOMIC CHARGES
----------------------
   0 S :    0.413750
   1 C :   -0.200064
   2 C :   -0.074197
   3 C :   -0.061917
   4 C :   -0.198800
   5 H :    0.010461
   6 C :   -0.032201
   7 H :    0.026854
   8 H :    0.037236
   9 C :   -0.030972
  10 H :    0.021981
  11 H :    0.025180
  12 C :   -0.068746
  13 H :    0.031711
  14 H :    0.023375
  15 H :    0.019812
  16 S :    0.414733
  17 C :   -0.193643
  18 C :   -0.079249
  19 C :   -0.046036
  20 C :   -0.201176
  21 H :    0.038346
  22 C :   -0.032665
  23 H :    0.019809
  24 H :    0.038398
  25 C :   -0.035219
  26 H :    0.025236
  27 H :    0.016749
  28 C :   -0.087624
  29 H :    0.033464
  30 H :    0.031220
  31 H :    0.033416
  32 H :    0.034727
  33 H :    0.046054

  Mayer bond orders larger than 0.100000
B(  0-S ,  1-C ) :   1.1358 B(  0-S ,  4-C ) :   1.1580 B(  1-C ,  2-C ) :   1.6108
B(  1-C , 32-H ) :   0.9695 B(  2-C ,  3-C ) :   1.2364 B(  2-C ,  6-C ) :   0.9981
B(  3-C ,  4-C ) :   1.5796 B(  3-C ,  5-H ) :   1.0189 B(  4-C , 20-C ) :   1.0276
B(  6-C ,  7-H ) :   0.9452 B(  6-C ,  8-H ) :   0.9449 B(  6-C ,  9-C ) :   1.0608
B(  9-C , 10-H ) :   0.9576 B(  9-C , 11-H ) :   0.9603 B(  9-C , 12-C ) :   1.0743
B( 12-C , 13-H ) :   0.9729 B( 12-C , 14-H ) :   0.9782 B( 12-C , 15-H ) :   0.9779
B( 16-S , 17-C ) :   1.1847 B( 16-S , 20-C ) :   1.1211 B( 17-C , 18-C ) :   1.5837
B( 17-C , 33-H ) :   0.9557 B( 18-C , 19-C ) :   1.2597 B( 18-C , 21-H ) :   0.9806
B( 19-C , 20-C ) :   1.5863 B( 19-C , 22-C ) :   1.0396 B( 22-C , 23-H ) :   0.9227
B( 22-C , 24-H ) :   0.9393 B( 22-C , 25-C ) :   1.0543 B( 25-C , 26-H ) :   0.9615
B( 25-C , 27-H ) :   0.9603 B( 25-C , 28-C ) :   1.0547 B( 28-C , 29-H ) :   0.9762
B( 28-C , 30-H ) :   0.9762 B( 28-C , 31-H ) :   0.9788

Dispersion correction           -0.013982814
FINAL SINGLE POINT ENERGY     -1339.850912567721

DIPOLE MOMENT
-------------
                                X             Y             Z
Electronic contribution:    -17.24234     -11.15959     -12.92833
Nuclear contribution   :     17.50955      11.38247      13.46979
                        -----------------------------------------
Total Dipole Moment    :      0.26721       0.22288       0.54145
                        -----------------------------------------
Magnitude (a.u.)       :      0.64362
Magnitude (Debye)      :      1.63595

Rotational constants in cm-1:     0.017392     0.008109     0.006953
Rotational constants in MHz :   521.384728   243.109958   208.442411

                             ****ORCA TERMINATED NORMALLY****
TOTAL RUN TIME: 0 days 0 hours 0 minutes 34 seconds 238 msec
