                         Program Version 4.2.1 -  RELEASE  -
|  1> ! wB97X-D3 SP def2-SVP
|  2> %pal
|  3> nprocs 16
|  4> end
|  5>
|  6> * xyz 0 1
|  7> S 	 -34.4864 	 41.4308 	 99.038
|  8> C 	 -33.2594 	 40.3038 	 99.5612
|  9> C 	 -32.5215 	 39.6731 	 98.589
| 10> C 	 -33.048 	 40.1481 	 97.3103
| 11> C 	 -34.1134 	 41.0293 	 97.3946
| 12> H 	 -32.6691 	 39.9533 	 96.3631
| 13> C 	 -31.3375 	 38.6752 	 98.7456
| 14> H 	 -31.6046 	 37.7025 	 98.246
| 15> H 	 -31.1436 	 38.4803 	 99.7918
| 16> C 	 -30.0959 	 39.0938 	 98.081
| 17> H 	 -30.3782 	 39.2629 	 96.9723
| 18> H 	 -29.8971 	 40.0286 	 98.5412
| 19> C 	 -28.8906 	 38.1361 	 98.2644
| 20> H 	 -29.0639 	 37.0674 	 98.1548
| 21> H 	 -28.0716 	 38.5137 	 97.5946
| 22> H 	 -28.4541 	 38.1649 	 99.2509
| 23> S 	 -34.2265 	 43.4967 	 96.3521
| 24> C 	 -35.3463 	 43.8436 	 95.1016
| 25> C 	 -35.8723 	 42.744 	 94.5178
| 26> C 	 -35.6637 	 41.6077 	 95.2959
| 27> C 	 -34.7307 	 41.8472 	 96.3673
| 28> H 	 -36.4245 	 42.8888 	 93.6009
| 29> C 	 -36.1761 	 40.2456 	 94.922
| 30> H 	 -35.9516 	 39.5064 	 95.7489
| 31> H 	 -35.635 	 40.0659 	 93.9524
| 32> C 	 -37.7048 	 40.3239 	 94.7051
| 33> H 	 -37.9513 	 41.0732 	 93.9845
| 34> H 	 -38.1346 	 40.5326 	 95.6793
| 35> C 	 -38.2738 	 39.0331 	 94.0388
| 36> H 	 -39.3382 	 39.0773 	 93.9903
| 37> H 	 -37.9838 	 38.1881 	 94.6279
| 38> H 	 -37.9698 	 38.9673 	 93.0283
| 39> H 	 -33.09 	 40.1858 	 100.58
| 40> H 	 -35.2426 	 44.7239 	 94.5799
| 41> *
| 42>
| 43>                          ****END OF INPUT****

CARTESIAN COORDINATES (ANGSTROEM)
---------------------------------
  S    -34.486400   41.430800   99.038000
  C    -33.259400   40.303800   99.561200
  C    -32.521500   39.673100   98.589000
  C    -33.048000   40.148100   97.310300
  C    -34.113400   41.029300   97.394600
  H    -32.669100   39.953300   96.363100
  C    -31.337500   38.675200   98.745600
  H    -31.604600   37.702500   98.246000
  H    -31.143600   38.480300   99.791800
  C    -30.095900   39.093800   98.081000
  H    -30.378200   39.262900   96.972300
  H    -29.897100   40.028600   98.541200
  C    -28.890600   38.136100   98.264400
  H    -29.063900   37.067400   98.154800
  H    -28.071600   38.513700   97.594600
  H    -28.454100   38.164900   99.250900
  S    -34.226500   43.496700   96.352100
  C    -35.346300   43.843600   95.101600
  C    -35.872300   42.744000   94.517800
  C    -35.663700   41.607700   95.295900
  C    -34.730700   41.847200   96.367300
  H    -36.424500   42.888800   93.600900
  C    -36.176100   40.245600   94.922000
  H    -35.951600   39.506400   95.748900
  H    -35.635000   40.065900   93.952400
  C    -37.704800   40.323900   94.705100
  H    -37.951300   41.073200   93.984500
  H    -38.134600   40.532600   95.679300
  C    -38.273800   39.033100   94.038800
  H    -39.338200   39.077300   93.990300
  H    -37.983800   38.188100   94.627900
  H    -37.969800   38.967300   93.028300
  H    -33.090000   40.185800  100.580000
  H    -35.242600   44.723900   94.579900

 Total Charge           Charge          ....    0
 Multiplicity           Mult            ....    1
 Number of Electrons    NEL             ....  134
 Basis Dimension        Dim             ....  322

ORBITAL ENERGIES
----------------

  NO   OCC          E(Eh)            E(eV)
   0   2.0000     -88.963122     -2420.8096
   1   2.0000     -88.961463     -2420.7645
   2   2.0000     -10.323837      -280.9259
   3   2.0000     -10.321369      -280.8587
   4   2.0000     -10.308530      -280.5094
   5   2.0000     -10.306943      -280.4662
   6   2.0000     -10.301658      -280.3224
   7   2.0000     -10.300360      -280.2871
   8   2.0000     -10.296331      -280.1774
   9   2.0000     -10.294526      -280.1283
  10   2.0000     -10.292519      -280.0737
  11   2.0000     -10.288832      -279.9734
  12   2.0000     -10.286478      -279.9093
  13   2.0000     -10.284732      -279.8618
  14   2.0000     -10.281669      -279.7784
  15   2.0000     -10.268084      -279.4088
  16   2.0000      -8.078674      -219.8319
  17   2.0000      -8.077547      -219.8012
  18   2.0000      -6.037072      -164.2771
  19   2.0000      -6.035718      -164.2402
  20   2.0000      -6.033174      -164.1710
  21   2.0000      -6.031909      -164.1366
  22   2.0000      -6.029394      -164.0682
  23   2.0000      -6.028537      -164.0448
  24   2.0000      -1.010582       -27.4993
  25   2.0000      -0.986791       -26.8519
  26   2.0000      -0.919220       -25.0132
  27   2.0000      -0.908392       -24.7186
  28   2.0000      -0.873089       -23.7580
  29   2.0000      -0.849676       -23.1209
  30   2.0000      -0.845071       -22.9955
  31   2.0000      -0.815075       -22.1793
  32   2.0000      -0.787524       -21.4296
  33   2.0000      -0.770130       -20.9563
  34   2.0000      -0.706838       -19.2340
  35   2.0000      -0.696514       -18.9531
  36   2.0000      -0.690091       -18.7783
  37   2.0000      -0.654510       -17.8101
  38   2.0000      -0.650723       -17.7071
  39   2.0000      -0.621753       -16.9188
  40   2.0000      -0.596988       -16.2449
  41   2.0000      -0.577160       -15.7053
  42   2.0000      -0.569149       -15.4873
  43   2.0000      -0.563798       -15.3417
  44   2.0000      -0.526772       -14.3342
  45   2.0000      -0.521096       -14.1798
  46   2.0000      -0.518471       -14.1083
  47   2.0000      -0.512102       -13.9350
  48   2.0000      -0.503848       -13.7104
  49   2.0000      -0.498047       -13.5525
  50   2.0000      -0.487017       -13.2524
  51   2.0000      -0.474468       -12.9109
  52   2.0000      -0.468290       -12.7428
  53   2.0000      -0.465798       -12.6750
  54   2.0000      -0.461596       -12.5607
  55   2.0000      -0.452381       -12.3099
  56   2.0000      -0.449578       -12.2336
  57   2.0000      -0.435046       -11.8382
  58   2.0000      -0.433577       -11.7982
  59   2.0000      -0.426589       -11.6081
  60   2.0000      -0.424907       -11.5623
  61   2.0000      -0.418010       -11.3746
  62   2.0000      -0.413344       -11.2477
  63   2.0000      -0.340925        -9.2770
  64   2.0000      -0.327035        -8.8991
  65   2.0000      -0.323805        -8.8112
  66   2.0000      -0.298064        -8.1107
  67   0.0000       0.042264         1.1501
  68   0.0000       0.061544         1.6747
  69   0.0000       0.116166         3.1610
  70   0.0000       0.120209         3.2711
  71   0.0000       0.125985         3.4282

MULLIKEN ATOMIC CHARGES
-----------------------
   0 S :    0.115463
   1 C :   -0.110755
   2 C :   -0.060145
   3 C :    0.062394
   4 C :   -0.181467
   5 H :   -0.019140
   6 C :    0.091054
   7 H :    0.034787
   8 H :    0.013348
   9 C :   -0.109819
  10 H :    0.045974
  11 H :    0.025075
  12 C :   -0.040991
  13 H :    0.031631
  14 H :    0.047084
  15 H :    0.024224
  16 S :    0.117477
  17 C :   -0.051544
  18 C :   -0.058602
  19 C :   -0.017281
  20 C :   -0.189368
  21 H :    0.023711
  22 C :    0.054023
  23 H :    0.047437
  24 H :    0.043866
  25 C :   -0.113262
  26 H :    0.023949
  27 H :    0.037680
  28 C :    0.002128
  29 H :    0.022493
  30 H :    0.024901
  31 H :    0.018734
  32 H :    0.016857
  33 H :    0.028085
Sum of atomic charges:    0.0000000

LOEWDIN ATOMIC CHARGES
----------------------
   0 S :    0.412974
   1 C :   -0.180431
   2 C :   -0.057323
   3 C :   -0.047925
   4 C :   -0.210142
   5 H :    0.016602
   6 C :   -0.030731
   7 H :    0.035181
   8 H :    0.025405
   9 C :   -0.047598
  10 H :    0.032850
  11 H :    0.021932
  12 C :   -0.070668
  13 H :    0.025032
  14 H :    0.037599
  15 H :    0.024630
  16 S :    0.438075
  17 C :   -0.186043
  18 C :   -0.070657
  19 C :   -0.054472
  20 C :   -0.224605
  21 H :    0.034813
  22 C :   -0.035913
  23 H :    0.038979
  24 H :    0.039676
  25 C :   -0.035004
  26 H :    0.017500
  27 H :    0.026310
  28 C :   -0.056318
  29 H :    0.022238
  30 H :    0.020763
  31 H :    0.019344
  32 H :    0.008570
  33 H :    0.009360

  Mayer bond orders larger than 0.100000
B(  0-S ,  1-C ) :   1.1496 B(  0-S ,  4-C ) :   1.1454 B(  1-C ,  2-C ) :   1.6411
B(  1-C , 32-H ) :   0.9711 B(  2-C ,  3-C ) :   1.1972 B(  2-C ,  6-C ) :   1.0213
B(  3-C ,  4-C ) :   1.6244 B(  3-C ,  5-H ) :   0.9996 B(  4-C , 20-C ) :   1.0118
B(  6-C ,  7-H ) :   0.9346 B(  6-C ,  8-H ) :   0.9421 B(  6-C ,  9-C ) :   1.0646
B(  9-C , 10-H ) :   0.9545 B(  9-C , 11-H ) :   0.9533 B(  9-C , 12-C ) :   1.0792
B( 12-C , 13-H ) :   0.9751 B( 12-C , 14-H ) :   0.9740 B( 12-C , 15-H ) :   0.9712
B( 16-S , 17-C ) :   1.1781 B( 16-S , 20-C ) :   1.1839 B( 17-C , 18-C ) :   1.6052
B( 17-C , 20-C ) :   0.1061 B( 17-C , 33-H ) :   0.9635 B( 18-C , 19-C ) :   1.2620
B( 18-C , 21-H ) :   0.9883 B( 19-C , 20-C ) :   1.5373 B( 19-C , 22-C ) :   1.0440
B( 22-C , 23-H ) :   0.9336 B( 22-C , 24-H ) :   0.9357 B( 22-C , 25-C ) :   1.0592
B( 25-C , 26-H ) :   0.9596 B( 25-C , 27-H ) :   0.9585 B( 25-C , 28-C ) :   1.0848
B( 28-C , 29-H ) :   0.9737 B( 28-C , 30-H ) :   0.9739 B( 28-C , 31-H ) :   0.9752

Dispersion correction           -0.013215139
FINAL SINGLE POINT ENERGY     -1339.862305842543

DIPOLE MOMENT
-------------
                                X             Y             Z
Electronic contribution:     -4.71938      20.71656       8.42631
Nuclear contribution   :      4.99945     -21.06052      -8.76140
                        -----------------------------------------
Total Dipole Moment    :      0.28007      -0.34396      -0.33509
                        -----------------------------------------
Magnitude (a.u.)       :      0.55591
Magnitude (Debye)      :      1.41301

Rotational constants in cm-1:     0.019414     0.007059     0.006289
Rotational constants in MHz :   582.016767   211.627447   188.548200

                             ****ORCA TERMINATED NORMALLY****
TOTAL RUN TIME: 0 days 0 hours 0 minutes 28 seconds 517 msec
