                         Program Version 4.2.1 -  RELEASE  -
|  1> ! wB97X-D3 SP def2-SVP
|  2> %pal
|  3> nprocs 16
|  4> end
|  5>
|  6> * xyz 0 1
|  7> S 	 -52.4113 	 39.9365 	 109.75
|  8> C 	 -51.8999 	 39.2593 	 108.187
|  9> C 	 -52.423 	 37.9799 	 107.895
| 10> C 	 -53.1991 	 37.5301 	 109.02
| 11> C 	 -53.3116 	 38.4162 	 110.06
| 12> H 	 -53.7288 	 36.5797 	 109.081
| 13> C 	 -52.3154 	 37.2484 	 106.584
| 14> H 	 -52.2178 	 38.0732 	 105.835
| 15> H 	 -53.254 	 36.7604 	 106.289
| 16> C 	 -51.1244 	 36.2102 	 106.451
| 17> H 	 -50.2158 	 36.683 	 106.265
| 18> H 	 -51.1191 	 35.6914 	 107.446
| 19> C 	 -51.349 	 35.1381 	 105.435
| 20> H 	 -52.3612 	 35.1453 	 105.004
| 21> H 	 -50.7506 	 35.4648 	 104.554
| 22> H 	 -51.061 	 34.2065 	 105.847
| 23> S 	 -53.5445 	 38.9352 	 112.726
| 24> C 	 -54.6864 	 38.302 	 113.812
| 25> C 	 -55.5486 	 37.5533 	 113.057
| 26> C 	 -55.2708 	 37.5106 	 111.61
| 27> C 	 -54.0839 	 38.1795 	 111.299
| 28> H 	 -56.3663 	 37.0396 	 113.529
| 29> C 	 -56.2152 	 36.7258 	 110.735
| 30> H 	 -56.0917 	 37.0155 	 109.686
| 31> H 	 -57.2438 	 37.0091 	 110.995
| 32> C 	 -56.0619 	 35.2071 	 110.91
| 33> H 	 -56.4643 	 34.813 	 111.836
| 34> H 	 -54.9627 	 35.0532 	 110.906
| 35> C 	 -56.7114 	 34.3721 	 109.765
| 36> H 	 -56.3198 	 33.3791 	 109.945
| 37> H 	 -56.4973 	 34.8099 	 108.861
| 38> H 	 -57.7643 	 34.2442 	 109.84
| 39> H 	 -51.4346 	 39.7629 	 107.339
| 40> H 	 -54.7595 	 38.5729 	 114.871
| 41> *
| 42>
| 43>                          ****END OF INPUT****

CARTESIAN COORDINATES (ANGSTROEM)
---------------------------------
  S    -52.411300   39.936500  109.750000
  C    -51.899900   39.259300  108.187000
  C    -52.423000   37.979900  107.895000
  C    -53.199100   37.530100  109.020000
  C    -53.311600   38.416200  110.060000
  H    -53.728800   36.579700  109.081000
  C    -52.315400   37.248400  106.584000
  H    -52.217800   38.073200  105.835000
  H    -53.254000   36.760400  106.289000
  C    -51.124400   36.210200  106.451000
  H    -50.215800   36.683000  106.265000
  H    -51.119100   35.691400  107.446000
  C    -51.349000   35.138100  105.435000
  H    -52.361200   35.145300  105.004000
  H    -50.750600   35.464800  104.554000
  H    -51.061000   34.206500  105.847000
  S    -53.544500   38.935200  112.726000
  C    -54.686400   38.302000  113.812000
  C    -55.548600   37.553300  113.057000
  C    -55.270800   37.510600  111.610000
  C    -54.083900   38.179500  111.299000
  H    -56.366300   37.039600  113.529000
  C    -56.215200   36.725800  110.735000
  H    -56.091700   37.015500  109.686000
  H    -57.243800   37.009100  110.995000
  C    -56.061900   35.207100  110.910000
  H    -56.464300   34.813000  111.836000
  H    -54.962700   35.053200  110.906000
  C    -56.711400   34.372100  109.765000
  H    -56.319800   33.379100  109.945000
  H    -56.497300   34.809900  108.861000
  H    -57.764300   34.244200  109.840000
  H    -51.434600   39.762900  107.339000
  H    -54.759500   38.572900  114.871000

 Total Charge           Charge          ....    0
 Multiplicity           Mult            ....    1
 Number of Electrons    NEL             ....  134
 Basis Dimension        Dim             ....  322

ORBITAL ENERGIES
----------------

  NO   OCC          E(Eh)            E(eV)
   0   2.0000     -88.974571     -2421.1212
   1   2.0000     -88.957352     -2420.6526
   2   2.0000     -10.336416      -281.2682
   3   2.0000     -10.329103      -281.0692
   4   2.0000     -10.320106      -280.8244
   5   2.0000     -10.315145      -280.6894
   6   2.0000     -10.306466      -280.4532
   7   2.0000     -10.305960      -280.4394
   8   2.0000     -10.300708      -280.2965
   9   2.0000     -10.296081      -280.1706
  10   2.0000     -10.292614      -280.0763
  11   2.0000     -10.291208      -280.0380
  12   2.0000     -10.288369      -279.9608
  13   2.0000     -10.284941      -279.8675
  14   2.0000     -10.276331      -279.6332
  15   2.0000     -10.270630      -279.4781
  16   2.0000      -8.087548      -220.0734
  17   2.0000      -8.074333      -219.7138
  18   2.0000      -6.046242      -164.5266
  19   2.0000      -6.042473      -164.4240
  20   2.0000      -6.038030      -164.3031
  21   2.0000      -6.032822      -164.1614
  22   2.0000      -6.028262      -164.0373
  23   2.0000      -6.025222      -163.9546
  24   2.0000      -1.010140       -27.4873
  25   2.0000      -0.982035       -26.7225
  26   2.0000      -0.911172       -24.7942
  27   2.0000      -0.910080       -24.7645
  28   2.0000      -0.872166       -23.7328
  29   2.0000      -0.854539       -23.2532
  30   2.0000      -0.845398       -23.0045
  31   2.0000      -0.819302       -22.2943
  32   2.0000      -0.780394       -21.2356
  33   2.0000      -0.771927       -21.0052
  34   2.0000      -0.704680       -19.1753
  35   2.0000      -0.698831       -19.0162
  36   2.0000      -0.695572       -18.9275
  37   2.0000      -0.663166       -18.0457
  38   2.0000      -0.635053       -17.2807
  39   2.0000      -0.620293       -16.8790
  40   2.0000      -0.598443       -16.2845
  41   2.0000      -0.572602       -15.5813
  42   2.0000      -0.568735       -15.4761
  43   2.0000      -0.567226       -15.4350
  44   2.0000      -0.533607       -14.5202
  45   2.0000      -0.532946       -14.5022
  46   2.0000      -0.518601       -14.1119
  47   2.0000      -0.514268       -13.9939
  48   2.0000      -0.507887       -13.8203
  49   2.0000      -0.498125       -13.5547
  50   2.0000      -0.490624       -13.3506
  51   2.0000      -0.481432       -13.1004
  52   2.0000      -0.469577       -12.7778
  53   2.0000      -0.464474       -12.6390
  54   2.0000      -0.458537       -12.4774
  55   2.0000      -0.451550       -12.2873
  56   2.0000      -0.446425       -12.1478
  57   2.0000      -0.439552       -11.9608
  58   2.0000      -0.434602       -11.8261
  59   2.0000      -0.427641       -11.6367
  60   2.0000      -0.415717       -11.3122
  61   2.0000      -0.414908       -11.2902
  62   2.0000      -0.406576       -11.0635
  63   2.0000      -0.359141        -9.7727
  64   2.0000      -0.334212        -9.0944
  65   2.0000      -0.320574        -8.7233
  66   2.0000      -0.288982        -7.8636
  67   0.0000       0.027018         0.7352
  68   0.0000       0.079417         2.1610
  69   0.0000       0.098242         2.6733
  70   0.0000       0.118734         3.2309
  71   0.0000       0.128442         3.4951

MULLIKEN ATOMIC CHARGES
-----------------------
   0 S :    0.123459
   1 C :   -0.102580
   2 C :   -0.095453
   3 C :   -0.003238
   4 C :   -0.101471
   5 H :    0.007913
   6 C :    0.030632
   7 H :    0.024832
   8 H :    0.028222
   9 C :   -0.063007
  10 H :    0.025364
  11 H :    0.036698
  12 C :   -0.034770
  13 H :    0.027786
  14 H :    0.029433
  15 H :    0.040327
  16 S :    0.080629
  17 C :   -0.085917
  18 C :   -0.040924
  19 C :   -0.073068
  20 C :   -0.131411
  21 H :    0.012746
  22 C :    0.068882
  23 H :    0.020797
  24 H :    0.025357
  25 C :   -0.108614
  26 H :    0.028885
  27 H :    0.036884
  28 C :    0.005300
  29 H :    0.031810
  30 H :    0.011489
  31 H :    0.022959
  32 H :    0.045583
  33 H :    0.074466
Sum of atomic charges:    0.0000000

LOEWDIN ATOMIC CHARGES
----------------------
   0 S :    0.383048
   1 C :   -0.192462
   2 C :   -0.060272
   3 C :   -0.062544
   4 C :   -0.175274
   5 H :    0.031563
   6 C :   -0.036828
   7 H :    0.032688
   8 H :    0.030469
   9 C :   -0.035824
  10 H :    0.016617
  11 H :    0.030411
  12 C :   -0.065978
  13 H :    0.026016
  14 H :    0.032461
  15 H :    0.024507
  16 S :    0.436032
  17 C :   -0.205780
  18 C :   -0.073226
  19 C :   -0.062069
  20 C :   -0.210919
  21 H :    0.024925
  22 C :   -0.038599
  23 H :    0.027273
  24 H :    0.032123
  25 C :   -0.036462
  26 H :    0.022029
  27 H :    0.025316
  28 C :   -0.052893
  29 H :    0.030965
  30 H :    0.010313
  31 H :    0.021515
  32 H :    0.029755
  33 H :    0.041105

  Mayer bond orders larger than 0.100000
B(  0-S ,  1-C ) :   1.1265 B(  0-S ,  4-C ) :   1.1195 B(  1-C ,  2-C ) :   1.6390
B(  1-C , 32-H ) :   0.9549 B(  2-C ,  3-C ) :   1.2176 B(  2-C ,  6-C ) :   1.0308
B(  3-C ,  4-C ) :   1.6088 B(  3-C ,  5-H ) :   0.9920 B(  4-C , 20-C ) :   1.0462
B(  6-C ,  7-H ) :   0.9354 B(  6-C ,  8-H ) :   0.9479 B(  6-C ,  9-C ) :   1.0460
B(  9-C , 10-H ) :   0.9613 B(  9-C , 11-H ) :   0.9700 B(  9-C , 12-C ) :   1.0687
B( 12-C , 13-H ) :   0.9765 B( 12-C , 14-H ) :   0.9771 B( 12-C , 15-H ) :   0.9791
B( 16-S , 17-C ) :   1.1687 B( 16-S , 20-C ) :   1.1565 B( 17-C , 18-C ) :   1.5746
B( 17-C , 33-H ) :   0.9721 B( 18-C , 19-C ) :   1.2523 B( 18-C , 21-H ) :   0.9943
B( 19-C , 20-C ) :   1.5548 B( 19-C , 22-C ) :   1.0631 B( 22-C , 23-H ) :   0.9378
B( 22-C , 24-H ) :   0.9257 B( 22-C , 25-C ) :   1.0579 B( 25-C , 26-H ) :   0.9529
B( 25-C , 27-H ) :   0.9603 B( 25-C , 28-C ) :   1.0825 B( 28-C , 29-H ) :   0.9743
B( 28-C , 30-H ) :   0.9767 B( 28-C , 31-H ) :   0.9750

Dispersion correction           -0.013568117
FINAL SINGLE POINT ENERGY     -1339.866816674185

DIPOLE MOMENT
-------------
                                X             Y             Z
Electronic contribution:      6.07284      25.06671      19.87280
Nuclear contribution   :     -6.44928     -25.61794     -20.26242
                        -----------------------------------------
Total Dipole Moment    :     -0.37643      -0.55123      -0.38961
                        -----------------------------------------
Magnitude (a.u.)       :      0.77288
Magnitude (Debye)      :      1.96452

Rotational constants in cm-1:     0.016874     0.008823     0.006161
Rotational constants in MHz :   505.872863   264.500014   184.706698

                             ****ORCA TERMINATED NORMALLY****
TOTAL RUN TIME: 0 days 0 hours 0 minutes 29 seconds 585 msec
