                         Program Version 4.2.1 -  RELEASE  -
|  1> ! wB97X-D3 SP def2-SVP
|  2> %pal
|  3> nprocs 16
|  4> end
|  5>
|  6> * xyz 0 1
|  7> S 	 -6.13751 	 40.182 	 34.6564
|  8> C 	 -7.4537 	 40.2673 	 33.4961
|  9> C 	 -7.29465 	 41.4395 	 32.6837
| 10> C 	 -6.19215 	 42.323 	 33.105
| 11> C 	 -5.52713 	 41.7443 	 34.1491
| 12> H 	 -5.87813 	 43.3057 	 32.8109
| 13> C 	 -8.09573 	 41.7736 	 31.4432
| 14> H 	 -8.75584 	 42.601 	 31.6357
| 15> H 	 -8.65097 	 40.8912 	 31.1511
| 16> C 	 -7.231 	 42.1034 	 30.2191
| 17> H 	 -6.55545 	 42.9299 	 30.3611
| 18> H 	 -6.59403 	 41.2345 	 30.2096
| 19> C 	 -8.08126 	 42.2726 	 28.9737
| 20> H 	 -8.63071 	 43.2661 	 28.8725
| 21> H 	 -7.43102 	 42.2865 	 28.0897
| 22> H 	 -8.84836 	 41.4917 	 28.8764
| 23> S 	 -5.0875 	 43.2043 	 36.3919
| 24> C 	 -3.51032 	 43.8504 	 36.789
| 25> C 	 -2.62773 	 43.568 	 35.6983
| 26> C 	 -3.19948 	 42.8395 	 34.6557
| 27> C 	 -4.52924 	 42.493 	 34.9028
| 28> H 	 -1.57106 	 43.865 	 35.7218
| 29> C 	 -2.36005 	 42.5521 	 33.3931
| 30> H 	 -2.70697 	 41.5491 	 33.0193
| 31> H 	 -1.3333 	 42.5165 	 33.7236
| 32> C 	 -2.47621 	 43.568 	 32.2758
| 33> H 	 -2.0429 	 44.5266 	 32.5189
| 34> H 	 -3.54624 	 43.6122 	 32.0485
| 35> C 	 -1.70159 	 43.1224 	 30.9735
| 36> H 	 -0.642888 	 42.8303 	 31.1496
| 37> H 	 -1.66762 	 43.8979 	 30.1778
| 38> H 	 -2.26352 	 42.2526 	 30.5364
| 39> H 	 -8.20152 	 39.4981 	 33.3889
| 40> H 	 -3.19423 	 44.4542 	 37.5795
| 41> *
| 42>
| 43>                          ****END OF INPUT****

CARTESIAN COORDINATES (ANGSTROEM)
---------------------------------
  S     -6.137510   40.182000   34.656400
  C     -7.453700   40.267300   33.496100
  C     -7.294650   41.439500   32.683700
  C     -6.192150   42.323000   33.105000
  C     -5.527130   41.744300   34.149100
  H     -5.878130   43.305700   32.810900
  C     -8.095730   41.773600   31.443200
  H     -8.755840   42.601000   31.635700
  H     -8.650970   40.891200   31.151100
  C     -7.231000   42.103400   30.219100
  H     -6.555450   42.929900   30.361100
  H     -6.594030   41.234500   30.209600
  C     -8.081260   42.272600   28.973700
  H     -8.630710   43.266100   28.872500
  H     -7.431020   42.286500   28.089700
  H     -8.848360   41.491700   28.876400
  S     -5.087500   43.204300   36.391900
  C     -3.510320   43.850400   36.789000
  C     -2.627730   43.568000   35.698300
  C     -3.199480   42.839500   34.655700
  C     -4.529240   42.493000   34.902800
  H     -1.571060   43.865000   35.721800
  C     -2.360050   42.552100   33.393100
  H     -2.706970   41.549100   33.019300
  H     -1.333300   42.516500   33.723600
  C     -2.476210   43.568000   32.275800
  H     -2.042900   44.526600   32.518900
  H     -3.546240   43.612200   32.048500
  C     -1.701590   43.122400   30.973500
  H     -0.642888   42.830300   31.149600
  H     -1.667620   43.897900   30.177800
  H     -2.263520   42.252600   30.536400
  H     -8.201520   39.498100   33.388900
  H     -3.194230   44.454200   37.579500

 Total Charge           Charge          ....    0
 Multiplicity           Mult            ....    1
 Number of Electrons    NEL             ....  134
 Basis Dimension        Dim             ....  322

ORBITAL ENERGIES
----------------

  NO   OCC          E(Eh)            E(eV)
   0   2.0000     -88.968944     -2420.9680
   1   2.0000     -88.967909     -2420.9399
   2   2.0000     -10.327523      -281.0262
   3   2.0000     -10.323988      -280.9300
   4   2.0000     -10.323552      -280.9181
   5   2.0000     -10.316755      -280.7332
   6   2.0000     -10.313337      -280.6402
   7   2.0000     -10.300114      -280.2803
   8   2.0000     -10.298503      -280.2365
   9   2.0000     -10.293918      -280.1118
  10   2.0000     -10.293293      -280.0948
  11   2.0000     -10.289034      -279.9788
  12   2.0000     -10.287616      -279.9403
  13   2.0000     -10.287197      -279.9288
  14   2.0000     -10.285795      -279.8907
  15   2.0000     -10.283490      -279.8280
  16   2.0000      -8.083397      -219.9604
  17   2.0000      -8.082275      -219.9299
  18   2.0000      -6.041937      -164.4095
  19   2.0000      -6.040722      -164.3764
  20   2.0000      -6.037875      -164.2989
  21   2.0000      -6.036574      -164.2635
  22   2.0000      -6.034205      -164.1991
  23   2.0000      -6.033374      -164.1764
  24   2.0000      -1.005126       -27.3509
  25   2.0000      -0.979344       -26.6493
  26   2.0000      -0.914827       -24.8937
  27   2.0000      -0.906616       -24.6703
  28   2.0000      -0.868557       -23.6346
  29   2.0000      -0.848692       -23.0941
  30   2.0000      -0.846281       -23.0285
  31   2.0000      -0.810322       -22.0500
  32   2.0000      -0.777071       -21.1452
  33   2.0000      -0.767419       -20.8825
  34   2.0000      -0.707088       -19.2409
  35   2.0000      -0.697548       -18.9812
  36   2.0000      -0.689756       -18.7692
  37   2.0000      -0.663718       -18.0607
  38   2.0000      -0.651024       -17.7153
  39   2.0000      -0.615632       -16.7522
  40   2.0000      -0.588995       -16.0274
  41   2.0000      -0.573585       -15.6081
  42   2.0000      -0.571350       -15.5472
  43   2.0000      -0.562786       -15.3142
  44   2.0000      -0.525859       -14.3093
  45   2.0000      -0.518096       -14.0981
  46   2.0000      -0.516183       -14.0461
  47   2.0000      -0.508437       -13.8353
  48   2.0000      -0.507071       -13.7981
  49   2.0000      -0.499343       -13.5878
  50   2.0000      -0.493521       -13.4294
  51   2.0000      -0.476353       -12.9622
  52   2.0000      -0.470805       -12.8113
  53   2.0000      -0.468780       -12.7562
  54   2.0000      -0.458409       -12.4739
  55   2.0000      -0.450877       -12.2690
  56   2.0000      -0.444439       -12.0938
  57   2.0000      -0.433753       -11.8030
  58   2.0000      -0.432537       -11.7699
  59   2.0000      -0.424973       -11.5641
  60   2.0000      -0.423796       -11.5321
  61   2.0000      -0.414943       -11.2912
  62   2.0000      -0.412471       -11.2239
  63   2.0000      -0.342586        -9.3222
  64   2.0000      -0.329948        -8.9783
  65   2.0000      -0.317476        -8.6390
  66   2.0000      -0.304343        -8.2816
  67   0.0000       0.036880         1.0036
  68   0.0000       0.055903         1.5212
  69   0.0000       0.110724         3.0129
  70   0.0000       0.124116         3.3774
  71   0.0000       0.128052         3.4845

MULLIKEN ATOMIC CHARGES
-----------------------
   0 S :    0.122131
   1 C :   -0.117190
   2 C :   -0.095560
   3 C :    0.043746
   4 C :   -0.166490
   5 H :    0.028366
   6 C :    0.083933
   7 H :    0.033778
   8 H :    0.011648
   9 C :   -0.088207
  10 H :    0.028322
  11 H :    0.026714
  12 C :   -0.054085
  13 H :    0.039064
  14 H :    0.035128
  15 H :    0.031847
  16 S :    0.130928
  17 C :   -0.072729
  18 C :   -0.071825
  19 C :   -0.001092
  20 C :   -0.213964
  21 H :    0.023800
  22 C :    0.069811
  23 H :    0.035670
  24 H :    0.014336
  25 C :   -0.046362
  26 H :    0.028073
  27 H :    0.022901
  28 C :   -0.089067
  29 H :    0.038441
  30 H :    0.040269
  31 H :    0.037329
  32 H :    0.052811
  33 H :    0.037524
Sum of atomic charges:   -0.0000000

LOEWDIN ATOMIC CHARGES
----------------------
   0 S :    0.405121
   1 C :   -0.199460
   2 C :   -0.051244
   3 C :   -0.053520
   4 C :   -0.200991
   5 H :    0.033285
   6 C :   -0.032329
   7 H :    0.027290
   8 H :    0.026912
   9 C :   -0.042277
  10 H :    0.019522
  11 H :    0.025218
  12 C :   -0.070113
  13 H :    0.033302
  14 H :    0.028342
  15 H :    0.024935
  16 S :    0.429976
  17 C :   -0.188363
  18 C :   -0.073904
  19 C :   -0.061484
  20 C :   -0.209713
  21 H :    0.032053
  22 C :   -0.027156
  23 H :    0.036593
  24 H :    0.025573
  25 C :   -0.037055
  26 H :    0.021651
  27 H :    0.023465
  28 C :   -0.074455
  29 H :    0.026034
  30 H :    0.026902
  31 H :    0.028300
  32 H :    0.027751
  33 H :    0.019839

  Mayer bond orders larger than 0.100000
B(  0-S ,  1-C ) :   1.1274 B(  0-S ,  4-C ) :   1.1529 B(  1-C ,  2-C ) :   1.6132
B(  1-C , 32-H ) :   0.9732 B(  2-C ,  3-C ) :   1.1878 B(  2-C ,  6-C ) :   1.0404
B(  3-C ,  4-C ) :   1.6107 B(  3-C ,  5-H ) :   0.9837 B(  4-C , 20-C ) :   1.0127
B(  6-C ,  7-H ) :   0.9329 B(  6-C ,  8-H ) :   0.9441 B(  6-C ,  9-C ) :   1.0602
B(  9-C , 10-H ) :   0.9500 B(  9-C , 11-H ) :   0.9575 B(  9-C , 12-C ) :   1.0882
B( 12-C , 13-H ) :   0.9723 B( 12-C , 14-H ) :   0.9729 B( 12-C , 15-H ) :   0.9735
B( 16-S , 17-C ) :   1.1732 B( 16-S , 20-C ) :   1.1708 B( 17-C , 18-C ) :   1.5555
B( 17-C , 20-C ) :   0.1188 B( 17-C , 33-H ) :   0.9763 B( 18-C , 19-C ) :   1.3046
B( 18-C , 21-H ) :   0.9801 B( 19-C , 20-C ) :   1.5543 B( 19-C , 22-C ) :   1.0365
B( 22-C , 23-H ) :   0.9334 B( 22-C , 24-H ) :   0.9306 B( 22-C , 25-C ) :   1.0785
B( 25-C , 26-H ) :   0.9547 B( 25-C , 27-H ) :   0.9528 B( 25-C , 28-C ) :   1.0741
B( 28-C , 29-H ) :   0.9756 B( 28-C , 30-H ) :   0.9770 B( 28-C , 31-H ) :   0.9768

Dispersion correction           -0.014201162
FINAL SINGLE POINT ENERGY     -1339.878562144825

DIPOLE MOMENT
-------------
                                X             Y             Z
Electronic contribution:     -4.08579      -5.89577      30.33259
Nuclear contribution   :      4.19386       6.14647     -30.89664
                        -----------------------------------------
Total Dipole Moment    :      0.10807       0.25070      -0.56405
                        -----------------------------------------
Magnitude (a.u.)       :      0.62664
Magnitude (Debye)      :      1.59280

Rotational constants in cm-1:     0.016453     0.009377     0.006855
Rotational constants in MHz :   493.262622   281.111930   205.515547

                             ****ORCA TERMINATED NORMALLY****
TOTAL RUN TIME: 0 days 0 hours 0 minutes 33 seconds 840 msec
