                         Program Version 4.2.1 -  RELEASE  -
|  1> ! wB97X-D3 SP def2-SVP
|  2> %pal
|  3> nprocs 16
|  4> end
|  5>
|  6> * xyz 0 1
|  7> S 	 -30.6289 	 60.8757 	 111.244
|  8> C 	 -29.147 	 61.1148 	 110.38
|  9> C 	 -29.1858 	 60.3734 	 109.213
| 10> C 	 -30.3907 	 59.6849 	 109.048
| 11> C 	 -31.2774 	 59.7728 	 110.135
| 12> H 	 -30.6969 	 58.9696 	 108.222
| 13> C 	 -28.1086 	 60.434 	 108.127
| 14> H 	 -28.4379 	 59.6876 	 107.384
| 15> H 	 -27.1572 	 60.0316 	 108.528
| 16> C 	 -27.8419 	 61.7759 	 107.469
| 17> H 	 -28.7148 	 62.3428 	 107.206
| 18> H 	 -27.2505 	 62.4185 	 108.146
| 19> C 	 -27.0068 	 61.7127 	 106.183
| 20> H 	 -26.1676 	 61.0514 	 106.183
| 21> H 	 -27.5734 	 61.3881 	 105.272
| 22> H 	 -26.6239 	 62.6353 	 105.933
| 23> S 	 -34.0294 	 59.6701 	 109.934
| 24> C 	 -34.8053 	 58.1822 	 110.373
| 25> C 	 -33.9356 	 57.336 	 111.039
| 26> C 	 -32.5839 	 57.7636 	 111.058
| 27> C 	 -32.4922 	 59.0256 	 110.398
| 28> H 	 -34.3557 	 56.4811 	 111.523
| 29> C 	 -31.4481 	 57.0647 	 111.665
| 30> H 	 -31.5212 	 56.9004 	 112.78
| 31> H 	 -30.6435 	 57.7439 	 111.639
| 32> C 	 -30.9095 	 55.8225 	 110.922
| 33> H 	 -29.8581 	 55.5758 	 111.232
| 34> H 	 -30.7034 	 56.1464 	 109.937
| 35> C 	 -31.8811 	 54.623 	 111.006
| 36> H 	 -32.6065 	 54.5879 	 110.176
| 37> H 	 -32.2918 	 54.5092 	 112.035
| 38> H 	 -31.3542 	 53.7736 	 110.638
| 39> H 	 -28.3096 	 61.7499 	 110.61
| 40> H 	 -35.8325 	 58.0406 	 110.315
| 41> *
| 42>
| 43>                          ****END OF INPUT****

CARTESIAN COORDINATES (ANGSTROEM)
---------------------------------
  S    -30.628900   60.875700  111.244000
  C    -29.147000   61.114800  110.380000
  C    -29.185800   60.373400  109.213000
  C    -30.390700   59.684900  109.048000
  C    -31.277400   59.772800  110.135000
  H    -30.696900   58.969600  108.222000
  C    -28.108600   60.434000  108.127000
  H    -28.437900   59.687600  107.384000
  H    -27.157200   60.031600  108.528000
  C    -27.841900   61.775900  107.469000
  H    -28.714800   62.342800  107.206000
  H    -27.250500   62.418500  108.146000
  C    -27.006800   61.712700  106.183000
  H    -26.167600   61.051400  106.183000
  H    -27.573400   61.388100  105.272000
  H    -26.623900   62.635300  105.933000
  S    -34.029400   59.670100  109.934000
  C    -34.805300   58.182200  110.373000
  C    -33.935600   57.336000  111.039000
  C    -32.583900   57.763600  111.058000
  C    -32.492200   59.025600  110.398000
  H    -34.355700   56.481100  111.523000
  C    -31.448100   57.064700  111.665000
  H    -31.521200   56.900400  112.780000
  H    -30.643500   57.743900  111.639000
  C    -30.909500   55.822500  110.922000
  H    -29.858100   55.575800  111.232000
  H    -30.703400   56.146400  109.937000
  C    -31.881100   54.623000  111.006000
  H    -32.606500   54.587900  110.176000
  H    -32.291800   54.509200  112.035000
  H    -31.354200   53.773600  110.638000
  H    -28.309600   61.749900  110.610000
  H    -35.832500   58.040600  110.315000

 Total Charge           Charge          ....    0
 Multiplicity           Mult            ....    1
 Number of Electrons    NEL             ....  134
 Basis Dimension        Dim             ....  322

ORBITAL ENERGIES
----------------

  NO   OCC          E(Eh)            E(eV)
   0   2.0000     -88.967741     -2420.9353
   1   2.0000     -88.966458     -2420.9004
   2   2.0000     -10.324994      -280.9574
   3   2.0000     -10.322239      -280.8824
   4   2.0000     -10.310356      -280.5591
   5   2.0000     -10.310330      -280.5583
   6   2.0000     -10.303236      -280.3653
   7   2.0000     -10.296905      -280.1930
   8   2.0000     -10.295089      -280.1436
   9   2.0000     -10.294438      -280.1259
  10   2.0000     -10.289530      -279.9923
  11   2.0000     -10.287203      -279.9290
  12   2.0000     -10.284970      -279.8683
  13   2.0000     -10.283301      -279.8228
  14   2.0000     -10.277518      -279.6655
  15   2.0000     -10.271217      -279.4940
  16   2.0000      -8.082881      -219.9464
  17   2.0000      -8.081901      -219.9197
  18   2.0000      -6.041173      -164.3887
  19   2.0000      -6.040176      -164.3616
  20   2.0000      -6.037311      -164.2836
  21   2.0000      -6.035968      -164.2471
  22   2.0000      -6.033896      -164.1907
  23   2.0000      -6.033185      -164.1713
  24   2.0000      -1.011905       -27.5353
  25   2.0000      -0.988898       -26.9093
  26   2.0000      -0.911491       -24.8029
  27   2.0000      -0.909720       -24.7547
  28   2.0000      -0.870412       -23.6851
  29   2.0000      -0.848706       -23.0945
  30   2.0000      -0.848136       -23.0790
  31   2.0000      -0.813779       -22.1441
  32   2.0000      -0.787070       -21.4173
  33   2.0000      -0.774007       -21.0618
  34   2.0000      -0.708571       -19.2812
  35   2.0000      -0.705024       -19.1847
  36   2.0000      -0.695478       -18.9249
  37   2.0000      -0.657545       -17.8927
  38   2.0000      -0.640773       -17.4363
  39   2.0000      -0.614278       -16.7153
  40   2.0000      -0.597904       -16.2698
  41   2.0000      -0.572108       -15.5679
  42   2.0000      -0.560479       -15.2514
  43   2.0000      -0.556950       -15.1554
  44   2.0000      -0.537599       -14.6288
  45   2.0000      -0.526079       -14.3153
  46   2.0000      -0.518280       -14.1031
  47   2.0000      -0.515313       -14.0224
  48   2.0000      -0.504765       -13.7354
  49   2.0000      -0.493943       -13.4409
  50   2.0000      -0.488269       -13.2865
  51   2.0000      -0.481726       -13.1084
  52   2.0000      -0.473968       -12.8973
  53   2.0000      -0.464625       -12.6431
  54   2.0000      -0.459054       -12.4915
  55   2.0000      -0.447441       -12.1755
  56   2.0000      -0.442572       -12.0430
  57   2.0000      -0.439981       -11.9725
  58   2.0000      -0.436426       -11.8758
  59   2.0000      -0.420564       -11.4441
  60   2.0000      -0.419285       -11.4093
  61   2.0000      -0.411104       -11.1867
  62   2.0000      -0.408404       -11.1132
  63   2.0000      -0.336209        -9.1487
  64   2.0000      -0.331428        -9.0186
  65   2.0000      -0.315342        -8.5809
  66   2.0000      -0.310085        -8.4378
  67   0.0000       0.046340         1.2610
  68   0.0000       0.050341         1.3699
  69   0.0000       0.113078         3.0770
  70   0.0000       0.132107         3.5948
  71   0.0000       0.134324         3.6551

MULLIKEN ATOMIC CHARGES
-----------------------
   0 S :    0.137708
   1 C :   -0.116593
   2 C :   -0.094406
   3 C :    0.027733
   4 C :   -0.216784
   5 H :    0.032138
   6 C :    0.072428
   7 H :    0.018409
   8 H :    0.034474
   9 C :   -0.059054
  10 H :    0.033813
  11 H :    0.024981
  12 C :   -0.032378
  13 H :    0.014229
  14 H :    0.029190
  15 H :    0.010758
  16 S :    0.132870
  17 C :   -0.073871
  18 C :   -0.030648
  19 C :    0.017432
  20 C :   -0.195417
  21 H :    0.009618
  22 C :    0.067075
  23 H :    0.042461
  24 H :    0.000907
  25 C :   -0.056882
  26 H :    0.030168
  27 H :    0.004380
  28 C :   -0.036421
  29 H :    0.032893
  30 H :    0.049335
  31 H :    0.015941
  32 H :    0.041836
  33 H :    0.031677
Sum of atomic charges:    0.0000000

LOEWDIN ATOMIC CHARGES
----------------------
   0 S :    0.454070
   1 C :   -0.207049
   2 C :   -0.073319
   3 C :   -0.073997
   4 C :   -0.229221
   5 H :    0.041295
   6 C :   -0.033378
   7 H :    0.030420
   8 H :    0.035216
   9 C :   -0.039235
  10 H :    0.026450
  11 H :    0.024907
  12 C :   -0.062288
  13 H :    0.019090
  14 H :    0.029227
  15 H :    0.015464
  16 S :    0.432118
  17 C :   -0.182813
  18 C :   -0.063667
  19 C :   -0.043799
  20 C :   -0.217196
  21 H :    0.028337
  22 C :   -0.042364
  23 H :    0.039437
  24 H :    0.025237
  25 C :   -0.035514
  26 H :    0.028945
  27 H :    0.018185
  28 C :   -0.077337
  29 H :    0.032698
  30 H :    0.031435
  31 H :    0.024747
  32 H :    0.029450
  33 H :    0.014449

  Mayer bond orders larger than 0.100000
B(  0-S ,  1-C ) :   1.1670 B(  0-S ,  4-C ) :   1.1958 B(  1-C ,  2-C ) :   1.5524
B(  1-C ,  4-C ) :   0.1119 B(  1-C , 32-H ) :   0.9772 B(  2-C ,  3-C ) :   1.3021
B(  2-C ,  6-C ) :   1.0170 B(  3-C ,  4-C ) :   1.5349 B(  3-C ,  5-H ) :   0.9830
B(  4-C , 20-C ) :   1.0027 B(  6-C ,  7-H ) :   0.9470 B(  6-C ,  8-H ) :   0.9312
B(  6-C ,  9-C ) :   1.0682 B(  9-C , 10-H ) :   0.9586 B(  9-C , 11-H ) :   0.9517
B(  9-C , 12-C ) :   1.0872 B( 12-C , 13-H ) :   0.9739 B( 12-C , 14-H ) :   0.9739
B( 12-C , 15-H ) :   0.9732 B( 16-S , 17-C ) :   1.1660 B( 16-S , 20-C ) :   1.1809
B( 17-C , 18-C ) :   1.5836 B( 17-C , 20-C ) :   0.1087 B( 17-C , 33-H ) :   0.9756
B( 18-C , 19-C ) :   1.2581 B( 18-C , 21-H ) :   0.9935 B( 19-C , 20-C ) :   1.5437
B( 19-C , 22-C ) :   1.0619 B( 22-C , 23-H ) :   0.9348 B( 22-C , 24-H ) :   0.9022
B( 22-C , 25-C ) :   1.0814 B( 25-C , 26-H ) :   0.9575 B( 25-C , 27-H ) :   0.9449
B( 25-C , 28-C ) :   1.0772 B( 28-C , 29-H ) :   0.9669 B( 28-C , 30-H ) :   0.9753
B( 28-C , 31-H ) :   0.9656

Dispersion correction           -0.014461821
FINAL SINGLE POINT ENERGY     -1339.871978031812

DIPOLE MOMENT
-------------
                                X             Y             Z
Electronic contribution:    -18.62188      11.12940      10.63299
Nuclear contribution   :     18.97602     -11.43240     -10.81851
                        -----------------------------------------
Total Dipole Moment    :      0.35414      -0.30301      -0.18552
                        -----------------------------------------
Magnitude (a.u.)       :      0.50164
Magnitude (Debye)      :      1.27508

Rotational constants in cm-1:     0.021364     0.007310     0.006470
Rotational constants in MHz :   640.463491   219.155832   193.979394

                             ****ORCA TERMINATED NORMALLY****
TOTAL RUN TIME: 0 days 0 hours 0 minutes 29 seconds 346 msec
