                         Program Version 4.2.1 -  RELEASE  -
|  1> ! wB97X-D3 SP def2-SVP
|  2> %pal
|  3> nprocs 16
|  4> end
|  5>
|  6> * xyz 0 1
|  7> S 	 5.83807 	 21.8563 	 56.3365
|  8> C 	 6.44557 	 20.9548 	 54.9523
|  9> C 	 6.55774 	 19.5883 	 55.1884
| 10> C 	 6.02061 	 19.2358 	 56.4343
| 11> C 	 5.64497 	 20.3593 	 57.2222
| 12> H 	 5.99713 	 18.3158 	 56.9677
| 13> C 	 7.12329 	 18.5714 	 54.2194
| 14> H 	 6.53284 	 18.5014 	 53.2903
| 15> H 	 7.15838 	 17.624 	 54.7344
| 16> C 	 8.45414 	 18.9582 	 53.7372
| 17> H 	 8.83714 	 18.1928 	 53.0694
| 18> H 	 8.56682 	 19.8419 	 53.0544
| 19> C 	 9.45388 	 18.9562 	 54.8644
| 20> H 	 9.63664 	 17.9424 	 55.1901
| 21> H 	 10.4263 	 19.3219 	 54.4256
| 22> H 	 9.24098 	 19.6377 	 55.7063
| 23> S 	 5.95896 	 19.5383 	 59.8541
| 24> C 	 4.59032 	 19.6154 	 60.9391
| 25> C 	 3.47113 	 20.1539 	 60.2821
| 26> C 	 3.66471 	 20.4145 	 58.9324
| 27> C 	 5.02379 	 20.2616 	 58.5606
| 28> H 	 2.6208 	 20.2547 	 60.9063
| 29> C 	 2.59648 	 20.9032 	 58.0263
| 30> H 	 2.81576 	 20.9593 	 57.0008
| 31> H 	 2.42757 	 21.935 	 58.2646
| 32> C 	 1.2446 	 20.1671 	 58.1639
| 33> H 	 0.509825 	 20.7164 	 57.5554
| 34> H 	 0.925329 	 20.1877 	 59.2293
| 35> C 	 1.44906 	 18.7243 	 57.7195
| 36> H 	 0.505168 	 18.1898 	 57.6441
| 37> H 	 2.22987 	 18.2428 	 58.3784
| 38> H 	 1.77693 	 18.6688 	 56.6765
| 39> H 	 6.71101 	 21.352 	 54.0029
| 40> H 	 4.59286 	 19.2375 	 61.9521
| 41> *
| 42>
| 43>                          ****END OF INPUT****

CARTESIAN COORDINATES (ANGSTROEM)
---------------------------------
  S      5.838070   21.856300   56.336500
  C      6.445570   20.954800   54.952300
  C      6.557740   19.588300   55.188400
  C      6.020610   19.235800   56.434300
  C      5.644970   20.359300   57.222200
  H      5.997130   18.315800   56.967700
  C      7.123290   18.571400   54.219400
  H      6.532840   18.501400   53.290300
  H      7.158380   17.624000   54.734400
  C      8.454140   18.958200   53.737200
  H      8.837140   18.192800   53.069400
  H      8.566820   19.841900   53.054400
  C      9.453880   18.956200   54.864400
  H      9.636640   17.942400   55.190100
  H     10.426300   19.321900   54.425600
  H      9.240980   19.637700   55.706300
  S      5.958960   19.538300   59.854100
  C      4.590320   19.615400   60.939100
  C      3.471130   20.153900   60.282100
  C      3.664710   20.414500   58.932400
  C      5.023790   20.261600   58.560600
  H      2.620800   20.254700   60.906300
  C      2.596480   20.903200   58.026300
  H      2.815760   20.959300   57.000800
  H      2.427570   21.935000   58.264600
  C      1.244600   20.167100   58.163900
  H      0.509825   20.716400   57.555400
  H      0.925329   20.187700   59.229300
  C      1.449060   18.724300   57.719500
  H      0.505168   18.189800   57.644100
  H      2.229870   18.242800   58.378400
  H      1.776930   18.668800   56.676500
  H      6.711010   21.352000   54.002900
  H      4.592860   19.237500   61.952100

 Total Charge           Charge          ....    0
 Multiplicity           Mult            ....    1
 Number of Electrons    NEL             ....  134
 Basis Dimension        Dim             ....  322

ORBITAL ENERGIES
----------------

  NO   OCC          E(Eh)            E(eV)
   0   2.0000     -88.972371     -2421.0613
   1   2.0000     -88.967858     -2420.9385
   2   2.0000     -10.329459      -281.0789
   3   2.0000     -10.325972      -280.9840
   4   2.0000     -10.318677      -280.7855
   5   2.0000     -10.310897      -280.5738
   6   2.0000     -10.302545      -280.3465
   7   2.0000     -10.298170      -280.2275
   8   2.0000     -10.291312      -280.0408
   9   2.0000     -10.291004      -280.0325
  10   2.0000     -10.288444      -279.9628
  11   2.0000     -10.286700      -279.9153
  12   2.0000     -10.281200      -279.7657
  13   2.0000     -10.278492      -279.6920
  14   2.0000     -10.274042      -279.5709
  15   2.0000     -10.272819      -279.5376
  16   2.0000      -8.086077      -220.0333
  17   2.0000      -8.082186      -219.9275
  18   2.0000      -6.044441      -164.4776
  19   2.0000      -6.040661      -164.3747
  20   2.0000      -6.040486      -164.3700
  21   2.0000      -6.037138      -164.2789
  22   2.0000      -6.036615      -164.2646
  23   2.0000      -6.033348      -164.1757
  24   2.0000      -1.002777       -27.2869
  25   2.0000      -0.983371       -26.7589
  26   2.0000      -0.923693       -25.1350
  27   2.0000      -0.912440       -24.8288
  28   2.0000      -0.863193       -23.4887
  29   2.0000      -0.851008       -23.1571
  30   2.0000      -0.845343       -23.0030
  31   2.0000      -0.808185       -21.9918
  32   2.0000      -0.784083       -21.3360
  33   2.0000      -0.771948       -21.0058
  34   2.0000      -0.704995       -19.1839
  35   2.0000      -0.696189       -18.9443
  36   2.0000      -0.693643       -18.8750
  37   2.0000      -0.653978       -17.7956
  38   2.0000      -0.640365       -17.4252
  39   2.0000      -0.614386       -16.7183
  40   2.0000      -0.599810       -16.3216
  41   2.0000      -0.579535       -15.7700
  42   2.0000      -0.558271       -15.1913
  43   2.0000      -0.555158       -15.1066
  44   2.0000      -0.544130       -14.8065
  45   2.0000      -0.535509       -14.5719
  46   2.0000      -0.520481       -14.1630
  47   2.0000      -0.513704       -13.9786
  48   2.0000      -0.496377       -13.5071
  49   2.0000      -0.487495       -13.2654
  50   2.0000      -0.482498       -13.1294
  51   2.0000      -0.477620       -12.9967
  52   2.0000      -0.471838       -12.8394
  53   2.0000      -0.467140       -12.7115
  54   2.0000      -0.460411       -12.5284
  55   2.0000      -0.444105       -12.0847
  56   2.0000      -0.441279       -12.0078
  57   2.0000      -0.436527       -11.8785
  58   2.0000      -0.429062       -11.6754
  59   2.0000      -0.424059       -11.5392
  60   2.0000      -0.420023       -11.4294
  61   2.0000      -0.416076       -11.3220
  62   2.0000      -0.410981       -11.1834
  63   2.0000      -0.337516        -9.1843
  64   2.0000      -0.333516        -9.0754
  65   2.0000      -0.323534        -8.8038
  66   2.0000      -0.294157        -8.0044
  67   0.0000       0.032117         0.8740
  68   0.0000       0.059096         1.6081
  69   0.0000       0.115777         3.1505
  70   0.0000       0.117029         3.1845
  71   0.0000       0.131309         3.5731

MULLIKEN ATOMIC CHARGES
-----------------------
   0 S :    0.132082
   1 C :   -0.110854
   2 C :   -0.090512
   3 C :    0.045817
   4 C :   -0.195740
   5 H :    0.002148
   6 C :    0.136496
   7 H :    0.039706
   8 H :    0.014672
   9 C :   -0.106265
  10 H :    0.016803
  11 H :    0.033558
  12 C :   -0.065502
  13 H :    0.026291
  14 H :    0.025707
  15 H :    0.054966
  16 S :    0.115525
  17 C :   -0.115332
  18 C :   -0.032418
  19 C :   -0.006615
  20 C :   -0.179595
  21 H :    0.010028
  22 C :    0.105784
  23 H :    0.007388
  24 H :    0.027482
  25 C :   -0.100393
  26 H :    0.031665
  27 H :    0.033576
  28 C :   -0.056583
  29 H :    0.029884
  30 H :    0.059183
  31 H :    0.023528
  32 H :    0.027432
  33 H :    0.060090
Sum of atomic charges:   -0.0000000

LOEWDIN ATOMIC CHARGES
----------------------
   0 S :    0.418063
   1 C :   -0.194178
   2 C :   -0.061189
   3 C :   -0.058037
   4 C :   -0.201180
   5 H :    0.025812
   6 C :   -0.028379
   7 H :    0.039074
   8 H :    0.030929
   9 C :   -0.056215
  10 H :    0.025369
  11 H :    0.027032
  12 C :   -0.067166
  13 H :    0.021666
  14 H :    0.029257
  15 H :    0.028202
  16 S :    0.417024
  17 C :   -0.187451
  18 C :   -0.069892
  19 C :   -0.051511
  20 C :   -0.209266
  21 H :    0.027435
  22 C :   -0.030976
  23 H :    0.021864
  24 H :    0.033553
  25 C :   -0.038767
  26 H :    0.025635
  27 H :    0.022493
  28 C :   -0.072825
  29 H :    0.023303
  30 H :    0.036900
  31 H :    0.025212
  32 H :    0.019137
  33 H :    0.029073

  Mayer bond orders larger than 0.100000
B(  0-S ,  1-C ) :   1.1506 B(  0-S ,  4-C ) :   1.1638 B(  1-C ,  2-C ) :   1.5790
B(  1-C ,  4-C ) :   0.1074 B(  1-C , 32-H ) :   0.9709 B(  2-C ,  3-C ) :   1.2597
B(  2-C ,  6-C ) :   1.0165 B(  3-C ,  4-C ) :   1.5558 B(  3-C ,  5-H ) :   0.9937
B(  4-C , 20-C ) :   1.0133 B(  6-C ,  7-H ) :   0.9279 B(  6-C ,  8-H ) :   0.9380
B(  6-C ,  9-C ) :   1.0901 B(  9-C , 10-H ) :   0.9470 B(  9-C , 11-H ) :   0.9517
B(  9-C , 12-C ) :   1.0764 B( 12-C , 13-H ) :   0.9748 B( 12-C , 14-H ) :   0.9719
B( 12-C , 15-H ) :   0.9754 B( 16-S , 17-C ) :   1.1781 B( 16-S , 20-C ) :   1.1612
B( 17-C , 18-C ) :   1.5684 B( 17-C , 20-C ) :   0.1128 B( 17-C , 33-H ) :   0.9680
B( 18-C , 19-C ) :   1.2601 B( 18-C , 21-H ) :   0.9993 B( 19-C , 20-C ) :   1.5355
B( 19-C , 22-C ) :   1.0480 B( 22-C , 23-H ) :   0.9295 B( 22-C , 24-H ) :   0.9253
B( 22-C , 25-C ) :   1.0761 B( 25-C , 26-H ) :   0.9540 B( 25-C , 27-H ) :   0.9540
B( 25-C , 28-C ) :   1.0768 B( 28-C , 29-H ) :   0.9730 B( 28-C , 30-H ) :   0.9700
B( 28-C , 31-H ) :   0.9718

Dispersion correction           -0.015144785
FINAL SINGLE POINT ENERGY     -1339.879131400867

DIPOLE MOMENT
-------------
                                X             Y             Z
Electronic contribution:      3.78424       9.70621      12.43153
Nuclear contribution   :     -4.01310      -9.98246     -12.70704
                        -----------------------------------------
Total Dipole Moment    :     -0.22885      -0.27625      -0.27551
                        -----------------------------------------
Magnitude (a.u.)       :      0.45232
Magnitude (Debye)      :      1.14971

Rotational constants in cm-1:     0.022633     0.008017     0.007151
Rotational constants in MHz :   678.520250   240.342263   214.372958

                             ****ORCA TERMINATED NORMALLY****
TOTAL RUN TIME: 0 days 0 hours 0 minutes 36 seconds 47 msec
