                         Program Version 4.2.1 -  RELEASE  -
|  1> ! wB97X-D3 SP def2-SVP
|  2> %pal
|  3> nprocs 16
|  4> end
|  5>
|  6> * xyz 0 1
|  7> S 	 -38.418 	 26.2439 	 76.5067
|  8> C 	 -37.256 	 26.429 	 75.2397
|  9> C 	 -36.4146 	 27.4488 	 75.554
| 10> C 	 -36.6542 	 28.0093 	 76.8864
| 11> C 	 -37.6582 	 27.3683 	 77.5802
| 12> H 	 -36.1488 	 28.7592 	 77.419
| 13> C 	 -35.428 	 28.0283 	 74.6382
| 14> H 	 -34.9749 	 27.1579 	 74.1955
| 15> H 	 -34.6549 	 28.4993 	 75.2037
| 16> C 	 -35.941 	 28.8853 	 73.5417
| 17> H 	 -36.1951 	 28.1794 	 72.7223
| 18> H 	 -36.9271 	 29.3111 	 73.8768
| 19> C 	 -35.1167 	 29.9578 	 72.8651
| 20> H 	 -34.7404 	 30.6061 	 73.6691
| 21> H 	 -34.3011 	 29.4199 	 72.3598
| 22> H 	 -35.665 	 30.5688 	 72.1529
| 23> S 	 -38.3893 	 26.1819 	 79.9401
| 24> C 	 -39.11 	 27.1692 	 81.1815
| 25> C 	 -39.1241 	 28.5062 	 80.8854
| 26> C 	 -38.4999 	 28.7497 	 79.6244
| 27> C 	 -38.1839 	 27.6061 	 78.9067
| 28> H 	 -39.6141 	 29.2227 	 81.4371
| 29> C 	 -38.4166 	 30.1742 	 79.0668
| 30> H 	 -39.3361 	 30.6569 	 79.1359
| 31> H 	 -38.3961 	 30.1422 	 77.9482
| 32> C 	 -37.3833 	 31.1913 	 79.5979
| 33> H 	 -37.548 	 31.4922 	 80.5719
| 34> H 	 -37.645 	 32.095 	 79.0478
| 35> C 	 -35.9452 	 30.8206 	 79.4135
| 36> H 	 -35.6834 	 30.8158 	 78.3465
| 37> H 	 -35.6693 	 29.8588 	 79.9367
| 38> H 	 -35.361 	 31.5742 	 79.8399
| 39> H 	 -37.2193 	 25.982 	 74.2999
| 40> H 	 -39.5148 	 26.9032 	 82.1689
| 41> *
| 42>
| 43>                          ****END OF INPUT****

CARTESIAN COORDINATES (ANGSTROEM)
---------------------------------
  S    -38.418000   26.243900   76.506700
  C    -37.256000   26.429000   75.239700
  C    -36.414600   27.448800   75.554000
  C    -36.654200   28.009300   76.886400
  C    -37.658200   27.368300   77.580200
  H    -36.148800   28.759200   77.419000
  C    -35.428000   28.028300   74.638200
  H    -34.974900   27.157900   74.195500
  H    -34.654900   28.499300   75.203700
  C    -35.941000   28.885300   73.541700
  H    -36.195100   28.179400   72.722300
  H    -36.927100   29.311100   73.876800
  C    -35.116700   29.957800   72.865100
  H    -34.740400   30.606100   73.669100
  H    -34.301100   29.419900   72.359800
  H    -35.665000   30.568800   72.152900
  S    -38.389300   26.181900   79.940100
  C    -39.110000   27.169200   81.181500
  C    -39.124100   28.506200   80.885400
  C    -38.499900   28.749700   79.624400
  C    -38.183900   27.606100   78.906700
  H    -39.614100   29.222700   81.437100
  C    -38.416600   30.174200   79.066800
  H    -39.336100   30.656900   79.135900
  H    -38.396100   30.142200   77.948200
  C    -37.383300   31.191300   79.597900
  H    -37.548000   31.492200   80.571900
  H    -37.645000   32.095000   79.047800
  C    -35.945200   30.820600   79.413500
  H    -35.683400   30.815800   78.346500
  H    -35.669300   29.858800   79.936700
  H    -35.361000   31.574200   79.839900
  H    -37.219300   25.982000   74.299900
  H    -39.514800   26.903200   82.168900

 Total Charge           Charge          ....    0
 Multiplicity           Mult            ....    1
 Number of Electrons    NEL             ....  134
 Basis Dimension        Dim             ....  322

ORBITAL ENERGIES
----------------

  NO   OCC          E(Eh)            E(eV)
   0   2.0000     -88.967965     -2420.9414
   1   2.0000     -88.960963     -2420.7509
   2   2.0000     -10.328469      -281.0519
   3   2.0000     -10.326051      -280.9861
   4   2.0000     -10.317944      -280.7655
   5   2.0000     -10.305555      -280.4284
   6   2.0000     -10.304924      -280.4112
   7   2.0000     -10.296877      -280.1923
   8   2.0000     -10.288905      -279.9753
   9   2.0000     -10.287170      -279.9281
  10   2.0000     -10.287030      -279.9243
  11   2.0000     -10.283447      -279.8268
  12   2.0000     -10.280977      -279.7596
  13   2.0000     -10.280166      -279.7375
  14   2.0000     -10.279143      -279.7097
  15   2.0000     -10.275089      -279.5994
  16   2.0000      -8.082373      -219.9326
  17   2.0000      -8.076471      -219.7719
  18   2.0000      -6.040985      -164.3836
  19   2.0000      -6.036918      -164.2729
  20   2.0000      -6.035100      -164.2234
  21   2.0000      -6.033031      -164.1671
  22   2.0000      -6.030706      -164.1039
  23   2.0000      -6.027202      -164.0085
  24   2.0000      -1.009836       -27.4790
  25   2.0000      -0.987726       -26.8774
  26   2.0000      -0.922335       -25.0980
  27   2.0000      -0.910555       -24.7775
  28   2.0000      -0.875525       -23.8242
  29   2.0000      -0.854064       -23.2403
  30   2.0000      -0.847549       -23.0630
  31   2.0000      -0.821708       -22.3598
  32   2.0000      -0.788116       -21.4457
  33   2.0000      -0.778072       -21.1724
  34   2.0000      -0.711783       -19.3686
  35   2.0000      -0.698338       -19.0027
  36   2.0000      -0.693233       -18.8638
  37   2.0000      -0.665624       -18.1126
  38   2.0000      -0.647326       -17.6146
  39   2.0000      -0.616976       -16.7888
  40   2.0000      -0.596364       -16.2279
  41   2.0000      -0.577746       -15.7213
  42   2.0000      -0.567521       -15.4430
  43   2.0000      -0.554672       -15.0934
  44   2.0000      -0.548686       -14.9305
  45   2.0000      -0.529572       -14.4104
  46   2.0000      -0.523312       -14.2401
  47   2.0000      -0.517866       -14.0918
  48   2.0000      -0.507645       -13.8137
  49   2.0000      -0.502948       -13.6859
  50   2.0000      -0.496168       -13.5014
  51   2.0000      -0.484810       -13.1923
  52   2.0000      -0.470095       -12.7919
  53   2.0000      -0.464781       -12.6473
  54   2.0000      -0.460301       -12.5254
  55   2.0000      -0.455658       -12.3991
  56   2.0000      -0.449714       -12.2373
  57   2.0000      -0.439084       -11.9481
  58   2.0000      -0.428378       -11.6568
  59   2.0000      -0.420442       -11.4408
  60   2.0000      -0.411778       -11.2050
  61   2.0000      -0.410952       -11.1826
  62   2.0000      -0.404301       -11.0016
  63   2.0000      -0.350389        -9.5346
  64   2.0000      -0.333488        -9.0747
  65   2.0000      -0.323181        -8.7942
  66   2.0000      -0.295715        -8.0468
  67   0.0000       0.030523         0.8306
  68   0.0000       0.074996         2.0408
  69   0.0000       0.118409         3.2221
  70   0.0000       0.122588         3.3358
  71   0.0000       0.126658         3.4465

MULLIKEN ATOMIC CHARGES
-----------------------
   0 S :    0.107194
   1 C :   -0.075361
   2 C :   -0.126801
   3 C :    0.066724
   4 C :   -0.144266
   5 H :   -0.046827
   6 C :    0.131569
   7 H :    0.015295
   8 H :    0.004132
   9 C :   -0.114693
  10 H :    0.018807
  11 H :    0.034543
  12 C :   -0.026941
  13 H :    0.030219
  14 H :    0.033120
  15 H :    0.041747
  16 S :    0.118562
  17 C :   -0.072968
  18 C :   -0.010026
  19 C :   -0.004115
  20 C :   -0.164858
  21 H :   -0.010585
  22 C :    0.030754
  23 H :    0.003051
  24 H :    0.024840
  25 C :   -0.032474
  26 H :    0.003149
  27 H :    0.017746
  28 C :   -0.038450
  29 H :    0.038567
  30 H :    0.054645
  31 H :    0.015971
  32 H :    0.019814
  33 H :    0.057918
Sum of atomic charges:   -0.0000000

LOEWDIN ATOMIC CHARGES
----------------------
   0 S :    0.419053
   1 C :   -0.193277
   2 C :   -0.057759
   3 C :   -0.059894
   4 C :   -0.198723
   5 H :    0.018942
   6 C :   -0.038395
   7 H :    0.033086
   8 H :    0.024214
   9 C :   -0.053175
  10 H :    0.023831
  11 H :    0.025677
  12 C :   -0.061427
  13 H :    0.024475
  14 H :    0.027462
  15 H :    0.029847
  16 S :    0.406355
  17 C :   -0.185439
  18 C :   -0.062112
  19 C :   -0.049282
  20 C :   -0.195071
  21 H :    0.019908
  22 C :   -0.037753
  23 H :    0.023182
  24 H :    0.036014
  25 C :   -0.034358
  26 H :    0.011592
  27 H :    0.029239
  28 C :   -0.065816
  29 H :    0.025372
  30 H :    0.036489
  31 H :    0.019755
  32 H :    0.021232
  33 H :    0.036754

  Mayer bond orders larger than 0.100000
B(  0-S ,  1-C ) :   1.1256 B(  0-S ,  4-C ) :   1.1604 B(  1-C ,  2-C ) :   1.6148
B(  1-C , 32-H ) :   0.9797 B(  2-C ,  3-C ) :   1.2066 B(  2-C ,  6-C ) :   1.0454
B(  3-C ,  4-C ) :   1.5761 B(  3-C ,  5-H ) :   1.0109 B(  4-C , 20-C ) :   1.0347
B(  6-C ,  7-H ) :   0.9253 B(  6-C ,  8-H ) :   0.9335 B(  6-C ,  9-C ) :   1.0488
B(  9-C , 10-H ) :   0.9507 B(  9-C , 11-H ) :   0.9613 B(  9-C , 12-C ) :   1.0894
B( 12-C , 13-H ) :   0.9750 B( 12-C , 14-H ) :   0.9747 B( 12-C , 15-H ) :   0.9724
B( 16-S , 17-C ) :   1.1489 B( 16-S , 20-C ) :   1.1272 B( 17-C , 18-C ) :   1.6204
B( 17-C , 33-H ) :   0.9595 B( 18-C , 19-C ) :   1.2315 B( 18-C , 21-H ) :   1.0014
B( 19-C , 20-C ) :   1.6031 B( 19-C , 22-C ) :   1.0367 B( 22-C , 23-H ) :   0.9311
B( 22-C , 24-H ) :   0.9373 B( 22-C , 25-C ) :   1.0775 B( 25-C , 26-H ) :   0.9537
B( 25-C , 27-H ) :   0.9458 B( 25-C , 28-C ) :   1.0951 B( 28-C , 29-H ) :   0.9642
B( 28-C , 30-H ) :   0.9697 B( 28-C , 31-H ) :   0.9646

Dispersion correction           -0.014547796
FINAL SINGLE POINT ENERGY     -1339.864173987547

DIPOLE MOMENT
-------------
                                X             Y             Z
Electronic contribution:    -14.08398     -24.02793      12.36630
Nuclear contribution   :     14.23338      24.78377     -12.43008
                        -----------------------------------------
Total Dipole Moment    :      0.14940       0.75584      -0.06378
                        -----------------------------------------
Magnitude (a.u.)       :      0.77310
Magnitude (Debye)      :      1.96506

Rotational constants in cm-1:     0.019938     0.008802     0.006545
Rotational constants in MHz :   597.711991   263.869313   196.209772

                             ****ORCA TERMINATED NORMALLY****
TOTAL RUN TIME: 0 days 0 hours 0 minutes 30 seconds 519 msec
