                         Program Version 4.2.1 -  RELEASE  -
|  1> ! wB97X-D3 SP def2-SVP
|  2> %pal
|  3> nprocs 16
|  4> end
|  5>
|  6> * xyz 0 1
|  7> S 	 -91.144 	 57.1232 	 126.213
|  8> C 	 -90.1537 	 56.9013 	 127.592
|  9> C 	 -88.8121 	 56.7454 	 127.261
| 10> C 	 -88.5339 	 56.9271 	 125.869
| 11> C 	 -89.6891 	 57.0167 	 125.13
| 12> H 	 -87.5316 	 56.9304 	 125.541
| 13> C 	 -87.6673 	 56.6013 	 128.26
| 14> H 	 -86.9544 	 55.8461 	 127.829
| 15> H 	 -88.0104 	 56.1085 	 129.189
| 16> C 	 -86.974 	 57.8796 	 128.61
| 17> H 	 -86.2561 	 58.1252 	 127.779
| 18> H 	 -87.717 	 58.7166 	 128.692
| 19> C 	 -86.0696 	 57.7155 	 129.866
| 20> H 	 -85.593 	 56.7242 	 129.952
| 21> H 	 -85.2882 	 58.4785 	 129.805
| 22> H 	 -86.5974 	 57.8845 	 130.818
| 23> S 	 -90.8723 	 58.4658 	 123.025
| 24> C 	 -90.2116 	 58.2711 	 121.426
| 25> C 	 -89.3765 	 57.1055 	 121.33
| 26> C 	 -89.2132 	 56.4704 	 122.654
| 27> C 	 -89.7974 	 57.2321 	 123.688
| 28> H 	 -88.9413 	 56.9279 	 120.375
| 29> C 	 -88.3423 	 55.1559 	 122.737
| 30> H 	 -87.9095 	 55.1111 	 123.752
| 31> H 	 -87.4902 	 55.2983 	 122.12
| 32> C 	 -88.9604 	 53.8332 	 122.375
| 33> H 	 -89.5533 	 53.8879 	 121.43
| 34> H 	 -89.6218 	 53.5769 	 123.175
| 35> C 	 -88.0301 	 52.727 	 122.175
| 36> H 	 -87.425 	 52.8718 	 121.262
| 37> H 	 -88.6325 	 51.7887 	 122.057
| 38> H 	 -87.4033 	 52.4142 	 123.021
| 39> H 	 -90.5055 	 57.1515 	 128.556
| 40> H 	 -90.5187 	 58.8201 	 120.587
| 41> *
| 42>
| 43>                          ****END OF INPUT****

CARTESIAN COORDINATES (ANGSTROEM)
---------------------------------
  S    -91.144000   57.123200  126.213000
  C    -90.153700   56.901300  127.592000
  C    -88.812100   56.745400  127.261000
  C    -88.533900   56.927100  125.869000
  C    -89.689100   57.016700  125.130000
  H    -87.531600   56.930400  125.541000
  C    -87.667300   56.601300  128.260000
  H    -86.954400   55.846100  127.829000
  H    -88.010400   56.108500  129.189000
  C    -86.974000   57.879600  128.610000
  H    -86.256100   58.125200  127.779000
  H    -87.717000   58.716600  128.692000
  C    -86.069600   57.715500  129.866000
  H    -85.593000   56.724200  129.952000
  H    -85.288200   58.478500  129.805000
  H    -86.597400   57.884500  130.818000
  S    -90.872300   58.465800  123.025000
  C    -90.211600   58.271100  121.426000
  C    -89.376500   57.105500  121.330000
  C    -89.213200   56.470400  122.654000
  C    -89.797400   57.232100  123.688000
  H    -88.941300   56.927900  120.375000
  C    -88.342300   55.155900  122.737000
  H    -87.909500   55.111100  123.752000
  H    -87.490200   55.298300  122.120000
  C    -88.960400   53.833200  122.375000
  H    -89.553300   53.887900  121.430000
  H    -89.621800   53.576900  123.175000
  C    -88.030100   52.727000  122.175000
  H    -87.425000   52.871800  121.262000
  H    -88.632500   51.788700  122.057000
  H    -87.403300   52.414200  123.021000
  H    -90.505500   57.151500  128.556000
  H    -90.518700   58.820100  120.587000

 Total Charge           Charge          ....    0
 Multiplicity           Mult            ....    1
 Number of Electrons    NEL             ....  134
 Basis Dimension        Dim             ....  322

ORBITAL ENERGIES
----------------

  NO   OCC          E(Eh)            E(eV)
   0   2.0000     -88.968204     -2420.9479
   1   2.0000     -88.965279     -2420.8683
   2   2.0000     -10.334887      -281.2266
   3   2.0000     -10.331606      -281.1373
   4   2.0000     -10.319629      -280.8114
   5   2.0000     -10.316779      -280.7338
   6   2.0000     -10.309080      -280.5243
   7   2.0000     -10.302138      -280.3354
   8   2.0000     -10.299114      -280.2531
   9   2.0000     -10.293781      -280.1080
  10   2.0000     -10.293100      -280.0895
  11   2.0000     -10.292922      -280.0847
  12   2.0000     -10.290266      -280.0124
  13   2.0000     -10.283041      -279.8158
  14   2.0000     -10.278675      -279.6970
  15   2.0000     -10.277883      -279.6754
  16   2.0000      -8.082628      -219.9395
  17   2.0000      -8.079901      -219.8653
  18   2.0000      -6.041162      -164.3884
  19   2.0000      -6.038467      -164.3150
  20   2.0000      -6.037209      -164.2808
  21   2.0000      -6.034475      -164.2064
  22   2.0000      -6.033360      -164.1761
  23   2.0000      -6.030571      -164.1002
  24   2.0000      -0.999785       -27.2055
  25   2.0000      -0.977229       -26.5918
  26   2.0000      -0.914492       -24.8846
  27   2.0000      -0.910252       -24.7692
  28   2.0000      -0.867292       -23.6002
  29   2.0000      -0.851835       -23.1796
  30   2.0000      -0.846467       -23.0335
  31   2.0000      -0.811130       -22.0720
  32   2.0000      -0.781931       -21.2774
  33   2.0000      -0.767549       -20.8861
  34   2.0000      -0.703457       -19.1420
  35   2.0000      -0.693994       -18.8845
  36   2.0000      -0.689580       -18.7644
  37   2.0000      -0.662109       -18.0169
  38   2.0000      -0.643147       -17.5009
  39   2.0000      -0.626959       -17.0604
  40   2.0000      -0.590805       -16.0766
  41   2.0000      -0.575359       -15.6563
  42   2.0000      -0.567788       -15.4503
  43   2.0000      -0.554695       -15.0940
  44   2.0000      -0.527494       -14.3538
  45   2.0000      -0.519662       -14.1407
  46   2.0000      -0.516030       -14.0419
  47   2.0000      -0.512169       -13.9368
  48   2.0000      -0.507339       -13.8054
  49   2.0000      -0.499856       -13.6018
  50   2.0000      -0.495543       -13.4844
  51   2.0000      -0.475555       -12.9405
  52   2.0000      -0.472126       -12.8472
  53   2.0000      -0.463948       -12.6247
  54   2.0000      -0.460944       -12.5429
  55   2.0000      -0.450252       -12.2520
  56   2.0000      -0.442631       -12.0446
  57   2.0000      -0.438855       -11.9419
  58   2.0000      -0.425568       -11.5803
  59   2.0000      -0.420745       -11.4491
  60   2.0000      -0.418991       -11.4013
  61   2.0000      -0.412858       -11.2344
  62   2.0000      -0.410470       -11.1694
  63   2.0000      -0.349575        -9.5124
  64   2.0000      -0.328226        -8.9315
  65   2.0000      -0.327579        -8.9139
  66   2.0000      -0.288070        -7.8388
  67   0.0000       0.023335         0.6350
  68   0.0000       0.066674         1.8143
  69   0.0000       0.103239         2.8093
  70   0.0000       0.116971         3.1829
  71   0.0000       0.128272         3.4905

MULLIKEN ATOMIC CHARGES
-----------------------
   0 S :    0.096509
   1 C :   -0.098595
   2 C :   -0.106850
   3 C :    0.049847
   4 C :   -0.139465
   5 H :    0.006706
   6 C :    0.028153
   7 H :    0.033132
   8 H :    0.024592
   9 C :   -0.084836
  10 H :    0.033172
  11 H :    0.046546
  12 C :   -0.059759
  13 H :    0.036205
  14 H :    0.033317
  15 H :    0.038090
  16 S :    0.114087
  17 C :   -0.090613
  18 C :   -0.034286
  19 C :   -0.032659
  20 C :   -0.145059
  21 H :    0.019585
  22 C :    0.087991
  23 H :    0.012249
  24 H :    0.004789
  25 C :   -0.048273
  26 H :    0.031353
  27 H :    0.027068
  28 C :   -0.066625
  29 H :    0.035151
  30 H :    0.033251
  31 H :    0.029095
  32 H :    0.040518
  33 H :    0.045613
Sum of atomic charges:    0.0000000

LOEWDIN ATOMIC CHARGES
----------------------
   0 S :    0.388810
   1 C :   -0.203359
   2 C :   -0.062836
   3 C :   -0.049289
   4 C :   -0.167113
   5 H :    0.028036
   6 C :   -0.044417
   7 H :    0.034411
   8 H :    0.029054
   9 C :   -0.047458
  10 H :    0.027940
  11 H :    0.031384
  12 C :   -0.069707
  13 H :    0.027809
  14 H :    0.026385
  15 H :    0.026350
  16 S :    0.405281
  17 C :   -0.181039
  18 C :   -0.065494
  19 C :   -0.041955
  20 C :   -0.202921
  21 H :    0.027396
  22 C :   -0.030520
  23 H :    0.030096
  24 H :    0.021496
  25 C :   -0.047903
  26 H :    0.031621
  27 H :    0.025451
  28 C :   -0.071064
  29 H :    0.025718
  30 H :    0.034994
  31 H :    0.024055
  32 H :    0.020515
  33 H :    0.018270

  Mayer bond orders larger than 0.100000
B(  0-S ,  1-C ) :   1.1430 B(  0-S ,  4-C ) :   1.1323 B(  1-C ,  2-C ) :   1.6084
B(  1-C , 32-H ) :   0.9700 B(  2-C ,  3-C ) :   1.2473 B(  2-C ,  6-C ) :   1.0311
B(  3-C ,  4-C ) :   1.5688 B(  3-C ,  5-H ) :   0.9985 B(  4-C , 20-C ) :   1.0659
B(  6-C ,  7-H ) :   0.9331 B(  6-C ,  8-H ) :   0.9490 B(  6-C ,  9-C ) :   1.0605
B(  9-C , 10-H ) :   0.9545 B(  9-C , 11-H ) :   0.9589 B(  9-C , 12-C ) :   1.0706
B( 12-C , 13-H ) :   0.9742 B( 12-C , 14-H ) :   0.9780 B( 12-C , 15-H ) :   0.9764
B( 16-S , 17-C ) :   1.1660 B( 16-S , 20-C ) :   1.1282 B( 17-C , 18-C ) :   1.6032
B( 17-C , 33-H ) :   0.9737 B( 18-C , 19-C ) :   1.2189 B( 18-C , 21-H ) :   0.9949
B( 19-C , 20-C ) :   1.5859 B( 19-C , 22-C ) :   1.0293 B( 22-C , 23-H ) :   0.9277
B( 22-C , 24-H ) :   0.9391 B( 22-C , 25-C ) :   1.0753 B( 25-C , 26-H ) :   0.9499
B( 25-C , 27-H ) :   0.9478 B( 25-C , 28-C ) :   1.1050 B( 28-C , 29-H ) :   0.9706
B( 28-C , 30-H ) :   0.9685 B( 28-C , 31-H ) :   0.9702

Dispersion correction           -0.013334704
FINAL SINGLE POINT ENERGY     -1339.870299456318

DIPOLE MOMENT
-------------
                                X             Y             Z
Electronic contribution:    -22.26154      14.12476      -7.66120
Nuclear contribution   :     22.85758     -14.31404       7.66322
                        -----------------------------------------
Total Dipole Moment    :      0.59605      -0.18928       0.00202
                        -----------------------------------------
Magnitude (a.u.)       :      0.62538
Magnitude (Debye)      :      1.58959

Rotational constants in cm-1:     0.017275     0.007767     0.006339
Rotational constants in MHz :   517.892453   232.834983   190.028786

                             ****ORCA TERMINATED NORMALLY****
TOTAL RUN TIME: 0 days 0 hours 0 minutes 32 seconds 815 msec
