                         Program Version 4.2.1 -  RELEASE  -
|  1> ! wB97X-D3 SP def2-SVP
|  2> %pal
|  3> nprocs 16
|  4> end
|  5>
|  6> * xyz 0 1
|  7> S 	 -93.5412 	 56.0265 	 122.879
|  8> C 	 -93.6501 	 54.9137 	 121.462
|  9> C 	 -94.2484 	 53.7559 	 121.826
| 10> C 	 -94.481 	 53.6325 	 123.255
| 11> C 	 -93.9377 	 54.6903 	 123.966
| 12> H 	 -94.9857 	 52.7872 	 123.76
| 13> C 	 -94.643 	 52.7294 	 120.78
| 14> H 	 -94.0771 	 52.9003 	 119.855
| 15> H 	 -95.7177 	 52.8568 	 120.458
| 16> C 	 -94.3923 	 51.2235 	 121.198
| 17> H 	 -93.2992 	 51.0822 	 121.323
| 18> H 	 -94.8675 	 51.0758 	 122.139
| 19> C 	 -94.8626 	 50.2914 	 120.107
| 20> H 	 -94.4833 	 49.237 	 120.133
| 21> H 	 -95.9338 	 50.2807 	 119.941
| 22> H 	 -94.4637 	 50.6585 	 119.149
| 23> S 	 -95.1313 	 56.0445 	 126.046
| 24> C 	 -94.6513 	 55.6562 	 127.726
| 25> C 	 -93.7656 	 54.6067 	 127.734
| 26> C 	 -93.3883 	 54.1672 	 126.433
| 27> C 	 -93.965 	 54.9109 	 125.396
| 28> H 	 -93.3572 	 54.2196 	 128.66
| 29> C 	 -92.8288 	 52.7533 	 126.253
| 30> H 	 -91.8628 	 52.6249 	 126.808
| 31> H 	 -92.4907 	 52.5792 	 125.212
| 32> C 	 -93.8384 	 51.5853 	 126.458
| 33> H 	 -94.5539 	 51.7123 	 125.752
| 34> H 	 -94.2745 	 51.7245 	 127.458
| 35> C 	 -93.2022 	 50.1523 	 126.277
| 36> H 	 -93.8106 	 49.2488 	 126.296
| 37> H 	 -92.4034 	 50.061 	 126.97
| 38> H 	 -92.6949 	 50.1503 	 125.279
| 39> H 	 -93.3201 	 55.1635 	 120.453
| 40> H 	 -95.039 	 56.1673 	 128.567
| 41> *
| 42>
| 43>                          ****END OF INPUT****

CARTESIAN COORDINATES (ANGSTROEM)
---------------------------------
  S    -93.541200   56.026500  122.879000
  C    -93.650100   54.913700  121.462000
  C    -94.248400   53.755900  121.826000
  C    -94.481000   53.632500  123.255000
  C    -93.937700   54.690300  123.966000
  H    -94.985700   52.787200  123.760000
  C    -94.643000   52.729400  120.780000
  H    -94.077100   52.900300  119.855000
  H    -95.717700   52.856800  120.458000
  C    -94.392300   51.223500  121.198000
  H    -93.299200   51.082200  121.323000
  H    -94.867500   51.075800  122.139000
  C    -94.862600   50.291400  120.107000
  H    -94.483300   49.237000  120.133000
  H    -95.933800   50.280700  119.941000
  H    -94.463700   50.658500  119.149000
  S    -95.131300   56.044500  126.046000
  C    -94.651300   55.656200  127.726000
  C    -93.765600   54.606700  127.734000
  C    -93.388300   54.167200  126.433000
  C    -93.965000   54.910900  125.396000
  H    -93.357200   54.219600  128.660000
  C    -92.828800   52.753300  126.253000
  H    -91.862800   52.624900  126.808000
  H    -92.490700   52.579200  125.212000
  C    -93.838400   51.585300  126.458000
  H    -94.553900   51.712300  125.752000
  H    -94.274500   51.724500  127.458000
  C    -93.202200   50.152300  126.277000
  H    -93.810600   49.248800  126.296000
  H    -92.403400   50.061000  126.970000
  H    -92.694900   50.150300  125.279000
  H    -93.320100   55.163500  120.453000
  H    -95.039000   56.167300  128.567000

 Total Charge           Charge          ....    0
 Multiplicity           Mult            ....    1
 Number of Electrons    NEL             ....  134
 Basis Dimension        Dim             ....  322

ORBITAL ENERGIES
----------------

  NO   OCC          E(Eh)            E(eV)
   0   2.0000     -88.966211     -2420.8937
   1   2.0000     -88.963583     -2420.8222
   2   2.0000     -10.333495      -281.1887
   3   2.0000     -10.328627      -281.0562
   4   2.0000     -10.319972      -280.8207
   5   2.0000     -10.317510      -280.7537
   6   2.0000     -10.305316      -280.4219
   7   2.0000     -10.304426      -280.3977
   8   2.0000     -10.303968      -280.3852
   9   2.0000     -10.300462      -280.2898
  10   2.0000     -10.295713      -280.1606
  11   2.0000     -10.295400      -280.1521
  12   2.0000     -10.290452      -280.0174
  13   2.0000     -10.286037      -279.8973
  14   2.0000     -10.282419      -279.7988
  15   2.0000     -10.282226      -279.7936
  16   2.0000      -8.080449      -219.8802
  17   2.0000      -8.077653      -219.8041
  18   2.0000      -6.039065      -164.3313
  19   2.0000      -6.036329      -164.2569
  20   2.0000      -6.035048      -164.2220
  21   2.0000      -6.032514      -164.1531
  22   2.0000      -6.031094      -164.1144
  23   2.0000      -6.027995      -164.0301
  24   2.0000      -1.004334       -27.3293
  25   2.0000      -0.980570       -26.6827
  26   2.0000      -0.909827       -24.7577
  27   2.0000      -0.902370       -24.5547
  28   2.0000      -0.874023       -23.7834
  29   2.0000      -0.845835       -23.0163
  30   2.0000      -0.842287       -22.9198
  31   2.0000      -0.817218       -22.2376
  32   2.0000      -0.778510       -21.1843
  33   2.0000      -0.768020       -20.8989
  34   2.0000      -0.714902       -19.4535
  35   2.0000      -0.702689       -19.1211
  36   2.0000      -0.693881       -18.8815
  37   2.0000      -0.661977       -18.0133
  38   2.0000      -0.642243       -17.4763
  39   2.0000      -0.619418       -16.8552
  40   2.0000      -0.597568       -16.2606
  41   2.0000      -0.568264       -15.4632
  42   2.0000      -0.565863       -15.3979
  43   2.0000      -0.560979       -15.2650
  44   2.0000      -0.524789       -14.2802
  45   2.0000      -0.520753       -14.1704
  46   2.0000      -0.518344       -14.1049
  47   2.0000      -0.511385       -13.9155
  48   2.0000      -0.508691       -13.8422
  49   2.0000      -0.500800       -13.6275
  50   2.0000      -0.492063       -13.3897
  51   2.0000      -0.476973       -12.9791
  52   2.0000      -0.468462       -12.7475
  53   2.0000      -0.460851       -12.5404
  54   2.0000      -0.455650       -12.3989
  55   2.0000      -0.453252       -12.3336
  56   2.0000      -0.448794       -12.2123
  57   2.0000      -0.438669       -11.9368
  58   2.0000      -0.430171       -11.7055
  59   2.0000      -0.429245       -11.6803
  60   2.0000      -0.422000       -11.4832
  61   2.0000      -0.415205       -11.2983
  62   2.0000      -0.414483       -11.2786
  63   2.0000      -0.344479        -9.3738
  64   2.0000      -0.329014        -8.9529
  65   2.0000      -0.325428        -8.8553
  66   2.0000      -0.301673        -8.2090
  67   0.0000       0.029184         0.7941
  68   0.0000       0.056207         1.5295
  69   0.0000       0.105127         2.8607
  70   0.0000       0.111874         3.0442
  71   0.0000       0.128471         3.4959

MULLIKEN ATOMIC CHARGES
-----------------------
   0 S :    0.091515
   1 C :   -0.125489
   2 C :   -0.050569
   3 C :    0.028735
   4 C :   -0.151773
   5 H :    0.035609
   6 C :    0.012441
   7 H :    0.018848
   8 H :    0.050958
   9 C :   -0.072573
  10 H :    0.040334
  11 H :    0.027588
  12 C :   -0.049765
  13 H :    0.043293
  14 H :    0.030289
  15 H :    0.015051
  16 S :    0.102283
  17 C :   -0.086417
  18 C :   -0.019623
  19 C :   -0.007970
  20 C :   -0.158834
  21 H :    0.025170
  22 C :   -0.013814
  23 H :    0.030582
  24 H :    0.025037
  25 C :   -0.010286
  26 H :   -0.004243
  27 H :    0.029359
  28 C :   -0.051915
  29 H :    0.046728
  30 H :    0.022872
  31 H :    0.025425
  32 H :    0.051747
  33 H :    0.049408
Sum of atomic charges:    0.0000000

LOEWDIN ATOMIC CHARGES
----------------------
   0 S :    0.370540
   1 C :   -0.172980
   2 C :   -0.066237
   3 C :   -0.058952
   4 C :   -0.181915
   5 H :    0.036142
   6 C :   -0.033266
   7 H :    0.027904
   8 H :    0.038096
   9 C :   -0.040151
  10 H :    0.031297
  11 H :    0.014798
  12 C :   -0.073076
  13 H :    0.032233
  14 H :    0.023305
  15 H :    0.025149
  16 S :    0.392374
  17 C :   -0.163003
  18 C :   -0.065647
  19 C :   -0.059280
  20 C :   -0.200528
  21 H :    0.034295
  22 C :   -0.038808
  23 H :    0.029847
  24 H :    0.028813
  25 C :   -0.024041
  26 H :    0.003884
  27 H :    0.023063
  28 C :   -0.065530
  29 H :    0.028716
  30 H :    0.019138
  31 H :    0.029509
  32 H :    0.031640
  33 H :    0.022673

  Mayer bond orders larger than 0.100000
B(  0-S ,  1-C ) :   1.1073 B(  0-S ,  4-C ) :   1.1390 B(  1-C ,  2-C ) :   1.6574
B(  1-C , 32-H ) :   0.9697 B(  2-C ,  3-C ) :   1.1935 B(  2-C ,  6-C ) :   1.0218
B(  3-C ,  4-C ) :   1.5959 B(  3-C ,  5-H ) :   0.9861 B(  4-C , 20-C ) :   1.0272
B(  6-C ,  7-H ) :   0.9454 B(  6-C ,  8-H ) :   0.9403 B(  6-C ,  9-C ) :   1.0503
B(  9-C , 10-H ) :   0.9573 B(  9-C , 11-H ) :   0.9572 B(  9-C , 12-C ) :   1.0849
B( 12-C , 13-H ) :   0.9737 B( 12-C , 14-H ) :   0.9745 B( 12-C , 15-H ) :   0.9692
B( 16-S , 17-C ) :   1.1413 B( 16-S , 20-C ) :   1.1523 B( 17-C , 18-C ) :   1.6065
B( 17-C , 20-C ) :   0.1013 B( 17-C , 33-H ) :   0.9756 B( 18-C , 19-C ) :   1.2385
B( 18-C , 21-H ) :   0.9893 B( 19-C , 20-C ) :   1.5920 B( 19-C , 22-C ) :   1.0704
B( 22-C , 23-H ) :   0.9389 B( 22-C , 24-H ) :   0.9344 B( 22-C , 25-C ) :   1.0408
B( 25-C , 26-H ) :   0.9559 B( 25-C , 27-H ) :   0.9566 B( 25-C , 28-C ) :   1.0684
B( 28-C , 29-H ) :   0.9778 B( 28-C , 30-H ) :   0.9786 B( 28-C , 31-H ) :   0.9735

Dispersion correction           -0.014431159
FINAL SINGLE POINT ENERGY     -1339.873680488812

DIPOLE MOMENT
-------------
                                X             Y             Z
Electronic contribution:     -1.76234      31.95550       7.54901
Nuclear contribution   :      1.66876     -32.68063      -7.63356
                        -----------------------------------------
Total Dipole Moment    :     -0.09358      -0.72513      -0.08455
                        -----------------------------------------
Magnitude (a.u.)       :      0.73602
Magnitude (Debye)      :      1.87081

Rotational constants in cm-1:     0.017098     0.009446     0.006636
Rotational constants in MHz :   512.588482   283.183843   198.932762

                             ****ORCA TERMINATED NORMALLY****
TOTAL RUN TIME: 0 days 0 hours 0 minutes 34 seconds 89 msec
