                         Program Version 4.2.1 -  RELEASE  -
|  1> ! wB97X-D3 SP def2-SVP
|  2> %pal
|  3> nprocs 16
|  4> end
|  5>
|  6> * xyz 0 1
|  7> S 	 6.60242 	 8.75581 	 82.9956
|  8> C 	 7.5326 	 7.52964 	 82.1692
|  9> C 	 8.33769 	 6.74485 	 83.0038
| 10> C 	 8.08612 	 7.0937 	 84.3534
| 11> C 	 7.19427 	 8.15632 	 84.5117
| 12> H 	 8.54781 	 6.66302 	 85.2462
| 13> C 	 9.22558 	 5.60423 	 82.6038
| 14> H 	 8.5358 	 4.8819 	 82.2723
| 15> H 	 9.67969 	 5.21085 	 83.5313
| 16> C 	 10.4034 	 6.00682 	 81.6046
| 17> H 	 9.91095 	 6.3638 	 80.6776
| 18> H 	 11.1307 	 6.71252 	 82.0006
| 19> C 	 11.297 	 4.79584 	 81.2433
| 20> H 	 12.0601 	 5.13513 	 80.4946
| 21> H 	 11.941 	 4.43157 	 82.0267
| 22> H 	 10.7412 	 3.95761 	 80.8648
| 23> S 	 7.53563 	 10.4697 	 85.8646
| 24> C 	 7.03105 	 10.7194 	 87.4901
| 25> C 	 6.26413 	 9.62026 	 87.8903
| 26> C 	 6.28066 	 8.54654 	 86.9546
| 27> C 	 6.83319 	 8.90233 	 85.7224
| 28> H 	 5.70344 	 9.7404 	 88.8411
| 29> C 	 5.66551 	 7.21648 	 87.245
| 30> H 	 6.04444 	 6.55681 	 86.4359
| 31> H 	 4.61511 	 7.17293 	 87.1323
| 32> C 	 6.16527 	 6.44949 	 88.5273
| 33> H 	 5.49545 	 5.57852 	 88.713
| 34> H 	 6.15377 	 6.99984 	 89.4191
| 35> C 	 7.58811 	 5.90278 	 88.1835
| 36> H 	 7.45074 	 5.12635 	 87.4354
| 37> H 	 8.18828 	 5.57883 	 89.0142
| 38> H 	 8.17951 	 6.63503 	 87.6409
| 39> H 	 7.71628 	 7.48272 	 81.1317
| 40> H 	 7.17606 	 11.5678 	 88.0779
| 41> *
| 42>
| 43>                          ****END OF INPUT****

CARTESIAN COORDINATES (ANGSTROEM)
---------------------------------
  S      6.602420    8.755810   82.995600
  C      7.532600    7.529640   82.169200
  C      8.337690    6.744850   83.003800
  C      8.086120    7.093700   84.353400
  C      7.194270    8.156320   84.511700
  H      8.547810    6.663020   85.246200
  C      9.225580    5.604230   82.603800
  H      8.535800    4.881900   82.272300
  H      9.679690    5.210850   83.531300
  C     10.403400    6.006820   81.604600
  H      9.910950    6.363800   80.677600
  H     11.130700    6.712520   82.000600
  C     11.297000    4.795840   81.243300
  H     12.060100    5.135130   80.494600
  H     11.941000    4.431570   82.026700
  H     10.741200    3.957610   80.864800
  S      7.535630   10.469700   85.864600
  C      7.031050   10.719400   87.490100
  C      6.264130    9.620260   87.890300
  C      6.280660    8.546540   86.954600
  C      6.833190    8.902330   85.722400
  H      5.703440    9.740400   88.841100
  C      5.665510    7.216480   87.245000
  H      6.044440    6.556810   86.435900
  H      4.615110    7.172930   87.132300
  C      6.165270    6.449490   88.527300
  H      5.495450    5.578520   88.713000
  H      6.153770    6.999840   89.419100
  C      7.588110    5.902780   88.183500
  H      7.450740    5.126350   87.435400
  H      8.188280    5.578830   89.014200
  H      8.179510    6.635030   87.640900
  H      7.716280    7.482720   81.131700
  H      7.176060   11.567800   88.077900

 Total Charge           Charge          ....    0
 Multiplicity           Mult            ....    1
 Number of Electrons    NEL             ....  134
 Basis Dimension        Dim             ....  322

ORBITAL ENERGIES
----------------

  NO   OCC          E(Eh)            E(eV)
   0   2.0000     -88.970046     -2420.9980
   1   2.0000     -88.962451     -2420.7914
   2   2.0000     -10.328593      -281.0553
   3   2.0000     -10.323880      -280.9271
   4   2.0000     -10.312036      -280.6048
   5   2.0000     -10.308273      -280.5024
   6   2.0000     -10.303143      -280.3628
   7   2.0000     -10.299701      -280.2691
   8   2.0000     -10.298267      -280.2301
   9   2.0000     -10.295224      -280.1473
  10   2.0000     -10.295013      -280.1415
  11   2.0000     -10.294647      -280.1316
  12   2.0000     -10.287742      -279.9437
  13   2.0000     -10.285958      -279.8952
  14   2.0000     -10.279349      -279.7153
  15   2.0000     -10.274022      -279.5704
  16   2.0000      -8.084754      -219.9973
  17   2.0000      -8.078147      -219.8176
  18   2.0000      -6.043102      -164.4412
  19   2.0000      -6.039243      -164.3362
  20   2.0000      -6.036517      -164.2620
  21   2.0000      -6.035714      -164.2401
  22   2.0000      -6.032296      -164.1471
  23   2.0000      -6.029186      -164.0625
  24   2.0000      -1.009780       -27.4775
  25   2.0000      -0.986178       -26.8353
  26   2.0000      -0.908872       -24.7317
  27   2.0000      -0.906033       -24.6544
  28   2.0000      -0.867133       -23.5959
  29   2.0000      -0.852137       -23.1878
  30   2.0000      -0.844420       -22.9778
  31   2.0000      -0.813344       -22.1322
  32   2.0000      -0.781101       -21.2548
  33   2.0000      -0.769712       -20.9449
  34   2.0000      -0.708726       -19.2854
  35   2.0000      -0.707704       -19.2576
  36   2.0000      -0.698301       -19.0017
  37   2.0000      -0.654567       -17.8117
  38   2.0000      -0.640200       -17.4207
  39   2.0000      -0.617385       -16.7999
  40   2.0000      -0.598159       -16.2767
  41   2.0000      -0.569843       -15.5062
  42   2.0000      -0.564027       -15.3480
  43   2.0000      -0.556224       -15.1356
  44   2.0000      -0.535128       -14.5616
  45   2.0000      -0.531485       -14.4624
  46   2.0000      -0.521197       -14.1825
  47   2.0000      -0.512801       -13.9540
  48   2.0000      -0.502199       -13.6655
  49   2.0000      -0.498397       -13.5621
  50   2.0000      -0.486425       -13.2363
  51   2.0000      -0.471686       -12.8352
  52   2.0000      -0.467594       -12.7239
  53   2.0000      -0.463507       -12.6127
  54   2.0000      -0.457099       -12.4383
  55   2.0000      -0.453738       -12.3468
  56   2.0000      -0.442993       -12.0544
  57   2.0000      -0.435885       -11.8610
  58   2.0000      -0.435502       -11.8506
  59   2.0000      -0.430875       -11.7247
  60   2.0000      -0.423501       -11.5240
  61   2.0000      -0.414013       -11.2659
  62   2.0000      -0.413655       -11.2561
  63   2.0000      -0.340440        -9.2638
  64   2.0000      -0.330898        -9.0042
  65   2.0000      -0.325093        -8.8462
  66   2.0000      -0.296530        -8.0690
  67   0.0000       0.037393         1.0175
  68   0.0000       0.061474         1.6728
  69   0.0000       0.114357         3.1118
  70   0.0000       0.123456         3.3594
  71   0.0000       0.129658         3.5282

MULLIKEN ATOMIC CHARGES
-----------------------
   0 S :    0.131004
   1 C :   -0.094520
   2 C :   -0.108947
   3 C :    0.051417
   4 C :   -0.189106
   5 H :    0.004794
   6 C :    0.076670
   7 H :    0.039716
   8 H :    0.020329
   9 C :   -0.086560
  10 H :    0.040404
  11 H :    0.045640
  12 C :   -0.061430
  13 H :    0.036070
  14 H :    0.027754
  15 H :    0.029488
  16 S :    0.116431
  17 C :   -0.081611
  18 C :   -0.049681
  19 C :   -0.034029
  20 C :   -0.139552
  21 H :    0.035897
  22 C :    0.047051
  23 H :    0.013416
  24 H :    0.032784
  25 C :   -0.055524
  26 H :    0.034281
  27 H :    0.022116
  28 C :   -0.065955
  29 H :    0.026343
  30 H :    0.034550
  31 H :    0.037472
  32 H :    0.025803
  33 H :    0.037482
Sum of atomic charges:   -0.0000000

LOEWDIN ATOMIC CHARGES
----------------------
   0 S :    0.428247
   1 C :   -0.202190
   2 C :   -0.059581
   3 C :   -0.062193
   4 C :   -0.205033
   5 H :    0.031465
   6 C :   -0.028423
   7 H :    0.032237
   8 H :    0.032174
   9 C :   -0.032263
  10 H :    0.025951
  11 H :    0.031307
  12 C :   -0.071882
  13 H :    0.032607
  14 H :    0.021496
  15 H :    0.019756
  16 S :    0.438007
  17 C :   -0.189247
  18 C :   -0.075855
  19 C :   -0.061188
  20 C :   -0.218846
  21 H :    0.038346
  22 C :   -0.031738
  23 H :    0.034587
  24 H :    0.026160
  25 C :   -0.029899
  26 H :    0.029307
  27 H :    0.010646
  28 C :   -0.065592
  29 H :    0.023864
  30 H :    0.022156
  31 H :    0.021684
  32 H :    0.014786
  33 H :    0.019147

  Mayer bond orders larger than 0.100000
B(  0-S ,  1-C ) :   1.1502 B(  0-S ,  4-C ) :   1.1732 B(  1-C ,  2-C ) :   1.5966
B(  1-C ,  4-C ) :   0.1041 B(  1-C , 32-H ) :   0.9669 B(  2-C ,  3-C ) :   1.2714
B(  2-C ,  6-C ) :   1.0104 B(  3-C ,  4-C ) :   1.5605 B(  3-C ,  5-H ) :   0.9876
B(  4-C , 20-C ) :   0.9911 B(  6-C ,  7-H ) :   0.9394 B(  6-C ,  8-H ) :   0.9433
B(  6-C ,  9-C ) :   1.0513 B(  9-C , 10-H ) :   0.9588 B(  9-C , 11-H ) :   0.9611
B(  9-C , 12-C ) :   1.0852 B( 12-C , 13-H ) :   0.9738 B( 12-C , 14-H ) :   0.9754
B( 12-C , 15-H ) :   0.9759 B( 16-S , 17-C ) :   1.1809 B( 16-S , 20-C ) :   1.1671
B( 17-C , 18-C ) :   1.5762 B( 17-C , 20-C ) :   0.1069 B( 17-C , 33-H ) :   0.9765
B( 18-C , 19-C ) :   1.2491 B( 18-C , 21-H ) :   0.9880 B( 19-C , 20-C ) :   1.5700
B( 19-C , 22-C ) :   1.0514 B( 22-C , 23-H ) :   0.9359 B( 22-C , 24-H ) :   0.9382
B( 22-C , 25-C ) :   1.0582 B( 25-C , 26-H ) :   0.9591 B( 25-C , 27-H ) :   0.9652
B( 25-C , 28-C ) :   1.0622 B( 28-C , 29-H ) :   0.9741 B( 28-C , 30-H ) :   0.9724
B( 28-C , 31-H ) :   0.9779

Dispersion correction           -0.014438071
FINAL SINGLE POINT ENERGY     -1339.872886559566

DIPOLE MOMENT
-------------
                                X             Y             Z
Electronic contribution:    -11.70767      24.11118      -1.91881
Nuclear contribution   :     11.95891     -24.56131       2.10736
                        -----------------------------------------
Total Dipole Moment    :      0.25124      -0.45013       0.18855
                        -----------------------------------------
Magnitude (a.u.)       :      0.54890
Magnitude (Debye)      :      1.39518

Rotational constants in cm-1:     0.020636     0.007762     0.006491
Rotational constants in MHz :   618.650675   232.686452   194.604328

                             ****ORCA TERMINATED NORMALLY****
TOTAL RUN TIME: 0 days 0 hours 0 minutes 35 seconds 330 msec
