                         Program Version 4.2.1 -  RELEASE  -
|  1> ! wB97X-D3 SP def2-SVP
|  2> %pal
|  3> nprocs 16
|  4> end
|  5>
|  6> * xyz 0 1
|  7> S 	 34.9806 	 -5.35292 	 70.6692
|  8> C 	 35.857 	 -4.37563 	 71.8681
|  9> C 	 37.2037 	 -4.2906 	 71.6335
| 10> C 	 37.4903 	 -4.95097 	 70.3771
| 11> C 	 36.4464 	 -5.55768 	 69.7413
| 12> H 	 38.4329 	 -5.12836 	 69.9586
| 13> C 	 38.1699 	 -3.39437 	 72.3531
| 14> H 	 39.1251 	 -3.63966 	 71.9981
| 15> H 	 38.2189 	 -3.68046 	 73.4296
| 16> C 	 38.0424 	 -1.84884 	 72.3323
| 17> H 	 37.9041 	 -1.48323 	 71.2954
| 18> H 	 37.0377 	 -1.61919 	 72.7156
| 19> C 	 39.119 	 -1.10662 	 73.082
| 20> H 	 39.0864 	 -0.0511031 	 72.8636
| 21> H 	 39.3863 	 -1.28115 	 74.1536
| 22> H 	 40.0139 	 -1.42039 	 72.5013
| 23> S 	 35.6578 	 -8.14147 	 68.8453
| 24> C 	 35.8257 	 -8.52574 	 67.1771
| 25> C 	 36.447 	 -7.49062 	 66.4731
| 26> C 	 36.855 	 -6.37959 	 67.2981
| 27> C 	 36.3327 	 -6.49492 	 68.5989
| 28> H 	 36.7268 	 -7.6991 	 65.5042
| 29> C 	 37.5951 	 -5.1588 	 66.8287
| 30> H 	 38.4129 	 -5.29579 	 66.2402
| 31> H 	 38.1399 	 -4.82699 	 67.7562
| 32> C 	 36.7749 	 -4.06361 	 66.1762
| 33> H 	 35.902 	 -3.834 	 66.8205
| 34> H 	 36.3195 	 -4.31864 	 65.2256
| 35> C 	 37.433 	 -2.66354 	 65.9268
| 36> H 	 38.3393 	 -2.84525 	 65.3601
| 37> H 	 37.7386 	 -2.19143 	 66.7959
| 38> H 	 36.8617 	 -1.98385 	 65.3154
| 39> H 	 35.3679 	 -3.93355 	 72.7149
| 40> H 	 35.5605 	 -9.50515 	 66.7927
| 41> *
| 42>
| 43>                          ****END OF INPUT****

CARTESIAN COORDINATES (ANGSTROEM)
---------------------------------
  S     34.980600   -5.352920   70.669200
  C     35.857000   -4.375630   71.868100
  C     37.203700   -4.290600   71.633500
  C     37.490300   -4.950970   70.377100
  C     36.446400   -5.557680   69.741300
  H     38.432900   -5.128360   69.958600
  C     38.169900   -3.394370   72.353100
  H     39.125100   -3.639660   71.998100
  H     38.218900   -3.680460   73.429600
  C     38.042400   -1.848840   72.332300
  H     37.904100   -1.483230   71.295400
  H     37.037700   -1.619190   72.715600
  C     39.119000   -1.106620   73.082000
  H     39.086400   -0.051103   72.863600
  H     39.386300   -1.281150   74.153600
  H     40.013900   -1.420390   72.501300
  S     35.657800   -8.141470   68.845300
  C     35.825700   -8.525740   67.177100
  C     36.447000   -7.490620   66.473100
  C     36.855000   -6.379590   67.298100
  C     36.332700   -6.494920   68.598900
  H     36.726800   -7.699100   65.504200
  C     37.595100   -5.158800   66.828700
  H     38.412900   -5.295790   66.240200
  H     38.139900   -4.826990   67.756200
  C     36.774900   -4.063610   66.176200
  H     35.902000   -3.834000   66.820500
  H     36.319500   -4.318640   65.225600
  C     37.433000   -2.663540   65.926800
  H     38.339300   -2.845250   65.360100
  H     37.738600   -2.191430   66.795900
  H     36.861700   -1.983850   65.315400
  H     35.367900   -3.933550   72.714900
  H     35.560500   -9.505150   66.792700

 Total Charge           Charge          ....    0
 Multiplicity           Mult            ....    1
 Number of Electrons    NEL             ....  134
 Basis Dimension        Dim             ....  322

ORBITAL ENERGIES
----------------

  NO   OCC          E(Eh)            E(eV)
   0   2.0000     -88.967915     -2420.9400
   1   2.0000     -88.963286     -2420.8141
   2   2.0000     -10.333508      -281.1890
   3   2.0000     -10.329630      -281.0835
   4   2.0000     -10.319389      -280.8048
   5   2.0000     -10.314393      -280.6689
   6   2.0000     -10.309628      -280.5392
   7   2.0000     -10.304215      -280.3920
   8   2.0000     -10.292775      -280.0807
   9   2.0000     -10.292219      -280.0655
  10   2.0000     -10.292098      -280.0622
  11   2.0000     -10.292022      -280.0602
  12   2.0000     -10.287361      -279.9333
  13   2.0000     -10.285219      -279.8750
  14   2.0000     -10.284443      -279.8539
  15   2.0000     -10.270230      -279.4672
  16   2.0000      -8.082312      -219.9309
  17   2.0000      -8.077998      -219.8135
  18   2.0000      -6.040822      -164.3791
  19   2.0000      -6.036797      -164.2696
  20   2.0000      -6.036543      -164.2627
  21   2.0000      -6.033154      -164.1705
  22   2.0000      -6.032468      -164.1518
  23   2.0000      -6.028750      -164.0506
  24   2.0000      -1.003884       -27.3171
  25   2.0000      -0.981909       -26.7191
  26   2.0000      -0.913464       -24.8566
  27   2.0000      -0.908849       -24.7310
  28   2.0000      -0.869803       -23.6686
  29   2.0000      -0.852305       -23.1924
  30   2.0000      -0.843848       -22.9623
  31   2.0000      -0.817049       -22.2330
  32   2.0000      -0.789895       -21.4941
  33   2.0000      -0.776093       -21.1186
  34   2.0000      -0.707566       -19.2539
  35   2.0000      -0.705118       -19.1872
  36   2.0000      -0.694901       -18.9092
  37   2.0000      -0.663143       -18.0450
  38   2.0000      -0.647680       -17.6243
  39   2.0000      -0.619806       -16.8658
  40   2.0000      -0.601295       -16.3621
  41   2.0000      -0.573666       -15.6102
  42   2.0000      -0.561937       -15.2911
  43   2.0000      -0.556252       -15.1364
  44   2.0000      -0.530886       -14.4462
  45   2.0000      -0.524482       -14.2719
  46   2.0000      -0.520076       -14.1520
  47   2.0000      -0.510911       -13.9026
  48   2.0000      -0.508705       -13.8426
  49   2.0000      -0.497523       -13.5383
  50   2.0000      -0.492720       -13.4076
  51   2.0000      -0.482927       -13.1411
  52   2.0000      -0.472813       -12.8659
  53   2.0000      -0.463452       -12.6112
  54   2.0000      -0.456206       -12.4140
  55   2.0000      -0.454604       -12.3704
  56   2.0000      -0.450687       -12.2638
  57   2.0000      -0.436591       -11.8802
  58   2.0000      -0.435288       -11.8448
  59   2.0000      -0.426040       -11.5931
  60   2.0000      -0.419424       -11.4131
  61   2.0000      -0.406951       -11.0737
  62   2.0000      -0.406537       -11.0624
  63   2.0000      -0.346446        -9.4273
  64   2.0000      -0.334422        -9.1001
  65   2.0000      -0.328470        -8.9381
  66   2.0000      -0.294684        -8.0188
  67   0.0000       0.031049         0.8449
  68   0.0000       0.063184         1.7193
  69   0.0000       0.112244         3.0543
  70   0.0000       0.114856         3.1254
  71   0.0000       0.124472         3.3871

MULLIKEN ATOMIC CHARGES
-----------------------
   0 S :    0.094650
   1 C :   -0.120974
   2 C :   -0.062455
   3 C :    0.045836
   4 C :   -0.168597
   5 H :   -0.005545
   6 C :    0.077539
   7 H :   -0.007186
   8 H :    0.031475
   9 C :   -0.056200
  10 H :    0.030762
  11 H :    0.014035
  12 C :   -0.056294
  13 H :    0.035835
  14 H :    0.053401
  15 H :    0.021110
  16 S :    0.116422
  17 C :   -0.105525
  18 C :    0.006031
  19 C :   -0.038572
  20 C :   -0.145677
  21 H :   -0.009208
  22 C :    0.134081
  23 H :   -0.010076
  24 H :   -0.000726
  25 C :   -0.079450
  26 H :    0.032102
  27 H :    0.024436
  28 C :   -0.023320
  29 H :    0.011881
  30 H :    0.018349
  31 H :    0.033474
  32 H :    0.044006
  33 H :    0.064379
Sum of atomic charges:   -0.0000000

LOEWDIN ATOMIC CHARGES
----------------------
   0 S :    0.393836
   1 C :   -0.172878
   2 C :   -0.063527
   3 C :   -0.059991
   4 C :   -0.188199
   5 H :    0.019266
   6 C :   -0.033629
   7 H :    0.018061
   8 H :    0.037971
   9 C :   -0.042960
  10 H :    0.030430
  11 H :    0.017688
  12 C :   -0.075294
  13 H :    0.029704
  14 H :    0.034158
  15 H :    0.030826
  16 S :    0.405842
  17 C :   -0.189424
  18 C :   -0.063734
  19 C :   -0.044489
  20 C :   -0.193439
  21 H :    0.017684
  22 C :   -0.034011
  23 H :    0.016186
  24 H :    0.039136
  25 C :   -0.037739
  26 H :    0.027363
  27 H :    0.023054
  28 C :   -0.057288
  29 H :    0.020609
  30 H :    0.013417
  31 H :    0.027513
  32 H :    0.023166
  33 H :    0.030692

  Mayer bond orders larger than 0.100000
B(  0-S ,  1-C ) :   1.1386 B(  0-S ,  4-C ) :   1.1365 B(  1-C ,  2-C ) :   1.6273
B(  1-C , 32-H ) :   0.9721 B(  2-C ,  3-C ) :   1.2092 B(  2-C ,  6-C ) :   1.0368
B(  3-C ,  4-C ) :   1.6217 B(  3-C ,  5-H ) :   0.9898 B(  4-C , 20-C ) :   1.0156
B(  6-C ,  7-H ) :   0.9357 B(  6-C ,  8-H ) :   0.9317 B(  6-C ,  9-C ) :   1.0577
B(  9-C , 10-H ) :   0.9522 B(  9-C , 11-H ) :   0.9501 B(  9-C , 12-C ) :   1.0738
B( 12-C , 13-H ) :   0.9702 B( 12-C , 14-H ) :   0.9761 B( 12-C , 15-H ) :   0.9712
B( 16-S , 17-C ) :   1.1680 B( 16-S , 20-C ) :   1.1455 B( 17-C , 18-C ) :   1.5882
B( 17-C , 20-C ) :   0.1008 B( 17-C , 33-H ) :   0.9680 B( 18-C , 19-C ) :   1.2395
B( 18-C , 21-H ) :   1.0022 B( 19-C , 20-C ) :   1.5783 B( 19-C , 22-C ) :   1.0579
B( 22-C , 23-H ) :   0.9207 B( 22-C , 24-H ) :   0.9189 B( 22-C , 25-C ) :   1.0564
B( 25-C , 26-H ) :   0.9583 B( 25-C , 27-H ) :   0.9565 B( 25-C , 28-C ) :   1.0802
B( 28-C , 29-H ) :   0.9735 B( 28-C , 30-H ) :   0.9776 B( 28-C , 31-H ) :   0.9753

Dispersion correction           -0.013655477
FINAL SINGLE POINT ENERGY     -1339.863456840921

DIPOLE MOMENT
-------------
                                X             Y             Z
Electronic contribution:    -16.44114     -26.28962       1.55871
Nuclear contribution   :     17.00021      26.63425      -1.69136
                        -----------------------------------------
Total Dipole Moment    :      0.55907       0.34462      -0.13265
                        -----------------------------------------
Magnitude (a.u.)       :      0.67002
Magnitude (Debye)      :      1.70305

Rotational constants in cm-1:     0.018931     0.008101     0.006268
Rotational constants in MHz :   567.551091   242.859754   187.898695

                             ****ORCA TERMINATED NORMALLY****
TOTAL RUN TIME: 0 days 0 hours 0 minutes 29 seconds 238 msec
