                         Program Version 4.2.1 -  RELEASE  -
|  1> ! wB97X-D3 SP def2-SVP
|  2> %pal
|  3> nprocs 16
|  4> end
|  5>
|  6> * xyz 0 1
|  7> S 	 -39.075 	 -0.535085 	 96.7804
|  8> C 	 -40.5076 	 -1.33096 	 97.3318
|  9> C 	 -40.6192 	 -1.24502 	 98.7193
| 10> C 	 -39.4648 	 -0.588754 	 99.2935
| 11> C 	 -38.4752 	 -0.21892 	 98.3765
| 12> H 	 -39.3075 	 -0.550335 	 100.398
| 13> C 	 -41.7256 	 -1.90054 	 99.4579
| 14> H 	 -42.6171 	 -1.73561 	 98.8179
| 15> H 	 -41.8614 	 -1.29339 	 100.34
| 16> C 	 -41.5177 	 -3.38694 	 100.005
| 17> H 	 -40.6072 	 -3.48604 	 100.575
| 18> H 	 -42.2513 	 -3.75377 	 100.715
| 19> C 	 -41.4361 	 -4.41399 	 98.8155
| 20> H 	 -40.4962 	 -4.23429 	 98.2723
| 21> H 	 -41.4992 	 -5.36926 	 99.3063
| 22> H 	 -42.3236 	 -4.49481 	 98.1628
| 23> S 	 -37.0575 	 1.21031 	 100.182
| 24> C 	 -35.4783 	 1.67125 	 99.8677
| 25> C 	 -35.0148 	 1.06242 	 98.7364
| 26> C 	 -36.0061 	 0.369884 	 97.9884
| 27> C 	 -37.1876 	 0.345236 	 98.6944
| 28> H 	 -34.0085 	 0.992659 	 98.5498
| 29> C 	 -35.6787 	 -0.394615 	 96.7783
| 30> H 	 -35.9701 	 0.0697663 	 95.876
| 31> H 	 -36.3638 	 -1.28108 	 96.7443
| 32> C 	 -34.2023 	 -0.781586 	 96.5327
| 33> H 	 -33.8365 	 -1.42006 	 97.2502
| 34> H 	 -33.499 	 0.0357176 	 96.558
| 35> C 	 -34.0557 	 -1.58608 	 95.2256
| 36> H 	 -34.6333 	 -2.44224 	 95.2856
| 37> H 	 -33.0615 	 -2.01379 	 94.9779
| 38> H 	 -34.4077 	 -1.04575 	 94.258
| 39> H 	 -41.1674 	 -1.92441 	 96.7136
| 40> H 	 -34.8506 	 2.07648 	 100.67
| 41> *
| 42>
| 43>                          ****END OF INPUT****

CARTESIAN COORDINATES (ANGSTROEM)
---------------------------------
  S    -39.075000   -0.535085   96.780400
  C    -40.507600   -1.330960   97.331800
  C    -40.619200   -1.245020   98.719300
  C    -39.464800   -0.588754   99.293500
  C    -38.475200   -0.218920   98.376500
  H    -39.307500   -0.550335  100.398000
  C    -41.725600   -1.900540   99.457900
  H    -42.617100   -1.735610   98.817900
  H    -41.861400   -1.293390  100.340000
  C    -41.517700   -3.386940  100.005000
  H    -40.607200   -3.486040  100.575000
  H    -42.251300   -3.753770  100.715000
  C    -41.436100   -4.413990   98.815500
  H    -40.496200   -4.234290   98.272300
  H    -41.499200   -5.369260   99.306300
  H    -42.323600   -4.494810   98.162800
  S    -37.057500    1.210310  100.182000
  C    -35.478300    1.671250   99.867700
  C    -35.014800    1.062420   98.736400
  C    -36.006100    0.369884   97.988400
  C    -37.187600    0.345236   98.694400
  H    -34.008500    0.992659   98.549800
  C    -35.678700   -0.394615   96.778300
  H    -35.970100    0.069766   95.876000
  H    -36.363800   -1.281080   96.744300
  C    -34.202300   -0.781586   96.532700
  H    -33.836500   -1.420060   97.250200
  H    -33.499000    0.035718   96.558000
  C    -34.055700   -1.586080   95.225600
  H    -34.633300   -2.442240   95.285600
  H    -33.061500   -2.013790   94.977900
  H    -34.407700   -1.045750   94.258000
  H    -41.167400   -1.924410   96.713600
  H    -34.850600    2.076480  100.670000

 Total Charge           Charge          ....    0
 Multiplicity           Mult            ....    1
 Number of Electrons    NEL             ....  134
 Basis Dimension        Dim             ....  322

ORBITAL ENERGIES
----------------

  NO   OCC          E(Eh)            E(eV)
   0   2.0000     -88.967870     -2420.9388
   1   2.0000     -88.963257     -2420.8133
   2   2.0000     -10.330688      -281.1123
   3   2.0000     -10.322750      -280.8963
   4   2.0000     -10.311151      -280.5807
   5   2.0000     -10.310787      -280.5708
   6   2.0000     -10.301039      -280.3055
   7   2.0000     -10.298977      -280.2494
   8   2.0000     -10.297097      -280.1983
   9   2.0000     -10.293392      -280.0974
  10   2.0000     -10.293370      -280.0968
  11   2.0000     -10.289158      -279.9822
  12   2.0000     -10.283974      -279.8412
  13   2.0000     -10.283713      -279.8341
  14   2.0000     -10.280890      -279.7572
  15   2.0000     -10.278285      -279.6864
  16   2.0000      -8.082563      -219.9377
  17   2.0000      -8.080045      -219.8692
  18   2.0000      -6.041089      -164.3864
  19   2.0000      -6.038426      -164.3139
  20   2.0000      -6.036872      -164.2716
  21   2.0000      -6.034213      -164.1993
  22   2.0000      -6.033524      -164.1805
  23   2.0000      -6.030869      -164.1083
  24   2.0000      -1.018320       -27.7099
  25   2.0000      -0.991119       -26.9697
  26   2.0000      -0.916839       -24.9484
  27   2.0000      -0.906231       -24.6598
  28   2.0000      -0.872235       -23.7347
  29   2.0000      -0.858761       -23.3681
  30   2.0000      -0.845315       -23.0022
  31   2.0000      -0.812846       -22.1187
  32   2.0000      -0.784029       -21.3345
  33   2.0000      -0.772486       -21.0204
  34   2.0000      -0.718448       -19.5500
  35   2.0000      -0.709384       -19.3033
  36   2.0000      -0.694614       -18.9014
  37   2.0000      -0.666569       -18.1383
  38   2.0000      -0.631217       -17.1763
  39   2.0000      -0.619665       -16.8619
  40   2.0000      -0.608308       -16.5529
  41   2.0000      -0.569646       -15.5009
  42   2.0000      -0.566201       -15.4071
  43   2.0000      -0.549719       -14.9586
  44   2.0000      -0.535174       -14.5628
  45   2.0000      -0.527018       -14.3409
  46   2.0000      -0.521776       -14.1983
  47   2.0000      -0.515345       -14.0233
  48   2.0000      -0.511915       -13.9299
  49   2.0000      -0.492277       -13.3956
  50   2.0000      -0.485451       -13.2098
  51   2.0000      -0.474737       -12.9183
  52   2.0000      -0.470806       -12.8113
  53   2.0000      -0.468694       -12.7538
  54   2.0000      -0.462078       -12.5738
  55   2.0000      -0.457422       -12.4471
  56   2.0000      -0.449322       -12.2267
  57   2.0000      -0.437340       -11.9006
  58   2.0000      -0.430673       -11.7192
  59   2.0000      -0.429406       -11.6847
  60   2.0000      -0.425861       -11.5883
  61   2.0000      -0.420412       -11.4400
  62   2.0000      -0.407924       -11.1002
  63   2.0000      -0.360872        -9.8198
  64   2.0000      -0.329801        -8.9743
  65   2.0000      -0.326816        -8.8931
  66   2.0000      -0.283367        -7.7108
  67   0.0000       0.021913         0.5963
  68   0.0000       0.087223         2.3735
  69   0.0000       0.112436         3.0595
  70   0.0000       0.123558         3.3622
  71   0.0000       0.136035         3.7017

MULLIKEN ATOMIC CHARGES
-----------------------
   0 S :    0.111107
   1 C :   -0.122259
   2 C :   -0.108895
   3 C :   -0.019406
   4 C :   -0.125264
   5 H :    0.028777
   6 C :    0.066124
   7 H :    0.037423
   8 H :    0.019621
   9 C :   -0.056159
  10 H :    0.026437
  11 H :    0.030186
  12 C :   -0.078977
  13 H :    0.059401
  14 H :    0.023596
  15 H :    0.030634
  16 S :    0.109207
  17 C :   -0.074928
  18 C :   -0.022858
  19 C :   -0.028492
  20 C :   -0.130941
  21 H :   -0.014680
  22 C :    0.049315
  23 H :    0.021016
  24 H :    0.028941
  25 C :   -0.036680
  26 H :    0.012025
  27 H :    0.033800
  28 C :   -0.068432
  29 H :    0.012506
  30 H :    0.033516
  31 H :    0.038809
  32 H :    0.048753
  33 H :    0.066776
Sum of atomic charges:    0.0000000

LOEWDIN ATOMIC CHARGES
----------------------
   0 S :    0.430404
   1 C :   -0.209654
   2 C :   -0.064481
   3 C :   -0.082116
   4 C :   -0.196238
   5 H :    0.031335
   6 C :   -0.037090
   7 H :    0.037381
   8 H :    0.029743
   9 C :   -0.032432
  10 H :    0.024860
  11 H :    0.023501
  12 C :   -0.074150
  13 H :    0.030258
  14 H :    0.024033
  15 H :    0.024492
  16 S :    0.452952
  17 C :   -0.208488
  18 C :   -0.062743
  19 C :   -0.056773
  20 C :   -0.201508
  21 H :    0.015413
  22 C :   -0.038929
  23 H :    0.028633
  24 H :    0.033130
  25 C :   -0.030490
  26 H :    0.015761
  27 H :    0.022608
  28 C :   -0.067921
  29 H :    0.013771
  30 H :    0.029608
  31 H :    0.032392
  32 H :    0.028317
  33 H :    0.034422

  Mayer bond orders larger than 0.100000
B(  0-S ,  1-C ) :   1.1441 B(  0-S ,  4-C ) :   1.1527 B(  1-C ,  2-C ) :   1.5783
B(  1-C , 32-H ) :   0.9685 B(  2-C ,  3-C ) :   1.2799 B(  2-C ,  6-C ) :   1.0354
B(  3-C ,  4-C ) :   1.5209 B(  3-C ,  5-H ) :   0.9796 B(  4-C , 20-C ) :   1.0851
B(  6-C ,  7-H ) :   0.9467 B(  6-C ,  8-H ) :   0.9322 B(  6-C ,  9-C ) :   1.0496
B(  9-C , 10-H ) :   0.9566 B(  9-C , 11-H ) :   0.9628 B(  9-C , 12-C ) :   1.0739
B( 12-C , 13-H ) :   0.9765 B( 12-C , 14-H ) :   0.9736 B( 12-C , 15-H ) :   0.9773
B( 16-S , 17-C ) :   1.1805 B( 16-S , 20-C ) :   1.1576 B( 17-C , 18-C ) :   1.5737
B( 17-C , 33-H ) :   0.9597 B( 18-C , 19-C ) :   1.2704 B( 18-C , 21-H ) :   0.9972
B( 19-C , 20-C ) :   1.5503 B( 19-C , 22-C ) :   1.0481 B( 22-C , 23-H ) :   0.9163
B( 22-C , 24-H ) :   0.9272 B( 22-C , 25-C ) :   1.0687 B( 25-C , 26-H ) :   0.9515
B( 25-C , 27-H ) :   0.9465 B( 25-C , 28-C ) :   1.0820 B( 28-C , 29-H ) :   0.9734
B( 28-C , 30-H ) :   0.9737 B( 28-C , 31-H ) :   0.9749

Dispersion correction           -0.013835990
FINAL SINGLE POINT ENERGY     -1339.869970470621

DIPOLE MOMENT
-------------
                                X             Y             Z
Electronic contribution:     -0.69433      18.66489       5.83376
Nuclear contribution   :      0.85823     -19.20718      -5.64806
                        -----------------------------------------
Total Dipole Moment    :      0.16390      -0.54229       0.18569
                        -----------------------------------------
Magnitude (a.u.)       :      0.59617
Magnitude (Debye)      :      1.51535

Rotational constants in cm-1:     0.019965     0.007951     0.006446
Rotational constants in MHz :   598.538443   238.352285   193.231806

                             ****ORCA TERMINATED NORMALLY****
TOTAL RUN TIME: 0 days 0 hours 0 minutes 29 seconds 257 msec
