                         Program Version 4.2.1 -  RELEASE  -
|  1> ! wB97X-D3 SP def2-SVP
|  2> %pal
|  3> nprocs 16
|  4> end
|  5>
|  6> * xyz 0 1
|  7> S 	 40.2432 	 24.9676 	 92.8513
|  8> C 	 41.8492 	 25.65 	 93.0155
|  9> C 	 42.5306 	 25.1082 	 94.108
| 10> C 	 41.8833 	 23.9494 	 94.5393
| 11> C 	 40.6261 	 23.7479 	 94.0471
| 12> H 	 42.0069 	 23.311 	 95.474
| 13> C 	 43.7511 	 25.6432 	 94.7581
| 14> H 	 44.0795 	 25.1073 	 95.6087
| 15> H 	 43.3956 	 26.5886 	 95.1133
| 16> C 	 44.9697 	 25.9432 	 93.8851
| 17> H 	 44.6459 	 26.6782 	 93.1244
| 18> H 	 45.7836 	 26.4124 	 94.5138
| 19> C 	 45.5927 	 24.654 	 93.1834
| 20> H 	 45.9662 	 23.9523 	 93.9371
| 21> H 	 44.8381 	 24.1417 	 92.5341
| 22> H 	 46.4004 	 24.8788 	 92.4847
| 23> S 	 38.3435 	 23.58 	 95.2957
| 24> C 	 37.4436 	 22.0092 	 95.349
| 25> C 	 38.1824 	 20.9955 	 94.742
| 26> C 	 39.4858 	 21.3891 	 94.3021
| 27> C 	 39.6518 	 22.7931 	 94.4841
| 28> H 	 37.7596 	 20.0429 	 94.6233
| 29> C 	 40.4744 	 20.4595 	 93.7117
| 30> H 	 41.4602 	 20.4706 	 94.1376
| 31> H 	 40.7011 	 20.8376 	 92.7052
| 32> C 	 40.1098 	 18.991 	 93.5318
| 33> H 	 40.8667 	 18.5034 	 92.9368
| 34> H 	 39.2073 	 18.94 	 92.8925
| 35> C 	 39.8889 	 18.2592 	 94.8657
| 36> H 	 39.2633 	 17.4047 	 94.5857
| 37> H 	 39.4445 	 18.8275 	 95.6439
| 38> H 	 40.8999 	 17.9604 	 95.2164
| 39> H 	 42.2196 	 26.4734 	 92.4402
| 40> H 	 36.3871 	 21.8574 	 95.7211
| 41> *
| 42>
| 43>                          ****END OF INPUT****

CARTESIAN COORDINATES (ANGSTROEM)
---------------------------------
  S     40.243200   24.967600   92.851300
  C     41.849200   25.650000   93.015500
  C     42.530600   25.108200   94.108000
  C     41.883300   23.949400   94.539300
  C     40.626100   23.747900   94.047100
  H     42.006900   23.311000   95.474000
  C     43.751100   25.643200   94.758100
  H     44.079500   25.107300   95.608700
  H     43.395600   26.588600   95.113300
  C     44.969700   25.943200   93.885100
  H     44.645900   26.678200   93.124400
  H     45.783600   26.412400   94.513800
  C     45.592700   24.654000   93.183400
  H     45.966200   23.952300   93.937100
  H     44.838100   24.141700   92.534100
  H     46.400400   24.878800   92.484700
  S     38.343500   23.580000   95.295700
  C     37.443600   22.009200   95.349000
  C     38.182400   20.995500   94.742000
  C     39.485800   21.389100   94.302100
  C     39.651800   22.793100   94.484100
  H     37.759600   20.042900   94.623300
  C     40.474400   20.459500   93.711700
  H     41.460200   20.470600   94.137600
  H     40.701100   20.837600   92.705200
  C     40.109800   18.991000   93.531800
  H     40.866700   18.503400   92.936800
  H     39.207300   18.940000   92.892500
  C     39.888900   18.259200   94.865700
  H     39.263300   17.404700   94.585700
  H     39.444500   18.827500   95.643900
  H     40.899900   17.960400   95.216400
  H     42.219600   26.473400   92.440200
  H     36.387100   21.857400   95.721100

 Total Charge           Charge          ....    0
 Multiplicity           Mult            ....    1
 Number of Electrons    NEL             ....  134
 Basis Dimension        Dim             ....  322

ORBITAL ENERGIES
----------------

  NO   OCC          E(Eh)            E(eV)
   0   2.0000     -88.967422     -2420.9266
   1   2.0000     -88.966144     -2420.8919
   2   2.0000     -10.324067      -280.9321
   3   2.0000     -10.323401      -280.9140
   4   2.0000     -10.320783      -280.8428
   5   2.0000     -10.312564      -280.6191
   6   2.0000     -10.307924      -280.4929
   7   2.0000     -10.300478      -280.2903
   8   2.0000     -10.297431      -280.2073
   9   2.0000     -10.293381      -280.0971
  10   2.0000     -10.289715      -279.9974
  11   2.0000     -10.286125      -279.8997
  12   2.0000     -10.285511      -279.8830
  13   2.0000     -10.284836      -279.8646
  14   2.0000     -10.282009      -279.7877
  15   2.0000     -10.276465      -279.6368
  16   2.0000      -8.081376      -219.9054
  17   2.0000      -8.080775      -219.8891
  18   2.0000      -6.039930      -164.3548
  19   2.0000      -6.039134      -164.3332
  20   2.0000      -6.035933      -164.2461
  21   2.0000      -6.035351      -164.2302
  22   2.0000      -6.032178      -164.1439
  23   2.0000      -6.031629      -164.1290
  24   2.0000      -1.008735       -27.4491
  25   2.0000      -0.980369       -26.6772
  26   2.0000      -0.916167       -24.9302
  27   2.0000      -0.909869       -24.7588
  28   2.0000      -0.867217       -23.5982
  29   2.0000      -0.847477       -23.0610
  30   2.0000      -0.843705       -22.9584
  31   2.0000      -0.813791       -22.1444
  32   2.0000      -0.786487       -21.4014
  33   2.0000      -0.771231       -20.9863
  34   2.0000      -0.706487       -19.2245
  35   2.0000      -0.703167       -19.1342
  36   2.0000      -0.689741       -18.7688
  37   2.0000      -0.660080       -17.9617
  38   2.0000      -0.642872       -17.4934
  39   2.0000      -0.608587       -16.5605
  40   2.0000      -0.596629       -16.2351
  41   2.0000      -0.579309       -15.7638
  42   2.0000      -0.552507       -15.0345
  43   2.0000      -0.549911       -14.9638
  44   2.0000      -0.539853       -14.6901
  45   2.0000      -0.532949       -14.5023
  46   2.0000      -0.514970       -14.0131
  47   2.0000      -0.509261       -13.8577
  48   2.0000      -0.508019       -13.8239
  49   2.0000      -0.493783       -13.4365
  50   2.0000      -0.487854       -13.2752
  51   2.0000      -0.479719       -13.0538
  52   2.0000      -0.470843       -12.8123
  53   2.0000      -0.467266       -12.7150
  54   2.0000      -0.463958       -12.6249
  55   2.0000      -0.442952       -12.0533
  56   2.0000      -0.438183       -11.9236
  57   2.0000      -0.435448       -11.8491
  58   2.0000      -0.431690       -11.7469
  59   2.0000      -0.423960       -11.5365
  60   2.0000      -0.420152       -11.4329
  61   2.0000      -0.418607       -11.3909
  62   2.0000      -0.415618       -11.3095
  63   2.0000      -0.343095        -9.3361
  64   2.0000      -0.329059        -8.9542
  65   2.0000      -0.322083        -8.7643
  66   2.0000      -0.290485        -7.9045
  67   0.0000       0.033319         0.9067
  68   0.0000       0.053460         1.4547
  69   0.0000       0.110983         3.0200
  70   0.0000       0.120785         3.2867
  71   0.0000       0.127197         3.4612

MULLIKEN ATOMIC CHARGES
-----------------------
   0 S :    0.128970
   1 C :   -0.127864
   2 C :   -0.088805
   3 C :    0.025086
   4 C :   -0.189875
   5 H :    0.037024
   6 C :    0.126496
   7 H :    0.010274
   8 H :    0.030392
   9 C :   -0.111291
  10 H :    0.031255
  11 H :    0.042924
  12 C :   -0.075162
  13 H :    0.035035
  14 H :    0.044672
  15 H :    0.036423
  16 S :    0.110827
  17 C :   -0.113635
  18 C :   -0.037273
  19 C :    0.012428
  20 C :   -0.200892
  21 H :    0.007280
  22 C :    0.074759
  23 H :    0.023278
  24 H :    0.031118
  25 C :   -0.099889
  26 H :    0.029354
  27 H :    0.025421
  28 C :   -0.049067
  29 H :    0.038875
  30 H :    0.042166
  31 H :    0.032603
  32 H :    0.041245
  33 H :    0.075847
Sum of atomic charges:   -0.0000000

LOEWDIN ATOMIC CHARGES
----------------------
   0 S :    0.411206
   1 C :   -0.197660
   2 C :   -0.059938
   3 C :   -0.075723
   4 C :   -0.209791
   5 H :    0.046646
   6 C :   -0.030812
   7 H :    0.025385
   8 H :    0.038609
   9 C :   -0.039346
  10 H :    0.021568
  11 H :    0.030852
  12 C :   -0.074940
  13 H :    0.024577
  14 H :    0.030495
  15 H :    0.025013
  16 S :    0.403478
  17 C :   -0.187242
  18 C :   -0.065120
  19 C :   -0.048266
  20 C :   -0.207669
  21 H :    0.024534
  22 C :   -0.041795
  23 H :    0.031346
  24 H :    0.041400
  25 C :   -0.042663
  26 H :    0.026992
  27 H :    0.020554
  28 C :   -0.065237
  29 H :    0.030660
  30 H :    0.019852
  31 H :    0.030027
  32 H :    0.021190
  33 H :    0.041816

  Mayer bond orders larger than 0.100000
B(  0-S ,  1-C ) :   1.1504 B(  0-S ,  4-C ) :   1.1470 B(  1-C ,  2-C ) :   1.5759
B(  1-C ,  4-C ) :   0.1081 B(  1-C , 32-H ) :   0.9733 B(  2-C ,  3-C ) :   1.2522
B(  2-C ,  6-C ) :   1.0156 B(  3-C ,  4-C ) :   1.5897 B(  3-C ,  5-H ) :   0.9728
B(  4-C , 20-C ) :   1.0422 B(  6-C ,  7-H ) :   0.9437 B(  6-C ,  8-H ) :   0.9223
B(  6-C ,  9-C ) :   1.0816 B(  9-C , 10-H ) :   0.9566 B(  9-C , 11-H ) :   0.9566
B(  9-C , 12-C ) :   1.0649 B( 12-C , 13-H ) :   0.9772 B( 12-C , 14-H ) :   0.9752
B( 12-C , 15-H ) :   0.9779 B( 16-S , 17-C ) :   1.1334 B( 16-S , 20-C ) :   1.1690
B( 17-C , 18-C ) :   1.6127 B( 17-C , 20-C ) :   0.1086 B( 17-C , 33-H ) :   0.9575
B( 18-C , 19-C ) :   1.2476 B( 18-C , 21-H ) :   0.9848 B( 19-C , 20-C ) :   1.5587
B( 19-C , 22-C ) :   1.0460 B( 22-C , 23-H ) :   0.9294 B( 22-C , 24-H ) :   0.9095
B( 22-C , 25-C ) :   1.1001 B( 25-C , 26-H ) :   0.9523 B( 25-C , 27-H ) :   0.9551
B( 25-C , 28-C ) :   1.0575 B( 28-C , 29-H ) :   0.9762 B( 28-C , 30-H ) :   0.9808
B( 28-C , 31-H ) :   0.9729

Dispersion correction           -0.014120687
FINAL SINGLE POINT ENERGY     -1339.864801761550

DIPOLE MOMENT
-------------
                                X             Y             Z
Electronic contribution:    -20.18360      13.47803       0.94958
Nuclear contribution   :     20.56468     -13.72675      -0.88398
                        -----------------------------------------
Total Dipole Moment    :      0.38108      -0.24872       0.06560
                        -----------------------------------------
Magnitude (a.u.)       :      0.45977
Magnitude (Debye)      :      1.16864

Rotational constants in cm-1:     0.021264     0.007739     0.006308
Rotational constants in MHz :   637.493091   231.995383   189.123402

                             ****ORCA TERMINATED NORMALLY****
TOTAL RUN TIME: 0 days 0 hours 0 minutes 29 seconds 956 msec
