                         Program Version 4.2.1 -  RELEASE  -
|  1> ! wB97X-D3 SP def2-SVP
|  2> %pal
|  3> nprocs 16
|  4> end
|  5>
|  6> * xyz 0 1
|  7> S 	 41.3035 	 8.67687 	 83.3405
|  8> C 	 42.819 	 8.7864 	 82.4589
|  9> C 	 43.6311 	 9.71346 	 82.9738
| 10> C 	 43.1497 	 10.3505 	 84.2028
| 11> C 	 41.8899 	 9.83561 	 84.4715
| 12> H 	 43.5304 	 11.218 	 84.6978
| 13> C 	 44.9975 	 9.9913 	 82.5177
| 14> H 	 44.9179 	 9.90971 	 81.4296
| 15> H 	 45.5384 	 9.21895 	 82.9591
| 16> C 	 45.6462 	 11.3103 	 82.9942
| 17> H 	 45.7633 	 11.2819 	 84.0713
| 18> H 	 46.6944 	 11.3206 	 82.5879
| 19> C 	 44.9121 	 12.5605 	 82.5508
| 20> H 	 43.9404 	 12.625 	 82.9931
| 21> H 	 45.476 	 13.4854 	 82.6447
| 22> H 	 44.7207 	 12.4219 	 81.5102
| 23> S 	 39.7593 	 11.0269 	 85.8394
| 24> C 	 39.5105 	 10.6245 	 87.5218
| 25> C 	 40.4893 	 9.7929 	 87.9484
| 26> C 	 41.4323 	 9.37801 	 87.0099
| 27> C 	 41.137 	 9.92755 	 85.7531
| 28> H 	 40.4386 	 9.43487 	 88.9806
| 29> C 	 42.5781 	 8.44544 	 87.3878
| 30> H 	 43.4969 	 8.66052 	 86.8499
| 31> H 	 42.3137 	 7.4034 	 87.0744
| 32> C 	 43.0654 	 8.4534 	 88.8913
| 33> H 	 42.3596 	 8.12732 	 89.5723
| 34> H 	 43.347 	 9.41882 	 89.206
| 35> C 	 44.2757 	 7.47388 	 89.1801
| 36> H 	 44.0006 	 6.42482 	 89.0507
| 37> H 	 44.6304 	 7.63558 	 90.1893
| 38> H 	 45.1173 	 7.69402 	 88.4928
| 39> H 	 42.8899 	 8.27414 	 81.4858
| 40> H 	 38.6812 	 11.0227 	 88.0682
| 41> *
| 42>
| 43>                          ****END OF INPUT****

CARTESIAN COORDINATES (ANGSTROEM)
---------------------------------
  S     41.303500    8.676870   83.340500
  C     42.819000    8.786400   82.458900
  C     43.631100    9.713460   82.973800
  C     43.149700   10.350500   84.202800
  C     41.889900    9.835610   84.471500
  H     43.530400   11.218000   84.697800
  C     44.997500    9.991300   82.517700
  H     44.917900    9.909710   81.429600
  H     45.538400    9.218950   82.959100
  C     45.646200   11.310300   82.994200
  H     45.763300   11.281900   84.071300
  H     46.694400   11.320600   82.587900
  C     44.912100   12.560500   82.550800
  H     43.940400   12.625000   82.993100
  H     45.476000   13.485400   82.644700
  H     44.720700   12.421900   81.510200
  S     39.759300   11.026900   85.839400
  C     39.510500   10.624500   87.521800
  C     40.489300    9.792900   87.948400
  C     41.432300    9.378010   87.009900
  C     41.137000    9.927550   85.753100
  H     40.438600    9.434870   88.980600
  C     42.578100    8.445440   87.387800
  H     43.496900    8.660520   86.849900
  H     42.313700    7.403400   87.074400
  C     43.065400    8.453400   88.891300
  H     42.359600    8.127320   89.572300
  H     43.347000    9.418820   89.206000
  C     44.275700    7.473880   89.180100
  H     44.000600    6.424820   89.050700
  H     44.630400    7.635580   90.189300
  H     45.117300    7.694020   88.492800
  H     42.889900    8.274140   81.485800
  H     38.681200   11.022700   88.068200

 Total Charge           Charge          ....    0
 Multiplicity           Mult            ....    1
 Number of Electrons    NEL             ....  134
 Basis Dimension        Dim             ....  322

ORBITAL ENERGIES
----------------

  NO   OCC          E(Eh)            E(eV)
   0   2.0000     -88.961404     -2420.7629
   1   2.0000     -88.960892     -2420.7490
   2   2.0000     -10.326810      -281.0068
   3   2.0000     -10.325285      -280.9653
   4   2.0000     -10.310500      -280.5630
   5   2.0000     -10.307186      -280.4728
   6   2.0000     -10.301976      -280.3310
   7   2.0000     -10.296862      -280.1919
   8   2.0000     -10.295643      -280.1587
   9   2.0000     -10.294984      -280.1407
  10   2.0000     -10.289649      -279.9956
  11   2.0000     -10.285418      -279.8805
  12   2.0000     -10.282949      -279.8133
  13   2.0000     -10.282869      -279.8111
  14   2.0000     -10.282047      -279.7887
  15   2.0000     -10.270674      -279.4792
  16   2.0000      -8.076543      -219.7739
  17   2.0000      -8.076180      -219.7640
  18   2.0000      -6.034934      -164.2189
  19   2.0000      -6.034513      -164.2074
  20   2.0000      -6.031023      -164.1125
  21   2.0000      -6.030659      -164.1026
  22   2.0000      -6.027271      -164.0104
  23   2.0000      -6.027170      -164.0076
  24   2.0000      -1.006181       -27.3796
  25   2.0000      -0.986568       -26.8459
  26   2.0000      -0.919125       -25.0107
  27   2.0000      -0.899652       -24.4808
  28   2.0000      -0.868223       -23.6255
  29   2.0000      -0.848212       -23.0810
  30   2.0000      -0.844655       -22.9842
  31   2.0000      -0.817075       -22.2337
  32   2.0000      -0.784727       -21.3535
  33   2.0000      -0.771026       -20.9807
  34   2.0000      -0.710812       -19.3422
  35   2.0000      -0.705294       -19.1920
  36   2.0000      -0.688823       -18.7438
  37   2.0000      -0.649571       -17.6757
  38   2.0000      -0.642644       -17.4872
  39   2.0000      -0.620622       -16.8880
  40   2.0000      -0.602441       -16.3933
  41   2.0000      -0.568612       -15.4727
  42   2.0000      -0.564212       -15.3530
  43   2.0000      -0.558646       -15.2015
  44   2.0000      -0.537739       -14.6326
  45   2.0000      -0.524933       -14.2842
  46   2.0000      -0.519982       -14.1494
  47   2.0000      -0.509208       -13.8562
  48   2.0000      -0.504586       -13.7305
  49   2.0000      -0.501923       -13.6580
  50   2.0000      -0.484273       -13.1777
  51   2.0000      -0.478218       -13.0130
  52   2.0000      -0.467116       -12.7109
  53   2.0000      -0.465139       -12.6571
  54   2.0000      -0.454016       -12.3544
  55   2.0000      -0.449251       -12.2247
  56   2.0000      -0.446401       -12.1472
  57   2.0000      -0.438407       -11.9297
  58   2.0000      -0.435767       -11.8578
  59   2.0000      -0.425526       -11.5792
  60   2.0000      -0.424573       -11.5532
  61   2.0000      -0.418556       -11.3895
  62   2.0000      -0.413209       -11.2440
  63   2.0000      -0.334539        -9.1033
  64   2.0000      -0.328373        -8.9355
  65   2.0000      -0.321553        -8.7499
  66   2.0000      -0.307170        -8.3585
  67   0.0000       0.044942         1.2229
  68   0.0000       0.060349         1.6422
  69   0.0000       0.117548         3.1986
  70   0.0000       0.124982         3.4009
  71   0.0000       0.129916         3.5352

MULLIKEN ATOMIC CHARGES
-----------------------
   0 S :    0.108788
   1 C :   -0.158433
   2 C :   -0.106754
   3 C :    0.042694
   4 C :   -0.154878
   5 H :    0.026357
   6 C :    0.098799
   7 H :    0.028481
   8 H :    0.034161
   9 C :   -0.104950
  10 H :    0.026964
  11 H :    0.035911
  12 C :   -0.022720
  13 H :    0.029847
  14 H :    0.040430
  15 H :    0.015653
  16 S :    0.099677
  17 C :   -0.087324
  18 C :   -0.046387
  19 C :    0.024282
  20 C :   -0.205093
  21 H :    0.019979
  22 C :    0.070741
  23 H :    0.023134
  24 H :    0.045017
  25 C :   -0.067975
  26 H :    0.017938
  27 H :    0.022695
  28 C :   -0.068086
  29 H :    0.037667
  30 H :    0.034959
  31 H :    0.030883
  32 H :    0.056859
  33 H :    0.050687
Sum of atomic charges:   -0.0000000

LOEWDIN ATOMIC CHARGES
----------------------
   0 S :    0.412007
   1 C :   -0.205173
   2 C :   -0.062910
   3 C :   -0.061881
   4 C :   -0.194014
   5 H :    0.033560
   6 C :   -0.029726
   7 H :    0.032666
   8 H :    0.033806
   9 C :   -0.043242
  10 H :    0.018548
  11 H :    0.032555
  12 C :   -0.064408
  13 H :    0.022567
  14 H :    0.028798
  15 H :    0.024340
  16 S :    0.399119
  17 C :   -0.181622
  18 C :   -0.078174
  19 C :   -0.057033
  20 C :   -0.204866
  21 H :    0.034089
  22 C :   -0.029509
  23 H :    0.030396
  24 H :    0.040211
  25 C :   -0.030148
  26 H :    0.010912
  27 H :    0.018450
  28 C :   -0.061551
  29 H :    0.024602
  30 H :    0.025669
  31 H :    0.024047
  32 H :    0.032080
  33 H :    0.025834

  Mayer bond orders larger than 0.100000
B(  0-S ,  1-C ) :   1.1125 B(  0-S ,  4-C ) :   1.1881 B(  1-C ,  2-C ) :   1.6644
B(  1-C , 32-H ) :   0.9691 B(  2-C ,  3-C ) :   1.1870 B(  2-C ,  6-C ) :   1.0029
B(  3-C ,  4-C ) :   1.6015 B(  3-C ,  5-H ) :   0.9933 B(  4-C , 20-C ) :   0.9652
B(  6-C ,  7-H ) :   0.9390 B(  6-C ,  8-H ) :   0.9270 B(  6-C ,  9-C ) :   1.0976
B(  9-C , 10-H ) :   0.9430 B(  9-C , 11-H ) :   0.9519 B(  9-C , 12-C ) :   1.0798
B( 12-C , 13-H ) :   0.9703 B( 12-C , 14-H ) :   0.9738 B( 12-C , 15-H ) :   0.9704
B( 16-S , 17-C ) :   1.1552 B( 16-S , 20-C ) :   1.1674 B( 17-C , 18-C ) :   1.5907
B( 17-C , 20-C ) :   0.1041 B( 17-C , 33-H ) :   0.9720 B( 18-C , 19-C ) :   1.2702
B( 18-C , 21-H ) :   0.9855 B( 19-C , 20-C ) :   1.5805 B( 19-C , 22-C ) :   1.0315
B( 22-C , 23-H ) :   0.9371 B( 22-C , 24-H ) :   0.9315 B( 22-C , 25-C ) :   1.0647
B( 25-C , 26-H ) :   0.9493 B( 25-C , 27-H ) :   0.9607 B( 25-C , 28-C ) :   1.0832
B( 28-C , 29-H ) :   0.9784 B( 28-C , 30-H ) :   0.9754 B( 28-C , 31-H ) :   0.9773

Dispersion correction           -0.014138765
FINAL SINGLE POINT ENERGY     -1339.876159078678

DIPOLE MOMENT
-------------
                                X             Y             Z
Electronic contribution:    -24.24595       0.44959      -7.15926
Nuclear contribution   :     24.83259      -0.49338       7.38542
                        -----------------------------------------
Total Dipole Moment    :      0.58664      -0.04379       0.22616
                        -----------------------------------------
Magnitude (a.u.)       :      0.63025
Magnitude (Debye)      :      1.60196

Rotational constants in cm-1:     0.016256     0.008870     0.007301
Rotational constants in MHz :   487.350444   265.926733   218.887488

                             ****ORCA TERMINATED NORMALLY****
TOTAL RUN TIME: 0 days 0 hours 0 minutes 30 seconds 73 msec
