                         Program Version 4.2.1 -  RELEASE  -
|  1> ! wB97X-D3 SP def2-SVP
|  2> %pal
|  3> nprocs 16
|  4> end
|  5>
|  6> * xyz 0 1
|  7> S 	 45.8735 	 10.2496 	 76.7831
|  8> C 	 45.4517 	 9.54611 	 78.3137
|  9> C 	 46.0906 	 10.1916 	 79.3523
| 10> C 	 46.8089 	 11.3534 	 78.8711
| 11> C 	 46.8104 	 11.5603 	 77.5293
| 12> H 	 47.301 	 12.128 	 79.4238
| 13> C 	 46.0137 	 9.82492 	 80.8146
| 14> H 	 45.037 	 10.1092 	 81.1696
| 15> H 	 46.7273 	 10.5346 	 81.2158
| 16> C 	 46.3015 	 8.34404 	 81.1667
| 17> H 	 45.8122 	 7.6468 	 80.445
| 18> H 	 47.3367 	 8.20027 	 80.8934
| 19> C 	 46.2501 	 8.01051 	 82.7051
| 20> H 	 45.3663 	 8.24886 	 83.2579
| 21> H 	 46.3458 	 6.97121 	 82.9083
| 22> H 	 47.1289 	 8.29812 	 83.2236
| 23> S 	 48.4142 	 11.8884 	 75.346
| 24> C 	 48.9067 	 13.5485 	 74.8309
| 25> C 	 48.6176 	 14.4194 	 75.869
| 26> C 	 47.8797 	 13.8426 	 76.9622
| 27> C 	 47.6191 	 12.502 	 76.7664
| 28> H 	 48.91 	 15.4597 	 75.7483
| 29> C 	 47.3882 	 14.653 	 78.1527
| 30> H 	 48.1312 	 14.4554 	 78.9021
| 31> H 	 46.4451 	 14.2748 	 78.4688
| 32> C 	 47.184 	 16.1723 	 77.9825
| 33> H 	 46.5391 	 16.4745 	 78.8026
| 34> H 	 46.5527 	 16.4008 	 77.0793
| 35> C 	 48.4916 	 17.0312 	 78.1918
| 36> H 	 48.2842 	 18.0648 	 78.4906
| 37> H 	 49.043 	 16.9201 	 77.3114
| 38> H 	 49.0287 	 16.5777 	 79.017
| 39> H 	 44.9353 	 8.60372 	 78.462
| 40> H 	 49.4746 	 13.7267 	 73.9228
| 41> *
| 42>
| 43>                          ****END OF INPUT****

CARTESIAN COORDINATES (ANGSTROEM)
---------------------------------
  S     45.873500   10.249600   76.783100
  C     45.451700    9.546110   78.313700
  C     46.090600   10.191600   79.352300
  C     46.808900   11.353400   78.871100
  C     46.810400   11.560300   77.529300
  H     47.301000   12.128000   79.423800
  C     46.013700    9.824920   80.814600
  H     45.037000   10.109200   81.169600
  H     46.727300   10.534600   81.215800
  C     46.301500    8.344040   81.166700
  H     45.812200    7.646800   80.445000
  H     47.336700    8.200270   80.893400
  C     46.250100    8.010510   82.705100
  H     45.366300    8.248860   83.257900
  H     46.345800    6.971210   82.908300
  H     47.128900    8.298120   83.223600
  S     48.414200   11.888400   75.346000
  C     48.906700   13.548500   74.830900
  C     48.617600   14.419400   75.869000
  C     47.879700   13.842600   76.962200
  C     47.619100   12.502000   76.766400
  H     48.910000   15.459700   75.748300
  C     47.388200   14.653000   78.152700
  H     48.131200   14.455400   78.902100
  H     46.445100   14.274800   78.468800
  C     47.184000   16.172300   77.982500
  H     46.539100   16.474500   78.802600
  H     46.552700   16.400800   77.079300
  C     48.491600   17.031200   78.191800
  H     48.284200   18.064800   78.490600
  H     49.043000   16.920100   77.311400
  H     49.028700   16.577700   79.017000
  H     44.935300    8.603720   78.462000
  H     49.474600   13.726700   73.922800

 Total Charge           Charge          ....    0
 Multiplicity           Mult            ....    1
 Number of Electrons    NEL             ....  134
 Basis Dimension        Dim             ....  322

ORBITAL ENERGIES
----------------

  NO   OCC          E(Eh)            E(eV)
   0   2.0000     -88.963880     -2420.8303
   1   2.0000     -88.962423     -2420.7906
   2   2.0000     -10.328089      -281.0416
   3   2.0000     -10.326826      -281.0072
   4   2.0000     -10.322438      -280.8878
   5   2.0000     -10.312633      -280.6210
   6   2.0000     -10.304168      -280.3907
   7   2.0000     -10.301551      -280.3194
   8   2.0000     -10.298910      -280.2476
   9   2.0000     -10.296378      -280.1787
  10   2.0000     -10.292589      -280.0756
  11   2.0000     -10.291535      -280.0469
  12   2.0000     -10.290939      -280.0307
  13   2.0000     -10.290709      -280.0244
  14   2.0000     -10.279214      -279.7116
  15   2.0000     -10.276173      -279.6289
  16   2.0000      -8.078322      -219.8223
  17   2.0000      -8.076705      -219.7783
  18   2.0000      -6.036951      -164.2738
  19   2.0000      -6.035321      -164.2294
  20   2.0000      -6.032767      -164.1599
  21   2.0000      -6.031282      -164.1195
  22   2.0000      -6.029067      -164.0593
  23   2.0000      -6.027357      -164.0127
  24   2.0000      -1.006039       -27.3757
  25   2.0000      -0.981721       -26.7140
  26   2.0000      -0.908904       -24.7325
  27   2.0000      -0.906289       -24.6614
  28   2.0000      -0.870595       -23.6901
  29   2.0000      -0.850155       -23.1339
  30   2.0000      -0.841738       -22.9049
  31   2.0000      -0.819949       -22.3120
  32   2.0000      -0.785901       -21.3855
  33   2.0000      -0.776052       -21.1174
  34   2.0000      -0.716769       -19.5043
  35   2.0000      -0.706437       -19.2231
  36   2.0000      -0.696268       -18.9464
  37   2.0000      -0.661676       -18.0051
  38   2.0000      -0.642295       -17.4777
  39   2.0000      -0.613942       -16.7062
  40   2.0000      -0.596153       -16.2222
  41   2.0000      -0.567306       -15.4372
  42   2.0000      -0.560290       -15.2463
  43   2.0000      -0.555242       -15.1089
  44   2.0000      -0.540738       -14.7142
  45   2.0000      -0.523335       -14.2407
  46   2.0000      -0.517591       -14.0844
  47   2.0000      -0.514374       -13.9968
  48   2.0000      -0.509977       -13.8772
  49   2.0000      -0.502930       -13.6854
  50   2.0000      -0.498879       -13.5752
  51   2.0000      -0.479377       -13.0445
  52   2.0000      -0.475365       -12.9353
  53   2.0000      -0.466100       -12.6832
  54   2.0000      -0.462488       -12.5849
  55   2.0000      -0.449573       -12.2335
  56   2.0000      -0.442513       -12.0414
  57   2.0000      -0.436033       -11.8651
  58   2.0000      -0.433992       -11.8095
  59   2.0000      -0.425080       -11.5670
  60   2.0000      -0.421428       -11.4676
  61   2.0000      -0.413256       -11.2453
  62   2.0000      -0.411170       -11.1885
  63   2.0000      -0.355468        -9.6728
  64   2.0000      -0.329230        -8.9588
  65   2.0000      -0.326560        -8.8861
  66   2.0000      -0.290633        -7.9085
  67   0.0000       0.026065         0.7093
  68   0.0000       0.075639         2.0582
  69   0.0000       0.108259         2.9459
  70   0.0000       0.126520         3.4428
  71   0.0000       0.137552         3.7430

MULLIKEN ATOMIC CHARGES
-----------------------
   0 S :    0.104325
   1 C :   -0.117961
   2 C :   -0.109902
   3 C :    0.019962
   4 C :   -0.144784
   5 H :   -0.001985
   6 C :    0.109739
   7 H :    0.036237
   8 H :    0.017093
   9 C :   -0.093659
  10 H :    0.036618
  11 H :    0.024449
  12 C :   -0.015032
  13 H :    0.031815
  14 H :    0.011397
  15 H :    0.023659
  16 S :    0.088673
  17 C :   -0.108584
  18 C :   -0.035907
  19 C :   -0.034138
  20 C :   -0.150596
  21 H :    0.024202
  22 C :    0.060637
  23 H :    0.040848
  24 H :    0.031591
  25 C :   -0.102105
  26 H :    0.023283
  27 H :    0.046036
  28 C :   -0.021128
  29 H :    0.044030
  30 H :    0.020122
  31 H :    0.023734
  32 H :    0.052144
  33 H :    0.065187
Sum of atomic charges:   -0.0000000

LOEWDIN ATOMIC CHARGES
----------------------
   0 S :    0.397437
   1 C :   -0.199805
   2 C :   -0.064186
   3 C :   -0.065687
   4 C :   -0.186283
   5 H :    0.026547
   6 C :   -0.030050
   7 H :    0.030388
   8 H :    0.030643
   9 C :   -0.040632
  10 H :    0.027021
  11 H :    0.028092
  12 C :   -0.067828
  13 H :    0.023018
  14 H :    0.027401
  15 H :    0.026496
  16 S :    0.382678
  17 C :   -0.168544
  18 C :   -0.070258
  19 C :   -0.058957
  20 C :   -0.195489
  21 H :    0.032220
  22 C :   -0.029775
  23 H :    0.030802
  24 H :    0.030970
  25 C :   -0.044660
  26 H :    0.024974
  27 H :    0.031326
  28 C :   -0.057334
  29 H :    0.029915
  30 H :    0.011897
  31 H :    0.025862
  32 H :    0.030259
  33 H :    0.031544

  Mayer bond orders larger than 0.100000
B(  0-S ,  1-C ) :   1.1409 B(  0-S ,  4-C ) :   1.1309 B(  1-C ,  2-C ) :   1.6112
B(  1-C , 32-H ) :   0.9665 B(  2-C ,  3-C ) :   1.2339 B(  2-C ,  6-C ) :   1.0087
B(  3-C ,  4-C ) :   1.5936 B(  3-C ,  5-H ) :   0.9899 B(  4-C , 20-C ) :   1.0539
B(  6-C ,  7-H ) :   0.9349 B(  6-C ,  8-H ) :   0.9433 B(  6-C ,  9-C ) :   1.0523
B(  9-C , 10-H ) :   0.9635 B(  9-C , 11-H ) :   0.9548 B(  9-C , 12-C ) :   1.0728
B( 12-C , 13-H ) :   0.9791 B( 12-C , 14-H ) :   0.9680 B( 12-C , 15-H ) :   0.9737
B( 16-S , 17-C ) :   1.1338 B( 16-S , 20-C ) :   1.1407 B( 17-C , 18-C ) :   1.6138
B( 17-C , 33-H ) :   0.9706 B( 18-C , 19-C ) :   1.2307 B( 18-C , 21-H ) :   0.9833
B( 19-C , 20-C ) :   1.6052 B( 19-C , 22-C ) :   1.0323 B( 22-C , 23-H ) :   0.9259
B( 22-C , 24-H ) :   0.9297 B( 22-C , 25-C ) :   1.0812 B( 25-C , 26-H ) :   0.9548
B( 25-C , 27-H ) :   0.9580 B( 25-C , 28-C ) :   1.0585 B( 28-C , 29-H ) :   0.9750
B( 28-C , 30-H ) :   0.9839 B( 28-C , 31-H ) :   0.9716

Dispersion correction           -0.013487428
FINAL SINGLE POINT ENERGY     -1339.869741552084

DIPOLE MOMENT
-------------
                                X             Y             Z
Electronic contribution:      0.12036      -7.53798     -24.84289
Nuclear contribution   :     -0.00404       7.82022      25.54250
                        -----------------------------------------
Total Dipole Moment    :      0.11632       0.28224       0.69961
                        -----------------------------------------
Magnitude (a.u.)       :      0.76331
Magnitude (Debye)      :      1.94019

Rotational constants in cm-1:     0.020818     0.007069     0.005718
Rotational constants in MHz :   624.099742   211.914220   171.411156

                             ****ORCA TERMINATED NORMALLY****
TOTAL RUN TIME: 0 days 0 hours 0 minutes 26 seconds 884 msec
