                         Program Version 4.2.1 -  RELEASE  -
|  1> ! wB97X-D3 SP def2-SVP
|  2> %pal
|  3> nprocs 16
|  4> end
|  5>
|  6> * xyz 0 1
|  7> S 	 38.435 	 9.33868 	 79.5799
|  8> C 	 39.1435 	 7.96645 	 78.7697
|  9> C 	 40.4767 	 7.7178 	 79.2214
| 10> C 	 40.9088 	 8.77381 	 80.1306
| 11> C 	 39.9363 	 9.71861 	 80.3843
| 12> H 	 41.8675 	 8.8243 	 80.5742
| 13> C 	 41.368 	 6.53078 	 78.8188
| 14> H 	 41.2398 	 5.6884 	 79.4594
| 15> H 	 42.4329 	 6.71283 	 78.785
| 16> C 	 41.1482 	 5.98357 	 77.3445
| 17> H 	 41.5561 	 4.95275 	 77.184
| 18> H 	 40.0812 	 5.72827 	 77.1618
| 19> C 	 41.7358 	 6.91984 	 76.3581
| 20> H 	 42.6751 	 7.41226 	 76.6693
| 21> H 	 41.8314 	 6.41426 	 75.3965
| 22> H 	 41.1974 	 7.89426 	 76.3398
| 23> S 	 39.1249 	 12.4302 	 80.6406
| 24> C 	 39.7354 	 13.3467 	 82.0967
| 25> C 	 40.6771 	 12.6118 	 82.6879
| 26> C 	 40.854 	 11.2835 	 82.2954
| 27> C 	 40.0275 	 10.9914 	 81.1661
| 28> H 	 41.1883 	 13.0081 	 83.5877
| 29> C 	 41.8168 	 10.4212 	 83.0536
| 30> H 	 41.8047 	 9.36324 	 82.6504
| 31> H 	 41.4239 	 10.4634 	 84.103
| 32> C 	 43.2734 	 10.9026 	 82.8537
| 33> H 	 44.0285 	 10.2564 	 83.432
| 34> H 	 43.4051 	 11.7257 	 83.5536
| 35> C 	 43.7363 	 11.2313 	 81.4318
| 36> H 	 44.7763 	 11.5456 	 81.4998
| 37> H 	 43.1093 	 12.0836 	 81.0776
| 38> H 	 43.8276 	 10.4071 	 80.6875
| 39> H 	 38.4681 	 7.39481 	 78.1741
| 40> H 	 39.8628 	 14.4494 	 82.124
| 41> *
| 42>
| 43>                          ****END OF INPUT****

CARTESIAN COORDINATES (ANGSTROEM)
---------------------------------
  S     38.435000    9.338680   79.579900
  C     39.143500    7.966450   78.769700
  C     40.476700    7.717800   79.221400
  C     40.908800    8.773810   80.130600
  C     39.936300    9.718610   80.384300
  H     41.867500    8.824300   80.574200
  C     41.368000    6.530780   78.818800
  H     41.239800    5.688400   79.459400
  H     42.432900    6.712830   78.785000
  C     41.148200    5.983570   77.344500
  H     41.556100    4.952750   77.184000
  H     40.081200    5.728270   77.161800
  C     41.735800    6.919840   76.358100
  H     42.675100    7.412260   76.669300
  H     41.831400    6.414260   75.396500
  H     41.197400    7.894260   76.339800
  S     39.124900   12.430200   80.640600
  C     39.735400   13.346700   82.096700
  C     40.677100   12.611800   82.687900
  C     40.854000   11.283500   82.295400
  C     40.027500   10.991400   81.166100
  H     41.188300   13.008100   83.587700
  C     41.816800   10.421200   83.053600
  H     41.804700    9.363240   82.650400
  H     41.423900   10.463400   84.103000
  C     43.273400   10.902600   82.853700
  H     44.028500   10.256400   83.432000
  H     43.405100   11.725700   83.553600
  C     43.736300   11.231300   81.431800
  H     44.776300   11.545600   81.499800
  H     43.109300   12.083600   81.077600
  H     43.827600   10.407100   80.687500
  H     38.468100    7.394810   78.174100
  H     39.862800   14.449400   82.124000

 Total Charge           Charge          ....    0
 Multiplicity           Mult            ....    1
 Number of Electrons    NEL             ....  134
 Basis Dimension        Dim             ....  322

ORBITAL ENERGIES
----------------

  NO   OCC          E(Eh)            E(eV)
   0   2.0000     -88.967679     -2420.9336
   1   2.0000     -88.966757     -2420.9085
   2   2.0000     -10.339978      -281.3651
   3   2.0000     -10.334172      -281.2071
   4   2.0000     -10.320211      -280.8272
   5   2.0000     -10.317372      -280.7500
   6   2.0000     -10.317270      -280.7472
   7   2.0000     -10.302426      -280.3433
   8   2.0000     -10.302089      -280.3341
   9   2.0000     -10.297285      -280.2034
  10   2.0000     -10.297087      -280.1980
  11   2.0000     -10.295814      -280.1633
  12   2.0000     -10.290805      -280.0270
  13   2.0000     -10.290572      -280.0207
  14   2.0000     -10.286891      -279.9205
  15   2.0000     -10.274621      -279.5866
  16   2.0000      -8.081827      -219.9177
  17   2.0000      -8.080770      -219.8889
  18   2.0000      -6.040238      -164.3632
  19   2.0000      -6.039499      -164.3431
  20   2.0000      -6.036214      -164.2537
  21   2.0000      -6.035595      -164.2369
  22   2.0000      -6.032752      -164.1595
  23   2.0000      -6.031282      -164.1195
  24   2.0000      -1.001857       -27.2619
  25   2.0000      -0.981226       -26.7005
  26   2.0000      -0.910700       -24.7814
  27   2.0000      -0.907996       -24.7078
  28   2.0000      -0.866310       -23.5735
  29   2.0000      -0.851349       -23.1664
  30   2.0000      -0.843444       -22.9513
  31   2.0000      -0.815582       -22.1931
  32   2.0000      -0.782308       -21.2877
  33   2.0000      -0.772208       -21.0128
  34   2.0000      -0.705347       -19.1935
  35   2.0000      -0.702755       -19.1229
  36   2.0000      -0.690205       -18.7814
  37   2.0000      -0.660907       -17.9842
  38   2.0000      -0.642876       -17.4935
  39   2.0000      -0.617830       -16.8120
  40   2.0000      -0.588250       -16.0071
  41   2.0000      -0.568774       -15.4771
  42   2.0000      -0.561415       -15.2769
  43   2.0000      -0.558363       -15.1938
  44   2.0000      -0.539592       -14.6831
  45   2.0000      -0.529971       -14.4213
  46   2.0000      -0.513466       -13.9721
  47   2.0000      -0.509222       -13.8566
  48   2.0000      -0.502669       -13.6783
  49   2.0000      -0.491552       -13.3758
  50   2.0000      -0.486955       -13.2507
  51   2.0000      -0.478979       -13.0337
  52   2.0000      -0.471597       -12.8328
  53   2.0000      -0.468939       -12.7605
  54   2.0000      -0.465558       -12.6685
  55   2.0000      -0.446751       -12.1567
  56   2.0000      -0.444882       -12.1059
  57   2.0000      -0.438338       -11.9278
  58   2.0000      -0.434456       -11.8221
  59   2.0000      -0.423712       -11.5298
  60   2.0000      -0.418609       -11.3909
  61   2.0000      -0.400734       -10.9045
  62   2.0000      -0.399515       -10.8714
  63   2.0000      -0.358621        -9.7586
  64   2.0000      -0.334281        -9.0963
  65   2.0000      -0.329404        -8.9635
  66   2.0000      -0.285981        -7.7819
  67   0.0000       0.017892         0.4869
  68   0.0000       0.072975         1.9858
  69   0.0000       0.097270         2.6469
  70   0.0000       0.111656         3.0383
  71   0.0000       0.128610         3.4997

MULLIKEN ATOMIC CHARGES
-----------------------
   0 S :    0.104970
   1 C :   -0.127418
   2 C :   -0.064059
   3 C :    0.032251
   4 C :   -0.133232
   5 H :   -0.015745
   6 C :    0.061738
   7 H :    0.037763
   8 H :    0.026149
   9 C :   -0.113429
  10 H :    0.026378
  11 H :    0.026972
  12 C :   -0.040631
  13 H :    0.017380
  14 H :    0.044546
  15 H :    0.034500
  16 S :    0.081873
  17 C :   -0.082121
  18 C :   -0.067818
  19 C :   -0.068955
  20 C :   -0.123350
  21 H :    0.032002
  22 C :    0.060238
  23 H :    0.037252
  24 H :    0.054158
  25 C :   -0.119599
  26 H :    0.030706
  27 H :    0.017352
  28 C :   -0.042821
  29 H :    0.030523
  30 H :    0.063934
  31 H :    0.047374
  32 H :    0.051710
  33 H :    0.079407
Sum of atomic charges:    0.0000000

LOEWDIN ATOMIC CHARGES
----------------------
   0 S :    0.413937
   1 C :   -0.194289
   2 C :   -0.051950
   3 C :   -0.062537
   4 C :   -0.186676
   5 H :    0.020951
   6 C :   -0.028565
   7 H :    0.030427
   8 H :    0.028541
   9 C :   -0.050473
  10 H :    0.026962
  11 H :    0.022470
  12 C :   -0.079038
  13 H :    0.026933
  14 H :    0.028518
  15 H :    0.033644
  16 S :    0.361485
  17 C :   -0.184053
  18 C :   -0.071281
  19 C :   -0.069055
  20 C :   -0.178981
  21 H :    0.037055
  22 C :   -0.038270
  23 H :    0.034570
  24 H :    0.043610
  25 C :   -0.057531
  26 H :    0.030929
  27 H :    0.020905
  28 C :   -0.071010
  29 H :    0.030734
  30 H :    0.038223
  31 H :    0.029674
  32 H :    0.019408
  33 H :    0.044732

  Mayer bond orders larger than 0.100000
B(  0-S ,  1-C ) :   1.1536 B(  0-S ,  4-C ) :   1.1612 B(  1-C ,  2-C ) :   1.5677
B(  1-C , 32-H ) :   0.9770 B(  2-C ,  3-C ) :   1.2500 B(  2-C ,  6-C ) :   1.0134
B(  3-C ,  4-C ) :   1.5660 B(  3-C ,  5-H ) :   0.9934 B(  4-C , 20-C ) :   1.0367
B(  6-C ,  7-H ) :   0.9361 B(  6-C ,  8-H ) :   0.9556 B(  6-C ,  9-C ) :   1.0732
B(  9-C , 10-H ) :   0.9572 B(  9-C , 11-H ) :   0.9487 B(  9-C , 12-C ) :   1.0783
B( 12-C , 13-H ) :   0.9688 B( 12-C , 14-H ) :   0.9740 B( 12-C , 15-H ) :   0.9667
B( 16-S , 17-C ) :   1.1031 B( 16-S , 20-C ) :   1.1584 B( 17-C , 18-C ) :   1.6573
B( 17-C , 33-H ) :   0.9483 B( 18-C , 19-C ) :   1.2588 B( 18-C , 21-H ) :   0.9700
B( 19-C , 20-C ) :   1.5564 B( 19-C , 22-C ) :   1.0320 B( 22-C , 23-H ) :   0.9340
B( 22-C , 24-H ) :   0.9396 B( 22-C , 25-C ) :   1.0575 B( 25-C , 26-H ) :   0.9547
B( 25-C , 27-H ) :   0.9483 B( 25-C , 28-C ) :   1.0742 B( 28-C , 29-H ) :   0.9663
B( 28-C , 30-H ) :   0.9661 B( 28-C , 31-H ) :   0.9712

Dispersion correction           -0.014946350
FINAL SINGLE POINT ENERGY     -1339.855934896340

DIPOLE MOMENT
-------------
                                X             Y             Z
Electronic contribution:    -22.85431      12.72321       3.86473
Nuclear contribution   :     23.62124     -12.98593      -3.67813
                        -----------------------------------------
Total Dipole Moment    :      0.76693      -0.26272       0.18661
                        -----------------------------------------
Magnitude (a.u.)       :      0.83188
Magnitude (Debye)      :      2.11447

Rotational constants in cm-1:     0.021325     0.008376     0.006685
Rotational constants in MHz :   639.300638   251.104289   200.403793

                             ****ORCA TERMINATED NORMALLY****
TOTAL RUN TIME: 0 days 0 hours 0 minutes 30 seconds 433 msec
