                         Program Version 4.2.1 -  RELEASE  -
|  1> ! wB97X-D3 SP def2-SVP
|  2> %pal
|  3> nprocs 16
|  4> end
|  5>
|  6> * xyz 0 1
|  7> S 	 -4.24601 	 -11.04 	 81.1254
|  8> C 	 -4.00732 	 -10.8847 	 79.4244
|  9> C 	 -4.8871 	 -10.0165 	 78.8682
| 10> C 	 -5.83629 	 -9.43892 	 79.8378
| 11> C 	 -5.56017 	 -9.85816 	 81.1397
| 12> H 	 -6.68874 	 -8.69819 	 79.6374
| 13> C 	 -4.974 	 -9.76919 	 77.3997
| 14> H 	 -3.99266 	 -9.83004 	 76.9393
| 15> H 	 -5.30776 	 -8.72473 	 77.3624
| 16> C 	 -5.9368 	 -10.6798 	 76.6537
| 17> H 	 -5.76103 	 -10.4209 	 75.5788
| 18> H 	 -5.54585 	 -11.6526 	 76.6336
| 19> C 	 -7.42685 	 -10.598 	 76.9377
| 20> H 	 -7.74927 	 -10.4901 	 77.9932
| 21> H 	 -7.88416 	 -9.60347 	 76.6178
| 22> H 	 -8.05488 	 -11.3905 	 76.5147
| 23> S 	 -5.78206 	 -8.46923 	 83.6021
| 24> C 	 -7.34243 	 -8.26043 	 84.2516
| 25> C 	 -8.27586 	 -9.07635 	 83.6809
| 26> C 	 -7.73375 	 -9.71432 	 82.5301
| 27> C 	 -6.32584 	 -9.50996 	 82.3207
| 28> H 	 -9.28572 	 -8.97809 	 84.1252
| 29> C 	 -8.58252 	 -10.6041 	 81.6542
| 30> H 	 -9.01295 	 -11.3818 	 82.2084
| 31> H 	 -7.89198 	 -11.2102 	 81.0673
| 32> C 	 -9.63606 	 -9.88269 	 80.7644
| 33> H 	 -9.0513 	 -9.13554 	 80.1343
| 34> H 	 -10.3406 	 -9.25667 	 81.3348
| 35> C 	 -10.4118 	 -11.0016 	 80.1029
| 36> H 	 -9.80585 	 -11.5155 	 79.3089
| 37> H 	 -11.2382 	 -10.6462 	 79.5739
| 38> H 	 -10.7287 	 -11.7277 	 80.8371
| 39> H 	 -3.16728 	 -11.295 	 78.8364
| 40> H 	 -7.52085 	 -7.70076 	 85.1363
| 41> *
| 42>
| 43>                          ****END OF INPUT****

CARTESIAN COORDINATES (ANGSTROEM)
---------------------------------
  S     -4.246010  -11.040000   81.125400
  C     -4.007320  -10.884700   79.424400
  C     -4.887100  -10.016500   78.868200
  C     -5.836290   -9.438920   79.837800
  C     -5.560170   -9.858160   81.139700
  H     -6.688740   -8.698190   79.637400
  C     -4.974000   -9.769190   77.399700
  H     -3.992660   -9.830040   76.939300
  H     -5.307760   -8.724730   77.362400
  C     -5.936800  -10.679800   76.653700
  H     -5.761030  -10.420900   75.578800
  H     -5.545850  -11.652600   76.633600
  C     -7.426850  -10.598000   76.937700
  H     -7.749270  -10.490100   77.993200
  H     -7.884160   -9.603470   76.617800
  H     -8.054880  -11.390500   76.514700
  S     -5.782060   -8.469230   83.602100
  C     -7.342430   -8.260430   84.251600
  C     -8.275860   -9.076350   83.680900
  C     -7.733750   -9.714320   82.530100
  C     -6.325840   -9.509960   82.320700
  H     -9.285720   -8.978090   84.125200
  C     -8.582520  -10.604100   81.654200
  H     -9.012950  -11.381800   82.208400
  H     -7.891980  -11.210200   81.067300
  C     -9.636060   -9.882690   80.764400
  H     -9.051300   -9.135540   80.134300
  H    -10.340600   -9.256670   81.334800
  C    -10.411800  -11.001600   80.102900
  H     -9.805850  -11.515500   79.308900
  H    -11.238200  -10.646200   79.573900
  H    -10.728700  -11.727700   80.837100
  H     -3.167280  -11.295000   78.836400
  H     -7.520850   -7.700760   85.136300

 Total Charge           Charge          ....    0
 Multiplicity           Mult            ....    1
 Number of Electrons    NEL             ....  134
 Basis Dimension        Dim             ....  322

ORBITAL ENERGIES
----------------

  NO   OCC          E(Eh)            E(eV)
   0   2.0000     -88.964622     -2420.8504
   1   2.0000     -88.963376     -2420.8165
   2   2.0000     -10.331948      -281.1466
   3   2.0000     -10.326095      -280.9873
   4   2.0000     -10.310601      -280.5657
   5   2.0000     -10.310446      -280.5615
   6   2.0000     -10.306225      -280.4466
   7   2.0000     -10.306177      -280.4453
   8   2.0000     -10.297643      -280.2131
   9   2.0000     -10.293121      -280.0901
  10   2.0000     -10.292985      -280.0864
  11   2.0000     -10.290180      -280.0100
  12   2.0000     -10.286743      -279.9165
  13   2.0000     -10.285742      -279.8893
  14   2.0000     -10.279655      -279.7236
  15   2.0000     -10.274607      -279.5863
  16   2.0000      -8.080325      -219.8768
  17   2.0000      -8.078339      -219.8228
  18   2.0000      -6.038598      -164.3186
  19   2.0000      -6.036909      -164.2727
  20   2.0000      -6.034547      -164.2084
  21   2.0000      -6.032745      -164.1593
  22   2.0000      -6.031422      -164.1233
  23   2.0000      -6.029088      -164.0598
  24   2.0000      -1.006328       -27.3836
  25   2.0000      -0.986883       -26.8545
  26   2.0000      -0.914861       -24.8946
  27   2.0000      -0.909821       -24.7575
  28   2.0000      -0.872427       -23.7399
  29   2.0000      -0.851040       -23.1580
  30   2.0000      -0.842164       -22.9165
  31   2.0000      -0.816957       -22.2305
  32   2.0000      -0.783584       -21.3224
  33   2.0000      -0.768413       -20.9096
  34   2.0000      -0.708106       -19.2685
  35   2.0000      -0.705638       -19.2014
  36   2.0000      -0.699910       -19.0455
  37   2.0000      -0.652411       -17.7530
  38   2.0000      -0.635293       -17.2872
  39   2.0000      -0.615204       -16.7406
  40   2.0000      -0.596126       -16.2214
  41   2.0000      -0.572334       -15.5740
  42   2.0000      -0.562628       -15.3099
  43   2.0000      -0.550895       -14.9906
  44   2.0000      -0.537276       -14.6200
  45   2.0000      -0.528071       -14.3695
  46   2.0000      -0.515569       -14.0294
  47   2.0000      -0.511584       -13.9209
  48   2.0000      -0.510850       -13.9009
  49   2.0000      -0.499257       -13.5855
  50   2.0000      -0.489295       -13.3144
  51   2.0000      -0.477842       -13.0027
  52   2.0000      -0.470830       -12.8119
  53   2.0000      -0.460729       -12.5371
  54   2.0000      -0.458833       -12.4855
  55   2.0000      -0.449483       -12.2310
  56   2.0000      -0.446321       -12.1450
  57   2.0000      -0.439408       -11.9569
  58   2.0000      -0.438251       -11.9254
  59   2.0000      -0.427836       -11.6420
  60   2.0000      -0.415360       -11.3025
  61   2.0000      -0.413001       -11.2383
  62   2.0000      -0.399693       -10.8762
  63   2.0000      -0.341068        -9.2809
  64   2.0000      -0.327419        -8.9095
  65   2.0000      -0.325337        -8.8529
  66   2.0000      -0.301425        -8.2022
  67   0.0000       0.037724         1.0265
  68   0.0000       0.063852         1.7375
  69   0.0000       0.115412         3.1405
  70   0.0000       0.122253         3.3267
  71   0.0000       0.127418         3.4672

MULLIKEN ATOMIC CHARGES
-----------------------
   0 S :    0.110979
   1 C :   -0.119144
   2 C :   -0.110219
   3 C :    0.014968
   4 C :   -0.177316
   5 H :    0.049868
   6 C :    0.062219
   7 H :    0.021374
   8 H :    0.021996
   9 C :   -0.013720
  10 H :    0.026766
  11 H :    0.008006
  12 C :   -0.073809
  13 H :    0.028638
  14 H :    0.022973
  15 H :    0.045884
  16 S :    0.120537
  17 C :   -0.095506
  18 C :   -0.029370
  19 C :   -0.043575
  20 C :   -0.140954
  21 H :    0.035061
  22 C :    0.061584
  23 H :    0.005526
  24 H :    0.018867
  25 C :   -0.085154
  26 H :    0.029482
  27 H :    0.029702
  28 C :   -0.007961
  29 H :    0.032110
  30 H :    0.016172
  31 H :    0.030353
  32 H :    0.056385
  33 H :    0.047277
Sum of atomic charges:   -0.0000000

LOEWDIN ATOMIC CHARGES
----------------------
   0 S :    0.403924
   1 C :   -0.209202
   2 C :   -0.070093
   3 C :   -0.063206
   4 C :   -0.194650
   5 H :    0.044804
   6 C :   -0.031772
   7 H :    0.032277
   8 H :    0.031231
   9 C :   -0.040010
  10 H :    0.032353
  11 H :    0.017358
  12 C :   -0.080241
  13 H :    0.026266
  14 H :    0.031601
  15 H :    0.031006
  16 S :    0.436368
  17 C :   -0.189907
  18 C :   -0.082501
  19 C :   -0.042965
  20 C :   -0.226948
  21 H :    0.043182
  22 C :   -0.036572
  23 H :    0.022044
  24 H :    0.031500
  25 C :   -0.038899
  26 H :    0.025991
  27 H :    0.022958
  28 C :   -0.060738
  29 H :    0.031401
  30 H :    0.015142
  31 H :    0.027159
  32 H :    0.038006
  33 H :    0.023136

  Mayer bond orders larger than 0.100000
B(  0-S ,  1-C ) :   1.1292 B(  0-S ,  4-C ) :   1.1438 B(  1-C ,  2-C ) :   1.6444
B(  1-C , 32-H ) :   0.9602 B(  2-C ,  3-C ) :   1.2092 B(  2-C ,  6-C ) :   1.0318
B(  3-C ,  4-C ) :   1.5960 B(  3-C ,  5-H ) :   0.9759 B(  4-C , 20-C ) :   1.0376
B(  6-C ,  7-H ) :   0.9362 B(  6-C ,  8-H ) :   0.9368 B(  6-C ,  9-C ) :   1.0804
B(  9-C , 10-H ) :   0.9487 B(  9-C , 11-H ) :   0.9519 B(  9-C , 12-C ) :   1.0669
B( 12-C , 13-H ) :   0.9720 B( 12-C , 14-H ) :   0.9678 B( 12-C , 15-H ) :   0.9745
B( 16-S , 17-C ) :   1.2010 B( 16-S , 20-C ) :   1.1439 B( 17-C , 18-C ) :   1.5800
B( 17-C , 33-H ) :   0.9652 B( 18-C , 19-C ) :   1.2578 B( 18-C , 21-H ) :   0.9923
B( 19-C , 20-C ) :   1.5441 B( 19-C , 22-C ) :   1.0448 B( 22-C , 23-H ) :   0.9374
B( 22-C , 24-H ) :   0.9314 B( 22-C , 25-C ) :   1.0459 B( 25-C , 26-H ) :   0.9509
B( 25-C , 27-H ) :   0.9572 B( 25-C , 28-C ) :   1.0794 B( 28-C , 29-H ) :   0.9715
B( 28-C , 30-H ) :   0.9712 B( 28-C , 31-H ) :   0.9698

Dispersion correction           -0.015956579
FINAL SINGLE POINT ENERGY     -1339.874730488157

DIPOLE MOMENT
-------------
                                X             Y             Z
Electronic contribution:     20.33625       4.84895      23.24199
Nuclear contribution   :    -20.87088      -4.82495     -23.65929
                        -----------------------------------------
Total Dipole Moment    :     -0.53463       0.02400      -0.41730
                        -----------------------------------------
Magnitude (a.u.)       :      0.67863
Magnitude (Debye)      :      1.72495

Rotational constants in cm-1:     0.017463     0.010456     0.007297
Rotational constants in MHz :   523.531934   313.477657   218.768405

                             ****ORCA TERMINATED NORMALLY****
TOTAL RUN TIME: 0 days 0 hours 0 minutes 37 seconds 112 msec
