                         Program Version 4.2.1 -  RELEASE  -
|  1> ! wB97X-D3 SP def2-SVP
|  2> %pal
|  3> nprocs 16
|  4> end
|  5>
|  6> * xyz 0 1
|  7> S 	 7.88571 	 22.6276 	 51.9744
|  8> C 	 8.77018 	 22.1675 	 53.4901
|  9> C 	 9.80942 	 21.265 	 53.2256
| 10> C 	 9.99614 	 21.0275 	 51.8461
| 11> C 	 9.11084 	 21.7522 	 51.0319
| 12> H 	 10.7041 	 20.3498 	 51.3343
| 13> C 	 10.7635 	 20.6529 	 54.2534
| 14> H 	 10.9298 	 21.3917 	 55.0235
| 15> H 	 11.7748 	 20.5106 	 53.8094
| 16> C 	 10.3019 	 19.3387 	 54.8463
| 17> H 	 9.41187 	 19.6786 	 55.3781
| 18> H 	 9.85956 	 18.7468 	 53.9841
| 19> C 	 11.1686 	 18.5901 	 55.8089
| 20> H 	 11.0945 	 19.1083 	 56.8081
| 21> H 	 10.8935 	 17.5859 	 55.9284
| 22> H 	 12.1784 	 18.571 	 55.3928
| 23> S 	 8.46137 	 19.9083 	 49.3078
| 24> C 	 8.45744 	 20.1792 	 47.644
| 25> C 	 8.81738 	 21.4844 	 47.3065
| 26> C 	 9.11644 	 22.2888 	 48.4615
| 27> C 	 8.96538 	 21.5344 	 49.6275
| 28> H 	 8.84844 	 21.8118 	 46.2641
| 29> C 	 9.55357 	 23.7349 	 48.3287
| 30> H 	 10.037 	 24.0306 	 47.4059
| 31> H 	 10.1977 	 23.9711 	 49.1826
| 32> C 	 8.38788 	 24.7264 	 48.4306
| 33> H 	 7.8036 	 24.3959 	 49.1985
| 34> H 	 7.69048 	 24.7013 	 47.5764
| 35> C 	 8.74821 	 26.2182 	 48.5795
| 36> H 	 9.26504 	 26.4462 	 49.5363
| 37> H 	 7.85215 	 26.8392 	 48.5665
| 38> H 	 9.36567 	 26.6045 	 47.7256
| 39> H 	 8.53555 	 22.3787 	 54.5555
| 40> H 	 8.25805 	 19.4172 	 46.9622
| 41> *
| 42>
| 43>                          ****END OF INPUT****

CARTESIAN COORDINATES (ANGSTROEM)
---------------------------------
  S      7.885710   22.627600   51.974400
  C      8.770180   22.167500   53.490100
  C      9.809420   21.265000   53.225600
  C      9.996140   21.027500   51.846100
  C      9.110840   21.752200   51.031900
  H     10.704100   20.349800   51.334300
  C     10.763500   20.652900   54.253400
  H     10.929800   21.391700   55.023500
  H     11.774800   20.510600   53.809400
  C     10.301900   19.338700   54.846300
  H      9.411870   19.678600   55.378100
  H      9.859560   18.746800   53.984100
  C     11.168600   18.590100   55.808900
  H     11.094500   19.108300   56.808100
  H     10.893500   17.585900   55.928400
  H     12.178400   18.571000   55.392800
  S      8.461370   19.908300   49.307800
  C      8.457440   20.179200   47.644000
  C      8.817380   21.484400   47.306500
  C      9.116440   22.288800   48.461500
  C      8.965380   21.534400   49.627500
  H      8.848440   21.811800   46.264100
  C      9.553570   23.734900   48.328700
  H     10.037000   24.030600   47.405900
  H     10.197700   23.971100   49.182600
  C      8.387880   24.726400   48.430600
  H      7.803600   24.395900   49.198500
  H      7.690480   24.701300   47.576400
  C      8.748210   26.218200   48.579500
  H      9.265040   26.446200   49.536300
  H      7.852150   26.839200   48.566500
  H      9.365670   26.604500   47.725600
  H      8.535550   22.378700   54.555500
  H      8.258050   19.417200   46.962200

 Total Charge           Charge          ....    0
 Multiplicity           Mult            ....    1
 Number of Electrons    NEL             ....  134
 Basis Dimension        Dim             ....  322

ORBITAL ENERGIES
----------------

  NO   OCC          E(Eh)            E(eV)
   0   2.0000     -88.973394     -2421.0891
   1   2.0000     -88.965384     -2420.8712
   2   2.0000     -10.329414      -281.0776
   3   2.0000     -10.323512      -280.9170
   4   2.0000     -10.321194      -280.8540
   5   2.0000     -10.308451      -280.5072
   6   2.0000     -10.308128      -280.4984
   7   2.0000     -10.304585      -280.4020
   8   2.0000     -10.297122      -280.1989
   9   2.0000     -10.294963      -280.1402
  10   2.0000     -10.292199      -280.0650
  11   2.0000     -10.290537      -280.0198
  12   2.0000     -10.283989      -279.8416
  13   2.0000     -10.280458      -279.7455
  14   2.0000     -10.279188      -279.7109
  15   2.0000     -10.275270      -279.6043
  16   2.0000      -8.085955      -220.0300
  17   2.0000      -8.081610      -219.9118
  18   2.0000      -6.044602      -164.4820
  19   2.0000      -6.040854      -164.3800
  20   2.0000      -6.039823      -164.3519
  21   2.0000      -6.036605      -164.2644
  22   2.0000      -6.035804      -164.2426
  23   2.0000      -6.032671      -164.1573
  24   2.0000      -1.010342       -27.4928
  25   2.0000      -0.978916       -26.6377
  26   2.0000      -0.914345       -24.8806
  27   2.0000      -0.909937       -24.7606
  28   2.0000      -0.871146       -23.7051
  29   2.0000      -0.851906       -23.1815
  30   2.0000      -0.847776       -23.0692
  31   2.0000      -0.807855       -21.9829
  32   2.0000      -0.785789       -21.3824
  33   2.0000      -0.772706       -21.0264
  34   2.0000      -0.704812       -19.1789
  35   2.0000      -0.694941       -18.9103
  36   2.0000      -0.693328       -18.8664
  37   2.0000      -0.667843       -18.1729
  38   2.0000      -0.634198       -17.2574
  39   2.0000      -0.615155       -16.7392
  40   2.0000      -0.601352       -16.3636
  41   2.0000      -0.569451       -15.4956
  42   2.0000      -0.566685       -15.4203
  43   2.0000      -0.558252       -15.1908
  44   2.0000      -0.526813       -14.3353
  45   2.0000      -0.518074       -14.0975
  46   2.0000      -0.515194       -14.0191
  47   2.0000      -0.511441       -13.9170
  48   2.0000      -0.503211       -13.6931
  49   2.0000      -0.500742       -13.6259
  50   2.0000      -0.492872       -13.4117
  51   2.0000      -0.478474       -13.0199
  52   2.0000      -0.475120       -12.9287
  53   2.0000      -0.466064       -12.6823
  54   2.0000      -0.458690       -12.4816
  55   2.0000      -0.450479       -12.2582
  56   2.0000      -0.446954       -12.1622
  57   2.0000      -0.433376       -11.7928
  58   2.0000      -0.433035       -11.7835
  59   2.0000      -0.426964       -11.6183
  60   2.0000      -0.422992       -11.5102
  61   2.0000      -0.412246       -11.2178
  62   2.0000      -0.406057       -11.0494
  63   2.0000      -0.339083        -9.2269
  64   2.0000      -0.329504        -8.9663
  65   2.0000      -0.328049        -8.9267
  66   2.0000      -0.299256        -8.1432
  67   0.0000       0.031577         0.8592
  68   0.0000       0.060012         1.6330
  69   0.0000       0.098847         2.6898
  70   0.0000       0.111174         3.0252
  71   0.0000       0.126559         3.4438

MULLIKEN ATOMIC CHARGES
-----------------------
   0 S :    0.115935
   1 C :   -0.117429
   2 C :   -0.089959
   3 C :    0.010949
   4 C :   -0.143975
   5 H :    0.031934
   6 C :    0.056941
   7 H :    0.016623
   8 H :    0.021319
   9 C :   -0.109352
  10 H :    0.012916
  11 H :    0.034268
  12 C :    0.007281
  13 H :    0.043597
  14 H :    0.028618
  15 H :    0.027542
  16 S :    0.137420
  17 C :   -0.073196
  18 C :   -0.044372
  19 C :   -0.001712
  20 C :   -0.216863
  21 H :    0.022228
  22 C :    0.089410
  23 H :    0.020276
  24 H :    0.029634
  25 C :   -0.055447
  26 H :   -0.006722
  27 H :    0.019574
  28 C :   -0.064031
  29 H :    0.038854
  30 H :    0.033422
  31 H :    0.033632
  32 H :    0.055546
  33 H :    0.035138
Sum of atomic charges:   -0.0000000

LOEWDIN ATOMIC CHARGES
----------------------
   0 S :    0.382506
   1 C :   -0.190578
   2 C :   -0.059938
   3 C :   -0.063843
   4 C :   -0.197842
   5 H :    0.037769
   6 C :   -0.032275
   7 H :    0.024785
   8 H :    0.027885
   9 C :   -0.056618
  10 H :    0.021723
  11 H :    0.029607
  12 C :   -0.061765
  13 H :    0.037386
  14 H :    0.023478
  15 H :    0.026361
  16 S :    0.459384
  17 C :   -0.198703
  18 C :   -0.070907
  19 C :   -0.046160
  20 C :   -0.216714
  21 H :    0.033159
  22 C :   -0.027430
  23 H :    0.029720
  24 H :    0.035404
  25 C :   -0.038520
  26 H :    0.004244
  27 H :    0.024439
  28 C :   -0.070180
  29 H :    0.026553
  30 H :    0.027709
  31 H :    0.027537
  32 H :    0.036815
  33 H :    0.015012

  Mayer bond orders larger than 0.100000
B(  0-S ,  1-C ) :   1.1220 B(  0-S ,  4-C ) :   1.1403 B(  1-C ,  2-C ) :   1.6243
B(  1-C ,  4-C ) :   0.1045 B(  1-C , 32-H ) :   0.9585 B(  2-C ,  3-C ) :   1.2354
B(  2-C ,  6-C ) :   1.0200 B(  3-C ,  4-C ) :   1.5668 B(  3-C ,  5-H ) :   0.9921
B(  4-C , 20-C ) :   1.0426 B(  6-C ,  7-H ) :   0.9418 B(  6-C ,  8-H ) :   0.9413
B(  6-C ,  9-C ) :   1.0544 B(  9-C , 10-H ) :   0.9542 B(  9-C , 11-H ) :   0.9551
B(  9-C , 12-C ) :   1.0791 B( 12-C , 13-H ) :   0.9719 B( 12-C , 14-H ) :   0.9706
B( 12-C , 15-H ) :   0.9728 B( 16-S , 17-C ) :   1.1851 B( 16-S , 20-C ) :   1.1684
B( 17-C , 18-C ) :   1.5726 B( 17-C , 33-H ) :   0.9765 B( 18-C , 19-C ) :   1.2554
B( 18-C , 21-H ) :   0.9921 B( 19-C , 20-C ) :   1.5607 B( 19-C , 22-C ) :   1.0582
B( 22-C , 23-H ) :   0.9384 B( 22-C , 24-H ) :   0.9302 B( 22-C , 25-C ) :   1.0606
B( 25-C , 26-H ) :   0.9492 B( 25-C , 27-H ) :   0.9535 B( 25-C , 28-C ) :   1.0875
B( 28-C , 29-H ) :   0.9747 B( 28-C , 30-H ) :   0.9732 B( 28-C , 31-H ) :   0.9737

Dispersion correction           -0.013856189
FINAL SINGLE POINT ENERGY     -1339.873354233591

DIPOLE MOMENT
-------------
                                X             Y             Z
Electronic contribution:     -9.62102      -6.23540      -8.21241
Nuclear contribution   :      9.84746       6.11996       8.24390
                        -----------------------------------------
Total Dipole Moment    :      0.22643      -0.11543       0.03148
                        -----------------------------------------
Magnitude (a.u.)       :      0.25610
Magnitude (Debye)      :      0.65096

Rotational constants in cm-1:     0.021884     0.007510     0.006156
Rotational constants in MHz :   656.075628   225.141746   184.539123

                             ****ORCA TERMINATED NORMALLY****
TOTAL RUN TIME: 0 days 0 hours 0 minutes 31 seconds 427 msec
