                         Program Version 4.2.1 -  RELEASE  -
|  1> ! wB97X-D3 SP def2-SVP
|  2> %pal
|  3> nprocs 16
|  4> end
|  5>
|  6> * xyz 0 1
|  7> S 	 0.175413 	 75.9075 	 47.306
|  8> C 	 -0.618811 	 74.6952 	 48.3728
|  9> C 	 -1.59912 	 73.9502 	 47.7371
| 10> C 	 -1.59784 	 74.2773 	 46.3575
| 11> C 	 -0.697419 	 75.2736 	 45.9201
| 12> H 	 -2.15936 	 73.7755 	 45.5513
| 13> C 	 -2.35983 	 72.7606 	 48.2329
| 14> H 	 -3.32591 	 72.7935 	 47.8216
| 15> H 	 -2.46264 	 72.8729 	 49.3
| 16> C 	 -1.74457 	 71.3845 	 47.8276
| 17> H 	 -2.20943 	 70.5566 	 48.3565
| 18> H 	 -1.8838 	 71.1011 	 46.7803
| 19> C 	 -0.215236 	 71.1779 	 48.0612
| 20> H 	 0.391764 	 71.9791 	 47.6262
| 21> H 	 -0.0353756 	 71.1578 	 49.1292
| 22> H 	 0.231809 	 70.4081 	 47.4971
| 23> S 	 -0.849543 	 77.4741 	 44.3316
| 24> C 	 -0.775269 	 77.2011 	 42.6428
| 25> C 	 -0.274721 	 75.9413 	 42.2994
| 26> C 	 -0.332893 	 75.0713 	 43.4248
| 27> C 	 -0.53737 	 75.7588 	 44.5604
| 28> H 	 0.0914106 	 75.6236 	 41.3434
| 29> C 	 -0.0220274 	 73.6494 	 43.306
| 30> H 	 -0.17936 	 73.2555 	 42.262
| 31> H 	 -0.88003 	 73.1942 	 43.827
| 32> C 	 1.32409 	 73.2097 	 43.9215
| 33> H 	 1.35188 	 72.1271 	 43.9767
| 34> H 	 1.31028 	 73.5808 	 44.9317
| 35> C 	 2.56735 	 73.7979 	 43.2522
| 36> H 	 2.47467 	 74.8644 	 43.2025
| 37> H 	 2.84121 	 73.3826 	 42.2261
| 38> H 	 3.37125 	 73.3929 	 43.9289
| 39> H 	 -0.340753 	 74.518 	 49.3694
| 40> H 	 -0.929919 	 78.0371 	 41.9148
| 41> *
| 42>
| 43>                          ****END OF INPUT****

CARTESIAN COORDINATES (ANGSTROEM)
---------------------------------
  S      0.175413   75.907500   47.306000
  C     -0.618811   74.695200   48.372800
  C     -1.599120   73.950200   47.737100
  C     -1.597840   74.277300   46.357500
  C     -0.697419   75.273600   45.920100
  H     -2.159360   73.775500   45.551300
  C     -2.359830   72.760600   48.232900
  H     -3.325910   72.793500   47.821600
  H     -2.462640   72.872900   49.300000
  C     -1.744570   71.384500   47.827600
  H     -2.209430   70.556600   48.356500
  H     -1.883800   71.101100   46.780300
  C     -0.215236   71.177900   48.061200
  H      0.391764   71.979100   47.626200
  H     -0.035376   71.157800   49.129200
  H      0.231809   70.408100   47.497100
  S     -0.849543   77.474100   44.331600
  C     -0.775269   77.201100   42.642800
  C     -0.274721   75.941300   42.299400
  C     -0.332893   75.071300   43.424800
  C     -0.537370   75.758800   44.560400
  H      0.091411   75.623600   41.343400
  C     -0.022027   73.649400   43.306000
  H     -0.179360   73.255500   42.262000
  H     -0.880030   73.194200   43.827000
  C      1.324090   73.209700   43.921500
  H      1.351880   72.127100   43.976700
  H      1.310280   73.580800   44.931700
  C      2.567350   73.797900   43.252200
  H      2.474670   74.864400   43.202500
  H      2.841210   73.382600   42.226100
  H      3.371250   73.392900   43.928900
  H     -0.340753   74.518000   49.369400
  H     -0.929919   78.037100   41.914800

 Total Charge           Charge          ....    0
 Multiplicity           Mult            ....    1
 Number of Electrons    NEL             ....  134
 Basis Dimension        Dim             ....  322

ORBITAL ENERGIES
----------------

  NO   OCC          E(Eh)            E(eV)
   0   2.0000     -88.968791     -2420.9639
   1   2.0000     -88.967198     -2420.9205
   2   2.0000     -10.329156      -281.0706
   3   2.0000     -10.320481      -280.8346
   4   2.0000     -10.318797      -280.7887
   5   2.0000     -10.314549      -280.6732
   6   2.0000     -10.300921      -280.3023
   7   2.0000     -10.294457      -280.1264
   8   2.0000     -10.293745      -280.1070
   9   2.0000     -10.293527      -280.1011
  10   2.0000     -10.292889      -280.0837
  11   2.0000     -10.291620      -280.0492
  12   2.0000     -10.290040      -280.0062
  13   2.0000     -10.283433      -279.8264
  14   2.0000     -10.281814      -279.7824
  15   2.0000     -10.271225      -279.4943
  16   2.0000      -8.082803      -219.9443
  17   2.0000      -8.082370      -219.9325
  18   2.0000      -6.041130      -164.3875
  19   2.0000      -6.040946      -164.3825
  20   2.0000      -6.037449      -164.2874
  21   2.0000      -6.037043      -164.2763
  22   2.0000      -6.033430      -164.1780
  23   2.0000      -6.033143      -164.1702
  24   2.0000      -1.011278       -27.5183
  25   2.0000      -0.982315       -26.7302
  26   2.0000      -0.914492       -24.8846
  27   2.0000      -0.910546       -24.7772
  28   2.0000      -0.864661       -23.5286
  29   2.0000      -0.855568       -23.2812
  30   2.0000      -0.843202       -22.9447
  31   2.0000      -0.806966       -21.9587
  32   2.0000      -0.789794       -21.4914
  33   2.0000      -0.777183       -21.1482
  34   2.0000      -0.708386       -19.2762
  35   2.0000      -0.703278       -19.1372
  36   2.0000      -0.687476       -18.7072
  37   2.0000      -0.670001       -18.2317
  38   2.0000      -0.638145       -17.3648
  39   2.0000      -0.614073       -16.7098
  40   2.0000      -0.597458       -16.2577
  41   2.0000      -0.562576       -15.3085
  42   2.0000      -0.558754       -15.2045
  43   2.0000      -0.556167       -15.1341
  44   2.0000      -0.543516       -14.7898
  45   2.0000      -0.537469       -14.6253
  46   2.0000      -0.524107       -14.2617
  47   2.0000      -0.513549       -13.9744
  48   2.0000      -0.493856       -13.4385
  49   2.0000      -0.490622       -13.3505
  50   2.0000      -0.487772       -13.2730
  51   2.0000      -0.482388       -13.1265
  52   2.0000      -0.470696       -12.8083
  53   2.0000      -0.467219       -12.7137
  54   2.0000      -0.456055       -12.4099
  55   2.0000      -0.450699       -12.2642
  56   2.0000      -0.446362       -12.1461
  57   2.0000      -0.438228       -11.9248
  58   2.0000      -0.431460       -11.7406
  59   2.0000      -0.421458       -11.4685
  60   2.0000      -0.419033       -11.4025
  61   2.0000      -0.417030       -11.3480
  62   2.0000      -0.413332       -11.2473
  63   2.0000      -0.341463        -9.2917
  64   2.0000      -0.333579        -9.0772
  65   2.0000      -0.332656        -9.0520
  66   2.0000      -0.287395        -7.8204
  67   0.0000       0.033432         0.9097
  68   0.0000       0.059187         1.6106
  69   0.0000       0.107932         2.9370
  70   0.0000       0.117922         3.2088
  71   0.0000       0.125993         3.4284

MULLIKEN ATOMIC CHARGES
-----------------------
   0 S :    0.105211
   1 C :   -0.113483
   2 C :   -0.079525
   3 C :    0.006655
   4 C :   -0.177090
   5 H :    0.019051
   6 C :    0.137720
   7 H :    0.021480
   8 H :    0.020639
   9 C :   -0.084406
  10 H :    0.031620
  11 H :    0.023416
  12 C :   -0.052451
  13 H :    0.031351
  14 H :    0.032081
  15 H :    0.020194
  16 S :    0.126978
  17 C :   -0.110733
  18 C :   -0.013958
  19 C :   -0.070633
  20 C :   -0.156399
  21 H :    0.010528
  22 C :    0.069951
  23 H :    0.021437
  24 H :    0.013056
  25 C :   -0.048116
  26 H :    0.026180
  27 H :    0.036513
  28 C :   -0.071894
  29 H :    0.048425
  30 H :    0.034651
  31 H :    0.044278
  32 H :    0.024919
  33 H :    0.072355
Sum of atomic charges:    0.0000000

LOEWDIN ATOMIC CHARGES
----------------------
   0 S :    0.381614
   1 C :   -0.173535
   2 C :   -0.061185
   3 C :   -0.067839
   4 C :   -0.195396
   5 H :    0.029519
   6 C :   -0.021742
   7 H :    0.031413
   8 H :    0.030452
   9 C :   -0.037512
  10 H :    0.025781
  11 H :    0.023283
  12 C :   -0.070076
  13 H :    0.028200
  14 H :    0.022177
  15 H :    0.022135
  16 S :    0.421062
  17 C :   -0.196140
  18 C :   -0.064660
  19 C :   -0.059549
  20 C :   -0.203054
  21 H :    0.027950
  22 C :   -0.041568
  23 H :    0.032429
  24 H :    0.034460
  25 C :   -0.034367
  26 H :    0.022573
  27 H :    0.025834
  28 C :   -0.069168
  29 H :    0.023741
  30 H :    0.027384
  31 H :    0.036827
  32 H :    0.015015
  33 H :    0.033943

  Mayer bond orders larger than 0.100000
B(  0-S ,  1-C ) :   1.1306 B(  0-S ,  4-C ) :   1.1350 B(  1-C ,  2-C ) :   1.6050
B(  1-C ,  4-C ) :   0.1048 B(  1-C , 32-H ) :   0.9723 B(  2-C ,  3-C ) :   1.2278
B(  2-C ,  6-C ) :   1.0426 B(  3-C ,  4-C ) :   1.5862 B(  3-C ,  5-H ) :   0.9839
B(  4-C , 20-C ) :   1.0264 B(  6-C ,  7-H ) :   0.9295 B(  6-C ,  8-H ) :   0.9360
B(  6-C ,  9-C ) :   1.0567 B(  9-C , 10-H ) :   0.9590 B(  9-C , 11-H ) :   0.9581
B(  9-C , 12-C ) :   1.0782 B( 12-C , 13-H ) :   0.9678 B( 12-C , 14-H ) :   0.9797
B( 12-C , 15-H ) :   0.9726 B( 16-S , 17-C ) :   1.1771 B( 16-S , 20-C ) :   1.1296
B( 17-C , 18-C ) :   1.5850 B( 17-C , 33-H ) :   0.9615 B( 18-C , 19-C ) :   1.2272
B( 18-C , 21-H ) :   0.9943 B( 19-C , 20-C ) :   1.6281 B( 19-C , 22-C ) :   1.0524
B( 22-C , 23-H ) :   0.9302 B( 22-C , 24-H ) :   0.9134 B( 22-C , 25-C ) :   1.0740
B( 25-C , 26-H ) :   0.9542 B( 25-C , 27-H ) :   0.9527 B( 25-C , 28-C ) :   1.0718
B( 28-C , 29-H ) :   0.9746 B( 28-C , 30-H ) :   0.9744 B( 28-C , 31-H ) :   0.9736

Dispersion correction           -0.016305480
FINAL SINGLE POINT ENERGY     -1339.869250902308

DIPOLE MOMENT
-------------
                                X             Y             Z
Electronic contribution:     -5.04834      26.21769       0.28267
Nuclear contribution   :      4.98963     -26.87198      -0.47855
                        -----------------------------------------
Total Dipole Moment    :     -0.05871      -0.65429      -0.19588
                        -----------------------------------------
Magnitude (a.u.)       :      0.68550
Magnitude (Debye)      :      1.74241

Rotational constants in cm-1:     0.020215     0.009746     0.007960
Rotational constants in MHz :   606.036797   292.169896   238.637942

                             ****ORCA TERMINATED NORMALLY****
TOTAL RUN TIME: 0 days 0 hours 0 minutes 37 seconds 460 msec
