                         Program Version 4.2.1 -  RELEASE  -
|  1> ! wB97X-D3 SP def2-SVP
|  2> %pal
|  3> nprocs 16
|  4> end
|  5>
|  6> * xyz 0 1
|  7> S 	 8.14946 	 24.3726 	 39.9926
|  8> C 	 6.54157 	 25.0282 	 40.2416
|  9> C 	 6.38442 	 25.5287 	 41.4648
| 10> C 	 7.63002 	 25.444 	 42.171
| 11> C 	 8.6739 	 24.7812 	 41.5675
| 12> H 	 7.85545 	 25.7505 	 43.1418
| 13> C 	 5.11912 	 26.0051 	 42.039
| 14> H 	 5.35677 	 26.5329 	 42.998
| 15> H 	 4.345 	 25.259 	 42.0695
| 16> C 	 4.44939 	 27.1267 	 41.2223
| 17> H 	 5.25248 	 27.8397 	 40.9649
| 18> H 	 4.12767 	 26.8387 	 40.2237
| 19> C 	 3.30645 	 27.9252 	 41.8787
| 20> H 	 2.34969 	 27.4384 	 42.0169
| 21> H 	 3.62096 	 28.3188 	 42.8324
| 22> H 	 3.16911 	 28.8127 	 41.2614
| 23> S 	 10.4016 	 24.8658 	 43.7855
| 24> C 	 11.9892 	 24.1683 	 43.6391
| 25> C 	 12.2683 	 23.6969 	 42.4078
| 26> C 	 11.1355 	 23.8642 	 41.4756
| 27> C 	 10.0253 	 24.4602 	 42.1057
| 28> H 	 13.3298 	 23.4161 	 42.3083
| 29> C 	 11.3578 	 23.5159 	 40.0341
| 30> H 	 10.4638 	 23.5108 	 39.4172
| 31> H 	 11.8477 	 22.5243 	 39.9693
| 32> C 	 12.1778 	 24.6095 	 39.2197
| 33> H 	 12.9992 	 24.9489 	 39.8571
| 34> H 	 11.5756 	 25.4805 	 39.2064
| 35> C 	 12.6371 	 24.3033 	 37.8026
| 36> H 	 13.2147 	 25.141 	 37.5112
| 37> H 	 11.7893 	 24.2527 	 37.1323
| 38> H 	 13.148 	 23.3343 	 37.7646
| 39> H 	 5.65099 	 25.0284 	 39.6019
| 40> H 	 12.7418 	 24.3784 	 44.4118
| 41> *
| 42>
| 43>                          ****END OF INPUT****

CARTESIAN COORDINATES (ANGSTROEM)
---------------------------------
  S      8.149460   24.372600   39.992600
  C      6.541570   25.028200   40.241600
  C      6.384420   25.528700   41.464800
  C      7.630020   25.444000   42.171000
  C      8.673900   24.781200   41.567500
  H      7.855450   25.750500   43.141800
  C      5.119120   26.005100   42.039000
  H      5.356770   26.532900   42.998000
  H      4.345000   25.259000   42.069500
  C      4.449390   27.126700   41.222300
  H      5.252480   27.839700   40.964900
  H      4.127670   26.838700   40.223700
  C      3.306450   27.925200   41.878700
  H      2.349690   27.438400   42.016900
  H      3.620960   28.318800   42.832400
  H      3.169110   28.812700   41.261400
  S     10.401600   24.865800   43.785500
  C     11.989200   24.168300   43.639100
  C     12.268300   23.696900   42.407800
  C     11.135500   23.864200   41.475600
  C     10.025300   24.460200   42.105700
  H     13.329800   23.416100   42.308300
  C     11.357800   23.515900   40.034100
  H     10.463800   23.510800   39.417200
  H     11.847700   22.524300   39.969300
  C     12.177800   24.609500   39.219700
  H     12.999200   24.948900   39.857100
  H     11.575600   25.480500   39.206400
  C     12.637100   24.303300   37.802600
  H     13.214700   25.141000   37.511200
  H     11.789300   24.252700   37.132300
  H     13.148000   23.334300   37.764600
  H      5.650990   25.028400   39.601900
  H     12.741800   24.378400   44.411800

 Total Charge           Charge          ....    0
 Multiplicity           Mult            ....    1
 Number of Electrons    NEL             ....  134
 Basis Dimension        Dim             ....  322

ORBITAL ENERGIES
----------------

  NO   OCC          E(Eh)            E(eV)
   0   2.0000     -88.966128     -2420.8914
   1   2.0000     -88.965268     -2420.8680
   2   2.0000     -10.339888      -281.3627
   3   2.0000     -10.330511      -281.1075
   4   2.0000     -10.316928      -280.7379
   5   2.0000     -10.315551      -280.7004
   6   2.0000     -10.307034      -280.4687
   7   2.0000     -10.298867      -280.2464
   8   2.0000     -10.293851      -280.1099
   9   2.0000     -10.293332      -280.0958
  10   2.0000     -10.292716      -280.0790
  11   2.0000     -10.287243      -279.9301
  12   2.0000     -10.285860      -279.8925
  13   2.0000     -10.281319      -279.7689
  14   2.0000     -10.278092      -279.6811
  15   2.0000     -10.275158      -279.6013
  16   2.0000      -8.080893      -219.8923
  17   2.0000      -8.080018      -219.8685
  18   2.0000      -6.039564      -164.3449
  19   2.0000      -6.038753      -164.3228
  20   2.0000      -6.035514      -164.2347
  21   2.0000      -6.034417      -164.2048
  22   2.0000      -6.031395      -164.1226
  23   2.0000      -6.030639      -164.1020
  24   2.0000      -1.011616       -27.5275
  25   2.0000      -0.988803       -26.9067
  26   2.0000      -0.918663       -24.9981
  27   2.0000      -0.905172       -24.6310
  28   2.0000      -0.872644       -23.7458
  29   2.0000      -0.854610       -23.2551
  30   2.0000      -0.846365       -23.0308
  31   2.0000      -0.819538       -22.3008
  32   2.0000      -0.788646       -21.4602
  33   2.0000      -0.775962       -21.1150
  34   2.0000      -0.708309       -19.2741
  35   2.0000      -0.701748       -19.0955
  36   2.0000      -0.691456       -18.8155
  37   2.0000      -0.663268       -18.0484
  38   2.0000      -0.632163       -17.2020
  39   2.0000      -0.622343       -16.9348
  40   2.0000      -0.599430       -16.3113
  41   2.0000      -0.579693       -15.7742
  42   2.0000      -0.569531       -15.4977
  43   2.0000      -0.558649       -15.2016
  44   2.0000      -0.529457       -14.4073
  45   2.0000      -0.521183       -14.1821
  46   2.0000      -0.515687       -14.0326
  47   2.0000      -0.514519       -14.0008
  48   2.0000      -0.507942       -13.8218
  49   2.0000      -0.507023       -13.7968
  50   2.0000      -0.490975       -13.3601
  51   2.0000      -0.482979       -13.1425
  52   2.0000      -0.471906       -12.8412
  53   2.0000      -0.467725       -12.7274
  54   2.0000      -0.462756       -12.5922
  55   2.0000      -0.453609       -12.3433
  56   2.0000      -0.446999       -12.1635
  57   2.0000      -0.433905       -11.8072
  58   2.0000      -0.431531       -11.7425
  59   2.0000      -0.425378       -11.5751
  60   2.0000      -0.421237       -11.4624
  61   2.0000      -0.418408       -11.3855
  62   2.0000      -0.400062       -10.8862
  63   2.0000      -0.366297        -9.9674
  64   2.0000      -0.332324        -9.0430
  65   2.0000      -0.327002        -8.8982
  66   2.0000      -0.287621        -7.8266
  67   0.0000       0.022789         0.6201
  68   0.0000       0.089681         2.4403
  69   0.0000       0.110778         3.0144
  70   0.0000       0.118575         3.2266
  71   0.0000       0.131859         3.5881

MULLIKEN ATOMIC CHARGES
-----------------------
   0 S :    0.083895
   1 C :   -0.106540
   2 C :   -0.062183
   3 C :   -0.007572
   4 C :   -0.096616
   5 H :   -0.025549
   6 C :    0.118174
   7 H :    0.028727
   8 H :    0.040285
   9 C :   -0.147573
  10 H :    0.027541
  11 H :    0.020326
  12 C :   -0.020208
  13 H :    0.036844
  14 H :    0.017714
  15 H :    0.031492
  16 S :    0.078868
  17 C :   -0.097749
  18 C :   -0.036049
  19 C :   -0.076368
  20 C :   -0.095136
  21 H :    0.037958
  22 C :    0.043702
  23 H :    0.029319
  24 H :    0.036774
  25 C :   -0.095249
  26 H :    0.015629
  27 H :    0.013809
  28 C :   -0.000681
  29 H :    0.034529
  30 H :    0.027212
  31 H :    0.035093
  32 H :    0.040141
  33 H :    0.069442
Sum of atomic charges:   -0.0000000

LOEWDIN ATOMIC CHARGES
----------------------
   0 S :    0.427014
   1 C :   -0.195133
   2 C :   -0.069096
   3 C :   -0.069709
   4 C :   -0.192948
   5 H :    0.009478
   6 C :   -0.030110
   7 H :    0.040261
   8 H :    0.034649
   9 C :   -0.047212
  10 H :    0.026239
  11 H :    0.015853
  12 C :   -0.063275
  13 H :    0.023244
  14 H :    0.021002
  15 H :    0.031772
  16 S :    0.391765
  17 C :   -0.184957
  18 C :   -0.074814
  19 C :   -0.053307
  20 C :   -0.182359
  21 H :    0.043686
  22 C :   -0.042448
  23 H :    0.014780
  24 H :    0.034434
  25 C :   -0.038289
  26 H :    0.017744
  27 H :    0.018975
  28 C :   -0.057243
  29 H :    0.028308
  30 H :    0.024827
  31 H :    0.027369
  32 H :    0.034960
  33 H :    0.034539

  Mayer bond orders larger than 0.100000
B(  0-S ,  1-C ) :   1.1212 B(  0-S ,  4-C ) :   1.1410 B(  1-C ,  2-C ) :   1.6432
B(  1-C , 32-H ) :   0.9605 B(  2-C ,  3-C ) :   1.2252 B(  2-C ,  6-C ) :   1.0353
B(  3-C ,  4-C ) :   1.5895 B(  3-C ,  5-H ) :   0.9974 B(  4-C , 20-C ) :   1.0730
B(  6-C ,  7-H ) :   0.9355 B(  6-C ,  8-H ) :   0.9331 B(  6-C ,  9-C ) :   1.0569
B(  9-C , 10-H ) :   0.9579 B(  9-C , 11-H ) :   0.9513 B(  9-C , 12-C ) :   1.0916
B( 12-C , 13-H ) :   0.9754 B( 12-C , 14-H ) :   0.9716 B( 12-C , 15-H ) :   0.9722
B( 16-S , 17-C ) :   1.1382 B( 16-S , 20-C ) :   1.1255 B( 17-C , 18-C ) :   1.6768
B( 17-C , 33-H ) :   0.9579 B( 18-C , 19-C ) :   1.1831 B( 18-C , 21-H ) :   0.9836
B( 19-C , 20-C ) :   1.6016 B( 19-C , 22-C ) :   1.0678 B( 22-C , 23-H ) :   0.9339
B( 22-C , 24-H ) :   0.9302 B( 22-C , 25-C ) :   1.0417 B( 25-C , 26-H ) :   0.9602
B( 25-C , 27-H ) :   0.9512 B( 25-C , 28-C ) :   1.0824 B( 28-C , 29-H ) :   0.9698
B( 28-C , 30-H ) :   0.9737 B( 28-C , 31-H ) :   0.9754

Dispersion correction           -0.013334551
FINAL SINGLE POINT ENERGY     -1339.870198152325

DIPOLE MOMENT
-------------
                                X             Y             Z
Electronic contribution:      7.36695      -8.70545      11.04266
Nuclear contribution   :     -7.31827       8.95890     -11.14480
                        -----------------------------------------
Total Dipole Moment    :      0.04868       0.25344      -0.10215
                        -----------------------------------------
Magnitude (a.u.)       :      0.27756
Magnitude (Debye)      :      0.70549

Rotational constants in cm-1:     0.022405     0.007108     0.005699
Rotational constants in MHz :   671.691040   213.086137   170.848346

                             ****ORCA TERMINATED NORMALLY****
TOTAL RUN TIME: 0 days 0 hours 0 minutes 32 seconds 834 msec
