                         Program Version 4.2.1 -  RELEASE  -
|  1> ! wB97X-D3 SP def2-SVP
|  2> %pal
|  3> nprocs 16
|  4> end
|  5>
|  6> * xyz 0 1
|  7> S 	 -66.2661 	 37.2851 	 139.107
|  8> C 	 -66.1637 	 36.1139 	 140.397
|  9> C 	 -66.6345 	 34.8631 	 139.994
| 10> C 	 -66.9273 	 34.8075 	 138.609
| 11> C 	 -66.7335 	 36.049 	 137.988
| 12> H 	 -67.2991 	 33.9525 	 138.063
| 13> C 	 -66.8067 	 33.621 	 140.898
| 14> H 	 -67.7278 	 33.5968 	 141.41
| 15> H 	 -66.0678 	 33.7494 	 141.672
| 16> C 	 -66.4933 	 32.3151 	 140.303
| 17> H 	 -65.7461 	 32.2878 	 139.555
| 18> H 	 -65.9671 	 31.7843 	 141.177
| 19> C 	 -67.6482 	 31.4162 	 139.878
| 20> H 	 -68.3986 	 31.1943 	 140.652
| 21> H 	 -68.0126 	 31.7304 	 138.881
| 22> H 	 -67.2196 	 30.4125 	 139.794
| 23> S 	 -65.6153 	 35.0933 	 135.78
| 24> C 	 -65.6847 	 35.9723 	 134.256
| 25> C 	 -66.672 	 36.9212 	 134.4
| 26> C 	 -67.1499 	 37.2343 	 135.663
| 27> C 	 -66.6338 	 36.3231 	 136.581
| 28> H 	 -67.0192 	 37.3518 	 133.49
| 29> C 	 -68.1005 	 38.3773 	 135.916
| 30> H 	 -68.4018 	 38.2522 	 136.955
| 31> H 	 -68.9677 	 38.3947 	 135.238
| 32> C 	 -67.5478 	 39.8064 	 135.778
| 33> H 	 -68.3583 	 40.493 	 136.045
| 34> H 	 -67.4609 	 40.0258 	 134.702
| 35> C 	 -66.3108 	 40.0146 	 136.596
| 36> H 	 -66.4707 	 39.8877 	 137.681
| 37> H 	 -65.9908 	 41.0179 	 136.545
| 38> H 	 -65.5042 	 39.3392 	 136.296
| 39> H 	 -65.8774 	 36.221 	 141.429
| 40> H 	 -65.31 	 35.5098 	 133.367
| 41> *
| 42>
| 43>                          ****END OF INPUT****

CARTESIAN COORDINATES (ANGSTROEM)
---------------------------------
  S    -66.266100   37.285100  139.107000
  C    -66.163700   36.113900  140.397000
  C    -66.634500   34.863100  139.994000
  C    -66.927300   34.807500  138.609000
  C    -66.733500   36.049000  137.988000
  H    -67.299100   33.952500  138.063000
  C    -66.806700   33.621000  140.898000
  H    -67.727800   33.596800  141.410000
  H    -66.067800   33.749400  141.672000
  C    -66.493300   32.315100  140.303000
  H    -65.746100   32.287800  139.555000
  H    -65.967100   31.784300  141.177000
  C    -67.648200   31.416200  139.878000
  H    -68.398600   31.194300  140.652000
  H    -68.012600   31.730400  138.881000
  H    -67.219600   30.412500  139.794000
  S    -65.615300   35.093300  135.780000
  C    -65.684700   35.972300  134.256000
  C    -66.672000   36.921200  134.400000
  C    -67.149900   37.234300  135.663000
  C    -66.633800   36.323100  136.581000
  H    -67.019200   37.351800  133.490000
  C    -68.100500   38.377300  135.916000
  H    -68.401800   38.252200  136.955000
  H    -68.967700   38.394700  135.238000
  C    -67.547800   39.806400  135.778000
  H    -68.358300   40.493000  136.045000
  H    -67.460900   40.025800  134.702000
  C    -66.310800   40.014600  136.596000
  H    -66.470700   39.887700  137.681000
  H    -65.990800   41.017900  136.545000
  H    -65.504200   39.339200  136.296000
  H    -65.877400   36.221000  141.429000
  H    -65.310000   35.509800  133.367000

 Total Charge           Charge          ....    0
 Multiplicity           Mult            ....    1
 Number of Electrons    NEL             ....  134
 Basis Dimension        Dim             ....  322

ORBITAL ENERGIES
----------------

  NO   OCC          E(Eh)            E(eV)
   0   2.0000     -88.970745     -2421.0171
   1   2.0000     -88.959871     -2420.7212
   2   2.0000     -10.329204      -281.0719
   3   2.0000     -10.327783      -281.0333
   4   2.0000     -10.312560      -280.6190
   5   2.0000     -10.310758      -280.5700
   6   2.0000     -10.301562      -280.3198
   7   2.0000     -10.299662      -280.2681
   8   2.0000     -10.292887      -280.0837
   9   2.0000     -10.290695      -280.0241
  10   2.0000     -10.287155      -279.9277
  11   2.0000     -10.283670      -279.8329
  12   2.0000     -10.283637      -279.8320
  13   2.0000     -10.283000      -279.8147
  14   2.0000     -10.280474      -279.7459
  15   2.0000     -10.267560      -279.3945
  16   2.0000      -8.085082      -220.0063
  17   2.0000      -8.074198      -219.7101
  18   2.0000      -6.043588      -164.4544
  19   2.0000      -6.039591      -164.3456
  20   2.0000      -6.035929      -164.2460
  21   2.0000      -6.032676      -164.1575
  22   2.0000      -6.028848      -164.0533
  23   2.0000      -6.024904      -163.9460
  24   2.0000      -1.008603       -27.4455
  25   2.0000      -0.983934       -26.7742
  26   2.0000      -0.919260       -25.0143
  27   2.0000      -0.911560       -24.8048
  28   2.0000      -0.871250       -23.7079
  29   2.0000      -0.851588       -23.1729
  30   2.0000      -0.845902       -23.0182
  31   2.0000      -0.810573       -22.0568
  32   2.0000      -0.789238       -21.4763
  33   2.0000      -0.777385       -21.1537
  34   2.0000      -0.710560       -19.3353
  35   2.0000      -0.698209       -18.9992
  36   2.0000      -0.688075       -18.7235
  37   2.0000      -0.665391       -18.1062
  38   2.0000      -0.635323       -17.2880
  39   2.0000      -0.622786       -16.9469
  40   2.0000      -0.597285       -16.2530
  41   2.0000      -0.569865       -15.5068
  42   2.0000      -0.557689       -15.1755
  43   2.0000      -0.552656       -15.0385
  44   2.0000      -0.547432       -14.8964
  45   2.0000      -0.535071       -14.5600
  46   2.0000      -0.523045       -14.2328
  47   2.0000      -0.518700       -14.1145
  48   2.0000      -0.500500       -13.6193
  49   2.0000      -0.495918       -13.4946
  50   2.0000      -0.493706       -13.4344
  51   2.0000      -0.478573       -13.0226
  52   2.0000      -0.467658       -12.7256
  53   2.0000      -0.464739       -12.6462
  54   2.0000      -0.461350       -12.5540
  55   2.0000      -0.453350       -12.3363
  56   2.0000      -0.441518       -12.0143
  57   2.0000      -0.436670       -11.8824
  58   2.0000      -0.428787       -11.6679
  59   2.0000      -0.424160       -11.5420
  60   2.0000      -0.419950       -11.4274
  61   2.0000      -0.408577       -11.1180
  62   2.0000      -0.401408       -10.9229
  63   2.0000      -0.343302        -9.3417
  64   2.0000      -0.333498        -9.0749
  65   2.0000      -0.328831        -8.9480
  66   2.0000      -0.285857        -7.7786
  67   0.0000       0.026755         0.7280
  68   0.0000       0.064291         1.7494
  69   0.0000       0.097624         2.6565
  70   0.0000       0.122086         3.3221
  71   0.0000       0.132383         3.6023

MULLIKEN ATOMIC CHARGES
-----------------------
   0 S :    0.127614
   1 C :   -0.105655
   2 C :   -0.115675
   3 C :    0.012046
   4 C :   -0.141769
   5 H :    0.012541
   6 C :    0.155125
   7 H :    0.027492
   8 H :    0.008547
   9 C :   -0.133979
  10 H :    0.024755
  11 H :    0.026295
  12 C :   -0.039774
  13 H :    0.033631
  14 H :    0.042536
  15 H :    0.024505
  16 S :    0.082569
  17 C :   -0.088251
  18 C :   -0.036133
  19 C :   -0.009101
  20 C :   -0.165636
  21 H :    0.003697
  22 C :    0.073942
  23 H :    0.013925
  24 H :    0.034071
  25 C :   -0.074796
  26 H :    0.027173
  27 H :    0.022785
  28 C :   -0.033980
  29 H :    0.027691
  30 H :    0.019207
  31 H :    0.052318
  32 H :    0.034253
  33 H :    0.058030
Sum of atomic charges:   -0.0000000

LOEWDIN ATOMIC CHARGES
----------------------
   0 S :    0.437065
   1 C :   -0.210384
   2 C :   -0.055215
   3 C :   -0.072155
   4 C :   -0.202536
   5 H :    0.029859
   6 C :   -0.029925
   7 H :    0.029889
   8 H :    0.031863
   9 C :   -0.051139
  10 H :    0.021844
  11 H :    0.035591
  12 C :   -0.070074
  13 H :    0.027514
  14 H :    0.025371
  15 H :    0.029970
  16 S :    0.392934
  17 C :   -0.184448
  18 C :   -0.063548
  19 C :   -0.066733
  20 C :   -0.175266
  21 H :    0.024218
  22 C :   -0.029069
  23 H :    0.025272
  24 H :    0.036658
  25 C :   -0.043177
  26 H :    0.026546
  27 H :    0.021640
  28 C :   -0.069595
  29 H :    0.022909
  30 H :    0.020987
  31 H :    0.031229
  32 H :    0.026904
  33 H :    0.025000

  Mayer bond orders larger than 0.100000
B(  0-S ,  1-C ) :   1.1360 B(  0-S ,  4-C ) :   1.1682 B(  1-C ,  2-C ) :   1.6143
B(  1-C , 32-H ) :   0.9652 B(  2-C ,  3-C ) :   1.2599 B(  2-C ,  6-C ) :   1.0089
B(  3-C ,  4-C ) :   1.5316 B(  3-C ,  5-H ) :   0.9932 B(  4-C , 20-C ) :   1.0418
B(  6-C ,  7-H ) :   0.9289 B(  6-C ,  8-H ) :   0.9392 B(  6-C ,  9-C ) :   1.0636
B(  9-C , 10-H ) :   0.9577 B(  9-C , 11-H ) :   0.9598 B(  9-C , 12-C ) :   1.0899
B( 12-C , 13-H ) :   0.9705 B( 12-C , 14-H ) :   0.9753 B( 12-C , 15-H ) :   0.9678
B( 16-S , 17-C ) :   1.1395 B( 16-S , 20-C ) :   1.1567 B( 17-C , 18-C ) :   1.5952
B( 17-C , 20-C ) :   0.1085 B( 17-C , 33-H ) :   0.9711 B( 18-C , 19-C ) :   1.2411
B( 18-C , 21-H ) :   0.9908 B( 19-C , 20-C ) :   1.5427 B( 19-C , 22-C ) :   1.0559
B( 22-C , 23-H ) :   0.9272 B( 22-C , 24-H ) :   0.9358 B( 22-C , 25-C ) :   1.0778
B( 25-C , 26-H ) :   0.9521 B( 25-C , 27-H ) :   0.9515 B( 25-C , 28-C ) :   1.0798
B( 28-C , 29-H ) :   0.9687 B( 28-C , 30-H ) :   0.9681 B( 28-C , 31-H ) :   0.9707

Dispersion correction           -0.014953957
FINAL SINGLE POINT ENERGY     -1339.864160541187

DIPOLE MOMENT
-------------
                                X             Y             Z
Electronic contribution:      6.22225       2.97207      -5.27628
Nuclear contribution   :     -6.46427      -3.12932       5.34659
                        -----------------------------------------
Total Dipole Moment    :     -0.24202      -0.15725       0.07031
                        -----------------------------------------
Magnitude (a.u.)       :      0.29706
Magnitude (Debye)      :      0.75506

Rotational constants in cm-1:     0.023163     0.008507     0.006857
Rotational constants in MHz :   694.404112   255.034480   205.576364

                             ****ORCA TERMINATED NORMALLY****
TOTAL RUN TIME: 0 days 0 hours 0 minutes 33 seconds 507 msec
