                         Program Version 4.2.1 -  RELEASE  -
|  1> ! wB97X-D3 SP def2-SVP
|  2> %pal
|  3> nprocs 16
|  4> end
|  5>
|  6> * xyz 0 1
|  7> S 	 8.4926 	 -22.4156 	 83.6543
|  8> C 	 7.42444 	 -21.1625 	 84.1156
|  9> C 	 7.71545 	 -19.9789 	 83.4422
| 10> C 	 8.86677 	 -20.1096 	 82.559
| 11> C 	 9.43001 	 -21.36 	 82.6516
| 12> H 	 9.31519 	 -19.4071 	 81.9382
| 13> C 	 6.90811 	 -18.67 	 83.5275
| 14> H 	 7.62035 	 -17.8301 	 83.6255
| 15> H 	 6.31527 	 -18.67 	 84.3931
| 16> C 	 5.99848 	 -18.3812 	 82.3006
| 17> H 	 6.67813 	 -18.2329 	 81.4586
| 18> H 	 5.36097 	 -19.235 	 82.0934
| 19> C 	 5.04455 	 -17.2427 	 82.5734
| 20> H 	 4.48551 	 -16.9482 	 81.679
| 21> H 	 4.28133 	 -17.5505 	 83.2469
| 22> H 	 5.48989 	 -16.302 	 82.8613
| 23> S 	 10.5445 	 -23.1423 	 80.9128
| 24> C 	 12.2795 	 -23.0604 	 80.5945
| 25> C 	 12.8533 	 -22.0447 	 81.3085
| 26> C 	 11.9504 	 -21.3253 	 82.08
| 27> C 	 10.6685 	 -21.8419 	 82.0229
| 28> H 	 13.8979 	 -21.7707 	 81.1993
| 29> C 	 12.3623 	 -20.1663 	 82.985
| 30> H 	 11.6632 	 -19.3428 	 82.8992
| 31> H 	 13.2833 	 -19.7492 	 82.5683
| 32> C 	 12.6537 	 -20.4336 	 84.5299
| 33> H 	 13.5945 	 -20.9714 	 84.5888
| 34> H 	 11.8978 	 -21.1314 	 84.9355
| 35> C 	 12.737 	 -19.0928 	 85.2146
| 36> H 	 11.8079 	 -18.5347 	 85.2004
| 37> H 	 13.5744 	 -18.5059 	 84.798
| 38> H 	 13.1292 	 -19.3336 	 86.1987
| 39> H 	 6.71496 	 -21.1721 	 84.9432
| 40> H 	 12.6692 	 -23.6376 	 79.7532
| 41> *
| 42>
| 43>                          ****END OF INPUT****

CARTESIAN COORDINATES (ANGSTROEM)
---------------------------------
  S      8.492600  -22.415600   83.654300
  C      7.424440  -21.162500   84.115600
  C      7.715450  -19.978900   83.442200
  C      8.866770  -20.109600   82.559000
  C      9.430010  -21.360000   82.651600
  H      9.315190  -19.407100   81.938200
  C      6.908110  -18.670000   83.527500
  H      7.620350  -17.830100   83.625500
  H      6.315270  -18.670000   84.393100
  C      5.998480  -18.381200   82.300600
  H      6.678130  -18.232900   81.458600
  H      5.360970  -19.235000   82.093400
  C      5.044550  -17.242700   82.573400
  H      4.485510  -16.948200   81.679000
  H      4.281330  -17.550500   83.246900
  H      5.489890  -16.302000   82.861300
  S     10.544500  -23.142300   80.912800
  C     12.279500  -23.060400   80.594500
  C     12.853300  -22.044700   81.308500
  C     11.950400  -21.325300   82.080000
  C     10.668500  -21.841900   82.022900
  H     13.897900  -21.770700   81.199300
  C     12.362300  -20.166300   82.985000
  H     11.663200  -19.342800   82.899200
  H     13.283300  -19.749200   82.568300
  C     12.653700  -20.433600   84.529900
  H     13.594500  -20.971400   84.588800
  H     11.897800  -21.131400   84.935500
  C     12.737000  -19.092800   85.214600
  H     11.807900  -18.534700   85.200400
  H     13.574400  -18.505900   84.798000
  H     13.129200  -19.333600   86.198700
  H      6.714960  -21.172100   84.943200
  H     12.669200  -23.637600   79.753200

 Total Charge           Charge          ....    0
 Multiplicity           Mult            ....    1
 Number of Electrons    NEL             ....  134
 Basis Dimension        Dim             ....  322

ORBITAL ENERGIES
----------------

  NO   OCC          E(Eh)            E(eV)
   0   2.0000     -88.964560     -2420.8488
   1   2.0000     -88.963842     -2420.8292
   2   2.0000     -10.325882      -280.9815
   3   2.0000     -10.321201      -280.8542
   4   2.0000     -10.316619      -280.7295
   5   2.0000     -10.311668      -280.5948
   6   2.0000     -10.304346      -280.3955
   7   2.0000     -10.296457      -280.1808
   8   2.0000     -10.290944      -280.0308
   9   2.0000     -10.290321      -280.0139
  10   2.0000     -10.289958      -280.0040
  11   2.0000     -10.288963      -279.9769
  12   2.0000     -10.285664      -279.8871
  13   2.0000     -10.285112      -279.8721
  14   2.0000     -10.276277      -279.6317
  15   2.0000     -10.273587      -279.5585
  16   2.0000      -8.080356      -219.8777
  17   2.0000      -8.079287      -219.8486
  18   2.0000      -6.038751      -164.3228
  19   2.0000      -6.037545      -164.2899
  20   2.0000      -6.034649      -164.2111
  21   2.0000      -6.033638      -164.1836
  22   2.0000      -6.031232      -164.1182
  23   2.0000      -6.030330      -164.0936
  24   2.0000      -1.011532       -27.5252
  25   2.0000      -0.988474       -26.8977
  26   2.0000      -0.909701       -24.7542
  27   2.0000      -0.902671       -24.5629
  28   2.0000      -0.871020       -23.7017
  29   2.0000      -0.855168       -23.2703
  30   2.0000      -0.848831       -23.0979
  31   2.0000      -0.815749       -22.1977
  32   2.0000      -0.779862       -21.2211
  33   2.0000      -0.767518       -20.8852
  34   2.0000      -0.704292       -19.1648
  35   2.0000      -0.696881       -18.9631
  36   2.0000      -0.690421       -18.7873
  37   2.0000      -0.665754       -18.1161
  38   2.0000      -0.647357       -17.6155
  39   2.0000      -0.618913       -16.8415
  40   2.0000      -0.598653       -16.2902
  41   2.0000      -0.573314       -15.6007
  42   2.0000      -0.564273       -15.3546
  43   2.0000      -0.559201       -15.2166
  44   2.0000      -0.521365       -14.1871
  45   2.0000      -0.519251       -14.1295
  46   2.0000      -0.516934       -14.0665
  47   2.0000      -0.510305       -13.8861
  48   2.0000      -0.505310       -13.7502
  49   2.0000      -0.500393       -13.6164
  50   2.0000      -0.495053       -13.4711
  51   2.0000      -0.476491       -12.9660
  52   2.0000      -0.476144       -12.9565
  53   2.0000      -0.468189       -12.7401
  54   2.0000      -0.458877       -12.4867
  55   2.0000      -0.447984       -12.1903
  56   2.0000      -0.446397       -12.1471
  57   2.0000      -0.435665       -11.8550
  58   2.0000      -0.431711       -11.7474
  59   2.0000      -0.427377       -11.6295
  60   2.0000      -0.420549       -11.4437
  61   2.0000      -0.416906       -11.3446
  62   2.0000      -0.413938       -11.2638
  63   2.0000      -0.347470        -9.4551
  64   2.0000      -0.332108        -9.0371
  65   2.0000      -0.327302        -8.9063
  66   2.0000      -0.293671        -7.9912
  67   0.0000       0.038945         1.0597
  68   0.0000       0.065718         1.7883
  69   0.0000       0.114981         3.1288
  70   0.0000       0.124751         3.3947
  71   0.0000       0.135783         3.6948

MULLIKEN ATOMIC CHARGES
-----------------------
   0 S :    0.120473
   1 C :   -0.110952
   2 C :   -0.108695
   3 C :    0.065221
   4 C :   -0.163372
   5 H :   -0.009189
   6 C :    0.076591
   7 H :    0.026649
   8 H :   -0.004129
   9 C :   -0.063888
  10 H :    0.029091
  11 H :    0.030132
  12 C :   -0.032151
  13 H :    0.025770
  14 H :    0.027412
  15 H :    0.023635
  16 S :    0.107184
  17 C :   -0.106780
  18 C :   -0.023611
  19 C :   -0.015920
  20 C :   -0.166855
  21 H :    0.017446
  22 C :    0.053683
  23 H :    0.008597
  24 H :    0.005497
  25 C :   -0.063459
  26 H :    0.022892
  27 H :    0.041300
  28 C :   -0.034888
  29 H :    0.049510
  30 H :    0.026031
  31 H :    0.027864
  32 H :    0.052016
  33 H :    0.066895
Sum of atomic charges:    0.0000000

LOEWDIN ATOMIC CHARGES
----------------------
   0 S :    0.427635
   1 C :   -0.218967
   2 C :   -0.056914
   3 C :   -0.056413
   4 C :   -0.195735
   5 H :    0.021012
   6 C :   -0.027694
   7 H :    0.031116
   8 H :    0.016602
   9 C :   -0.035866
  10 H :    0.022505
  11 H :    0.026724
  12 C :   -0.065689
  13 H :    0.029546
  14 H :    0.023133
  15 H :    0.021627
  16 S :    0.417756
  17 C :   -0.182184
  18 C :   -0.069349
  19 C :   -0.064893
  20 C :   -0.211668
  21 H :    0.034571
  22 C :   -0.032531
  23 H :    0.022690
  24 H :    0.025671
  25 C :   -0.033884
  26 H :    0.022171
  27 H :    0.026958
  28 C :   -0.065202
  29 H :    0.027806
  30 H :    0.028265
  31 H :    0.028156
  32 H :    0.032773
  33 H :    0.030271

  Mayer bond orders larger than 0.100000
B(  0-S ,  1-C ) :   1.1399 B(  0-S ,  4-C ) :   1.1655 B(  1-C ,  2-C ) :   1.6216
B(  1-C , 32-H ) :   0.9653 B(  2-C ,  3-C ) :   1.2111 B(  2-C ,  6-C ) :   1.0334
B(  3-C ,  4-C ) :   1.5942 B(  3-C ,  5-H ) :   1.0052 B(  4-C , 20-C ) :   0.9925
B(  6-C ,  7-H ) :   0.9385 B(  6-C ,  8-H ) :   0.9420 B(  6-C ,  9-C ) :   1.0599
B(  9-C , 10-H ) :   0.9570 B(  9-C , 11-H ) :   0.9552 B(  9-C , 12-C ) :   1.0911
B( 12-C , 13-H ) :   0.9701 B( 12-C , 14-H ) :   0.9736 B( 12-C , 15-H ) :   0.9737
B( 16-S , 17-C ) :   1.1613 B( 16-S , 20-C ) :   1.1762 B( 17-C , 18-C ) :   1.5657
B( 17-C , 20-C ) :   0.1059 B( 17-C , 33-H ) :   0.9697 B( 18-C , 19-C ) :   1.2861
B( 18-C , 21-H ) :   0.9903 B( 19-C , 20-C ) :   1.5731 B( 19-C , 22-C ) :   1.0416
B( 22-C , 23-H ) :   0.9383 B( 22-C , 24-H ) :   0.9288 B( 22-C , 25-C ) :   1.0499
B( 25-C , 26-H ) :   0.9538 B( 25-C , 27-H ) :   0.9601 B( 25-C , 28-C ) :   1.0835
B( 28-C , 29-H ) :   0.9754 B( 28-C , 30-H ) :   0.9705 B( 28-C , 31-H ) :   0.9691

Dispersion correction           -0.014059022
FINAL SINGLE POINT ENERGY     -1339.892858591985

DIPOLE MOMENT
-------------
                                X             Y             Z
Electronic contribution:      2.67961     -25.60036      -8.57960
Nuclear contribution   :     -2.54496      26.22897       8.63264
                        -----------------------------------------
Total Dipole Moment    :      0.13465       0.62861       0.05305
                        -----------------------------------------
Magnitude (a.u.)       :      0.64506
Magnitude (Debye)      :      1.63960

Rotational constants in cm-1:     0.018420     0.008150     0.006859
Rotational constants in MHz :   552.205568   244.341004   205.625789

                             ****ORCA TERMINATED NORMALLY****
TOTAL RUN TIME: 0 days 0 hours 0 minutes 33 seconds 608 msec
