                         Program Version 4.2.1 -  RELEASE  -
|  1> ! wB97X-D3 SP def2-SVP
|  2> %pal
|  3> nprocs 16
|  4> end
|  5>
|  6> * xyz 0 1
|  7> S 	 -33.8632 	 45.8261 	 99.4923
|  8> C 	 -35.2875 	 44.948 	 98.9053
|  9> C 	 -35.478 	 45.1095 	 97.5662
| 10> C 	 -34.4085 	 45.8367 	 96.9414
| 11> C 	 -33.5659 	 46.4385 	 97.8686
| 12> H 	 -34.1894 	 45.8874 	 95.8984
| 13> C 	 -36.5836 	 44.3947 	 96.7981
| 14> H 	 -37.0957 	 45.218 	 96.448
| 15> H 	 -37.1883 	 43.983 	 97.5518
| 16> C 	 -36.1503 	 43.2897 	 95.9273
| 17> H 	 -35.2464 	 43.5492 	 95.3798
| 18> H 	 -36.0233 	 42.3731 	 96.5277
| 19> C 	 -37.1456 	 42.9158 	 94.829
| 20> H 	 -37.3414 	 43.7499 	 94.2577
| 21> H 	 -36.7089 	 42.1342 	 94.2314
| 22> H 	 -38.0827 	 42.5554 	 95.2051
| 23> S 	 -31.7285 	 48.341 	 98.6606
| 24> C 	 -30.4059 	 48.7896 	 97.616
| 25> C 	 -30.5228 	 48.1712 	 96.3883
| 26> C 	 -31.568 	 47.2078 	 96.3157
| 27> C 	 -32.3192 	 47.1166 	 97.5484
| 28> H 	 -29.8751 	 48.4288 	 95.5835
| 29> C 	 -31.6638 	 46.3643 	 95.1067
| 30> H 	 -30.9544 	 46.7992 	 94.3208
| 31> H 	 -32.6641 	 46.4034 	 94.6135
| 32> C 	 -31.3934 	 44.8359 	 95.3743
| 33> H 	 -31.3988 	 44.2543 	 94.3968
| 34> H 	 -32.2175 	 44.5099 	 95.9441
| 35> C 	 -30.0896 	 44.5553 	 96.2179
| 36> H 	 -29.94 	 45.2225 	 97.1287
| 37> H 	 -29.2749 	 44.9748 	 95.6609
| 38> H 	 -29.86 	 43.5196 	 96.5053
| 39> H 	 -36.0222 	 44.3862 	 99.4504
| 40> H 	 -29.6966 	 49.5513 	 97.8251
| 41> *
| 42>
| 43>                          ****END OF INPUT****

CARTESIAN COORDINATES (ANGSTROEM)
---------------------------------
  S    -33.863200   45.826100   99.492300
  C    -35.287500   44.948000   98.905300
  C    -35.478000   45.109500   97.566200
  C    -34.408500   45.836700   96.941400
  C    -33.565900   46.438500   97.868600
  H    -34.189400   45.887400   95.898400
  C    -36.583600   44.394700   96.798100
  H    -37.095700   45.218000   96.448000
  H    -37.188300   43.983000   97.551800
  C    -36.150300   43.289700   95.927300
  H    -35.246400   43.549200   95.379800
  H    -36.023300   42.373100   96.527700
  C    -37.145600   42.915800   94.829000
  H    -37.341400   43.749900   94.257700
  H    -36.708900   42.134200   94.231400
  H    -38.082700   42.555400   95.205100
  S    -31.728500   48.341000   98.660600
  C    -30.405900   48.789600   97.616000
  C    -30.522800   48.171200   96.388300
  C    -31.568000   47.207800   96.315700
  C    -32.319200   47.116600   97.548400
  H    -29.875100   48.428800   95.583500
  C    -31.663800   46.364300   95.106700
  H    -30.954400   46.799200   94.320800
  H    -32.664100   46.403400   94.613500
  C    -31.393400   44.835900   95.374300
  H    -31.398800   44.254300   94.396800
  H    -32.217500   44.509900   95.944100
  C    -30.089600   44.555300   96.217900
  H    -29.940000   45.222500   97.128700
  H    -29.274900   44.974800   95.660900
  H    -29.860000   43.519600   96.505300
  H    -36.022200   44.386200   99.450400
  H    -29.696600   49.551300   97.825100

 Total Charge           Charge          ....    0
 Multiplicity           Mult            ....    1
 Number of Electrons    NEL             ....  134
 Basis Dimension        Dim             ....  322

ORBITAL ENERGIES
----------------

  NO   OCC          E(Eh)            E(eV)
   0   2.0000     -88.968236     -2420.9488
   1   2.0000     -88.967856     -2420.9384
   2   2.0000     -10.333289      -281.1831
   3   2.0000     -10.332394      -281.1587
   4   2.0000     -10.315849      -280.7085
   5   2.0000     -10.311377      -280.5868
   6   2.0000     -10.307163      -280.4722
   7   2.0000     -10.302288      -280.3395
   8   2.0000     -10.297816      -280.2178
   9   2.0000     -10.294322      -280.1227
  10   2.0000     -10.292669      -280.0778
  11   2.0000     -10.292631      -280.0767
  12   2.0000     -10.285820      -279.8914
  13   2.0000     -10.279228      -279.7120
  14   2.0000     -10.276050      -279.6255
  15   2.0000     -10.268613      -279.4232
  16   2.0000      -8.082804      -219.9443
  17   2.0000      -8.081922      -219.9203
  18   2.0000      -6.041269      -164.3913
  19   2.0000      -6.040612      -164.3734
  20   2.0000      -6.037201      -164.2806
  21   2.0000      -6.036656      -164.2658
  22   2.0000      -6.033761      -164.1870
  23   2.0000      -6.032384      -164.1495
  24   2.0000      -1.005126       -27.3509
  25   2.0000      -0.983279       -26.7564
  26   2.0000      -0.923779       -25.1373
  27   2.0000      -0.905160       -24.6307
  28   2.0000      -0.873821       -23.7779
  29   2.0000      -0.848911       -23.1000
  30   2.0000      -0.841861       -22.9082
  31   2.0000      -0.816482       -22.2176
  32   2.0000      -0.787282       -21.4230
  33   2.0000      -0.772213       -21.0130
  34   2.0000      -0.714884       -19.4530
  35   2.0000      -0.704498       -19.1704
  36   2.0000      -0.689369       -18.7587
  37   2.0000      -0.665861       -18.1190
  38   2.0000      -0.637938       -17.3592
  39   2.0000      -0.624760       -17.0006
  40   2.0000      -0.591521       -16.0961
  41   2.0000      -0.576522       -15.6880
  42   2.0000      -0.567434       -15.4407
  43   2.0000      -0.548361       -14.9216
  44   2.0000      -0.543102       -14.7785
  45   2.0000      -0.539505       -14.6807
  46   2.0000      -0.518606       -14.1120
  47   2.0000      -0.506378       -13.7792
  48   2.0000      -0.501546       -13.6478
  49   2.0000      -0.496040       -13.4979
  50   2.0000      -0.494353       -13.4520
  51   2.0000      -0.480869       -13.0851
  52   2.0000      -0.471108       -12.8195
  53   2.0000      -0.466537       -12.6951
  54   2.0000      -0.462562       -12.5869
  55   2.0000      -0.450367       -12.2551
  56   2.0000      -0.446375       -12.1465
  57   2.0000      -0.438742       -11.9388
  58   2.0000      -0.428558       -11.6617
  59   2.0000      -0.427165       -11.6238
  60   2.0000      -0.421924       -11.4811
  61   2.0000      -0.413056       -11.2398
  62   2.0000      -0.409055       -11.1310
  63   2.0000      -0.357733        -9.7344
  64   2.0000      -0.332014        -9.0346
  65   2.0000      -0.330485        -8.9930
  66   2.0000      -0.282216        -7.6795
  67   0.0000       0.016311         0.4438
  68   0.0000       0.079510         2.1636
  69   0.0000       0.103844         2.8257
  70   0.0000       0.114093         3.1046
  71   0.0000       0.131043         3.5659

MULLIKEN ATOMIC CHARGES
-----------------------
   0 S :    0.102714
   1 C :   -0.096860
   2 C :   -0.136974
   3 C :   -0.006223
   4 C :   -0.086997
   5 H :   -0.012169
   6 C :    0.158035
   7 H :    0.015678
   8 H :   -0.011698
   9 C :   -0.078680
  10 H :    0.028961
  11 H :    0.035228
  12 C :   -0.005601
  13 H :    0.011313
  14 H :    0.029825
  15 H :    0.018592
  16 S :    0.104853
  17 C :   -0.073763
  18 C :   -0.031355
  19 C :   -0.052033
  20 C :   -0.130388
  21 H :    0.009907
  22 C :   -0.006752
  23 H :    0.032708
  24 H :    0.046907
  25 C :   -0.060504
  26 H :    0.044173
  27 H :    0.033833
  28 C :   -0.074199
  29 H :    0.050865
  30 H :    0.011481
  31 H :    0.047690
  32 H :    0.033048
  33 H :    0.048386
Sum of atomic charges:    0.0000000

LOEWDIN ATOMIC CHARGES
----------------------
   0 S :    0.388993
   1 C :   -0.190834
   2 C :   -0.055455
   3 C :   -0.060125
   4 C :   -0.185128
   5 H :    0.022908
   6 C :   -0.025224
   7 H :    0.024593
   8 H :    0.025265
   9 C :   -0.035577
  10 H :    0.023172
  11 H :    0.032066
  12 C :   -0.050651
  13 H :    0.012567
  14 H :    0.026648
  15 H :    0.019838
  16 S :    0.415757
  17 C :   -0.184926
  18 C :   -0.067937
  19 C :   -0.059016
  20 C :   -0.198726
  21 H :    0.028079
  22 C :   -0.041938
  23 H :    0.036143
  24 H :    0.031551
  25 C :   -0.035335
  26 H :    0.032350
  27 H :    0.014835
  28 C :   -0.080445
  29 H :    0.038796
  30 H :    0.018440
  31 H :    0.028157
  32 H :    0.026164
  33 H :    0.024996

  Mayer bond orders larger than 0.100000
B(  0-S ,  1-C ) :   1.1121 B(  0-S ,  4-C ) :   1.1404 B(  1-C ,  2-C ) :   1.6600
B(  1-C , 32-H ) :   0.9578 B(  2-C ,  3-C ) :   1.2185 B(  2-C ,  6-C ) :   1.0088
B(  3-C ,  4-C ) :   1.5845 B(  3-C ,  5-H ) :   0.9937 B(  4-C , 20-C ) :   1.0655
B(  6-C ,  7-H ) :   0.9330 B(  6-C ,  8-H ) :   0.9231 B(  6-C ,  9-C ) :   1.0664
B(  9-C , 10-H ) :   0.9624 B(  9-C , 11-H ) :   0.9525 B(  9-C , 12-C ) :   1.0853
B( 12-C , 13-H ) :   0.9768 B( 12-C , 14-H ) :   0.9738 B( 12-C , 15-H ) :   0.9738
B( 16-S , 17-C ) :   1.1647 B( 16-S , 20-C ) :   1.1548 B( 17-C , 18-C ) :   1.5716
B( 17-C , 20-C ) :   0.1064 B( 17-C , 33-H ) :   0.9714 B( 18-C , 19-C ) :   1.2936
B( 18-C , 21-H ) :   0.9925 B( 19-C , 20-C ) :   1.5049 B( 19-C , 22-C ) :   1.0554
B( 22-C , 23-H ) :   0.9363 B( 22-C , 24-H ) :   0.9280 B( 22-C , 25-C ) :   1.0570
B( 25-C , 26-H ) :   0.9582 B( 25-C , 27-H ) :   0.9542 B( 25-C , 28-C ) :   1.0627
B( 28-C , 29-H ) :   0.9687 B( 28-C , 30-H ) :   0.9759 B( 28-C , 31-H ) :   0.9782

Dispersion correction           -0.015264922
FINAL SINGLE POINT ENERGY     -1339.863555237127

DIPOLE MOMENT
-------------
                                X             Y             Z
Electronic contribution:      5.57011      19.03745      21.30286
Nuclear contribution   :     -5.70547     -19.32556     -21.95752
                        -----------------------------------------
Total Dipole Moment    :     -0.13535      -0.28811      -0.65466
                        -----------------------------------------
Magnitude (a.u.)       :      0.72795
Magnitude (Debye)      :      1.85030

Rotational constants in cm-1:     0.020808     0.008931     0.007091
Rotational constants in MHz :   623.802755   267.753856   212.583962

                             ****ORCA TERMINATED NORMALLY****
TOTAL RUN TIME: 0 days 0 hours 0 minutes 32 seconds 53 msec
