                         Program Version 4.2.1 -  RELEASE  -
|  1> ! wB97X-D3 SP def2-SVP
|  2> %pal
|  3> nprocs 16
|  4> end
|  5>
|  6> * xyz 0 1
|  7> S 	 39.1986 	 12.4377 	 82.8131
|  8> C 	 40.9309 	 12.6052 	 82.9794
|  9> C 	 41.6285 	 12.2059 	 81.8608
| 10> C 	 40.7086 	 11.7288 	 80.8757
| 11> C 	 39.3632 	 11.8502 	 81.1576
| 12> H 	 41.0842 	 11.284 	 79.97
| 13> C 	 43.1181 	 12.0339 	 81.7609
| 14> H 	 43.5005 	 11.2801 	 81.0798
| 15> H 	 43.49 	 11.6678 	 82.7164
| 16> C 	 43.7759 	 13.3785 	 81.6349
| 17> H 	 43.8074 	 13.9648 	 82.6006
| 18> H 	 44.8043 	 13.2295 	 81.3477
| 19> C 	 43.3034 	 14.119 	 80.4889
| 20> H 	 43.4898 	 13.5854 	 79.6273
| 21> H 	 42.2928 	 14.4277 	 80.5974
| 22> H 	 43.8108 	 15.1242 	 80.2936
| 23> S 	 36.9612 	 10.4746 	 80.9652
| 24> C 	 36.0678 	 10.4035 	 79.4122
| 25> C 	 36.801 	 11.0951 	 78.4164
| 26> C 	 38.0203 	 11.6794 	 78.8725
| 27> C 	 38.2392 	 11.4738 	 80.2594
| 28> H 	 36.4593 	 11.1458 	 77.3774
| 29> C 	 38.9497 	 12.3635 	 77.9343
| 30> H 	 39.6905 	 13.1117 	 78.388
| 31> H 	 38.3137 	 12.9292 	 77.2742
| 32> C 	 39.74 	 11.3766 	 77.0726
| 33> H 	 39.1036 	 10.6566 	 76.5456
| 34> H 	 40.2474 	 10.6788 	 77.8177
| 35> C 	 40.7097 	 11.9861 	 76.1045
| 36> H 	 41.1978 	 11.3333 	 75.3569
| 37> H 	 41.5388 	 12.6144 	 76.4526
| 38> H 	 40.0771 	 12.6274 	 75.5304
| 39> H 	 41.5473 	 12.8425 	 83.8703
| 40> H 	 35.2231 	 9.85773 	 79.2438
| 41> *
| 42>
| 43>                          ****END OF INPUT****

CARTESIAN COORDINATES (ANGSTROEM)
---------------------------------
  S     39.198600   12.437700   82.813100
  C     40.930900   12.605200   82.979400
  C     41.628500   12.205900   81.860800
  C     40.708600   11.728800   80.875700
  C     39.363200   11.850200   81.157600
  H     41.084200   11.284000   79.970000
  C     43.118100   12.033900   81.760900
  H     43.500500   11.280100   81.079800
  H     43.490000   11.667800   82.716400
  C     43.775900   13.378500   81.634900
  H     43.807400   13.964800   82.600600
  H     44.804300   13.229500   81.347700
  C     43.303400   14.119000   80.488900
  H     43.489800   13.585400   79.627300
  H     42.292800   14.427700   80.597400
  H     43.810800   15.124200   80.293600
  S     36.961200   10.474600   80.965200
  C     36.067800   10.403500   79.412200
  C     36.801000   11.095100   78.416400
  C     38.020300   11.679400   78.872500
  C     38.239200   11.473800   80.259400
  H     36.459300   11.145800   77.377400
  C     38.949700   12.363500   77.934300
  H     39.690500   13.111700   78.388000
  H     38.313700   12.929200   77.274200
  C     39.740000   11.376600   77.072600
  H     39.103600   10.656600   76.545600
  H     40.247400   10.678800   77.817700
  C     40.709700   11.986100   76.104500
  H     41.197800   11.333300   75.356900
  H     41.538800   12.614400   76.452600
  H     40.077100   12.627400   75.530400
  H     41.547300   12.842500   83.870300
  H     35.223100    9.857730   79.243800

 Total Charge           Charge          ....    0
 Multiplicity           Mult            ....    1
 Number of Electrons    NEL             ....  134
 Basis Dimension        Dim             ....  322

ORBITAL ENERGIES
----------------

  NO   OCC          E(Eh)            E(eV)
   0   2.0000     -88.970679     -2421.0153
   1   2.0000     -88.968622     -2420.9593
   2   2.0000     -10.335981      -281.2563
   3   2.0000     -10.333253      -281.1821
   4   2.0000     -10.321669      -280.8669
   5   2.0000     -10.315666      -280.7036
   6   2.0000     -10.308230      -280.5012
   7   2.0000     -10.302748      -280.3520
   8   2.0000     -10.297911      -280.2204
   9   2.0000     -10.295315      -280.1498
  10   2.0000     -10.291636      -280.0496
  11   2.0000     -10.291338      -280.0416
  12   2.0000     -10.291148      -280.0364
  13   2.0000     -10.279767      -279.7267
  14   2.0000     -10.278259      -279.6856
  15   2.0000     -10.262863      -279.2667
  16   2.0000      -8.084724      -219.9965
  17   2.0000      -8.082162      -219.9268
  18   2.0000      -6.043411      -164.4496
  19   2.0000      -6.040734      -164.3767
  20   2.0000      -6.039344      -164.3389
  21   2.0000      -6.036742      -164.2681
  22   2.0000      -6.035313      -164.2292
  23   2.0000      -6.033025      -164.1670
  24   2.0000      -1.001819       -27.2609
  25   2.0000      -0.980158       -26.6714
  26   2.0000      -0.928379       -25.2625
  27   2.0000      -0.914026       -24.8719
  28   2.0000      -0.867434       -23.6041
  29   2.0000      -0.853813       -23.2334
  30   2.0000      -0.847652       -23.0658
  31   2.0000      -0.814741       -22.1702
  32   2.0000      -0.786938       -21.4137
  33   2.0000      -0.774140       -21.0654
  34   2.0000      -0.705320       -19.1927
  35   2.0000      -0.698584       -19.0094
  36   2.0000      -0.694255       -18.8916
  37   2.0000      -0.666783       -18.1441
  38   2.0000      -0.633908       -17.2495
  39   2.0000      -0.618399       -16.8275
  40   2.0000      -0.600867       -16.3504
  41   2.0000      -0.587814       -15.9952
  42   2.0000      -0.564054       -15.3487
  43   2.0000      -0.557019       -15.1573
  44   2.0000      -0.549019       -14.9396
  45   2.0000      -0.523815       -14.2537
  46   2.0000      -0.519720       -14.1423
  47   2.0000      -0.512342       -13.9415
  48   2.0000      -0.509813       -13.8727
  49   2.0000      -0.500407       -13.6168
  50   2.0000      -0.491989       -13.3877
  51   2.0000      -0.478909       -13.0318
  52   2.0000      -0.468490       -12.7483
  53   2.0000      -0.465316       -12.6619
  54   2.0000      -0.457598       -12.4519
  55   2.0000      -0.451240       -12.2789
  56   2.0000      -0.438849       -11.9417
  57   2.0000      -0.434795       -11.8314
  58   2.0000      -0.433502       -11.7962
  59   2.0000      -0.427775       -11.6403
  60   2.0000      -0.423758       -11.5311
  61   2.0000      -0.409001       -11.1295
  62   2.0000      -0.406732       -11.0677
  63   2.0000      -0.347593        -9.4585
  64   2.0000      -0.331804        -9.0289
  65   2.0000      -0.330645        -8.9973
  66   2.0000      -0.289872        -7.8878
  67   0.0000       0.023749         0.6462
  68   0.0000       0.069438         1.8895
  69   0.0000       0.105222         2.8632
  70   0.0000       0.122618         3.3366
  71   0.0000       0.125524         3.4157

MULLIKEN ATOMIC CHARGES
-----------------------
   0 S :    0.123053
   1 C :   -0.114788
   2 C :   -0.114263
   3 C :    0.026497
   4 C :   -0.125057
   5 H :   -0.007541
   6 C :    0.090485
   7 H :    0.029273
   8 H :    0.020475
   9 C :   -0.082584
  10 H :    0.039222
  11 H :    0.015426
  12 C :   -0.026783
  13 H :    0.007275
  14 H :    0.034066
  15 H :    0.027104
  16 S :    0.095538
  17 C :   -0.059936
  18 C :   -0.040964
  19 C :   -0.023205
  20 C :   -0.150979
  21 H :    0.028720
  22 C :    0.046124
  23 H :    0.051904
  24 H :    0.014100
  25 C :   -0.091951
  26 H :    0.024726
  27 H :    0.026408
  28 C :   -0.022320
  29 H :    0.036423
  30 H :    0.032828
  31 H :    0.010877
  32 H :    0.051123
  33 H :    0.028725
Sum of atomic charges:   -0.0000000

LOEWDIN ATOMIC CHARGES
----------------------
   0 S :    0.406314
   1 C :   -0.202369
   2 C :   -0.064594
   3 C :   -0.059246
   4 C :   -0.195916
   5 H :    0.024396
   6 C :   -0.030427
   7 H :    0.033184
   8 H :    0.034844
   9 C :   -0.049390
  10 H :    0.028773
  11 H :    0.024337
  12 C :   -0.063295
  13 H :    0.014087
  14 H :    0.019459
  15 H :    0.033128
  16 S :    0.388525
  17 C :   -0.159369
  18 C :   -0.063720
  19 C :   -0.054811
  20 C :   -0.187305
  21 H :    0.034683
  22 C :   -0.036996
  23 H :    0.043170
  24 H :    0.025776
  25 C :   -0.047356
  26 H :    0.025683
  27 H :    0.022562
  28 C :   -0.072500
  29 H :    0.031960
  30 H :    0.026462
  31 H :    0.022260
  32 H :    0.037382
  33 H :    0.010309

  Mayer bond orders larger than 0.100000
B(  0-S ,  1-C ) :   1.1413 B(  0-S ,  4-C ) :   1.1376 B(  1-C ,  2-C ) :   1.6193
B(  1-C , 32-H ) :   0.9520 B(  2-C ,  3-C ) :   1.2569 B(  2-C ,  6-C ) :   1.0137
B(  3-C ,  4-C ) :   1.5567 B(  3-C ,  5-H ) :   0.9976 B(  4-C , 20-C ) :   1.0388
B(  6-C ,  7-H ) :   0.9480 B(  6-C ,  8-H ) :   0.9349 B(  6-C ,  9-C ) :   1.0770
B(  9-C , 10-H ) :   0.9554 B(  9-C , 11-H ) :   0.9490 B(  9-C , 12-C ) :   1.0918
B( 12-C , 13-H ) :   0.9713 B( 12-C , 14-H ) :   0.9644 B( 12-C , 15-H ) :   0.9666
B( 16-S , 17-C ) :   1.1519 B( 16-S , 20-C ) :   1.1466 B( 17-C , 18-C ) :   1.5797
B( 17-C , 20-C ) :   0.1093 B( 17-C , 33-H ) :   0.9834 B( 18-C , 19-C ) :   1.2630
B( 18-C , 21-H ) :   0.9826 B( 19-C , 20-C ) :   1.5652 B( 19-C , 22-C ) :   1.0568
B( 22-C , 23-H ) :   0.9384 B( 22-C , 24-H ) :   0.9198 B( 22-C , 25-C ) :   1.0563
B( 25-C , 26-H ) :   0.9503 B( 25-C , 27-H ) :   0.9503 B( 25-C , 28-C ) :   1.0750
B( 28-C , 29-H ) :   0.9731 B( 28-C , 30-H ) :   0.9747 B( 28-C , 31-H ) :   0.9678

Dispersion correction           -0.014823929
FINAL SINGLE POINT ENERGY     -1339.865337915053

DIPOLE MOMENT
-------------
                                X             Y             Z
Electronic contribution:    -23.86404      -7.73522      18.84324
Nuclear contribution   :     24.41915       7.67004     -19.41370
                        -----------------------------------------
Total Dipole Moment    :      0.55512      -0.06517      -0.57047
                        -----------------------------------------
Magnitude (a.u.)       :      0.79865
Magnitude (Debye)      :      2.03000

Rotational constants in cm-1:     0.017650     0.009969     0.006775
Rotational constants in MHz :   529.128336   298.871191   203.119806

                             ****ORCA TERMINATED NORMALLY****
TOTAL RUN TIME: 0 days 0 hours 0 minutes 31 seconds 460 msec
