                         Program Version 4.2.1 -  RELEASE  -
|  1> ! wB97X-D3 SP def2-SVP
|  2> %pal
|  3> nprocs 16
|  4> end
|  5>
|  6> * xyz 0 1
|  7> S 	 -31.4483 	 38.2885 	 97.5979
|  8> C 	 -32.6819 	 37.5448 	 96.5485
|  9> C 	 -32.6975 	 38.2443 	 95.3094
| 10> C 	 -31.7532 	 39.3404 	 95.2379
| 11> C 	 -31.0555 	 39.5797 	 96.3921
| 12> H 	 -31.6083 	 40.1049 	 94.5143
| 13> C 	 -33.4509 	 37.8559 	 94.077
| 14> H 	 -34.2879 	 38.5275 	 93.8786
| 15> H 	 -33.9474 	 36.9494 	 94.2768
| 16> C 	 -32.6031 	 37.8209 	 92.8071
| 17> H 	 -32.1473 	 38.8041 	 92.6004
| 18> H 	 -31.7406 	 37.2702 	 93.143
| 19> C 	 -33.3196 	 37.3134 	 91.6248
| 20> H 	 -34.0367 	 37.9924 	 91.1776
| 21> H 	 -32.6385 	 37.0865 	 90.7765
| 22> H 	 -33.7786 	 36.3171 	 91.8957
| 23> S 	 -28.5127 	 40.0875 	 97.0436
| 24> C 	 -27.9943 	 41.7574 	 97.1165
| 25> C 	 -29.0925 	 42.6253 	 96.9675
| 26> C 	 -30.2428 	 41.9466 	 96.4099
| 27> C 	 -30.1204 	 40.5946 	 96.6873
| 28> H 	 -28.8913 	 43.7059 	 97.0713
| 29> C 	 -31.475 	 42.6901 	 95.8813
| 30> H 	 -31.8157 	 43.4255 	 96.6279
| 31> H 	 -32.3826 	 42.0339 	 95.8987
| 32> C 	 -31.3545 	 43.395 	 94.5586
| 33> H 	 -32.3393 	 43.9357 	 94.3154
| 34> H 	 -31.3061 	 42.6269 	 93.8023
| 35> C 	 -30.1907 	 44.3806 	 94.4423
| 36> H 	 -30.2343 	 44.9217 	 93.4996
| 37> H 	 -29.1559 	 43.9343 	 94.3922
| 38> H 	 -30.227 	 45.0253 	 95.3109
| 39> H 	 -33.2218 	 36.6221 	 96.7746
| 40> H 	 -27.0105 	 41.969 	 97.4772
| 41> *
| 42>
| 43>                          ****END OF INPUT****

CARTESIAN COORDINATES (ANGSTROEM)
---------------------------------
  S    -31.448300   38.288500   97.597900
  C    -32.681900   37.544800   96.548500
  C    -32.697500   38.244300   95.309400
  C    -31.753200   39.340400   95.237900
  C    -31.055500   39.579700   96.392100
  H    -31.608300   40.104900   94.514300
  C    -33.450900   37.855900   94.077000
  H    -34.287900   38.527500   93.878600
  H    -33.947400   36.949400   94.276800
  C    -32.603100   37.820900   92.807100
  H    -32.147300   38.804100   92.600400
  H    -31.740600   37.270200   93.143000
  C    -33.319600   37.313400   91.624800
  H    -34.036700   37.992400   91.177600
  H    -32.638500   37.086500   90.776500
  H    -33.778600   36.317100   91.895700
  S    -28.512700   40.087500   97.043600
  C    -27.994300   41.757400   97.116500
  C    -29.092500   42.625300   96.967500
  C    -30.242800   41.946600   96.409900
  C    -30.120400   40.594600   96.687300
  H    -28.891300   43.705900   97.071300
  C    -31.475000   42.690100   95.881300
  H    -31.815700   43.425500   96.627900
  H    -32.382600   42.033900   95.898700
  C    -31.354500   43.395000   94.558600
  H    -32.339300   43.935700   94.315400
  H    -31.306100   42.626900   93.802300
  C    -30.190700   44.380600   94.442300
  H    -30.234300   44.921700   93.499600
  H    -29.155900   43.934300   94.392200
  H    -30.227000   45.025300   95.310900
  H    -33.221800   36.622100   96.774600
  H    -27.010500   41.969000   97.477200

 Total Charge           Charge          ....    0
 Multiplicity           Mult            ....    1
 Number of Electrons    NEL             ....  134
 Basis Dimension        Dim             ....  322

ORBITAL ENERGIES
----------------

  NO   OCC          E(Eh)            E(eV)
   0   2.0000     -88.966582     -2420.9038
   1   2.0000     -88.961531     -2420.7663
   2   2.0000     -10.326239      -280.9912
   3   2.0000     -10.322607      -280.8924
   4   2.0000     -10.322496      -280.8894
   5   2.0000     -10.319436      -280.8061
   6   2.0000     -10.311796      -280.5982
   7   2.0000     -10.307090      -280.4702
   8   2.0000     -10.304410      -280.3973
   9   2.0000     -10.297238      -280.2021
  10   2.0000     -10.293285      -280.0945
  11   2.0000     -10.290841      -280.0280
  12   2.0000     -10.282587      -279.8034
  13   2.0000     -10.281788      -279.7817
  14   2.0000     -10.281624      -279.7772
  15   2.0000     -10.280637      -279.7503
  16   2.0000      -8.082082      -219.9246
  17   2.0000      -8.074972      -219.7312
  18   2.0000      -6.040508      -164.3706
  19   2.0000      -6.036554      -164.2630
  20   2.0000      -6.033652      -164.1840
  21   2.0000      -6.032796      -164.1607
  22   2.0000      -6.029616      -164.0742
  23   2.0000      -6.025663      -163.9666
  24   2.0000      -1.009075       -27.4583
  25   2.0000      -0.975523       -26.5453
  26   2.0000      -0.916973       -24.9521
  27   2.0000      -0.913282       -24.8517
  28   2.0000      -0.873475       -23.7685
  29   2.0000      -0.851213       -23.1627
  30   2.0000      -0.842724       -22.9317
  31   2.0000      -0.814707       -22.1693
  32   2.0000      -0.788505       -21.4563
  33   2.0000      -0.768304       -20.9066
  34   2.0000      -0.711766       -19.3681
  35   2.0000      -0.697694       -18.9852
  36   2.0000      -0.690129       -18.7794
  37   2.0000      -0.665145       -18.0995
  38   2.0000      -0.646811       -17.6006
  39   2.0000      -0.615667       -16.7531
  40   2.0000      -0.597100       -16.2479
  41   2.0000      -0.569478       -15.4963
  42   2.0000      -0.562846       -15.3158
  43   2.0000      -0.554964       -15.1013
  44   2.0000      -0.547166       -14.8892
  45   2.0000      -0.528097       -14.3702
  46   2.0000      -0.514944       -14.0123
  47   2.0000      -0.511629       -13.9221
  48   2.0000      -0.505194       -13.7470
  49   2.0000      -0.499807       -13.6004
  50   2.0000      -0.489603       -13.3228
  51   2.0000      -0.487330       -13.2609
  52   2.0000      -0.474002       -12.8982
  53   2.0000      -0.465077       -12.6554
  54   2.0000      -0.454659       -12.3719
  55   2.0000      -0.446621       -12.1532
  56   2.0000      -0.443917       -12.0796
  57   2.0000      -0.441119       -12.0035
  58   2.0000      -0.429179       -11.6786
  59   2.0000      -0.424479       -11.5507
  60   2.0000      -0.417185       -11.3522
  61   2.0000      -0.412980       -11.2378
  62   2.0000      -0.407702       -11.0941
  63   2.0000      -0.346309        -9.4235
  64   2.0000      -0.331060        -9.0086
  65   2.0000      -0.324281        -8.8241
  66   2.0000      -0.290822        -7.9137
  67   0.0000       0.027881         0.7587
  68   0.0000       0.065272         1.7761
  69   0.0000       0.103218         2.8087
  70   0.0000       0.118918         3.2359
  71   0.0000       0.124874         3.3980

MULLIKEN ATOMIC CHARGES
-----------------------
   0 S :    0.083511
   1 C :   -0.118547
   2 C :   -0.097931
   3 C :    0.046036
   4 C :   -0.164741
   5 H :   -0.004294
   6 C :    0.106335
   7 H :    0.023331
   8 H :   -0.009261
   9 C :   -0.090383
  10 H :    0.027522
  11 H :    0.027338
  12 C :   -0.036525
  13 H :    0.036469
  14 H :    0.034327
  15 H :    0.033332
  16 S :    0.119115
  17 C :   -0.110148
  18 C :   -0.018978
  19 C :   -0.035414
  20 C :   -0.134779
  21 H :    0.037366
  22 C :    0.008624
  23 H :    0.032780
  24 H :    0.038713
  25 C :   -0.065979
  26 H :    0.041559
  27 H :    0.017762
  28 C :   -0.057641
  29 H :    0.035470
  30 H :    0.048767
  31 H :    0.028069
  32 H :    0.060672
  33 H :    0.057522
Sum of atomic charges:    0.0000000

LOEWDIN ATOMIC CHARGES
----------------------
   0 S :    0.360196
   1 C :   -0.193972
   2 C :   -0.055924
   3 C :   -0.063807
   4 C :   -0.170400
   5 H :    0.026298
   6 C :   -0.032813
   7 H :    0.030093
   8 H :    0.019585
   9 C :   -0.048211
  10 H :    0.024825
  11 H :    0.025330
  12 C :   -0.068770
  13 H :    0.026270
  14 H :    0.032203
  15 H :    0.031920
  16 S :    0.422680
  17 C :   -0.185078
  18 C :   -0.061629
  19 C :   -0.046158
  20 C :   -0.211418
  21 H :    0.036291
  22 C :   -0.045209
  23 H :    0.034423
  24 H :    0.038493
  25 C :   -0.044747
  26 H :    0.036400
  27 H :    0.015951
  28 C :   -0.070988
  29 H :    0.028109
  30 H :    0.033905
  31 H :    0.020832
  32 H :    0.034080
  33 H :    0.021238

  Mayer bond orders larger than 0.100000
B(  0-S ,  1-C ) :   1.1230 B(  0-S ,  4-C ) :   1.1203 B(  1-C ,  2-C ) :   1.6092
B(  1-C , 32-H ) :   0.9681 B(  2-C ,  3-C ) :   1.1946 B(  2-C ,  6-C ) :   1.0454
B(  3-C ,  4-C ) :   1.6162 B(  3-C ,  5-H ) :   0.9917 B(  4-C , 20-C ) :   1.0489
B(  6-C ,  7-H ) :   0.9242 B(  6-C ,  8-H ) :   0.9353 B(  6-C ,  9-C ) :   1.0606
B(  9-C , 10-H ) :   0.9406 B(  9-C , 11-H ) :   0.9569 B(  9-C , 12-C ) :   1.0962
B( 12-C , 13-H ) :   0.9713 B( 12-C , 14-H ) :   0.9692 B( 12-C , 15-H ) :   0.9705
B( 16-S , 17-C ) :   1.1542 B( 16-S , 20-C ) :   1.1593 B( 17-C , 18-C ) :   1.6092
B( 17-C , 20-C ) :   0.1066 B( 17-C , 33-H ) :   0.9702 B( 18-C , 19-C ) :   1.2127
B( 18-C , 21-H ) :   0.9791 B( 19-C , 20-C ) :   1.5938 B( 19-C , 22-C ) :   1.0317
B( 22-C , 23-H ) :   0.9377 B( 22-C , 24-H ) :   0.9361 B( 22-C , 25-C ) :   1.0769
B( 25-C , 26-H ) :   0.9508 B( 25-C , 27-H ) :   0.9488 B( 25-C , 28-C ) :   1.0839
B( 28-C , 29-H ) :   0.9701 B( 28-C , 30-H ) :   0.9659 B( 28-C , 31-H ) :   0.9747

Dispersion correction           -0.014503413
FINAL SINGLE POINT ENERGY     -1339.869008108096

DIPOLE MOMENT
-------------
                                X             Y             Z
Electronic contribution:     12.12690      -8.81498      23.78509
Nuclear contribution   :    -12.31296       9.23271     -24.35099
                        -----------------------------------------
Total Dipole Moment    :     -0.18606       0.41773      -0.56590
                        -----------------------------------------
Magnitude (a.u.)       :      0.72757
Magnitude (Debye)      :      1.84934

Rotational constants in cm-1:     0.017728     0.008985     0.006871
Rotational constants in MHz :   531.460514   269.365368   206.000424

                             ****ORCA TERMINATED NORMALLY****
TOTAL RUN TIME: 0 days 0 hours 0 minutes 30 seconds 202 msec
