                         Program Version 4.2.1 -  RELEASE  -
|  1> ! wB97X-D3 SP def2-SVP
|  2> %pal
|  3> nprocs 16
|  4> end
|  5>
|  6> * xyz 0 1
|  7> S 	 -38.2369 	 57.6111 	 114.25
|  8> C 	 -39.6269 	 58.0104 	 113.3
|  9> C 	 -39.7695 	 57.094 	 112.27
| 10> C 	 -38.5556 	 56.2405 	 112.092
| 11> C 	 -37.5917 	 56.5168 	 113.017
| 12> H 	 -38.3368 	 55.4076 	 111.366
| 13> C 	 -40.9734 	 56.9373 	 111.306
| 14> H 	 -41.9662 	 57.134 	 111.75
| 15> H 	 -41.0789 	 55.9271 	 110.939
| 16> C 	 -40.8568 	 57.9041 	 110.048
| 17> H 	 -40.0126 	 57.5773 	 109.492
| 18> H 	 -41.708 	 57.7341 	 109.436
| 19> C 	 -40.7085 	 59.4396 	 110.253
| 20> H 	 -41.471 	 59.9515 	 110.748
| 21> H 	 -39.8219 	 59.6582 	 110.857
| 22> H 	 -40.5996 	 59.9246 	 109.26
| 23> S 	 -34.8299 	 56.4744 	 112.355
| 24> C 	 -33.8476 	 55.3896 	 113.28
| 25> C 	 -34.5644 	 54.6392 	 114.18
| 26> C 	 -35.9565 	 54.8435 	 114.089
| 27> C 	 -36.3087 	 55.8271 	 113.16
| 28> H 	 -34.0071 	 54.0248 	 114.822
| 29> C 	 -36.9393 	 54.1032 	 114.95
| 30> H 	 -37.2841 	 53.3367 	 114.313
| 31> H 	 -37.776 	 54.6827 	 115.336
| 32> C 	 -36.2977 	 53.3609 	 116.127
| 33> H 	 -35.6924 	 54.0787 	 116.706
| 34> H 	 -35.4897 	 52.718 	 115.841
| 35> C 	 -37.2945 	 52.5666 	 116.951
| 36> H 	 -37.9979 	 53.1697 	 117.511
| 37> H 	 -36.6262 	 52.0019 	 117.705
| 38> H 	 -37.7903 	 51.923 	 116.356
| 39> H 	 -40.4706 	 58.7317 	 113.519
| 40> H 	 -32.7983 	 55.3523 	 113.186
| 41> *
| 42>
| 43>                          ****END OF INPUT****

CARTESIAN COORDINATES (ANGSTROEM)
---------------------------------
  S    -38.236900   57.611100  114.250000
  C    -39.626900   58.010400  113.300000
  C    -39.769500   57.094000  112.270000
  C    -38.555600   56.240500  112.092000
  C    -37.591700   56.516800  113.017000
  H    -38.336800   55.407600  111.366000
  C    -40.973400   56.937300  111.306000
  H    -41.966200   57.134000  111.750000
  H    -41.078900   55.927100  110.939000
  C    -40.856800   57.904100  110.048000
  H    -40.012600   57.577300  109.492000
  H    -41.708000   57.734100  109.436000
  C    -40.708500   59.439600  110.253000
  H    -41.471000   59.951500  110.748000
  H    -39.821900   59.658200  110.857000
  H    -40.599600   59.924600  109.260000
  S    -34.829900   56.474400  112.355000
  C    -33.847600   55.389600  113.280000
  C    -34.564400   54.639200  114.180000
  C    -35.956500   54.843500  114.089000
  C    -36.308700   55.827100  113.160000
  H    -34.007100   54.024800  114.822000
  C    -36.939300   54.103200  114.950000
  H    -37.284100   53.336700  114.313000
  H    -37.776000   54.682700  115.336000
  C    -36.297700   53.360900  116.127000
  H    -35.692400   54.078700  116.706000
  H    -35.489700   52.718000  115.841000
  C    -37.294500   52.566600  116.951000
  H    -37.997900   53.169700  117.511000
  H    -36.626200   52.001900  117.705000
  H    -37.790300   51.923000  116.356000
  H    -40.470600   58.731700  113.519000
  H    -32.798300   55.352300  113.186000

 Total Charge           Charge          ....    0
 Multiplicity           Mult            ....    1
 Number of Electrons    NEL             ....  134
 Basis Dimension        Dim             ....  322

ORBITAL ENERGIES
----------------

  NO   OCC          E(Eh)            E(eV)
   0   2.0000     -88.965002     -2420.8608
   1   2.0000     -88.963720     -2420.8259
   2   2.0000     -10.326735      -281.0047
   3   2.0000     -10.325118      -280.9607
   4   2.0000     -10.319809      -280.8163
   5   2.0000     -10.313967      -280.6573
   6   2.0000     -10.310116      -280.5525
   7   2.0000     -10.304272      -280.3935
   8   2.0000     -10.301628      -280.3215
   9   2.0000     -10.297729      -280.2155
  10   2.0000     -10.287638      -279.9409
  11   2.0000     -10.284315      -279.8504
  12   2.0000     -10.282871      -279.8112
  13   2.0000     -10.281343      -279.7696
  14   2.0000     -10.275488      -279.6102
  15   2.0000     -10.272686      -279.5340
  16   2.0000      -8.079315      -219.8493
  17   2.0000      -8.078288      -219.8214
  18   2.0000      -6.037725      -164.2948
  19   2.0000      -6.036979      -164.2745
  20   2.0000      -6.033859      -164.1896
  21   2.0000      -6.032932      -164.1644
  22   2.0000      -6.030228      -164.0909
  23   2.0000      -6.028724      -164.0499
  24   2.0000      -1.001902       -27.2631
  25   2.0000      -0.981752       -26.7148
  26   2.0000      -0.914570       -24.8867
  27   2.0000      -0.898451       -24.4481
  28   2.0000      -0.868365       -23.6294
  29   2.0000      -0.852758       -23.2047
  30   2.0000      -0.837706       -22.7951
  31   2.0000      -0.814585       -22.1660
  32   2.0000      -0.784379       -21.3440
  33   2.0000      -0.773665       -21.0525
  34   2.0000      -0.709209       -19.2986
  35   2.0000      -0.702275       -19.1099
  36   2.0000      -0.693781       -18.8787
  37   2.0000      -0.651549       -17.7295
  38   2.0000      -0.637590       -17.3497
  39   2.0000      -0.612483       -16.6665
  40   2.0000      -0.601655       -16.3719
  41   2.0000      -0.573551       -15.6071
  42   2.0000      -0.569678       -15.5017
  43   2.0000      -0.539639       -14.6843
  44   2.0000      -0.535161       -14.5625
  45   2.0000      -0.530453       -14.4343
  46   2.0000      -0.518426       -14.1071
  47   2.0000      -0.511084       -13.9073
  48   2.0000      -0.501156       -13.6371
  49   2.0000      -0.494402       -13.4534
  50   2.0000      -0.486354       -13.2344
  51   2.0000      -0.482332       -13.1249
  52   2.0000      -0.473526       -12.8853
  53   2.0000      -0.466442       -12.6925
  54   2.0000      -0.458406       -12.4739
  55   2.0000      -0.454665       -12.3721
  56   2.0000      -0.439510       -11.9597
  57   2.0000      -0.433129       -11.7860
  58   2.0000      -0.430500       -11.7145
  59   2.0000      -0.423285       -11.5182
  60   2.0000      -0.418965       -11.4006
  61   2.0000      -0.416517       -11.3340
  62   2.0000      -0.413992       -11.2653
  63   2.0000      -0.334098        -9.0913
  64   2.0000      -0.332734        -9.0541
  65   2.0000      -0.317993        -8.6530
  66   2.0000      -0.306828        -8.3492
  67   0.0000       0.043589         1.1861
  68   0.0000       0.049437         1.3452
  69   0.0000       0.104710         2.8493
  70   0.0000       0.119204         3.2437
  71   0.0000       0.134603         3.6627

MULLIKEN ATOMIC CHARGES
-----------------------
   0 S :    0.115705
   1 C :   -0.123965
   2 C :   -0.104112
   3 C :    0.022642
   4 C :   -0.164625
   5 H :    0.041585
   6 C :    0.055692
   7 H :    0.026268
   8 H :    0.024677
   9 C :   -0.059369
  10 H :    0.021526
  11 H :    0.021848
  12 C :   -0.054496
  13 H :    0.013614
  14 H :    0.038323
  15 H :    0.038605
  16 S :    0.109852
  17 C :   -0.069206
  18 C :   -0.032545
  19 C :   -0.030615
  20 C :   -0.194422
  21 H :   -0.002817
  22 C :    0.141972
  23 H :    0.021016
  24 H :    0.034336
  25 C :   -0.143620
  26 H :    0.020813
  27 H :    0.018952
  28 C :    0.020463
  29 H :    0.032851
  30 H :    0.037452
  31 H :    0.007722
  32 H :    0.074090
  33 H :    0.039787
Sum of atomic charges:   -0.0000000

LOEWDIN ATOMIC CHARGES
----------------------
   0 S :    0.399667
   1 C :   -0.214406
   2 C :   -0.062285
   3 C :   -0.062397
   4 C :   -0.194116
   5 H :    0.045139
   6 C :   -0.033030
   7 H :    0.028295
   8 H :    0.030296
   9 C :   -0.031975
  10 H :    0.019653
  11 H :    0.017562
  12 C :   -0.067704
  13 H :    0.011640
  14 H :    0.027300
  15 H :    0.034092
  16 S :    0.397444
  17 C :   -0.171267
  18 C :   -0.073850
  19 C :   -0.042032
  20 C :   -0.201001
  21 H :    0.024464
  22 C :   -0.027949
  23 H :    0.033229
  24 H :    0.030731
  25 C :   -0.048392
  26 H :    0.021993
  27 H :    0.017484
  28 C :   -0.048932
  29 H :    0.024774
  30 H :    0.039945
  31 H :    0.007724
  32 H :    0.047509
  33 H :    0.020393

  Mayer bond orders larger than 0.100000
B(  0-S ,  1-C ) :   1.1299 B(  0-S ,  4-C ) :   1.1209 B(  1-C ,  2-C ) :   1.6435
B(  1-C , 32-H ) :   0.9586 B(  2-C ,  3-C ) :   1.1849 B(  2-C ,  6-C ) :   1.0282
B(  3-C ,  4-C ) :   1.6360 B(  3-C ,  5-H ) :   0.9810 B(  4-C , 20-C ) :   1.0421
B(  6-C ,  7-H ) :   0.9491 B(  6-C ,  8-H ) :   0.9453 B(  6-C ,  9-C ) :   1.0639
B(  9-C , 10-H ) :   0.9585 B(  9-C , 11-H ) :   0.9589 B(  9-C , 12-C ) :   1.0782
B( 12-C , 13-H ) :   0.9780 B( 12-C , 14-H ) :   0.9714 B( 12-C , 15-H ) :   0.9731
B( 16-S , 17-C ) :   1.1765 B( 16-S , 20-C ) :   1.1307 B( 17-C , 18-C ) :   1.5928
B( 17-C , 33-H ) :   0.9644 B( 18-C , 19-C ) :   1.2481 B( 18-C , 21-H ) :   1.0004
B( 19-C , 20-C ) :   1.5881 B( 19-C , 22-C ) :   1.0261 B( 22-C , 23-H ) :   0.9106
B( 22-C , 24-H ) :   0.9314 B( 22-C , 25-C ) :   1.0914 B( 25-C , 26-H ) :   0.9532
B( 25-C , 27-H ) :   0.9404 B( 25-C , 28-C ) :   1.0799 B( 28-C , 29-H ) :   0.9747
B( 28-C , 30-H ) :   0.9723 B( 28-C , 31-H ) :   0.9726

Dispersion correction           -0.014174251
FINAL SINGLE POINT ENERGY     -1339.864828109191

DIPOLE MOMENT
-------------
                                X             Y             Z
Electronic contribution:     14.36924       7.24636      -0.69055
Nuclear contribution   :    -14.62137      -7.70542       0.71545
                        -----------------------------------------
Total Dipole Moment    :     -0.25213      -0.45906       0.02490
                        -----------------------------------------
Magnitude (a.u.)       :      0.52434
Magnitude (Debye)      :      1.33276

Rotational constants in cm-1:     0.021473     0.007508     0.006274
Rotational constants in MHz :   643.755487   225.097970   188.081554

                             ****ORCA TERMINATED NORMALLY****
TOTAL RUN TIME: 0 days 0 hours 0 minutes 28 seconds 803 msec
