                         Program Version 4.2.1 -  RELEASE  -
|  1> ! wB97X-D3 SP def2-SVP
|  2> %pal
|  3> nprocs 16
|  4> end
|  5>
|  6> * xyz 0 1
|  7> S 	 -18.2007 	 1.8818 	 80.3384
|  8> C 	 -17.3325 	 2.18685 	 81.7895
|  9> C 	 -17.8105 	 1.4103 	 82.8558
| 10> C 	 -18.8434 	 0.594177 	 82.4089
| 11> C 	 -19.2593 	 0.695462 	 81.0925
| 12> H 	 -19.3451 	 -0.0873836 	 82.9912
| 13> C 	 -17.3204 	 1.4405 	 84.3113
| 14> H 	 -17.8173 	 2.29504 	 84.831
| 15> H 	 -16.2547 	 1.67484 	 84.1282
| 16> C 	 -17.4833 	 0.138283 	 85.0729
| 17> H 	 -18.555 	 -0.00746471 	 85.2896
| 18> H 	 -17.1941 	 -0.701549 	 84.4726
| 19> C 	 -16.6554 	 0.0541996 	 86.3677
| 20> H 	 -16.8168 	 -0.91784 	 86.7871
| 21> H 	 -15.6303 	 0.204039 	 86.1248
| 22> H 	 -17.0781 	 0.640958 	 87.1917
| 23> S 	 -21.7211 	 1.02839 	 80.0112
| 24> C 	 -22.6366 	 -0.343333 	 79.5185
| 25> C 	 -22.1274 	 -1.48066 	 80.1361
| 26> C 	 -20.8678 	 -1.31827 	 80.7188
| 27> C 	 -20.399 	 0.0079138 	 80.5483
| 28> H 	 -22.6414 	 -2.3758 	 80.1087
| 29> C 	 -20.1613 	 -2.5245 	 81.405
| 30> H 	 -19.1569 	 -2.25928 	 81.7451
| 31> H 	 -20.0048 	 -3.32265 	 80.6782
| 32> C 	 -20.8273 	 -3.22107 	 82.6134
| 33> H 	 -21.7167 	 -3.73012 	 82.2585
| 34> H 	 -21.1385 	 -2.53173 	 83.4773
| 35> C 	 -19.8027 	 -4.21938 	 83.1487
| 36> H 	 -20.3101 	 -4.89362 	 83.8333
| 37> H 	 -19.0569 	 -3.62684 	 83.5999
| 38> H 	 -19.3366 	 -4.8242 	 82.3348
| 39> H 	 -16.6813 	 3.0667 	 81.9782
| 40> H 	 -23.6928 	 -0.257839 	 79.1169
| 41> *
| 42>
| 43>                          ****END OF INPUT****

CARTESIAN COORDINATES (ANGSTROEM)
---------------------------------
  S    -18.200700    1.881800   80.338400
  C    -17.332500    2.186850   81.789500
  C    -17.810500    1.410300   82.855800
  C    -18.843400    0.594177   82.408900
  C    -19.259300    0.695462   81.092500
  H    -19.345100   -0.087384   82.991200
  C    -17.320400    1.440500   84.311300
  H    -17.817300    2.295040   84.831000
  H    -16.254700    1.674840   84.128200
  C    -17.483300    0.138283   85.072900
  H    -18.555000   -0.007465   85.289600
  H    -17.194100   -0.701549   84.472600
  C    -16.655400    0.054200   86.367700
  H    -16.816800   -0.917840   86.787100
  H    -15.630300    0.204039   86.124800
  H    -17.078100    0.640958   87.191700
  S    -21.721100    1.028390   80.011200
  C    -22.636600   -0.343333   79.518500
  C    -22.127400   -1.480660   80.136100
  C    -20.867800   -1.318270   80.718800
  C    -20.399000    0.007914   80.548300
  H    -22.641400   -2.375800   80.108700
  C    -20.161300   -2.524500   81.405000
  H    -19.156900   -2.259280   81.745100
  H    -20.004800   -3.322650   80.678200
  C    -20.827300   -3.221070   82.613400
  H    -21.716700   -3.730120   82.258500
  H    -21.138500   -2.531730   83.477300
  C    -19.802700   -4.219380   83.148700
  H    -20.310100   -4.893620   83.833300
  H    -19.056900   -3.626840   83.599900
  H    -19.336600   -4.824200   82.334800
  H    -16.681300    3.066700   81.978200
  H    -23.692800   -0.257839   79.116900

 Total Charge           Charge          ....    0
 Multiplicity           Mult            ....    1
 Number of Electrons    NEL             ....  134
 Basis Dimension        Dim             ....  322

ORBITAL ENERGIES
----------------

  NO   OCC          E(Eh)            E(eV)
   0   2.0000     -88.967313     -2420.9237
   1   2.0000     -88.964451     -2420.8458
   2   2.0000     -10.327767      -281.0328
   3   2.0000     -10.323778      -280.9243
   4   2.0000     -10.318328      -280.7760
   5   2.0000     -10.314024      -280.6589
   6   2.0000     -10.306423      -280.4520
   7   2.0000     -10.297593      -280.2117
   8   2.0000     -10.297136      -280.1993
   9   2.0000     -10.296178      -280.1732
  10   2.0000     -10.293884      -280.1108
  11   2.0000     -10.288105      -279.9536
  12   2.0000     -10.285934      -279.8945
  13   2.0000     -10.279668      -279.7240
  14   2.0000     -10.279407      -279.7169
  15   2.0000     -10.277319      -279.6601
  16   2.0000      -8.081878      -219.9191
  17   2.0000      -8.079737      -219.8608
  18   2.0000      -6.040335      -164.3659
  19   2.0000      -6.038085      -164.3046
  20   2.0000      -6.036171      -164.2526
  21   2.0000      -6.034308      -164.2019
  22   2.0000      -6.032941      -164.1647
  23   2.0000      -6.030479      -164.0977
  24   2.0000      -1.008552       -27.4441
  25   2.0000      -0.987455       -26.8700
  26   2.0000      -0.913383       -24.8544
  27   2.0000      -0.911391       -24.8002
  28   2.0000      -0.871985       -23.7279
  29   2.0000      -0.854999       -23.2657
  30   2.0000      -0.849722       -23.1221
  31   2.0000      -0.810325       -22.0501
  32   2.0000      -0.782318       -21.2880
  33   2.0000      -0.770541       -20.9675
  34   2.0000      -0.711412       -19.3585
  35   2.0000      -0.696016       -18.9396
  36   2.0000      -0.688623       -18.7384
  37   2.0000      -0.660127       -17.9630
  38   2.0000      -0.639297       -17.3961
  39   2.0000      -0.622326       -16.9343
  40   2.0000      -0.598939       -16.2980
  41   2.0000      -0.578922       -15.7533
  42   2.0000      -0.573274       -15.5996
  43   2.0000      -0.565350       -15.3839
  44   2.0000      -0.528932       -14.3930
  45   2.0000      -0.524527       -14.2731
  46   2.0000      -0.515484       -14.0270
  47   2.0000      -0.505756       -13.7623
  48   2.0000      -0.500968       -13.6320
  49   2.0000      -0.498518       -13.5654
  50   2.0000      -0.496474       -13.5097
  51   2.0000      -0.479568       -13.0497
  52   2.0000      -0.472087       -12.8461
  53   2.0000      -0.469284       -12.7699
  54   2.0000      -0.461446       -12.5566
  55   2.0000      -0.448645       -12.2082
  56   2.0000      -0.442013       -12.0278
  57   2.0000      -0.438446       -11.9307
  58   2.0000      -0.429345       -11.6831
  59   2.0000      -0.428988       -11.6734
  60   2.0000      -0.425350       -11.5744
  61   2.0000      -0.419736       -11.4216
  62   2.0000      -0.418177       -11.3792
  63   2.0000      -0.342965        -9.3326
  64   2.0000      -0.330254        -8.9867
  65   2.0000      -0.328690        -8.9441
  66   2.0000      -0.289032        -7.8650
  67   0.0000       0.022702         0.6178
  68   0.0000       0.069266         1.8848
  69   0.0000       0.107872         2.9353
  70   0.0000       0.120188         3.2705
  71   0.0000       0.131520         3.5789

MULLIKEN ATOMIC CHARGES
-----------------------
   0 S :    0.128181
   1 C :   -0.140772
   2 C :   -0.104132
   3 C :    0.047981
   4 C :   -0.158700
   5 H :   -0.039637
   6 C :    0.080649
   7 H :    0.054898
   8 H :    0.026385
   9 C :   -0.122086
  10 H :    0.036016
  11 H :    0.027822
  12 C :   -0.001533
  13 H :    0.017793
  14 H :    0.036611
  15 H :    0.029897
  16 S :    0.112113
  17 C :   -0.104708
  18 C :   -0.027506
  19 C :    0.022077
  20 C :   -0.166902
  21 H :   -0.011127
  22 C :    0.026545
  23 H :    0.014138
  24 H :    0.033220
  25 C :   -0.098128
  26 H :    0.026575
  27 H :    0.045546
  28 C :   -0.034117
  29 H :    0.037317
  30 H :    0.026873
  31 H :    0.033890
  32 H :    0.062863
  33 H :    0.081956
Sum of atomic charges:   -0.0000000

LOEWDIN ATOMIC CHARGES
----------------------
   0 S :    0.425999
   1 C :   -0.219574
   2 C :   -0.069112
   3 C :   -0.055596
   4 C :   -0.208257
   5 H :    0.011901
   6 C :   -0.033406
   7 H :    0.039995
   8 H :    0.033621
   9 C :   -0.045119
  10 H :    0.025671
  11 H :    0.022467
  12 C :   -0.058125
  13 H :    0.025370
  14 H :    0.023233
  15 H :    0.028636
  16 S :    0.426449
  17 C :   -0.205802
  18 C :   -0.065555
  19 C :   -0.051706
  20 C :   -0.196540
  21 H :    0.017422
  22 C :   -0.032794
  23 H :    0.024894
  24 H :    0.033321
  25 C :   -0.041709
  26 H :    0.016698
  27 H :    0.031262
  28 C :   -0.058757
  29 H :    0.026654
  30 H :    0.019346
  31 H :    0.029215
  32 H :    0.037398
  33 H :    0.042502

  Mayer bond orders larger than 0.100000
B(  0-S ,  1-C ) :   1.1742 B(  0-S ,  4-C ) :   1.1495 B(  1-C ,  2-C ) :   1.5635
B(  1-C ,  4-C ) :   0.1053 B(  1-C , 32-H ) :   0.9592 B(  2-C ,  3-C ) :   1.3068
B(  2-C ,  6-C ) :   0.9909 B(  3-C ,  4-C ) :   1.5201 B(  3-C ,  5-H ) :   1.0071
B(  4-C , 20-C ) :   1.0630 B(  6-C ,  7-H ) :   0.9321 B(  6-C ,  8-H ) :   0.9428
B(  6-C ,  9-C ) :   1.0858 B(  9-C , 10-H ) :   0.9418 B(  9-C , 11-H ) :   0.9594
B(  9-C , 12-C ) :   1.0940 B( 12-C , 13-H ) :   0.9695 B( 12-C , 14-H ) :   0.9754
B( 12-C , 15-H ) :   0.9715 B( 16-S , 17-C ) :   1.1721 B( 16-S , 20-C ) :   1.1732
B( 17-C , 18-C ) :   1.5540 B( 17-C , 20-C ) :   0.1123 B( 17-C , 33-H ) :   0.9603
B( 18-C , 19-C ) :   1.2866 B( 18-C , 21-H ) :   1.0043 B( 19-C , 20-C ) :   1.5317
B( 19-C , 22-C ) :   1.0240 B( 22-C , 23-H ) :   0.9452 B( 22-C , 24-H ) :   0.9366
B( 22-C , 25-C ) :   1.0603 B( 25-C , 26-H ) :   0.9520 B( 25-C , 27-H ) :   0.9557
B( 25-C , 28-C ) :   1.0787 B( 28-C , 29-H ) :   0.9727 B( 28-C , 30-H ) :   0.9768
B( 28-C , 31-H ) :   0.9712

Dispersion correction           -0.013925643
FINAL SINGLE POINT ENERGY     -1339.867296611950

DIPOLE MOMENT
-------------
                                X             Y             Z
Electronic contribution:     -8.37164      19.41756     -25.71148
Nuclear contribution   :      8.28558     -19.89255      26.46696
                        -----------------------------------------
Total Dipole Moment    :     -0.08606      -0.47499       0.75548
                        -----------------------------------------
Magnitude (a.u.)       :      0.89653
Magnitude (Debye)      :      2.27881

Rotational constants in cm-1:     0.015471     0.009995     0.006645
Rotational constants in MHz :   463.810148   299.636917   199.197399

                             ****ORCA TERMINATED NORMALLY****
TOTAL RUN TIME: 0 days 0 hours 0 minutes 33 seconds 859 msec
