                         Program Version 4.2.1 -  RELEASE  -
|  1> ! wB97X-D3 SP def2-SVP
|  2> %pal
|  3> nprocs 16
|  4> end
|  5>
|  6> * xyz 0 1
|  7> S 	 8.68481 	 23.74 	 65.9709
|  8> C 	 8.04409 	 23.1111 	 64.465
|  9> C 	 7.06292 	 23.9039 	 64.0365
| 10> C 	 6.76064 	 25.0112 	 64.8562
| 11> C 	 7.46365 	 24.9714 	 66.0223
| 12> H 	 6.0293 	 25.8117 	 64.6558
| 13> C 	 6.30458 	 23.6281 	 62.7283
| 14> H 	 5.40017 	 24.2664 	 62.8243
| 15> H 	 5.92465 	 22.5916 	 62.5458
| 16> C 	 7.09185 	 24.1324 	 61.5059
| 17> H 	 6.40389 	 23.9695 	 60.6285
| 18> H 	 7.23564 	 25.1731 	 61.5229
| 19> C 	 8.32991 	 23.2649 	 61.089
| 20> H 	 8.05088 	 22.2423 	 60.8478
| 21> H 	 8.63145 	 23.6652 	 60.1196
| 22> H 	 9.20701 	 23.4263 	 61.8201
| 23> S 	 8.81461 	 26.5538 	 67.72
| 24> C 	 7.86912 	 27.6419 	 68.6505
| 25> C 	 6.51831 	 27.7625 	 68.3233
| 26> C 	 6.16032 	 26.7339 	 67.4431
| 27> C 	 7.27923 	 26.0341 	 67.0183
| 28> H 	 5.88948 	 28.5102 	 68.8007
| 29> C 	 4.70715 	 26.5051 	 67.0166
| 30> H 	 4.69163 	 25.4378 	 66.8793
| 31> H 	 4.48171 	 27.1132 	 66.0431
| 32> C 	 3.59527 	 26.8148 	 67.9899
| 33> H 	 3.82354 	 27.8877 	 68.2009
| 34> H 	 3.5432 	 26.2072 	 68.8894
| 35> C 	 2.29104 	 26.7105 	 67.3151
| 36> H 	 1.57982 	 26.9539 	 68.0599
| 37> H 	 2.11002 	 25.6832 	 67.0729
| 38> H 	 2.08285 	 27.2946 	 66.4626
| 39> H 	 8.28541 	 22.1561 	 63.9636
| 40> H 	 8.20551 	 28.2575 	 69.4807
| 41> *
| 42>
| 43>                          ****END OF INPUT****

CARTESIAN COORDINATES (ANGSTROEM)
---------------------------------
  S      8.684810   23.740000   65.970900
  C      8.044090   23.111100   64.465000
  C      7.062920   23.903900   64.036500
  C      6.760640   25.011200   64.856200
  C      7.463650   24.971400   66.022300
  H      6.029300   25.811700   64.655800
  C      6.304580   23.628100   62.728300
  H      5.400170   24.266400   62.824300
  H      5.924650   22.591600   62.545800
  C      7.091850   24.132400   61.505900
  H      6.403890   23.969500   60.628500
  H      7.235640   25.173100   61.522900
  C      8.329910   23.264900   61.089000
  H      8.050880   22.242300   60.847800
  H      8.631450   23.665200   60.119600
  H      9.207010   23.426300   61.820100
  S      8.814610   26.553800   67.720000
  C      7.869120   27.641900   68.650500
  C      6.518310   27.762500   68.323300
  C      6.160320   26.733900   67.443100
  C      7.279230   26.034100   67.018300
  H      5.889480   28.510200   68.800700
  C      4.707150   26.505100   67.016600
  H      4.691630   25.437800   66.879300
  H      4.481710   27.113200   66.043100
  C      3.595270   26.814800   67.989900
  H      3.823540   27.887700   68.200900
  H      3.543200   26.207200   68.889400
  C      2.291040   26.710500   67.315100
  H      1.579820   26.953900   68.059900
  H      2.110020   25.683200   67.072900
  H      2.082850   27.294600   66.462600
  H      8.285410   22.156100   63.963600
  H      8.205510   28.257500   69.480700

 Total Charge           Charge          ....    0
 Multiplicity           Mult            ....    1
 Number of Electrons    NEL             ....  134
 Basis Dimension        Dim             ....  322

ORBITAL ENERGIES
----------------

  NO   OCC          E(Eh)            E(eV)
   0   2.0000     -88.969141     -2420.9734
   1   2.0000     -88.964452     -2420.8458
   2   2.0000     -10.324326      -280.9392
   3   2.0000     -10.322829      -280.8985
   4   2.0000     -10.311878      -280.6005
   5   2.0000     -10.306931      -280.4659
   6   2.0000     -10.301166      -280.3090
   7   2.0000     -10.296334      -280.1775
   8   2.0000     -10.293729      -280.1066
   9   2.0000     -10.290091      -280.0076
  10   2.0000     -10.289982      -280.0046
  11   2.0000     -10.286341      -279.9056
  12   2.0000     -10.286270      -279.9036
  13   2.0000     -10.285024      -279.8697
  14   2.0000     -10.284554      -279.8569
  15   2.0000     -10.266302      -279.3603
  16   2.0000      -8.084301      -219.9850
  17   2.0000      -8.079356      -219.8504
  18   2.0000      -6.042478      -164.4242
  19   2.0000      -6.039055      -164.3310
  20   2.0000      -6.037983      -164.3019
  21   2.0000      -6.035089      -164.2231
  22   2.0000      -6.033896      -164.1906
  23   2.0000      -6.029937      -164.0829
  24   2.0000      -1.012462       -27.5505
  25   2.0000      -0.989726       -26.9318
  26   2.0000      -0.922489       -25.1022
  27   2.0000      -0.905250       -24.6331
  28   2.0000      -0.866398       -23.5759
  29   2.0000      -0.864632       -23.5278
  30   2.0000      -0.843434       -22.9510
  31   2.0000      -0.810093       -22.0438
  32   2.0000      -0.783549       -21.3215
  33   2.0000      -0.774598       -21.0779
  34   2.0000      -0.704593       -19.1729
  35   2.0000      -0.693888       -18.8817
  36   2.0000      -0.690414       -18.7871
  37   2.0000      -0.657704       -17.8970
  38   2.0000      -0.634185       -17.2570
  39   2.0000      -0.617644       -16.8069
  40   2.0000      -0.595556       -16.2059
  41   2.0000      -0.585297       -15.9267
  42   2.0000      -0.567389       -15.4394
  43   2.0000      -0.539938       -14.6925
  44   2.0000      -0.537039       -14.6136
  45   2.0000      -0.523276       -14.2391
  46   2.0000      -0.517450       -14.0805
  47   2.0000      -0.514961       -14.0128
  48   2.0000      -0.503485       -13.7005
  49   2.0000      -0.496475       -13.5098
  50   2.0000      -0.488303       -13.2874
  51   2.0000      -0.484060       -13.1719
  52   2.0000      -0.472595       -12.8600
  53   2.0000      -0.464468       -12.6388
  54   2.0000      -0.462831       -12.5943
  55   2.0000      -0.452134       -12.3032
  56   2.0000      -0.445754       -12.1296
  57   2.0000      -0.440080       -11.9752
  58   2.0000      -0.434414       -11.8210
  59   2.0000      -0.426769       -11.6130
  60   2.0000      -0.422658       -11.5011
  61   2.0000      -0.405064       -11.0224
  62   2.0000      -0.398023       -10.8308
  63   2.0000      -0.349136        -9.5005
  64   2.0000      -0.338277        -9.2050
  65   2.0000      -0.329680        -8.9711
  66   2.0000      -0.283102        -7.7036
  67   0.0000       0.028191         0.7671
  68   0.0000       0.081658         2.2220
  69   0.0000       0.097371         2.6496
  70   0.0000       0.121853         3.3158
  71   0.0000       0.140152         3.8137

MULLIKEN ATOMIC CHARGES
-----------------------
   0 S :    0.099664
   1 C :   -0.130653
   2 C :   -0.063226
   3 C :   -0.018606
   4 C :   -0.110562
   5 H :    0.022963
   6 C :    0.049539
   7 H :    0.016829
   8 H :    0.038880
   9 C :   -0.075519
  10 H :    0.025185
  11 H :    0.022826
  12 C :   -0.067881
  13 H :    0.031524
  14 H :    0.027897
  15 H :    0.061383
  16 S :    0.123593
  17 C :   -0.077830
  18 C :   -0.069189
  19 C :   -0.017010
  20 C :   -0.166378
  21 H :    0.023989
  22 C :    0.009081
  23 H :    0.030742
  24 H :    0.060266
  25 C :   -0.081373
  26 H :    0.023981
  27 H :    0.039752
  28 C :    0.012710
  29 H :    0.017846
  30 H :    0.016205
  31 H :    0.020701
  32 H :    0.058427
  33 H :    0.044245
Sum of atomic charges:   -0.0000000

LOEWDIN ATOMIC CHARGES
----------------------
   0 S :    0.394979
   1 C :   -0.200399
   2 C :   -0.071052
   3 C :   -0.069641
   4 C :   -0.198231
   5 H :    0.037230
   6 C :   -0.034759
   7 H :    0.029787
   8 H :    0.033052
   9 C :   -0.039379
  10 H :    0.027427
  11 H :    0.016814
  12 C :   -0.074620
  13 H :    0.023790
  14 H :    0.026515
  15 H :    0.035112
  16 S :    0.415412
  17 C :   -0.192366
  18 C :   -0.073325
  19 C :   -0.060767
  20 C :   -0.182953
  21 H :    0.033350
  22 C :   -0.038830
  23 H :    0.028889
  24 H :    0.043799
  25 C :   -0.042385
  26 H :    0.023764
  27 H :    0.030373
  28 C :   -0.055146
  29 H :    0.025284
  30 H :    0.024148
  31 H :    0.019046
  32 H :    0.040257
  33 H :    0.024826

  Mayer bond orders larger than 0.100000
B(  0-S ,  1-C ) :   1.1047 B(  0-S ,  4-C ) :   1.1483 B(  1-C ,  2-C ) :   1.6507
B(  1-C , 32-H ) :   0.9592 B(  2-C ,  3-C ) :   1.2371 B(  2-C ,  6-C ) :   1.0060
B(  3-C ,  4-C ) :   1.5650 B(  3-C ,  5-H ) :   0.9900 B(  4-C , 20-C ) :   1.0535
B(  6-C ,  7-H ) :   0.9378 B(  6-C ,  8-H ) :   0.9500 B(  6-C ,  9-C ) :   1.0799
B(  9-C , 10-H ) :   0.9556 B(  9-C , 11-H ) :   0.9570 B(  9-C , 12-C ) :   1.0754
B( 12-C , 13-H ) :   0.9736 B( 12-C , 14-H ) :   0.9725 B( 12-C , 15-H ) :   0.9697
B( 16-S , 17-C ) :   1.1634 B( 16-S , 20-C ) :   1.1367 B( 17-C , 18-C ) :   1.6230
B( 17-C , 33-H ) :   0.9608 B( 18-C , 19-C ) :   1.2368 B( 18-C , 21-H ) :   0.9849
B( 19-C , 20-C ) :   1.6178 B( 19-C , 22-C ) :   1.0181 B( 22-C , 23-H ) :   0.9314
B( 22-C , 24-H ) :   0.9322 B( 22-C , 25-C ) :   1.0779 B( 25-C , 26-H ) :   0.9429
B( 25-C , 27-H ) :   0.9516 B( 25-C , 28-C ) :   1.1048 B( 28-C , 29-H ) :   0.9665
B( 28-C , 30-H ) :   0.9668 B( 28-C , 31-H ) :   0.9702

Dispersion correction           -0.013745177
FINAL SINGLE POINT ENERGY     -1339.855336725969

DIPOLE MOMENT
-------------
                                X             Y             Z
Electronic contribution:     21.33405       0.04534      15.62722
Nuclear contribution   :    -22.02158       0.11925     -15.91702
                        -----------------------------------------
Total Dipole Moment    :     -0.68753       0.16459      -0.28981
                        -----------------------------------------
Magnitude (a.u.)       :      0.76405
Magnitude (Debye)      :      1.94206

Rotational constants in cm-1:     0.018706     0.008383     0.006329
Rotational constants in MHz :   560.796924   251.312836   189.738012

                             ****ORCA TERMINATED NORMALLY****
TOTAL RUN TIME: 0 days 0 hours 0 minutes 35 seconds 265 msec
