                         Program Version 4.2.1 -  RELEASE  -
|  1> ! wB97X-D3 SP def2-SVP
|  2> %pal
|  3> nprocs 16
|  4> end
|  5>
|  6> * xyz 0 1
|  7> S 	 -4.31444 	 26.8874 	 55.8956
|  8> C 	 -3.63584 	 25.3685 	 56.5255
|  9> C 	 -2.33097 	 25.244 	 56.0934
| 10> C 	 -1.89954 	 26.3831 	 55.3404
| 11> C 	 -2.86456 	 27.3618 	 55.1755
| 12> H 	 -0.903124 	 26.5564 	 54.9306
| 13> C 	 -1.48166 	 24.0005 	 56.4142
| 14> H 	 -2.11472 	 23.1237 	 56.1041
| 15> H 	 -1.40832 	 23.9061 	 57.4878
| 16> C 	 -0.0957537 	 23.8809 	 55.7166
| 17> H 	 0.172319 	 22.8044 	 55.6048
| 18> H 	 -0.203958 	 24.202 	 54.6959
| 19> C 	 0.943276 	 24.7769 	 56.3371
| 20> H 	 1.81624 	 24.9666 	 55.739
| 21> H 	 0.456888 	 25.6928 	 56.5529
| 22> H 	 1.25224 	 24.3366 	 57.3211
| 23> S 	 -2.10889 	 28.5385 	 52.8043
| 24> C 	 -2.23567 	 30.2801 	 52.6449
| 25> C 	 -2.60389 	 30.8407 	 53.8565
| 26> C 	 -2.82347 	 29.8943 	 54.9051
| 27> C 	 -2.67313 	 28.6141 	 54.4907
| 28> H 	 -2.62006 	 31.8629 	 53.9025
| 29> C 	 -3.37499 	 30.3979 	 56.2211
| 30> H 	 -2.60422 	 30.9991 	 56.7132
| 31> H 	 -3.58501 	 29.4703 	 56.8663
| 32> C 	 -4.57891 	 31.2698 	 56.0621
| 33> H 	 -4.38008 	 32.1103 	 55.4159
| 34> H 	 -4.77822 	 31.8184 	 57.0276
| 35> C 	 -5.90832 	 30.5466 	 55.6041
| 36> H 	 -6.51233 	 30.1843 	 56.4114
| 37> H 	 -5.57759 	 29.7403 	 54.9957
| 38> H 	 -6.56988 	 31.1421 	 54.9784
| 39> H 	 -4.08986 	 24.5854 	 57.0158
| 40> H 	 -1.97384 	 30.7477 	 51.6324
| 41> *
| 42>
| 43>                          ****END OF INPUT****

CARTESIAN COORDINATES (ANGSTROEM)
---------------------------------
  S     -4.314440   26.887400   55.895600
  C     -3.635840   25.368500   56.525500
  C     -2.330970   25.244000   56.093400
  C     -1.899540   26.383100   55.340400
  C     -2.864560   27.361800   55.175500
  H     -0.903124   26.556400   54.930600
  C     -1.481660   24.000500   56.414200
  H     -2.114720   23.123700   56.104100
  H     -1.408320   23.906100   57.487800
  C     -0.095754   23.880900   55.716600
  H      0.172319   22.804400   55.604800
  H     -0.203958   24.202000   54.695900
  C      0.943276   24.776900   56.337100
  H      1.816240   24.966600   55.739000
  H      0.456888   25.692800   56.552900
  H      1.252240   24.336600   57.321100
  S     -2.108890   28.538500   52.804300
  C     -2.235670   30.280100   52.644900
  C     -2.603890   30.840700   53.856500
  C     -2.823470   29.894300   54.905100
  C     -2.673130   28.614100   54.490700
  H     -2.620060   31.862900   53.902500
  C     -3.374990   30.397900   56.221100
  H     -2.604220   30.999100   56.713200
  H     -3.585010   29.470300   56.866300
  C     -4.578910   31.269800   56.062100
  H     -4.380080   32.110300   55.415900
  H     -4.778220   31.818400   57.027600
  C     -5.908320   30.546600   55.604100
  H     -6.512330   30.184300   56.411400
  H     -5.577590   29.740300   54.995700
  H     -6.569880   31.142100   54.978400
  H     -4.089860   24.585400   57.015800
  H     -1.973840   30.747700   51.632400

 Total Charge           Charge          ....    0
 Multiplicity           Mult            ....    1
 Number of Electrons    NEL             ....  134
 Basis Dimension        Dim             ....  322

ORBITAL ENERGIES
----------------

  NO   OCC          E(Eh)            E(eV)
   0   2.0000     -88.969585     -2420.9855
   1   2.0000     -88.962714     -2420.7985
   2   2.0000     -10.326267      -280.9920
   3   2.0000     -10.325332      -280.9666
   4   2.0000     -10.324496      -280.9438
   5   2.0000     -10.307718      -280.4873
   6   2.0000     -10.303033      -280.3598
   7   2.0000     -10.300908      -280.3020
   8   2.0000     -10.297731      -280.2155
   9   2.0000     -10.294651      -280.1317
  10   2.0000     -10.292132      -280.0632
  11   2.0000     -10.289955      -280.0039
  12   2.0000     -10.287152      -279.9276
  13   2.0000     -10.286833      -279.9190
  14   2.0000     -10.273543      -279.5573
  15   2.0000     -10.269439      -279.4456
  16   2.0000      -8.084128      -219.9803
  17   2.0000      -8.077333      -219.7954
  18   2.0000      -6.042617      -164.4280
  19   2.0000      -6.038467      -164.3150
  20   2.0000      -6.035886      -164.2448
  21   2.0000      -6.035103      -164.2235
  22   2.0000      -6.031883      -164.1359
  23   2.0000      -6.028030      -164.0310
  24   2.0000      -1.011644       -27.5282
  25   2.0000      -0.986421       -26.8419
  26   2.0000      -0.912544       -24.8316
  27   2.0000      -0.909607       -24.7517
  28   2.0000      -0.874517       -23.7968
  29   2.0000      -0.845532       -23.0081
  30   2.0000      -0.841551       -22.8998
  31   2.0000      -0.815390       -22.1879
  32   2.0000      -0.786397       -21.3989
  33   2.0000      -0.776153       -21.1202
  34   2.0000      -0.712581       -19.3903
  35   2.0000      -0.700311       -19.0564
  36   2.0000      -0.690349       -18.7853
  37   2.0000      -0.665482       -18.1087
  38   2.0000      -0.636297       -17.3145
  39   2.0000      -0.620313       -16.8796
  40   2.0000      -0.598255       -16.2794
  41   2.0000      -0.573030       -15.5929
  42   2.0000      -0.557553       -15.1718
  43   2.0000      -0.551559       -15.0087
  44   2.0000      -0.538319       -14.6484
  45   2.0000      -0.532092       -14.4790
  46   2.0000      -0.520372       -14.1600
  47   2.0000      -0.517560       -14.0835
  48   2.0000      -0.504018       -13.7150
  49   2.0000      -0.491355       -13.3705
  50   2.0000      -0.489763       -13.3271
  51   2.0000      -0.488786       -13.3005
  52   2.0000      -0.467643       -12.7252
  53   2.0000      -0.464989       -12.6530
  54   2.0000      -0.461165       -12.5489
  55   2.0000      -0.446425       -12.1478
  56   2.0000      -0.441502       -12.0139
  57   2.0000      -0.437058       -11.8930
  58   2.0000      -0.435758       -11.8576
  59   2.0000      -0.427903       -11.6438
  60   2.0000      -0.419680       -11.4201
  61   2.0000      -0.411335       -11.1930
  62   2.0000      -0.407224       -11.0811
  63   2.0000      -0.344028        -9.3615
  64   2.0000      -0.332184        -9.0392
  65   2.0000      -0.330022        -8.9804
  66   2.0000      -0.297864        -8.1053
  67   0.0000       0.034485         0.9384
  68   0.0000       0.067578         1.8389
  69   0.0000       0.110696         3.0122
  70   0.0000       0.116144         3.1604
  71   0.0000       0.130106         3.5404

MULLIKEN ATOMIC CHARGES
-----------------------
   0 S :    0.121707
   1 C :   -0.092271
   2 C :   -0.082901
   3 C :   -0.000212
   4 C :   -0.144726
   5 H :    0.015596
   6 C :    0.026465
   7 H :    0.042598
   8 H :    0.037648
   9 C :   -0.067368
  10 H :    0.035523
  11 H :    0.021510
  12 C :   -0.031453
  13 H :    0.036995
  14 H :    0.023761
  15 H :    0.029970
  16 S :    0.096653
  17 C :   -0.127014
  18 C :   -0.009165
  19 C :   -0.008557
  20 C :   -0.176634
  21 H :   -0.010020
  22 C :    0.065313
  23 H :    0.034508
  24 H :    0.042880
  25 C :   -0.092753
  26 H :    0.021792
  27 H :    0.029551
  28 C :   -0.024687
  29 H :    0.034159
  30 H :    0.022142
  31 H :    0.027844
  32 H :    0.009322
  33 H :    0.091825
Sum of atomic charges:    0.0000000

LOEWDIN ATOMIC CHARGES
----------------------
   0 S :    0.439276
   1 C :   -0.188606
   2 C :   -0.055178
   3 C :   -0.078198
   4 C :   -0.213740
   5 H :    0.029688
   6 C :   -0.033763
   7 H :    0.040603
   8 H :    0.029944
   9 C :   -0.046200
  10 H :    0.029038
  11 H :    0.021407
  12 C :   -0.062470
  13 H :    0.024970
  14 H :    0.020676
  15 H :    0.029657
  16 S :    0.387663
  17 C :   -0.184245
  18 C :   -0.063266
  19 C :   -0.057545
  20 C :   -0.189659
  21 H :    0.015997
  22 C :   -0.037297
  23 H :    0.037607
  24 H :    0.033135
  25 C :   -0.044890
  26 H :    0.019293
  27 H :    0.028899
  28 C :   -0.061720
  29 H :    0.024134
  30 H :    0.017717
  31 H :    0.026950
  32 H :    0.013874
  33 H :    0.046249

  Mayer bond orders larger than 0.100000
B(  0-S ,  1-C ) :   1.1289 B(  0-S ,  4-C ) :   1.1754 B(  1-C ,  2-C ) :   1.6121
B(  1-C , 32-H ) :   0.9818 B(  2-C ,  3-C ) :   1.2598 B(  2-C ,  6-C ) :   0.9949
B(  3-C ,  4-C ) :   1.5498 B(  3-C ,  5-H ) :   0.9868 B(  4-C , 20-C ) :   1.0271
B(  6-C ,  7-H ) :   0.9409 B(  6-C ,  8-H ) :   0.9449 B(  6-C ,  9-C ) :   1.0793
B(  9-C , 10-H ) :   0.9572 B(  9-C , 11-H ) :   0.9512 B(  9-C , 12-C ) :   1.0707
B( 12-C , 13-H ) :   0.9747 B( 12-C , 14-H ) :   0.9744 B( 12-C , 15-H ) :   0.9716
B( 16-S , 17-C ) :   1.1518 B( 16-S , 20-C ) :   1.1279 B( 17-C , 18-C ) :   1.6102
B( 17-C , 33-H ) :   0.9588 B( 18-C , 19-C ) :   1.1972 B( 18-C , 21-H ) :   1.0085
B( 19-C , 20-C ) :   1.6187 B( 19-C , 22-C ) :   1.0457 B( 22-C , 23-H ) :   0.9209
B( 22-C , 24-H ) :   0.9364 B( 22-C , 25-C ) :   1.0847 B( 25-C , 26-H ) :   0.9533
B( 25-C , 27-H ) :   0.9537 B( 25-C , 28-C ) :   1.0545 B( 28-C , 29-H ) :   0.9779
B( 28-C , 30-H ) :   0.9795 B( 28-C , 31-H ) :   0.9761

Dispersion correction           -0.015008505
FINAL SINGLE POINT ENERGY     -1339.881954982158

DIPOLE MOMENT
-------------
                                X             Y             Z
Electronic contribution:     -4.55218       1.28941     -10.01175
Nuclear contribution   :      4.76082      -1.21671      10.15010
                        -----------------------------------------
Total Dipole Moment    :      0.20863       0.07270       0.13834
                        -----------------------------------------
Magnitude (a.u.)       :      0.26067
Magnitude (Debye)      :      0.66258

Rotational constants in cm-1:     0.022084     0.008585     0.007066
Rotational constants in MHz :   662.062300   257.361181   211.845929

                             ****ORCA TERMINATED NORMALLY****
TOTAL RUN TIME: 0 days 0 hours 0 minutes 33 seconds 812 msec
