                         Program Version 4.2.1 -  RELEASE  -
|  1> ! wB97X-D3 SP def2-SVP
|  2> %pal
|  3> nprocs 16
|  4> end
|  5>
|  6> * xyz 0 1
|  7> S 	 -71.2027 	 58.9608 	 122.166
|  8> C 	 -70.4133 	 59.6885 	 120.766
|  9> C 	 -69.0508 	 59.6251 	 120.839
| 10> C 	 -68.6343 	 59.0292 	 122.04
| 11> C 	 -69.6026 	 58.6224 	 122.907
| 12> H 	 -67.563 	 58.9426 	 122.38
| 13> C 	 -68.0829 	 60.1256 	 119.78
| 14> H 	 -67.7956 	 61.1442 	 120.032
| 15> H 	 -68.6952 	 60.0343 	 118.87
| 16> C 	 -66.9113 	 59.1763 	 119.423
| 17> H 	 -66.2399 	 59.1743 	 120.313
| 18> H 	 -67.2844 	 58.2276 	 119.187
| 19> C 	 -66.1074 	 59.6172 	 118.14
| 20> H 	 -65.5754 	 60.5202 	 118.446
| 21> H 	 -65.4175 	 58.9033 	 117.673
| 22> H 	 -66.7192 	 59.9656 	 117.327
| 23> S 	 -70.6919 	 58.1651 	 125.337
| 24> C 	 -69.7704 	 57.4761 	 126.66
| 25> C 	 -68.5743 	 57.0167 	 126.157
| 26> C 	 -68.3453 	 57.2622 	 124.76
| 27> C 	 -69.437 	 57.8912 	 124.148
| 28> H 	 -67.911 	 56.4829 	 126.866
| 29> C 	 -67.14 	 56.7553 	 124.091
| 30> H 	 -66.4474 	 56.3437 	 124.81
| 31> H 	 -66.6596 	 57.5606 	 123.497
| 32> C 	 -67.47 	 55.6186 	 123.134
| 33> H 	 -68.2866 	 55.9167 	 122.421
| 34> H 	 -67.8269 	 54.81 	 123.789
| 35> C 	 -66.2966 	 54.9352 	 122.335
| 36> H 	 -66.0013 	 55.675 	 121.549
| 37> H 	 -66.5732 	 53.9933 	 121.858
| 38> H 	 -65.4483 	 54.6847 	 122.97
| 39> H 	 -70.8888 	 60.1977 	 119.959
| 40> H 	 -70.1927 	 57.2699 	 127.604
| 41> *
| 42>
| 43>                          ****END OF INPUT****

CARTESIAN COORDINATES (ANGSTROEM)
---------------------------------
  S    -71.202700   58.960800  122.166000
  C    -70.413300   59.688500  120.766000
  C    -69.050800   59.625100  120.839000
  C    -68.634300   59.029200  122.040000
  C    -69.602600   58.622400  122.907000
  H    -67.563000   58.942600  122.380000
  C    -68.082900   60.125600  119.780000
  H    -67.795600   61.144200  120.032000
  H    -68.695200   60.034300  118.870000
  C    -66.911300   59.176300  119.423000
  H    -66.239900   59.174300  120.313000
  H    -67.284400   58.227600  119.187000
  C    -66.107400   59.617200  118.140000
  H    -65.575400   60.520200  118.446000
  H    -65.417500   58.903300  117.673000
  H    -66.719200   59.965600  117.327000
  S    -70.691900   58.165100  125.337000
  C    -69.770400   57.476100  126.660000
  C    -68.574300   57.016700  126.157000
  C    -68.345300   57.262200  124.760000
  C    -69.437000   57.891200  124.148000
  H    -67.911000   56.482900  126.866000
  C    -67.140000   56.755300  124.091000
  H    -66.447400   56.343700  124.810000
  H    -66.659600   57.560600  123.497000
  C    -67.470000   55.618600  123.134000
  H    -68.286600   55.916700  122.421000
  H    -67.826900   54.810000  123.789000
  C    -66.296600   54.935200  122.335000
  H    -66.001300   55.675000  121.549000
  H    -66.573200   53.993300  121.858000
  H    -65.448300   54.684700  122.970000
  H    -70.888800   60.197700  119.959000
  H    -70.192700   57.269900  127.604000

 Total Charge           Charge          ....    0
 Multiplicity           Mult            ....    1
 Number of Electrons    NEL             ....  134
 Basis Dimension        Dim             ....  322

ORBITAL ENERGIES
----------------

  NO   OCC          E(Eh)            E(eV)
   0   2.0000     -88.967423     -2420.9267
   1   2.0000     -88.962794     -2420.8007
   2   2.0000     -10.332596      -281.1642
   3   2.0000     -10.330766      -281.1144
   4   2.0000     -10.316973      -280.7391
   5   2.0000     -10.312641      -280.6212
   6   2.0000     -10.306697      -280.4595
   7   2.0000     -10.299129      -280.2535
   8   2.0000     -10.297838      -280.2184
   9   2.0000     -10.296887      -280.1925
  10   2.0000     -10.293150      -280.0908
  11   2.0000     -10.292923      -280.0847
  12   2.0000     -10.291286      -280.0401
  13   2.0000     -10.287804      -279.9454
  14   2.0000     -10.282216      -279.7933
  15   2.0000     -10.281859      -279.7836
  16   2.0000      -8.081175      -219.8999
  17   2.0000      -8.077840      -219.8092
  18   2.0000      -6.039855      -164.3528
  19   2.0000      -6.036394      -164.2586
  20   2.0000      -6.035947      -164.2465
  21   2.0000      -6.032148      -164.1431
  22   2.0000      -6.031680      -164.1304
  23   2.0000      -6.028685      -164.0489
  24   2.0000      -1.008650       -27.4468
  25   2.0000      -0.986019       -26.8310
  26   2.0000      -0.913203       -24.8495
  27   2.0000      -0.910526       -24.7767
  28   2.0000      -0.873339       -23.7647
  29   2.0000      -0.848879       -23.0992
  30   2.0000      -0.842264       -22.9192
  31   2.0000      -0.818831       -22.2815
  32   2.0000      -0.782086       -21.2816
  33   2.0000      -0.774100       -21.0643
  34   2.0000      -0.714644       -19.4465
  35   2.0000      -0.699338       -19.0299
  36   2.0000      -0.688351       -18.7310
  37   2.0000      -0.667360       -18.1598
  38   2.0000      -0.638766       -17.3817
  39   2.0000      -0.622543       -16.9403
  40   2.0000      -0.596831       -16.2406
  41   2.0000      -0.580805       -15.8045
  42   2.0000      -0.570032       -15.5114
  43   2.0000      -0.559288       -15.2190
  44   2.0000      -0.525229       -14.2922
  45   2.0000      -0.522804       -14.2262
  46   2.0000      -0.519189       -14.1279
  47   2.0000      -0.511560       -13.9203
  48   2.0000      -0.507173       -13.8009
  49   2.0000      -0.498996       -13.5784
  50   2.0000      -0.495150       -13.4737
  51   2.0000      -0.482555       -13.1310
  52   2.0000      -0.476366       -12.9626
  53   2.0000      -0.472213       -12.8496
  54   2.0000      -0.457061       -12.4373
  55   2.0000      -0.449467       -12.2306
  56   2.0000      -0.446738       -12.1564
  57   2.0000      -0.436552       -11.8792
  58   2.0000      -0.430485       -11.7141
  59   2.0000      -0.423372       -11.5205
  60   2.0000      -0.415495       -11.3062
  61   2.0000      -0.414098       -11.2682
  62   2.0000      -0.407854       -11.0983
  63   2.0000      -0.361890        -9.8475
  64   2.0000      -0.337038        -9.1713
  65   2.0000      -0.327347        -8.9076
  66   2.0000      -0.285341        -7.7645
  67   0.0000       0.016909         0.4601
  68   0.0000       0.081908         2.2288
  69   0.0000       0.100227         2.7273
  70   0.0000       0.122088         3.3222
  71   0.0000       0.128039         3.4841

MULLIKEN ATOMIC CHARGES
-----------------------
   0 S :    0.098683
   1 C :   -0.109871
   2 C :   -0.080659
   3 C :   -0.046684
   4 C :   -0.083990
   5 H :    0.022253
   6 C :    0.065083
   7 H :    0.052136
   8 H :    0.020721
   9 C :   -0.080167
  10 H :    0.040732
  11 H :    0.027806
  12 C :   -0.056630
  13 H :    0.025439
  14 H :    0.047120
  15 H :    0.021325
  16 S :    0.079457
  17 C :   -0.075046
  18 C :   -0.045273
  19 C :   -0.062032
  20 C :   -0.114427
  21 H :    0.029974
  22 C :    0.089310
  23 H :    0.011654
  24 H :    0.026514
  25 C :   -0.122828
  26 H :    0.055591
  27 H :    0.025746
  28 C :   -0.050599
  29 H :    0.036875
  30 H :    0.040435
  31 H :    0.027810
  32 H :    0.033299
  33 H :    0.050243
Sum of atomic charges:   -0.0000000

LOEWDIN ATOMIC CHARGES
----------------------
   0 S :    0.375805
   1 C :   -0.183874
   2 C :   -0.069121
   3 C :   -0.075563
   4 C :   -0.176326
   5 H :    0.036889
   6 C :   -0.028520
   7 H :    0.033685
   8 H :    0.034067
   9 C :   -0.031856
  10 H :    0.024119
  11 H :    0.017866
  12 C :   -0.070114
  13 H :    0.025859
  14 H :    0.030315
  15 H :    0.021391
  16 S :    0.404613
  17 C :   -0.176277
  18 C :   -0.072936
  19 C :   -0.055793
  20 C :   -0.191237
  21 H :    0.036937
  22 C :   -0.035436
  23 H :    0.029656
  24 H :    0.028125
  25 C :   -0.043413
  26 H :    0.031643
  27 H :    0.023708
  28 C :   -0.070560
  29 H :    0.027539
  30 H :    0.028358
  31 H :    0.021872
  32 H :    0.024869
  33 H :    0.023708

  Mayer bond orders larger than 0.100000
B(  0-S ,  1-C ) :   1.1250 B(  0-S ,  4-C ) :   1.1172 B(  1-C ,  2-C ) :   1.6442
B(  1-C , 32-H ) :   0.9649 B(  2-C ,  3-C ) :   1.2408 B(  2-C ,  6-C ) :   1.0053
B(  3-C ,  4-C ) :   1.6130 B(  3-C ,  5-H ) :   0.9752 B(  4-C , 20-C ) :   1.0621
B(  6-C ,  7-H ) :   0.9388 B(  6-C ,  8-H ) :   0.9435 B(  6-C ,  9-C ) :   1.0642
B(  9-C , 10-H ) :   0.9549 B(  9-C , 11-H ) :   0.9627 B(  9-C , 12-C ) :   1.0734
B( 12-C , 13-H ) :   0.9763 B( 12-C , 14-H ) :   0.9784 B( 12-C , 15-H ) :   0.9754
B( 16-S , 17-C ) :   1.1625 B( 16-S , 20-C ) :   1.1389 B( 17-C , 18-C ) :   1.5888
B( 17-C , 20-C ) :   0.1019 B( 17-C , 33-H ) :   0.9732 B( 18-C , 19-C ) :   1.2657
B( 18-C , 21-H ) :   0.9851 B( 19-C , 20-C ) :   1.5427 B( 19-C , 22-C ) :   1.0667
B( 22-C , 23-H ) :   0.9229 B( 22-C , 24-H ) :   0.9245 B( 22-C , 25-C ) :   1.0631
B( 25-C , 26-H ) :   0.9580 B( 25-C , 27-H ) :   0.9539 B( 25-C , 28-C ) :   1.0766
B( 28-C , 29-H ) :   0.9760 B( 28-C , 30-H ) :   0.9762 B( 28-C , 31-H ) :   0.9742

Dispersion correction           -0.014300671
FINAL SINGLE POINT ENERGY     -1339.879999379422

DIPOLE MOMENT
-------------
                                X             Y             Z
Electronic contribution:    -26.15467       6.59864      18.85099
Nuclear contribution   :     26.82542      -6.75142     -19.05801
                        -----------------------------------------
Total Dipole Moment    :      0.67074      -0.15278      -0.20703
                        -----------------------------------------
Magnitude (a.u.)       :      0.71840
Magnitude (Debye)      :      1.82603

Rotational constants in cm-1:     0.018044     0.009331     0.006692
Rotational constants in MHz :   540.945243   279.748468   200.634426

                             ****ORCA TERMINATED NORMALLY****
TOTAL RUN TIME: 0 days 0 hours 0 minutes 32 seconds 235 msec
