                         Program Version 4.2.1 -  RELEASE  -
|  1> ! wB97X-D3 SP def2-SVP
|  2> %pal
|  3> nprocs 16
|  4> end
|  5>
|  6> * xyz 0 1
|  7> S 	 -51.9769 	 33.1053 	 90.2457
|  8> C 	 -53.0712 	 31.7191 	 90.1229
|  9> C 	 -54.3796 	 32.1507 	 90.2777
| 10> C 	 -54.5493 	 33.5701 	 90.4362
| 11> C 	 -53.3014 	 34.2229 	 90.6393
| 12> H 	 -55.5531 	 33.9539 	 90.6869
| 13> C 	 -55.4976 	 31.1468 	 90.3598
| 14> H 	 -55.0487 	 30.2157 	 90.6949
| 15> H 	 -55.5493 	 30.7419 	 89.38
| 16> C 	 -56.8423 	 31.5221 	 90.9691
| 17> H 	 -57.1906 	 32.4528 	 90.5243
| 18> H 	 -57.62 	 30.7525 	 90.7895
| 19> C 	 -56.953 	 31.7152 	 92.52
| 20> H 	 -57.8589 	 32.1735 	 92.9433
| 21> H 	 -56.8029 	 30.7206 	 92.9306
| 22> H 	 -56.162 	 32.2853 	 92.9283
| 23> S 	 -51.4865 	 36.0037 	 91.5835
| 24> C 	 -51.6716 	 37.6874 	 91.2996
| 25> C 	 -52.8163 	 37.9627 	 90.653
| 26> C 	 -53.7129 	 36.8558 	 90.4465
| 27> C 	 -53.0447 	 35.6362 	 90.8021
| 28> H 	 -53.1596 	 39.0152 	 90.3395
| 29> C 	 -54.9907 	 37.0853 	 89.6723
| 30> H 	 -55.6919 	 37.7588 	 90.2568
| 31> H 	 -55.5939 	 36.1388 	 89.673
| 32> C 	 -54.7894 	 37.5147 	 88.2476
| 33> H 	 -54.4339 	 36.6744 	 87.7136
| 34> H 	 -54.0573 	 38.319 	 87.9864
| 35> C 	 -56.0669 	 37.7802 	 87.5252
| 36> H 	 -55.6885 	 37.9407 	 86.5236
| 37> H 	 -56.5414 	 38.674 	 87.9296
| 38> H 	 -56.6747 	 36.8531 	 87.5078
| 39> H 	 -52.8663 	 30.772 	 90.2407
| 40> H 	 -50.8965 	 38.4087 	 91.4838
| 41> *
| 42>
| 43>                          ****END OF INPUT****

CARTESIAN COORDINATES (ANGSTROEM)
---------------------------------
  S    -51.976900   33.105300   90.245700
  C    -53.071200   31.719100   90.122900
  C    -54.379600   32.150700   90.277700
  C    -54.549300   33.570100   90.436200
  C    -53.301400   34.222900   90.639300
  H    -55.553100   33.953900   90.686900
  C    -55.497600   31.146800   90.359800
  H    -55.048700   30.215700   90.694900
  H    -55.549300   30.741900   89.380000
  C    -56.842300   31.522100   90.969100
  H    -57.190600   32.452800   90.524300
  H    -57.620000   30.752500   90.789500
  C    -56.953000   31.715200   92.520000
  H    -57.858900   32.173500   92.943300
  H    -56.802900   30.720600   92.930600
  H    -56.162000   32.285300   92.928300
  S    -51.486500   36.003700   91.583500
  C    -51.671600   37.687400   91.299600
  C    -52.816300   37.962700   90.653000
  C    -53.712900   36.855800   90.446500
  C    -53.044700   35.636200   90.802100
  H    -53.159600   39.015200   90.339500
  C    -54.990700   37.085300   89.672300
  H    -55.691900   37.758800   90.256800
  H    -55.593900   36.138800   89.673000
  C    -54.789400   37.514700   88.247600
  H    -54.433900   36.674400   87.713600
  H    -54.057300   38.319000   87.986400
  C    -56.066900   37.780200   87.525200
  H    -55.688500   37.940700   86.523600
  H    -56.541400   38.674000   87.929600
  H    -56.674700   36.853100   87.507800
  H    -52.866300   30.772000   90.240700
  H    -50.896500   38.408700   91.483800

 Total Charge           Charge          ....    0
 Multiplicity           Mult            ....    1
 Number of Electrons    NEL             ....  134
 Basis Dimension        Dim             ....  322

ORBITAL ENERGIES
----------------

  NO   OCC          E(Eh)            E(eV)
   0   2.0000     -88.967412     -2420.9264
   1   2.0000     -88.964495     -2420.8470
   2   2.0000     -10.340085      -281.3680
   3   2.0000     -10.335474      -281.2426
   4   2.0000     -10.312665      -280.6219
   5   2.0000     -10.311616      -280.5933
   6   2.0000     -10.301766      -280.3253
   7   2.0000     -10.300383      -280.2877
   8   2.0000     -10.300284      -280.2850
   9   2.0000     -10.299356      -280.2597
  10   2.0000     -10.296559      -280.1836
  11   2.0000     -10.296499      -280.1820
  12   2.0000     -10.290584      -280.0210
  13   2.0000     -10.279761      -279.7265
  14   2.0000     -10.276163      -279.6286
  15   2.0000     -10.275749      -279.6173
  16   2.0000      -8.080929      -219.8933
  17   2.0000      -8.079629      -219.8579
  18   2.0000      -6.039701      -164.3486
  19   2.0000      -6.038149      -164.3064
  20   2.0000      -6.035534      -164.2352
  21   2.0000      -6.034077      -164.1956
  22   2.0000      -6.031538      -164.1265
  23   2.0000      -6.030350      -164.0942
  24   2.0000      -1.003523       -27.3073
  25   2.0000      -0.980728       -26.6870
  26   2.0000      -0.920756       -25.0551
  27   2.0000      -0.912199       -24.8222
  28   2.0000      -0.871146       -23.7051
  29   2.0000      -0.857672       -23.3384
  30   2.0000      -0.840706       -22.8768
  31   2.0000      -0.818943       -22.2846
  32   2.0000      -0.786179       -21.3930
  33   2.0000      -0.773969       -21.0608
  34   2.0000      -0.717512       -19.5245
  35   2.0000      -0.699699       -19.0398
  36   2.0000      -0.692214       -18.8361
  37   2.0000      -0.654287       -17.8041
  38   2.0000      -0.637920       -17.3587
  39   2.0000      -0.625891       -17.0314
  40   2.0000      -0.605178       -16.4677
  41   2.0000      -0.569377       -15.4935
  42   2.0000      -0.562777       -15.3139
  43   2.0000      -0.550299       -14.9744
  44   2.0000      -0.539866       -14.6905
  45   2.0000      -0.538286       -14.6475
  46   2.0000      -0.515337       -14.0230
  47   2.0000      -0.512476       -13.9452
  48   2.0000      -0.509105       -13.8534
  49   2.0000      -0.499455       -13.5909
  50   2.0000      -0.491894       -13.3851
  51   2.0000      -0.478977       -13.0336
  52   2.0000      -0.470339       -12.7986
  53   2.0000      -0.460528       -12.5316
  54   2.0000      -0.456432       -12.4202
  55   2.0000      -0.449330       -12.2269
  56   2.0000      -0.448268       -12.1980
  57   2.0000      -0.441269       -12.0076
  58   2.0000      -0.437720       -11.9110
  59   2.0000      -0.420438       -11.4407
  60   2.0000      -0.420143       -11.4327
  61   2.0000      -0.411390       -11.1945
  62   2.0000      -0.409867       -11.1530
  63   2.0000      -0.354973        -9.6593
  64   2.0000      -0.331084        -9.0093
  65   2.0000      -0.326914        -8.8958
  66   2.0000      -0.281490        -7.6597
  67   0.0000       0.013066         0.3555
  68   0.0000       0.077919         2.1203
  69   0.0000       0.110354         3.0029
  70   0.0000       0.117477         3.1967
  71   0.0000       0.129882         3.5343

MULLIKEN ATOMIC CHARGES
-----------------------
   0 S :    0.098323
   1 C :   -0.047143
   2 C :   -0.134984
   3 C :   -0.002459
   4 C :   -0.105611
   5 H :    0.034716
   6 C :    0.107390
   7 H :   -0.004909
   8 H :    0.021115
   9 C :   -0.067567
  10 H :    0.028968
  11 H :    0.037681
  12 C :   -0.051118
  13 H :    0.042620
  14 H :    0.023763
  15 H :    0.024404
  16 S :    0.092162
  17 C :   -0.063934
  18 C :   -0.061225
  19 C :   -0.023644
  20 C :   -0.158439
  21 H :    0.041938
  22 C :    0.044652
  23 H :    0.036328
  24 H :    0.011715
  25 C :   -0.089986
  26 H :    0.019686
  27 H :    0.037099
  28 C :   -0.032406
  29 H :    0.029214
  30 H :    0.035415
  31 H :    0.037072
  32 H :   -0.017183
  33 H :    0.056348
Sum of atomic charges:   -0.0000000

LOEWDIN ATOMIC CHARGES
----------------------
   0 S :    0.392559
   1 C :   -0.187693
   2 C :   -0.044167
   3 C :   -0.080827
   4 C :   -0.176466
   5 H :    0.032601
   6 C :   -0.044917
   7 H :    0.034159
   8 H :    0.040605
   9 C :   -0.040778
  10 H :    0.020660
  11 H :    0.033914
  12 C :   -0.068416
  13 H :    0.030897
  14 H :    0.024745
  15 H :    0.017924
  16 S :    0.404257
  17 C :   -0.192993
  18 C :   -0.078882
  19 C :   -0.049112
  20 C :   -0.188309
  21 H :    0.042733
  22 C :   -0.042234
  23 H :    0.036076
  24 H :    0.034342
  25 C :   -0.049233
  26 H :    0.025801
  27 H :    0.028568
  28 C :   -0.059048
  29 H :    0.029035
  30 H :    0.022016
  31 H :    0.028544
  32 H :   -0.006950
  33 H :    0.030589

  Mayer bond orders larger than 0.100000
B(  0-S ,  1-C ) :   1.1096 B(  0-S ,  4-C ) :   1.1574 B(  1-C ,  2-C ) :   1.6082
B(  1-C ,  4-C ) :   0.1090 B(  1-C , 32-H ) :   0.9794 B(  2-C ,  3-C ) :   1.2756
B(  2-C ,  6-C ) :   1.0148 B(  3-C ,  4-C ) :   1.5365 B(  3-C ,  5-H ) :   0.9687
B(  4-C , 20-C ) :   1.0909 B(  6-C ,  7-H ) :   0.9246 B(  6-C ,  8-H ) :   0.9156
B(  6-C ,  9-C ) :   1.0639 B(  9-C , 10-H ) :   0.9539 B(  9-C , 11-H ) :   0.9558
B(  9-C , 12-C ) :   1.0654 B( 12-C , 13-H ) :   0.9774 B( 12-C , 14-H ) :   0.9752
B( 12-C , 15-H ) :   0.9782 B( 16-S , 17-C ) :   1.1433 B( 16-S , 20-C ) :   1.1420
B( 17-C , 18-C ) :   1.6198 B( 17-C , 33-H ) :   0.9678 B( 18-C , 19-C ) :   1.2526
B( 18-C , 21-H ) :   0.9717 B( 19-C , 20-C ) :   1.5419 B( 19-C , 22-C ) :   1.0538
B( 22-C , 23-H ) :   0.9306 B( 22-C , 24-H ) :   0.9296 B( 22-C , 25-C ) :   1.0623
B( 25-C , 26-H ) :   0.9486 B( 25-C , 27-H ) :   0.9579 B( 25-C , 28-C ) :   1.0867
B( 28-C , 29-H ) :   0.9742 B( 28-C , 30-H ) :   0.9747 B( 28-C , 31-H ) :   0.9729

Dispersion correction           -0.013670080
FINAL SINGLE POINT ENERGY     -1339.844705842337

DIPOLE MOMENT
-------------
                                X             Y             Z
Electronic contribution:     26.81927       0.71137       6.53751
Nuclear contribution   :    -27.41526      -0.63753      -6.73614
                        -----------------------------------------
Total Dipole Moment    :     -0.59599       0.07384      -0.19863
                        -----------------------------------------
Magnitude (a.u.)       :      0.63254
Magnitude (Debye)      :      1.60779

Rotational constants in cm-1:     0.016530     0.008989     0.006925
Rotational constants in MHz :   495.570861   269.482285   207.614752

                             ****ORCA TERMINATED NORMALLY****
TOTAL RUN TIME: 0 days 0 hours 0 minutes 29 seconds 780 msec
