                         Program Version 4.2.1 -  RELEASE  -
|  1> ! wB97X-D3 SP def2-SVP
|  2> %pal
|  3> nprocs 16
|  4> end
|  5>
|  6> * xyz 0 1
|  7> S 	 -102.42 	 43.1789 	 120.203
|  8> C 	 -103.712 	 44.1233 	 121.014
|  9> C 	 -103.294 	 45.4 	 121.325
| 10> C 	 -101.982 	 45.6214 	 120.839
| 11> C 	 -101.343 	 44.526 	 120.291
| 12> H 	 -101.433 	 46.5595 	 120.878
| 13> C 	 -104.236 	 46.4572 	 121.919
| 14> H 	 -104.877 	 46.6832 	 121.145
| 15> H 	 -103.784 	 47.3726 	 122.203
| 16> C 	 -104.806 	 46.2235 	 123.34
| 17> H 	 -105.221 	 45.207 	 123.436
| 18> H 	 -103.967 	 46.2244 	 124.037
| 19> C 	 -105.877 	 47.1967 	 123.878
| 20> H 	 -106.551 	 47.5299 	 123.085
| 21> H 	 -106.405 	 46.6463 	 124.553
| 22> H 	 -105.415 	 47.9934 	 124.392
| 23> S 	 -98.7636 	 45.0063 	 120.692
| 24> C 	 -97.4785 	 44.8767 	 119.486
| 25> C 	 -98.079 	 44.2695 	 118.432
| 26> C 	 -99.5029 	 44.0943 	 118.5
| 27> C 	 -100.028 	 44.5688 	 119.649
| 28> H 	 -97.3391 	 43.9523 	 117.725
| 29> C 	 -100.268 	 43.5099 	 117.352
| 30> H 	 -101.332 	 43.6515 	 117.564
| 31> H 	 -100.056 	 42.4648 	 117.396
| 32> C 	 -100.03 	 44.1691 	 115.959
| 33> H 	 -100.615 	 43.6211 	 115.32
| 34> H 	 -98.9505 	 44.0731 	 115.666
| 35> C 	 -100.338 	 45.6777 	 115.917
| 36> H 	 -101.387 	 46.1044 	 116.048
| 37> H 	 -100.026 	 46.0527 	 114.946
| 38> H 	 -99.7091 	 46.2407 	 116.611
| 39> H 	 -104.654 	 43.8037 	 121.323
| 40> H 	 -96.4511 	 44.8864 	 119.712
| 41> *
| 42>
| 43>                          ****END OF INPUT****

CARTESIAN COORDINATES (ANGSTROEM)
---------------------------------
  S    -102.420000   43.178900  120.203000
  C    -103.712000   44.123300  121.014000
  C    -103.294000   45.400000  121.325000
  C    -101.982000   45.621400  120.839000
  C    -101.343000   44.526000  120.291000
  H    -101.433000   46.559500  120.878000
  C    -104.236000   46.457200  121.919000
  H    -104.877000   46.683200  121.145000
  H    -103.784000   47.372600  122.203000
  C    -104.806000   46.223500  123.340000
  H    -105.221000   45.207000  123.436000
  H    -103.967000   46.224400  124.037000
  C    -105.877000   47.196700  123.878000
  H    -106.551000   47.529900  123.085000
  H    -106.405000   46.646300  124.553000
  H    -105.415000   47.993400  124.392000
  S    -98.763600   45.006300  120.692000
  C    -97.478500   44.876700  119.486000
  C    -98.079000   44.269500  118.432000
  C    -99.502900   44.094300  118.500000
  C    -100.028000   44.568800  119.649000
  H    -97.339100   43.952300  117.725000
  C    -100.268000   43.509900  117.352000
  H    -101.332000   43.651500  117.564000
  H    -100.056000   42.464800  117.396000
  C    -100.030000   44.169100  115.959000
  H    -100.615000   43.621100  115.320000
  H    -98.950500   44.073100  115.666000
  C    -100.338000   45.677700  115.917000
  H    -101.387000   46.104400  116.048000
  H    -100.026000   46.052700  114.946000
  H    -99.709100   46.240700  116.611000
  H    -104.654000   43.803700  121.323000
  H    -96.451100   44.886400  119.712000

 Total Charge           Charge          ....    0
 Multiplicity           Mult            ....    1
 Number of Electrons    NEL             ....  134
 Basis Dimension        Dim             ....  322

ORBITAL ENERGIES
----------------

  NO   OCC          E(Eh)            E(eV)
   0   2.0000     -88.971573     -2421.0396
   1   2.0000     -88.953212     -2420.5400
   2   2.0000     -10.328911      -281.0640
   3   2.0000     -10.320220      -280.8275
   4   2.0000     -10.312995      -280.6309
   5   2.0000     -10.310401      -280.5603
   6   2.0000     -10.303004      -280.3590
   7   2.0000     -10.295944      -280.1669
   8   2.0000     -10.292411      -280.0707
   9   2.0000     -10.289204      -279.9835
  10   2.0000     -10.289148      -279.9820
  11   2.0000     -10.286064      -279.8980
  12   2.0000     -10.285384      -279.8795
  13   2.0000     -10.283572      -279.8302
  14   2.0000     -10.277064      -279.6531
  15   2.0000     -10.271064      -279.4899
  16   2.0000      -8.085306      -220.0124
  17   2.0000      -8.069315      -219.5772
  18   2.0000      -6.043879      -164.4623
  19   2.0000      -6.039905      -164.3542
  20   2.0000      -6.036107      -164.2508
  21   2.0000      -6.027918      -164.0280
  22   2.0000      -6.023493      -163.9076
  23   2.0000      -6.019974      -163.8118
  24   2.0000      -1.014494       -27.6058
  25   2.0000      -0.988387       -26.8954
  26   2.0000      -0.912972       -24.8432
  27   2.0000      -0.905199       -24.6317
  28   2.0000      -0.876332       -23.8462
  29   2.0000      -0.852475       -23.1970
  30   2.0000      -0.841130       -22.8883
  31   2.0000      -0.818990       -22.2858
  32   2.0000      -0.791324       -21.5330
  33   2.0000      -0.774935       -21.0871
  34   2.0000      -0.710194       -19.3254
  35   2.0000      -0.702979       -19.1290
  36   2.0000      -0.698737       -19.0136
  37   2.0000      -0.663755       -18.0617
  38   2.0000      -0.637757       -17.3543
  39   2.0000      -0.616249       -16.7690
  40   2.0000      -0.595095       -16.1934
  41   2.0000      -0.584124       -15.8948
  42   2.0000      -0.565514       -15.3884
  43   2.0000      -0.553735       -15.0679
  44   2.0000      -0.536618       -14.6021
  45   2.0000      -0.530855       -14.4453
  46   2.0000      -0.526015       -14.3136
  47   2.0000      -0.513421       -13.9709
  48   2.0000      -0.509727       -13.8704
  49   2.0000      -0.504745       -13.7348
  50   2.0000      -0.491339       -13.3700
  51   2.0000      -0.477509       -12.9937
  52   2.0000      -0.472616       -12.8605
  53   2.0000      -0.469554       -12.7772
  54   2.0000      -0.454728       -12.3738
  55   2.0000      -0.444539       -12.0965
  56   2.0000      -0.442957       -12.0535
  57   2.0000      -0.438291       -11.9265
  58   2.0000      -0.432578       -11.7711
  59   2.0000      -0.428459       -11.6590
  60   2.0000      -0.415071       -11.2947
  61   2.0000      -0.404709       -11.0127
  62   2.0000      -0.404225       -10.9995
  63   2.0000      -0.350405        -9.5350
  64   2.0000      -0.335894        -9.1401
  65   2.0000      -0.321066        -8.7367
  66   2.0000      -0.298496        -8.1225
  67   0.0000       0.033017         0.8984
  68   0.0000       0.073535         2.0010
  69   0.0000       0.110749         3.0136
  70   0.0000       0.129848         3.5333
  71   0.0000       0.132413         3.6031

MULLIKEN ATOMIC CHARGES
-----------------------
   0 S :    0.122992
   1 C :   -0.101125
   2 C :   -0.065696
   3 C :    0.008338
   4 C :   -0.133984
   5 H :    0.015594
   6 C :    0.105026
   7 H :    0.027702
   8 H :    0.009424
   9 C :   -0.132471
  10 H :    0.019131
  11 H :    0.031416
  12 C :    0.017093
  13 H :    0.033172
  14 H :    0.011518
  15 H :    0.028530
  16 S :    0.073355
  17 C :   -0.079849
  18 C :   -0.054030
  19 C :   -0.062791
  20 C :   -0.133652
  21 H :    0.013807
  22 C :    0.077775
  23 H :    0.020817
  24 H :    0.033229
  25 C :   -0.032428
  26 H :    0.015172
  27 H :    0.034541
  28 C :   -0.078178
  29 H :    0.044166
  30 H :    0.023055
  31 H :    0.038207
  32 H :    0.019420
  33 H :    0.050723
Sum of atomic charges:    0.0000000

LOEWDIN ATOMIC CHARGES
----------------------
   0 S :    0.410842
   1 C :   -0.172360
   2 C :   -0.055233
   3 C :   -0.061634
   4 C :   -0.205003
   5 H :    0.031309
   6 C :   -0.028730
   7 H :    0.023194
   8 H :    0.029885
   9 C :   -0.036492
  10 H :    0.014161
  11 H :    0.026476
  12 C :   -0.050117
  13 H :    0.029383
  14 H :    0.018418
  15 H :    0.021640
  16 S :    0.414107
  17 C :   -0.175696
  18 C :   -0.070473
  19 C :   -0.072988
  20 C :   -0.204056
  21 H :    0.028971
  22 C :   -0.033421
  23 H :    0.024727
  24 H :    0.030415
  25 C :   -0.027863
  26 H :    0.013120
  27 H :    0.029589
  28 C :   -0.075696
  29 H :    0.032530
  30 H :    0.024311
  31 H :    0.027069
  32 H :    0.014851
  33 H :    0.024764

  Mayer bond orders larger than 0.100000
B(  0-S ,  1-C ) :   1.1355 B(  0-S ,  4-C ) :   1.1423 B(  1-C ,  2-C ) :   1.6068
B(  1-C , 32-H ) :   0.9733 B(  2-C ,  3-C ) :   1.2542 B(  2-C ,  6-C ) :   1.0091
B(  3-C ,  4-C ) :   1.5599 B(  3-C ,  5-H ) :   0.9931 B(  4-C , 20-C ) :   1.0099
B(  6-C ,  7-H ) :   0.9446 B(  6-C ,  8-H ) :   0.9485 B(  6-C ,  9-C ) :   1.0372
B(  9-C , 10-H ) :   0.9686 B(  9-C , 11-H ) :   0.9603 B(  9-C , 12-C ) :   1.0755
B( 12-C , 13-H ) :   0.9761 B( 12-C , 14-H ) :   0.9723 B( 12-C , 15-H ) :   0.9773
B( 16-S , 17-C ) :   1.1382 B( 16-S , 20-C ) :   1.1652 B( 17-C , 18-C ) :   1.6253
B( 17-C , 33-H ) :   0.9747 B( 18-C , 19-C ) :   1.1994 B( 18-C , 21-H ) :   0.9955
B( 19-C , 20-C ) :   1.6035 B( 19-C , 22-C ) :   1.0398 B( 22-C , 23-H ) :   0.9328
B( 22-C , 24-H ) :   0.9281 B( 22-C , 25-C ) :   1.0746 B( 25-C , 26-H ) :   0.9570
B( 25-C , 27-H ) :   0.9531 B( 25-C , 28-C ) :   1.0723 B( 28-C , 29-H ) :   0.9762
B( 28-C , 30-H ) :   0.9731 B( 28-C , 31-H ) :   0.9719

Dispersion correction           -0.013996729
FINAL SINGLE POINT ENERGY     -1339.850384954589

DIPOLE MOMENT
-------------
                                X             Y             Z
Electronic contribution:     13.49332     -11.11975       3.59688
Nuclear contribution   :    -13.71202      11.27848      -3.70688
                        -----------------------------------------
Total Dipole Moment    :     -0.21870       0.15873      -0.10999
                        -----------------------------------------
Magnitude (a.u.)       :      0.29176
Magnitude (Debye)      :      0.74159

Rotational constants in cm-1:     0.024489     0.006821     0.006215
Rotational constants in MHz :   734.149151   204.476162   186.319546

                             ****ORCA TERMINATED NORMALLY****
TOTAL RUN TIME: 0 days 0 hours 0 minutes 32 seconds 552 msec
