                         Program Version 4.2.1 -  RELEASE  -
|  1> ! wB97X-D3 SP def2-SVP
|  2> %pal
|  3> nprocs 16
|  4> end
|  5>
|  6> * xyz 0 1
|  7> S 	 12.0023 	 19.5195 	 40.3888
|  8> C 	 12.4142 	 20.6283 	 39.0749
|  9> C 	 11.6559 	 20.4495 	 37.9511
| 10> C 	 10.5575 	 19.583 	 38.195
| 11> C 	 10.6526 	 18.8662 	 39.3961
| 12> H 	 9.75772 	 19.3574 	 37.5015
| 13> C 	 11.7082 	 21.3273 	 36.7185
| 14> H 	 11.8844 	 20.5939 	 35.8852
| 15> H 	 12.5812 	 22.0127 	 36.8148
| 16> C 	 10.4488 	 22.0451 	 36.2561
| 17> H 	 10.4643 	 22.4775 	 35.2605
| 18> H 	 9.64623 	 21.2844 	 36.1681
| 19> C 	 9.77706 	 23.0485 	 37.2717
| 20> H 	 9.13207 	 23.7785 	 36.6922
| 21> H 	 9.12675 	 22.5351 	 37.9111
| 22> H 	 10.5146 	 23.7471 	 37.6862
| 23> S 	 10.362 	 16.7389 	 41.0509
| 24> C 	 8.83389 	 16.1246 	 41.3394
| 25> C 	 7.86727 	 16.6861 	 40.5062
| 26> C 	 8.3442 	 17.7822 	 39.7927
| 27> C 	 9.70137 	 17.9574 	 40.0027
| 28> H 	 6.89361 	 16.2159 	 40.5633
| 29> C 	 7.46174 	 18.7367 	 39.0485
| 30> H 	 8.02553 	 19.5989 	 38.5881
| 31> H 	 6.79393 	 19.1632 	 39.8167
| 32> C 	 6.72883 	 18.0425 	 37.8913
| 33> H 	 6.25685 	 17.1175 	 38.1329
| 34> H 	 7.4413 	 17.8794 	 37.1075
| 35> C 	 5.74037 	 19.0532 	 37.2568
| 36> H 	 5.32628 	 18.5701 	 36.3911
| 37> H 	 6.22653 	 19.9758 	 37.0384
| 38> H 	 4.93127 	 19.2441 	 37.9784
| 39> H 	 13.1045 	 21.4278 	 39.2581
| 40> H 	 8.72374 	 15.2189 	 41.8797
| 41> *
| 42>
| 43>                          ****END OF INPUT****

CARTESIAN COORDINATES (ANGSTROEM)
---------------------------------
  S     12.002300   19.519500   40.388800
  C     12.414200   20.628300   39.074900
  C     11.655900   20.449500   37.951100
  C     10.557500   19.583000   38.195000
  C     10.652600   18.866200   39.396100
  H      9.757720   19.357400   37.501500
  C     11.708200   21.327300   36.718500
  H     11.884400   20.593900   35.885200
  H     12.581200   22.012700   36.814800
  C     10.448800   22.045100   36.256100
  H     10.464300   22.477500   35.260500
  H      9.646230   21.284400   36.168100
  C      9.777060   23.048500   37.271700
  H      9.132070   23.778500   36.692200
  H      9.126750   22.535100   37.911100
  H     10.514600   23.747100   37.686200
  S     10.362000   16.738900   41.050900
  C      8.833890   16.124600   41.339400
  C      7.867270   16.686100   40.506200
  C      8.344200   17.782200   39.792700
  C      9.701370   17.957400   40.002700
  H      6.893610   16.215900   40.563300
  C      7.461740   18.736700   39.048500
  H      8.025530   19.598900   38.588100
  H      6.793930   19.163200   39.816700
  C      6.728830   18.042500   37.891300
  H      6.256850   17.117500   38.132900
  H      7.441300   17.879400   37.107500
  C      5.740370   19.053200   37.256800
  H      5.326280   18.570100   36.391100
  H      6.226530   19.975800   37.038400
  H      4.931270   19.244100   37.978400
  H     13.104500   21.427800   39.258100
  H      8.723740   15.218900   41.879700

 Total Charge           Charge          ....    0
 Multiplicity           Mult            ....    1
 Number of Electrons    NEL             ....  134
 Basis Dimension        Dim             ....  322

ORBITAL ENERGIES
----------------

  NO   OCC          E(Eh)            E(eV)
   0   2.0000     -88.964702     -2420.8526
   1   2.0000     -88.964222     -2420.8396
   2   2.0000     -10.333219      -281.1812
   3   2.0000     -10.321079      -280.8508
   4   2.0000     -10.312921      -280.6289
   5   2.0000     -10.308326      -280.5038
   6   2.0000     -10.301049      -280.3058
   7   2.0000     -10.299773      -280.2711
   8   2.0000     -10.299093      -280.2526
   9   2.0000     -10.295356      -280.1509
  10   2.0000     -10.295319      -280.1499
  11   2.0000     -10.292715      -280.0790
  12   2.0000     -10.291299      -280.0405
  13   2.0000     -10.284178      -279.8467
  14   2.0000     -10.279674      -279.7242
  15   2.0000     -10.276190      -279.6293
  16   2.0000      -8.081390      -219.9058
  17   2.0000      -8.078223      -219.8196
  18   2.0000      -6.039480      -164.3426
  19   2.0000      -6.036758      -164.2685
  20   2.0000      -6.035624      -164.2377
  21   2.0000      -6.032984      -164.1658
  22   2.0000      -6.032487      -164.1523
  23   2.0000      -6.028846      -164.0533
  24   2.0000      -1.014130       -27.5959
  25   2.0000      -0.985121       -26.8065
  26   2.0000      -0.916929       -24.9509
  27   2.0000      -0.909062       -24.7368
  28   2.0000      -0.869041       -23.6478
  29   2.0000      -0.860406       -23.4128
  30   2.0000      -0.842289       -22.9199
  31   2.0000      -0.812188       -22.1008
  32   2.0000      -0.785356       -21.3706
  33   2.0000      -0.773875       -21.0582
  34   2.0000      -0.709728       -19.3127
  35   2.0000      -0.701519       -19.0893
  36   2.0000      -0.693883       -18.8815
  37   2.0000      -0.662493       -18.0273
  38   2.0000      -0.637454       -17.3460
  39   2.0000      -0.626877       -17.0582
  40   2.0000      -0.603447       -16.4206
  41   2.0000      -0.570110       -15.5135
  42   2.0000      -0.562147       -15.2968
  43   2.0000      -0.547484       -14.8978
  44   2.0000      -0.543931       -14.8011
  45   2.0000      -0.534943       -14.5565
  46   2.0000      -0.525252       -14.2928
  47   2.0000      -0.508649       -13.8410
  48   2.0000      -0.506653       -13.7867
  49   2.0000      -0.495307       -13.4780
  50   2.0000      -0.491518       -13.3749
  51   2.0000      -0.484083       -13.1726
  52   2.0000      -0.476091       -12.9551
  53   2.0000      -0.464757       -12.6467
  54   2.0000      -0.459083       -12.4923
  55   2.0000      -0.451042       -12.2735
  56   2.0000      -0.445757       -12.1297
  57   2.0000      -0.438130       -11.9221
  58   2.0000      -0.431975       -11.7546
  59   2.0000      -0.431485       -11.7413
  60   2.0000      -0.418318       -11.3830
  61   2.0000      -0.415789       -11.3142
  62   2.0000      -0.411017       -11.1843
  63   2.0000      -0.355720        -9.6796
  64   2.0000      -0.334305        -9.0969
  65   2.0000      -0.331623        -9.0239
  66   2.0000      -0.279432        -7.6037
  67   0.0000       0.023631         0.6430
  68   0.0000       0.074268         2.0209
  69   0.0000       0.103458         2.8152
  70   0.0000       0.113294         3.0829
  71   0.0000       0.117051         3.1851

MULLIKEN ATOMIC CHARGES
-----------------------
   0 S :    0.087385
   1 C :   -0.138428
   2 C :   -0.036060
   3 C :   -0.033595
   4 C :   -0.107946
   5 H :    0.015975
   6 C :    0.068023
   7 H :    0.043502
   8 H :    0.029564
   9 C :   -0.098304
  10 H :    0.036692
  11 H :    0.015566
  12 C :   -0.050757
  13 H :    0.025006
  14 H :    0.037959
  15 H :    0.035889
  16 S :    0.117993
  17 C :   -0.079609
  18 C :   -0.065150
  19 C :   -0.004693
  20 C :   -0.140470
  21 H :    0.017576
  22 C :    0.029056
  23 H :    0.023038
  24 H :    0.043849
  25 C :   -0.087671
  26 H :    0.030760
  27 H :    0.023262
  28 C :   -0.014750
  29 H :    0.031396
  30 H :    0.021227
  31 H :    0.028598
  32 H :    0.048196
  33 H :    0.046921
Sum of atomic charges:   -0.0000000

LOEWDIN ATOMIC CHARGES
----------------------
   0 S :    0.371515
   1 C :   -0.182815
   2 C :   -0.066524
   3 C :   -0.068240
   4 C :   -0.167516
   5 H :    0.026907
   6 C :   -0.034772
   7 H :    0.044059
   8 H :    0.030756
   9 C :   -0.048653
  10 H :    0.026952
  11 H :    0.023164
  12 C :   -0.066918
  13 H :    0.032096
  14 H :    0.016914
  15 H :    0.025545
  16 S :    0.446210
  17 C :   -0.203302
  18 C :   -0.072136
  19 C :   -0.060078
  20 C :   -0.205944
  21 H :    0.032482
  22 C :   -0.031820
  23 H :    0.033035
  24 H :    0.035928
  25 C :   -0.031929
  26 H :    0.018376
  27 H :    0.021559
  28 C :   -0.055978
  29 H :    0.023398
  30 H :    0.018681
  31 H :    0.025083
  32 H :    0.023653
  33 H :    0.020315

  Mayer bond orders larger than 0.100000
B(  0-S ,  1-C ) :   1.1316 B(  0-S ,  4-C ) :   1.1320 B(  1-C ,  2-C ) :   1.6164
B(  1-C , 32-H ) :   0.9679 B(  2-C ,  3-C ) :   1.2201 B(  2-C ,  6-C ) :   1.0268
B(  3-C ,  4-C ) :   1.6001 B(  3-C ,  5-H ) :   0.9800 B(  4-C , 20-C ) :   1.0550
B(  6-C ,  7-H ) :   0.9256 B(  6-C ,  8-H ) :   0.9486 B(  6-C ,  9-C ) :   1.0760
B(  9-C , 10-H ) :   0.9589 B(  9-C , 11-H ) :   0.9505 B(  9-C , 12-C ) :   1.0642
B( 12-C , 13-H ) :   0.9743 B( 12-C , 14-H ) :   0.9803 B( 12-C , 15-H ) :   0.9790
B( 16-S , 17-C ) :   1.1926 B( 16-S , 20-C ) :   1.1600 B( 17-C , 18-C ) :   1.5707
B( 17-C , 20-C ) :   0.1014 B( 17-C , 33-H ) :   0.9695 B( 18-C , 19-C ) :   1.2577
B( 18-C , 21-H ) :   0.9991 B( 19-C , 20-C ) :   1.5656 B( 19-C , 22-C ) :   1.0270
B( 22-C , 23-H ) :   0.9358 B( 22-C , 24-H ) :   0.9393 B( 22-C , 25-C ) :   1.0569
B( 25-C , 26-H ) :   0.9619 B( 25-C , 27-H ) :   0.9513 B( 25-C , 28-C ) :   1.0880
B( 28-C , 29-H ) :   0.9748 B( 28-C , 30-H ) :   0.9710 B( 28-C , 31-H ) :   0.9767

Dispersion correction           -0.014671642
FINAL SINGLE POINT ENERGY     -1339.875490879693

DIPOLE MOMENT
-------------
                                X             Y             Z
Electronic contribution:     18.25045     -15.97017      21.31656
Nuclear contribution   :    -18.78498      16.14753     -21.79642
                        -----------------------------------------
Total Dipole Moment    :     -0.53453       0.17736      -0.47986
                        -----------------------------------------
Magnitude (a.u.)       :      0.73989
Magnitude (Debye)      :      1.88066

Rotational constants in cm-1:     0.016576     0.010730     0.006908
Rotational constants in MHz :   496.926074   321.674792   207.092515

                             ****ORCA TERMINATED NORMALLY****
TOTAL RUN TIME: 0 days 0 hours 0 minutes 36 seconds 366 msec
