                         Program Version 4.2.1 -  RELEASE  -
|  1> ! wB97X-D3 SP def2-SVP
|  2> %pal
|  3> nprocs 16
|  4> end
|  5>
|  6> * xyz 0 1
|  7> S 	 0.485947 	 29.0229 	 55.8082
|  8> C 	 2.05686 	 28.2955 	 55.8581
|  9> C 	 2.62938 	 28.3894 	 54.6015
| 10> C 	 1.80473 	 29.0697 	 53.6993
| 11> C 	 0.546335 	 29.3628 	 54.1662
| 12> H 	 2.0559 	 29.4332 	 52.7505
| 13> C 	 3.98681 	 27.8312 	 54.2974
| 14> H 	 4.52213 	 27.7785 	 55.2711
| 15> H 	 4.55713 	 28.5444 	 53.7505
| 16> C 	 3.96241 	 26.5593 	 53.5131
| 17> H 	 4.98624 	 26.2535 	 53.5624
| 18> H 	 3.41986 	 25.7643 	 54.0223
| 19> C 	 3.50957 	 26.7304 	 52.048
| 20> H 	 2.4549 	 26.4816 	 51.9721
| 21> H 	 3.65338 	 27.7325 	 51.7375
| 22> H 	 3.97395 	 26.0308 	 51.3592
| 23> S 	 -1.46481 	 28.7918 	 52.3753
| 24> C 	 -2.3336 	 30.1945 	 51.7554
| 25> C 	 -1.98777 	 31.4096 	 52.288
| 26> C 	 -0.943556 	 31.2458 	 53.2621
| 27> C 	 -0.566636 	 29.9036 	 53.393
| 28> H 	 -2.4406 	 32.3564 	 51.9616
| 29> C 	 -0.353722 	 32.5074 	 53.9337
| 30> H 	 -0.280031 	 33.1644 	 53.094
| 31> H 	 0.653932 	 32.2494 	 54.248
| 32> C 	 -1.24372 	 33.2601 	 54.944
| 33> H 	 -2.14155 	 33.6018 	 54.3818
| 34> H 	 -0.913023 	 34.1985 	 55.3721
| 35> C 	 -1.7021 	 32.4975 	 56.1515
| 36> H 	 -2.36254 	 33.0552 	 56.7948
| 37> H 	 -0.8259 	 32.3436 	 56.8775
| 38> H 	 -2.27484 	 31.615 	 55.8894
| 39> H 	 2.57047 	 27.9297 	 56.7835
| 40> H 	 -2.77222 	 30.2665 	 50.7755
| 41> *
| 42>
| 43>                          ****END OF INPUT****

CARTESIAN COORDINATES (ANGSTROEM)
---------------------------------
  S      0.485947   29.022900   55.808200
  C      2.056860   28.295500   55.858100
  C      2.629380   28.389400   54.601500
  C      1.804730   29.069700   53.699300
  C      0.546335   29.362800   54.166200
  H      2.055900   29.433200   52.750500
  C      3.986810   27.831200   54.297400
  H      4.522130   27.778500   55.271100
  H      4.557130   28.544400   53.750500
  C      3.962410   26.559300   53.513100
  H      4.986240   26.253500   53.562400
  H      3.419860   25.764300   54.022300
  C      3.509570   26.730400   52.048000
  H      2.454900   26.481600   51.972100
  H      3.653380   27.732500   51.737500
  H      3.973950   26.030800   51.359200
  S     -1.464810   28.791800   52.375300
  C     -2.333600   30.194500   51.755400
  C     -1.987770   31.409600   52.288000
  C     -0.943556   31.245800   53.262100
  C     -0.566636   29.903600   53.393000
  H     -2.440600   32.356400   51.961600
  C     -0.353722   32.507400   53.933700
  H     -0.280031   33.164400   53.094000
  H      0.653932   32.249400   54.248000
  C     -1.243720   33.260100   54.944000
  H     -2.141550   33.601800   54.381800
  H     -0.913023   34.198500   55.372100
  C     -1.702100   32.497500   56.151500
  H     -2.362540   33.055200   56.794800
  H     -0.825900   32.343600   56.877500
  H     -2.274840   31.615000   55.889400
  H      2.570470   27.929700   56.783500
  H     -2.772220   30.266500   50.775500

 Total Charge           Charge          ....    0
 Multiplicity           Mult            ....    1
 Number of Electrons    NEL             ....  134
 Basis Dimension        Dim             ....  322

ORBITAL ENERGIES
----------------

  NO   OCC          E(Eh)            E(eV)
   0   2.0000     -88.970677     -2421.0152
   1   2.0000     -88.960656     -2420.7425
   2   2.0000     -10.327076      -281.0140
   3   2.0000     -10.316439      -280.7246
   4   2.0000     -10.313385      -280.6415
   5   2.0000     -10.311239      -280.5831
   6   2.0000     -10.307318      -280.4764
   7   2.0000     -10.295707      -280.1604
   8   2.0000     -10.292993      -280.0866
   9   2.0000     -10.291972      -280.0588
  10   2.0000     -10.286791      -279.9178
  11   2.0000     -10.285015      -279.8695
  12   2.0000     -10.281096      -279.7629
  13   2.0000     -10.278612      -279.6952
  14   2.0000     -10.271886      -279.5122
  15   2.0000     -10.271714      -279.5076
  16   2.0000      -8.085001      -220.0041
  17   2.0000      -8.076868      -219.7827
  18   2.0000      -6.043426      -164.4500
  19   2.0000      -6.039776      -164.3507
  20   2.0000      -6.035653      -164.2385
  21   2.0000      -6.035114      -164.2238
  22   2.0000      -6.030952      -164.1105
  23   2.0000      -6.028011      -164.0305
  24   2.0000      -1.012843       -27.5609
  25   2.0000      -0.986898       -26.8548
  26   2.0000      -0.918398       -24.9909
  27   2.0000      -0.906849       -24.6766
  28   2.0000      -0.869027       -23.6474
  29   2.0000      -0.851175       -23.1616
  30   2.0000      -0.844525       -22.9807
  31   2.0000      -0.815942       -22.2029
  32   2.0000      -0.788721       -21.4622
  33   2.0000      -0.772436       -21.0191
  34   2.0000      -0.705400       -19.1949
  35   2.0000      -0.699341       -19.0300
  36   2.0000      -0.687871       -18.7179
  37   2.0000      -0.658793       -17.9267
  38   2.0000      -0.645682       -17.5699
  39   2.0000      -0.614138       -16.7115
  40   2.0000      -0.588340       -16.0095
  41   2.0000      -0.576037       -15.6748
  42   2.0000      -0.555847       -15.1254
  43   2.0000      -0.551859       -15.0168
  44   2.0000      -0.546842       -14.8803
  45   2.0000      -0.539068       -14.6688
  46   2.0000      -0.513707       -13.9787
  47   2.0000      -0.510889       -13.9020
  48   2.0000      -0.497933       -13.5494
  49   2.0000      -0.496275       -13.5043
  50   2.0000      -0.488930       -13.3045
  51   2.0000      -0.479588       -13.0502
  52   2.0000      -0.471736       -12.8366
  53   2.0000      -0.465345       -12.6627
  54   2.0000      -0.453877       -12.3506
  55   2.0000      -0.449625       -12.2349
  56   2.0000      -0.445347       -12.1185
  57   2.0000      -0.438755       -11.9391
  58   2.0000      -0.435298       -11.8451
  59   2.0000      -0.422123       -11.4866
  60   2.0000      -0.418667       -11.3925
  61   2.0000      -0.407786       -11.0964
  62   2.0000      -0.406322       -11.0566
  63   2.0000      -0.338926        -9.2226
  64   2.0000      -0.327170        -8.9028
  65   2.0000      -0.317200        -8.6314
  66   2.0000      -0.310688        -8.4543
  67   0.0000       0.041681         1.1342
  68   0.0000       0.061244         1.6665
  69   0.0000       0.109102         2.9688
  70   0.0000       0.119451         3.2504
  71   0.0000       0.128322         3.4918

MULLIKEN ATOMIC CHARGES
-----------------------
   0 S :    0.130337
   1 C :   -0.155333
   2 C :   -0.080744
   3 C :    0.059371
   4 C :   -0.198149
   5 H :   -0.017756
   6 C :    0.061827
   7 H :    0.017106
   8 H :    0.013496
   9 C :   -0.036565
  10 H :    0.018261
  11 H :    0.024893
  12 C :   -0.027695
  13 H :    0.036886
  14 H :    0.019105
  15 H :    0.032022
  16 S :    0.130019
  17 C :   -0.075799
  18 C :   -0.064148
  19 C :   -0.040795
  20 C :   -0.188840
  21 H :    0.033813
  22 C :    0.128624
  23 H :    0.018284
  24 H :    0.028387
  25 C :   -0.064877
  26 H :    0.016104
  27 H :    0.025566
  28 C :   -0.062687
  29 H :    0.016929
  30 H :    0.036829
  31 H :    0.042360
  32 H :    0.066062
  33 H :    0.057106
Sum of atomic charges:   -0.0000000

LOEWDIN ATOMIC CHARGES
----------------------
   0 S :    0.452153
   1 C :   -0.216851
   2 C :   -0.067434
   3 C :   -0.062261
   4 C :   -0.229666
   5 H :    0.020594
   6 C :   -0.031783
   7 H :    0.033232
   8 H :    0.024780
   9 C :   -0.036711
  10 H :    0.021484
  11 H :    0.024605
  12 C :   -0.059120
  13 H :    0.030167
  14 H :    0.016488
  15 H :    0.028087
  16 S :    0.407376
  17 C :   -0.187629
  18 C :   -0.068614
  19 C :   -0.046447
  20 C :   -0.203755
  21 H :    0.037328
  22 C :   -0.023741
  23 H :    0.031639
  24 H :    0.028609
  25 C :   -0.047773
  26 H :    0.024407
  27 H :    0.027274
  28 C :   -0.073548
  29 H :    0.021742
  30 H :    0.033213
  31 H :    0.023803
  32 H :    0.039343
  33 H :    0.029008

  Mayer bond orders larger than 0.100000
B(  0-S ,  1-C ) :   1.1642 B(  0-S ,  4-C ) :   1.1958 B(  1-C ,  2-C ) :   1.5628
B(  1-C ,  4-C ) :   0.1033 B(  1-C , 32-H ) :   0.9661 B(  2-C ,  3-C ) :   1.2776
B(  2-C ,  6-C ) :   1.0269 B(  3-C ,  4-C ) :   1.5424 B(  3-C ,  5-H ) :   1.0091
B(  4-C , 20-C ) :   1.0014 B(  6-C ,  7-H ) :   0.9364 B(  6-C ,  8-H ) :   0.9348
B(  6-C ,  9-C ) :   1.0831 B(  9-C , 10-H ) :   0.9529 B(  9-C , 11-H ) :   0.9541
B(  9-C , 12-C ) :   1.0702 B( 12-C , 13-H ) :   0.9725 B( 12-C , 14-H ) :   0.9764
B( 12-C , 15-H ) :   0.9725 B( 16-S , 17-C ) :   1.1421 B( 16-S , 20-C ) :   1.1429
B( 17-C , 18-C ) :   1.6547 B( 17-C , 33-H ) :   0.9536 B( 18-C , 19-C ) :   1.2228
B( 18-C , 21-H ) :   0.9803 B( 19-C , 20-C ) :   1.6192 B( 19-C , 22-C ) :   1.0264
B( 22-C , 23-H ) :   0.9324 B( 22-C , 24-H ) :   0.9362 B( 22-C , 25-C ) :   1.0603
B( 25-C , 26-H ) :   0.9499 B( 25-C , 27-H ) :   0.9558 B( 25-C , 28-C ) :   1.0938
B( 28-C , 29-H ) :   0.9691 B( 28-C , 30-H ) :   0.9708 B( 28-C , 31-H ) :   0.9739

Dispersion correction           -0.015247114
FINAL SINGLE POINT ENERGY     -1339.868599564935

DIPOLE MOMENT
-------------
                                X             Y             Z
Electronic contribution:    -10.57035      -5.56505      -0.30517
Nuclear contribution   :     10.97452       5.94085       0.07001
                        -----------------------------------------
Total Dipole Moment    :      0.40418       0.37580      -0.23515
                        -----------------------------------------
Magnitude (a.u.)       :      0.59990
Magnitude (Debye)      :      1.52482

Rotational constants in cm-1:     0.021351     0.008879     0.007218
Rotational constants in MHz :   640.094118   266.174804   216.399776

                             ****ORCA TERMINATED NORMALLY****
TOTAL RUN TIME: 0 days 0 hours 0 minutes 35 seconds 430 msec
