                         Program Version 4.2.1 -  RELEASE  -
|  1> ! wB97X-D3 SP def2-SVP
|  2> %pal
|  3> nprocs 16
|  4> end
|  5>
|  6> * xyz 0 1
|  7> S 	 -40.3559 	 -1.05229 	 97.6755
|  8> C 	 -40.3227 	 -2.09714 	 96.2308
|  9> C 	 -40.282 	 -3.45348 	 96.6365
| 10> C 	 -40.3189 	 -3.57815 	 98.0355
| 11> C 	 -40.3385 	 -2.3884 	 98.7326
| 12> H 	 -40.3126 	 -4.45446 	 98.6463
| 13> C 	 -40.1133 	 -4.67958 	 95.8356
| 14> H 	 -40.1753 	 -5.61207 	 96.4498
| 15> H 	 -39.016 	 -4.65442 	 95.5424
| 16> C 	 -40.9689 	 -4.74575 	 94.5789
| 17> H 	 -41.9566 	 -4.79859 	 94.9998
| 18> H 	 -40.8788 	 -3.80129 	 94.115
| 19> C 	 -40.759 	 -5.93484 	 93.6484
| 20> H 	 -41.1133 	 -6.78882 	 94.1466
| 21> H 	 -41.3719 	 -5.82196 	 92.7601
| 22> H 	 -39.6885 	 -5.98032 	 93.481
| 23> S 	 -41.2321 	 -0.970868 	 100.834
| 24> C 	 -40.6062 	 -1.29503 	 102.382
| 25> C 	 -39.5561 	 -2.11681 	 102.338
| 26> C 	 -39.3078 	 -2.7056 	 101.101
| 27> C 	 -40.2044 	 -2.24507 	 100.178
| 28> H 	 -38.9923 	 -2.18066 	 103.298
| 29> C 	 -38.1638 	 -3.73289 	 100.811
| 30> H 	 -37.2948 	 -3.48802 	 101.416
| 31> H 	 -37.892 	 -3.64201 	 99.749
| 32> C 	 -38.536 	 -5.20123 	 100.983
| 33> H 	 -39.2872 	 -5.43998 	 100.267
| 34> H 	 -39.0153 	 -5.34389 	 101.985
| 35> C 	 -37.2215 	 -6.03919 	 100.999
| 36> H 	 -36.4298 	 -5.67537 	 100.308
| 37> H 	 -37.3916 	 -7.07709 	 100.703
| 38> H 	 -36.738 	 -6.14461 	 101.999
| 39> H 	 -40.2095 	 -1.7869 	 95.1831
| 40> H 	 -40.8199 	 -0.7092 	 103.281
| 41> *
| 42>
| 43>                          ****END OF INPUT****

CARTESIAN COORDINATES (ANGSTROEM)
---------------------------------
  S    -40.355900   -1.052290   97.675500
  C    -40.322700   -2.097140   96.230800
  C    -40.282000   -3.453480   96.636500
  C    -40.318900   -3.578150   98.035500
  C    -40.338500   -2.388400   98.732600
  H    -40.312600   -4.454460   98.646300
  C    -40.113300   -4.679580   95.835600
  H    -40.175300   -5.612070   96.449800
  H    -39.016000   -4.654420   95.542400
  C    -40.968900   -4.745750   94.578900
  H    -41.956600   -4.798590   94.999800
  H    -40.878800   -3.801290   94.115000
  C    -40.759000   -5.934840   93.648400
  H    -41.113300   -6.788820   94.146600
  H    -41.371900   -5.821960   92.760100
  H    -39.688500   -5.980320   93.481000
  S    -41.232100   -0.970868  100.834000
  C    -40.606200   -1.295030  102.382000
  C    -39.556100   -2.116810  102.338000
  C    -39.307800   -2.705600  101.101000
  C    -40.204400   -2.245070  100.178000
  H    -38.992300   -2.180660  103.298000
  C    -38.163800   -3.732890  100.811000
  H    -37.294800   -3.488020  101.416000
  H    -37.892000   -3.642010   99.749000
  C    -38.536000   -5.201230  100.983000
  H    -39.287200   -5.439980  100.267000
  H    -39.015300   -5.343890  101.985000
  C    -37.221500   -6.039190  100.999000
  H    -36.429800   -5.675370  100.308000
  H    -37.391600   -7.077090  100.703000
  H    -36.738000   -6.144610  101.999000
  H    -40.209500   -1.786900   95.183100
  H    -40.819900   -0.709200  103.281000

 Total Charge           Charge          ....    0
 Multiplicity           Mult            ....    1
 Number of Electrons    NEL             ....  134
 Basis Dimension        Dim             ....  322

ORBITAL ENERGIES
----------------

  NO   OCC          E(Eh)            E(eV)
   0   2.0000     -88.969282     -2420.9772
   1   2.0000     -88.962095     -2420.7817
   2   2.0000     -10.324439      -280.9423
   3   2.0000     -10.323172      -280.9078
   4   2.0000     -10.318795      -280.7887
   5   2.0000     -10.306581      -280.4563
   6   2.0000     -10.303188      -280.3640
   7   2.0000     -10.301717      -280.3240
   8   2.0000     -10.294794      -280.1356
   9   2.0000     -10.294091      -280.1165
  10   2.0000     -10.290680      -280.0236
  11   2.0000     -10.287003      -279.9236
  12   2.0000     -10.286306      -279.9046
  13   2.0000     -10.284607      -279.8584
  14   2.0000     -10.277415      -279.6627
  15   2.0000     -10.274523      -279.5840
  16   2.0000      -8.083826      -219.9721
  17   2.0000      -8.078084      -219.8158
  18   2.0000      -6.042353      -164.4208
  19   2.0000      -6.038249      -164.3091
  20   2.0000      -6.036410      -164.2591
  21   2.0000      -6.034684      -164.2121
  22   2.0000      -6.032581      -164.1549
  23   2.0000      -6.028799      -164.0520
  24   2.0000      -1.016478       -27.6598
  25   2.0000      -0.990894       -26.9636
  26   2.0000      -0.919689       -25.0260
  27   2.0000      -0.908952       -24.7338
  28   2.0000      -0.871507       -23.7149
  29   2.0000      -0.855222       -23.2718
  30   2.0000      -0.849409       -23.1136
  31   2.0000      -0.814123       -22.1534
  32   2.0000      -0.783532       -21.3210
  33   2.0000      -0.773638       -21.0518
  34   2.0000      -0.712102       -19.3773
  35   2.0000      -0.703328       -19.1385
  36   2.0000      -0.693450       -18.8697
  37   2.0000      -0.660619       -17.9764
  38   2.0000      -0.639197       -17.3934
  39   2.0000      -0.615538       -16.7496
  40   2.0000      -0.598134       -16.2761
  41   2.0000      -0.577418       -15.7124
  42   2.0000      -0.567230       -15.4351
  43   2.0000      -0.561006       -15.2657
  44   2.0000      -0.525923       -14.3111
  45   2.0000      -0.524067       -14.2606
  46   2.0000      -0.517778       -14.0895
  47   2.0000      -0.514276       -13.9942
  48   2.0000      -0.503627       -13.7044
  49   2.0000      -0.502302       -13.6683
  50   2.0000      -0.493797       -13.4369
  51   2.0000      -0.483129       -13.1466
  52   2.0000      -0.473158       -12.8753
  53   2.0000      -0.464617       -12.6429
  54   2.0000      -0.460252       -12.5241
  55   2.0000      -0.449977       -12.2445
  56   2.0000      -0.449010       -12.2182
  57   2.0000      -0.439587       -11.9618
  58   2.0000      -0.433199       -11.7880
  59   2.0000      -0.429083       -11.6759
  60   2.0000      -0.421943       -11.4816
  61   2.0000      -0.417215       -11.3530
  62   2.0000      -0.412368       -11.2211
  63   2.0000      -0.347373        -9.4525
  64   2.0000      -0.335541        -9.1305
  65   2.0000      -0.331065        -9.0087
  66   2.0000      -0.289730        -7.8840
  67   0.0000       0.031299         0.8517
  68   0.0000       0.070794         1.9264
  69   0.0000       0.103864         2.8263
  70   0.0000       0.127661         3.4738
  71   0.0000       0.137985         3.7548

MULLIKEN ATOMIC CHARGES
-----------------------
   0 S :    0.124370
   1 C :   -0.143426
   2 C :   -0.055161
   3 C :    0.004565
   4 C :   -0.115524
   5 H :   -0.018864
   6 C :    0.031864
   7 H :    0.026239
   8 H :    0.039736
   9 C :   -0.093046
  10 H :    0.024193
  11 H :    0.014508
  12 C :    0.015913
  13 H :    0.017702
  14 H :    0.037955
  15 H :    0.028398
  16 S :    0.096544
  17 C :   -0.076004
  18 C :   -0.077073
  19 C :    0.010879
  20 C :   -0.195018
  21 H :    0.026843
  22 C :    0.056209
  23 H :    0.024736
  24 H :    0.034642
  25 C :   -0.046195
  26 H :    0.020566
  27 H :    0.034472
  28 C :   -0.074274
  29 H :    0.036736
  30 H :    0.030459
  31 H :    0.043870
  32 H :    0.058468
  33 H :    0.054719
Sum of atomic charges:   -0.0000000

LOEWDIN ATOMIC CHARGES
----------------------
   0 S :    0.422681
   1 C :   -0.209758
   2 C :   -0.056624
   3 C :   -0.072663
   4 C :   -0.207510
   5 H :    0.023999
   6 C :   -0.039856
   7 H :    0.030877
   8 H :    0.038542
   9 C :   -0.040151
  10 H :    0.024404
  11 H :    0.014653
  12 C :   -0.052824
  13 H :    0.020112
  14 H :    0.030835
  15 H :    0.025528
  16 S :    0.411819
  17 C :   -0.200128
  18 C :   -0.083441
  19 C :   -0.055579
  20 C :   -0.185509
  21 H :    0.040204
  22 C :   -0.024384
  23 H :    0.029018
  24 H :    0.032756
  25 C :   -0.038422
  26 H :    0.015003
  27 H :    0.030104
  28 C :   -0.074543
  29 H :    0.027201
  30 H :    0.025660
  31 H :    0.032433
  32 H :    0.032298
  33 H :    0.033265

  Mayer bond orders larger than 0.100000
B(  0-S ,  1-C ) :   1.1311 B(  0-S ,  4-C ) :   1.1766 B(  1-C ,  2-C ) :   1.5661
B(  1-C ,  4-C ) :   0.1026 B(  1-C , 32-H ) :   0.9670 B(  2-C ,  3-C ) :   1.2552
B(  2-C ,  6-C ) :   1.0274 B(  3-C ,  4-C ) :   1.5479 B(  3-C ,  5-H ) :   1.0101
B(  4-C , 20-C ) :   1.0263 B(  6-C ,  7-H ) :   0.9486 B(  6-C ,  8-H ) :   0.9203
B(  6-C ,  9-C ) :   1.0529 B(  9-C , 10-H ) :   0.9578 B(  9-C , 11-H ) :   0.9567
B(  9-C , 12-C ) :   1.0846 B( 12-C , 13-H ) :   0.9724 B( 12-C , 14-H ) :   0.9718
B( 12-C , 15-H ) :   0.9755 B( 16-S , 17-C ) :   1.1516 B( 16-S , 20-C ) :   1.1452
B( 17-C , 18-C ) :   1.6441 B( 17-C , 33-H ) :   0.9604 B( 18-C , 19-C ) :   1.2275
B( 18-C , 21-H ) :   0.9866 B( 19-C , 20-C ) :   1.6029 B( 19-C , 22-C ) :   1.0290
B( 22-C , 23-H ) :   0.9434 B( 22-C , 24-H ) :   0.9264 B( 22-C , 25-C ) :   1.0688
B( 25-C , 26-H ) :   0.9564 B( 25-C , 27-H ) :   0.9549 B( 25-C , 28-C ) :   1.0622
B( 28-C , 29-H ) :   0.9755 B( 28-C , 30-H ) :   0.9745 B( 28-C , 31-H ) :   0.9768

Dispersion correction           -0.013800558
FINAL SINGLE POINT ENERGY     -1339.875807226892

DIPOLE MOMENT
-------------
                                X             Y             Z
Electronic contribution:    -10.30600      27.11326      10.20135
Nuclear contribution   :     10.74037     -27.64440     -10.17824
                        -----------------------------------------
Total Dipole Moment    :      0.43437      -0.53114       0.02311
                        -----------------------------------------
Magnitude (a.u.)       :      0.68653
Magnitude (Debye)      :      1.74502

Rotational constants in cm-1:     0.018487     0.008449     0.006178
Rotational constants in MHz :   554.220591   253.294146   185.202262

                             ****ORCA TERMINATED NORMALLY****
TOTAL RUN TIME: 0 days 0 hours 0 minutes 28 seconds 41 msec
