                         Program Version 4.2.1 -  RELEASE  -
|  1> ! wB97X-D3 SP def2-SVP
|  2> %pal
|  3> nprocs 16
|  4> end
|  5>
|  6> * xyz 0 1
|  7> S 	 54.3103 	 18.341 	 79.0665
|  8> C 	 55.5404 	 18.0586 	 80.206
|  9> C 	 55.2064 	 18.6968 	 81.4432
| 10> C 	 54.0909 	 19.6129 	 81.3167
| 11> C 	 53.3638 	 19.5077 	 80.1068
| 12> H 	 53.8055 	 20.2407 	 82.134
| 13> C 	 55.991 	 18.5883 	 82.7196
| 14> H 	 56.1902 	 17.5366 	 82.9946
| 15> H 	 55.3972 	 18.9649 	 83.5167
| 16> C 	 57.342 	 19.2684 	 82.5349
| 17> H 	 57.9381 	 18.8218 	 83.2913
| 18> H 	 57.8892 	 18.9758 	 81.6174
| 19> C 	 57.3507 	 20.8074 	 82.7207
| 20> H 	 56.4786 	 21.1425 	 82.1805
| 21> H 	 57.2405 	 21.0352 	 83.8056
| 22> H 	 58.263 	 21.2563 	 82.2857
| 23> S 	 50.7287 	 19.0568 	 79.2853
| 24> C 	 49.7038 	 20.4303 	 78.9955
| 25> C 	 50.3388 	 21.632 	 79.2157
| 26> C 	 51.7494 	 21.4735 	 79.4329
| 27> C 	 52.087 	 20.162 	 79.6487
| 28> H 	 49.8199 	 22.6037 	 79.1246
| 29> C 	 52.6962 	 22.6868 	 79.7811
| 30> H 	 53.182 	 23.0684 	 78.8149
| 31> H 	 53.4228 	 22.2616 	 80.4829
| 32> C 	 52.1324 	 23.7769 	 80.634
| 33> H 	 51.7437 	 23.1659 	 81.4912
| 34> H 	 51.25 	 24.244 	 80.1473
| 35> C 	 53.116 	 24.8992 	 81.1352
| 36> H 	 53.8707 	 24.4115 	 81.7624
| 37> H 	 52.4763 	 25.6095 	 81.6887
| 38> H 	 53.6603 	 25.3438 	 80.3005
| 39> H 	 56.3734 	 17.3906 	 80.1106
| 40> H 	 48.6585 	 20.3583 	 78.5504
| 41> *
| 42>
| 43>                          ****END OF INPUT****

CARTESIAN COORDINATES (ANGSTROEM)
---------------------------------
  S     54.310300   18.341000   79.066500
  C     55.540400   18.058600   80.206000
  C     55.206400   18.696800   81.443200
  C     54.090900   19.612900   81.316700
  C     53.363800   19.507700   80.106800
  H     53.805500   20.240700   82.134000
  C     55.991000   18.588300   82.719600
  H     56.190200   17.536600   82.994600
  H     55.397200   18.964900   83.516700
  C     57.342000   19.268400   82.534900
  H     57.938100   18.821800   83.291300
  H     57.889200   18.975800   81.617400
  C     57.350700   20.807400   82.720700
  H     56.478600   21.142500   82.180500
  H     57.240500   21.035200   83.805600
  H     58.263000   21.256300   82.285700
  S     50.728700   19.056800   79.285300
  C     49.703800   20.430300   78.995500
  C     50.338800   21.632000   79.215700
  C     51.749400   21.473500   79.432900
  C     52.087000   20.162000   79.648700
  H     49.819900   22.603700   79.124600
  C     52.696200   22.686800   79.781100
  H     53.182000   23.068400   78.814900
  H     53.422800   22.261600   80.482900
  C     52.132400   23.776900   80.634000
  H     51.743700   23.165900   81.491200
  H     51.250000   24.244000   80.147300
  C     53.116000   24.899200   81.135200
  H     53.870700   24.411500   81.762400
  H     52.476300   25.609500   81.688700
  H     53.660300   25.343800   80.300500
  H     56.373400   17.390600   80.110600
  H     48.658500   20.358300   78.550400

 Total Charge           Charge          ....    0
 Multiplicity           Mult            ....    1
 Number of Electrons    NEL             ....  134
 Basis Dimension        Dim             ....  322

ORBITAL ENERGIES
----------------

  NO   OCC          E(Eh)            E(eV)
   0   2.0000     -88.966917     -2420.9129
   1   2.0000     -88.966767     -2420.9088
   2   2.0000     -10.341955      -281.4189
   3   2.0000     -10.334016      -281.2029
   4   2.0000     -10.322866      -280.8995
   5   2.0000     -10.316713      -280.7320
   6   2.0000     -10.308531      -280.5094
   7   2.0000     -10.303783      -280.3802
   8   2.0000     -10.301669      -280.3227
   9   2.0000     -10.297405      -280.2066
  10   2.0000     -10.297140      -280.1994
  11   2.0000     -10.290786      -280.0265
  12   2.0000     -10.290214      -280.0110
  13   2.0000     -10.287395      -279.9343
  14   2.0000     -10.282842      -279.8103
  15   2.0000     -10.280624      -279.7500
  16   2.0000      -8.081281      -219.9028
  17   2.0000      -8.080931      -219.8933
  18   2.0000      -6.039830      -164.3521
  19   2.0000      -6.039449      -164.3418
  20   2.0000      -6.035888      -164.2449
  21   2.0000      -6.035229      -164.2269
  22   2.0000      -6.032008      -164.1393
  23   2.0000      -6.031924      -164.1370
  24   2.0000      -0.998698       -27.1759
  25   2.0000      -0.979723       -26.6596
  26   2.0000      -0.912414       -24.8281
  27   2.0000      -0.907244       -24.6874
  28   2.0000      -0.862230       -23.4625
  29   2.0000      -0.846854       -23.0441
  30   2.0000      -0.842774       -22.9331
  31   2.0000      -0.811912       -22.0933
  32   2.0000      -0.782760       -21.3000
  33   2.0000      -0.769225       -20.9317
  34   2.0000      -0.703435       -19.1414
  35   2.0000      -0.694879       -18.9086
  36   2.0000      -0.687304       -18.7025
  37   2.0000      -0.651892       -17.7389
  38   2.0000      -0.641061       -17.4442
  39   2.0000      -0.614537       -16.7224
  40   2.0000      -0.593666       -16.1545
  41   2.0000      -0.573148       -15.5962
  42   2.0000      -0.570291       -15.5184
  43   2.0000      -0.549167       -14.9436
  44   2.0000      -0.534256       -14.5379
  45   2.0000      -0.524134       -14.2624
  46   2.0000      -0.518425       -14.1071
  47   2.0000      -0.511210       -13.9107
  48   2.0000      -0.504055       -13.7160
  49   2.0000      -0.493861       -13.4386
  50   2.0000      -0.486531       -13.2392
  51   2.0000      -0.477401       -12.9907
  52   2.0000      -0.470269       -12.7967
  53   2.0000      -0.468398       -12.7457
  54   2.0000      -0.462337       -12.5808
  55   2.0000      -0.453222       -12.3328
  56   2.0000      -0.442570       -12.0430
  57   2.0000      -0.434122       -11.8131
  58   2.0000      -0.428605       -11.6629
  59   2.0000      -0.420780       -11.4500
  60   2.0000      -0.417513       -11.3611
  61   2.0000      -0.412784       -11.2324
  62   2.0000      -0.408093       -11.1048
  63   2.0000      -0.341556        -9.2942
  64   2.0000      -0.335134        -9.1195
  65   2.0000      -0.323096        -8.7919
  66   2.0000      -0.294647        -8.0178
  67   0.0000       0.031085         0.8459
  68   0.0000       0.057228         1.5572
  69   0.0000       0.113923         3.1000
  70   0.0000       0.114769         3.1230
  71   0.0000       0.125882         3.4254

MULLIKEN ATOMIC CHARGES
-----------------------
   0 S :    0.116401
   1 C :   -0.097329
   2 C :   -0.145529
   3 C :    0.060169
   4 C :   -0.152448
   5 H :    0.008940
   6 C :    0.070749
   7 H :    0.034095
   8 H :    0.013381
   9 C :   -0.080190
  10 H :    0.010015
  11 H :    0.030839
  12 C :   -0.040965
  13 H :    0.026056
  14 H :    0.037594
  15 H :    0.044777
  16 S :    0.112724
  17 C :   -0.111527
  18 C :   -0.049696
  19 C :   -0.023175
  20 C :   -0.179537
  21 H :    0.034797
  22 C :    0.064348
  23 H :    0.050007
  24 H :    0.019199
  25 C :   -0.149215
  26 H :    0.036342
  27 H :    0.031001
  28 C :   -0.028892
  29 H :    0.033334
  30 H :    0.050946
  31 H :    0.038345
  32 H :    0.050917
  33 H :    0.083524
Sum of atomic charges:   -0.0000000

LOEWDIN ATOMIC CHARGES
----------------------
   0 S :    0.409725
   1 C :   -0.211821
   2 C :   -0.064146
   3 C :   -0.060906
   4 C :   -0.183290
   5 H :    0.025293
   6 C :   -0.032652
   7 H :    0.037355
   8 H :    0.025740
   9 C :   -0.041826
  10 H :    0.013932
  11 H :    0.026405
  12 C :   -0.064102
  13 H :    0.021245
  14 H :    0.028804
  15 H :    0.031026
  16 S :    0.397308
  17 C :   -0.195880
  18 C :   -0.080083
  19 C :   -0.052709
  20 C :   -0.190738
  21 H :    0.037073
  22 C :   -0.036968
  23 H :    0.036596
  24 H :    0.031192
  25 C :   -0.054534
  26 H :    0.030202
  27 H :    0.016410
  28 C :   -0.059348
  29 H :    0.025848
  30 H :    0.034461
  31 H :    0.026798
  32 H :    0.028092
  33 H :    0.045495

  Mayer bond orders larger than 0.100000
B(  0-S ,  1-C ) :   1.1756 B(  0-S ,  4-C ) :   1.1533 B(  1-C ,  2-C ) :   1.5484
B(  1-C ,  4-C ) :   0.1131 B(  1-C , 32-H ) :   0.9687 B(  2-C ,  3-C ) :   1.2859
B(  2-C ,  6-C ) :   1.0414 B(  3-C ,  4-C ) :   1.5388 B(  3-C ,  5-H ) :   0.9862
B(  4-C , 20-C ) :   1.0164 B(  6-C ,  7-H ) :   0.9375 B(  6-C ,  8-H ) :   0.9430
B(  6-C ,  9-C ) :   1.0656 B(  9-C , 10-H ) :   0.9557 B(  9-C , 11-H ) :   0.9598
B(  9-C , 12-C ) :   1.0666 B( 12-C , 13-H ) :   0.9789 B( 12-C , 14-H ) :   0.9769
B( 12-C , 15-H ) :   0.9748 B( 16-S , 17-C ) :   1.1540 B( 16-S , 20-C ) :   1.1347
B( 17-C , 18-C ) :   1.6259 B( 17-C , 33-H ) :   0.9541 B( 18-C , 19-C ) :   1.2270
B( 18-C , 21-H ) :   0.9812 B( 19-C , 20-C ) :   1.6274 B( 19-C , 22-C ) :   1.0226
B( 22-C , 23-H ) :   0.9264 B( 22-C , 24-H ) :   0.9489 B( 22-C , 25-C ) :   1.0637
B( 25-C , 26-H ) :   0.9579 B( 25-C , 27-H ) :   0.9493 B( 25-C , 28-C ) :   1.0740
B( 28-C , 29-H ) :   0.9751 B( 28-C , 30-H ) :   0.9747 B( 28-C , 31-H ) :   0.9755

Dispersion correction           -0.014093975
FINAL SINGLE POINT ENERGY     -1339.866822432209

DIPOLE MOMENT
-------------
                                X             Y             Z
Electronic contribution:    -15.44227     -20.55280     -16.32507
Nuclear contribution   :     15.66305      20.93879      16.76586
                        -----------------------------------------
Total Dipole Moment    :      0.22078       0.38599       0.44079
                        -----------------------------------------
Magnitude (a.u.)       :      0.62612
Magnitude (Debye)      :      1.59148

Rotational constants in cm-1:     0.016658     0.009239     0.006446
Rotational constants in MHz :   499.408564   276.986853   193.231807

                             ****ORCA TERMINATED NORMALLY****
TOTAL RUN TIME: 0 days 0 hours 0 minutes 29 seconds 602 msec
