                         Program Version 4.2.1 -  RELEASE  -
|  1> ! wB97X-D3 SP def2-SVP
|  2> %pal
|  3> nprocs 16
|  4> end
|  5>
|  6> * xyz 0 1
|  7> S 	 62.1016 	 -4.36732 	 92.324
|  8> C 	 60.8304 	 -3.82006 	 93.4681
|  9> C 	 60.7156 	 -2.42691 	 93.5999
| 10> C 	 61.684 	 -1.8371 	 92.7791
| 11> C 	 62.5308 	 -2.7111 	 92.0578
| 12> H 	 61.835 	 -0.802106 	 92.6959
| 13> C 	 59.8319 	 -1.57147 	 94.4806
| 14> H 	 58.8742 	 -2.00165 	 94.6318
| 15> H 	 59.5523 	 -0.572519 	 93.9777
| 16> C 	 60.3845 	 -1.48793 	 95.9587
| 17> H 	 59.9103 	 -0.725182 	 96.6213
| 18> H 	 60.2628 	 -2.4637 	 96.4543
| 19> C 	 61.8402 	 -1.07448 	 96.1595
| 20> H 	 62.2088 	 -0.414439 	 95.4103
| 21> H 	 62.0407 	 -0.548115 	 97.0834
| 22> H 	 62.6229 	 -1.8379 	 95.9974
| 23> S 	 65.0776 	 -3.61801 	 91.3615
| 24> C 	 66.0438 	 -2.61848 	 90.4061
| 25> C 	 65.4417 	 -1.40803 	 90.0454
| 26> C 	 64.0994 	 -1.23956 	 90.5544
| 27> C 	 63.762 	 -2.32294 	 91.3486
| 28> H 	 65.8227 	 -0.774622 	 89.3356
| 29> C 	 63.2254 	 -0.049417 	 90.1671
| 30> H 	 62.1873 	 -0.403887 	 89.9597
| 31> H 	 63.4403 	 0.131011 	 89.1043
| 32> C 	 63.3478 	 1.2008 	 91.0192
| 33> H 	 64.4658 	 1.31307 	 91.1401
| 34> H 	 62.9859 	 1.12179 	 91.9971
| 35> C 	 62.7592 	 2.35311 	 90.2328
| 36> H 	 63.3542 	 2.7082 	 89.5123
| 37> H 	 62.6775 	 3.32772 	 90.7819
| 38> H 	 61.7729 	 1.99124 	 89.8074
| 39> H 	 60.0968 	 -4.51329 	 93.9686
| 40> H 	 67.0417 	 -2.81014 	 90.2034
| 41> *
| 42>
| 43>                          ****END OF INPUT****

CARTESIAN COORDINATES (ANGSTROEM)
---------------------------------
  S     62.101600   -4.367320   92.324000
  C     60.830400   -3.820060   93.468100
  C     60.715600   -2.426910   93.599900
  C     61.684000   -1.837100   92.779100
  C     62.530800   -2.711100   92.057800
  H     61.835000   -0.802106   92.695900
  C     59.831900   -1.571470   94.480600
  H     58.874200   -2.001650   94.631800
  H     59.552300   -0.572519   93.977700
  C     60.384500   -1.487930   95.958700
  H     59.910300   -0.725182   96.621300
  H     60.262800   -2.463700   96.454300
  C     61.840200   -1.074480   96.159500
  H     62.208800   -0.414439   95.410300
  H     62.040700   -0.548115   97.083400
  H     62.622900   -1.837900   95.997400
  S     65.077600   -3.618010   91.361500
  C     66.043800   -2.618480   90.406100
  C     65.441700   -1.408030   90.045400
  C     64.099400   -1.239560   90.554400
  C     63.762000   -2.322940   91.348600
  H     65.822700   -0.774622   89.335600
  C     63.225400   -0.049417   90.167100
  H     62.187300   -0.403887   89.959700
  H     63.440300    0.131011   89.104300
  C     63.347800    1.200800   91.019200
  H     64.465800    1.313070   91.140100
  H     62.985900    1.121790   91.997100
  C     62.759200    2.353110   90.232800
  H     63.354200    2.708200   89.512300
  H     62.677500    3.327720   90.781900
  H     61.772900    1.991240   89.807400
  H     60.096800   -4.513290   93.968600
  H     67.041700   -2.810140   90.203400

 Total Charge           Charge          ....    0
 Multiplicity           Mult            ....    1
 Number of Electrons    NEL             ....  134
 Basis Dimension        Dim             ....  322

ORBITAL ENERGIES
----------------

  NO   OCC          E(Eh)            E(eV)
   0   2.0000     -88.973401     -2421.0893
   1   2.0000     -88.965891     -2420.8850
   2   2.0000     -10.333749      -281.1956
   3   2.0000     -10.330369      -281.1036
   4   2.0000     -10.322348      -280.8854
   5   2.0000     -10.311662      -280.5946
   6   2.0000     -10.305733      -280.4333
   7   2.0000     -10.304475      -280.3990
   8   2.0000     -10.304262      -280.3932
   9   2.0000     -10.298182      -280.2278
  10   2.0000     -10.294604      -280.1304
  11   2.0000     -10.289498      -279.9915
  12   2.0000     -10.289307      -279.9863
  13   2.0000     -10.287302      -279.9317
  14   2.0000     -10.278129      -279.6821
  15   2.0000     -10.267532      -279.3938
  16   2.0000      -8.087222      -220.0645
  17   2.0000      -8.080715      -219.8874
  18   2.0000      -6.045664      -164.5109
  19   2.0000      -6.041978      -164.4106
  20   2.0000      -6.039124      -164.3329
  21   2.0000      -6.037998      -164.3023
  22   2.0000      -6.035302      -164.2289
  23   2.0000      -6.031501      -164.1255
  24   2.0000      -1.001337       -27.2478
  25   2.0000      -0.979663       -26.6580
  26   2.0000      -0.917601       -24.9692
  27   2.0000      -0.908120       -24.7112
  28   2.0000      -0.863775       -23.5045
  29   2.0000      -0.858671       -23.3656
  30   2.0000      -0.842961       -22.9381
  31   2.0000      -0.806894       -21.9567
  32   2.0000      -0.788851       -21.4657
  33   2.0000      -0.774973       -21.0881
  34   2.0000      -0.713943       -19.4274
  35   2.0000      -0.702496       -19.1159
  36   2.0000      -0.693789       -18.8790
  37   2.0000      -0.668561       -18.1925
  38   2.0000      -0.635559       -17.2944
  39   2.0000      -0.619314       -16.8524
  40   2.0000      -0.603600       -16.4248
  41   2.0000      -0.567057       -15.4304
  42   2.0000      -0.564817       -15.3694
  43   2.0000      -0.545895       -14.8546
  44   2.0000      -0.537576       -14.6282
  45   2.0000      -0.535245       -14.5648
  46   2.0000      -0.518560       -14.1107
  47   2.0000      -0.510464       -13.8904
  48   2.0000      -0.501201       -13.6384
  49   2.0000      -0.494037       -13.4434
  50   2.0000      -0.490045       -13.3348
  51   2.0000      -0.471077       -12.8187
  52   2.0000      -0.465415       -12.6646
  53   2.0000      -0.463474       -12.6118
  54   2.0000      -0.461408       -12.5556
  55   2.0000      -0.449098       -12.2206
  56   2.0000      -0.446338       -12.1455
  57   2.0000      -0.440622       -11.9899
  58   2.0000      -0.434170       -11.8144
  59   2.0000      -0.426664       -11.6101
  60   2.0000      -0.419009       -11.4018
  61   2.0000      -0.413026       -11.2390
  62   2.0000      -0.411322       -11.1926
  63   2.0000      -0.354350        -9.6424
  64   2.0000      -0.337917        -9.1952
  65   2.0000      -0.332318        -9.0428
  66   2.0000      -0.276765        -7.5312
  67   0.0000       0.020580         0.5600
  68   0.0000       0.068043         1.8515
  69   0.0000       0.095758         2.6057
  70   0.0000       0.122250         3.3266
  71   0.0000       0.129089         3.5127

MULLIKEN ATOMIC CHARGES
-----------------------
   0 S :    0.116624
   1 C :   -0.157650
   2 C :   -0.053183
   3 C :    0.021100
   4 C :   -0.121933
   5 H :   -0.037263
   6 C :    0.083895
   7 H :    0.016680
   8 H :    0.048813
   9 C :   -0.087107
  10 H :    0.040043
  11 H :    0.039121
  12 C :   -0.058313
  13 H :    0.003734
  14 H :    0.031348
  15 H :    0.035003
  16 S :    0.091438
  17 C :   -0.050023
  18 C :   -0.001371
  19 C :   -0.053903
  20 C :   -0.143075
  21 H :   -0.016440
  22 C :    0.012624
  23 H :    0.031566
  24 H :    0.019399
  25 C :   -0.022200
  26 H :    0.030772
  27 H :    0.031214
  28 C :   -0.025863
  29 H :    0.004918
  30 H :    0.029887
  31 H :    0.042622
  32 H :    0.061202
  33 H :    0.036321
Sum of atomic charges:    0.0000000

LOEWDIN ATOMIC CHARGES
----------------------
   0 S :    0.403698
   1 C :   -0.196814
   2 C :   -0.060180
   3 C :   -0.060106
   4 C :   -0.198493
   5 H :    0.016034
   6 C :   -0.031541
   7 H :    0.027773
   8 H :    0.043999
   9 C :   -0.042643
  10 H :    0.032949
  11 H :    0.028434
  12 C :   -0.081561
  13 H :    0.019403
  14 H :    0.025448
  15 H :    0.030164
  16 S :    0.386936
  17 C :   -0.188117
  18 C :   -0.061793
  19 C :   -0.054094
  20 C :   -0.160608
  21 H :    0.013857
  22 C :   -0.040923
  23 H :    0.034500
  24 H :    0.035549
  25 C :   -0.035440
  26 H :    0.033862
  27 H :    0.015218
  28 C :   -0.062933
  29 H :    0.008445
  30 H :    0.033771
  31 H :    0.034782
  32 H :    0.034481
  33 H :    0.015944

  Mayer bond orders larger than 0.100000
B(  0-S ,  1-C ) :   1.1397 B(  0-S ,  4-C ) :   1.1527 B(  1-C ,  2-C ) :   1.5829
B(  1-C ,  4-C ) :   0.1015 B(  1-C , 32-H ) :   0.9564 B(  2-C ,  3-C ) :   1.2785
B(  2-C ,  6-C ) :   1.0269 B(  3-C ,  4-C ) :   1.5273 B(  3-C ,  5-H ) :   1.0005
B(  4-C , 20-C ) :   1.0678 B(  6-C ,  7-H ) :   0.9336 B(  6-C ,  8-H ) :   0.9465
B(  6-C ,  9-C ) :   1.0570 B(  9-C , 10-H ) :   0.9639 B(  9-C , 11-H ) :   0.9586
B(  9-C , 12-C ) :   1.0683 B( 12-C , 13-H ) :   0.9700 B( 12-C , 14-H ) :   0.9795
B( 12-C , 15-H ) :   0.9688 B( 16-S , 17-C ) :   1.1647 B( 16-S , 20-C ) :   1.1158
B( 17-C , 18-C ) :   1.6001 B( 17-C , 33-H ) :   0.9725 B( 18-C , 19-C ) :   1.2383
B( 18-C , 21-H ) :   0.9964 B( 19-C , 20-C ) :   1.6177 B( 19-C , 22-C ) :   1.0366
B( 22-C , 23-H ) :   0.9243 B( 22-C , 24-H ) :   0.9378 B( 22-C , 25-C ) :   1.0462
B( 25-C , 26-H ) :   0.9514 B( 25-C , 27-H ) :   0.9558 B( 25-C , 28-C ) :   1.0748
B( 28-C , 29-H ) :   0.9728 B( 28-C , 30-H ) :   0.9683 B( 28-C , 31-H ) :   0.9714

Dispersion correction           -0.014566157
FINAL SINGLE POINT ENERGY     -1339.845831773544

DIPOLE MOMENT
-------------
                                X             Y             Z
Electronic contribution:      9.16523     -25.78106      -8.29442
Nuclear contribution   :     -9.31583      26.45192       8.27338
                        -----------------------------------------
Total Dipole Moment    :     -0.15060       0.67086      -0.02104
                        -----------------------------------------
Magnitude (a.u.)       :      0.68788
Magnitude (Debye)      :      1.74845

Rotational constants in cm-1:     0.016036     0.009986     0.007145
Rotational constants in MHz :   480.732275   299.360114   214.213011

                             ****ORCA TERMINATED NORMALLY****
TOTAL RUN TIME: 0 days 0 hours 0 minutes 30 seconds 569 msec
