                         Program Version 4.2.1 -  RELEASE  -
|  1> ! wB97X-D3 SP def2-SVP
|  2> %pal
|  3> nprocs 16
|  4> end
|  5>
|  6> * xyz 0 1
|  7> S 	 -41.0762 	 14.6308 	 78.0178
|  8> C 	 -39.6721 	 14.8902 	 76.9867
|  9> C 	 -39.9369 	 14.5847 	 75.6676
| 10> C 	 -41.3349 	 14.2932 	 75.415
| 11> C 	 -42.0757 	 14.2976 	 76.599
| 12> H 	 -41.7995 	 14.068 	 74.456
| 13> C 	 -38.8838 	 14.4767 	 74.5648
| 14> H 	 -39.263 	 13.8831 	 73.7875
| 15> H 	 -38.0025 	 13.9042 	 74.9564
| 16> C 	 -38.6061 	 15.7603 	 73.6908
| 17> H 	 -37.7475 	 16.2266 	 74.1964
| 18> H 	 -38.1714 	 15.4921 	 72.7198
| 19> C 	 -39.7646 	 16.7954 	 73.4568
| 20> H 	 -40.6747 	 16.352 	 73.0141
| 21> H 	 -40.0265 	 17.3391 	 74.3247
| 22> H 	 -39.3657 	 17.5752 	 72.8135
| 23> S 	 -44.6456 	 15.0445 	 75.933
| 24> C 	 -46.0561 	 14.3081 	 76.8195
| 25> C 	 -45.625 	 13.1825 	 77.5152
| 26> C 	 -44.1547 	 13.0865 	 77.545
| 27> C 	 -43.4934 	 13.899 	 76.6541
| 28> H 	 -46.2873 	 12.6459 	 78.2287
| 29> C 	 -43.4811 	 12.0985 	 78.4571
| 30> H 	 -44.2682 	 11.9349 	 79.2205
| 31> H 	 -42.5903 	 12.5338 	 78.9066
| 32> C 	 -43.1415 	 10.7828 	 77.8324
| 33> H 	 -43.9088 	 10.383 	 77.1792
| 34> H 	 -43.0284 	 10.0272 	 78.6347
| 35> C 	 -41.721 	 10.6778 	 77.2413
| 36> H 	 -40.9791 	 10.7343 	 78.0186
| 37> H 	 -41.4113 	 11.4235 	 76.4448
| 38> H 	 -41.6563 	 9.66234 	 76.7386
| 39> H 	 -38.6749 	 14.8913 	 77.3442
| 40> H 	 -47.0426 	 14.6298 	 76.6701
| 41> *
| 42>
| 43>                          ****END OF INPUT****

CARTESIAN COORDINATES (ANGSTROEM)
---------------------------------
  S    -41.076200   14.630800   78.017800
  C    -39.672100   14.890200   76.986700
  C    -39.936900   14.584700   75.667600
  C    -41.334900   14.293200   75.415000
  C    -42.075700   14.297600   76.599000
  H    -41.799500   14.068000   74.456000
  C    -38.883800   14.476700   74.564800
  H    -39.263000   13.883100   73.787500
  H    -38.002500   13.904200   74.956400
  C    -38.606100   15.760300   73.690800
  H    -37.747500   16.226600   74.196400
  H    -38.171400   15.492100   72.719800
  C    -39.764600   16.795400   73.456800
  H    -40.674700   16.352000   73.014100
  H    -40.026500   17.339100   74.324700
  H    -39.365700   17.575200   72.813500
  S    -44.645600   15.044500   75.933000
  C    -46.056100   14.308100   76.819500
  C    -45.625000   13.182500   77.515200
  C    -44.154700   13.086500   77.545000
  C    -43.493400   13.899000   76.654100
  H    -46.287300   12.645900   78.228700
  C    -43.481100   12.098500   78.457100
  H    -44.268200   11.934900   79.220500
  H    -42.590300   12.533800   78.906600
  C    -43.141500   10.782800   77.832400
  H    -43.908800   10.383000   77.179200
  H    -43.028400   10.027200   78.634700
  C    -41.721000   10.677800   77.241300
  H    -40.979100   10.734300   78.018600
  H    -41.411300   11.423500   76.444800
  H    -41.656300    9.662340   76.738600
  H    -38.674900   14.891300   77.344200
  H    -47.042600   14.629800   76.670100

 Total Charge           Charge          ....    0
 Multiplicity           Mult            ....    1
 Number of Electrons    NEL             ....  134
 Basis Dimension        Dim             ....  322

ORBITAL ENERGIES
----------------

  NO   OCC          E(Eh)            E(eV)
   0   2.0000     -88.971522     -2421.0382
   1   2.0000     -88.961790     -2420.7734
   2   2.0000     -10.334705      -281.2216
   3   2.0000     -10.326180      -280.9896
   4   2.0000     -10.326114      -280.9878
   5   2.0000     -10.311622      -280.5935
   6   2.0000     -10.306081      -280.4427
   7   2.0000     -10.305605      -280.4298
   8   2.0000     -10.305500      -280.4269
   9   2.0000     -10.298942      -280.2485
  10   2.0000     -10.292833      -280.0822
  11   2.0000     -10.292648      -280.0772
  12   2.0000     -10.287178      -279.9283
  13   2.0000     -10.282400      -279.7983
  14   2.0000     -10.277763      -279.6721
  15   2.0000     -10.277615      -279.6681
  16   2.0000      -8.085123      -220.0074
  17   2.0000      -8.075306      -219.7403
  18   2.0000      -6.043783      -164.4597
  19   2.0000      -6.039835      -164.3523
  20   2.0000      -6.035754      -164.2412
  21   2.0000      -6.034150      -164.1976
  22   2.0000      -6.029927      -164.0827
  23   2.0000      -6.025829      -163.9712
  24   2.0000      -0.999487       -27.1974
  25   2.0000      -0.975587       -26.5471
  26   2.0000      -0.908764       -24.7287
  27   2.0000      -0.901453       -24.5298
  28   2.0000      -0.866564       -23.5804
  29   2.0000      -0.845023       -22.9942
  30   2.0000      -0.839058       -22.8319
  31   2.0000      -0.814059       -22.1517
  32   2.0000      -0.783859       -21.3299
  33   2.0000      -0.770374       -20.9629
  34   2.0000      -0.702507       -19.1162
  35   2.0000      -0.700721       -19.0676
  36   2.0000      -0.689296       -18.7567
  37   2.0000      -0.665882       -18.1196
  38   2.0000      -0.640118       -17.4185
  39   2.0000      -0.607681       -16.5358
  40   2.0000      -0.592948       -16.1349
  41   2.0000      -0.568284       -15.4638
  42   2.0000      -0.550209       -14.9720
  43   2.0000      -0.546560       -14.8726
  44   2.0000      -0.539571       -14.6825
  45   2.0000      -0.535200       -14.5635
  46   2.0000      -0.518230       -14.1018
  47   2.0000      -0.508926       -13.8486
  48   2.0000      -0.496408       -13.5079
  49   2.0000      -0.492637       -13.4053
  50   2.0000      -0.491604       -13.3772
  51   2.0000      -0.475371       -12.9355
  52   2.0000      -0.473169       -12.8756
  53   2.0000      -0.465943       -12.6790
  54   2.0000      -0.457921       -12.4607
  55   2.0000      -0.448615       -12.2074
  56   2.0000      -0.439813       -11.9679
  57   2.0000      -0.432454       -11.7677
  58   2.0000      -0.428580       -11.6623
  59   2.0000      -0.424940       -11.5632
  60   2.0000      -0.423166       -11.5149
  61   2.0000      -0.403025       -10.9669
  62   2.0000      -0.397180       -10.8078
  63   2.0000      -0.345709        -9.4072
  64   2.0000      -0.331781        -9.0282
  65   2.0000      -0.324192        -8.8217
  66   2.0000      -0.298268        -8.1163
  67   0.0000       0.028154         0.7661
  68   0.0000       0.060416         1.6440
  69   0.0000       0.101678         2.7668
  70   0.0000       0.106081         2.8866
  71   0.0000       0.122384         3.3302

MULLIKEN ATOMIC CHARGES
-----------------------
   0 S :    0.108379
   1 C :   -0.094853
   2 C :   -0.107869
   3 C :    0.013022
   4 C :   -0.129132
   5 H :    0.024694
   6 C :    0.078956
   7 H :    0.005820
   8 H :    0.043386
   9 C :   -0.104488
  10 H :    0.025040
  11 H :    0.030270
  12 C :   -0.032326
  13 H :    0.039734
  14 H :    0.035934
  15 H :    0.032259
  16 S :    0.070774
  17 C :   -0.081955
  18 C :   -0.013812
  19 C :   -0.131330
  20 C :   -0.102830
  21 H :    0.043636
  22 C :    0.088509
  23 H :    0.016856
  24 H :    0.020774
  25 C :   -0.046644
  26 H :    0.027285
  27 H :    0.025275
  28 C :   -0.087584
  29 H :    0.029051
  30 H :    0.047559
  31 H :    0.035837
  32 H :    0.039666
  33 H :    0.050108
Sum of atomic charges:   -0.0000000

LOEWDIN ATOMIC CHARGES
----------------------
   0 S :    0.404304
   1 C :   -0.196206
   2 C :   -0.055341
   3 C :   -0.060309
   4 C :   -0.183986
   5 H :    0.034229
   6 C :   -0.038657
   7 H :    0.023123
   8 H :    0.038705
   9 C :   -0.039587
  10 H :    0.021722
  11 H :    0.023025
  12 C :   -0.063487
  13 H :    0.027738
  14 H :    0.023796
  15 H :    0.030822
  16 S :    0.362326
  17 C :   -0.144954
  18 C :   -0.072904
  19 C :   -0.052435
  20 C :   -0.196366
  21 H :    0.038927
  22 C :   -0.037769
  23 H :    0.033616
  24 H :    0.021571
  25 C :   -0.042826
  26 H :    0.023441
  27 H :    0.029953
  28 C :   -0.073107
  29 H :    0.018721
  30 H :    0.028008
  31 H :    0.031985
  32 H :    0.022517
  33 H :    0.019404

  Mayer bond orders larger than 0.100000
B(  0-S ,  1-C ) :   1.1210 B(  0-S ,  4-C ) :   1.1445 B(  1-C ,  2-C ) :   1.6360
B(  1-C , 32-H ) :   0.9664 B(  2-C ,  3-C ) :   1.2193 B(  2-C ,  6-C ) :   1.0319
B(  3-C ,  4-C ) :   1.5668 B(  3-C ,  5-H ) :   0.9933 B(  4-C , 20-C ) :   1.0352
B(  6-C ,  7-H ) :   0.9373 B(  6-C ,  8-H ) :   0.9506 B(  6-C ,  9-C ) :   1.0346
B(  9-C , 10-H ) :   0.9594 B(  9-C , 11-H ) :   0.9650 B(  9-C , 12-C ) :   1.0814
B( 12-C , 13-H ) :   0.9760 B( 12-C , 14-H ) :   0.9703 B( 12-C , 15-H ) :   0.9714
B( 16-S , 17-C ) :   1.1452 B( 16-S , 20-C ) :   1.1052 B( 17-C , 18-C ) :   1.6333
B( 17-C , 33-H ) :   0.9731 B( 18-C , 19-C ) :   1.2139 B( 18-C , 21-H ) :   0.9734
B( 19-C , 20-C ) :   1.6258 B( 19-C , 22-C ) :   1.0541 B( 22-C , 23-H ) :   0.9232
B( 22-C , 24-H ) :   0.9290 B( 22-C , 25-C ) :   1.0803 B( 25-C , 26-H ) :   0.9550
B( 25-C , 27-H ) :   0.9515 B( 25-C , 28-C ) :   1.0740 B( 28-C , 29-H ) :   0.9765
B( 28-C , 30-H ) :   0.9740 B( 28-C , 31-H ) :   0.9725

Dispersion correction           -0.015671809
FINAL SINGLE POINT ENERGY     -1339.865740638372

DIPOLE MOMENT
-------------
                                X             Y             Z
Electronic contribution:    -13.22729       8.21020       8.11865
Nuclear contribution   :     13.38030      -8.56317      -8.14869
                        -----------------------------------------
Total Dipole Moment    :      0.15301      -0.35297      -0.03004
                        -----------------------------------------
Magnitude (a.u.)       :      0.38588
Magnitude (Debye)      :      0.98082

Rotational constants in cm-1:     0.020635     0.009080     0.007393
Rotational constants in MHz :   618.624426   272.214999   221.644934

                             ****ORCA TERMINATED NORMALLY****
TOTAL RUN TIME: 0 days 0 hours 0 minutes 29 seconds 562 msec
