                         Program Version 4.2.1 -  RELEASE  -
|  1> ! wB97X-D3 SP def2-SVP
|  2> %pal
|  3> nprocs 16
|  4> end
|  5>
|  6> * xyz 0 1
|  7> S 	 7.79812 	 21.1387 	 53.8183
|  8> C 	 8.89629 	 19.7935 	 53.429
|  9> C 	 9.12323 	 19.0077 	 54.5249
| 10> C 	 8.67837 	 19.6675 	 55.7249
| 11> C 	 7.89585 	 20.8223 	 55.4887
| 12> H 	 8.75946 	 19.2738 	 56.7319
| 13> C 	 9.96393 	 17.7817 	 54.5906
| 14> H 	 9.9913 	 17.3793 	 53.6094
| 15> H 	 9.41849 	 17.0033 	 55.1635
| 16> C 	 11.4648 	 18.0149 	 54.8134
| 17> H 	 12.0089 	 17.1609 	 54.3002
| 18> H 	 11.7412 	 18.9387 	 54.3738
| 19> C 	 11.859 	 17.8542 	 56.2212
| 20> H 	 12.8397 	 17.6278 	 56.3385
| 21> H 	 11.6474 	 18.6791 	 56.9449
| 22> H 	 11.2929 	 17.0414 	 56.7746
| 23> S 	 8.03732 	 23.2136 	 56.7576
| 24> C 	 6.81022 	 23.6437 	 57.9454
| 25> C 	 5.88889 	 22.6136 	 58.1647
| 26> C 	 6.09469 	 21.4639 	 57.2893
| 27> C 	 7.24672 	 21.6517 	 56.4617
| 28> H 	 5.24809 	 22.8006 	 59.0684
| 29> C 	 5.07616 	 20.3234 	 57.3247
| 30> H 	 4.72037 	 20.041 	 56.3031
| 31> H 	 4.09316 	 20.6868 	 57.7621
| 32> C 	 5.58965 	 18.9975 	 57.8776
| 33> H 	 6.10683 	 19.1826 	 58.8607
| 34> H 	 6.29745 	 18.6334 	 57.1508
| 35> C 	 4.68989 	 17.7902 	 57.9285
| 36> H 	 4.57398 	 17.3048 	 56.99
| 37> H 	 3.79549 	 18.1789 	 58.3462
| 38> H 	 5.0363 	 17.0202 	 58.6788
| 39> H 	 9.31343 	 19.5212 	 52.4354
| 40> H 	 6.81363 	 24.5388 	 58.5866
| 41> *
| 42>
| 43>                          ****END OF INPUT****

CARTESIAN COORDINATES (ANGSTROEM)
---------------------------------
  S      7.798120   21.138700   53.818300
  C      8.896290   19.793500   53.429000
  C      9.123230   19.007700   54.524900
  C      8.678370   19.667500   55.724900
  C      7.895850   20.822300   55.488700
  H      8.759460   19.273800   56.731900
  C      9.963930   17.781700   54.590600
  H      9.991300   17.379300   53.609400
  H      9.418490   17.003300   55.163500
  C     11.464800   18.014900   54.813400
  H     12.008900   17.160900   54.300200
  H     11.741200   18.938700   54.373800
  C     11.859000   17.854200   56.221200
  H     12.839700   17.627800   56.338500
  H     11.647400   18.679100   56.944900
  H     11.292900   17.041400   56.774600
  S      8.037320   23.213600   56.757600
  C      6.810220   23.643700   57.945400
  C      5.888890   22.613600   58.164700
  C      6.094690   21.463900   57.289300
  C      7.246720   21.651700   56.461700
  H      5.248090   22.800600   59.068400
  C      5.076160   20.323400   57.324700
  H      4.720370   20.041000   56.303100
  H      4.093160   20.686800   57.762100
  C      5.589650   18.997500   57.877600
  H      6.106830   19.182600   58.860700
  H      6.297450   18.633400   57.150800
  C      4.689890   17.790200   57.928500
  H      4.573980   17.304800   56.990000
  H      3.795490   18.178900   58.346200
  H      5.036300   17.020200   58.678800
  H      9.313430   19.521200   52.435400
  H      6.813630   24.538800   58.586600

 Total Charge           Charge          ....    0
 Multiplicity           Mult            ....    1
 Number of Electrons    NEL             ....  134
 Basis Dimension        Dim             ....  322

ORBITAL ENERGIES
----------------

  NO   OCC          E(Eh)            E(eV)
   0   2.0000     -88.967539     -2420.9298
   1   2.0000     -88.966958     -2420.9140
   2   2.0000     -10.332121      -281.1513
   3   2.0000     -10.325498      -280.9711
   4   2.0000     -10.320524      -280.8357
   5   2.0000     -10.318273      -280.7745
   6   2.0000     -10.316225      -280.7188
   7   2.0000     -10.301561      -280.3197
   8   2.0000     -10.300147      -280.2812
   9   2.0000     -10.297759      -280.2163
  10   2.0000     -10.293917      -280.1117
  11   2.0000     -10.287724      -279.9432
  12   2.0000     -10.286876      -279.9201
  13   2.0000     -10.281518      -279.7743
  14   2.0000     -10.273911      -279.5673
  15   2.0000     -10.269316      -279.4423
  16   2.0000      -8.081876      -219.9190
  17   2.0000      -8.081605      -219.9117
  18   2.0000      -6.040376      -164.3670
  19   2.0000      -6.040122      -164.3601
  20   2.0000      -6.036278      -164.2555
  21   2.0000      -6.036156      -164.2522
  22   2.0000      -6.032692      -164.1579
  23   2.0000      -6.032438      -164.1510
  24   2.0000      -1.003895       -27.3174
  25   2.0000      -0.976743       -26.5785
  26   2.0000      -0.920901       -25.0590
  27   2.0000      -0.908431       -24.7197
  28   2.0000      -0.872036       -23.7293
  29   2.0000      -0.850223       -23.1357
  30   2.0000      -0.845709       -23.0129
  31   2.0000      -0.810154       -22.0454
  32   2.0000      -0.787758       -21.4360
  33   2.0000      -0.771397       -20.9908
  34   2.0000      -0.705412       -19.1952
  35   2.0000      -0.703864       -19.1531
  36   2.0000      -0.683718       -18.6049
  37   2.0000      -0.651630       -17.7318
  38   2.0000      -0.638010       -17.3611
  39   2.0000      -0.615889       -16.7592
  40   2.0000      -0.593086       -16.1387
  41   2.0000      -0.572363       -15.5748
  42   2.0000      -0.570345       -15.5199
  43   2.0000      -0.552671       -15.0390
  44   2.0000      -0.542682       -14.7671
  45   2.0000      -0.520966       -14.1762
  46   2.0000      -0.514843       -14.0096
  47   2.0000      -0.510501       -13.8914
  48   2.0000      -0.508682       -13.8420
  49   2.0000      -0.501244       -13.6396
  50   2.0000      -0.485956       -13.2235
  51   2.0000      -0.484305       -13.1786
  52   2.0000      -0.479019       -13.0348
  53   2.0000      -0.460446       -12.5294
  54   2.0000      -0.456708       -12.4276
  55   2.0000      -0.443177       -12.0595
  56   2.0000      -0.441714       -12.0196
  57   2.0000      -0.436759       -11.8848
  58   2.0000      -0.433317       -11.7912
  59   2.0000      -0.421960       -11.4821
  60   2.0000      -0.414564       -11.2809
  61   2.0000      -0.405706       -11.0398
  62   2.0000      -0.404048       -10.9947
  63   2.0000      -0.335433        -9.1276
  64   2.0000      -0.327976        -8.9247
  65   2.0000      -0.321118        -8.7381
  66   2.0000      -0.304291        -8.2802
  67   0.0000       0.034938         0.9507
  68   0.0000       0.055761         1.5173
  69   0.0000       0.110955         3.0192
  70   0.0000       0.116038         3.1575
  71   0.0000       0.123066         3.3488

MULLIKEN ATOMIC CHARGES
-----------------------
   0 S :    0.130666
   1 C :   -0.135408
   2 C :   -0.110045
   3 C :    0.058498
   4 C :   -0.184359
   5 H :    0.015652
   6 C :    0.074393
   7 H :   -0.003045
   8 H :    0.037517
   9 C :   -0.031757
  10 H :    0.035089
  11 H :    0.029437
  12 C :   -0.035321
  13 H :    0.008643
  14 H :    0.029486
  15 H :    0.017827
  16 S :    0.117378
  17 C :   -0.110276
  18 C :   -0.074305
  19 C :    0.018846
  20 C :   -0.187401
  21 H :    0.046914
  22 C :    0.055457
  23 H :    0.026931
  24 H :    0.030010
  25 C :   -0.115237
  26 H :    0.036903
  27 H :    0.029642
  28 C :   -0.020374
  29 H :    0.034600
  30 H :    0.012946
  31 H :    0.040061
  32 H :    0.054812
  33 H :    0.065818
Sum of atomic charges:   -0.0000000

LOEWDIN ATOMIC CHARGES
----------------------
   0 S :    0.423151
   1 C :   -0.198111
   2 C :   -0.067805
   3 C :   -0.057755
   4 C :   -0.224864
   5 H :    0.028698
   6 C :   -0.035824
   7 H :    0.026443
   8 H :    0.037426
   9 C :   -0.030511
  10 H :    0.035152
  11 H :    0.025205
  12 C :   -0.071228
  13 H :    0.009076
  14 H :    0.028001
  15 H :    0.030310
  16 S :    0.402834
  17 C :   -0.191422
  18 C :   -0.082490
  19 C :   -0.042314
  20 C :   -0.199224
  21 H :    0.044738
  22 C :   -0.040589
  23 H :    0.036315
  24 H :    0.032998
  25 C :   -0.053833
  26 H :    0.026234
  27 H :    0.024515
  28 C :   -0.061747
  29 H :    0.021602
  30 H :    0.017079
  31 H :    0.038110
  32 H :    0.035608
  33 H :    0.034223

  Mayer bond orders larger than 0.100000
B(  0-S ,  1-C ) :   1.1354 B(  0-S ,  4-C ) :   1.1734 B(  1-C ,  2-C ) :   1.6083
B(  1-C , 32-H ) :   0.9614 B(  2-C ,  3-C ) :   1.2354 B(  2-C ,  6-C ) :   1.0568
B(  3-C ,  4-C ) :   1.5586 B(  3-C ,  5-H ) :   0.9875 B(  4-C , 20-C ) :   1.0364
B(  6-C ,  7-H ) :   0.9249 B(  6-C ,  8-H ) :   0.9371 B(  6-C ,  9-C ) :   1.0573
B(  9-C , 10-H ) :   0.9592 B(  9-C , 11-H ) :   0.9480 B(  9-C , 12-C ) :   1.0885
B( 12-C , 13-H ) :   0.9724 B( 12-C , 14-H ) :   0.9678 B( 12-C , 15-H ) :   0.9729
B( 16-S , 17-C ) :   1.1506 B( 16-S , 20-C ) :   1.1506 B( 17-C , 18-C ) :   1.6414
B( 17-C , 20-C ) :   0.1043 B( 17-C , 33-H ) :   0.9609 B( 18-C , 19-C ) :   1.2196
B( 18-C , 21-H ) :   0.9767 B( 19-C , 20-C ) :   1.5853 B( 19-C , 22-C ) :   1.0425
B( 22-C , 23-H ) :   0.9319 B( 22-C , 24-H ) :   0.9396 B( 22-C , 25-C ) :   1.0567
B( 25-C , 26-H ) :   0.9577 B( 25-C , 27-H ) :   0.9538 B( 25-C , 28-C ) :   1.0820
B( 28-C , 29-H ) :   0.9771 B( 28-C , 30-H ) :   0.9732 B( 28-C , 31-H ) :   0.9710

Dispersion correction           -0.014386620
FINAL SINGLE POINT ENERGY     -1339.848238290344

DIPOLE MOMENT
-------------
                                X             Y             Z
Electronic contribution:     -2.23410      25.00829      -8.85499
Nuclear contribution   :      2.29396     -25.56718       9.12362
                        -----------------------------------------
Total Dipole Moment    :      0.05986      -0.55889       0.26863
                        -----------------------------------------
Magnitude (a.u.)       :      0.62298
Magnitude (Debye)      :      1.58349

Rotational constants in cm-1:     0.016610     0.008997     0.007414
Rotational constants in MHz :   497.944019   269.710725   222.255791

                             ****ORCA TERMINATED NORMALLY****
TOTAL RUN TIME: 0 days 0 hours 0 minutes 35 seconds 58 msec
