                         Program Version 4.2.1 -  RELEASE  -
|  1> ! wB97X-D3 SP def2-SVP
|  2> %pal
|  3> nprocs 16
|  4> end
|  5>
|  6> * xyz 0 1
|  7> S 	 2.43466 	 24.565 	 58.8401
|  8> C 	 3.64694 	 25.1171 	 57.7819
|  9> C 	 4.54971 	 24.1441 	 57.4104
| 10> C 	 4.11821 	 22.8214 	 57.8514
| 11> C 	 2.89584 	 22.8798 	 58.5635
| 12> H 	 4.65249 	 21.8772 	 57.6349
| 13> C 	 5.8199 	 24.1972 	 56.6201
| 14> H 	 5.69675 	 25.0047 	 55.9137
| 15> H 	 5.97661 	 23.3861 	 55.9444
| 16> C 	 7.14125 	 24.531 	 57.3548
| 17> H 	 7.61595 	 25.2731 	 56.7355
| 18> H 	 6.8847 	 24.9583 	 58.3045
| 19> C 	 8.09123 	 23.4291 	 57.6981
| 20> H 	 8.25678 	 22.7806 	 56.7864
| 21> H 	 9.02098 	 23.7382 	 58.1619
| 22> H 	 7.66445 	 22.795 	 58.4511
| 23> S 	 2.22485 	 20.3193 	 58.1421
| 24> C 	 1.0764 	 19.4788 	 59.2105
| 25> C 	 0.747906 	 20.2771 	 60.2516
| 26> C 	 1.35644 	 21.5429 	 60.1895
| 27> C 	 2.10522 	 21.7578 	 59.0554
| 28> H 	 0.154692 	 19.946 	 61.0978
| 29> C 	 1.1726 	 22.5595 	 61.3243
| 30> H 	 0.327443 	 23.2793 	 61.0981
| 31> H 	 2.15953 	 23.1268 	 61.2466
| 32> C 	 0.970032 	 21.9138 	 62.7122
| 33> H 	 0.0140525 	 21.3188 	 62.7268
| 34> H 	 0.853447 	 22.7061 	 63.4701
| 35> C 	 2.2907 	 21.123 	 63.1465
| 36> H 	 1.94147 	 20.6518 	 64.0751
| 37> H 	 3.2184 	 21.6691 	 63.3509
| 38> H 	 2.46344 	 20.2773 	 62.5115
| 39> H 	 3.91315 	 26.0976 	 57.4677
| 40> H 	 0.77056 	 18.3954 	 59.1421
| 41> *
| 42>
| 43>                          ****END OF INPUT****

CARTESIAN COORDINATES (ANGSTROEM)
---------------------------------
  S      2.434660   24.565000   58.840100
  C      3.646940   25.117100   57.781900
  C      4.549710   24.144100   57.410400
  C      4.118210   22.821400   57.851400
  C      2.895840   22.879800   58.563500
  H      4.652490   21.877200   57.634900
  C      5.819900   24.197200   56.620100
  H      5.696750   25.004700   55.913700
  H      5.976610   23.386100   55.944400
  C      7.141250   24.531000   57.354800
  H      7.615950   25.273100   56.735500
  H      6.884700   24.958300   58.304500
  C      8.091230   23.429100   57.698100
  H      8.256780   22.780600   56.786400
  H      9.020980   23.738200   58.161900
  H      7.664450   22.795000   58.451100
  S      2.224850   20.319300   58.142100
  C      1.076400   19.478800   59.210500
  C      0.747906   20.277100   60.251600
  C      1.356440   21.542900   60.189500
  C      2.105220   21.757800   59.055400
  H      0.154692   19.946000   61.097800
  C      1.172600   22.559500   61.324300
  H      0.327443   23.279300   61.098100
  H      2.159530   23.126800   61.246600
  C      0.970032   21.913800   62.712200
  H      0.014052   21.318800   62.726800
  H      0.853447   22.706100   63.470100
  C      2.290700   21.123000   63.146500
  H      1.941470   20.651800   64.075100
  H      3.218400   21.669100   63.350900
  H      2.463440   20.277300   62.511500
  H      3.913150   26.097600   57.467700
  H      0.770560   18.395400   59.142100

 Total Charge           Charge          ....    0
 Multiplicity           Mult            ....    1
 Number of Electrons    NEL             ....  134
 Basis Dimension        Dim             ....  322

ORBITAL ENERGIES
----------------

  NO   OCC          E(Eh)            E(eV)
   0   2.0000     -88.972487     -2421.0645
   1   2.0000     -88.963059     -2420.8079
   2   2.0000     -10.335418      -281.2410
   3   2.0000     -10.321987      -280.8755
   4   2.0000     -10.318926      -280.7923
   5   2.0000     -10.309779      -280.5433
   6   2.0000     -10.300743      -280.2975
   7   2.0000     -10.299401      -280.2610
   8   2.0000     -10.299255      -280.2570
   9   2.0000     -10.297494      -280.2090
  10   2.0000     -10.295174      -280.1459
  11   2.0000     -10.287960      -279.9496
  12   2.0000     -10.287145      -279.9274
  13   2.0000     -10.279999      -279.7330
  14   2.0000     -10.278888      -279.7028
  15   2.0000     -10.276130      -279.6277
  16   2.0000      -8.086909      -220.0560
  17   2.0000      -8.078157      -219.8178
  18   2.0000      -6.045558      -164.5080
  19   2.0000      -6.041462      -164.3965
  20   2.0000      -6.037542      -164.2899
  21   2.0000      -6.036741      -164.2681
  22   2.0000      -6.032661      -164.1571
  23   2.0000      -6.028761      -164.0509
  24   2.0000      -1.010581       -27.4993
  25   2.0000      -0.987784       -26.8790
  26   2.0000      -0.914081       -24.8734
  27   2.0000      -0.901336       -24.5266
  28   2.0000      -0.874727       -23.8025
  29   2.0000      -0.853969       -23.2377
  30   2.0000      -0.837532       -22.7904
  31   2.0000      -0.814597       -22.1663
  32   2.0000      -0.784514       -21.3477
  33   2.0000      -0.770558       -20.9680
  34   2.0000      -0.707678       -19.2569
  35   2.0000      -0.699576       -19.0364
  36   2.0000      -0.693802       -18.8793
  37   2.0000      -0.662524       -18.0282
  38   2.0000      -0.634704       -17.2712
  39   2.0000      -0.615144       -16.7389
  40   2.0000      -0.590928       -16.0800
  41   2.0000      -0.577033       -15.7019
  42   2.0000      -0.550844       -14.9892
  43   2.0000      -0.546206       -14.8630
  44   2.0000      -0.540776       -14.7153
  45   2.0000      -0.532586       -14.4924
  46   2.0000      -0.523706       -14.2508
  47   2.0000      -0.513071       -13.9614
  48   2.0000      -0.499354       -13.5881
  49   2.0000      -0.495063       -13.4713
  50   2.0000      -0.491405       -13.3718
  51   2.0000      -0.485319       -13.2062
  52   2.0000      -0.470100       -12.7921
  53   2.0000      -0.466003       -12.6806
  54   2.0000      -0.461191       -12.5496
  55   2.0000      -0.450778       -12.2663
  56   2.0000      -0.443241       -12.0612
  57   2.0000      -0.437291       -11.8993
  58   2.0000      -0.429449       -11.6859
  59   2.0000      -0.422265       -11.4904
  60   2.0000      -0.413935       -11.2637
  61   2.0000      -0.410051       -11.1581
  62   2.0000      -0.408152       -11.1064
  63   2.0000      -0.361138        -9.8271
  64   2.0000      -0.330836        -9.0025
  65   2.0000      -0.327235        -8.9045
  66   2.0000      -0.284143        -7.7319
  67   0.0000       0.024297         0.6612
  68   0.0000       0.079715         2.1692
  69   0.0000       0.103515         2.8168
  70   0.0000       0.123315         3.3556
  71   0.0000       0.136646         3.7183

MULLIKEN ATOMIC CHARGES
-----------------------
   0 S :    0.129774
   1 C :   -0.068244
   2 C :   -0.112128
   3 C :   -0.008556
   4 C :   -0.157439
   5 H :    0.034155
   6 C :    0.074163
   7 H :    0.007057
   8 H :    0.014562
   9 C :   -0.043970
  10 H :    0.024923
  11 H :    0.020436
  12 C :   -0.052345
  13 H :    0.030313
  14 H :    0.035809
  15 H :    0.023831
  16 S :    0.091674
  17 C :   -0.106854
  18 C :   -0.018730
  19 C :   -0.080462
  20 C :   -0.111436
  21 H :    0.016189
  22 C :    0.034124
  23 H :    0.057719
  24 H :    0.038546
  25 C :   -0.115167
  26 H :    0.047049
  27 H :    0.038494
  28 C :   -0.055217
  29 H :    0.024964
  30 H :    0.053233
  31 H :    0.036734
  32 H :    0.023285
  33 H :    0.073515
Sum of atomic charges:   -0.0000000

LOEWDIN ATOMIC CHARGES
----------------------
   0 S :    0.432830
   1 C :   -0.213269
   2 C :   -0.060759
   3 C :   -0.069173
   4 C :   -0.186826
   5 H :    0.033418
   6 C :   -0.034028
   7 H :    0.032273
   8 H :    0.027037
   9 C :   -0.038086
  10 H :    0.022625
  11 H :    0.024140
  12 C :   -0.068128
  13 H :    0.026727
  14 H :    0.028032
  15 H :    0.022391
  16 S :    0.415364
  17 C :   -0.185636
  18 C :   -0.074599
  19 C :   -0.072119
  20 C :   -0.208310
  21 H :    0.032794
  22 C :   -0.049079
  23 H :    0.035381
  24 H :    0.030932
  25 C :   -0.043891
  26 H :    0.028687
  27 H :    0.028594
  28 C :   -0.067260
  29 H :    0.027789
  30 H :    0.031859
  31 H :    0.021455
  32 H :    0.025639
  33 H :    0.043196

  Mayer bond orders larger than 0.100000
B(  0-S ,  1-C ) :   1.1352 B(  0-S ,  4-C ) :   1.1456 B(  1-C ,  2-C ) :   1.6265
B(  1-C , 32-H ) :   0.9599 B(  2-C ,  3-C ) :   1.2379 B(  2-C ,  6-C ) :   1.0411
B(  3-C ,  4-C ) :   1.5451 B(  3-C ,  5-H ) :   0.9836 B(  4-C , 20-C ) :   1.0596
B(  6-C ,  7-H ) :   0.9337 B(  6-C ,  8-H ) :   0.9435 B(  6-C ,  9-C ) :   1.0456
B(  9-C , 10-H ) :   0.9599 B(  9-C , 11-H ) :   0.9556 B(  9-C , 12-C ) :   1.0919
B( 12-C , 13-H ) :   0.9748 B( 12-C , 14-H ) :   0.9704 B( 12-C , 15-H ) :   0.9736
B( 16-S , 17-C ) :   1.1443 B( 16-S , 20-C ) :   1.1464 B( 17-C , 18-C ) :   1.6040
B( 17-C , 33-H ) :   0.9584 B( 18-C , 19-C ) :   1.2676 B( 18-C , 21-H ) :   0.9835
B( 19-C , 20-C ) :   1.5816 B( 19-C , 22-C ) :   1.0077 B( 22-C , 23-H ) :   0.9381
B( 22-C , 24-H ) :   0.9338 B( 22-C , 25-C ) :   1.0758 B( 25-C , 26-H ) :   0.9509
B( 25-C , 27-H ) :   0.9549 B( 25-C , 28-C ) :   1.0631 B( 28-C , 29-H ) :   0.9740
B( 28-C , 30-H ) :   0.9766 B( 28-C , 31-H ) :   0.9764

Dispersion correction           -0.014216465
FINAL SINGLE POINT ENERGY     -1339.869401317224

DIPOLE MOMENT
-------------
                                X             Y             Z
Electronic contribution:    -14.74324      -1.61678      -9.91942
Nuclear contribution   :     15.01894       1.61480      10.21230
                        -----------------------------------------
Total Dipole Moment    :      0.27570      -0.00198       0.29288
                        -----------------------------------------
Magnitude (a.u.)       :      0.40224
Magnitude (Debye)      :      1.02240

Rotational constants in cm-1:     0.021356     0.007507     0.007001
Rotational constants in MHz :   640.226141   225.048442   209.876160

                             ****ORCA TERMINATED NORMALLY****
TOTAL RUN TIME: 0 days 0 hours 0 minutes 34 seconds 845 msec
