                         Program Version 4.2.1 -  RELEASE  -
|  1> ! wB97X-D3 SP def2-SVP
|  2> %pal
|  3> nprocs 16
|  4> end
|  5>
|  6> * xyz 0 1
|  7> S 	 8.66433 	 23.0312 	 61.9902
|  8> C 	 8.77012 	 21.6678 	 60.8753
|  9> C 	 7.69636 	 20.813 	 60.9952
| 10> C 	 6.70792 	 21.2298 	 61.9961
| 11> C 	 7.05323 	 22.4706 	 62.533
| 12> H 	 5.8067 	 20.7881 	 62.349
| 13> C 	 7.52071 	 19.5591 	 60.1641
| 14> H 	 7.15227 	 19.7447 	 59.1478
| 15> H 	 6.63269 	 18.9835 	 60.4796
| 16> C 	 8.72215 	 18.6344 	 60.1748
| 17> H 	 8.55548 	 17.8619 	 59.4416
| 18> H 	 9.56882 	 19.1804 	 59.7934
| 19> C 	 9.10508 	 18.1442 	 61.5881
| 20> H 	 8.33631 	 17.5762 	 62.0684
| 21> H 	 10.0469 	 17.5968 	 61.6453
| 22> H 	 9.40694 	 19.0432 	 62.1163
| 23> S 	 7.30628 	 23.0774 	 65.2694
| 24> C 	 5.91151 	 23.6899 	 66.1526
| 25> C 	 4.81405 	 23.8039 	 65.3289
| 26> C 	 5.05438 	 23.3275 	 63.9913
| 27> C 	 6.38809 	 22.909 	 63.7515
| 28> H 	 3.87728 	 24.0345 	 65.674
| 29> C 	 3.93971 	 23.419 	 62.9826
| 30> H 	 3.02332 	 22.9275 	 63.3372
| 31> H 	 4.1804 	 22.6927 	 62.1765
| 32> C 	 3.80924 	 24.8968 	 62.358
| 33> H 	 4.68091 	 25.1171 	 61.7266
| 34> H 	 3.86987 	 25.6416 	 63.1945
| 35> C 	 2.51101 	 24.967 	 61.5813
| 36> H 	 2.19944 	 25.973 	 61.4842
| 37> H 	 1.74992 	 24.4621 	 62.1429
| 38> H 	 2.55492 	 24.4602 	 60.6057
| 39> H 	 9.7483 	 21.4957 	 60.3477
| 40> H 	 5.96894 	 23.9011 	 67.2271
| 41> *
| 42>
| 43>                          ****END OF INPUT****

CARTESIAN COORDINATES (ANGSTROEM)
---------------------------------
  S      8.664330   23.031200   61.990200
  C      8.770120   21.667800   60.875300
  C      7.696360   20.813000   60.995200
  C      6.707920   21.229800   61.996100
  C      7.053230   22.470600   62.533000
  H      5.806700   20.788100   62.349000
  C      7.520710   19.559100   60.164100
  H      7.152270   19.744700   59.147800
  H      6.632690   18.983500   60.479600
  C      8.722150   18.634400   60.174800
  H      8.555480   17.861900   59.441600
  H      9.568820   19.180400   59.793400
  C      9.105080   18.144200   61.588100
  H      8.336310   17.576200   62.068400
  H     10.046900   17.596800   61.645300
  H      9.406940   19.043200   62.116300
  S      7.306280   23.077400   65.269400
  C      5.911510   23.689900   66.152600
  C      4.814050   23.803900   65.328900
  C      5.054380   23.327500   63.991300
  C      6.388090   22.909000   63.751500
  H      3.877280   24.034500   65.674000
  C      3.939710   23.419000   62.982600
  H      3.023320   22.927500   63.337200
  H      4.180400   22.692700   62.176500
  C      3.809240   24.896800   62.358000
  H      4.680910   25.117100   61.726600
  H      3.869870   25.641600   63.194500
  C      2.511010   24.967000   61.581300
  H      2.199440   25.973000   61.484200
  H      1.749920   24.462100   62.142900
  H      2.554920   24.460200   60.605700
  H      9.748300   21.495700   60.347700
  H      5.968940   23.901100   67.227100

 Total Charge           Charge          ....    0
 Multiplicity           Mult            ....    1
 Number of Electrons    NEL             ....  134
 Basis Dimension        Dim             ....  322

ORBITAL ENERGIES
----------------

  NO   OCC          E(Eh)            E(eV)
   0   2.0000     -88.969567     -2420.9850
   1   2.0000     -88.962096     -2420.7817
   2   2.0000     -10.332757      -281.1686
   3   2.0000     -10.329404      -281.0774
   4   2.0000     -10.322557      -280.8911
   5   2.0000     -10.319590      -280.8103
   6   2.0000     -10.309291      -280.5301
   7   2.0000     -10.302873      -280.3554
   8   2.0000     -10.300536      -280.2918
   9   2.0000     -10.293363      -280.0967
  10   2.0000     -10.292262      -280.0667
  11   2.0000     -10.291497      -280.0459
  12   2.0000     -10.287197      -279.9289
  13   2.0000     -10.283175      -279.8194
  14   2.0000     -10.272075      -279.5174
  15   2.0000     -10.270393      -279.4716
  16   2.0000      -8.083395      -219.9604
  17   2.0000      -8.076286      -219.7669
  18   2.0000      -6.041987      -164.4108
  19   2.0000      -6.038068      -164.3042
  20   2.0000      -6.034918      -164.2185
  21   2.0000      -6.034076      -164.1956
  22   2.0000      -6.030766      -164.1055
  23   2.0000      -6.027054      -164.0045
  24   2.0000      -0.998153       -27.1611
  25   2.0000      -0.976082       -26.5606
  26   2.0000      -0.912730       -24.8366
  27   2.0000      -0.899935       -24.4885
  28   2.0000      -0.868376       -23.6297
  29   2.0000      -0.849364       -23.1124
  30   2.0000      -0.843433       -22.9510
  31   2.0000      -0.811188       -22.0736
  32   2.0000      -0.782012       -21.2796
  33   2.0000      -0.764974       -20.8160
  34   2.0000      -0.706473       -19.2241
  35   2.0000      -0.702371       -19.1125
  36   2.0000      -0.691064       -18.8048
  37   2.0000      -0.663274       -18.0486
  38   2.0000      -0.644951       -17.5500
  39   2.0000      -0.607533       -16.5318
  40   2.0000      -0.595010       -16.1910
  41   2.0000      -0.577062       -15.7027
  42   2.0000      -0.553307       -15.0563
  43   2.0000      -0.549704       -14.9582
  44   2.0000      -0.536506       -14.5991
  45   2.0000      -0.527712       -14.3598
  46   2.0000      -0.521135       -14.1808
  47   2.0000      -0.511917       -13.9300
  48   2.0000      -0.505260       -13.7488
  49   2.0000      -0.494292       -13.4504
  50   2.0000      -0.485051       -13.1989
  51   2.0000      -0.473923       -12.8961
  52   2.0000      -0.470628       -12.8064
  53   2.0000      -0.458394       -12.4735
  54   2.0000      -0.455104       -12.3840
  55   2.0000      -0.447967       -12.1898
  56   2.0000      -0.442613       -12.0441
  57   2.0000      -0.441054       -12.0017
  58   2.0000      -0.436899       -11.8886
  59   2.0000      -0.419479       -11.4146
  60   2.0000      -0.417951       -11.3730
  61   2.0000      -0.413043       -11.2395
  62   2.0000      -0.409430       -11.1412
  63   2.0000      -0.347337        -9.4515
  64   2.0000      -0.327907        -8.9228
  65   2.0000      -0.326736        -8.8909
  66   2.0000      -0.292177        -7.9506
  67   0.0000       0.027477         0.7477
  68   0.0000       0.063524         1.7286
  69   0.0000       0.111108         3.0234
  70   0.0000       0.120313         3.2739
  71   0.0000       0.125863         3.4249

MULLIKEN ATOMIC CHARGES
-----------------------
   0 S :    0.101505
   1 C :   -0.157977
   2 C :   -0.064371
   3 C :    0.040638
   4 C :   -0.145197
   5 H :    0.020973
   6 C :    0.062933
   7 H :    0.038087
   8 H :    0.009441
   9 C :   -0.067230
  10 H :    0.020493
  11 H :    0.014737
  12 C :   -0.036511
  13 H :    0.035384
  14 H :    0.027186
  15 H :    0.035023
  16 S :    0.093444
  17 C :   -0.104968
  18 C :    0.029813
  19 C :   -0.073724
  20 C :   -0.157980
  21 H :   -0.014863
  22 C :    0.029125
  23 H :    0.028469
  24 H :    0.010624
  25 C :   -0.082932
  26 H :    0.042356
  27 H :    0.036135
  28 C :   -0.000574
  29 H :    0.025542
  30 H :    0.013533
  31 H :    0.037668
  32 H :    0.082839
  33 H :    0.070378
Sum of atomic charges:   -0.0000000

LOEWDIN ATOMIC CHARGES
----------------------
   0 S :    0.383787
   1 C :   -0.198549
   2 C :   -0.059442
   3 C :   -0.041443
   4 C :   -0.185206
   5 H :    0.030916
   6 C :   -0.040637
   7 H :    0.036269
   8 H :    0.029093
   9 C :   -0.038524
  10 H :    0.020399
  11 H :    0.018188
  12 C :   -0.064304
  13 H :    0.021376
  14 H :    0.027472
  15 H :    0.029814
  16 S :    0.384987
  17 C :   -0.178027
  18 C :   -0.063378
  19 C :   -0.058269
  20 C :   -0.193776
  21 H :    0.016578
  22 C :   -0.043532
  23 H :    0.029667
  24 H :    0.028934
  25 C :   -0.031819
  26 H :    0.030018
  27 H :    0.026410
  28 C :   -0.063558
  29 H :    0.021332
  30 H :    0.020597
  31 H :    0.030603
  32 H :    0.040234
  33 H :    0.033787

  Mayer bond orders larger than 0.100000
B(  0-S ,  1-C ) :   1.1238 B(  0-S ,  4-C ) :   1.1374 B(  1-C ,  2-C ) :   1.6236
B(  1-C , 32-H ) :   0.9605 B(  2-C ,  3-C ) :   1.2062 B(  2-C ,  6-C ) :   1.0131
B(  3-C ,  4-C ) :   1.5836 B(  3-C ,  5-H ) :   0.9931 B(  4-C , 20-C ) :   1.0558
B(  6-C ,  7-H ) :   0.9366 B(  6-C ,  8-H ) :   0.9410 B(  6-C ,  9-C ) :   1.0777
B(  9-C , 10-H ) :   0.9538 B(  9-C , 11-H ) :   0.9557 B(  9-C , 12-C ) :   1.0721
B( 12-C , 13-H ) :   0.9795 B( 12-C , 14-H ) :   0.9726 B( 12-C , 15-H ) :   0.9685
B( 16-S , 17-C ) :   1.1569 B( 16-S , 20-C ) :   1.1292 B( 17-C , 18-C ) :   1.5860
B( 17-C , 33-H ) :   0.9662 B( 18-C , 19-C ) :   1.2547 B( 18-C , 21-H ) :   1.0022
B( 19-C , 20-C ) :   1.5804 B( 19-C , 22-C ) :   1.0617 B( 22-C , 23-H ) :   0.9428
B( 22-C , 24-H ) :   0.9257 B( 22-C , 25-C ) :   1.0366 B( 25-C , 26-H ) :   0.9551
B( 25-C , 27-H ) :   0.9652 B( 25-C , 28-C ) :   1.0775 B( 28-C , 29-H ) :   0.9723
B( 28-C , 30-H ) :   0.9747 B( 28-C , 31-H ) :   0.9728

Dispersion correction           -0.014261185
FINAL SINGLE POINT ENERGY     -1339.874422819457

DIPOLE MOMENT
-------------
                                X             Y             Z
Electronic contribution:     12.06388       9.43580      13.03692
Nuclear contribution   :    -12.45921      -9.77492     -13.24943
                        -----------------------------------------
Total Dipole Moment    :     -0.39533      -0.33912      -0.21251
                        -----------------------------------------
Magnitude (a.u.)       :      0.56254
Magnitude (Debye)      :      1.42986

Rotational constants in cm-1:     0.019628     0.007967     0.006724
Rotational constants in MHz :   588.433405   238.835503   201.580364

                             ****ORCA TERMINATED NORMALLY****
TOTAL RUN TIME: 0 days 0 hours 0 minutes 33 seconds 970 msec
