                         Program Version 4.2.1 -  RELEASE  -
|  1> ! wB97X-D3 SP def2-SVP
|  2> %pal
|  3> nprocs 16
|  4> end
|  5>
|  6> * xyz 0 1
|  7> S 	 50.4682 	 26.9342 	 42.6714
|  8> C 	 51.9659 	 26.137 	 42.0673
|  9> C 	 53.0092 	 26.3286 	 43.0224
| 10> C 	 52.5582 	 27.0201 	 44.2443
| 11> C 	 51.2206 	 27.4547 	 44.1484
| 12> H 	 53.2146 	 27.2523 	 45.083
| 13> C 	 54.421 	 25.7939 	 42.8309
| 14> H 	 54.3596 	 24.7429 	 42.5839
| 15> H 	 54.9682 	 25.8361 	 43.7881
| 16> C 	 55.233 	 26.6227 	 41.7471
| 17> H 	 54.6439 	 26.7147 	 40.8709
| 18> H 	 55.2609 	 27.6506 	 42.2542
| 19> C 	 56.7147 	 26.2149 	 41.5105
| 20> H 	 56.8158 	 25.126 	 41.1521
| 21> H 	 57.0838 	 26.8313 	 40.6655
| 22> H 	 57.3964 	 26.2377 	 42.3206
| 23> S 	 50.4333 	 29.9517 	 45.143
| 24> C 	 49.3179 	 29.9717 	 46.4803
| 25> C 	 49.0284 	 28.6757 	 46.9684
| 26> C 	 49.7195 	 27.7082 	 46.2284
| 27> C 	 50.4885 	 28.2371 	 45.1813
| 28> H 	 48.4581 	 28.5266 	 47.8881
| 29> C 	 49.6616 	 26.2197 	 46.6376
| 30> H 	 49.2318 	 25.6354 	 45.8309
| 31> H 	 48.9662 	 26.1235 	 47.4425
| 32> C 	 51.0347 	 25.5629 	 47.1414
| 33> H 	 51.3851 	 26.2344 	 47.9229
| 34> H 	 51.7872 	 25.4963 	 46.4378
| 35> C 	 50.8114 	 24.2182 	 47.8893
| 36> H 	 51.7919 	 24.0131 	 48.326
| 37> H 	 50.6942 	 23.4237 	 47.1482
| 38> H 	 50.1079 	 24.2039 	 48.6538
| 39> H 	 52.0603 	 25.6443 	 41.0588
| 40> H 	 49.0951 	 30.8373 	 47.0854
| 41> *
| 42>
| 43>                          ****END OF INPUT****

CARTESIAN COORDINATES (ANGSTROEM)
---------------------------------
  S     50.468200   26.934200   42.671400
  C     51.965900   26.137000   42.067300
  C     53.009200   26.328600   43.022400
  C     52.558200   27.020100   44.244300
  C     51.220600   27.454700   44.148400
  H     53.214600   27.252300   45.083000
  C     54.421000   25.793900   42.830900
  H     54.359600   24.742900   42.583900
  H     54.968200   25.836100   43.788100
  C     55.233000   26.622700   41.747100
  H     54.643900   26.714700   40.870900
  H     55.260900   27.650600   42.254200
  C     56.714700   26.214900   41.510500
  H     56.815800   25.126000   41.152100
  H     57.083800   26.831300   40.665500
  H     57.396400   26.237700   42.320600
  S     50.433300   29.951700   45.143000
  C     49.317900   29.971700   46.480300
  C     49.028400   28.675700   46.968400
  C     49.719500   27.708200   46.228400
  C     50.488500   28.237100   45.181300
  H     48.458100   28.526600   47.888100
  C     49.661600   26.219700   46.637600
  H     49.231800   25.635400   45.830900
  H     48.966200   26.123500   47.442500
  C     51.034700   25.562900   47.141400
  H     51.385100   26.234400   47.922900
  H     51.787200   25.496300   46.437800
  C     50.811400   24.218200   47.889300
  H     51.791900   24.013100   48.326000
  H     50.694200   23.423700   47.148200
  H     50.107900   24.203900   48.653800
  H     52.060300   25.644300   41.058800
  H     49.095100   30.837300   47.085400

 Total Charge           Charge          ....    0
 Multiplicity           Mult            ....    1
 Number of Electrons    NEL             ....  134
 Basis Dimension        Dim             ....  322

ORBITAL ENERGIES
----------------

  NO   OCC          E(Eh)            E(eV)
   0   2.0000     -88.971790     -2421.0455
   1   2.0000     -88.969131     -2420.9731
   2   2.0000     -10.334197      -281.2078
   3   2.0000     -10.326616      -281.0015
   4   2.0000     -10.323496      -280.9166
   5   2.0000     -10.317367      -280.7498
   6   2.0000     -10.312228      -280.6100
   7   2.0000     -10.303042      -280.3600
   8   2.0000     -10.301503      -280.3182
   9   2.0000     -10.295526      -280.1555
  10   2.0000     -10.295177      -280.1460
  11   2.0000     -10.295130      -280.1447
  12   2.0000     -10.288775      -279.9718
  13   2.0000     -10.286762      -279.9170
  14   2.0000     -10.280456      -279.7454
  15   2.0000     -10.271800      -279.5099
  16   2.0000      -8.086637      -220.0486
  17   2.0000      -8.082764      -219.9432
  18   2.0000      -6.044922      -164.4907
  19   2.0000      -6.041292      -164.3919
  20   2.0000      -6.040992      -164.3837
  21   2.0000      -6.037792      -164.2967
  22   2.0000      -6.037266      -164.2824
  23   2.0000      -6.033718      -164.1858
  24   2.0000      -1.002568       -27.2813
  25   2.0000      -0.975273       -26.5385
  26   2.0000      -0.901620       -24.5343
  27   2.0000      -0.896901       -24.4059
  28   2.0000      -0.859770       -23.3955
  29   2.0000      -0.851695       -23.1758
  30   2.0000      -0.840931       -22.8829
  31   2.0000      -0.808549       -22.0017
  32   2.0000      -0.779779       -21.2189
  33   2.0000      -0.765780       -20.8379
  34   2.0000      -0.704684       -19.1754
  35   2.0000      -0.701295       -19.0832
  36   2.0000      -0.688558       -18.7366
  37   2.0000      -0.659863       -17.9558
  38   2.0000      -0.637201       -17.3391
  39   2.0000      -0.611785       -16.6475
  40   2.0000      -0.589314       -16.0361
  41   2.0000      -0.566923       -15.4268
  42   2.0000      -0.564473       -15.3601
  43   2.0000      -0.553937       -15.0734
  44   2.0000      -0.520512       -14.1638
  45   2.0000      -0.517800       -14.0900
  46   2.0000      -0.514395       -13.9974
  47   2.0000      -0.504504       -13.7282
  48   2.0000      -0.502843       -13.6830
  49   2.0000      -0.491985       -13.3876
  50   2.0000      -0.488673       -13.2975
  51   2.0000      -0.482541       -13.1306
  52   2.0000      -0.470079       -12.7915
  53   2.0000      -0.468839       -12.7578
  54   2.0000      -0.459679       -12.5085
  55   2.0000      -0.454621       -12.3709
  56   2.0000      -0.452618       -12.3164
  57   2.0000      -0.431880       -11.7520
  58   2.0000      -0.427050       -11.6206
  59   2.0000      -0.421355       -11.4657
  60   2.0000      -0.417424       -11.3587
  61   2.0000      -0.414820       -11.2878
  62   2.0000      -0.411962       -11.2101
  63   2.0000      -0.338152        -9.2016
  64   2.0000      -0.328079        -8.9275
  65   2.0000      -0.314715        -8.5638
  66   2.0000      -0.309167        -8.4128
  67   0.0000       0.043122         1.1734
  68   0.0000       0.046178         1.2566
  69   0.0000       0.114487         3.1153
  70   0.0000       0.118686         3.2296
  71   0.0000       0.126086         3.4310

MULLIKEN ATOMIC CHARGES
-----------------------
   0 S :    0.120876
   1 C :   -0.157769
   2 C :   -0.109308
   3 C :    0.051314
   4 C :   -0.167108
   5 H :    0.026769
   6 C :    0.056955
   7 H :    0.033025
   8 H :    0.019930
   9 C :   -0.091974
  10 H :    0.029066
  11 H :    0.040394
  12 C :   -0.050424
  13 H :    0.029738
  14 H :    0.045163
  15 H :    0.030751
  16 S :    0.142749
  17 C :   -0.105165
  18 C :   -0.049492
  19 C :   -0.026092
  20 C :   -0.196913
  21 H :    0.029244
  22 C :    0.113909
  23 H :    0.030639
  24 H :   -0.005128
  25 C :   -0.071172
  26 H :    0.021212
  27 H :    0.022008
  28 C :   -0.030785
  29 H :    0.022863
  30 H :    0.032112
  31 H :    0.024668
  32 H :    0.079522
  33 H :    0.058424
Sum of atomic charges:   -0.0000000

LOEWDIN ATOMIC CHARGES
----------------------
   0 S :    0.404280
   1 C :   -0.205104
   2 C :   -0.057557
   3 C :   -0.063884
   4 C :   -0.199209
   5 H :    0.034039
   6 C :   -0.037650
   7 H :    0.026666
   8 H :    0.029038
   9 C :   -0.038041
  10 H :    0.017170
  11 H :    0.035604
  12 C :   -0.073699
  13 H :    0.030232
  14 H :    0.033948
  15 H :    0.018905
  16 S :    0.443799
  17 C :   -0.195177
  18 C :   -0.071458
  19 C :   -0.052803
  20 C :   -0.230260
  21 H :    0.036190
  22 C :   -0.024929
  23 H :    0.029717
  24 H :    0.021600
  25 C :   -0.025555
  26 H :    0.022691
  27 H :    0.010953
  28 C :   -0.057566
  29 H :    0.029157
  30 H :    0.025846
  31 H :    0.013582
  32 H :    0.042128
  33 H :    0.027344

  Mayer bond orders larger than 0.100000
B(  0-S ,  1-C ) :   1.1347 B(  0-S ,  4-C ) :   1.1725 B(  1-C ,  2-C ) :   1.5872
B(  1-C ,  4-C ) :   0.1004 B(  1-C , 32-H ) :   0.9641 B(  2-C ,  3-C ) :   1.2510
B(  2-C ,  6-C ) :   1.0284 B(  3-C ,  4-C ) :   1.5693 B(  3-C ,  5-H ) :   0.9824
B(  4-C , 20-C ) :   1.0050 B(  6-C ,  7-H ) :   0.9426 B(  6-C ,  8-H ) :   0.9470
B(  6-C ,  9-C ) :   1.0434 B(  9-C , 10-H ) :   0.9655 B(  9-C , 11-H ) :   0.9562
B(  9-C , 12-C ) :   1.0724 B( 12-C , 13-H ) :   0.9734 B( 12-C , 14-H ) :   0.9744
B( 12-C , 15-H ) :   0.9769 B( 16-S , 17-C ) :   1.1896 B( 16-S , 20-C ) :   1.1712
B( 17-C , 18-C ) :   1.5553 B( 17-C , 20-C ) :   0.1084 B( 17-C , 33-H ) :   0.9640
B( 18-C , 19-C ) :   1.3114 B( 18-C , 21-H ) :   0.9839 B( 19-C , 20-C ) :   1.5470
B( 19-C , 22-C ) :   1.0412 B( 22-C , 23-H ) :   0.9262 B( 22-C , 24-H ) :   0.9361
B( 22-C , 25-C ) :   1.0537 B( 25-C , 26-H ) :   0.9598 B( 25-C , 27-H ) :   0.9560
B( 25-C , 28-C ) :   1.0902 B( 28-C , 29-H ) :   0.9733 B( 28-C , 30-H ) :   0.9768
B( 28-C , 31-H ) :   0.9772

Dispersion correction           -0.014366032
FINAL SINGLE POINT ENERGY     -1339.871497289304

DIPOLE MOMENT
-------------
                                X             Y             Z
Electronic contribution:    -18.45249      17.99444      -4.57027
Nuclear contribution   :     18.89244     -18.28610       4.88687
                        -----------------------------------------
Total Dipole Moment    :      0.43995      -0.29166       0.31660
                        -----------------------------------------
Magnitude (a.u.)       :      0.61551
Magnitude (Debye)      :      1.56451

Rotational constants in cm-1:     0.018824     0.007762     0.006558
Rotational constants in MHz :   564.323913   232.696980   196.615518

                             ****ORCA TERMINATED NORMALLY****
TOTAL RUN TIME: 0 days 0 hours 0 minutes 31 seconds 93 msec
