                         Program Version 4.2.1 -  RELEASE  -
|  1> ! wB97X-D3 SP def2-SVP
|  2> %pal
|  3> nprocs 16
|  4> end
|  5>
|  6> * xyz 0 1
|  7> S 	 -58.1513 	 41.4622 	 112.835
|  8> C 	 -57.3327 	 42.6465 	 111.812
|  9> C 	 -56.1685 	 42.1054 	 111.297
| 10> C 	 -55.8331 	 40.825 	 111.889
| 11> C 	 -56.7099 	 40.4273 	 112.831
| 12> H 	 -54.9576 	 40.3241 	 111.589
| 13> C 	 -55.3199 	 42.7113 	 110.192
| 14> H 	 -54.3283 	 42.4956 	 110.564
| 15> H 	 -55.5421 	 43.7625 	 110.246
| 16> C 	 -55.5312 	 42.1294 	 108.798
| 17> H 	 -55.4339 	 41.0525 	 108.791
| 18> H 	 -56.4986 	 42.4774 	 108.394
| 19> C 	 -54.5943 	 42.6784 	 107.712
| 20> H 	 -54.6593 	 43.7625 	 107.734
| 21> H 	 -53.5358 	 42.4056 	 108.079
| 22> H 	 -54.7381 	 42.2398 	 106.729
| 23> S 	 -57.2622 	 39.4044 	 115.325
| 24> C 	 -56.7378 	 37.7717 	 115.666
| 25> C 	 -55.9683 	 37.2362 	 114.659
| 26> C 	 -56.007 	 38.0218 	 113.454
| 27> C 	 -56.5811 	 39.2173 	 113.698
| 28> H 	 -55.612 	 36.2336 	 114.8
| 29> C 	 -55.2736 	 37.5626 	 112.187
| 30> H 	 -54.3109 	 37.2084 	 112.468
| 31> H 	 -54.9258 	 38.3328 	 111.491
| 32> C 	 -55.875 	 36.3977 	 111.37
| 33> H 	 -55.9816 	 35.5278 	 112.063
| 34> H 	 -55.0678 	 36.114 	 110.722
| 35> C 	 -57.1953 	 36.8809 	 110.757
| 36> H 	 -57.0731 	 37.4555 	 109.83
| 37> H 	 -57.8481 	 37.4696 	 111.471
| 38> H 	 -57.8066 	 36.0014 	 110.417
| 39> H 	 -57.7144 	 43.5249 	 111.32
| 40> H 	 -56.9268 	 37.1443 	 116.492
| 41> *
| 42>
| 43>                          ****END OF INPUT****

CARTESIAN COORDINATES (ANGSTROEM)
---------------------------------
  S    -58.151300   41.462200  112.835000
  C    -57.332700   42.646500  111.812000
  C    -56.168500   42.105400  111.297000
  C    -55.833100   40.825000  111.889000
  C    -56.709900   40.427300  112.831000
  H    -54.957600   40.324100  111.589000
  C    -55.319900   42.711300  110.192000
  H    -54.328300   42.495600  110.564000
  H    -55.542100   43.762500  110.246000
  C    -55.531200   42.129400  108.798000
  H    -55.433900   41.052500  108.791000
  H    -56.498600   42.477400  108.394000
  C    -54.594300   42.678400  107.712000
  H    -54.659300   43.762500  107.734000
  H    -53.535800   42.405600  108.079000
  H    -54.738100   42.239800  106.729000
  S    -57.262200   39.404400  115.325000
  C    -56.737800   37.771700  115.666000
  C    -55.968300   37.236200  114.659000
  C    -56.007000   38.021800  113.454000
  C    -56.581100   39.217300  113.698000
  H    -55.612000   36.233600  114.800000
  C    -55.273600   37.562600  112.187000
  H    -54.310900   37.208400  112.468000
  H    -54.925800   38.332800  111.491000
  C    -55.875000   36.397700  111.370000
  H    -55.981600   35.527800  112.063000
  H    -55.067800   36.114000  110.722000
  C    -57.195300   36.880900  110.757000
  H    -57.073100   37.455500  109.830000
  H    -57.848100   37.469600  111.471000
  H    -57.806600   36.001400  110.417000
  H    -57.714400   43.524900  111.320000
  H    -56.926800   37.144300  116.492000

 Total Charge           Charge          ....    0
 Multiplicity           Mult            ....    1
 Number of Electrons    NEL             ....  134
 Basis Dimension        Dim             ....  322

ORBITAL ENERGIES
----------------

  NO   OCC          E(Eh)            E(eV)
   0   2.0000     -88.967948     -2420.9409
   1   2.0000     -88.966717     -2420.9074
   2   2.0000     -10.331105      -281.1237
   3   2.0000     -10.328361      -281.0490
   4   2.0000     -10.312533      -280.6183
   5   2.0000     -10.311334      -280.5857
   6   2.0000     -10.305000      -280.4133
   7   2.0000     -10.298636      -280.2401
   8   2.0000     -10.292204      -280.0651
   9   2.0000     -10.292129      -280.0631
  10   2.0000     -10.290874      -280.0289
  11   2.0000     -10.290493      -280.0186
  12   2.0000     -10.289385      -279.9884
  13   2.0000     -10.287232      -279.9298
  14   2.0000     -10.285110      -279.8721
  15   2.0000     -10.281855      -279.7835
  16   2.0000      -8.082289      -219.9303
  17   2.0000      -8.080573      -219.8836
  18   2.0000      -6.040853      -164.3800
  19   2.0000      -6.039381      -164.3399
  20   2.0000      -6.037037      -164.2761
  21   2.0000      -6.035371      -164.2308
  22   2.0000      -6.032818      -164.1613
  23   2.0000      -6.030896      -164.1090
  24   2.0000      -1.006136       -27.3783
  25   2.0000      -0.983642       -26.7663
  26   2.0000      -0.913905       -24.8686
  27   2.0000      -0.909161       -24.7395
  28   2.0000      -0.867982       -23.6190
  29   2.0000      -0.852141       -23.1879
  30   2.0000      -0.843940       -22.9648
  31   2.0000      -0.818036       -22.2599
  32   2.0000      -0.783707       -21.3258
  33   2.0000      -0.773300       -21.0426
  34   2.0000      -0.707049       -19.2398
  35   2.0000      -0.696004       -18.9392
  36   2.0000      -0.694259       -18.8917
  37   2.0000      -0.661688       -18.0054
  38   2.0000      -0.634626       -17.2691
  39   2.0000      -0.629013       -17.1163
  40   2.0000      -0.601190       -16.3592
  41   2.0000      -0.573822       -15.6145
  42   2.0000      -0.563307       -15.3284
  43   2.0000      -0.549683       -14.9576
  44   2.0000      -0.539462       -14.6795
  45   2.0000      -0.528319       -14.3763
  46   2.0000      -0.514950       -14.0125
  47   2.0000      -0.508443       -13.8354
  48   2.0000      -0.504545       -13.7294
  49   2.0000      -0.495889       -13.4938
  50   2.0000      -0.491584       -13.3767
  51   2.0000      -0.480407       -13.0725
  52   2.0000      -0.470601       -12.8057
  53   2.0000      -0.462745       -12.5919
  54   2.0000      -0.458932       -12.4882
  55   2.0000      -0.453502       -12.3404
  56   2.0000      -0.448832       -12.2133
  57   2.0000      -0.437629       -11.9085
  58   2.0000      -0.427367       -11.6292
  59   2.0000      -0.424946       -11.5634
  60   2.0000      -0.419784       -11.4229
  61   2.0000      -0.417215       -11.3530
  62   2.0000      -0.407906       -11.0997
  63   2.0000      -0.353987        -9.6325
  64   2.0000      -0.334408        -9.0997
  65   2.0000      -0.326014        -8.8713
  66   2.0000      -0.292856        -7.9690
  67   0.0000       0.028012         0.7623
  68   0.0000       0.079511         2.1636
  69   0.0000       0.098939         2.6923
  70   0.0000       0.111982         3.0472
  71   0.0000       0.130164         3.5419

MULLIKEN ATOMIC CHARGES
-----------------------
   0 S :    0.100794
   1 C :   -0.091297
   2 C :   -0.143615
   3 C :    0.022769
   4 C :   -0.085167
   5 H :   -0.012413
   6 C :    0.087087
   7 H :    0.020087
   8 H :    0.016585
   9 C :   -0.064534
  10 H :    0.029466
  11 H :    0.028017
  12 C :   -0.060631
  13 H :    0.031932
  14 H :    0.024076
  15 H :    0.048147
  16 S :    0.113733
  17 C :   -0.064449
  18 C :   -0.038966
  19 C :   -0.019043
  20 C :   -0.149356
  21 H :    0.015633
  22 C :    0.036624
  23 H :    0.008158
  24 H :    0.012788
  25 C :   -0.050440
  26 H :    0.028902
  27 H :    0.025446
  28 C :   -0.074321
  29 H :    0.034975
  30 H :    0.061444
  31 H :    0.033930
  32 H :    0.038393
  33 H :    0.035247
Sum of atomic charges:   -0.0000000

LOEWDIN ATOMIC CHARGES
----------------------
   0 S :    0.380456
   1 C :   -0.200146
   2 C :   -0.055127
   3 C :   -0.062365
   4 C :   -0.173842
   5 H :    0.019604
   6 C :   -0.028806
   7 H :    0.029019
   8 H :    0.029254
   9 C :   -0.040643
  10 H :    0.021903
  11 H :    0.027113
  12 C :   -0.066260
  13 H :    0.022449
  14 H :    0.026162
  15 H :    0.026987
  16 S :    0.393549
  17 C :   -0.177803
  18 C :   -0.063234
  19 C :   -0.057384
  20 C :   -0.179451
  21 H :    0.028593
  22 C :   -0.033560
  23 H :    0.026685
  24 H :    0.027132
  25 C :   -0.037738
  26 H :    0.025145
  27 H :    0.023797
  28 C :   -0.076860
  29 H :    0.027115
  30 H :    0.038343
  31 H :    0.028223
  32 H :    0.028341
  33 H :    0.023348

  Mayer bond orders larger than 0.100000
B(  0-S ,  1-C ) :   1.1038 B(  0-S ,  4-C ) :   1.1323 B(  1-C ,  2-C ) :   1.6591
B(  1-C , 32-H ) :   0.9610 B(  2-C ,  3-C ) :   1.2167 B(  2-C ,  6-C ) :   1.0226
B(  3-C ,  4-C ) :   1.5979 B(  3-C ,  5-H ) :   1.0011 B(  4-C , 20-C ) :   1.0259
B(  6-C ,  7-H ) :   0.9359 B(  6-C ,  8-H ) :   0.9347 B(  6-C ,  9-C ) :   1.0724
B(  9-C , 10-H ) :   0.9572 B(  9-C , 11-H ) :   0.9548 B(  9-C , 12-C ) :   1.0789
B( 12-C , 13-H ) :   0.9755 B( 12-C , 14-H ) :   0.9751 B( 12-C , 15-H ) :   0.9751
B( 16-S , 17-C ) :   1.1280 B( 16-S , 20-C ) :   1.1216 B( 17-C , 18-C ) :   1.6727
B( 17-C , 33-H ) :   0.9674 B( 18-C , 19-C ) :   1.1935 B( 18-C , 21-H ) :   0.9820
B( 19-C , 20-C ) :   1.6566 B( 19-C , 22-C ) :   1.0256 B( 22-C , 23-H ) :   0.9297
B( 22-C , 24-H ) :   0.9405 B( 22-C , 25-C ) :   1.0830 B( 25-C , 26-H ) :   0.9589
B( 25-C , 27-H ) :   0.9532 B( 25-C , 28-C ) :   1.0617 B( 28-C , 29-H ) :   0.9746
B( 28-C , 30-H ) :   0.9757 B( 28-C , 31-H ) :   0.9746

Dispersion correction           -0.014406501
FINAL SINGLE POINT ENERGY     -1339.868000521403

DIPOLE MOMENT
-------------
                                X             Y             Z
Electronic contribution:    -12.27259       4.45092      26.98413
Nuclear contribution   :     12.75006      -4.78677     -27.57492
                        -----------------------------------------
Total Dipole Moment    :      0.47747      -0.33586      -0.59079
                        -----------------------------------------
Magnitude (a.u.)       :      0.83055
Magnitude (Debye)      :      2.11109

Rotational constants in cm-1:     0.019471     0.008774     0.006768
Rotational constants in MHz :   583.731091   263.028070   202.902333

                             ****ORCA TERMINATED NORMALLY****
TOTAL RUN TIME: 0 days 0 hours 0 minutes 28 seconds 909 msec
