                         Program Version 4.2.1 -  RELEASE  -
|  1> ! wB97X-D3 SP def2-SVP
|  2> %pal
|  3> nprocs 16
|  4> end
|  5>
|  6> * xyz 0 1
|  7> S 	 24.3209 	 1.15678 	 83.3656
|  8> C 	 25.3659 	 2.50767 	 83.1159
|  9> C 	 24.6417 	 3.6752 	 83.1543
| 10> C 	 23.2179 	 3.47806 	 83.2536
| 11> C 	 22.912 	 2.16043 	 83.3209
| 12> H 	 22.4767 	 4.29224 	 83.1155
| 13> C 	 25.2961 	 5.01115 	 83.1507
| 14> H 	 24.8085 	 5.57845 	 82.355
| 15> H 	 26.3223 	 4.92146 	 82.8426
| 16> C 	 25.2599 	 5.77443 	 84.5292
| 17> H 	 24.2221 	 6.07698 	 84.7113
| 18> H 	 25.4487 	 5.06911 	 85.4113
| 19> C 	 26.2463 	 6.8697 	 84.4531
| 20> H 	 26.1634 	 7.57335 	 83.5878
| 21> H 	 26.2921 	 7.60556 	 85.3058
| 22> H 	 27.3038 	 6.5445 	 84.4096
| 23> S 	 21.1243 	 0.989536 	 85.0128
| 24> C 	 19.5124 	 0.680364 	 84.501
| 25> C 	 19.3609 	 1.01533 	 83.1976
| 26> C 	 20.5856 	 1.42896 	 82.5472
| 27> C 	 21.5847 	 1.58868 	 83.4552
| 28> H 	 18.4862 	 0.945466 	 82.7116
| 29> C 	 20.7049 	 2.01512 	 81.1359
| 30> H 	 21.5898 	 2.67559 	 81.0009
| 31> H 	 19.8741 	 2.69464 	 81.1227
| 32> C 	 20.4159 	 1.00762 	 80.0803
| 33> H 	 19.5143 	 0.428847 	 80.3079
| 34> H 	 21.155 	 0.272269 	 80.2174
| 35> C 	 20.3646 	 1.44807 	 78.6027
| 36> H 	 21.3387 	 1.80399 	 78.2708
| 37> H 	 19.7387 	 2.28207 	 78.461
| 38> H 	 19.7922 	 0.772922 	 77.9315
| 39> H 	 26.4323 	 2.36725 	 83.2464
| 40> H 	 18.6814 	 0.341392 	 85.0907
| 41> *
| 42>
| 43>                          ****END OF INPUT****

CARTESIAN COORDINATES (ANGSTROEM)
---------------------------------
  S     24.320900    1.156780   83.365600
  C     25.365900    2.507670   83.115900
  C     24.641700    3.675200   83.154300
  C     23.217900    3.478060   83.253600
  C     22.912000    2.160430   83.320900
  H     22.476700    4.292240   83.115500
  C     25.296100    5.011150   83.150700
  H     24.808500    5.578450   82.355000
  H     26.322300    4.921460   82.842600
  C     25.259900    5.774430   84.529200
  H     24.222100    6.076980   84.711300
  H     25.448700    5.069110   85.411300
  C     26.246300    6.869700   84.453100
  H     26.163400    7.573350   83.587800
  H     26.292100    7.605560   85.305800
  H     27.303800    6.544500   84.409600
  S     21.124300    0.989536   85.012800
  C     19.512400    0.680364   84.501000
  C     19.360900    1.015330   83.197600
  C     20.585600    1.428960   82.547200
  C     21.584700    1.588680   83.455200
  H     18.486200    0.945466   82.711600
  C     20.704900    2.015120   81.135900
  H     21.589800    2.675590   81.000900
  H     19.874100    2.694640   81.122700
  C     20.415900    1.007620   80.080300
  H     19.514300    0.428847   80.307900
  H     21.155000    0.272269   80.217400
  C     20.364600    1.448070   78.602700
  H     21.338700    1.803990   78.270800
  H     19.738700    2.282070   78.461000
  H     19.792200    0.772922   77.931500
  H     26.432300    2.367250   83.246400
  H     18.681400    0.341392   85.090700

 Total Charge           Charge          ....    0
 Multiplicity           Mult            ....    1
 Number of Electrons    NEL             ....  134
 Basis Dimension        Dim             ....  322

ORBITAL ENERGIES
----------------

  NO   OCC          E(Eh)            E(eV)
   0   2.0000     -88.961244     -2420.7585
   1   2.0000     -88.959898     -2420.7219
   2   2.0000     -10.324149      -280.9344
   3   2.0000     -10.316743      -280.7328
   4   2.0000     -10.311592      -280.5927
   5   2.0000     -10.309320      -280.5309
   6   2.0000     -10.298914      -280.2477
   7   2.0000     -10.297874      -280.2194
   8   2.0000     -10.295779      -280.1624
   9   2.0000     -10.294510      -280.1279
  10   2.0000     -10.288385      -279.9612
  11   2.0000     -10.287687      -279.9422
  12   2.0000     -10.284188      -279.8470
  13   2.0000     -10.283515      -279.8287
  14   2.0000     -10.276750      -279.6446
  15   2.0000     -10.275194      -279.6022
  16   2.0000      -8.077208      -219.7920
  17   2.0000      -8.075894      -219.7562
  18   2.0000      -6.035605      -164.2372
  19   2.0000      -6.034352      -164.2031
  20   2.0000      -6.031533      -164.1263
  21   2.0000      -6.030204      -164.0902
  22   2.0000      -6.028023      -164.0308
  23   2.0000      -6.026645      -163.9933
  24   2.0000      -1.014794       -27.6139
  25   2.0000      -0.991884       -26.9905
  26   2.0000      -0.913500       -24.8576
  27   2.0000      -0.912698       -24.8358
  28   2.0000      -0.875003       -23.8100
  29   2.0000      -0.852158       -23.1884
  30   2.0000      -0.847543       -23.0628
  31   2.0000      -0.821394       -22.3513
  32   2.0000      -0.784532       -21.3482
  33   2.0000      -0.768923       -20.9234
  34   2.0000      -0.709154       -19.2971
  35   2.0000      -0.702574       -19.1180
  36   2.0000      -0.695384       -18.9224
  37   2.0000      -0.666137       -18.1265
  38   2.0000      -0.647125       -17.6092
  39   2.0000      -0.622948       -16.9513
  40   2.0000      -0.599267       -16.3069
  41   2.0000      -0.570300       -15.5187
  42   2.0000      -0.562264       -15.3000
  43   2.0000      -0.555954       -15.1283
  44   2.0000      -0.529987       -14.4217
  45   2.0000      -0.524881       -14.2827
  46   2.0000      -0.519254       -14.1296
  47   2.0000      -0.512526       -13.9465
  48   2.0000      -0.509672       -13.8689
  49   2.0000      -0.501061       -13.6346
  50   2.0000      -0.500265       -13.6129
  51   2.0000      -0.479191       -13.0395
  52   2.0000      -0.470730       -12.8092
  53   2.0000      -0.465460       -12.6658
  54   2.0000      -0.459608       -12.5066
  55   2.0000      -0.452216       -12.3054
  56   2.0000      -0.449562       -12.2332
  57   2.0000      -0.436814       -11.8863
  58   2.0000      -0.434855       -11.8330
  59   2.0000      -0.421392       -11.4666
  60   2.0000      -0.415717       -11.3122
  61   2.0000      -0.409356       -11.1391
  62   2.0000      -0.408492       -11.1156
  63   2.0000      -0.339747        -9.2450
  64   2.0000      -0.326345        -8.8803
  65   2.0000      -0.325835        -8.8664
  66   2.0000      -0.309592        -8.4244
  67   0.0000       0.049345         1.3427
  68   0.0000       0.064887         1.7657
  69   0.0000       0.124313         3.3827
  70   0.0000       0.126982         3.4554
  71   0.0000       0.128237         3.4895

MULLIKEN ATOMIC CHARGES
-----------------------
   0 S :    0.111127
   1 C :   -0.120776
   2 C :   -0.106421
   3 C :    0.042450
   4 C :   -0.169276
   5 H :    0.031375
   6 C :    0.059262
   7 H :    0.029439
   8 H :    0.007697
   9 C :   -0.049611
  10 H :    0.029629
  11 H :    0.045862
  12 C :   -0.077215
  13 H :    0.030157
  14 H :    0.033098
  15 H :    0.033331
  16 S :    0.114307
  17 C :   -0.066288
  18 C :    0.011389
  19 C :   -0.025665
  20 C :   -0.191962
  21 H :   -0.034375
  22 C :    0.095353
  23 H :    0.039706
  24 H :    0.010014
  25 C :   -0.087233
  26 H :    0.018144
  27 H :    0.014910
  28 C :   -0.004516
  29 H :    0.033848
  30 H :   -0.000848
  31 H :    0.035868
  32 H :    0.056051
  33 H :    0.051168
Sum of atomic charges:    0.0000000

LOEWDIN ATOMIC CHARGES
----------------------
   0 S :    0.419747
   1 C :   -0.205743
   2 C :   -0.065230
   3 C :   -0.064425
   4 C :   -0.199565
   5 H :    0.040425
   6 C :   -0.030205
   7 H :    0.031955
   8 H :    0.024944
   9 C :   -0.043518
  10 H :    0.024337
  11 H :    0.036322
  12 C :   -0.083163
  13 H :    0.028860
  14 H :    0.029061
  15 H :    0.028188
  16 S :    0.418702
  17 C :   -0.187029
  18 C :   -0.058061
  19 C :   -0.048605
  20 C :   -0.208753
  21 H :    0.008135
  22 C :   -0.028569
  23 H :    0.035566
  24 H :    0.026437
  25 C :   -0.046192
  26 H :    0.025712
  27 H :    0.018751
  28 C :   -0.068278
  29 H :    0.027503
  30 H :    0.016470
  31 H :    0.035830
  32 H :    0.028442
  33 H :    0.031950

  Mayer bond orders larger than 0.100000
B(  0-S ,  1-C ) :   1.1335 B(  0-S ,  4-C ) :   1.1741 B(  1-C ,  2-C ) :   1.6171
B(  1-C , 32-H ) :   0.9688 B(  2-C ,  3-C ) :   1.2263 B(  2-C ,  6-C ) :   1.0407
B(  3-C ,  4-C ) :   1.5893 B(  3-C ,  5-H ) :   0.9914 B(  4-C , 20-C ) :   0.9963
B(  6-C ,  7-H ) :   0.9300 B(  6-C ,  8-H ) :   0.9480 B(  6-C ,  9-C ) :   1.0396
B(  9-C , 10-H ) :   0.9519 B(  9-C , 11-H ) :   0.9579 B(  9-C , 12-C ) :   1.0816
B( 12-C , 13-H ) :   0.9705 B( 12-C , 14-H ) :   0.9716 B( 12-C , 15-H ) :   0.9730
B( 16-S , 17-C ) :   1.1457 B( 16-S , 20-C ) :   1.1497 B( 17-C , 18-C ) :   1.6276
B( 17-C , 33-H ) :   0.9688 B( 18-C , 19-C ) :   1.2208 B( 18-C , 21-H ) :   1.0018
B( 19-C , 20-C ) :   1.6257 B( 19-C , 22-C ) :   1.0345 B( 22-C , 23-H ) :   0.9407
B( 22-C , 24-H ) :   0.9293 B( 22-C , 25-C ) :   1.0467 B( 25-C , 26-H ) :   0.9563
B( 25-C , 27-H ) :   0.9551 B( 25-C , 28-C ) :   1.0818 B( 28-C , 29-H ) :   0.9729
B( 28-C , 30-H ) :   0.9678 B( 28-C , 31-H ) :   0.9719

Dispersion correction           -0.013817666
FINAL SINGLE POINT ENERGY     -1339.874183676072

DIPOLE MOMENT
-------------
                                X             Y             Z
Electronic contribution:     -2.84647     -17.74101      14.22959
Nuclear contribution   :      2.68855      18.28772     -14.46540
                        -----------------------------------------
Total Dipole Moment    :     -0.15791       0.54671      -0.23581
                        -----------------------------------------
Magnitude (a.u.)       :      0.61599
Magnitude (Debye)      :      1.56571

Rotational constants in cm-1:     0.019110     0.007628     0.006554
Rotational constants in MHz :   572.906467   228.690912   196.479989

                             ****ORCA TERMINATED NORMALLY****
TOTAL RUN TIME: 0 days 0 hours 0 minutes 34 seconds 175 msec
