                         Program Version 4.2.1 -  RELEASE  -
|  1> ! wB97X-D3 SP def2-SVP
|  2> %pal
|  3> nprocs 16
|  4> end
|  5>
|  6> * xyz 0 1
|  7> S 	 -108.559 	 54.2593 	 120.026
|  8> C 	 -108.95 	 53.3595 	 121.472
|  9> C 	 -107.769 	 52.9163 	 122.072
| 10> C 	 -106.599 	 53.3312 	 121.356
| 11> C 	 -106.817 	 54.082 	 120.257
| 12> H 	 -105.659 	 52.9294 	 121.637
| 13> C 	 -107.616 	 52.3 	 123.4
| 14> H 	 -106.653 	 51.7591 	 123.462
| 15> H 	 -108.425 	 51.5854 	 123.556
| 16> C 	 -107.59 	 53.341 	 124.551
| 17> H 	 -108.429 	 53.9556 	 124.511
| 18> H 	 -107.559 	 52.8632 	 125.507
| 19> C 	 -106.503 	 54.3772 	 124.418
| 20> H 	 -106.462 	 55.0543 	 125.268
| 21> H 	 -105.563 	 53.7976 	 124.441
| 22> H 	 -106.594 	 54.8861 	 123.437
| 23> S 	 -105.173 	 56.1602 	 119.566
| 24> C 	 -103.999 	 55.9311 	 118.374
| 25> C 	 -103.992 	 54.6981 	 117.849
| 26> C 	 -104.963 	 53.8467 	 118.35
| 27> C 	 -105.803 	 54.4931 	 119.293
| 28> H 	 -103.203 	 54.5525 	 117.217
| 29> C 	 -105.073 	 52.3811 	 117.966
| 30> H 	 -104.79 	 52.0356 	 116.981
| 31> H 	 -106.131 	 52.177 	 118.142
| 32> C 	 -104.315 	 51.4179 	 118.939
| 33> H 	 -104.6 	 50.3898 	 118.608
| 34> H 	 -104.728 	 51.3631 	 119.943
| 35> C 	 -102.886 	 51.6692 	 118.964
| 36> H 	 -102.609 	 52.6646 	 119.219
| 37> H 	 -102.502 	 51.327 	 117.983
| 38> H 	 -102.451 	 50.9772 	 119.662
| 39> H 	 -109.948 	 53.0114 	 121.763
| 40> H 	 -103.381 	 56.728 	 117.95
| 41> *
| 42>
| 43>                          ****END OF INPUT****

CARTESIAN COORDINATES (ANGSTROEM)
---------------------------------
  S    -108.559000   54.259300  120.026000
  C    -108.950000   53.359500  121.472000
  C    -107.769000   52.916300  122.072000
  C    -106.599000   53.331200  121.356000
  C    -106.817000   54.082000  120.257000
  H    -105.659000   52.929400  121.637000
  C    -107.616000   52.300000  123.400000
  H    -106.653000   51.759100  123.462000
  H    -108.425000   51.585400  123.556000
  C    -107.590000   53.341000  124.551000
  H    -108.429000   53.955600  124.511000
  H    -107.559000   52.863200  125.507000
  C    -106.503000   54.377200  124.418000
  H    -106.462000   55.054300  125.268000
  H    -105.563000   53.797600  124.441000
  H    -106.594000   54.886100  123.437000
  S    -105.173000   56.160200  119.566000
  C    -103.999000   55.931100  118.374000
  C    -103.992000   54.698100  117.849000
  C    -104.963000   53.846700  118.350000
  C    -105.803000   54.493100  119.293000
  H    -103.203000   54.552500  117.217000
  C    -105.073000   52.381100  117.966000
  H    -104.790000   52.035600  116.981000
  H    -106.131000   52.177000  118.142000
  C    -104.315000   51.417900  118.939000
  H    -104.600000   50.389800  118.608000
  H    -104.728000   51.363100  119.943000
  C    -102.886000   51.669200  118.964000
  H    -102.609000   52.664600  119.219000
  H    -102.502000   51.327000  117.983000
  H    -102.451000   50.977200  119.662000
  H    -109.948000   53.011400  121.763000
  H    -103.381000   56.728000  117.950000

 Total Charge           Charge          ....    0
 Multiplicity           Mult            ....    1
 Number of Electrons    NEL             ....  134
 Basis Dimension        Dim             ....  322

ORBITAL ENERGIES
----------------

  NO   OCC          E(Eh)            E(eV)
   0   2.0000     -88.965958     -2420.8868
   1   2.0000     -88.961849     -2420.7750
   2   2.0000     -10.330084      -281.0959
   3   2.0000     -10.327622      -281.0289
   4   2.0000     -10.319716      -280.8137
   5   2.0000     -10.308290      -280.5028
   6   2.0000     -10.308014      -280.4953
   7   2.0000     -10.297754      -280.2161
   8   2.0000     -10.291405      -280.0434
   9   2.0000     -10.289519      -279.9921
  10   2.0000     -10.288279      -279.9583
  11   2.0000     -10.280821      -279.7554
  12   2.0000     -10.276473      -279.6371
  13   2.0000     -10.274594      -279.5859
  14   2.0000     -10.272295      -279.5234
  15   2.0000     -10.267791      -279.4008
  16   2.0000      -8.080383      -219.8784
  17   2.0000      -8.077353      -219.7959
  18   2.0000      -6.038978      -164.3290
  19   2.0000      -6.035560      -164.2359
  20   2.0000      -6.034804      -164.2154
  21   2.0000      -6.031710      -164.1312
  22   2.0000      -6.031175      -164.1166
  23   2.0000      -6.028426      -164.0418
  24   2.0000      -1.008540       -27.4438
  25   2.0000      -0.989956       -26.9381
  26   2.0000      -0.917280       -24.9605
  27   2.0000      -0.915084       -24.9007
  28   2.0000      -0.872607       -23.7448
  29   2.0000      -0.855748       -23.2861
  30   2.0000      -0.847850       -23.0712
  31   2.0000      -0.819917       -22.3111
  32   2.0000      -0.785814       -21.3831
  33   2.0000      -0.770896       -20.9771
  34   2.0000      -0.709823       -19.3153
  35   2.0000      -0.698056       -18.9951
  36   2.0000      -0.687329       -18.7032
  37   2.0000      -0.657771       -17.8989
  38   2.0000      -0.643685       -17.5156
  39   2.0000      -0.622200       -16.9309
  40   2.0000      -0.598147       -16.2764
  41   2.0000      -0.580933       -15.8080
  42   2.0000      -0.559336       -15.2203
  43   2.0000      -0.555823       -15.1247
  44   2.0000      -0.552567       -15.0361
  45   2.0000      -0.546777       -14.8785
  46   2.0000      -0.517180       -14.0732
  47   2.0000      -0.510104       -13.8806
  48   2.0000      -0.503379       -13.6976
  49   2.0000      -0.496331       -13.5059
  50   2.0000      -0.494042       -13.4436
  51   2.0000      -0.485270       -13.2049
  52   2.0000      -0.472093       -12.8463
  53   2.0000      -0.467964       -12.7339
  54   2.0000      -0.460722       -12.5369
  55   2.0000      -0.443055       -12.0561
  56   2.0000      -0.439282       -11.9535
  57   2.0000      -0.433111       -11.7856
  58   2.0000      -0.429730       -11.6935
  59   2.0000      -0.423650       -11.5281
  60   2.0000      -0.420673       -11.4471
  61   2.0000      -0.410827       -11.1792
  62   2.0000      -0.408975       -11.1288
  63   2.0000      -0.338484        -9.2106
  64   2.0000      -0.330137        -8.9835
  65   2.0000      -0.319658        -8.6983
  66   2.0000      -0.309530        -8.4227
  67   0.0000       0.041258         1.1227
  68   0.0000       0.049968         1.3597
  69   0.0000       0.113779         3.0961
  70   0.0000       0.120858         3.2887
  71   0.0000       0.131597         3.5809

MULLIKEN ATOMIC CHARGES
-----------------------
   0 S :    0.112836
   1 C :   -0.118361
   2 C :   -0.124684
   3 C :    0.060995
   4 C :   -0.150051
   5 H :    0.000742
   6 C :    0.056045
   7 H :    0.023031
   8 H :    0.025327
   9 C :   -0.017843
  10 H :    0.004900
  11 H :    0.024698
  12 C :   -0.081186
  13 H :    0.037675
  14 H :    0.012473
  15 H :    0.065184
  16 S :    0.104805
  17 C :   -0.085674
  18 C :   -0.028941
  19 C :    0.021506
  20 C :   -0.198669
  21 H :   -0.020444
  22 C :    0.086436
  23 H :    0.026237
  24 H :    0.028110
  25 C :   -0.096040
  26 H :    0.020694
  27 H :    0.010966
  28 C :   -0.002778
  29 H :    0.044583
  30 H :    0.017857
  31 H :    0.021025
  32 H :    0.060084
  33 H :    0.058459
Sum of atomic charges:    0.0000000

LOEWDIN ATOMIC CHARGES
----------------------
   0 S :    0.404735
   1 C :   -0.197726
   2 C :   -0.069941
   3 C :   -0.050111
   4 C :   -0.207560
   5 H :    0.024265
   6 C :   -0.032531
   7 H :    0.030592
   8 H :    0.030517
   9 C :   -0.032792
  10 H :    0.014409
  11 H :    0.020250
  12 C :   -0.065250
  13 H :    0.026273
  14 H :    0.018928
  15 H :    0.033660
  16 S :    0.414924
  17 C :   -0.194398
  18 C :   -0.080229
  19 C :   -0.041237
  20 C :   -0.188086
  21 H :    0.020069
  22 C :   -0.026824
  23 H :    0.028971
  24 H :    0.036017
  25 C :   -0.044263
  26 H :    0.026299
  27 H :    0.016433
  28 C :   -0.062465
  29 H :    0.023751
  30 H :    0.027897
  31 H :    0.026208
  32 H :    0.035411
  33 H :    0.033803

  Mayer bond orders larger than 0.100000
B(  0-S ,  1-C ) :   1.1484 B(  0-S ,  4-C ) :   1.1384 B(  1-C ,  2-C ) :   1.5885
B(  1-C , 32-H ) :   0.9670 B(  2-C ,  3-C ) :   1.2508 B(  2-C ,  6-C ) :   1.0453
B(  3-C ,  4-C ) :   1.5760 B(  3-C ,  5-H ) :   0.9992 B(  4-C , 20-C ) :   1.0094
B(  6-C ,  7-H ) :   0.9406 B(  6-C ,  8-H ) :   0.9339 B(  6-C ,  9-C ) :   1.0679
B(  9-C , 10-H ) :   0.9514 B(  9-C , 11-H ) :   0.9571 B(  9-C , 12-C ) :   1.0817
B( 12-C , 13-H ) :   0.9714 B( 12-C , 14-H ) :   0.9752 B( 12-C , 15-H ) :   0.9664
B( 16-S , 17-C ) :   1.1797 B( 16-S , 20-C ) :   1.1580 B( 17-C , 18-C ) :   1.6046
B( 17-C , 20-C ) :   0.1076 B( 17-C , 33-H ) :   0.9574 B( 18-C , 19-C ) :   1.2321
B( 18-C , 21-H ) :   1.0149 B( 19-C , 20-C ) :   1.5676 B( 19-C , 22-C ) :   1.0410
B( 22-C , 23-H ) :   0.9499 B( 22-C , 24-H ) :   0.9219 B( 22-C , 25-C ) :   1.0744
B( 25-C , 26-H ) :   0.9510 B( 25-C , 27-H ) :   0.9515 B( 25-C , 28-C ) :   1.0885
B( 28-C , 29-H ) :   0.9703 B( 28-C , 30-H ) :   0.9695 B( 28-C , 31-H ) :   0.9650

Dispersion correction           -0.015798515
FINAL SINGLE POINT ENERGY     -1339.866288969405

DIPOLE MOMENT
-------------
                                X             Y             Z
Electronic contribution:     -9.80175      15.76317     -11.61197
Nuclear contribution   :     10.10970     -16.30120      11.81789
                        -----------------------------------------
Total Dipole Moment    :      0.30795      -0.53803       0.20592
                        -----------------------------------------
Magnitude (a.u.)       :      0.65323
Magnitude (Debye)      :      1.66038

Rotational constants in cm-1:     0.019358     0.009051     0.008262
Rotational constants in MHz :   580.339182   271.334596   247.702652

                             ****ORCA TERMINATED NORMALLY****
TOTAL RUN TIME: 0 days 0 hours 0 minutes 35 seconds 803 msec
