                         Program Version 4.2.1 -  RELEASE  -
|  1> ! wB97X-D3 SP def2-SVP
|  2> %pal
|  3> nprocs 16
|  4> end
|  5>
|  6> * xyz 0 1
|  7> S 	 -46.8147 	 -0.886401 	 98.803
|  8> C 	 -47.3552 	 -2.21365 	 97.81
|  9> C 	 -47.5091 	 -1.84043 	 96.5327
| 10> C 	 -47.2004 	 -0.493125 	 96.3667
| 11> C 	 -46.78 	 0.202269 	 97.4319
| 12> H 	 -47.2221 	 0.0655042 	 95.4715
| 13> C 	 -47.7746 	 -2.78072 	 95.371
| 14> H 	 -48.5662 	 -3.3893 	 95.6984
| 15> H 	 -46.945 	 -3.50121 	 95.2691
| 16> C 	 -48.1699 	 -2.23743 	 94.0177
| 17> H 	 -48.7177 	 -2.99368 	 93.4796
| 18> H 	 -49.0011 	 -1.47089 	 94.047
| 19> C 	 -47.0573 	 -1.85718 	 93.0196
| 20> H 	 -46.7006 	 -0.859917 	 93.2233
| 21> H 	 -46.2318 	 -2.48648 	 93.0031
| 22> H 	 -47.4578 	 -1.92555 	 92.0275
| 23> S 	 -45.41 	 2.18838 	 98.7775
| 24> C 	 -45.1944 	 3.72797 	 98.0222
| 25> C 	 -46.0183 	 3.90431 	 96.9218
| 26> C 	 -46.6315 	 2.68806 	 96.52
| 27> C 	 -46.3917 	 1.60665 	 97.4023
| 28> H 	 -46.1328 	 4.82109 	 96.4055
| 29> C 	 -47.5273 	 2.57085 	 95.2808
| 30> H 	 -48.106 	 3.43831 	 95.3029
| 31> H 	 -48.2914 	 1.88758 	 95.4441
| 32> C 	 -46.8283 	 2.27679 	 93.9748
| 33> H 	 -46.3263 	 1.31438 	 93.8834
| 34> H 	 -46.06 	 3.09712 	 93.835
| 35> C 	 -47.883 	 2.31835 	 92.8493
| 36> H 	 -48.4966 	 3.24932 	 92.8643
| 37> H 	 -48.6045 	 1.45165 	 92.8898
| 38> H 	 -47.3974 	 2.28273 	 91.803
| 39> H 	 -47.5268 	 -3.19583 	 98.2444
| 40> H 	 -44.5575 	 4.49315 	 98.4074
| 41> *
| 42>
| 43>                          ****END OF INPUT****

CARTESIAN COORDINATES (ANGSTROEM)
---------------------------------
  S    -46.814700   -0.886401   98.803000
  C    -47.355200   -2.213650   97.810000
  C    -47.509100   -1.840430   96.532700
  C    -47.200400   -0.493125   96.366700
  C    -46.780000    0.202269   97.431900
  H    -47.222100    0.065504   95.471500
  C    -47.774600   -2.780720   95.371000
  H    -48.566200   -3.389300   95.698400
  H    -46.945000   -3.501210   95.269100
  C    -48.169900   -2.237430   94.017700
  H    -48.717700   -2.993680   93.479600
  H    -49.001100   -1.470890   94.047000
  C    -47.057300   -1.857180   93.019600
  H    -46.700600   -0.859917   93.223300
  H    -46.231800   -2.486480   93.003100
  H    -47.457800   -1.925550   92.027500
  S    -45.410000    2.188380   98.777500
  C    -45.194400    3.727970   98.022200
  C    -46.018300    3.904310   96.921800
  C    -46.631500    2.688060   96.520000
  C    -46.391700    1.606650   97.402300
  H    -46.132800    4.821090   96.405500
  C    -47.527300    2.570850   95.280800
  H    -48.106000    3.438310   95.302900
  H    -48.291400    1.887580   95.444100
  C    -46.828300    2.276790   93.974800
  H    -46.326300    1.314380   93.883400
  H    -46.060000    3.097120   93.835000
  C    -47.883000    2.318350   92.849300
  H    -48.496600    3.249320   92.864300
  H    -48.604500    1.451650   92.889800
  H    -47.397400    2.282730   91.803000
  H    -47.526800   -3.195830   98.244400
  H    -44.557500    4.493150   98.407400

 Total Charge           Charge          ....    0
 Multiplicity           Mult            ....    1
 Number of Electrons    NEL             ....  134
 Basis Dimension        Dim             ....  322

ORBITAL ENERGIES
----------------

  NO   OCC          E(Eh)            E(eV)
   0   2.0000     -88.965575     -2420.8764
   1   2.0000     -88.962183     -2420.7841
   2   2.0000     -10.332243      -281.1546
   3   2.0000     -10.323780      -280.9243
   4   2.0000     -10.316604      -280.7291
   5   2.0000     -10.308208      -280.5006
   6   2.0000     -10.306409      -280.4516
   7   2.0000     -10.295237      -280.1476
   8   2.0000     -10.293417      -280.0981
   9   2.0000     -10.292619      -280.0764
  10   2.0000     -10.292438      -280.0715
  11   2.0000     -10.290641      -280.0226
  12   2.0000     -10.289640      -279.9953
  13   2.0000     -10.282641      -279.8049
  14   2.0000     -10.276353      -279.6338
  15   2.0000     -10.271895      -279.5125
  16   2.0000      -8.080222      -219.8740
  17   2.0000      -8.077204      -219.7919
  18   2.0000      -6.038670      -164.3206
  19   2.0000      -6.035867      -164.2443
  20   2.0000      -6.034781      -164.2147
  21   2.0000      -6.031702      -164.1310
  22   2.0000      -6.031038      -164.1129
  23   2.0000      -6.027760      -164.0237
  24   2.0000      -1.011831       -27.5333
  25   2.0000      -0.987341       -26.8669
  26   2.0000      -0.915845       -24.9214
  27   2.0000      -0.913399       -24.8549
  28   2.0000      -0.874939       -23.8083
  29   2.0000      -0.853018       -23.2118
  30   2.0000      -0.845494       -23.0071
  31   2.0000      -0.818935       -22.2843
  32   2.0000      -0.789567       -21.4852
  33   2.0000      -0.774923       -21.0867
  34   2.0000      -0.711121       -19.3506
  35   2.0000      -0.702160       -19.1067
  36   2.0000      -0.696905       -18.9637
  37   2.0000      -0.667194       -18.1553
  38   2.0000      -0.643801       -17.5187
  39   2.0000      -0.628907       -17.1134
  40   2.0000      -0.600675       -16.3452
  41   2.0000      -0.570301       -15.5187
  42   2.0000      -0.569270       -15.4906
  43   2.0000      -0.550717       -14.9858
  44   2.0000      -0.537668       -14.6307
  45   2.0000      -0.528469       -14.3804
  46   2.0000      -0.519442       -14.1347
  47   2.0000      -0.511855       -13.9283
  48   2.0000      -0.509914       -13.8755
  49   2.0000      -0.503409       -13.6985
  50   2.0000      -0.494586       -13.4584
  51   2.0000      -0.489848       -13.3294
  52   2.0000      -0.469734       -12.7821
  53   2.0000      -0.467747       -12.7280
  54   2.0000      -0.458589       -12.4788
  55   2.0000      -0.451810       -12.2944
  56   2.0000      -0.444885       -12.1059
  57   2.0000      -0.442641       -12.0449
  58   2.0000      -0.437797       -11.9131
  59   2.0000      -0.428092       -11.6490
  60   2.0000      -0.424140       -11.5414
  61   2.0000      -0.408274       -11.1097
  62   2.0000      -0.406290       -11.0557
  63   2.0000      -0.362827        -9.8730
  64   2.0000      -0.335649        -9.1335
  65   2.0000      -0.328963        -8.9515
  66   2.0000      -0.280300        -7.6273
  67   0.0000       0.022729         0.6185
  68   0.0000       0.080744         2.1971
  69   0.0000       0.108040         2.9399
  70   0.0000       0.119383         3.2486
  71   0.0000       0.131944         3.5904

MULLIKEN ATOMIC CHARGES
-----------------------
   0 S :    0.100051
   1 C :   -0.161342
   2 C :   -0.005735
   3 C :   -0.015831
   4 C :   -0.056860
   5 H :   -0.069502
   6 C :    0.116848
   7 H :    0.009009
   8 H :    0.038717
   9 C :   -0.111989
  10 H :    0.015314
  11 H :    0.030656
  12 C :    0.012515
  13 H :    0.012931
  14 H :    0.011942
  15 H :    0.024227
  16 S :    0.098324
  17 C :   -0.074718
  18 C :   -0.008144
  19 C :   -0.065191
  20 C :   -0.149311
  21 H :    0.003761
  22 C :    0.087904
  23 H :   -0.000462
  24 H :   -0.000558
  25 C :   -0.050637
  26 H :    0.045942
  27 H :    0.036409
  28 C :   -0.094180
  29 H :    0.035501
  30 H :    0.039632
  31 H :    0.046509
  32 H :    0.046860
  33 H :    0.051405
Sum of atomic charges:   -0.0000000

LOEWDIN ATOMIC CHARGES
----------------------
   0 S :    0.394925
   1 C :   -0.189839
   2 C :   -0.067398
   3 C :   -0.070743
   4 C :   -0.186988
   5 H :    0.020743
   6 C :   -0.029358
   7 H :    0.029445
   8 H :    0.039051
   9 C :   -0.050353
  10 H :    0.026307
  11 H :    0.030924
  12 C :   -0.054242
  13 H :    0.017778
  14 H :    0.017106
  15 H :    0.027303
  16 S :    0.399925
  17 C :   -0.180995
  18 C :   -0.068148
  19 C :   -0.050044
  20 C :   -0.177067
  21 H :    0.027250
  22 C :   -0.032240
  23 H :    0.027027
  24 H :    0.020555
  25 C :   -0.040422
  26 H :    0.023627
  27 H :    0.032222
  28 C :   -0.077135
  29 H :    0.025577
  30 H :    0.027349
  31 H :    0.033357
  32 H :    0.029557
  33 H :    0.024944

  Mayer bond orders larger than 0.100000
B(  0-S ,  1-C ) :   1.1358 B(  0-S ,  4-C ) :   1.1208 B(  1-C ,  2-C ) :   1.6066
B(  1-C , 32-H ) :   0.9739 B(  2-C ,  3-C ) :   1.2384 B(  2-C ,  6-C ) :   1.0036
B(  3-C ,  4-C ) :   1.5902 B(  3-C ,  5-H ) :   1.0045 B(  4-C , 20-C ) :   1.0855
B(  6-C ,  7-H ) :   0.9226 B(  6-C ,  8-H ) :   0.9366 B(  6-C ,  9-C ) :   1.0898
B(  9-C , 10-H ) :   0.9512 B(  9-C , 11-H ) :   0.9506 B(  9-C , 12-C ) :   1.0747
B( 12-C , 13-H ) :   0.9780 B( 12-C , 14-H ) :   0.9682 B( 12-C , 15-H ) :   0.9711
B( 16-S , 17-C ) :   1.1715 B( 16-S , 20-C ) :   1.1302 B( 17-C , 18-C ) :   1.5717
B( 17-C , 20-C ) :   0.1056 B( 17-C , 33-H ) :   0.9705 B( 18-C , 19-C ) :   1.2725
B( 18-C , 21-H ) :   0.9971 B( 19-C , 20-C ) :   1.5623 B( 19-C , 22-C ) :   1.0284
B( 22-C , 23-H ) :   0.9236 B( 22-C , 24-H ) :   0.9302 B( 22-C , 25-C ) :   1.0557
B( 25-C , 26-H ) :   0.9472 B( 25-C , 27-H ) :   0.9493 B( 25-C , 28-C ) :   1.0761
B( 28-C , 29-H ) :   0.9744 B( 28-C , 30-H ) :   0.9718 B( 28-C , 31-H ) :   0.9742

Dispersion correction           -0.015462156
FINAL SINGLE POINT ENERGY     -1339.871621550810

DIPOLE MOMENT
-------------
                                X             Y             Z
Electronic contribution:      8.88632       3.70009      32.65321
Nuclear contribution   :     -9.13726      -3.73317     -33.42520
                        -----------------------------------------
Total Dipole Moment    :     -0.25094      -0.03308      -0.77199
                        -----------------------------------------
Magnitude (a.u.)       :      0.81243
Magnitude (Debye)      :      2.06502

Rotational constants in cm-1:     0.016461     0.011400     0.007069
Rotational constants in MHz :   493.484646   341.772481   211.924538

                             ****ORCA TERMINATED NORMALLY****
TOTAL RUN TIME: 0 days 0 hours 0 minutes 32 seconds 511 msec
