                         Program Version 4.2.1 -  RELEASE  -
|  1> ! wB97X-D3 SP def2-SVP
|  2> %pal
|  3> nprocs 16
|  4> end
|  5>
|  6> * xyz 0 1
|  7> S 	 -32.2167 	 78.0532 	 156.081
|  8> C 	 -30.9294 	 79.0012 	 156.826
|  9> C 	 -30.2181 	 78.2279 	 157.702
| 10> C 	 -30.7034 	 76.9364 	 157.82
| 11> C 	 -31.8201 	 76.6358 	 157.043
| 12> H 	 -30.125 	 76.1973 	 158.392
| 13> C 	 -28.946 	 78.675 	 158.414
| 14> H 	 -28.9768 	 78.3453 	 159.435
| 15> H 	 -28.9833 	 79.8032 	 158.403
| 16> C 	 -27.6297 	 78.2812 	 157.756
| 17> H 	 -27.2876 	 77.2642 	 158.039
| 18> H 	 -27.7162 	 78.3148 	 156.619
| 19> C 	 -26.4616 	 79.2986 	 158.115
| 20> H 	 -26.5582 	 80.3533 	 157.845
| 21> H 	 -26.3025 	 79.2858 	 159.218
| 22> H 	 -25.4552 	 79.0112 	 157.783
| 23> S 	 -31.4031 	 74.5481 	 155.299
| 24> C 	 -32.0956 	 72.9891 	 155.632
| 25> C 	 -32.8092 	 73.0457 	 156.802
| 26> C 	 -33.0046 	 74.3118 	 157.366
| 27> C 	 -32.2633 	 75.2852 	 156.716
| 28> H 	 -33.2594 	 72.1377 	 157.227
| 29> C 	 -33.8332 	 74.5243 	 158.628
| 30> H 	 -34.4592 	 75.3945 	 158.503
| 31> H 	 -33.0978 	 74.6876 	 159.404
| 32> C 	 -34.7616 	 73.3256 	 159.023
| 33> H 	 -35.1779 	 73.6045 	 160.023
| 34> H 	 -34.2136 	 72.4429 	 159.215
| 35> C 	 -36.0402 	 73.1977 	 158.171
| 36> H 	 -36.7467 	 74.0327 	 158.225
| 37> H 	 -36.5657 	 72.2159 	 158.396
| 38> H 	 -35.9043 	 73.0967 	 157.093
| 39> H 	 -30.8285 	 80.0567 	 156.591
| 40> H 	 -32.081 	 72.123 	 155.036
| 41> *
| 42>
| 43>                          ****END OF INPUT****

CARTESIAN COORDINATES (ANGSTROEM)
---------------------------------
  S    -32.216700   78.053200  156.081000
  C    -30.929400   79.001200  156.826000
  C    -30.218100   78.227900  157.702000
  C    -30.703400   76.936400  157.820000
  C    -31.820100   76.635800  157.043000
  H    -30.125000   76.197300  158.392000
  C    -28.946000   78.675000  158.414000
  H    -28.976800   78.345300  159.435000
  H    -28.983300   79.803200  158.403000
  C    -27.629700   78.281200  157.756000
  H    -27.287600   77.264200  158.039000
  H    -27.716200   78.314800  156.619000
  C    -26.461600   79.298600  158.115000
  H    -26.558200   80.353300  157.845000
  H    -26.302500   79.285800  159.218000
  H    -25.455200   79.011200  157.783000
  S    -31.403100   74.548100  155.299000
  C    -32.095600   72.989100  155.632000
  C    -32.809200   73.045700  156.802000
  C    -33.004600   74.311800  157.366000
  C    -32.263300   75.285200  156.716000
  H    -33.259400   72.137700  157.227000
  C    -33.833200   74.524300  158.628000
  H    -34.459200   75.394500  158.503000
  H    -33.097800   74.687600  159.404000
  C    -34.761600   73.325600  159.023000
  H    -35.177900   73.604500  160.023000
  H    -34.213600   72.442900  159.215000
  C    -36.040200   73.197700  158.171000
  H    -36.746700   74.032700  158.225000
  H    -36.565700   72.215900  158.396000
  H    -35.904300   73.096700  157.093000
  H    -30.828500   80.056700  156.591000
  H    -32.081000   72.123000  155.036000

 Total Charge           Charge          ....    0
 Multiplicity           Mult            ....    1
 Number of Electrons    NEL             ....  134
 Basis Dimension        Dim             ....  322

ORBITAL ENERGIES
----------------

  NO   OCC          E(Eh)            E(eV)
   0   2.0000     -88.965289     -2420.8686
   1   2.0000     -88.960584     -2420.7406
   2   2.0000     -10.329429      -281.0781
   3   2.0000     -10.326027      -280.9855
   4   2.0000     -10.316353      -280.7222
   5   2.0000     -10.311412      -280.5878
   6   2.0000     -10.300480      -280.2903
   7   2.0000     -10.299571      -280.2656
   8   2.0000     -10.295455      -280.1536
   9   2.0000     -10.295311      -280.1497
  10   2.0000     -10.292633      -280.0768
  11   2.0000     -10.292435      -280.0714
  12   2.0000     -10.292397      -280.0704
  13   2.0000     -10.286385      -279.9068
  14   2.0000     -10.284383      -279.8523
  15   2.0000     -10.283440      -279.8266
  16   2.0000      -8.079760      -219.8615
  17   2.0000      -8.074696      -219.7236
  18   2.0000      -6.038201      -164.3078
  19   2.0000      -6.034161      -164.1979
  20   2.0000      -6.033256      -164.1732
  21   2.0000      -6.030742      -164.1048
  22   2.0000      -6.029237      -164.0639
  23   2.0000      -6.025475      -163.9615
  24   2.0000      -1.004611       -27.3369
  25   2.0000      -0.983904       -26.7734
  26   2.0000      -0.907522       -24.6949
  27   2.0000      -0.904737       -24.6192
  28   2.0000      -0.866352       -23.5746
  29   2.0000      -0.846677       -23.0392
  30   2.0000      -0.843567       -22.9546
  31   2.0000      -0.809174       -22.0187
  32   2.0000      -0.782510       -21.2932
  33   2.0000      -0.772553       -21.0222
  34   2.0000      -0.709308       -19.3013
  35   2.0000      -0.702165       -19.1069
  36   2.0000      -0.696823       -18.9615
  37   2.0000      -0.654768       -17.8172
  38   2.0000      -0.641533       -17.4570
  39   2.0000      -0.618709       -16.8359
  40   2.0000      -0.599151       -16.3037
  41   2.0000      -0.570046       -15.5117
  42   2.0000      -0.558553       -15.1990
  43   2.0000      -0.554124       -15.0785
  44   2.0000      -0.525782       -14.3072
  45   2.0000      -0.522071       -14.2063
  46   2.0000      -0.510258       -13.8848
  47   2.0000      -0.509380       -13.8609
  48   2.0000      -0.506351       -13.7785
  49   2.0000      -0.500819       -13.6280
  50   2.0000      -0.490116       -13.3367
  51   2.0000      -0.476881       -12.9766
  52   2.0000      -0.469837       -12.7849
  53   2.0000      -0.467448       -12.7199
  54   2.0000      -0.456928       -12.4336
  55   2.0000      -0.451550       -12.2873
  56   2.0000      -0.441478       -12.0132
  57   2.0000      -0.433687       -11.8012
  58   2.0000      -0.429132       -11.6773
  59   2.0000      -0.427617       -11.6361
  60   2.0000      -0.423143       -11.5143
  61   2.0000      -0.413424       -11.2498
  62   2.0000      -0.407066       -11.0768
  63   2.0000      -0.338692        -9.2163
  64   2.0000      -0.327679        -8.9166
  65   2.0000      -0.321149        -8.7389
  66   2.0000      -0.305510        -8.3133
  67   0.0000       0.035463         0.9650
  68   0.0000       0.052222         1.4210
  69   0.0000       0.123528         3.3614
  70   0.0000       0.124795         3.3958
  71   0.0000       0.132373         3.6021

MULLIKEN ATOMIC CHARGES
-----------------------
   0 S :    0.104642
   1 C :   -0.144076
   2 C :   -0.073930
   3 C :    0.041236
   4 C :   -0.165543
   5 H :    0.018999
   6 C :    0.069721
   7 H :    0.028659
   8 H :    0.025448
   9 C :   -0.073788
  10 H :    0.038117
  11 H :    0.049509
  12 C :   -0.086942
  13 H :    0.039466
  14 H :    0.024712
  15 H :    0.030177
  16 S :    0.101656
  17 C :   -0.055382
  18 C :   -0.063417
  19 C :   -0.036471
  20 C :   -0.179463
  21 H :    0.020042
  22 C :    0.103570
  23 H :    0.032775
  24 H :    0.039837
  25 C :   -0.077732
  26 H :    0.033160
  27 H :    0.027616
  28 C :   -0.074776
  29 H :    0.038312
  30 H :    0.039532
  31 H :    0.029865
  32 H :    0.055633
  33 H :    0.038838
Sum of atomic charges:   -0.0000000

LOEWDIN ATOMIC CHARGES
----------------------
   0 S :    0.404282
   1 C :   -0.185165
   2 C :   -0.074909
   3 C :   -0.054947
   4 C :   -0.208002
   5 H :    0.035387
   6 C :   -0.031220
   7 H :    0.028181
   8 H :    0.036259
   9 C :   -0.041466
  10 H :    0.026970
  11 H :    0.033475
  12 C :   -0.079152
  13 H :    0.023990
  14 H :    0.025321
  15 H :    0.025901
  16 S :    0.388432
  17 C :   -0.179483
  18 C :   -0.081892
  19 C :   -0.055092
  20 C :   -0.186350
  21 H :    0.031517
  22 C :   -0.021602
  23 H :    0.033589
  24 H :    0.036536
  25 C :   -0.042534
  26 H :    0.034750
  27 H :    0.016616
  28 C :   -0.077537
  29 H :    0.028012
  30 H :    0.035177
  31 H :    0.021968
  32 H :    0.029254
  33 H :    0.023733

  Mayer bond orders larger than 0.100000
B(  0-S ,  1-C ) :   1.1561 B(  0-S ,  4-C ) :   1.1633 B(  1-C ,  2-C ) :   1.5698
B(  1-C ,  4-C ) :   0.1045 B(  1-C , 32-H ) :   0.9714 B(  2-C ,  3-C ) :   1.2968
B(  2-C ,  6-C ) :   1.0260 B(  3-C ,  4-C ) :   1.5330 B(  3-C ,  5-H ) :   0.9914
B(  4-C , 20-C ) :   1.0218 B(  6-C ,  7-H ) :   0.9356 B(  6-C ,  8-H ) :   0.9459
B(  6-C ,  9-C ) :   1.0509 B(  9-C , 10-H ) :   0.9545 B(  9-C , 11-H ) :   0.9610
B(  9-C , 12-C ) :   1.0701 B( 12-C , 13-H ) :   0.9781 B( 12-C , 14-H ) :   0.9754
B( 12-C , 15-H ) :   0.9765 B( 16-S , 17-C ) :   1.1582 B( 16-S , 20-C ) :   1.1347
B( 17-C , 18-C ) :   1.5970 B( 17-C , 20-C ) :   0.1061 B( 17-C , 33-H ) :   0.9692
B( 18-C , 19-C ) :   1.2765 B( 18-C , 21-H ) :   0.9752 B( 19-C , 20-C ) :   1.6049
B( 19-C , 22-C ) :   1.0130 B( 22-C , 23-H ) :   0.9377 B( 22-C , 24-H ) :   0.9265
B( 22-C , 25-C ) :   1.0925 B( 25-C , 26-H ) :   0.9518 B( 25-C , 27-H ) :   0.9527
B( 25-C , 28-C ) :   1.0642 B( 28-C , 29-H ) :   0.9745 B( 28-C , 30-H ) :   0.9735
B( 28-C , 31-H ) :   0.9781

Dispersion correction           -0.013688935
FINAL SINGLE POINT ENERGY     -1339.877485789390

DIPOLE MOMENT
-------------
                                X             Y             Z
Electronic contribution:     -4.41153       0.63666     -15.66386
Nuclear contribution   :      4.60844      -0.77974      16.17932
                        -----------------------------------------
Total Dipole Moment    :      0.19691      -0.14309       0.51546
                        -----------------------------------------
Magnitude (a.u.)       :      0.57004
Magnitude (Debye)      :      1.44894

Rotational constants in cm-1:     0.024172     0.006519     0.006267
Rotational constants in MHz :   724.663952   195.424813   187.882749

                             ****ORCA TERMINATED NORMALLY****
TOTAL RUN TIME: 0 days 0 hours 0 minutes 33 seconds 187 msec
