                         Program Version 4.2.1 -  RELEASE  -
|  1> ! wB97X-D3 SP def2-SVP
|  2> %pal
|  3> nprocs 16
|  4> end
|  5>
|  6> * xyz 0 1
|  7> S 	 -43.7887 	 50.5294 	 103.342
|  8> C 	 -44.0617 	 50.508 	 105.149
|  9> C 	 -43.3201 	 49.4243 	 105.692
| 10> C 	 -42.8255 	 48.5825 	 104.655
| 11> C 	 -43.1344 	 48.9225 	 103.374
| 12> H 	 -42.2405 	 47.6811 	 104.788
| 13> C 	 -43.3391 	 48.9425 	 107.148
| 14> H 	 -42.6817 	 48.0462 	 107.221
| 15> H 	 -44.3009 	 48.5283 	 107.44
| 16> C 	 -43.0655 	 50.0234 	 108.23
| 17> H 	 -43.8226 	 50.8566 	 108.153
| 18> H 	 -43.2706 	 49.748 	 109.19
| 19> C 	 -41.6999 	 50.7621 	 108.323
| 20> H 	 -41.6921 	 51.5417 	 109.081
| 21> H 	 -40.9115 	 50.0568 	 108.526
| 22> H 	 -41.5778 	 51.2404 	 107.333
| 23> S 	 -41.284 	 48.4949 	 101.282
| 24> C 	 -41.7641 	 47.3032 	 100.107
| 25> C 	 -43.0468 	 46.8035 	 100.314
| 26> C 	 -43.6793 	 47.2692 	 101.487
| 27> C 	 -42.8671 	 48.1975 	 102.159
| 28> H 	 -43.4138 	 46.0375 	 99.6848
| 29> C 	 -45.0655 	 46.8216 	 102.003
| 30> H 	 -45.7142 	 46.6773 	 101.154
| 31> H 	 -45.5505 	 47.584 	 102.599
| 32> C 	 -44.9521 	 45.4558 	 102.651
| 33> H 	 -44.356 	 44.8099 	 102.066
| 34> H 	 -45.9534 	 45.056 	 102.707
| 35> C 	 -44.1631 	 45.4449 	 104.016
| 36> H 	 -43.0974 	 45.5022 	 103.837
| 37> H 	 -44.4565 	 44.5051 	 104.561
| 38> H 	 -44.4136 	 46.3956 	 104.516
| 39> H 	 -44.5753 	 51.2715 	 105.763
| 40> H 	 -41.107 	 46.9554 	 99.3294
| 41> *
| 42>
| 43>                          ****END OF INPUT****

CARTESIAN COORDINATES (ANGSTROEM)
---------------------------------
  S    -43.788700   50.529400  103.342000
  C    -44.061700   50.508000  105.149000
  C    -43.320100   49.424300  105.692000
  C    -42.825500   48.582500  104.655000
  C    -43.134400   48.922500  103.374000
  H    -42.240500   47.681100  104.788000
  C    -43.339100   48.942500  107.148000
  H    -42.681700   48.046200  107.221000
  H    -44.300900   48.528300  107.440000
  C    -43.065500   50.023400  108.230000
  H    -43.822600   50.856600  108.153000
  H    -43.270600   49.748000  109.190000
  C    -41.699900   50.762100  108.323000
  H    -41.692100   51.541700  109.081000
  H    -40.911500   50.056800  108.526000
  H    -41.577800   51.240400  107.333000
  S    -41.284000   48.494900  101.282000
  C    -41.764100   47.303200  100.107000
  C    -43.046800   46.803500  100.314000
  C    -43.679300   47.269200  101.487000
  C    -42.867100   48.197500  102.159000
  H    -43.413800   46.037500   99.684800
  C    -45.065500   46.821600  102.003000
  H    -45.714200   46.677300  101.154000
  H    -45.550500   47.584000  102.599000
  C    -44.952100   45.455800  102.651000
  H    -44.356000   44.809900  102.066000
  H    -45.953400   45.056000  102.707000
  C    -44.163100   45.444900  104.016000
  H    -43.097400   45.502200  103.837000
  H    -44.456500   44.505100  104.561000
  H    -44.413600   46.395600  104.516000
  H    -44.575300   51.271500  105.763000
  H    -41.107000   46.955400   99.329400

 Total Charge           Charge          ....    0
 Multiplicity           Mult            ....    1
 Number of Electrons    NEL             ....  134
 Basis Dimension        Dim             ....  322

ORBITAL ENERGIES
----------------

  NO   OCC          E(Eh)            E(eV)
   0   2.0000     -88.967681     -2420.9337
   1   2.0000     -88.965156     -2420.8650
   2   2.0000     -10.328848      -281.0623
   3   2.0000     -10.327113      -281.0150
   4   2.0000     -10.322808      -280.8979
   5   2.0000     -10.320205      -280.8271
   6   2.0000     -10.309201      -280.5276
   7   2.0000     -10.308984      -280.5217
   8   2.0000     -10.302194      -280.3370
   9   2.0000     -10.292450      -280.0718
  10   2.0000     -10.291812      -280.0544
  11   2.0000     -10.291111      -280.0354
  12   2.0000     -10.284639      -279.8593
  13   2.0000     -10.280745      -279.7533
  14   2.0000     -10.278288      -279.6864
  15   2.0000     -10.275021      -279.5975
  16   2.0000      -8.081422      -219.9067
  17   2.0000      -8.078959      -219.8397
  18   2.0000      -6.039777      -164.3507
  19   2.0000      -6.037564      -164.2905
  20   2.0000      -6.036219      -164.2539
  21   2.0000      -6.033653      -164.1840
  22   2.0000      -6.032263      -164.1462
  23   2.0000      -6.029584      -164.0733
  24   2.0000      -1.000699       -27.2304
  25   2.0000      -0.976919       -26.5833
  26   2.0000      -0.909575       -24.7508
  27   2.0000      -0.905601       -24.6427
  28   2.0000      -0.863739       -23.5035
  29   2.0000      -0.845244       -23.0002
  30   2.0000      -0.842849       -22.9351
  31   2.0000      -0.809043       -22.0152
  32   2.0000      -0.786004       -21.3883
  33   2.0000      -0.774124       -21.0650
  34   2.0000      -0.705813       -19.2061
  35   2.0000      -0.701782       -19.0965
  36   2.0000      -0.693890       -18.8817
  37   2.0000      -0.656800       -17.8724
  38   2.0000      -0.638311       -17.3693
  39   2.0000      -0.612741       -16.6735
  40   2.0000      -0.600933       -16.3522
  41   2.0000      -0.571062       -15.5394
  42   2.0000      -0.550818       -14.9885
  43   2.0000      -0.545593       -14.8463
  44   2.0000      -0.543991       -14.8027
  45   2.0000      -0.534596       -14.5471
  46   2.0000      -0.520352       -14.1595
  47   2.0000      -0.510232       -13.8841
  48   2.0000      -0.499344       -13.5878
  49   2.0000      -0.494319       -13.4511
  50   2.0000      -0.490289       -13.3414
  51   2.0000      -0.477725       -12.9996
  52   2.0000      -0.469199       -12.7675
  53   2.0000      -0.465523       -12.6675
  54   2.0000      -0.459996       -12.5171
  55   2.0000      -0.447812       -12.1856
  56   2.0000      -0.443612       -12.0713
  57   2.0000      -0.438719       -11.9382
  58   2.0000      -0.429962       -11.6998
  59   2.0000      -0.421857       -11.4793
  60   2.0000      -0.418573       -11.3900
  61   2.0000      -0.411150       -11.1880
  62   2.0000      -0.409529       -11.1439
  63   2.0000      -0.337167        -9.1748
  64   2.0000      -0.328134        -8.9290
  65   2.0000      -0.316602        -8.6152
  66   2.0000      -0.309372        -8.4184
  67   0.0000       0.035075         0.9544
  68   0.0000       0.044560         1.2125
  69   0.0000       0.104629         2.8471
  70   0.0000       0.110463         3.0058
  71   0.0000       0.127000         3.4558

MULLIKEN ATOMIC CHARGES
-----------------------
   0 S :    0.108970
   1 C :   -0.145143
   2 C :   -0.057166
   3 C :    0.044971
   4 C :   -0.188178
   5 H :    0.011354
   6 C :    0.062182
   7 H :    0.028842
   8 H :    0.044756
   9 C :   -0.075390
  10 H :    0.013343
  11 H :   -0.002591
  12 C :   -0.050623
  13 H :    0.032499
  14 H :    0.031330
  15 H :    0.040021
  16 S :    0.110306
  17 C :   -0.088307
  18 C :   -0.023817
  19 C :   -0.018533
  20 C :   -0.204229
  21 H :    0.004143
  22 C :    0.106584
  23 H :    0.015591
  24 H :    0.040027
  25 C :   -0.061036
  26 H :    0.015069
  27 H :    0.029222
  28 C :   -0.083829
  29 H :    0.040816
  30 H :    0.050127
  31 H :    0.044296
  32 H :    0.067346
  33 H :    0.057046
Sum of atomic charges:   -0.0000000

LOEWDIN ATOMIC CHARGES
----------------------
   0 S :    0.386786
   1 C :   -0.179133
   2 C :   -0.063293
   3 C :   -0.059245
   4 C :   -0.207239
   5 H :    0.031188
   6 C :   -0.029885
   7 H :    0.033470
   8 H :    0.039778
   9 C :   -0.044465
  10 H :    0.026111
  11 H :    0.008243
  12 C :   -0.062772
  13 H :    0.025456
  14 H :    0.020076
  15 H :    0.028328
  16 S :    0.378136
  17 C :   -0.176716
  18 C :   -0.072471
  19 C :   -0.036988
  20 C :   -0.188837
  21 H :    0.025212
  22 C :   -0.022358
  23 H :    0.031340
  24 H :    0.031771
  25 C :   -0.034400
  26 H :    0.017737
  27 H :    0.021489
  28 C :   -0.069310
  29 H :    0.021684
  30 H :    0.033853
  31 H :    0.024521
  32 H :    0.034673
  33 H :    0.027258

  Mayer bond orders larger than 0.100000
B(  0-S ,  1-C ) :   1.1358 B(  0-S ,  4-C ) :   1.1370 B(  1-C ,  2-C ) :   1.5855
B(  1-C ,  4-C ) :   0.1082 B(  1-C , 32-H ) :   0.9671 B(  2-C ,  3-C ) :   1.2294
B(  2-C ,  6-C ) :   1.0133 B(  3-C ,  4-C ) :   1.6076 B(  3-C ,  5-H ) :   0.9904
B(  4-C , 20-C ) :   1.0375 B(  6-C ,  7-H ) :   0.9490 B(  6-C ,  8-H ) :   0.9392
B(  6-C ,  9-C ) :   1.0615 B(  9-C , 10-H ) :   0.9533 B(  9-C , 11-H ) :   0.9555
B(  9-C , 12-C ) :   1.0764 B( 12-C , 13-H ) :   0.9746 B( 12-C , 14-H ) :   0.9775
B( 12-C , 15-H ) :   0.9773 B( 16-S , 17-C ) :   1.1603 B( 16-S , 20-C ) :   1.1264
B( 17-C , 18-C ) :   1.6091 B( 17-C , 20-C ) :   0.1074 B( 17-C , 33-H ) :   0.9666
B( 18-C , 19-C ) :   1.2473 B( 18-C , 21-H ) :   0.9911 B( 19-C , 20-C ) :   1.5958
B( 19-C , 22-C ) :   1.0373 B( 22-C , 23-H ) :   0.9276 B( 22-C , 24-H ) :   0.9335
B( 22-C , 25-C ) :   1.0813 B( 25-C , 26-H ) :   0.9584 B( 25-C , 27-H ) :   0.9583
B( 25-C , 28-C ) :   1.0582 B( 28-C , 29-H ) :   0.9751 B( 28-C , 30-H ) :   0.9719
B( 28-C , 31-H ) :   0.9750

Dispersion correction           -0.015831486
FINAL SINGLE POINT ENERGY     -1339.864335850096

DIPOLE MOMENT
-------------
                                X             Y             Z
Electronic contribution:      5.67756       9.36507     -21.50655
Nuclear contribution   :     -5.95333      -9.90139      21.81291
                        -----------------------------------------
Total Dipole Moment    :     -0.27576      -0.53632       0.30637
                        -----------------------------------------
Magnitude (a.u.)       :      0.67642
Magnitude (Debye)      :      1.71932

Rotational constants in cm-1:     0.022130     0.008191     0.007136
Rotational constants in MHz :   663.428224   245.551790   213.934900

                             ****ORCA TERMINATED NORMALLY****
TOTAL RUN TIME: 0 days 0 hours 0 minutes 32 seconds 456 msec
