                         Program Version 4.2.1 -  RELEASE  -
|  1> ! wB97X-D3 SP def2-SVP
|  2> %pal
|  3> nprocs 16
|  4> end
|  5>
|  6> * xyz 0 1
|  7> S 	 68.1921 	 22.5506 	 73.9925
|  8> C 	 66.7939 	 22.379 	 72.9542
|  9> C 	 67.108 	 22.5621 	 71.5732
| 10> C 	 68.533 	 22.8086 	 71.4578
| 11> C 	 69.3382 	 22.7619 	 72.625
| 12> H 	 69.0031 	 23.0886 	 70.5717
| 13> C 	 66.1526 	 22.4802 	 70.3839
| 14> H 	 65.7784 	 23.3736 	 70.1101
| 15> H 	 65.3142 	 22.0453 	 70.9241
| 16> C 	 66.4657 	 21.4842 	 69.2898
| 17> H 	 65.5732 	 21.3425 	 68.6959
| 18> H 	 67.2228 	 21.8971 	 68.582
| 19> C 	 66.9964 	 20.0909 	 69.7168
| 20> H 	 67.994 	 20.0776 	 70.2721
| 21> H 	 66.2969 	 19.586 	 70.3353
| 22> H 	 67.1312 	 19.5272 	 68.7588
| 23> S 	 71.5402 	 24.1651 	 73.5824
| 24> C 	 73.0985 	 23.3865 	 73.5003
| 25> C 	 73.1307 	 22.3046 	 72.679
| 26> C 	 71.7844 	 21.9601 	 72.2526
| 27> C 	 70.7844 	 22.7675 	 72.7766
| 28> H 	 74.0457 	 21.8859 	 72.4472
| 29> C 	 71.4071 	 20.7906 	 71.3482
| 30> H 	 70.3093 	 20.7018 	 71.49
| 31> H 	 71.7599 	 19.8438 	 71.6271
| 32> C 	 71.7529 	 20.9366 	 69.8465
| 33> H 	 72.8248 	 21.2694 	 69.645
| 34> H 	 71.0847 	 21.6673 	 69.461
| 35> C 	 71.1723 	 19.7687 	 68.9359
| 36> H 	 70.7865 	 20.0864 	 67.9941
| 37> H 	 70.3179 	 19.2063 	 69.4203
| 38> H 	 71.9417 	 18.9713 	 68.721
| 39> H 	 65.7899 	 22.2555 	 73.3825
| 40> H 	 73.9949 	 23.876 	 73.8256
| 41> *
| 42>
| 43>                          ****END OF INPUT****

CARTESIAN COORDINATES (ANGSTROEM)
---------------------------------
  S     68.192100   22.550600   73.992500
  C     66.793900   22.379000   72.954200
  C     67.108000   22.562100   71.573200
  C     68.533000   22.808600   71.457800
  C     69.338200   22.761900   72.625000
  H     69.003100   23.088600   70.571700
  C     66.152600   22.480200   70.383900
  H     65.778400   23.373600   70.110100
  H     65.314200   22.045300   70.924100
  C     66.465700   21.484200   69.289800
  H     65.573200   21.342500   68.695900
  H     67.222800   21.897100   68.582000
  C     66.996400   20.090900   69.716800
  H     67.994000   20.077600   70.272100
  H     66.296900   19.586000   70.335300
  H     67.131200   19.527200   68.758800
  S     71.540200   24.165100   73.582400
  C     73.098500   23.386500   73.500300
  C     73.130700   22.304600   72.679000
  C     71.784400   21.960100   72.252600
  C     70.784400   22.767500   72.776600
  H     74.045700   21.885900   72.447200
  C     71.407100   20.790600   71.348200
  H     70.309300   20.701800   71.490000
  H     71.759900   19.843800   71.627100
  C     71.752900   20.936600   69.846500
  H     72.824800   21.269400   69.645000
  H     71.084700   21.667300   69.461000
  C     71.172300   19.768700   68.935900
  H     70.786500   20.086400   67.994100
  H     70.317900   19.206300   69.420300
  H     71.941700   18.971300   68.721000
  H     65.789900   22.255500   73.382500
  H     73.994900   23.876000   73.825600

 Total Charge           Charge          ....    0
 Multiplicity           Mult            ....    1
 Number of Electrons    NEL             ....  134
 Basis Dimension        Dim             ....  322

ORBITAL ENERGIES
----------------

  NO   OCC          E(Eh)            E(eV)
   0   2.0000     -88.966843     -2420.9109
   1   2.0000     -88.962085     -2420.7814
   2   2.0000     -10.336178      -281.2617
   3   2.0000     -10.329739      -281.0865
   4   2.0000     -10.325676      -280.9759
   5   2.0000     -10.315318      -280.6941
   6   2.0000     -10.311889      -280.6008
   7   2.0000     -10.310398      -280.5602
   8   2.0000     -10.297083      -280.1979
   9   2.0000     -10.292897      -280.0840
  10   2.0000     -10.292049      -280.0609
  11   2.0000     -10.291919      -280.0574
  12   2.0000     -10.287947      -279.9493
  13   2.0000     -10.286656      -279.9141
  14   2.0000     -10.286069      -279.8982
  15   2.0000     -10.284535      -279.8564
  16   2.0000      -8.080683      -219.8866
  17   2.0000      -8.076963      -219.7853
  18   2.0000      -6.039223      -164.3356
  19   2.0000      -6.035511      -164.2346
  20   2.0000      -6.035126      -164.2241
  21   2.0000      -6.031637      -164.1292
  22   2.0000      -6.031619      -164.1287
  23   2.0000      -6.027487      -164.0163
  24   2.0000      -1.000083       -27.2136
  25   2.0000      -0.977012       -26.5858
  26   2.0000      -0.914238       -24.8777
  27   2.0000      -0.901108       -24.5204
  28   2.0000      -0.869793       -23.6683
  29   2.0000      -0.844605       -22.9829
  30   2.0000      -0.840926       -22.8828
  31   2.0000      -0.817240       -22.2382
  32   2.0000      -0.787016       -21.4158
  33   2.0000      -0.770458       -20.9652
  34   2.0000      -0.709857       -19.3162
  35   2.0000      -0.697497       -18.9799
  36   2.0000      -0.692875       -18.8541
  37   2.0000      -0.660982       -17.9862
  38   2.0000      -0.644348       -17.5336
  39   2.0000      -0.620666       -16.8892
  40   2.0000      -0.596417       -16.2293
  41   2.0000      -0.572553       -15.5800
  42   2.0000      -0.564209       -15.3529
  43   2.0000      -0.557053       -15.1582
  44   2.0000      -0.542735       -14.7686
  45   2.0000      -0.521893       -14.2014
  46   2.0000      -0.515464       -14.0265
  47   2.0000      -0.509797       -13.8723
  48   2.0000      -0.504546       -13.7294
  49   2.0000      -0.498378       -13.5616
  50   2.0000      -0.486743       -13.2450
  51   2.0000      -0.477977       -13.0064
  52   2.0000      -0.470409       -12.8005
  53   2.0000      -0.463668       -12.6171
  54   2.0000      -0.453854       -12.3500
  55   2.0000      -0.448623       -12.2076
  56   2.0000      -0.444940       -12.1074
  57   2.0000      -0.440247       -11.9797
  58   2.0000      -0.432740       -11.7755
  59   2.0000      -0.423159       -11.5147
  60   2.0000      -0.420937       -11.4543
  61   2.0000      -0.409868       -11.1531
  62   2.0000      -0.404075       -10.9954
  63   2.0000      -0.338537        -9.2121
  64   2.0000      -0.330179        -8.9846
  65   2.0000      -0.327452        -8.9104
  66   2.0000      -0.300264        -8.1706
  67   0.0000       0.028852         0.7851
  68   0.0000       0.058180         1.5832
  69   0.0000       0.109115         2.9692
  70   0.0000       0.117970         3.2101
  71   0.0000       0.123805         3.3689

MULLIKEN ATOMIC CHARGES
-----------------------
   0 S :    0.113230
   1 C :   -0.134114
   2 C :   -0.137152
   3 C :    0.056895
   4 C :   -0.178912
   5 H :   -0.008652
   6 C :    0.168742
   7 H :    0.014477
   8 H :   -0.000773
   9 C :   -0.093947
  10 H :    0.032529
  11 H :    0.031902
  12 C :   -0.072971
  13 H :    0.057529
  14 H :    0.026326
  15 H :    0.041381
  16 S :    0.096081
  17 C :   -0.072874
  18 C :    0.003172
  19 C :   -0.011076
  20 C :   -0.163466
  21 H :   -0.008561
  22 C :    0.071541
  23 H :    0.028722
  24 H :    0.012679
  25 C :   -0.072035
  26 H :    0.050543
  27 H :    0.014870
  28 C :   -0.090594
  29 H :    0.032550
  30 H :    0.036430
  31 H :    0.038921
  32 H :    0.064787
  33 H :    0.051821
Sum of atomic charges:   -0.0000000

LOEWDIN ATOMIC CHARGES
----------------------
   0 S :    0.397588
   1 C :   -0.196988
   2 C :   -0.062148
   3 C :   -0.047986
   4 C :   -0.196200
   5 H :    0.017220
   6 C :   -0.027255
   7 H :    0.018582
   8 H :    0.035869
   9 C :   -0.041484
  10 H :    0.027679
  11 H :    0.024089
  12 C :   -0.067586
  13 H :    0.032972
  14 H :    0.017232
  15 H :    0.033316
  16 S :    0.388633
  17 C :   -0.168728
  18 C :   -0.062412
  19 C :   -0.038528
  20 C :   -0.197325
  21 H :    0.022373
  22 C :   -0.033310
  23 H :    0.035166
  24 H :    0.018156
  25 C :   -0.044357
  26 H :    0.032766
  27 H :    0.018975
  28 C :   -0.072273
  29 H :    0.019237
  30 H :    0.032331
  31 H :    0.027124
  32 H :    0.031978
  33 H :    0.025292

  Mayer bond orders larger than 0.100000
B(  0-S ,  1-C ) :   1.1745 B(  0-S ,  4-C ) :   1.1356 B(  1-C ,  2-C ) :   1.5722
B(  1-C ,  4-C ) :   0.1090 B(  1-C , 32-H ) :   0.9609 B(  2-C ,  3-C ) :   1.2545
B(  2-C ,  6-C ) :   1.0076 B(  3-C ,  4-C ) :   1.5527 B(  3-C ,  5-H ) :   1.0050
B(  4-C , 20-C ) :   1.0481 B(  6-C ,  7-H ) :   0.9350 B(  6-C ,  8-H ) :   0.9254
B(  6-C ,  9-C ) :   1.0701 B(  9-C , 10-H ) :   0.9549 B(  9-C , 11-H ) :   0.9537
B(  9-C , 12-C ) :   1.0818 B( 12-C , 13-H ) :   0.9643 B( 12-C , 14-H ) :   0.9747
B( 12-C , 15-H ) :   0.9724 B( 16-S , 17-C ) :   1.1533 B( 16-S , 20-C ) :   1.1233
B( 17-C , 18-C ) :   1.6340 B( 17-C , 33-H ) :   0.9641 B( 18-C , 19-C ) :   1.1930
B( 18-C , 21-H ) :   1.0120 B( 19-C , 20-C ) :   1.6217 B( 19-C , 22-C ) :   1.0405
B( 22-C , 23-H ) :   0.9311 B( 22-C , 24-H ) :   0.9376 B( 22-C , 25-C ) :   1.0600
B( 25-C , 26-H ) :   0.9617 B( 25-C , 27-H ) :   0.9578 B( 25-C , 28-C ) :   1.0478
B( 28-C , 29-H ) :   0.9847 B( 28-C , 30-H ) :   0.9729 B( 28-C , 31-H ) :   0.9759

Dispersion correction           -0.015844764
FINAL SINGLE POINT ENERGY     -1339.852597592359

DIPOLE MOMENT
-------------
                                X             Y             Z
Electronic contribution:      6.02357      17.77999      26.01741
Nuclear contribution   :     -6.15895     -18.02034     -26.69883
                        -----------------------------------------
Total Dipole Moment    :     -0.13538      -0.24035      -0.68142
                        -----------------------------------------
Magnitude (a.u.)       :      0.73514
Magnitude (Debye)      :      1.86858

Rotational constants in cm-1:     0.017353     0.010450     0.007140
Rotational constants in MHz :   520.240858   313.269629   214.049666

                             ****ORCA TERMINATED NORMALLY****
TOTAL RUN TIME: 0 days 0 hours 0 minutes 32 seconds 368 msec
