                         Program Version 4.2.1 -  RELEASE  -
|  1> ! wB97X-D3 SP def2-SVP
|  2> %pal
|  3> nprocs 16
|  4> end
|  5>
|  6> * xyz 0 1
|  7> S 	 -118.587 	 48.0561 	 129.382
|  8> C 	 -118.616 	 48.7929 	 131.005
|  9> C 	 -117.82 	 47.9556 	 131.876
| 10> C 	 -117.442 	 46.6916 	 131.255
| 11> C 	 -117.66 	 46.6434 	 129.866
| 12> H 	 -117.032 	 45.8116 	 131.764
| 13> C 	 -117.426 	 48.2722 	 133.325
| 14> H 	 -117.149 	 49.3101 	 133.356
| 15> H 	 -116.498 	 47.843 	 133.574
| 16> C 	 -118.398 	 47.9283 	 134.41
| 17> H 	 -118.115 	 48.4402 	 135.286
| 18> H 	 -119.395 	 48.3171 	 134.188
| 19> C 	 -118.607 	 46.4337 	 134.595
| 20> H 	 -117.671 	 45.9872 	 134.945
| 21> H 	 -119.362 	 46.3714 	 135.331
| 22> H 	 -118.926 	 45.8566 	 133.769
| 23> S 	 -118.749 	 45.2434 	 127.825
| 24> C 	 -117.994 	 43.8288 	 127.196
| 25> C 	 -116.86 	 43.4422 	 128.002
| 26> C 	 -116.629 	 44.383 	 129.057
| 27> C 	 -117.575 	 45.4314 	 129.104
| 28> H 	 -116.274 	 42.5939 	 127.617
| 29> C 	 -115.413 	 44.3554 	 129.913
| 30> H 	 -115.681 	 43.7991 	 130.79
| 31> H 	 -115.188 	 45.3697 	 130.252
| 32> C 	 -114.065 	 43.8627 	 129.245
| 33> H 	 -114.375 	 42.8696 	 128.733
| 34> H 	 -113.316 	 43.6668 	 130.064
| 35> C 	 -113.543 	 44.8992 	 128.229
| 36> H 	 -114.394 	 45.0093 	 127.524
| 37> H 	 -112.71 	 44.4624 	 127.714
| 38> H 	 -113.279 	 45.8229 	 128.766
| 39> H 	 -119.147 	 49.6526 	 131.167
| 40> H 	 -118.459 	 43.1846 	 126.428
| 41> *
| 42>
| 43>                          ****END OF INPUT****

CARTESIAN COORDINATES (ANGSTROEM)
---------------------------------
  S    -118.587000   48.056100  129.382000
  C    -118.616000   48.792900  131.005000
  C    -117.820000   47.955600  131.876000
  C    -117.442000   46.691600  131.255000
  C    -117.660000   46.643400  129.866000
  H    -117.032000   45.811600  131.764000
  C    -117.426000   48.272200  133.325000
  H    -117.149000   49.310100  133.356000
  H    -116.498000   47.843000  133.574000
  C    -118.398000   47.928300  134.410000
  H    -118.115000   48.440200  135.286000
  H    -119.395000   48.317100  134.188000
  C    -118.607000   46.433700  134.595000
  H    -117.671000   45.987200  134.945000
  H    -119.362000   46.371400  135.331000
  H    -118.926000   45.856600  133.769000
  S    -118.749000   45.243400  127.825000
  C    -117.994000   43.828800  127.196000
  C    -116.860000   43.442200  128.002000
  C    -116.629000   44.383000  129.057000
  C    -117.575000   45.431400  129.104000
  H    -116.274000   42.593900  127.617000
  C    -115.413000   44.355400  129.913000
  H    -115.681000   43.799100  130.790000
  H    -115.188000   45.369700  130.252000
  C    -114.065000   43.862700  129.245000
  H    -114.375000   42.869600  128.733000
  H    -113.316000   43.666800  130.064000
  C    -113.543000   44.899200  128.229000
  H    -114.394000   45.009300  127.524000
  H    -112.710000   44.462400  127.714000
  H    -113.279000   45.822900  128.766000
  H    -119.147000   49.652600  131.167000
  H    -118.459000   43.184600  126.428000

 Total Charge           Charge          ....    0
 Multiplicity           Mult            ....    1
 Number of Electrons    NEL             ....  134
 Basis Dimension        Dim             ....  322

ORBITAL ENERGIES
----------------

  NO   OCC          E(Eh)            E(eV)
   0   2.0000     -88.968393     -2420.9530
   1   2.0000     -88.966999     -2420.9151
   2   2.0000     -10.332302      -281.1562
   3   2.0000     -10.327866      -281.0355
   4   2.0000     -10.323331      -280.9121
   5   2.0000     -10.322930      -280.9012
   6   2.0000     -10.316368      -280.7226
   7   2.0000     -10.308187      -280.5000
   8   2.0000     -10.304024      -280.3867
   9   2.0000     -10.300068      -280.2791
  10   2.0000     -10.298774      -280.2439
  11   2.0000     -10.287362      -279.9333
  12   2.0000     -10.283740      -279.8348
  13   2.0000     -10.279203      -279.7113
  14   2.0000     -10.277777      -279.6725
  15   2.0000     -10.268595      -279.4227
  16   2.0000      -8.082202      -219.9279
  17   2.0000      -8.082133      -219.9260
  18   2.0000      -6.040829      -164.3793
  19   2.0000      -6.040443      -164.3688
  20   2.0000      -6.036693      -164.2668
  21   2.0000      -6.036374      -164.2581
  22   2.0000      -6.033295      -164.1743
  23   2.0000      -6.033012      -164.1666
  24   2.0000      -1.004368       -27.3302
  25   2.0000      -0.975193       -26.5363
  26   2.0000      -0.916762       -24.9464
  27   2.0000      -0.907254       -24.6876
  28   2.0000      -0.868964       -23.6457
  29   2.0000      -0.850129       -23.1332
  30   2.0000      -0.840605       -22.8740
  31   2.0000      -0.811120       -22.0717
  32   2.0000      -0.785816       -21.3831
  33   2.0000      -0.772080       -21.0094
  34   2.0000      -0.707828       -19.2610
  35   2.0000      -0.701739       -19.0953
  36   2.0000      -0.691531       -18.8175
  37   2.0000      -0.654742       -17.8164
  38   2.0000      -0.644064       -17.5259
  39   2.0000      -0.614736       -16.7278
  40   2.0000      -0.594167       -16.1681
  41   2.0000      -0.573524       -15.6064
  42   2.0000      -0.557580       -15.1725
  43   2.0000      -0.554991       -15.1021
  44   2.0000      -0.544006       -14.8032
  45   2.0000      -0.535007       -14.5583
  46   2.0000      -0.521465       -14.1898
  47   2.0000      -0.519581       -14.1385
  48   2.0000      -0.509048       -13.8519
  49   2.0000      -0.496684       -13.5155
  50   2.0000      -0.486401       -13.2356
  51   2.0000      -0.479906       -13.0589
  52   2.0000      -0.468303       -12.7432
  53   2.0000      -0.465303       -12.6615
  54   2.0000      -0.462385       -12.5821
  55   2.0000      -0.446690       -12.1550
  56   2.0000      -0.441421       -12.0117
  57   2.0000      -0.438761       -11.9393
  58   2.0000      -0.429277       -11.6812
  59   2.0000      -0.423979       -11.5371
  60   2.0000      -0.418886       -11.3985
  61   2.0000      -0.410138       -11.1604
  62   2.0000      -0.405979       -11.0473
  63   2.0000      -0.355180        -9.6650
  64   2.0000      -0.331582        -9.0228
  65   2.0000      -0.326789        -8.8924
  66   2.0000      -0.278846        -7.5878
  67   0.0000       0.014799         0.4027
  68   0.0000       0.074158         2.0179
  69   0.0000       0.102767         2.7964
  70   0.0000       0.111693         3.0393
  71   0.0000       0.138458         3.7676

MULLIKEN ATOMIC CHARGES
-----------------------
   0 S :    0.088283
   1 C :   -0.096608
   2 C :   -0.088153
   3 C :   -0.022596
   4 C :   -0.103137
   5 H :    0.032658
   6 C :    0.096992
   7 H :    0.015463
   8 H :    0.001278
   9 C :   -0.036747
  10 H :    0.016846
  11 H :    0.015138
  12 C :   -0.028113
  13 H :    0.018489
  14 H :    0.021719
  15 H :    0.035462
  16 S :    0.112930
  17 C :   -0.125660
  18 C :   -0.065009
  19 C :   -0.052981
  20 C :   -0.141864
  21 H :    0.041162
  22 C :    0.049424
  23 H :    0.040393
  24 H :    0.022887
  25 C :   -0.132162
  26 H :    0.039420
  27 H :    0.041619
  28 C :   -0.032803
  29 H :    0.049186
  30 H :    0.037048
  31 H :    0.044028
  32 H :    0.029786
  33 H :    0.075621
Sum of atomic charges:   -0.0000000

LOEWDIN ATOMIC CHARGES
----------------------
   0 S :    0.392400
   1 C :   -0.173321
   2 C :   -0.046408
   3 C :   -0.066637
   4 C :   -0.197877
   5 H :    0.033728
   6 C :   -0.034347
   7 H :    0.030969
   8 H :    0.023286
   9 C :   -0.033802
  10 H :    0.020215
  11 H :    0.023091
  12 C :   -0.056085
  13 H :    0.022039
  14 H :    0.023229
  15 H :    0.022388
  16 S :    0.428221
  17 C :   -0.204237
  18 C :   -0.079680
  19 C :   -0.058665
  20 C :   -0.200761
  21 H :    0.037499
  22 C :   -0.040887
  23 H :    0.029608
  24 H :    0.028394
  25 C :   -0.044508
  26 H :    0.025796
  27 H :    0.026911
  28 C :   -0.063866
  29 H :    0.034433
  30 H :    0.023746
  31 H :    0.029733
  32 H :    0.010324
  33 H :    0.035070

  Mayer bond orders larger than 0.100000
B(  0-S ,  1-C ) :   1.1407 B(  0-S ,  4-C ) :   1.1448 B(  1-C ,  2-C ) :   1.5503
B(  1-C , 32-H ) :   0.9925 B(  2-C ,  3-C ) :   1.2600 B(  2-C ,  6-C ) :   1.0229
B(  3-C ,  4-C ) :   1.5200 B(  3-C ,  5-H ) :   0.9839 B(  4-C , 20-C ) :   1.1062
B(  6-C ,  7-H ) :   0.9334 B(  6-C ,  8-H ) :   0.9383 B(  6-C ,  9-C ) :   1.0856
B(  9-C , 10-H ) :   0.9508 B(  9-C , 11-H ) :   0.9540 B(  9-C , 12-C ) :   1.0796
B( 12-C , 13-H ) :   0.9746 B( 12-C , 14-H ) :   0.9725 B( 12-C , 15-H ) :   0.9741
B( 16-S , 17-C ) :   1.1934 B( 16-S , 20-C ) :   1.1481 B( 17-C , 18-C ) :   1.5504
B( 17-C , 20-C ) :   0.1042 B( 17-C , 33-H ) :   0.9628 B( 18-C , 19-C ) :   1.2758
B( 18-C , 21-H ) :   0.9873 B( 19-C , 20-C ) :   1.5276 B( 19-C , 22-C ) :   1.0450
B( 22-C , 23-H ) :   0.9243 B( 22-C , 24-H ) :   0.9316 B( 22-C , 25-C ) :   1.0598
B( 25-C , 26-H ) :   0.9541 B( 25-C , 27-H ) :   0.9546 B( 25-C , 28-C ) :   1.0680
B( 28-C , 29-H ) :   0.9746 B( 28-C , 30-H ) :   0.9746 B( 28-C , 31-H ) :   0.9720

Dispersion correction           -0.014400712
FINAL SINGLE POINT ENERGY     -1339.862971416394

DIPOLE MOMENT
-------------
                                X             Y             Z
Electronic contribution:    -14.90978       4.96376     -18.39386
Nuclear contribution   :     15.18216      -5.12738      18.89767
                        -----------------------------------------
Total Dipole Moment    :      0.27238      -0.16363       0.50381
                        -----------------------------------------
Magnitude (a.u.)       :      0.59564
Magnitude (Debye)      :      1.51400

Rotational constants in cm-1:     0.019275     0.008441     0.007033
Rotational constants in MHz :   577.843067   253.043702   210.855754

                             ****ORCA TERMINATED NORMALLY****
TOTAL RUN TIME: 0 days 0 hours 0 minutes 33 seconds 715 msec
