                         Program Version 4.2.1 -  RELEASE  -
|  1> ! wB97X-D3 SP def2-SVP
|  2> %pal
|  3> nprocs 16
|  4> end
|  5>
|  6> * xyz 0 1
|  7> S 	 -44.6249 	 25.0017 	 88.5648
|  8> C 	 -45.4417 	 26.5205 	 88.3373
|  9> C 	 -44.9633 	 27.2367 	 87.2767
| 10> C 	 -43.8164 	 26.5768 	 86.7183
| 11> C 	 -43.4955 	 25.3585 	 87.3405
| 12> H 	 -43.2322 	 26.848 	 85.8012
| 13> C 	 -45.5114 	 28.5413 	 86.705
| 14> H 	 -44.9983 	 29.3897 	 87.1848
| 15> H 	 -46.5004 	 28.7106 	 87.0962
| 16> C 	 -45.3329 	 28.7189 	 85.1828
| 17> H 	 -45.6793 	 29.7455 	 85.1125
| 18> H 	 -44.2742 	 28.7226 	 85.0283
| 19> C 	 -46.1349 	 27.7535 	 84.3177
| 20> H 	 -47.058 	 27.4769 	 84.7632
| 21> H 	 -46.2046 	 28.1243 	 83.2686
| 22> H 	 -45.5528 	 26.8032 	 84.2882
| 23> S 	 -42.8198 	 23.4686 	 85.4827
| 24> C 	 -41.2093 	 22.7319 	 85.3779
| 25> C 	 -40.4301 	 23.3815 	 86.315
| 26> C 	 -41.1279 	 24.2352 	 87.2332
| 27> C 	 -42.4663 	 24.471 	 86.918
| 28> H 	 -39.4129 	 23.0824 	 86.2417
| 29> C 	 -40.3537 	 25.0707 	 88.1315
| 30> H 	 -40.0336 	 24.3733 	 88.8983
| 31> H 	 -41.0617 	 25.7692 	 88.5407
| 32> C 	 -39.16 	 25.8501 	 87.4951
| 33> H 	 -38.2399 	 25.1791 	 87.3938
| 34> H 	 -38.8103 	 26.5765 	 88.2301
| 35> C 	 -39.352 	 26.5417 	 86.1937
| 36> H 	 -38.4232 	 26.7177 	 85.6619
| 37> H 	 -39.9233 	 27.4727 	 86.1774
| 38> H 	 -39.9292 	 25.9079 	 85.4992
| 39> H 	 -46.2139 	 26.8715 	 89.0237
| 40> H 	 -40.8456 	 22.0771 	 84.698
| 41> *
| 42>
| 43>                          ****END OF INPUT****

CARTESIAN COORDINATES (ANGSTROEM)
---------------------------------
  S    -44.624900   25.001700   88.564800
  C    -45.441700   26.520500   88.337300
  C    -44.963300   27.236700   87.276700
  C    -43.816400   26.576800   86.718300
  C    -43.495500   25.358500   87.340500
  H    -43.232200   26.848000   85.801200
  C    -45.511400   28.541300   86.705000
  H    -44.998300   29.389700   87.184800
  H    -46.500400   28.710600   87.096200
  C    -45.332900   28.718900   85.182800
  H    -45.679300   29.745500   85.112500
  H    -44.274200   28.722600   85.028300
  C    -46.134900   27.753500   84.317700
  H    -47.058000   27.476900   84.763200
  H    -46.204600   28.124300   83.268600
  H    -45.552800   26.803200   84.288200
  S    -42.819800   23.468600   85.482700
  C    -41.209300   22.731900   85.377900
  C    -40.430100   23.381500   86.315000
  C    -41.127900   24.235200   87.233200
  C    -42.466300   24.471000   86.918000
  H    -39.412900   23.082400   86.241700
  C    -40.353700   25.070700   88.131500
  H    -40.033600   24.373300   88.898300
  H    -41.061700   25.769200   88.540700
  C    -39.160000   25.850100   87.495100
  H    -38.239900   25.179100   87.393800
  H    -38.810300   26.576500   88.230100
  C    -39.352000   26.541700   86.193700
  H    -38.423200   26.717700   85.661900
  H    -39.923300   27.472700   86.177400
  H    -39.929200   25.907900   85.499200
  H    -46.213900   26.871500   89.023700
  H    -40.845600   22.077100   84.698000

 Total Charge           Charge          ....    0
 Multiplicity           Mult            ....    1
 Number of Electrons    NEL             ....  134
 Basis Dimension        Dim             ....  322

ORBITAL ENERGIES
----------------

  NO   OCC          E(Eh)            E(eV)
   0   2.0000     -88.967582     -2420.9310
   1   2.0000     -88.956876     -2420.6397
   2   2.0000     -10.326595      -281.0009
   3   2.0000     -10.326001      -280.9848
   4   2.0000     -10.313343      -280.6403
   5   2.0000     -10.313156      -280.6352
   6   2.0000     -10.301961      -280.3306
   7   2.0000     -10.300185      -280.2823
   8   2.0000     -10.300079      -280.2794
   9   2.0000     -10.293214      -280.0926
  10   2.0000     -10.290222      -280.0112
  11   2.0000     -10.289145      -279.9819
  12   2.0000     -10.286114      -279.8994
  13   2.0000     -10.281640      -279.7776
  14   2.0000     -10.278257      -279.6856
  15   2.0000     -10.271512      -279.5020
  16   2.0000      -8.083270      -219.9570
  17   2.0000      -8.070945      -219.6216
  18   2.0000      -6.041569      -164.3994
  19   2.0000      -6.037621      -164.2920
  20   2.0000      -6.034205      -164.1991
  21   2.0000      -6.029542      -164.0722
  22   2.0000      -6.025413      -163.9598
  23   2.0000      -6.021741      -163.8599
  24   2.0000      -1.009640       -27.4737
  25   2.0000      -0.984045       -26.7772
  26   2.0000      -0.915174       -24.9032
  27   2.0000      -0.909493       -24.7486
  28   2.0000      -0.876270       -23.8445
  29   2.0000      -0.847610       -23.0646
  30   2.0000      -0.845700       -23.0127
  31   2.0000      -0.814147       -22.1541
  32   2.0000      -0.787814       -21.4375
  33   2.0000      -0.773556       -21.0495
  34   2.0000      -0.717021       -19.5111
  35   2.0000      -0.698951       -19.0194
  36   2.0000      -0.695064       -18.9136
  37   2.0000      -0.659821       -17.9547
  38   2.0000      -0.641089       -17.4449
  39   2.0000      -0.622200       -16.9309
  40   2.0000      -0.591467       -16.0946
  41   2.0000      -0.574023       -15.6200
  42   2.0000      -0.558019       -15.1845
  43   2.0000      -0.549959       -14.9651
  44   2.0000      -0.536992       -14.6123
  45   2.0000      -0.532866       -14.5000
  46   2.0000      -0.529465       -14.4075
  47   2.0000      -0.520967       -14.1762
  48   2.0000      -0.506369       -13.7790
  49   2.0000      -0.495511       -13.4835
  50   2.0000      -0.492251       -13.3948
  51   2.0000      -0.482939       -13.1414
  52   2.0000      -0.470871       -12.8131
  53   2.0000      -0.468088       -12.7373
  54   2.0000      -0.457957       -12.4616
  55   2.0000      -0.443791       -12.0762
  56   2.0000      -0.440173       -11.9777
  57   2.0000      -0.435996       -11.8641
  58   2.0000      -0.432942       -11.7810
  59   2.0000      -0.428087       -11.6488
  60   2.0000      -0.412594       -11.2273
  61   2.0000      -0.409779       -11.1507
  62   2.0000      -0.403302       -10.9744
  63   2.0000      -0.333112        -9.0644
  64   2.0000      -0.324120        -8.8198
  65   2.0000      -0.321040        -8.7360
  66   2.0000      -0.310711        -8.4549
  67   0.0000       0.042530         1.1573
  68   0.0000       0.051187         1.3929
  69   0.0000       0.113499         3.0885
  70   0.0000       0.122896         3.3442
  71   0.0000       0.131606         3.5812

MULLIKEN ATOMIC CHARGES
-----------------------
   0 S :    0.139301
   1 C :   -0.144016
   2 C :   -0.068569
   3 C :    0.007191
   4 C :   -0.186619
   5 H :    0.035759
   6 C :    0.064141
   7 H :    0.035137
   8 H :    0.006606
   9 C :   -0.073306
  10 H :    0.024587
  11 H :    0.029902
  12 C :   -0.024182
  13 H :    0.029210
  14 H :    0.048193
  15 H :    0.035437
  16 S :    0.081363
  17 C :   -0.044583
  18 C :   -0.053373
  19 C :   -0.037228
  20 C :   -0.170843
  21 H :    0.010200
  22 C :    0.119542
  23 H :    0.033713
  24 H :    0.020986
  25 C :   -0.099165
  26 H :    0.030627
  27 H :    0.031514
  28 C :   -0.039038
  29 H :    0.029889
  30 H :    0.029299
  31 H :    0.030680
  32 H :    0.050403
  33 H :    0.017243
Sum of atomic charges:   -0.0000000

LOEWDIN ATOMIC CHARGES
----------------------
   0 S :    0.440614
   1 C :   -0.200721
   2 C :   -0.068613
   3 C :   -0.062184
   4 C :   -0.228321
   5 H :    0.038406
   6 C :   -0.031801
   7 H :    0.037537
   8 H :    0.023875
   9 C :   -0.038986
  10 H :    0.026194
  11 H :    0.020326
  12 C :   -0.064947
  13 H :    0.022929
  14 H :    0.033755
  15 H :    0.033336
  16 S :    0.376693
  17 C :   -0.154943
  18 C :   -0.070930
  19 C :   -0.059782
  20 C :   -0.193851
  21 H :    0.027244
  22 C :   -0.032169
  23 H :    0.038363
  24 H :    0.028691
  25 C :   -0.045868
  26 H :    0.029897
  27 H :    0.027394
  28 C :   -0.074370
  29 H :    0.028803
  30 H :    0.024368
  31 H :    0.028732
  32 H :    0.029678
  33 H :    0.010651

  Mayer bond orders larger than 0.100000
B(  0-S ,  1-C ) :   1.1552 B(  0-S ,  4-C ) :   1.1691 B(  1-C ,  2-C ) :   1.6056
B(  1-C , 32-H ) :   0.9661 B(  2-C ,  3-C ) :   1.2463 B(  2-C ,  6-C ) :   1.0093
B(  3-C ,  4-C ) :   1.5634 B(  3-C ,  5-H ) :   0.9796 B(  4-C , 20-C ) :   1.0378
B(  6-C ,  7-H ) :   0.9324 B(  6-C ,  8-H ) :   0.9381 B(  6-C ,  9-C ) :   1.0797
B(  9-C , 10-H ) :   0.9523 B(  9-C , 11-H ) :   0.9500 B(  9-C , 12-C ) :   1.0722
B( 12-C , 13-H ) :   0.9757 B( 12-C , 14-H ) :   0.9747 B( 12-C , 15-H ) :   0.9694
B( 16-S , 17-C ) :   1.1492 B( 16-S , 20-C ) :   1.1255 B( 17-C , 18-C ) :   1.6205
B( 17-C , 20-C ) :   0.1030 B( 17-C , 33-H ) :   0.9812 B( 18-C , 19-C ) :   1.2048
B( 18-C , 21-H ) :   0.9976 B( 19-C , 20-C ) :   1.5835 B( 19-C , 22-C ) :   1.0676
B( 22-C , 23-H ) :   0.9177 B( 22-C , 24-H ) :   0.9340 B( 22-C , 25-C ) :   1.0677
B( 25-C , 26-H ) :   0.9491 B( 25-C , 27-H ) :   0.9545 B( 25-C , 28-C ) :   1.0868
B( 28-C , 29-H ) :   0.9706 B( 28-C , 30-H ) :   0.9724 B( 28-C , 31-H ) :   0.9659

Dispersion correction           -0.015461965
FINAL SINGLE POINT ENERGY     -1339.865643456966

DIPOLE MOMENT
-------------
                                X             Y             Z
Electronic contribution:     -6.91338     -18.29606       7.78194
Nuclear contribution   :      7.18885      18.83693      -7.90170
                        -----------------------------------------
Total Dipole Moment    :      0.27547       0.54088      -0.11976
                        -----------------------------------------
Magnitude (a.u.)       :      0.61869
Magnitude (Debye)      :      1.57258

Rotational constants in cm-1:     0.019422     0.008534     0.008294
Rotational constants in MHz :   582.261525   255.829284   248.658933

                             ****ORCA TERMINATED NORMALLY****
TOTAL RUN TIME: 0 days 0 hours 0 minutes 31 seconds 632 msec
