                         Program Version 4.2.1 -  RELEASE  -
|  1> ! wB97X-D3 SP def2-SVP
|  2> %pal
|  3> nprocs 16
|  4> end
|  5>
|  6> * xyz 0 1
|  7> S 	 -50.0688 	 62.4244 	 129.759
|  8> C 	 -49.3021 	 61.447 	 128.525
|  9> C 	 -50.0888 	 60.995 	 127.564
| 10> C 	 -51.4287 	 61.47 	 127.787
| 11> C 	 -51.6084 	 62.1738 	 128.988
| 12> H 	 -52.3656 	 61.2765 	 127.216
| 13> C 	 -49.7349 	 60.2315 	 126.28
| 14> H 	 -48.6525 	 60.1879 	 126.222
| 15> H 	 -50.0055 	 60.7735 	 125.347
| 16> C 	 -50.2164 	 58.8209 	 126.171
| 17> H 	 -49.9345 	 58.4078 	 127.009
| 18> H 	 -51.2944 	 58.8914 	 126.288
| 19> C 	 -49.87 	 58.1353 	 124.938
| 20> H 	 -50.5009 	 58.503 	 124.108
| 21> H 	 -48.7958 	 58.2015 	 124.619
| 22> H 	 -49.9641 	 57.0071 	 125.017
| 23> S 	 -53.4747 	 64.185 	 128.723
| 24> C 	 -54.8707 	 64.046 	 129.799
| 25> C 	 -55.0097 	 62.8683 	 130.43
| 26> C 	 -53.7858 	 62.0885 	 130.283
| 27> C 	 -52.8624 	 62.7243 	 129.481
| 28> H 	 -55.8176 	 62.6526 	 131.112
| 29> C 	 -53.594 	 60.8219 	 131.073
| 30> H 	 -54.1084 	 60.8818 	 131.97
| 31> H 	 -52.5831 	 60.5567 	 131.388
| 32> C 	 -54.1897 	 59.5393 	 130.417
| 33> H 	 -55.2356 	 59.6993 	 130.37
| 34> H 	 -54.0679 	 58.5891 	 130.981
| 35> C 	 -53.6493 	 59.1984 	 129.005
| 36> H 	 -53.7833 	 59.9829 	 128.264
| 37> H 	 -53.9862 	 58.2132 	 128.586
| 38> H 	 -52.5779 	 59.0287 	 128.973
| 39> H 	 -48.181 	 61.3023 	 128.474
| 40> H 	 -55.676 	 64.7336 	 129.761
| 41> *
| 42>
| 43>                          ****END OF INPUT****

CARTESIAN COORDINATES (ANGSTROEM)
---------------------------------
  S    -50.068800   62.424400  129.759000
  C    -49.302100   61.447000  128.525000
  C    -50.088800   60.995000  127.564000
  C    -51.428700   61.470000  127.787000
  C    -51.608400   62.173800  128.988000
  H    -52.365600   61.276500  127.216000
  C    -49.734900   60.231500  126.280000
  H    -48.652500   60.187900  126.222000
  H    -50.005500   60.773500  125.347000
  C    -50.216400   58.820900  126.171000
  H    -49.934500   58.407800  127.009000
  H    -51.294400   58.891400  126.288000
  C    -49.870000   58.135300  124.938000
  H    -50.500900   58.503000  124.108000
  H    -48.795800   58.201500  124.619000
  H    -49.964100   57.007100  125.017000
  S    -53.474700   64.185000  128.723000
  C    -54.870700   64.046000  129.799000
  C    -55.009700   62.868300  130.430000
  C    -53.785800   62.088500  130.283000
  C    -52.862400   62.724300  129.481000
  H    -55.817600   62.652600  131.112000
  C    -53.594000   60.821900  131.073000
  H    -54.108400   60.881800  131.970000
  H    -52.583100   60.556700  131.388000
  C    -54.189700   59.539300  130.417000
  H    -55.235600   59.699300  130.370000
  H    -54.067900   58.589100  130.981000
  C    -53.649300   59.198400  129.005000
  H    -53.783300   59.982900  128.264000
  H    -53.986200   58.213200  128.586000
  H    -52.577900   59.028700  128.973000
  H    -48.181000   61.302300  128.474000
  H    -55.676000   64.733600  129.761000

 Total Charge           Charge          ....    0
 Multiplicity           Mult            ....    1
 Number of Electrons    NEL             ....  134
 Basis Dimension        Dim             ....  322

ORBITAL ENERGIES
----------------

  NO   OCC          E(Eh)            E(eV)
   0   2.0000     -88.966775     -2420.9090
   1   2.0000     -88.965727     -2420.8805
   2   2.0000     -10.324379      -280.9406
   3   2.0000     -10.323788      -280.9245
   4   2.0000     -10.313883      -280.6550
   5   2.0000     -10.313091      -280.6335
   6   2.0000     -10.306505      -280.4543
   7   2.0000     -10.298037      -280.2238
   8   2.0000     -10.295820      -280.1635
   9   2.0000     -10.294536      -280.1286
  10   2.0000     -10.291335      -280.0415
  11   2.0000     -10.286293      -279.9043
  12   2.0000     -10.286098      -279.8989
  13   2.0000     -10.284646      -279.8595
  14   2.0000     -10.272302      -279.5235
  15   2.0000     -10.266381      -279.3624
  16   2.0000      -8.081472      -219.9080
  17   2.0000      -8.080611      -219.8846
  18   2.0000      -6.039933      -164.3549
  19   2.0000      -6.039089      -164.3320
  20   2.0000      -6.036316      -164.2565
  21   2.0000      -6.035185      -164.2257
  22   2.0000      -6.031935      -164.1373
  23   2.0000      -6.031314      -164.1204
  24   2.0000      -1.007745       -27.4221
  25   2.0000      -0.987080       -26.8598
  26   2.0000      -0.925252       -25.1774
  27   2.0000      -0.905093       -24.6288
  28   2.0000      -0.876631       -23.8543
  29   2.0000      -0.850572       -23.1453
  30   2.0000      -0.842413       -22.9232
  31   2.0000      -0.813258       -22.1299
  32   2.0000      -0.786073       -21.3901
  33   2.0000      -0.776227       -21.1222
  34   2.0000      -0.710595       -19.3363
  35   2.0000      -0.700585       -19.0639
  36   2.0000      -0.690864       -18.7994
  37   2.0000      -0.662613       -18.0306
  38   2.0000      -0.640190       -17.4204
  39   2.0000      -0.615670       -16.7532
  40   2.0000      -0.601688       -16.3728
  41   2.0000      -0.583357       -15.8739
  42   2.0000      -0.564174       -15.3520
  43   2.0000      -0.546614       -14.8741
  44   2.0000      -0.543562       -14.7911
  45   2.0000      -0.518223       -14.1016
  46   2.0000      -0.515819       -14.0361
  47   2.0000      -0.507613       -13.8129
  48   2.0000      -0.501975       -13.6594
  49   2.0000      -0.493430       -13.4269
  50   2.0000      -0.490597       -13.3498
  51   2.0000      -0.477267       -12.9871
  52   2.0000      -0.472013       -12.8441
  53   2.0000      -0.464785       -12.6475
  54   2.0000      -0.461156       -12.5487
  55   2.0000      -0.451013       -12.2727
  56   2.0000      -0.446080       -12.1385
  57   2.0000      -0.433333       -11.7916
  58   2.0000      -0.431190       -11.7333
  59   2.0000      -0.425399       -11.5757
  60   2.0000      -0.423879       -11.5343
  61   2.0000      -0.413419       -11.2497
  62   2.0000      -0.411711       -11.2032
  63   2.0000      -0.338898        -9.2219
  64   2.0000      -0.331942        -9.0326
  65   2.0000      -0.324621        -8.8334
  66   2.0000      -0.310495        -8.4490
  67   0.0000       0.049262         1.3405
  68   0.0000       0.054448         1.4816
  69   0.0000       0.105844         2.8802
  70   0.0000       0.118705         3.2301
  71   0.0000       0.126261         3.4357

MULLIKEN ATOMIC CHARGES
-----------------------
   0 S :    0.120248
   1 C :   -0.151762
   2 C :   -0.051484
   3 C :    0.018576
   4 C :   -0.196131
   5 H :    0.030612
   6 C :    0.048366
   7 H :   -0.002044
   8 H :    0.032240
   9 C :    0.023495
  10 H :   -0.021863
  11 H :    0.015172
  12 C :   -0.064020
  13 H :    0.039947
  14 H :    0.030623
  15 H :    0.041672
  16 S :    0.114393
  17 C :   -0.061722
  18 C :   -0.018737
  19 C :   -0.024611
  20 C :   -0.182266
  21 H :    0.024529
  22 C :    0.126083
  23 H :    0.000071
  24 H :    0.027194
  25 C :   -0.079102
  26 H :    0.015323
  27 H :    0.036170
  28 C :   -0.067396
  29 H :    0.024300
  30 H :    0.029072
  31 H :    0.026802
  32 H :    0.058433
  33 H :    0.037818
Sum of atomic charges:   -0.0000000

LOEWDIN ATOMIC CHARGES
----------------------
   0 S :    0.407156
   1 C :   -0.195951
   2 C :   -0.073615
   3 C :   -0.056255
   4 C :   -0.206617
   5 H :    0.033705
   6 C :   -0.022635
   7 H :    0.021982
   8 H :    0.032964
   9 C :   -0.041545
  10 H :    0.002890
  11 H :    0.027452
  12 C :   -0.069478
  13 H :    0.031026
  14 H :    0.028207
  15 H :    0.036464
  16 S :    0.393518
  17 C :   -0.161934
  18 C :   -0.063952
  19 C :   -0.042846
  20 C :   -0.203641
  21 H :    0.034809
  22 C :   -0.025541
  23 H :    0.022765
  24 H :    0.032273
  25 C :   -0.034918
  26 H :    0.014287
  27 H :    0.030359
  28 C :   -0.076495
  29 H :    0.017190
  30 H :    0.029174
  31 H :    0.022092
  32 H :    0.038483
  33 H :    0.018629

  Mayer bond orders larger than 0.100000
B(  0-S ,  1-C ) :   1.1331 B(  0-S ,  4-C ) :   1.1449 B(  1-C ,  2-C ) :   1.6767
B(  1-C , 32-H ) :   0.9472 B(  2-C ,  3-C ) :   1.2033 B(  2-C ,  6-C ) :   1.0173
B(  3-C ,  4-C ) :   1.6153 B(  3-C ,  5-H ) :   0.9835 B(  4-C , 20-C ) :   1.0181
B(  6-C ,  7-H ) :   0.9328 B(  6-C ,  8-H ) :   0.9448 B(  6-C ,  9-C ) :   1.0630
B(  9-C , 10-H ) :   0.9403 B(  9-C , 11-H ) :   0.9455 B(  9-C , 12-C ) :   1.0942
B( 12-C , 13-H ) :   0.9700 B( 12-C , 14-H ) :   0.9712 B( 12-C , 15-H ) :   0.9700
B( 16-S , 17-C ) :   1.1337 B( 16-S , 20-C ) :   1.1286 B( 17-C , 18-C ) :   1.6751
B( 17-C , 33-H ) :   0.9647 B( 18-C , 19-C ) :   1.1954 B( 18-C , 21-H ) :   0.9859
B( 19-C , 20-C ) :   1.6495 B( 19-C , 22-C ) :   1.0454 B( 22-C , 23-H ) :   0.9275
B( 22-C , 24-H ) :   0.9392 B( 22-C , 25-C ) :   1.0649 B( 25-C , 26-H ) :   0.9575
B( 25-C , 27-H ) :   0.9578 B( 25-C , 28-C ) :   1.0778 B( 28-C , 29-H ) :   0.9723
B( 28-C , 30-H ) :   0.9714 B( 28-C , 31-H ) :   0.9694

Dispersion correction           -0.016031929
FINAL SINGLE POINT ENERGY     -1339.861084130364

DIPOLE MOMENT
-------------
                                X             Y             Z
Electronic contribution:      0.34126      26.66109      10.90315
Nuclear contribution   :     -0.54418     -27.15192     -10.99114
                        -----------------------------------------
Total Dipole Moment    :     -0.20292      -0.49084      -0.08799
                        -----------------------------------------
Magnitude (a.u.)       :      0.53837
Magnitude (Debye)      :      1.36842

Rotational constants in cm-1:     0.020210     0.008714     0.007570
Rotational constants in MHz :   605.869815   261.231207   226.947176

                             ****ORCA TERMINATED NORMALLY****
TOTAL RUN TIME: 0 days 0 hours 0 minutes 37 seconds 233 msec
