                         Program Version 4.2.1 -  RELEASE  -
|  1> ! wB97X-D3 SP def2-SVP
|  2> %pal
|  3> nprocs 16
|  4> end
|  5>
|  6> * xyz 0 1
|  7> S 	 -42.8471 	 20.2849 	 77.0068
|  8> C 	 -44.1809 	 20.6746 	 78.1268
|  9> C 	 -43.9545 	 21.7756 	 78.9156
| 10> C 	 -42.6748 	 22.3302 	 78.621
| 11> C 	 -41.8799 	 21.5437 	 77.7483
| 12> H 	 -42.2914 	 23.2201 	 79.0161
| 13> C 	 -45.035 	 22.4723 	 79.8158
| 14> H 	 -44.9028 	 21.9392 	 80.7618
| 15> H 	 -46.1111 	 22.3056 	 79.5895
| 16> C 	 -44.9612 	 23.9184 	 80.2051
| 17> H 	 -45.6112 	 24.1801 	 80.9895
| 18> H 	 -43.9336 	 23.9065 	 80.713
| 19> C 	 -44.9844 	 24.9049 	 79.0528
| 20> H 	 -45.8862 	 24.5968 	 78.5578
| 21> H 	 -45.2696 	 25.8677 	 79.4575
| 22> H 	 -44.1045 	 24.8816 	 78.3878
| 23> S 	 -39.5561 	 20.1338 	 77.366
| 24> C 	 -38.0708 	 20.949 	 76.9926
| 25> C 	 -38.2361 	 22.2827 	 76.7908
| 26> C 	 -39.5816 	 22.6462 	 77.0616
| 27> C 	 -40.4018 	 21.624 	 77.5323
| 28> H 	 -37.4365 	 22.9949 	 76.5742
| 29> C 	 -40.0405 	 24.0555 	 76.9663
| 30> H 	 -39.4632 	 24.5962 	 77.7382
| 31> H 	 -41.0765 	 24.2522 	 77.3316
| 32> C 	 -39.9021 	 24.7978 	 75.6163
| 33> H 	 -40.387 	 24.0582 	 74.9442
| 34> H 	 -38.8655 	 24.884 	 75.4069
| 35> C 	 -40.5804 	 26.143 	 75.4053
| 36> H 	 -41.6606 	 25.9319 	 75.52
| 37> H 	 -40.2981 	 26.4483 	 74.3491
| 38> H 	 -40.3435 	 26.8959 	 76.1093
| 39> H 	 -45.1084 	 20.1745 	 77.9668
| 40> H 	 -37.1116 	 20.5335 	 77.0049
| 41> *
| 42>
| 43>                          ****END OF INPUT****

CARTESIAN COORDINATES (ANGSTROEM)
---------------------------------
  S    -42.847100   20.284900   77.006800
  C    -44.180900   20.674600   78.126800
  C    -43.954500   21.775600   78.915600
  C    -42.674800   22.330200   78.621000
  C    -41.879900   21.543700   77.748300
  H    -42.291400   23.220100   79.016100
  C    -45.035000   22.472300   79.815800
  H    -44.902800   21.939200   80.761800
  H    -46.111100   22.305600   79.589500
  C    -44.961200   23.918400   80.205100
  H    -45.611200   24.180100   80.989500
  H    -43.933600   23.906500   80.713000
  C    -44.984400   24.904900   79.052800
  H    -45.886200   24.596800   78.557800
  H    -45.269600   25.867700   79.457500
  H    -44.104500   24.881600   78.387800
  S    -39.556100   20.133800   77.366000
  C    -38.070800   20.949000   76.992600
  C    -38.236100   22.282700   76.790800
  C    -39.581600   22.646200   77.061600
  C    -40.401800   21.624000   77.532300
  H    -37.436500   22.994900   76.574200
  C    -40.040500   24.055500   76.966300
  H    -39.463200   24.596200   77.738200
  H    -41.076500   24.252200   77.331600
  C    -39.902100   24.797800   75.616300
  H    -40.387000   24.058200   74.944200
  H    -38.865500   24.884000   75.406900
  C    -40.580400   26.143000   75.405300
  H    -41.660600   25.931900   75.520000
  H    -40.298100   26.448300   74.349100
  H    -40.343500   26.895900   76.109300
  H    -45.108400   20.174500   77.966800
  H    -37.111600   20.533500   77.004900

 Total Charge           Charge          ....    0
 Multiplicity           Mult            ....    1
 Number of Electrons    NEL             ....  134
 Basis Dimension        Dim             ....  322

ORBITAL ENERGIES
----------------

  NO   OCC          E(Eh)            E(eV)
   0   2.0000     -88.969264     -2420.9768
   1   2.0000     -88.965289     -2420.8686
   2   2.0000     -10.337305      -281.2924
   3   2.0000     -10.326655      -281.0026
   4   2.0000     -10.313659      -280.6489
   5   2.0000     -10.312002      -280.6038
   6   2.0000     -10.310416      -280.5607
   7   2.0000     -10.300858      -280.3006
   8   2.0000     -10.297103      -280.1984
   9   2.0000     -10.295280      -280.1488
  10   2.0000     -10.293510      -280.1007
  11   2.0000     -10.287972      -279.9499
  12   2.0000     -10.286330      -279.9053
  13   2.0000     -10.282396      -279.7982
  14   2.0000     -10.282273      -279.7949
  15   2.0000     -10.276519      -279.6383
  16   2.0000      -8.083356      -219.9593
  17   2.0000      -8.080849      -219.8911
  18   2.0000      -6.041851      -164.4071
  19   2.0000      -6.039342      -164.3389
  20   2.0000      -6.038024      -164.3030
  21   2.0000      -6.035252      -164.2276
  22   2.0000      -6.034102      -164.1963
  23   2.0000      -6.031544      -164.1267
  24   2.0000      -1.010022       -27.4841
  25   2.0000      -0.984848       -26.7991
  26   2.0000      -0.916539       -24.9403
  27   2.0000      -0.908787       -24.7294
  28   2.0000      -0.871758       -23.7217
  29   2.0000      -0.854145       -23.2425
  30   2.0000      -0.845230       -22.9999
  31   2.0000      -0.817248       -22.2384
  32   2.0000      -0.789378       -21.4801
  33   2.0000      -0.772825       -21.0296
  34   2.0000      -0.704570       -19.1723
  35   2.0000      -0.695719       -18.9315
  36   2.0000      -0.690177       -18.7807
  37   2.0000      -0.659681       -17.9508
  38   2.0000      -0.642628       -17.4868
  39   2.0000      -0.626385       -17.0448
  40   2.0000      -0.600442       -16.3389
  41   2.0000      -0.570413       -15.5217
  42   2.0000      -0.568399       -15.4669
  43   2.0000      -0.556431       -15.1413
  44   2.0000      -0.550222       -14.9723
  45   2.0000      -0.525548       -14.3009
  46   2.0000      -0.520112       -14.1530
  47   2.0000      -0.510956       -13.9038
  48   2.0000      -0.506342       -13.7783
  49   2.0000      -0.498461       -13.5638
  50   2.0000      -0.488570       -13.2947
  51   2.0000      -0.480716       -13.0810
  52   2.0000      -0.469379       -12.7724
  53   2.0000      -0.467304       -12.7160
  54   2.0000      -0.461662       -12.5625
  55   2.0000      -0.457109       -12.4386
  56   2.0000      -0.452779       -12.3207
  57   2.0000      -0.436227       -11.8703
  58   2.0000      -0.425639       -11.5822
  59   2.0000      -0.423929       -11.5357
  60   2.0000      -0.416817       -11.3422
  61   2.0000      -0.413162       -11.2427
  62   2.0000      -0.399738       -10.8774
  63   2.0000      -0.350574        -9.5396
  64   2.0000      -0.334139        -9.0924
  65   2.0000      -0.328898        -8.9498
  66   2.0000      -0.286900        -7.8069
  67   0.0000       0.028150         0.7660
  68   0.0000       0.065412         1.7800
  69   0.0000       0.103273         2.8102
  70   0.0000       0.120187         3.2705
  71   0.0000       0.131453         3.5770

MULLIKEN ATOMIC CHARGES
-----------------------
   0 S :    0.110495
   1 C :   -0.145366
   2 C :   -0.019624
   3 C :    0.025333
   4 C :   -0.152472
   5 H :   -0.005801
   6 C :    0.035882
   7 H :    0.040451
   8 H :    0.030008
   9 C :   -0.106495
  10 H :    0.023678
  11 H :    0.021179
  12 C :   -0.005503
  13 H :    0.012968
  14 H :    0.026941
  15 H :    0.052732
  16 S :    0.101521
  17 C :   -0.059531
  18 C :   -0.018198
  19 C :   -0.043719
  20 C :   -0.130929
  21 H :    0.029119
  22 C :    0.029901
  23 H :    0.026207
  24 H :    0.005335
  25 C :   -0.094694
  26 H :    0.038627
  27 H :    0.018965
  28 C :   -0.042041
  29 H :    0.036803
  30 H :    0.052381
  31 H :    0.027773
  32 H :    0.043018
  33 H :    0.035052
Sum of atomic charges:    0.0000000

LOEWDIN ATOMIC CHARGES
----------------------
   0 S :    0.393522
   1 C :   -0.179811
   2 C :   -0.054390
   3 C :   -0.062452
   4 C :   -0.185329
   5 H :    0.016119
   6 C :   -0.038440
   7 H :    0.040174
   8 H :    0.028543
   9 C :   -0.049684
  10 H :    0.023279
  11 H :    0.024517
  12 C :   -0.063816
  13 H :    0.024376
  14 H :    0.027377
  15 H :    0.030697
  16 S :    0.423467
  17 C :   -0.174041
  18 C :   -0.068012
  19 C :   -0.058933
  20 C :   -0.210102
  21 H :    0.037762
  22 C :   -0.045562
  23 H :    0.029849
  24 H :    0.026876
  25 C :   -0.043517
  26 H :    0.031726
  27 H :    0.012530
  28 C :   -0.063183
  29 H :    0.029861
  30 H :    0.040487
  31 H :    0.016885
  32 H :    0.019006
  33 H :    0.020219

  Mayer bond orders larger than 0.100000
B(  0-S ,  1-C ) :   1.1330 B(  0-S ,  4-C ) :   1.1654 B(  1-C ,  2-C ) :   1.6096
B(  1-C ,  4-C ) :   0.1000 B(  1-C , 32-H ) :   0.9742 B(  2-C ,  3-C ) :   1.2599
B(  2-C ,  6-C ) :   0.9808 B(  3-C ,  4-C ) :   1.5527 B(  3-C ,  5-H ) :   0.9926
B(  4-C , 20-C ) :   1.0316 B(  6-C ,  7-H ) :   0.9322 B(  6-C ,  8-H ) :   0.9519
B(  6-C ,  9-C ) :   1.0947 B(  9-C , 10-H ) :   0.9506 B(  9-C , 11-H ) :   0.9464
B(  9-C , 12-C ) :   1.0738 B( 12-C , 13-H ) :   0.9704 B( 12-C , 14-H ) :   0.9722
B( 12-C , 15-H ) :   0.9724 B( 16-S , 17-C ) :   1.1694 B( 16-S , 20-C ) :   1.1311
B( 17-C , 18-C ) :   1.5905 B( 17-C , 33-H ) :   0.9709 B( 18-C , 19-C ) :   1.2539
B( 18-C , 21-H ) :   0.9906 B( 19-C , 20-C ) :   1.5757 B( 19-C , 22-C ) :   1.0548
B( 22-C , 23-H ) :   0.9282 B( 22-C , 24-H ) :   0.9355 B( 22-C , 25-C ) :   1.0501
B( 25-C , 26-H ) :   0.9592 B( 25-C , 27-H ) :   0.9544 B( 25-C , 28-C ) :   1.0897
B( 28-C , 29-H ) :   0.9730 B( 28-C , 30-H ) :   0.9727 B( 28-C , 31-H ) :   0.9760

Dispersion correction           -0.014027787
FINAL SINGLE POINT ENERGY     -1339.854039583098

DIPOLE MOMENT
-------------
                                X             Y             Z
Electronic contribution:      9.59059     -28.44445      -2.80531
Nuclear contribution   :     -9.68577      29.08431       2.97751
                        -----------------------------------------
Total Dipole Moment    :     -0.09519       0.63986       0.17220
                        -----------------------------------------
Magnitude (a.u.)       :      0.66943
Magnitude (Debye)      :      1.70156

Rotational constants in cm-1:     0.016526     0.009578     0.006815
Rotational constants in MHz :   495.430111   287.142448   204.308243

                             ****ORCA TERMINATED NORMALLY****
TOTAL RUN TIME: 0 days 0 hours 0 minutes 30 seconds 179 msec
