                         Program Version 4.2.1 -  RELEASE  -
|  1> ! wB97X-D3 SP def2-SVP
|  2> %pal
|  3> nprocs 16
|  4> end
|  5>
|  6> * xyz 0 1
|  7> S 	 -2.9655 	 -13.3925 	 70.7306
|  8> C 	 -3.48318 	 -14.6732 	 69.6906
|  9> C 	 -4.4117 	 -14.1818 	 68.7307
| 10> C 	 -4.63692 	 -12.7892 	 68.8732
| 11> C 	 -3.97071 	 -12.1671 	 69.9334
| 12> H 	 -5.15335 	 -12.1573 	 68.1823
| 13> C 	 -4.98661 	 -15.09 	 67.6666
| 14> H 	 -4.38228 	 -16.0132 	 67.5399
| 15> H 	 -4.75081 	 -14.5984 	 66.7038
| 16> C 	 -6.51771 	 -15.4556 	 67.8221
| 17> H 	 -6.75246 	 -16.4184 	 67.3202
| 18> H 	 -6.63261 	 -15.6993 	 68.8686
| 19> C 	 -7.44411 	 -14.2824 	 67.4533
| 20> H 	 -8.43905 	 -14.5696 	 67.772
| 21> H 	 -7.27166 	 -13.2989 	 67.9541
| 22> H 	 -7.20455 	 -14.0653 	 66.4437
| 23> S 	 -4.75662 	 -10.4512 	 71.8629
| 24> C 	 -4.85768 	 -8.70861 	 71.5403
| 25> C 	 -4.56594 	 -8.49322 	 70.2074
| 26> C 	 -4.12944 	 -9.63866 	 69.5376
| 27> C 	 -4.1406 	 -10.7741 	 70.2926
| 28> H 	 -4.60819 	 -7.51891 	 69.7458
| 29> C 	 -3.84048 	 -9.45022 	 68.0565
| 30> H 	 -3.21104 	 -10.3021 	 67.7948
| 31> H 	 -3.11504 	 -8.58121 	 68.0774
| 32> C 	 -5.05706 	 -9.30569 	 67.169
| 33> H 	 -5.59587 	 -8.43212 	 67.4826
| 34> H 	 -5.74013 	 -10.0897 	 67.3619
| 35> C 	 -4.65716 	 -9.31425 	 65.7207
| 36> H 	 -4.23253 	 -8.36717 	 65.4142
| 37> H 	 -5.40629 	 -9.63522 	 65.0379
| 38> H 	 -3.87161 	 -10.0219 	 65.5072
| 39> H 	 -2.95055 	 -15.6467 	 69.6623
| 40> H 	 -4.96371 	 -7.9137 	 72.2321
| 41> *
| 42>
| 43>                          ****END OF INPUT****

CARTESIAN COORDINATES (ANGSTROEM)
---------------------------------
  S     -2.965500  -13.392500   70.730600
  C     -3.483180  -14.673200   69.690600
  C     -4.411700  -14.181800   68.730700
  C     -4.636920  -12.789200   68.873200
  C     -3.970710  -12.167100   69.933400
  H     -5.153350  -12.157300   68.182300
  C     -4.986610  -15.090000   67.666600
  H     -4.382280  -16.013200   67.539900
  H     -4.750810  -14.598400   66.703800
  C     -6.517710  -15.455600   67.822100
  H     -6.752460  -16.418400   67.320200
  H     -6.632610  -15.699300   68.868600
  C     -7.444110  -14.282400   67.453300
  H     -8.439050  -14.569600   67.772000
  H     -7.271660  -13.298900   67.954100
  H     -7.204550  -14.065300   66.443700
  S     -4.756620  -10.451200   71.862900
  C     -4.857680   -8.708610   71.540300
  C     -4.565940   -8.493220   70.207400
  C     -4.129440   -9.638660   69.537600
  C     -4.140600  -10.774100   70.292600
  H     -4.608190   -7.518910   69.745800
  C     -3.840480   -9.450220   68.056500
  H     -3.211040  -10.302100   67.794800
  H     -3.115040   -8.581210   68.077400
  C     -5.057060   -9.305690   67.169000
  H     -5.595870   -8.432120   67.482600
  H     -5.740130  -10.089700   67.361900
  C     -4.657160   -9.314250   65.720700
  H     -4.232530   -8.367170   65.414200
  H     -5.406290   -9.635220   65.037900
  H     -3.871610  -10.021900   65.507200
  H     -2.950550  -15.646700   69.662300
  H     -4.963710   -7.913700   72.232100

 Total Charge           Charge          ....    0
 Multiplicity           Mult            ....    1
 Number of Electrons    NEL             ....  134
 Basis Dimension        Dim             ....  322

ORBITAL ENERGIES
----------------

  NO   OCC          E(Eh)            E(eV)
   0   2.0000     -88.968788     -2420.9638
   1   2.0000     -88.963460     -2420.8188
   2   2.0000     -10.331461      -281.1333
   3   2.0000     -10.322416      -280.8872
   4   2.0000     -10.321077      -280.8508
   5   2.0000     -10.315222      -280.6915
   6   2.0000     -10.306399      -280.4514
   7   2.0000     -10.297184      -280.2006
   8   2.0000     -10.295556      -280.1563
   9   2.0000     -10.292619      -280.0764
  10   2.0000     -10.291584      -280.0482
  11   2.0000     -10.290868      -280.0287
  12   2.0000     -10.287632      -279.9407
  13   2.0000     -10.283660      -279.8326
  14   2.0000     -10.278137      -279.6823
  15   2.0000     -10.272757      -279.5359
  16   2.0000      -8.083108      -219.9525
  17   2.0000      -8.078483      -219.8267
  18   2.0000      -6.041566      -164.3994
  19   2.0000      -6.037417      -164.2865
  20   2.0000      -6.037023      -164.2757
  21   2.0000      -6.034202      -164.1990
  22   2.0000      -6.032912      -164.1639
  23   2.0000      -6.029207      -164.0631
  24   2.0000      -1.009888       -27.4804
  25   2.0000      -0.984985       -26.8028
  26   2.0000      -0.917151       -24.9569
  27   2.0000      -0.904715       -24.6186
  28   2.0000      -0.872131       -23.7319
  29   2.0000      -0.855828       -23.2883
  30   2.0000      -0.846139       -23.0246
  31   2.0000      -0.816214       -22.2103
  32   2.0000      -0.780274       -21.2323
  33   2.0000      -0.769266       -20.9328
  34   2.0000      -0.712991       -19.4015
  35   2.0000      -0.702712       -19.1218
  36   2.0000      -0.698861       -19.0170
  37   2.0000      -0.669849       -18.2275
  38   2.0000      -0.644870       -17.5478
  39   2.0000      -0.616598       -16.7785
  40   2.0000      -0.594428       -16.1752
  41   2.0000      -0.570590       -15.5265
  42   2.0000      -0.568166       -15.4606
  43   2.0000      -0.545954       -14.8562
  44   2.0000      -0.538140       -14.6435
  45   2.0000      -0.527609       -14.3570
  46   2.0000      -0.520119       -14.1532
  47   2.0000      -0.517406       -14.0793
  48   2.0000      -0.516601       -14.0574
  49   2.0000      -0.498828       -13.5738
  50   2.0000      -0.491350       -13.3703
  51   2.0000      -0.482727       -13.1357
  52   2.0000      -0.477112       -12.9829
  53   2.0000      -0.466710       -12.6998
  54   2.0000      -0.456574       -12.4240
  55   2.0000      -0.445625       -12.1261
  56   2.0000      -0.440606       -11.9895
  57   2.0000      -0.440166       -11.9775
  58   2.0000      -0.432278       -11.7629
  59   2.0000      -0.427416       -11.6306
  60   2.0000      -0.424166       -11.5422
  61   2.0000      -0.413668       -11.2565
  62   2.0000      -0.404540       -11.0081
  63   2.0000      -0.346413        -9.4264
  64   2.0000      -0.330996        -9.0069
  65   2.0000      -0.328044        -8.9265
  66   2.0000      -0.293945        -7.9986
  67   0.0000       0.028931         0.7873
  68   0.0000       0.066485         1.8092
  69   0.0000       0.114291         3.1100
  70   0.0000       0.120897         3.2898
  71   0.0000       0.130748         3.5578

MULLIKEN ATOMIC CHARGES
-----------------------
   0 S :    0.121851
   1 C :   -0.142849
   2 C :   -0.080463
   3 C :    0.057570
   4 C :   -0.173741
   5 H :   -0.014634
   6 C :    0.026040
   7 H :    0.018914
   8 H :    0.027730
   9 C :   -0.057724
  10 H :    0.037775
  11 H :    0.024957
  12 C :   -0.042423
  13 H :    0.041640
  14 H :    0.036409
  15 H :    0.023950
  16 S :    0.105901
  17 C :   -0.076655
  18 C :   -0.041171
  19 C :   -0.052079
  20 C :   -0.142708
  21 H :    0.016201
  22 C :    0.018350
  23 H :    0.021183
  24 H :    0.036877
  25 C :   -0.008600
  26 H :    0.017865
  27 H :    0.015932
  28 C :   -0.003530
  29 H :    0.026133
  30 H :    0.025054
  31 H :    0.014486
  32 H :    0.075858
  33 H :    0.045900
Sum of atomic charges:   -0.0000000

LOEWDIN ATOMIC CHARGES
----------------------
   0 S :    0.414468
   1 C :   -0.210117
   2 C :   -0.064156
   3 C :   -0.056284
   4 C :   -0.198490
   5 H :    0.023528
   6 C :   -0.040464
   7 H :    0.031499
   8 H :    0.029114
   9 C :   -0.037790
  10 H :    0.029021
  11 H :    0.022278
  12 C :   -0.066998
  13 H :    0.029579
  14 H :    0.031259
  15 H :    0.020147
  16 S :    0.414501
  17 C :   -0.174216
  18 C :   -0.068114
  19 C :   -0.067876
  20 C :   -0.209085
  21 H :    0.029961
  22 C :   -0.033513
  23 H :    0.026320
  24 H :    0.037638
  25 C :   -0.034894
  26 H :    0.024432
  27 H :    0.019510
  28 C :   -0.060286
  29 H :    0.026564
  30 H :    0.023403
  31 H :    0.025650
  32 H :    0.039090
  33 H :    0.024321

  Mayer bond orders larger than 0.100000
B(  0-S ,  1-C ) :   1.1712 B(  0-S ,  4-C ) :   1.1580 B(  1-C ,  2-C ) :   1.5463
B(  1-C ,  4-C ) :   0.1101 B(  1-C , 32-H ) :   0.9635 B(  2-C ,  3-C ) :   1.2872
B(  2-C ,  6-C ) :   1.0292 B(  3-C ,  4-C ) :   1.5327 B(  3-C ,  5-H ) :   0.9923
B(  4-C , 20-C ) :   1.0327 B(  6-C ,  7-H ) :   0.9429 B(  6-C ,  8-H ) :   0.9453
B(  6-C ,  9-C ) :   1.0491 B(  9-C , 10-H ) :   0.9587 B(  9-C , 11-H ) :   0.9560
B(  9-C , 12-C ) :   1.0688 B( 12-C , 13-H ) :   0.9721 B( 12-C , 14-H ) :   0.9714
B( 12-C , 15-H ) :   0.9782 B( 16-S , 17-C ) :   1.1526 B( 16-S , 20-C ) :   1.1482
B( 17-C , 18-C ) :   1.5863 B( 17-C , 20-C ) :   0.1019 B( 17-C , 33-H ) :   0.9732
B( 18-C , 19-C ) :   1.2658 B( 18-C , 21-H ) :   0.9887 B( 19-C , 20-C ) :   1.6002
B( 19-C , 22-C ) :   1.0324 B( 22-C , 23-H ) :   0.9321 B( 22-C , 24-H ) :   0.9359
B( 22-C , 25-C ) :   1.0626 B( 25-C , 26-H ) :   0.9455 B( 25-C , 27-H ) :   0.9490
B( 25-C , 28-C ) :   1.0856 B( 28-C , 29-H ) :   0.9730 B( 28-C , 30-H ) :   0.9731
B( 28-C , 31-H ) :   0.9702

Dispersion correction           -0.014808005
FINAL SINGLE POINT ENERGY     -1339.873585708606

DIPOLE MOMENT
-------------
                                X             Y             Z
Electronic contribution:     11.22329       1.03872      26.59392
Nuclear contribution   :    -11.36510      -0.98368     -27.29371
                        -----------------------------------------
Total Dipole Moment    :     -0.14181       0.05503      -0.69979
                        -----------------------------------------
Magnitude (a.u.)       :      0.71613
Magnitude (Debye)      :      1.82026

Rotational constants in cm-1:     0.016123     0.009977     0.007475
Rotational constants in MHz :   483.365499   299.088641   224.094014

                             ****ORCA TERMINATED NORMALLY****
TOTAL RUN TIME: 0 days 0 hours 0 minutes 35 seconds 954 msec
