                         Program Version 4.2.1 -  RELEASE  -
|  1> ! wB97X-D3 SP def2-SVP
|  2> %pal
|  3> nprocs 16
|  4> end
|  5>
|  6> * xyz 0 1
|  7> S 	 -99.0105 	 42.0887 	 120.303
|  8> C 	 -98.8199 	 43.3648 	 121.509
|  9> C 	 -97.7075 	 44.2016 	 121.243
| 10> C 	 -96.9034 	 43.534 	 120.243
| 11> C 	 -97.4403 	 42.4264 	 119.629
| 12> H 	 -95.9349 	 43.8285 	 119.967
| 13> C 	 -97.3727 	 45.5763 	 121.864
| 14> H 	 -96.5067 	 45.3016 	 122.471
| 15> H 	 -98.188 	 45.822 	 122.634
| 16> C 	 -97.0736 	 46.7398 	 120.898
| 17> H 	 -97.9066 	 46.8953 	 120.236
| 18> H 	 -97.0979 	 47.6632 	 121.427
| 19> C 	 -95.6677 	 46.6979 	 120.323
| 20> H 	 -95.35 	 47.6153 	 119.794
| 21> H 	 -94.9138 	 46.436 	 120.988
| 22> H 	 -95.6486 	 45.9273 	 119.61
| 23> S 	 -95.8849 	 40.1339 	 119.377
| 24> C 	 -95.268 	 39.6545 	 117.819
| 25> C 	 -95.4976 	 40.5944 	 116.843
| 26> C 	 -96.2542 	 41.6711 	 117.421
| 27> C 	 -96.6337 	 41.5373 	 118.735
| 28> H 	 -95.0735 	 40.4013 	 115.856
| 29> C 	 -96.7546 	 42.8512 	 116.571
| 30> H 	 -97.595 	 43.3822 	 117.087
| 31> H 	 -97.394 	 42.57 	 115.726
| 32> C 	 -95.7359 	 44.0091 	 116.193
| 33> H 	 -95.0284 	 44.2507 	 116.965
| 34> H 	 -96.311 	 44.9519 	 115.966
| 35> C 	 -94.8986 	 43.6871 	 114.924
| 36> H 	 -94.4684 	 42.6746 	 114.88
| 37> H 	 -94.0486 	 44.3757 	 114.849
| 38> H 	 -95.6792 	 43.7731 	 114.205
| 39> H 	 -99.5404 	 43.8795 	 122.181
| 40> H 	 -94.6548 	 38.7751 	 117.649
| 41> *
| 42>
| 43>                          ****END OF INPUT****

CARTESIAN COORDINATES (ANGSTROEM)
---------------------------------
  S    -99.010500   42.088700  120.303000
  C    -98.819900   43.364800  121.509000
  C    -97.707500   44.201600  121.243000
  C    -96.903400   43.534000  120.243000
  C    -97.440300   42.426400  119.629000
  H    -95.934900   43.828500  119.967000
  C    -97.372700   45.576300  121.864000
  H    -96.506700   45.301600  122.471000
  H    -98.188000   45.822000  122.634000
  C    -97.073600   46.739800  120.898000
  H    -97.906600   46.895300  120.236000
  H    -97.097900   47.663200  121.427000
  C    -95.667700   46.697900  120.323000
  H    -95.350000   47.615300  119.794000
  H    -94.913800   46.436000  120.988000
  H    -95.648600   45.927300  119.610000
  S    -95.884900   40.133900  119.377000
  C    -95.268000   39.654500  117.819000
  C    -95.497600   40.594400  116.843000
  C    -96.254200   41.671100  117.421000
  C    -96.633700   41.537300  118.735000
  H    -95.073500   40.401300  115.856000
  C    -96.754600   42.851200  116.571000
  H    -97.595000   43.382200  117.087000
  H    -97.394000   42.570000  115.726000
  C    -95.735900   44.009100  116.193000
  H    -95.028400   44.250700  116.965000
  H    -96.311000   44.951900  115.966000
  C    -94.898600   43.687100  114.924000
  H    -94.468400   42.674600  114.880000
  H    -94.048600   44.375700  114.849000
  H    -95.679200   43.773100  114.205000
  H    -99.540400   43.879500  122.181000
  H    -94.654800   38.775100  117.649000

 Total Charge           Charge          ....    0
 Multiplicity           Mult            ....    1
 Number of Electrons    NEL             ....  134
 Basis Dimension        Dim             ....  322

ORBITAL ENERGIES
----------------

  NO   OCC          E(Eh)            E(eV)
   0   2.0000     -88.971723     -2421.0437
   1   2.0000     -88.963123     -2420.8096
   2   2.0000     -10.330339      -281.1028
   3   2.0000     -10.326079      -280.9869
   4   2.0000     -10.319587      -280.8102
   5   2.0000     -10.316331      -280.7216
   6   2.0000     -10.307685      -280.4864
   7   2.0000     -10.306886      -280.4646
   8   2.0000     -10.305835      -280.4360
   9   2.0000     -10.296440      -280.1804
  10   2.0000     -10.291808      -280.0543
  11   2.0000     -10.290108      -280.0081
  12   2.0000     -10.289589      -279.9940
  13   2.0000     -10.288306      -279.9590
  14   2.0000     -10.273794      -279.5642
  15   2.0000     -10.272707      -279.5346
  16   2.0000      -8.085572      -220.0196
  17   2.0000      -8.078823      -219.8360
  18   2.0000      -6.044291      -164.4735
  19   2.0000      -6.040174      -164.3615
  20   2.0000      -6.037212      -164.2809
  21   2.0000      -6.036176      -164.2527
  22   2.0000      -6.033137      -164.1700
  23   2.0000      -6.029694      -164.0763
  24   2.0000      -1.007867       -27.4254
  25   2.0000      -0.984574       -26.7916
  26   2.0000      -0.913383       -24.8544
  27   2.0000      -0.895199       -24.3596
  28   2.0000      -0.869776       -23.6678
  29   2.0000      -0.847831       -23.0707
  30   2.0000      -0.845499       -23.0072
  31   2.0000      -0.818148       -22.2629
  32   2.0000      -0.785128       -21.3644
  33   2.0000      -0.769024       -20.9262
  34   2.0000      -0.714961       -19.4551
  35   2.0000      -0.699071       -19.0227
  36   2.0000      -0.687335       -18.7033
  37   2.0000      -0.658794       -17.9267
  38   2.0000      -0.635583       -17.2951
  39   2.0000      -0.619085       -16.8462
  40   2.0000      -0.596460       -16.2305
  41   2.0000      -0.575576       -15.6622
  42   2.0000      -0.548398       -14.9227
  43   2.0000      -0.547543       -14.8994
  44   2.0000      -0.544786       -14.8244
  45   2.0000      -0.533275       -14.5111
  46   2.0000      -0.517677       -14.0867
  47   2.0000      -0.516019       -14.0416
  48   2.0000      -0.500026       -13.6064
  49   2.0000      -0.492446       -13.4001
  50   2.0000      -0.489411       -13.3175
  51   2.0000      -0.476295       -12.9606
  52   2.0000      -0.473077       -12.8731
  53   2.0000      -0.468266       -12.7422
  54   2.0000      -0.461816       -12.5666
  55   2.0000      -0.449157       -12.2222
  56   2.0000      -0.439127       -11.9493
  57   2.0000      -0.438178       -11.9234
  58   2.0000      -0.432433       -11.7671
  59   2.0000      -0.427700       -11.6383
  60   2.0000      -0.416453       -11.3323
  61   2.0000      -0.412854       -11.2343
  62   2.0000      -0.398333       -10.8392
  63   2.0000      -0.340065        -9.2536
  64   2.0000      -0.327341        -8.9074
  65   2.0000      -0.323403        -8.8002
  66   2.0000      -0.310817        -8.4578
  67   0.0000       0.041265         1.1229
  68   0.0000       0.059434         1.6173
  69   0.0000       0.110850         3.0164
  70   0.0000       0.122348         3.3293
  71   0.0000       0.130358         3.5472

MULLIKEN ATOMIC CHARGES
-----------------------
   0 S :    0.128775
   1 C :   -0.114463
   2 C :   -0.125410
   3 C :    0.055421
   4 C :   -0.164942
   5 H :   -0.011532
   6 C :    0.028625
   7 H :    0.043670
   8 H :    0.032128
   9 C :   -0.021715
  10 H :    0.029871
  11 H :    0.018496
  12 C :   -0.022700
  13 H :    0.036738
  14 H :    0.016418
  15 H :    0.015736
  16 S :    0.116887
  17 C :   -0.104271
  18 C :   -0.028751
  19 C :   -0.001858
  20 C :   -0.153026
  21 H :    0.032474
  22 C :    0.006456
  23 H :    0.024908
  24 H :    0.026810
  25 C :   -0.082774
  26 H :    0.026941
  27 H :    0.037775
  28 C :   -0.048799
  29 H :    0.028525
  30 H :    0.037786
  31 H :    0.023767
  32 H :    0.055542
  33 H :    0.056489
Sum of atomic charges:    0.0000000

LOEWDIN ATOMIC CHARGES
----------------------
   0 S :    0.410362
   1 C :   -0.211267
   2 C :   -0.059707
   3 C :   -0.052638
   4 C :   -0.204833
   5 H :    0.017794
   6 C :   -0.033465
   7 H :    0.036347
   8 H :    0.037917
   9 C :   -0.037333
  10 H :    0.027935
  11 H :    0.024808
  12 C :   -0.057936
  13 H :    0.033101
  14 H :    0.019067
  15 H :    0.016803
  16 S :    0.424057
  17 C :   -0.181894
  18 C :   -0.075639
  19 C :   -0.056059
  20 C :   -0.210492
  21 H :    0.039127
  22 C :   -0.046078
  23 H :    0.035238
  24 H :    0.030549
  25 C :   -0.037325
  26 H :    0.015741
  27 H :    0.030084
  28 C :   -0.068576
  29 H :    0.021987
  30 H :    0.026169
  31 H :    0.020475
  32 H :    0.036498
  33 H :    0.029184

  Mayer bond orders larger than 0.100000
B(  0-S ,  1-C ) :   1.1418 B(  0-S ,  4-C ) :   1.1355 B(  1-C ,  2-C ) :   1.6279
B(  1-C , 32-H ) :   0.9497 B(  2-C ,  3-C ) :   1.2266 B(  2-C ,  6-C ) :   1.0123
B(  3-C ,  4-C ) :   1.6027 B(  3-C ,  5-H ) :   0.9909 B(  4-C , 20-C ) :   0.9955
B(  6-C ,  7-H ) :   0.9411 B(  6-C ,  8-H ) :   0.9404 B(  6-C ,  9-C ) :   1.0646
B(  9-C , 10-H ) :   0.9568 B(  9-C , 11-H ) :   0.9528 B(  9-C , 12-C ) :   1.0683
B( 12-C , 13-H ) :   0.9689 B( 12-C , 14-H ) :   0.9727 B( 12-C , 15-H ) :   0.9733
B( 16-S , 17-C ) :   1.1727 B( 16-S , 20-C ) :   1.1442 B( 17-C , 18-C ) :   1.6116
B( 17-C , 33-H ) :   0.9638 B( 18-C , 19-C ) :   1.2212 B( 18-C , 21-H ) :   0.9953
B( 19-C , 20-C ) :   1.6295 B( 19-C , 22-C ) :   1.0345 B( 22-C , 23-H ) :   0.9341
B( 22-C , 24-H ) :   0.9471 B( 22-C , 25-C ) :   1.0538 B( 25-C , 26-H ) :   0.9610
B( 25-C , 27-H ) :   0.9629 B( 25-C , 28-C ) :   1.0606 B( 28-C , 29-H ) :   0.9768
B( 28-C , 30-H ) :   0.9753 B( 28-C , 31-H ) :   0.9831

Dispersion correction           -0.014911462
FINAL SINGLE POINT ENERGY     -1339.850892043535

DIPOLE MOMENT
-------------
                                X             Y             Z
Electronic contribution:     -9.59616     -25.26659      10.33792
Nuclear contribution   :      9.89506      25.92488     -10.50445
                        -----------------------------------------
Total Dipole Moment    :      0.29889       0.65829      -0.16653
                        -----------------------------------------
Magnitude (a.u.)       :      0.74190
Magnitude (Debye)      :      1.88576

Rotational constants in cm-1:     0.016574     0.009872     0.007196
Rotational constants in MHz :   496.869506   295.950147   215.741700

                             ****ORCA TERMINATED NORMALLY****
TOTAL RUN TIME: 0 days 0 hours 0 minutes 33 seconds 847 msec
