                         Program Version 4.2.1 -  RELEASE  -
|  1> ! wB97X-D3 SP def2-SVP
|  2> %pal
|  3> nprocs 16
|  4> end
|  5>
|  6> * xyz 0 1
|  7> S 	 26.5141 	 31.5343 	 56.345
|  8> C 	 24.8414 	 31.0814 	 56.3266
|  9> C 	 24.3433 	 31.0265 	 55.0134
| 10> C 	 25.2854 	 31.6037 	 54.0604
| 11> C 	 26.4434 	 32.0316 	 54.6112
| 12> H 	 25.2197 	 31.6278 	 52.9517
| 13> C 	 23.0276 	 30.4243 	 54.6187
| 14> H 	 22.5425 	 29.8191 	 55.4213
| 15> H 	 23.35 	 29.7254 	 53.8403
| 16> C 	 22.0535 	 31.4173 	 53.9715
| 17> H 	 21.9183 	 32.3793 	 54.5954
| 18> H 	 22.4207 	 31.8106 	 53.0442
| 19> C 	 20.6798 	 30.7397 	 53.8204
| 20> H 	 20.1216 	 30.3291 	 54.6673
| 21> H 	 19.9548 	 31.2852 	 53.1651
| 22> H 	 20.8708 	 29.8333 	 53.1514
| 23> S 	 28.2072 	 34.05 	 54.7321
| 24> C 	 29.4255 	 34.1608 	 53.5529
| 25> C 	 29.1266 	 33.4791 	 52.3951
| 26> C 	 28.0583 	 32.6056 	 52.6101
| 27> C 	 27.5386 	 32.7109 	 53.9045
| 28> H 	 29.7532 	 33.5766 	 51.5056
| 29> C 	 27.7471 	 31.5895 	 51.5225
| 30> H 	 26.9494 	 30.8753 	 51.8603
| 31> H 	 28.624 	 30.9144 	 51.3932
| 32> C 	 27.2636 	 32.0953 	 50.1943
| 33> H 	 27.0696 	 31.2377 	 49.5197
| 34> H 	 28.0266 	 32.7698 	 49.8037
| 35> C 	 25.9831 	 32.9329 	 50.2117
| 36> H 	 25.9476 	 33.8721 	 50.8134
| 37> H 	 25.1961 	 32.2018 	 50.5761
| 38> H 	 25.7998 	 33.3201 	 49.1964
| 39> H 	 24.2599 	 30.6805 	 57.2105
| 40> H 	 30.0781 	 34.9792 	 53.5607
| 41> *
| 42>
| 43>                          ****END OF INPUT****

CARTESIAN COORDINATES (ANGSTROEM)
---------------------------------
  S     26.514100   31.534300   56.345000
  C     24.841400   31.081400   56.326600
  C     24.343300   31.026500   55.013400
  C     25.285400   31.603700   54.060400
  C     26.443400   32.031600   54.611200
  H     25.219700   31.627800   52.951700
  C     23.027600   30.424300   54.618700
  H     22.542500   29.819100   55.421300
  H     23.350000   29.725400   53.840300
  C     22.053500   31.417300   53.971500
  H     21.918300   32.379300   54.595400
  H     22.420700   31.810600   53.044200
  C     20.679800   30.739700   53.820400
  H     20.121600   30.329100   54.667300
  H     19.954800   31.285200   53.165100
  H     20.870800   29.833300   53.151400
  S     28.207200   34.050000   54.732100
  C     29.425500   34.160800   53.552900
  C     29.126600   33.479100   52.395100
  C     28.058300   32.605600   52.610100
  C     27.538600   32.710900   53.904500
  H     29.753200   33.576600   51.505600
  C     27.747100   31.589500   51.522500
  H     26.949400   30.875300   51.860300
  H     28.624000   30.914400   51.393200
  C     27.263600   32.095300   50.194300
  H     27.069600   31.237700   49.519700
  H     28.026600   32.769800   49.803700
  C     25.983100   32.932900   50.211700
  H     25.947600   33.872100   50.813400
  H     25.196100   32.201800   50.576100
  H     25.799800   33.320100   49.196400
  H     24.259900   30.680500   57.210500
  H     30.078100   34.979200   53.560700

 Total Charge           Charge          ....    0
 Multiplicity           Mult            ....    1
 Number of Electrons    NEL             ....  134
 Basis Dimension        Dim             ....  322

ORBITAL ENERGIES
----------------

  NO   OCC          E(Eh)            E(eV)
   0   2.0000     -88.965816     -2420.8829
   1   2.0000     -88.963969     -2420.8327
   2   2.0000     -10.329283      -281.0741
   3   2.0000     -10.325776      -280.9787
   4   2.0000     -10.317676      -280.7582
   5   2.0000     -10.306447      -280.4527
   6   2.0000     -10.304431      -280.3978
   7   2.0000     -10.303042      -280.3600
   8   2.0000     -10.295644      -280.1587
   9   2.0000     -10.295391      -280.1518
  10   2.0000     -10.295271      -280.1486
  11   2.0000     -10.293955      -280.1128
  12   2.0000     -10.291902      -280.0569
  13   2.0000     -10.289971      -280.0043
  14   2.0000     -10.286634      -279.9135
  15   2.0000     -10.286545      -279.9111
  16   2.0000      -8.082427      -219.9340
  17   2.0000      -8.078091      -219.8160
  18   2.0000      -6.040507      -164.3706
  19   2.0000      -6.036789      -164.2694
  20   2.0000      -6.036775      -164.2690
  21   2.0000      -6.033398      -164.1771
  22   2.0000      -6.032861      -164.1625
  23   2.0000      -6.028524      -164.0445
  24   2.0000      -1.014842       -27.6153
  25   2.0000      -0.984596       -26.7922
  26   2.0000      -0.916523       -24.9398
  27   2.0000      -0.910186       -24.7674
  28   2.0000      -0.870427       -23.6855
  29   2.0000      -0.855878       -23.2896
  30   2.0000      -0.842698       -22.9310
  31   2.0000      -0.814902       -22.1746
  32   2.0000      -0.783213       -21.3123
  33   2.0000      -0.765584       -20.8326
  34   2.0000      -0.706281       -19.2189
  35   2.0000      -0.695070       -18.9138
  36   2.0000      -0.689678       -18.7671
  37   2.0000      -0.661907       -18.0114
  38   2.0000      -0.637537       -17.3483
  39   2.0000      -0.620061       -16.8727
  40   2.0000      -0.603307       -16.4168
  41   2.0000      -0.564226       -15.3534
  42   2.0000      -0.559597       -15.2274
  43   2.0000      -0.554774       -15.0962
  44   2.0000      -0.547783       -14.9059
  45   2.0000      -0.523191       -14.2367
  46   2.0000      -0.514890       -14.0109
  47   2.0000      -0.507588       -13.8122
  48   2.0000      -0.499121       -13.5818
  49   2.0000      -0.494652       -13.4602
  50   2.0000      -0.493075       -13.4172
  51   2.0000      -0.483146       -13.1471
  52   2.0000      -0.472081       -12.8460
  53   2.0000      -0.462418       -12.5830
  54   2.0000      -0.453896       -12.3511
  55   2.0000      -0.452457       -12.3120
  56   2.0000      -0.445619       -12.1259
  57   2.0000      -0.442336       -12.0366
  58   2.0000      -0.438878       -11.9425
  59   2.0000      -0.425874       -11.5886
  60   2.0000      -0.421534       -11.4705
  61   2.0000      -0.406106       -11.0507
  62   2.0000      -0.405789       -11.0421
  63   2.0000      -0.352728        -9.5982
  64   2.0000      -0.334984        -9.1154
  65   2.0000      -0.321958        -8.7609
  66   2.0000      -0.288892        -7.8611
  67   0.0000       0.026655         0.7253
  68   0.0000       0.075548         2.0558
  69   0.0000       0.102588         2.7915
  70   0.0000       0.110149         2.9973
  71   0.0000       0.128513         3.4970

MULLIKEN ATOMIC CHARGES
-----------------------
   0 S :    0.106309
   1 C :   -0.140847
   2 C :   -0.092122
   3 C :    0.021450
   4 C :   -0.129070
   5 H :    0.004528
   6 C :    0.056911
   7 H :    0.030849
   8 H :    0.034867
   9 C :   -0.069985
  10 H :    0.044396
  11 H :    0.026579
  12 C :   -0.083098
  13 H :    0.046296
  14 H :    0.036643
  15 H :    0.019308
  16 S :    0.126515
  17 C :   -0.056850
  18 C :   -0.070099
  19 C :   -0.004399
  20 C :   -0.172158
  21 H :    0.031218
  22 C :    0.032481
  23 H :    0.013460
  24 H :    0.046489
  25 C :   -0.072055
  26 H :    0.044226
  27 H :    0.023810
  28 C :   -0.094117
  29 H :    0.052544
  30 H :    0.040454
  31 H :    0.038474
  32 H :    0.072085
  33 H :    0.034908
Sum of atomic charges:    0.0000000

LOEWDIN ATOMIC CHARGES
----------------------
   0 S :    0.380512
   1 C :   -0.215497
   2 C :   -0.062458
   3 C :   -0.068104
   4 C :   -0.179020
   5 H :    0.033141
   6 C :   -0.036664
   7 H :    0.034635
   8 H :    0.037669
   9 C :   -0.043185
  10 H :    0.032024
  11 H :    0.021902
  12 C :   -0.082326
  13 H :    0.026507
  14 H :    0.028662
  15 H :    0.028683
  16 S :    0.454419
  17 C :   -0.191864
  18 C :   -0.067856
  19 C :   -0.060466
  20 C :   -0.207183
  21 H :    0.036587
  22 C :   -0.041385
  23 H :    0.027480
  24 H :    0.039062
  25 C :   -0.045234
  26 H :    0.033735
  27 H :    0.018765
  28 C :   -0.075653
  29 H :    0.031426
  30 H :    0.026291
  31 H :    0.029431
  32 H :    0.042987
  33 H :    0.012975

  Mayer bond orders larger than 0.100000
B(  0-S ,  1-C ) :   1.1271 B(  0-S ,  4-C ) :   1.1255 B(  1-C ,  2-C ) :   1.6204
B(  1-C , 32-H ) :   0.9597 B(  2-C ,  3-C ) :   1.2022 B(  2-C ,  6-C ) :   1.0317
B(  3-C ,  4-C ) :   1.6239 B(  3-C ,  5-H ) :   0.9798 B(  4-C , 20-C ) :   1.0378
B(  6-C ,  7-H ) :   0.9515 B(  6-C ,  8-H ) :   0.9269 B(  6-C ,  9-C ) :   1.0505
B(  9-C , 10-H ) :   0.9600 B(  9-C , 11-H ) :   0.9510 B(  9-C , 12-C ) :   1.0749
B( 12-C , 13-H ) :   0.9784 B( 12-C , 14-H ) :   0.9741 B( 12-C , 15-H ) :   0.9691
B( 16-S , 17-C ) :   1.1816 B( 16-S , 20-C ) :   1.1838 B( 17-C , 18-C ) :   1.5803
B( 17-C , 20-C ) :   0.1017 B( 17-C , 33-H ) :   0.9688 B( 18-C , 19-C ) :   1.2703
B( 18-C , 21-H ) :   0.9919 B( 19-C , 20-C ) :   1.5522 B( 19-C , 22-C ) :   1.0318
B( 22-C , 23-H ) :   0.9331 B( 22-C , 24-H ) :   0.9381 B( 22-C , 25-C ) :   1.0797
B( 25-C , 26-H ) :   0.9534 B( 25-C , 27-H ) :   0.9517 B( 25-C , 28-C ) :   1.0784
B( 28-C , 29-H ) :   0.9724 B( 28-C , 30-H ) :   0.9683 B( 28-C , 31-H ) :   0.9715

Dispersion correction           -0.014421112
FINAL SINGLE POINT ENERGY     -1339.870358788444

DIPOLE MOMENT
-------------
                                X             Y             Z
Electronic contribution:     21.24852       7.36781      21.01216
Nuclear contribution   :    -21.49939      -7.52314     -21.69427
                        -----------------------------------------
Total Dipole Moment    :     -0.25087      -0.15533      -0.68210
                        -----------------------------------------
Magnitude (a.u.)       :      0.74318
Magnitude (Debye)      :      1.88903

Rotational constants in cm-1:     0.018294     0.009040     0.006637
Rotational constants in MHz :   548.429908   271.001518   198.977208

                             ****ORCA TERMINATED NORMALLY****
TOTAL RUN TIME: 0 days 0 hours 0 minutes 35 seconds 544 msec
