                         Program Version 4.2.1 -  RELEASE  -
|  1> ! wB97X-D3 SP def2-SVP
|  2> %pal
|  3> nprocs 16
|  4> end
|  5>
|  6> * xyz 0 1
|  7> S 	 -51.1307 	 37.6832 	 111.032
|  8> C 	 -50.1257 	 39.0254 	 110.408
|  9> C 	 -50.1886 	 39.0772 	 109.007
| 10> C 	 -50.9728 	 38.0154 	 108.478
| 11> C 	 -51.4536 	 37.0766 	 109.429
| 12> H 	 -51.1443 	 37.7263 	 107.436
| 13> C 	 -49.3894 	 39.9216 	 108.064
| 14> H 	 -48.3393 	 39.6096 	 107.869
| 15> H 	 -49.3782 	 40.9064 	 108.433
| 16> C 	 -50.0008 	 40.0652 	 106.63
| 17> H 	 -49.8694 	 39.1732 	 106.09
| 18> H 	 -51.0815 	 40.2016 	 106.736
| 19> C 	 -49.3068 	 41.131 	 105.716
| 20> H 	 -49.8709 	 41.1052 	 104.87
| 21> H 	 -49.3958 	 42.2021 	 106.088
| 22> H 	 -48.2802 	 40.7917 	 105.515
| 23> S 	 -51.7141 	 34.3077 	 109.538
| 24> C 	 -53.0679 	 33.5524 	 108.804
| 25> C 	 -53.9781 	 34.5166 	 108.422
| 26> C 	 -53.5455 	 35.8784 	 108.694
| 27> C 	 -52.2484 	 35.8951 	 109.139
| 28> H 	 -54.8699 	 34.2029 	 107.914
| 29> C 	 -54.3702 	 37.0975 	 108.286
| 30> H 	 -53.6609 	 37.9329 	 108.533
| 31> H 	 -55.2656 	 37.3051 	 108.898
| 32> C 	 -54.6513 	 37.1821 	 106.801
| 33> H 	 -55.044 	 38.1566 	 106.615
| 34> H 	 -55.449 	 36.5262 	 106.577
| 35> C 	 -53.5061 	 36.9449 	 105.887
| 36> H 	 -52.7566 	 37.7652 	 105.919
| 37> H 	 -53.9931 	 36.6681 	 104.959
| 38> H 	 -52.8963 	 36.1261 	 106.185
| 39> H 	 -49.4611 	 39.6275 	 111.069
| 40> H 	 -53.1025 	 32.4475 	 108.653
| 41> *
| 42>
| 43>                          ****END OF INPUT****

CARTESIAN COORDINATES (ANGSTROEM)
---------------------------------
  S    -51.130700   37.683200  111.032000
  C    -50.125700   39.025400  110.408000
  C    -50.188600   39.077200  109.007000
  C    -50.972800   38.015400  108.478000
  C    -51.453600   37.076600  109.429000
  H    -51.144300   37.726300  107.436000
  C    -49.389400   39.921600  108.064000
  H    -48.339300   39.609600  107.869000
  H    -49.378200   40.906400  108.433000
  C    -50.000800   40.065200  106.630000
  H    -49.869400   39.173200  106.090000
  H    -51.081500   40.201600  106.736000
  C    -49.306800   41.131000  105.716000
  H    -49.870900   41.105200  104.870000
  H    -49.395800   42.202100  106.088000
  H    -48.280200   40.791700  105.515000
  S    -51.714100   34.307700  109.538000
  C    -53.067900   33.552400  108.804000
  C    -53.978100   34.516600  108.422000
  C    -53.545500   35.878400  108.694000
  C    -52.248400   35.895100  109.139000
  H    -54.869900   34.202900  107.914000
  C    -54.370200   37.097500  108.286000
  H    -53.660900   37.932900  108.533000
  H    -55.265600   37.305100  108.898000
  C    -54.651300   37.182100  106.801000
  H    -55.044000   38.156600  106.615000
  H    -55.449000   36.526200  106.577000
  C    -53.506100   36.944900  105.887000
  H    -52.756600   37.765200  105.919000
  H    -53.993100   36.668100  104.959000
  H    -52.896300   36.126100  106.185000
  H    -49.461100   39.627500  111.069000
  H    -53.102500   32.447500  108.653000

 Total Charge           Charge          ....    0
 Multiplicity           Mult            ....    1
 Number of Electrons    NEL             ....  134
 Basis Dimension        Dim             ....  322

ORBITAL ENERGIES
----------------

  NO   OCC          E(Eh)            E(eV)
   0   2.0000     -88.967950     -2420.9410
   1   2.0000     -88.962632     -2420.7963
   2   2.0000     -10.330145      -281.0975
   3   2.0000     -10.322868      -280.8995
   4   2.0000     -10.322250      -280.8827
   5   2.0000     -10.320076      -280.8235
   6   2.0000     -10.305871      -280.4370
   7   2.0000     -10.303921      -280.3839
   8   2.0000     -10.296047      -280.1697
   9   2.0000     -10.293990      -280.1137
  10   2.0000     -10.289842      -280.0008
  11   2.0000     -10.288601      -279.9671
  12   2.0000     -10.285722      -279.8887
  13   2.0000     -10.281120      -279.7635
  14   2.0000     -10.273340      -279.5518
  15   2.0000     -10.270587      -279.4769
  16   2.0000      -8.081806      -219.9171
  17   2.0000      -8.078825      -219.8360
  18   2.0000      -6.040283      -164.3645
  19   2.0000      -6.037278      -164.2827
  20   2.0000      -6.036289      -164.2558
  21   2.0000      -6.033028      -164.1670
  22   2.0000      -6.032804      -164.1610
  23   2.0000      -6.029652      -164.0752
  24   2.0000      -1.009564       -27.4716
  25   2.0000      -0.982266       -26.7288
  26   2.0000      -0.916628       -24.9427
  27   2.0000      -0.910529       -24.7767
  28   2.0000      -0.870277       -23.6814
  29   2.0000      -0.849702       -23.1216
  30   2.0000      -0.844157       -22.9707
  31   2.0000      -0.811167       -22.0730
  32   2.0000      -0.785268       -21.3682
  33   2.0000      -0.775837       -21.1116
  34   2.0000      -0.711521       -19.3615
  35   2.0000      -0.698297       -19.0016
  36   2.0000      -0.689129       -18.7522
  37   2.0000      -0.654429       -17.8079
  38   2.0000      -0.640967       -17.4416
  39   2.0000      -0.616965       -16.7885
  40   2.0000      -0.596721       -16.2376
  41   2.0000      -0.575833       -15.6692
  42   2.0000      -0.563838       -15.3428
  43   2.0000      -0.559019       -15.2117
  44   2.0000      -0.546530       -14.8718
  45   2.0000      -0.525485       -14.2992
  46   2.0000      -0.522328       -14.2133
  47   2.0000      -0.514451       -13.9989
  48   2.0000      -0.500304       -13.6140
  49   2.0000      -0.497700       -13.5431
  50   2.0000      -0.495497       -13.4832
  51   2.0000      -0.484374       -13.1805
  52   2.0000      -0.469007       -12.7623
  53   2.0000      -0.463027       -12.5996
  54   2.0000      -0.455883       -12.4052
  55   2.0000      -0.447487       -12.1767
  56   2.0000      -0.444649       -12.0995
  57   2.0000      -0.432944       -11.7810
  58   2.0000      -0.431242       -11.7347
  59   2.0000      -0.422802       -11.5050
  60   2.0000      -0.420887       -11.4529
  61   2.0000      -0.417030       -11.3480
  62   2.0000      -0.406363       -11.0577
  63   2.0000      -0.334116        -9.0918
  64   2.0000      -0.333202        -9.0669
  65   2.0000      -0.326953        -8.8968
  66   2.0000      -0.302600        -8.2342
  67   0.0000       0.034498         0.9387
  68   0.0000       0.060317         1.6413
  69   0.0000       0.115978         3.1559
  70   0.0000       0.122247         3.3265
  71   0.0000       0.126917         3.4536

MULLIKEN ATOMIC CHARGES
-----------------------
   0 S :    0.118066
   1 C :   -0.154856
   2 C :   -0.048119
   3 C :   -0.000727
   4 C :   -0.157518
   5 H :    0.007491
   6 C :    0.097727
   7 H :    0.047973
   8 H :    0.010440
   9 C :   -0.157929
  10 H :    0.027646
  11 H :    0.034925
  12 C :   -0.006770
  13 H :    0.013972
  14 H :    0.042541
  15 H :    0.040294
  16 S :    0.116750
  17 C :   -0.114547
  18 C :   -0.022967
  19 C :   -0.046286
  20 C :   -0.191408
  21 H :    0.013677
  22 C :    0.063080
  23 H :    0.029062
  24 H :    0.042916
  25 C :   -0.050027
  26 H :    0.019173
  27 H :    0.012087
  28 C :   -0.033871
  29 H :    0.034554
  30 H :    0.034293
  31 H :    0.032123
  32 H :    0.066300
  33 H :    0.079935
Sum of atomic charges:   -0.0000000

LOEWDIN ATOMIC CHARGES
----------------------
   0 S :    0.402653
   1 C :   -0.193189
   2 C :   -0.065575
   3 C :   -0.066756
   4 C :   -0.196462
   5 H :    0.030178
   6 C :   -0.031875
   7 H :    0.039076
   8 H :    0.023276
   9 C :   -0.038753
  10 H :    0.014818
  11 H :    0.021797
  12 C :   -0.056359
  13 H :    0.014494
  14 H :    0.032399
  15 H :    0.029700
  16 S :    0.428317
  17 C :   -0.197533
  18 C :   -0.073722
  19 C :   -0.049095
  20 C :   -0.222966
  21 H :    0.027036
  22 C :   -0.037432
  23 H :    0.035179
  24 H :    0.036067
  25 C :   -0.040117
  26 H :    0.024867
  27 H :    0.014888
  28 C :   -0.064036
  29 H :    0.026839
  30 H :    0.033440
  31 H :    0.020843
  32 H :    0.036907
  33 H :    0.041098

  Mayer bond orders larger than 0.100000
B(  0-S ,  1-C ) :   1.1462 B(  0-S ,  4-C ) :   1.1664 B(  1-C ,  2-C ) :   1.5797
B(  1-C ,  4-C ) :   0.1094 B(  1-C , 32-H ) :   0.9692 B(  2-C ,  3-C ) :   1.2541
B(  2-C ,  6-C ) :   1.0261 B(  3-C ,  4-C ) :   1.5485 B(  3-C ,  5-H ) :   0.9853
B(  4-C , 20-C ) :   1.0280 B(  6-C ,  7-H ) :   0.9346 B(  6-C ,  8-H ) :   0.9343
B(  6-C ,  9-C ) :   1.0792 B(  9-C , 10-H ) :   0.9455 B(  9-C , 11-H ) :   0.9599
B(  9-C , 12-C ) :   1.0790 B( 12-C , 13-H ) :   0.9708 B( 12-C , 14-H ) :   0.9747
B( 12-C , 15-H ) :   0.9729 B( 16-S , 17-C ) :   1.1690 B( 16-S , 20-C ) :   1.1486
B( 17-C , 18-C ) :   1.5983 B( 17-C , 33-H ) :   0.9650 B( 18-C , 19-C ) :   1.2160
B( 18-C , 21-H ) :   0.9984 B( 19-C , 20-C ) :   1.5935 B( 19-C , 22-C ) :   1.0409
B( 22-C , 23-H ) :   0.9281 B( 22-C , 24-H ) :   0.9354 B( 22-C , 25-C ) :   1.0742
B( 25-C , 26-H ) :   0.9481 B( 25-C , 27-H ) :   0.9551 B( 25-C , 28-C ) :   1.0851
B( 28-C , 29-H ) :   0.9671 B( 28-C , 30-H ) :   0.9664 B( 28-C , 31-H ) :   0.9668

Dispersion correction           -0.015708998
FINAL SINGLE POINT ENERGY     -1339.868380280824

DIPOLE MOMENT
-------------
                                X             Y             Z
Electronic contribution:      1.48724     -17.79530      24.40368
Nuclear contribution   :     -1.62291      17.99262     -25.01791
                        -----------------------------------------
Total Dipole Moment    :     -0.13567       0.19732      -0.61422
                        -----------------------------------------
Magnitude (a.u.)       :      0.65925
Magnitude (Debye)      :      1.67568

Rotational constants in cm-1:     0.018684     0.009452     0.007302
Rotational constants in MHz :   560.134366   283.353673   218.906451

                             ****ORCA TERMINATED NORMALLY****
TOTAL RUN TIME: 0 days 0 hours 0 minutes 30 seconds 543 msec
