                         Program Version 4.2.1 -  RELEASE  -
|  1> ! wB97X-D3 SP def2-SVP
|  2> %pal
|  3> nprocs 16
|  4> end
|  5>
|  6> * xyz 0 1
|  7> S 	 -75.292 	 47.264 	 121.54
|  8> C 	 -76.2396 	 45.8349 	 121.069
|  9> C 	 -76.9154 	 45.337 	 122.191
| 10> C 	 -76.501 	 45.973 	 123.374
| 11> C 	 -75.6646 	 46.9758 	 123.227
| 12> H 	 -76.819 	 45.6966 	 124.35
| 13> C 	 -77.7621 	 44.1119 	 122.033
| 14> H 	 -78.1015 	 44.0142 	 121.042
| 15> H 	 -78.6164 	 44.3309 	 122.658
| 16> C 	 -77.136 	 42.8224 	 122.589
| 17> H 	 -76.8971 	 43.0348 	 123.657
| 18> H 	 -77.8144 	 41.9756 	 122.559
| 19> C 	 -75.9668 	 42.3215 	 121.719
| 20> H 	 -75.7553 	 41.3775 	 122.229
| 21> H 	 -76.1622 	 42.2376 	 120.658
| 22> H 	 -75.206 	 43.0088 	 121.858
| 23> S 	 -75.9776 	 48.0938 	 125.801
| 24> C 	 -74.5564 	 48.8046 	 126.573
| 25> C 	 -73.4954 	 48.7598 	 125.75
| 26> C 	 -73.725 	 48.1053 	 124.526
| 27> C 	 -75.0038 	 47.6769 	 124.373
| 28> H 	 -72.5132 	 49.173 	 126.075
| 29> C 	 -72.5953 	 48.041 	 123.511
| 30> H 	 -72.5692 	 47.1082 	 122.929
| 31> H 	 -71.6653 	 48.0481 	 124.181
| 32> C 	 -72.515 	 49.3082 	 122.641
| 33> H 	 -72.567 	 50.2452 	 123.208
| 34> H 	 -73.4027 	 49.3084 	 122.025
| 35> C 	 -71.2096 	 49.275 	 121.891
| 36> H 	 -70.8783 	 50.3337 	 121.72
| 37> H 	 -71.4492 	 48.8866 	 120.899
| 38> H 	 -70.3977 	 48.6537 	 122.39
| 39> H 	 -76.2355 	 45.4704 	 120.062
| 40> H 	 -74.3961 	 48.9455 	 127.611
| 41> *
| 42>
| 43>                          ****END OF INPUT****

CARTESIAN COORDINATES (ANGSTROEM)
---------------------------------
  S    -75.292000   47.264000  121.540000
  C    -76.239600   45.834900  121.069000
  C    -76.915400   45.337000  122.191000
  C    -76.501000   45.973000  123.374000
  C    -75.664600   46.975800  123.227000
  H    -76.819000   45.696600  124.350000
  C    -77.762100   44.111900  122.033000
  H    -78.101500   44.014200  121.042000
  H    -78.616400   44.330900  122.658000
  C    -77.136000   42.822400  122.589000
  H    -76.897100   43.034800  123.657000
  H    -77.814400   41.975600  122.559000
  C    -75.966800   42.321500  121.719000
  H    -75.755300   41.377500  122.229000
  H    -76.162200   42.237600  120.658000
  H    -75.206000   43.008800  121.858000
  S    -75.977600   48.093800  125.801000
  C    -74.556400   48.804600  126.573000
  C    -73.495400   48.759800  125.750000
  C    -73.725000   48.105300  124.526000
  C    -75.003800   47.676900  124.373000
  H    -72.513200   49.173000  126.075000
  C    -72.595300   48.041000  123.511000
  H    -72.569200   47.108200  122.929000
  H    -71.665300   48.048100  124.181000
  C    -72.515000   49.308200  122.641000
  H    -72.567000   50.245200  123.208000
  H    -73.402700   49.308400  122.025000
  C    -71.209600   49.275000  121.891000
  H    -70.878300   50.333700  121.720000
  H    -71.449200   48.886600  120.899000
  H    -70.397700   48.653700  122.390000
  H    -76.235500   45.470400  120.062000
  H    -74.396100   48.945500  127.611000

 Total Charge           Charge          ....    0
 Multiplicity           Mult            ....    1
 Number of Electrons    NEL             ....  134
 Basis Dimension        Dim             ....  322

ORBITAL ENERGIES
----------------

  NO   OCC          E(Eh)            E(eV)
   0   2.0000     -88.966518     -2420.9020
   1   2.0000     -88.964374     -2420.8437
   2   2.0000     -10.328149      -281.0432
   3   2.0000     -10.327103      -281.0148
   4   2.0000     -10.316966      -280.7389
   5   2.0000     -10.310977      -280.5760
   6   2.0000     -10.301717      -280.3240
   7   2.0000     -10.295582      -280.1570
   8   2.0000     -10.295045      -280.1424
   9   2.0000     -10.290191      -280.0103
  10   2.0000     -10.287680      -279.9420
  11   2.0000     -10.285242      -279.8757
  12   2.0000     -10.284275      -279.8494
  13   2.0000     -10.280280      -279.7406
  14   2.0000     -10.279863      -279.7293
  15   2.0000     -10.268996      -279.4336
  16   2.0000      -8.080445      -219.8801
  17   2.0000      -8.078479      -219.8266
  18   2.0000      -6.039019      -164.3301
  19   2.0000      -6.037214      -164.2810
  20   2.0000      -6.035106      -164.2236
  21   2.0000      -6.033150      -164.1703
  22   2.0000      -6.031177      -164.1167
  23   2.0000      -6.028981      -164.0569
  24   2.0000      -1.010661       -27.5015
  25   2.0000      -0.989668       -26.9302
  26   2.0000      -0.915488       -24.9117
  27   2.0000      -0.909789       -24.7566
  28   2.0000      -0.870033       -23.6748
  29   2.0000      -0.853500       -23.2249
  30   2.0000      -0.847035       -23.0490
  31   2.0000      -0.822343       -22.3771
  32   2.0000      -0.782441       -21.2913
  33   2.0000      -0.767794       -20.8927
  34   2.0000      -0.707591       -19.2545
  35   2.0000      -0.692673       -18.8486
  36   2.0000      -0.690830       -18.7984
  37   2.0000      -0.671264       -18.2660
  38   2.0000      -0.639559       -17.4033
  39   2.0000      -0.622690       -16.9443
  40   2.0000      -0.597501       -16.2588
  41   2.0000      -0.570562       -15.5258
  42   2.0000      -0.562971       -15.3192
  43   2.0000      -0.553472       -15.0607
  44   2.0000      -0.546049       -14.8587
  45   2.0000      -0.527944       -14.3661
  46   2.0000      -0.522196       -14.2097
  47   2.0000      -0.512416       -13.9435
  48   2.0000      -0.510197       -13.8832
  49   2.0000      -0.498690       -13.5700
  50   2.0000      -0.486134       -13.2284
  51   2.0000      -0.484622       -13.1872
  52   2.0000      -0.471078       -12.8187
  53   2.0000      -0.464550       -12.6410
  54   2.0000      -0.457741       -12.4558
  55   2.0000      -0.452633       -12.3168
  56   2.0000      -0.444398       -12.0927
  57   2.0000      -0.437930       -11.9167
  58   2.0000      -0.434849       -11.8328
  59   2.0000      -0.427520       -11.6334
  60   2.0000      -0.412929       -11.2364
  61   2.0000      -0.409689       -11.1482
  62   2.0000      -0.402585       -10.9549
  63   2.0000      -0.352634        -9.5957
  64   2.0000      -0.333747        -9.0817
  65   2.0000      -0.329635        -8.9698
  66   2.0000      -0.295863        -8.0508
  67   0.0000       0.028021         0.7625
  68   0.0000       0.080705         2.1961
  69   0.0000       0.107831         2.9342
  70   0.0000       0.111375         3.0307
  71   0.0000       0.131165         3.5692

MULLIKEN ATOMIC CHARGES
-----------------------
   0 S :    0.081692
   1 C :   -0.134346
   2 C :   -0.080042
   3 C :   -0.002790
   4 C :   -0.084754
   5 H :   -0.001546
   6 C :    0.114253
   7 H :    0.005953
   8 H :    0.020611
   9 C :   -0.102723
  10 H :    0.036249
  11 H :    0.028089
  12 C :   -0.019839
  13 H :    0.035960
  14 H :    0.031390
  15 H :    0.024146
  16 S :    0.084433
  17 C :   -0.065937
  18 C :   -0.056511
  19 C :   -0.035555
  20 C :   -0.145414
  21 H :    0.029971
  22 C :    0.000502
  23 H :    0.044766
  24 H :    0.024405
  25 C :   -0.048811
  26 H :    0.026359
  27 H :    0.024193
  28 C :   -0.054569
  29 H :    0.036803
  30 H :    0.034347
  31 H :    0.049390
  32 H :    0.049017
  33 H :    0.050306
Sum of atomic charges:    0.0000000

LOEWDIN ATOMIC CHARGES
----------------------
   0 S :    0.393834
   1 C :   -0.182159
   2 C :   -0.055454
   3 C :   -0.068165
   4 C :   -0.178278
   5 H :    0.025223
   6 C :   -0.028476
   7 H :    0.021901
   8 H :    0.032054
   9 C :   -0.036787
  10 H :    0.028394
  11 H :    0.020586
  12 C :   -0.057383
  13 H :    0.031516
  14 H :    0.024634
  15 H :    0.014374
  16 S :    0.378405
  17 C :   -0.176962
  18 C :   -0.070566
  19 C :   -0.067698
  20 C :   -0.177288
  21 H :    0.038188
  22 C :   -0.035739
  23 H :    0.028744
  24 H :    0.032723
  25 C :   -0.043948
  26 H :    0.024388
  27 H :    0.013092
  28 C :   -0.072839
  29 H :    0.030485
  30 H :    0.028131
  31 H :    0.033060
  32 H :    0.023567
  33 H :    0.028443

  Mayer bond orders larger than 0.100000
B(  0-S ,  1-C ) :   1.1302 B(  0-S ,  4-C ) :   1.1322 B(  1-C ,  2-C ) :   1.5875
B(  1-C , 32-H ) :   0.9772 B(  2-C ,  3-C ) :   1.2253 B(  2-C ,  6-C ) :   1.0391
B(  3-C ,  4-C ) :   1.6055 B(  3-C ,  5-H ) :   1.0008 B(  4-C , 20-C ) :   1.0080
B(  6-C ,  7-H ) :   0.9397 B(  6-C ,  8-H ) :   0.9249 B(  6-C ,  9-C ) :   1.0778
B(  9-C , 10-H ) :   0.9555 B(  9-C , 11-H ) :   0.9614 B(  9-C , 12-C ) :   1.0602
B( 12-C , 13-H ) :   0.9756 B( 12-C , 14-H ) :   0.9751 B( 12-C , 15-H ) :   0.9787
B( 16-S , 17-C ) :   1.1308 B( 16-S , 20-C ) :   1.1206 B( 17-C , 18-C ) :   1.6495
B( 17-C , 33-H ) :   0.9610 B( 18-C , 19-C ) :   1.2382 B( 18-C , 21-H ) :   0.9774
B( 19-C , 20-C ) :   1.6282 B( 19-C , 22-C ) :   1.0367 B( 22-C , 23-H ) :   0.9369
B( 22-C , 24-H ) :   0.9343 B( 22-C , 25-C ) :   1.0619 B( 25-C , 26-H ) :   0.9605
B( 25-C , 27-H ) :   0.9504 B( 25-C , 28-C ) :   1.0668 B( 28-C , 29-H ) :   0.9770
B( 28-C , 30-H ) :   0.9738 B( 28-C , 31-H ) :   0.9740

Dispersion correction           -0.014620188
FINAL SINGLE POINT ENERGY     -1339.871641233890

DIPOLE MOMENT
-------------
                                X             Y             Z
Electronic contribution:     -9.42350      11.14793       9.07859
Nuclear contribution   :      9.64148     -11.52685      -9.11179
                        -----------------------------------------
Total Dipole Moment    :      0.21799      -0.37891      -0.03320
                        -----------------------------------------
Magnitude (a.u.)       :      0.43840
Magnitude (Debye)      :      1.11433

Rotational constants in cm-1:     0.019705     0.008733     0.006890
Rotational constants in MHz :   590.730866   261.820319   206.570959

                             ****ORCA TERMINATED NORMALLY****
TOTAL RUN TIME: 0 days 0 hours 0 minutes 31 seconds 410 msec
