                         Program Version 4.2.1 -  RELEASE  -
|  1> ! wB97X-D3 SP def2-SVP
|  2> %pal
|  3> nprocs 16
|  4> end
|  5>
|  6> * xyz 0 1
|  7> S 	 9.28148 	 23.0171 	 66.9731
|  8> C 	 8.61484 	 23.3361 	 65.3449
|  9> C 	 8.77123 	 24.7013 	 65.0407
| 10> C 	 9.51415 	 25.4104 	 66.0494
| 11> C 	 9.8909 	 24.6345 	 67.1787
| 12> H 	 9.84911 	 26.4512 	 65.8997
| 13> C 	 8.28997 	 25.3591 	 63.7456
| 14> H 	 7.81198 	 24.5388 	 63.2103
| 15> H 	 9.16699 	 25.5304 	 63.1025
| 16> C 	 7.34333 	 26.5842 	 63.814
| 17> H 	 6.39938 	 26.4812 	 64.3673
| 18> H 	 7.87823 	 27.3763 	 64.2939
| 19> C 	 6.99303 	 27.176 	 62.4383
| 20> H 	 6.36355 	 26.6105 	 61.8057
| 21> H 	 6.56726 	 28.1643 	 62.5901
| 22> H 	 7.86284 	 27.2388 	 61.7942
| 23> S 	 9.98593 	 24.7328 	 69.9254
| 24> C 	 11.3472 	 25.5519 	 70.7044
| 25> C 	 12.0432 	 26.3131 	 69.7583
| 26> C 	 11.7402 	 25.922 	 68.4169
| 27> C 	 10.6706 	 25.0771 	 68.3048
| 28> H 	 12.7903 	 26.9808 	 70.1051
| 29> C 	 12.5222 	 26.419 	 67.2508
| 30> H 	 12.2185 	 25.7377 	 66.44
| 31> H 	 13.4854 	 26.1242 	 67.4704
| 32> C 	 12.5138 	 27.9256 	 66.9901
| 33> H 	 13.2293 	 28.2214 	 66.258
| 34> H 	 12.924 	 28.3804 	 67.8573
| 35> C 	 11.1831 	 28.5539 	 66.6937
| 36> H 	 10.8403 	 28.3638 	 65.6878
| 37> H 	 11.0725 	 29.5956 	 66.943
| 38> H 	 10.4404 	 28.0678 	 67.3161
| 39> H 	 8.08635 	 22.6098 	 64.7801
| 40> H 	 11.633 	 25.5672 	 71.7425
| 41> *
| 42>
| 43>                          ****END OF INPUT****

CARTESIAN COORDINATES (ANGSTROEM)
---------------------------------
  S      9.281480   23.017100   66.973100
  C      8.614840   23.336100   65.344900
  C      8.771230   24.701300   65.040700
  C      9.514150   25.410400   66.049400
  C      9.890900   24.634500   67.178700
  H      9.849110   26.451200   65.899700
  C      8.289970   25.359100   63.745600
  H      7.811980   24.538800   63.210300
  H      9.166990   25.530400   63.102500
  C      7.343330   26.584200   63.814000
  H      6.399380   26.481200   64.367300
  H      7.878230   27.376300   64.293900
  C      6.993030   27.176000   62.438300
  H      6.363550   26.610500   61.805700
  H      6.567260   28.164300   62.590100
  H      7.862840   27.238800   61.794200
  S      9.985930   24.732800   69.925400
  C     11.347200   25.551900   70.704400
  C     12.043200   26.313100   69.758300
  C     11.740200   25.922000   68.416900
  C     10.670600   25.077100   68.304800
  H     12.790300   26.980800   70.105100
  C     12.522200   26.419000   67.250800
  H     12.218500   25.737700   66.440000
  H     13.485400   26.124200   67.470400
  C     12.513800   27.925600   66.990100
  H     13.229300   28.221400   66.258000
  H     12.924000   28.380400   67.857300
  C     11.183100   28.553900   66.693700
  H     10.840300   28.363800   65.687800
  H     11.072500   29.595600   66.943000
  H     10.440400   28.067800   67.316100
  H      8.086350   22.609800   64.780100
  H     11.633000   25.567200   71.742500

 Total Charge           Charge          ....    0
 Multiplicity           Mult            ....    1
 Number of Electrons    NEL             ....  134
 Basis Dimension        Dim             ....  322

ORBITAL ENERGIES
----------------

  NO   OCC          E(Eh)            E(eV)
   0   2.0000     -88.967502     -2420.9288
   1   2.0000     -88.962926     -2420.8043
   2   2.0000     -10.333128      -281.1787
   3   2.0000     -10.325739      -280.9777
   4   2.0000     -10.321334      -280.8578
   5   2.0000     -10.319913      -280.8191
   6   2.0000     -10.307563      -280.4830
   7   2.0000     -10.300607      -280.2938
   8   2.0000     -10.298731      -280.2427
   9   2.0000     -10.297450      -280.2079
  10   2.0000     -10.293590      -280.1028
  11   2.0000     -10.290131      -280.0087
  12   2.0000     -10.282215      -279.7933
  13   2.0000     -10.282105      -279.7903
  14   2.0000     -10.274506      -279.5835
  15   2.0000     -10.272517      -279.5294
  16   2.0000      -8.081522      -219.9094
  17   2.0000      -8.076900      -219.7836
  18   2.0000      -6.040055      -164.3582
  19   2.0000      -6.035971      -164.2471
  20   2.0000      -6.035582      -164.2365
  21   2.0000      -6.032447      -164.1512
  22   2.0000      -6.031617      -164.1287
  23   2.0000      -6.027403      -164.0140
  24   2.0000      -1.002130       -27.2694
  25   2.0000      -0.977285       -26.5933
  26   2.0000      -0.916050       -24.9270
  27   2.0000      -0.908215       -24.7138
  28   2.0000      -0.870774       -23.6950
  29   2.0000      -0.853898       -23.2357
  30   2.0000      -0.844064       -22.9681
  31   2.0000      -0.812728       -22.1155
  32   2.0000      -0.785485       -21.3741
  33   2.0000      -0.775598       -21.1051
  34   2.0000      -0.717729       -19.5304
  35   2.0000      -0.706812       -19.2333
  36   2.0000      -0.699239       -19.0273
  37   2.0000      -0.661893       -18.0110
  38   2.0000      -0.640200       -17.4207
  39   2.0000      -0.617911       -16.8142
  40   2.0000      -0.590418       -16.0661
  41   2.0000      -0.568896       -15.4805
  42   2.0000      -0.563334       -15.3291
  43   2.0000      -0.556948       -15.1553
  44   2.0000      -0.547742       -14.9048
  45   2.0000      -0.533762       -14.5244
  46   2.0000      -0.524592       -14.2749
  47   2.0000      -0.509802       -13.8724
  48   2.0000      -0.509187       -13.8557
  49   2.0000      -0.499430       -13.5902
  50   2.0000      -0.491815       -13.3830
  51   2.0000      -0.478476       -13.0200
  52   2.0000      -0.470814       -12.8115
  53   2.0000      -0.463469       -12.6116
  54   2.0000      -0.454535       -12.3685
  55   2.0000      -0.452988       -12.3264
  56   2.0000      -0.442606       -12.0439
  57   2.0000      -0.441796       -12.0219
  58   2.0000      -0.438698       -11.9376
  59   2.0000      -0.424769       -11.5586
  60   2.0000      -0.418075       -11.3764
  61   2.0000      -0.416120       -11.3232
  62   2.0000      -0.412482       -11.2242
  63   2.0000      -0.343655        -9.3513
  64   2.0000      -0.330243        -8.9864
  65   2.0000      -0.327734        -8.9181
  66   2.0000      -0.290434        -7.9031
  67   0.0000       0.021437         0.5833
  68   0.0000       0.070236         1.9112
  69   0.0000       0.105637         2.8745
  70   0.0000       0.119154         3.2424
  71   0.0000       0.127949         3.4817

MULLIKEN ATOMIC CHARGES
-----------------------
   0 S :    0.111426
   1 C :   -0.116485
   2 C :   -0.093159
   3 C :    0.044925
   4 C :   -0.158722
   5 H :   -0.020876
   6 C :    0.059103
   7 H :    0.006022
   8 H :    0.039198
   9 C :   -0.050121
  10 H :    0.042028
  11 H :    0.022510
  12 C :   -0.042465
  13 H :    0.018851
  14 H :    0.037635
  15 H :    0.013464
  16 S :    0.092201
  17 C :   -0.088741
  18 C :   -0.034425
  19 C :   -0.077910
  20 C :   -0.122953
  21 H :    0.011425
  22 C :    0.105338
  23 H :    0.030559
  24 H :    0.004787
  25 C :   -0.027876
  26 H :    0.020465
  27 H :    0.007392
  28 C :   -0.040222
  29 H :    0.039760
  30 H :    0.031780
  31 H :    0.035219
  32 H :    0.042616
  33 H :    0.057252
Sum of atomic charges:    0.0000000

LOEWDIN ATOMIC CHARGES
----------------------
   0 S :    0.404470
   1 C :   -0.183733
   2 C :   -0.060514
   3 C :   -0.064795
   4 C :   -0.204471
   5 H :    0.030972
   6 C :   -0.036771
   7 H :    0.027634
   8 H :    0.036961
   9 C :   -0.036321
  10 H :    0.031527
  11 H :    0.021171
  12 C :   -0.062960
  13 H :    0.016594
  14 H :    0.029519
  15 H :    0.022502
  16 S :    0.375138
  17 C :   -0.169783
  18 C :   -0.066487
  19 C :   -0.055314
  20 C :   -0.187297
  21 H :    0.025395
  22 C :   -0.027641
  23 H :    0.035359
  24 H :    0.025030
  25 C :   -0.033673
  26 H :    0.023522
  27 H :    0.021144
  28 C :   -0.065573
  29 H :    0.020478
  30 H :    0.028327
  31 H :    0.027081
  32 H :    0.022296
  33 H :    0.030211

  Mayer bond orders larger than 0.100000
B(  0-S ,  1-C ) :   1.1381 B(  0-S ,  4-C ) :   1.1636 B(  1-C ,  2-C ) :   1.5798
B(  1-C ,  4-C ) :   0.1057 B(  1-C , 32-H ) :   0.9731 B(  2-C ,  3-C ) :   1.2700
B(  2-C ,  6-C ) :   1.0273 B(  3-C ,  4-C ) :   1.5183 B(  3-C ,  5-H ) :   0.9785
B(  4-C , 20-C ) :   1.0611 B(  6-C ,  7-H ) :   0.9390 B(  6-C ,  8-H ) :   0.9364
B(  6-C ,  9-C ) :   1.0575 B(  9-C , 10-H ) :   0.9581 B(  9-C , 11-H ) :   0.9544
B(  9-C , 12-C ) :   1.0829 B( 12-C , 13-H ) :   0.9768 B( 12-C , 14-H ) :   0.9752
B( 12-C , 15-H ) :   0.9717 B( 16-S , 17-C ) :   1.1472 B( 16-S , 20-C ) :   1.1111
B( 17-C , 18-C ) :   1.6232 B( 17-C , 33-H ) :   0.9693 B( 18-C , 19-C ) :   1.2131
B( 18-C , 21-H ) :   0.9942 B( 19-C , 20-C ) :   1.6152 B( 19-C , 22-C ) :   1.0364
B( 22-C , 23-H ) :   0.9332 B( 22-C , 24-H ) :   0.9169 B( 22-C , 25-C ) :   1.0762
B( 25-C , 26-H ) :   0.9506 B( 25-C , 27-H ) :   0.9494 B( 25-C , 28-C ) :   1.0860
B( 28-C , 29-H ) :   0.9623 B( 28-C , 30-H ) :   0.9655 B( 28-C , 31-H ) :   0.9657

Dispersion correction           -0.014904172
FINAL SINGLE POINT ENERGY     -1339.872482810035

DIPOLE MOMENT
-------------
                                X             Y             Z
Electronic contribution:      1.02068     -21.72297      22.01316
Nuclear contribution   :     -0.76264      22.33740     -22.45122
                        -----------------------------------------
Total Dipole Moment    :      0.25803       0.61443      -0.43806
                        -----------------------------------------
Magnitude (a.u.)       :      0.79750
Magnitude (Debye)      :      2.02708

Rotational constants in cm-1:     0.018999     0.008970     0.006799
Rotational constants in MHz :   569.583370   268.911004   203.834752

                             ****ORCA TERMINATED NORMALLY****
TOTAL RUN TIME: 0 days 0 hours 0 minutes 35 seconds 832 msec
