                         Program Version 4.2.1 -  RELEASE  -
|  1> ! wB97X-D3 SP def2-SVP
|  2> %pal
|  3> nprocs 16
|  4> end
|  5>
|  6> * xyz 0 1
|  7> S 	 -49.4693 	 31.4543 	 95.8319
|  8> C 	 -50.3064 	 32.7976 	 95.0878
|  9> C 	 -50.7186 	 33.7537 	 96.0152
| 10> C 	 -50.243 	 33.3719 	 97.3048
| 11> C 	 -49.622 	 32.1209 	 97.4448
| 12> H 	 -50.4031 	 34.0583 	 98.1299
| 13> C 	 -51.3226 	 35.0938 	 95.7293
| 14> H 	 -50.5969 	 35.9111 	 95.8965
| 15> H 	 -52.0839 	 35.2993 	 96.4623
| 16> C 	 -52.0508 	 35.2347 	 94.3195
| 17> H 	 -52.4018 	 36.3007 	 94.0723
| 18> H 	 -51.3795 	 35.0673 	 93.4924
| 19> C 	 -53.3425 	 34.4126 	 94.0813
| 20> H 	 -54.1477 	 34.9545 	 93.6842
| 21> H 	 -53.1946 	 33.5874 	 93.5154
| 22> H 	 -53.697 	 34.1434 	 95.0552
| 23> S 	 -47.1219 	 31.2408 	 98.221
| 24> C 	 -46.9134 	 30.8959 	 99.8881
| 25> C 	 -48.0695 	 30.9923 	 100.645
| 26> C 	 -49.2152 	 31.4182 	 99.9406
| 27> C 	 -48.8457 	 31.5567 	 98.5556
| 28> H 	 -47.9737 	 30.9286 	 101.693
| 29> C 	 -50.5536 	 31.4732 	 100.603
| 30> H 	 -50.8319 	 30.4724 	 100.934
| 31> H 	 -51.1997 	 31.8438 	 99.839
| 32> C 	 -50.5618 	 32.5518 	 101.683
| 33> H 	 -49.8208 	 32.2054 	 102.489
| 34> H 	 -51.5476 	 32.4888 	 102.155
| 35> C 	 -50.2676 	 34.028 	 101.25
| 36> H 	 -50.7052 	 34.7038 	 101.984
| 37> H 	 -50.7529 	 34.2782 	 100.291
| 38> H 	 -49.2479 	 34.2983 	 101.085
| 39> H 	 -50.5549 	 32.9165 	 93.9673
| 40> H 	 -46.0003 	 30.5398 	 100.291
| 41> *
| 42>
| 43>                          ****END OF INPUT****

CARTESIAN COORDINATES (ANGSTROEM)
---------------------------------
  S    -49.469300   31.454300   95.831900
  C    -50.306400   32.797600   95.087800
  C    -50.718600   33.753700   96.015200
  C    -50.243000   33.371900   97.304800
  C    -49.622000   32.120900   97.444800
  H    -50.403100   34.058300   98.129900
  C    -51.322600   35.093800   95.729300
  H    -50.596900   35.911100   95.896500
  H    -52.083900   35.299300   96.462300
  C    -52.050800   35.234700   94.319500
  H    -52.401800   36.300700   94.072300
  H    -51.379500   35.067300   93.492400
  C    -53.342500   34.412600   94.081300
  H    -54.147700   34.954500   93.684200
  H    -53.194600   33.587400   93.515400
  H    -53.697000   34.143400   95.055200
  S    -47.121900   31.240800   98.221000
  C    -46.913400   30.895900   99.888100
  C    -48.069500   30.992300  100.645000
  C    -49.215200   31.418200   99.940600
  C    -48.845700   31.556700   98.555600
  H    -47.973700   30.928600  101.693000
  C    -50.553600   31.473200  100.603000
  H    -50.831900   30.472400  100.934000
  H    -51.199700   31.843800   99.839000
  C    -50.561800   32.551800  101.683000
  H    -49.820800   32.205400  102.489000
  H    -51.547600   32.488800  102.155000
  C    -50.267600   34.028000  101.250000
  H    -50.705200   34.703800  101.984000
  H    -50.752900   34.278200  100.291000
  H    -49.247900   34.298300  101.085000
  H    -50.554900   32.916500   93.967300
  H    -46.000300   30.539800  100.291000

 Total Charge           Charge          ....    0
 Multiplicity           Mult            ....    1
 Number of Electrons    NEL             ....  134
 Basis Dimension        Dim             ....  322

ORBITAL ENERGIES
----------------

  NO   OCC          E(Eh)            E(eV)
   0   2.0000     -88.969996     -2420.9967
   1   2.0000     -88.965186     -2420.8658
   2   2.0000     -10.332949      -281.1738
   3   2.0000     -10.330487      -281.1068
   4   2.0000     -10.319992      -280.8212
   5   2.0000     -10.311356      -280.5863
   6   2.0000     -10.305409      -280.4244
   7   2.0000     -10.301008      -280.3047
   8   2.0000     -10.300585      -280.2932
   9   2.0000     -10.297494      -280.2091
  10   2.0000     -10.295944      -280.1669
  11   2.0000     -10.294322      -280.1227
  12   2.0000     -10.289878      -280.0018
  13   2.0000     -10.286177      -279.9011
  14   2.0000     -10.282247      -279.7942
  15   2.0000     -10.263535      -279.2850
  16   2.0000      -8.084642      -219.9943
  17   2.0000      -8.079729      -219.8606
  18   2.0000      -6.042919      -164.4362
  19   2.0000      -6.039292      -164.3375
  20   2.0000      -6.038303      -164.3106
  21   2.0000      -6.035510      -164.2346
  22   2.0000      -6.034135      -164.1972
  23   2.0000      -6.030561      -164.0999
  24   2.0000      -1.002600       -27.2821
  25   2.0000      -0.981901       -26.7189
  26   2.0000      -0.914898       -24.8957
  27   2.0000      -0.906544       -24.6683
  28   2.0000      -0.863209       -23.4891
  29   2.0000      -0.848858       -23.0986
  30   2.0000      -0.846473       -23.0337
  31   2.0000      -0.809352       -22.0236
  32   2.0000      -0.790446       -21.5091
  33   2.0000      -0.774951       -21.0875
  34   2.0000      -0.709045       -19.2941
  35   2.0000      -0.706976       -19.2378
  36   2.0000      -0.692103       -18.8331
  37   2.0000      -0.656204       -17.8562
  38   2.0000      -0.628151       -17.0929
  39   2.0000      -0.616412       -16.7734
  40   2.0000      -0.597474       -16.2581
  41   2.0000      -0.573726       -15.6119
  42   2.0000      -0.560999       -15.2655
  43   2.0000      -0.555050       -15.1037
  44   2.0000      -0.542541       -14.7633
  45   2.0000      -0.532553       -14.4915
  46   2.0000      -0.513132       -13.9630
  47   2.0000      -0.510823       -13.9002
  48   2.0000      -0.500614       -13.6224
  49   2.0000      -0.494126       -13.4458
  50   2.0000      -0.489801       -13.3282
  51   2.0000      -0.474731       -12.9181
  52   2.0000      -0.469638       -12.7795
  53   2.0000      -0.464713       -12.6455
  54   2.0000      -0.458787       -12.4842
  55   2.0000      -0.452298       -12.3076
  56   2.0000      -0.448276       -12.1982
  57   2.0000      -0.442148       -12.0315
  58   2.0000      -0.434966       -11.8360
  59   2.0000      -0.425116       -11.5680
  60   2.0000      -0.421810       -11.4780
  61   2.0000      -0.416521       -11.3341
  62   2.0000      -0.412914       -11.2360
  63   2.0000      -0.342907        -9.3310
  64   2.0000      -0.334963        -9.1148
  65   2.0000      -0.327487        -8.9114
  66   2.0000      -0.285997        -7.7824
  67   0.0000       0.028149         0.7660
  68   0.0000       0.067157         1.8274
  69   0.0000       0.112150         3.0518
  70   0.0000       0.121116         3.2957
  71   0.0000       0.125162         3.4058

MULLIKEN ATOMIC CHARGES
-----------------------
   0 S :    0.099270
   1 C :   -0.154959
   2 C :   -0.091355
   3 C :    0.029468
   4 C :   -0.137412
   5 H :   -0.014546
   6 C :    0.075842
   7 H :    0.052904
   8 H :    0.024715
   9 C :   -0.141151
  10 H :    0.035887
  11 H :    0.025661
  12 C :    0.020952
  13 H :    0.018613
  14 H :    0.012246
  15 H :    0.013659
  16 S :    0.126476
  17 C :   -0.080160
  18 C :   -0.027706
  19 C :   -0.046081
  20 C :   -0.162188
  21 H :    0.003103
  22 C :    0.121833
  23 H :    0.049630
  24 H :    0.010066
  25 C :   -0.120656
  26 H :    0.037428
  27 H :    0.033094
  28 C :   -0.035842
  29 H :    0.036999
  30 H :    0.023255
  31 H :    0.042933
  32 H :    0.077990
  33 H :    0.040033
Sum of atomic charges:    0.0000000

LOEWDIN ATOMIC CHARGES
----------------------
   0 S :    0.405384
   1 C :   -0.211015
   2 C :   -0.074750
   3 C :   -0.062323
   4 C :   -0.201958
   5 H :    0.022289
   6 C :   -0.030306
   7 H :    0.042124
   8 H :    0.029056
   9 C :   -0.047782
  10 H :    0.035522
  11 H :    0.015951
  12 C :   -0.053141
  13 H :    0.022530
  14 H :    0.009800
  15 H :    0.026647
  16 S :    0.416978
  17 C :   -0.188151
  18 C :   -0.069259
  19 C :   -0.045209
  20 C :   -0.196424
  21 H :    0.022690
  22 C :   -0.027664
  23 H :    0.039958
  24 H :    0.027035
  25 C :   -0.041500
  26 H :    0.026922
  27 H :    0.024999
  28 C :   -0.064909
  29 H :    0.031269
  30 H :    0.023949
  31 H :    0.025896
  32 H :    0.045767
  33 H :    0.019628

  Mayer bond orders larger than 0.100000
B(  0-S ,  1-C ) :   1.1515 B(  0-S ,  4-C ) :   1.1454 B(  1-C ,  2-C ) :   1.5917
B(  1-C , 32-H ) :   0.9470 B(  2-C ,  3-C ) :   1.2886 B(  2-C ,  6-C ) :   1.0173
B(  3-C ,  4-C ) :   1.5410 B(  3-C ,  5-H ) :   0.9889 B(  4-C , 20-C ) :   1.0397
B(  6-C ,  7-H ) :   0.9402 B(  6-C ,  8-H ) :   0.9363 B(  6-C ,  9-C ) :   1.0705
B(  9-C , 10-H ) :   0.9638 B(  9-C , 11-H ) :   0.9606 B(  9-C , 12-C ) :   1.0596
B( 12-C , 13-H ) :   0.9786 B( 12-C , 14-H ) :   0.9764 B( 12-C , 15-H ) :   0.9747
B( 16-S , 17-C ) :   1.1632 B( 16-S , 20-C ) :   1.1564 B( 17-C , 18-C ) :   1.6069
B( 17-C , 20-C ) :   0.1013 B( 17-C , 33-H ) :   0.9679 B( 18-C , 19-C ) :   1.2488
B( 18-C , 21-H ) :   0.9905 B( 19-C , 20-C ) :   1.5509 B( 19-C , 22-C ) :   1.0415
B( 22-C , 23-H ) :   0.9412 B( 22-C , 24-H ) :   0.9197 B( 22-C , 25-C ) :   1.0733
B( 25-C , 26-H ) :   0.9569 B( 25-C , 27-H ) :   0.9577 B( 25-C , 28-C ) :   1.0597
B( 28-C , 29-H ) :   0.9712 B( 28-C , 30-H ) :   0.9708 B( 28-C , 31-H ) :   0.9757

Dispersion correction           -0.014711999
FINAL SINGLE POINT ENERGY     -1339.864295796350

DIPOLE MOMENT
-------------
                                X             Y             Z
Electronic contribution:     19.87460     -17.28920      -4.35557
Nuclear contribution   :    -20.19890      17.77411       4.71142
                        -----------------------------------------
Total Dipole Moment    :     -0.32430       0.48491       0.35585
                        -----------------------------------------
Magnitude (a.u.)       :      0.68333
Magnitude (Debye)      :      1.73688

Rotational constants in cm-1:     0.021721     0.008098     0.006449
Rotational constants in MHz :   651.187194   242.771298   193.347454

                             ****ORCA TERMINATED NORMALLY****
TOTAL RUN TIME: 0 days 0 hours 0 minutes 30 seconds 459 msec
