                         Program Version 4.2.1 -  RELEASE  -
|  1> ! wB97X-D3 SP def2-SVP
|  2> %pal
|  3> nprocs 16
|  4> end
|  5>
|  6> * xyz 0 1
|  7> S 	 -2.71617 	 74.3754 	 50.9225
|  8> C 	 -1.18827 	 74.4835 	 50.1268
|  9> C 	 -0.496636 	 75.6164 	 50.4873
| 10> C 	 -1.19964 	 76.3791 	 51.4357
| 11> C 	 -2.36123 	 75.7687 	 51.8696
| 12> H 	 -0.948677 	 77.3532 	 51.8027
| 13> C 	 0.789668 	 76.0261 	 49.8454
| 14> H 	 0.605646 	 77.0847 	 49.4916
| 15> H 	 0.932788 	 75.6366 	 48.8739
| 16> C 	 1.91219 	 75.9473 	 50.8385
| 17> H 	 2.82062 	 76.4542 	 50.549
| 18> H 	 1.72015 	 76.5177 	 51.7052
| 19> C 	 2.35221 	 74.5123 	 51.3136
| 20> H 	 3.12912 	 74.6452 	 52.018
| 21> H 	 1.54385 	 73.8856 	 51.771
| 22> H 	 2.53978 	 73.7976 	 50.5669
| 23> S 	 -5.02743 	 75.904 	 52.5359
| 24> C 	 -5.55598 	 76.7143 	 54.0226
| 25> C 	 -4.47541 	 77.3872 	 54.613
| 26> C 	 -3.18745 	 77.0828 	 54.0268
| 27> C 	 -3.28218 	 76.2657 	 52.877
| 28> H 	 -4.64236 	 78.0861 	 55.4301
| 29> C 	 -1.89387 	 77.6264 	 54.5899
| 30> H 	 -2.22707 	 78.2395 	 55.4413
| 31> H 	 -1.4219 	 78.2696 	 53.9107
| 32> C 	 -0.781368 	 76.7085 	 55.1709
| 33> H 	 0.0897431 	 77.3222 	 55.3948
| 34> H 	 -0.331956 	 76.0956 	 54.4037
| 35> C 	 -1.28301 	 75.8032 	 56.3992
| 36> H 	 -1.5447 	 76.4521 	 57.2486
| 37> H 	 -0.532522 	 75.1131 	 56.6909
| 38> H 	 -2.10672 	 75.1705 	 56.1934
| 39> H 	 -0.91532 	 73.8294 	 49.3465
| 40> H 	 -6.57123 	 76.6934 	 54.4688
| 41> *
| 42>
| 43>                          ****END OF INPUT****

CARTESIAN COORDINATES (ANGSTROEM)
---------------------------------
  S     -2.716170   74.375400   50.922500
  C     -1.188270   74.483500   50.126800
  C     -0.496636   75.616400   50.487300
  C     -1.199640   76.379100   51.435700
  C     -2.361230   75.768700   51.869600
  H     -0.948677   77.353200   51.802700
  C      0.789668   76.026100   49.845400
  H      0.605646   77.084700   49.491600
  H      0.932788   75.636600   48.873900
  C      1.912190   75.947300   50.838500
  H      2.820620   76.454200   50.549000
  H      1.720150   76.517700   51.705200
  C      2.352210   74.512300   51.313600
  H      3.129120   74.645200   52.018000
  H      1.543850   73.885600   51.771000
  H      2.539780   73.797600   50.566900
  S     -5.027430   75.904000   52.535900
  C     -5.555980   76.714300   54.022600
  C     -4.475410   77.387200   54.613000
  C     -3.187450   77.082800   54.026800
  C     -3.282180   76.265700   52.877000
  H     -4.642360   78.086100   55.430100
  C     -1.893870   77.626400   54.589900
  H     -2.227070   78.239500   55.441300
  H     -1.421900   78.269600   53.910700
  C     -0.781368   76.708500   55.170900
  H      0.089743   77.322200   55.394800
  H     -0.331956   76.095600   54.403700
  C     -1.283010   75.803200   56.399200
  H     -1.544700   76.452100   57.248600
  H     -0.532522   75.113100   56.690900
  H     -2.106720   75.170500   56.193400
  H     -0.915320   73.829400   49.346500
  H     -6.571230   76.693400   54.468800

 Total Charge           Charge          ....    0
 Multiplicity           Mult            ....    1
 Number of Electrons    NEL             ....  134
 Basis Dimension        Dim             ....  322

ORBITAL ENERGIES
----------------

  NO   OCC          E(Eh)            E(eV)
   0   2.0000     -88.966330     -2420.8969
   1   2.0000     -88.964162     -2420.8379
   2   2.0000     -10.333797      -281.1969
   3   2.0000     -10.327893      -281.0363
   4   2.0000     -10.324935      -280.9558
   5   2.0000     -10.310164      -280.5538
   6   2.0000     -10.307538      -280.4824
   7   2.0000     -10.300308      -280.2856
   8   2.0000     -10.297787      -280.2170
   9   2.0000     -10.292030      -280.0604
  10   2.0000     -10.290986      -280.0320
  11   2.0000     -10.290175      -280.0099
  12   2.0000     -10.289743      -279.9981
  13   2.0000     -10.285485      -279.8823
  14   2.0000     -10.273150      -279.5466
  15   2.0000     -10.272687      -279.5340
  16   2.0000      -8.082079      -219.9246
  17   2.0000      -8.077652      -219.8041
  18   2.0000      -6.040398      -164.3676
  19   2.0000      -6.036537      -164.2625
  20   2.0000      -6.036322      -164.2567
  21   2.0000      -6.032883      -164.1631
  22   2.0000      -6.032344      -164.1484
  23   2.0000      -6.028306      -164.0385
  24   2.0000      -1.010654       -27.5013
  25   2.0000      -0.976793       -26.5799
  26   2.0000      -0.917285       -24.9606
  27   2.0000      -0.899572       -24.4786
  28   2.0000      -0.867163       -23.5967
  29   2.0000      -0.850984       -23.1565
  30   2.0000      -0.838748       -22.8235
  31   2.0000      -0.813478       -22.1359
  32   2.0000      -0.786831       -21.4108
  33   2.0000      -0.776723       -21.1357
  34   2.0000      -0.718967       -19.5641
  35   2.0000      -0.709155       -19.2971
  36   2.0000      -0.690648       -18.7935
  37   2.0000      -0.663621       -18.0581
  38   2.0000      -0.645242       -17.5579
  39   2.0000      -0.625622       -17.0240
  40   2.0000      -0.585637       -15.9360
  41   2.0000      -0.568850       -15.4792
  42   2.0000      -0.558942       -15.2096
  43   2.0000      -0.553421       -15.0594
  44   2.0000      -0.535504       -14.5718
  45   2.0000      -0.532093       -14.4790
  46   2.0000      -0.521303       -14.1854
  47   2.0000      -0.504730       -13.7344
  48   2.0000      -0.500912       -13.6305
  49   2.0000      -0.498075       -13.5533
  50   2.0000      -0.491708       -13.3801
  51   2.0000      -0.482137       -13.1196
  52   2.0000      -0.473652       -12.8887
  53   2.0000      -0.465400       -12.6642
  54   2.0000      -0.461646       -12.5620
  55   2.0000      -0.453675       -12.3451
  56   2.0000      -0.445648       -12.1267
  57   2.0000      -0.437698       -11.9104
  58   2.0000      -0.432222       -11.7614
  59   2.0000      -0.428377       -11.6567
  60   2.0000      -0.416402       -11.3309
  61   2.0000      -0.409837       -11.1522
  62   2.0000      -0.405046       -11.0219
  63   2.0000      -0.353269        -9.6129
  64   2.0000      -0.334261        -9.0957
  65   2.0000      -0.328184        -8.9303
  66   2.0000      -0.282160        -7.6780
  67   0.0000       0.016509         0.4492
  68   0.0000       0.080674         2.1952
  69   0.0000       0.094710         2.5772
  70   0.0000       0.122766         3.3406
  71   0.0000       0.127648         3.4735

MULLIKEN ATOMIC CHARGES
-----------------------
   0 S :    0.115571
   1 C :   -0.107675
   2 C :   -0.083728
   3 C :    0.018118
   4 C :   -0.126526
   5 H :   -0.005122
   6 C :    0.096494
   7 H :    0.028563
   8 H :    0.007184
   9 C :   -0.034318
  10 H :    0.015928
  11 H :    0.009222
  12 C :   -0.039154
  13 H :    0.032129
  14 H :    0.029368
  15 H :    0.013616
  16 S :    0.073287
  17 C :   -0.102892
  18 C :   -0.040601
  19 C :   -0.052599
  20 C :   -0.121473
  21 H :    0.026281
  22 C :    0.066128
  23 H :    0.010864
  24 H :    0.023240
  25 C :   -0.056506
  26 H :    0.021542
  27 H :    0.025166
  28 C :   -0.042844
  29 H :    0.031732
  30 H :    0.024198
  31 H :    0.037798
  32 H :    0.030462
  33 H :    0.076546
Sum of atomic charges:    0.0000000

LOEWDIN ATOMIC CHARGES
----------------------
   0 S :    0.427353
   1 C :   -0.197545
   2 C :   -0.059568
   3 C :   -0.058536
   4 C :   -0.201261
   5 H :    0.027027
   6 C :   -0.033748
   7 H :    0.042996
   8 H :    0.024329
   9 C :   -0.036981
  10 H :    0.023475
  11 H :    0.020312
  12 C :   -0.065502
  13 H :    0.022286
  14 H :    0.032129
  15 H :    0.017472
  16 S :    0.364112
  17 C :   -0.185614
  18 C :   -0.072002
  19 C :   -0.057643
  20 C :   -0.168566
  21 H :    0.032610
  22 C :   -0.032905
  23 H :    0.032083
  24 H :    0.021547
  25 C :   -0.034330
  26 H :    0.025760
  27 H :    0.019939
  28 C :   -0.061301
  29 H :    0.026057
  30 H :    0.022191
  31 H :    0.024517
  32 H :    0.018579
  33 H :    0.040727

  Mayer bond orders larger than 0.100000
B(  0-S ,  1-C ) :   1.1427 B(  0-S ,  4-C ) :   1.1684 B(  1-C ,  2-C ) :   1.5821
B(  1-C , 32-H ) :   0.9781 B(  2-C ,  3-C ) :   1.2632 B(  2-C ,  6-C ) :   1.0223
B(  3-C ,  4-C ) :   1.5304 B(  3-C ,  5-H ) :   1.0009 B(  4-C , 20-C ) :   1.0814
B(  6-C ,  7-H ) :   0.9322 B(  6-C ,  8-H ) :   0.9451 B(  6-C ,  9-C ) :   1.0662
B(  9-C , 10-H ) :   0.9525 B(  9-C , 11-H ) :   0.9542 B(  9-C , 12-C ) :   1.0671
B( 12-C , 13-H ) :   0.9766 B( 12-C , 14-H ) :   0.9713 B( 12-C , 15-H ) :   0.9747
B( 16-S , 17-C ) :   1.1443 B( 16-S , 20-C ) :   1.1205 B( 17-C , 18-C ) :   1.6082
B( 17-C , 20-C ) :   0.1041 B( 17-C , 33-H ) :   0.9627 B( 18-C , 19-C ) :   1.2490
B( 18-C , 21-H ) :   0.9825 B( 19-C , 20-C ) :   1.5736 B( 19-C , 22-C ) :   1.0385
B( 22-C , 23-H ) :   0.9308 B( 22-C , 24-H ) :   0.9322 B( 22-C , 25-C ) :   1.0778
B( 25-C , 26-H ) :   0.9532 B( 25-C , 27-H ) :   0.9539 B( 25-C , 28-C ) :   1.0618
B( 28-C , 29-H ) :   0.9793 B( 28-C , 30-H ) :   0.9761 B( 28-C , 31-H ) :   0.9786

Dispersion correction           -0.015126845
FINAL SINGLE POINT ENERGY     -1339.865441714899

DIPOLE MOMENT
-------------
                                X             Y             Z
Electronic contribution:    -26.18947      -3.81480     -10.11276
Nuclear contribution   :     26.73553       4.18651      10.22592
                        -----------------------------------------
Total Dipole Moment    :      0.54606       0.37171       0.11316
                        -----------------------------------------
Magnitude (a.u.)       :      0.67019
Magnitude (Debye)      :      1.70348

Rotational constants in cm-1:     0.019487     0.009628     0.007236
Rotational constants in MHz :   584.215250   288.635697   216.931690

                             ****ORCA TERMINATED NORMALLY****
TOTAL RUN TIME: 0 days 0 hours 0 minutes 34 seconds 552 msec
