                         Program Version 4.2.1 -  RELEASE  -
|  1> ! wB97X-D3 SP def2-SVP
|  2> %pal
|  3> nprocs 16
|  4> end
|  5>
|  6> * xyz 0 1
|  7> S 	 -4.89995 	 -12.4892 	 64.3938
|  8> C 	 -6.21074 	 -11.708 	 65.1991
|  9> C 	 -5.88666 	 -11.3883 	 66.5411
| 10> C 	 -4.56682 	 -11.737 	 66.8864
| 11> C 	 -3.8383 	 -12.2817 	 65.7566
| 12> H 	 -4.10899 	 -11.6689 	 67.8186
| 13> C 	 -6.88962 	 -10.7061 	 67.4396
| 14> H 	 -7.87847 	 -10.5776 	 67.0265
| 15> H 	 -6.54182 	 -9.66632 	 67.5817
| 16> C 	 -7.1613 	 -11.4704 	 68.7406
| 17> H 	 -6.17576 	 -11.7217 	 69.2227
| 18> H 	 -7.6357 	 -10.8 	 69.4466
| 19> C 	 -7.97115 	 -12.7051 	 68.641
| 20> H 	 -8.91336 	 -12.4078 	 68.286
| 21> H 	 -7.49537 	 -13.3489 	 67.9037
| 22> H 	 -8.20151 	 -13.1938 	 69.5936
| 23> S 	 -1.24822 	 -11.4757 	 65.42
| 24> C 	 -0.0366623 	 -12.6001 	 65.9326
| 25> C 	 -0.509914 	 -13.7335 	 66.4741
| 26> C 	 -1.9392 	 -13.8354 	 66.4515
| 27> C 	 -2.45278 	 -12.724 	 65.8029
| 28> H 	 0.114566 	 -14.4508 	 66.8739
| 29> C 	 -2.79754 	 -15.0463 	 66.9632
| 30> H 	 -3.78783 	 -14.8517 	 66.699
| 31> H 	 -2.78584 	 -15.0772 	 68.093
| 32> C 	 -2.3466 	 -16.4035 	 66.3559
| 33> H 	 -1.30445 	 -16.6369 	 66.5846
| 34> H 	 -2.29378 	 -16.2794 	 65.2463
| 35> C 	 -3.31186 	 -17.5551 	 66.6722
| 36> H 	 -3.49402 	 -17.5866 	 67.7448
| 37> H 	 -2.86798 	 -18.4872 	 66.4929
| 38> H 	 -4.30693 	 -17.4346 	 66.216
| 39> H 	 -7.25694 	 -11.4626 	 64.8884
| 40> H 	 1.03837 	 -12.4101 	 65.8726
| 41> *
| 42>
| 43>                          ****END OF INPUT****

CARTESIAN COORDINATES (ANGSTROEM)
---------------------------------
  S     -4.899950  -12.489200   64.393800
  C     -6.210740  -11.708000   65.199100
  C     -5.886660  -11.388300   66.541100
  C     -4.566820  -11.737000   66.886400
  C     -3.838300  -12.281700   65.756600
  H     -4.108990  -11.668900   67.818600
  C     -6.889620  -10.706100   67.439600
  H     -7.878470  -10.577600   67.026500
  H     -6.541820   -9.666320   67.581700
  C     -7.161300  -11.470400   68.740600
  H     -6.175760  -11.721700   69.222700
  H     -7.635700  -10.800000   69.446600
  C     -7.971150  -12.705100   68.641000
  H     -8.913360  -12.407800   68.286000
  H     -7.495370  -13.348900   67.903700
  H     -8.201510  -13.193800   69.593600
  S     -1.248220  -11.475700   65.420000
  C     -0.036662  -12.600100   65.932600
  C     -0.509914  -13.733500   66.474100
  C     -1.939200  -13.835400   66.451500
  C     -2.452780  -12.724000   65.802900
  H      0.114566  -14.450800   66.873900
  C     -2.797540  -15.046300   66.963200
  H     -3.787830  -14.851700   66.699000
  H     -2.785840  -15.077200   68.093000
  C     -2.346600  -16.403500   66.355900
  H     -1.304450  -16.636900   66.584600
  H     -2.293780  -16.279400   65.246300
  C     -3.311860  -17.555100   66.672200
  H     -3.494020  -17.586600   67.744800
  H     -2.867980  -18.487200   66.492900
  H     -4.306930  -17.434600   66.216000
  H     -7.256940  -11.462600   64.888400
  H      1.038370  -12.410100   65.872600

 Total Charge           Charge          ....    0
 Multiplicity           Mult            ....    1
 Number of Electrons    NEL             ....  134
 Basis Dimension        Dim             ....  322

ORBITAL ENERGIES
----------------

  NO   OCC          E(Eh)            E(eV)
   0   2.0000     -88.972301     -2421.0594
   1   2.0000     -88.964308     -2420.8419
   2   2.0000     -10.328620      -281.0560
   3   2.0000     -10.322323      -280.8847
   4   2.0000     -10.314266      -280.6654
   5   2.0000     -10.312114      -280.6069
   6   2.0000     -10.306387      -280.4510
   7   2.0000     -10.299104      -280.2529
   8   2.0000     -10.297191      -280.2008
   9   2.0000     -10.293672      -280.1050
  10   2.0000     -10.291307      -280.0407
  11   2.0000     -10.290499      -280.0187
  12   2.0000     -10.283772      -279.8357
  13   2.0000     -10.282507      -279.8012
  14   2.0000     -10.275171      -279.6016
  15   2.0000     -10.268917      -279.4314
  16   2.0000      -8.086549      -220.0462
  17   2.0000      -8.079365      -219.8507
  18   2.0000      -6.044826      -164.4881
  19   2.0000      -6.040923      -164.3819
  20   2.0000      -6.037807      -164.2971
  21   2.0000      -6.037798      -164.2968
  22   2.0000      -6.034077      -164.1956
  23   2.0000      -6.029907      -164.0821
  24   2.0000      -1.004030       -27.3210
  25   2.0000      -0.982759       -26.7422
  26   2.0000      -0.916436       -24.9375
  27   2.0000      -0.903165       -24.5764
  28   2.0000      -0.867956       -23.6183
  29   2.0000      -0.851571       -23.1724
  30   2.0000      -0.849961       -23.1286
  31   2.0000      -0.811054       -22.0699
  32   2.0000      -0.786119       -21.3914
  33   2.0000      -0.770659       -20.9707
  34   2.0000      -0.706594       -19.2274
  35   2.0000      -0.700390       -19.0586
  36   2.0000      -0.684330       -18.6216
  37   2.0000      -0.657275       -17.8854
  38   2.0000      -0.638000       -17.3609
  39   2.0000      -0.620140       -16.8749
  40   2.0000      -0.599427       -16.3112
  41   2.0000      -0.570491       -15.5238
  42   2.0000      -0.560737       -15.2584
  43   2.0000      -0.556754       -15.1501
  44   2.0000      -0.541485       -14.7346
  45   2.0000      -0.526648       -14.3308
  46   2.0000      -0.514824       -14.0091
  47   2.0000      -0.506225       -13.7751
  48   2.0000      -0.501366       -13.6429
  49   2.0000      -0.491279       -13.3684
  50   2.0000      -0.482130       -13.1194
  51   2.0000      -0.477096       -12.9824
  52   2.0000      -0.472339       -12.8530
  53   2.0000      -0.469521       -12.7763
  54   2.0000      -0.464572       -12.6417
  55   2.0000      -0.454929       -12.3792
  56   2.0000      -0.448666       -12.2088
  57   2.0000      -0.441785       -12.0216
  58   2.0000      -0.438241       -11.9251
  59   2.0000      -0.426924       -11.6172
  60   2.0000      -0.415024       -11.2934
  61   2.0000      -0.414983       -11.2922
  62   2.0000      -0.407307       -11.0834
  63   2.0000      -0.338202        -9.2029
  64   2.0000      -0.330328        -8.9887
  65   2.0000      -0.317349        -8.6355
  66   2.0000      -0.305414        -8.3107
  67   0.0000       0.042859         1.1662
  68   0.0000       0.055037         1.4976
  69   0.0000       0.111767         3.0413
  70   0.0000       0.122864         3.3433
  71   0.0000       0.135612         3.6902

MULLIKEN ATOMIC CHARGES
-----------------------
   0 S :    0.145671
   1 C :   -0.118924
   2 C :   -0.111195
   3 C :    0.072866
   4 C :   -0.213595
   5 H :   -0.006385
   6 C :    0.077260
   7 H :    0.002465
   8 H :    0.046546
   9 C :   -0.106458
  10 H :    0.024934
  11 H :    0.018971
  12 C :   -0.000826
  13 H :    0.000918
  14 H :    0.037612
  15 H :    0.037927
  16 S :    0.114853
  17 C :   -0.076214
  18 C :   -0.007308
  19 C :   -0.020832
  20 C :   -0.195010
  21 H :   -0.016349
  22 C :    0.114332
  23 H :    0.009617
  24 H :    0.040845
  25 C :   -0.120550
  26 H :    0.028188
  27 H :    0.038973
  28 C :   -0.009545
  29 H :    0.015145
  30 H :    0.022817
  31 H :    0.042895
  32 H :    0.055913
  33 H :    0.054442
Sum of atomic charges:    0.0000000

LOEWDIN ATOMIC CHARGES
----------------------
   0 S :    0.440090
   1 C :   -0.228675
   2 C :   -0.066998
   3 C :   -0.048359
   4 C :   -0.213937
   5 H :    0.021087
   6 C :   -0.031658
   7 H :    0.024079
   8 H :    0.039307
   9 C :   -0.046236
  10 H :    0.021169
  11 H :    0.020242
  12 C :   -0.059851
  13 H :    0.015265
  14 H :    0.028481
  15 H :    0.031644
  16 S :    0.402225
  17 C :   -0.181747
  18 C :   -0.068646
  19 C :   -0.039099
  20 C :   -0.203680
  21 H :    0.018211
  22 C :   -0.020411
  23 H :    0.019797
  24 H :    0.037131
  25 C :   -0.044897
  26 H :    0.020764
  27 H :    0.030211
  28 C :   -0.062443
  29 H :    0.023911
  30 H :    0.020715
  31 H :    0.031479
  32 H :    0.039523
  33 H :    0.031304

  Mayer bond orders larger than 0.100000
B(  0-S ,  1-C ) :   1.1621 B(  0-S ,  4-C ) :   1.1868 B(  1-C ,  2-C ) :   1.5522
B(  1-C ,  4-C ) :   0.1129 B(  1-C , 32-H ) :   0.9605 B(  2-C ,  3-C ) :   1.2906
B(  2-C ,  6-C ) :   1.0305 B(  3-C ,  4-C ) :   1.5026 B(  3-C ,  5-H ) :   1.0067
B(  4-C , 20-C ) :   1.0142 B(  6-C ,  7-H ) :   0.9414 B(  6-C ,  8-H ) :   0.9361
B(  6-C ,  9-C ) :   1.0649 B(  9-C , 10-H ) :   0.9572 B(  9-C , 11-H ) :   0.9528
B(  9-C , 12-C ) :   1.0819 B( 12-C , 13-H ) :   0.9664 B( 12-C , 14-H ) :   0.9743
B( 12-C , 15-H ) :   0.9697 B( 16-S , 17-C ) :   1.1438 B( 16-S , 20-C ) :   1.1393
B( 17-C , 18-C ) :   1.6451 B( 17-C , 33-H ) :   0.9616 B( 18-C , 19-C ) :   1.2116
B( 18-C , 21-H ) :   1.0032 B( 19-C , 20-C ) :   1.6319 B( 19-C , 22-C ) :   1.0293
B( 22-C , 23-H ) :   0.9329 B( 22-C , 24-H ) :   0.9335 B( 22-C , 25-C ) :   1.0536
B( 25-C , 26-H ) :   0.9572 B( 25-C , 27-H ) :   0.9566 B( 25-C , 28-C ) :   1.0871
B( 28-C , 29-H ) :   0.9713 B( 28-C , 30-H ) :   0.9726 B( 28-C , 31-H ) :   0.9742

Dispersion correction           -0.014418603
FINAL SINGLE POINT ENERGY     -1339.876636752874

DIPOLE MOMENT
-------------
                                X             Y             Z
Electronic contribution:     14.31635      14.88361     -16.79875
Nuclear contribution   :    -14.46332     -15.15462      17.35159
                        -----------------------------------------
Total Dipole Moment    :     -0.14697      -0.27101       0.55284
                        -----------------------------------------
Magnitude (a.u.)       :      0.63300
Magnitude (Debye)      :      1.60895

Rotational constants in cm-1:     0.016759     0.008931     0.007155
Rotational constants in MHz :   502.424661   267.735515   214.504445

                             ****ORCA TERMINATED NORMALLY****
TOTAL RUN TIME: 0 days 0 hours 0 minutes 34 seconds 912 msec
