                         Program Version 4.2.1 -  RELEASE  -
|  1> ! wB97X-D3 SP def2-SVP
|  2> %pal
|  3> nprocs 16
|  4> end
|  5>
|  6> * xyz 0 1
|  7> S 	 -98.4424 	 40.588 	 123.854
|  8> C 	 -98.9867 	 40.5533 	 125.494
|  9> C 	 -98.0183 	 41.1511 	 126.272
| 10> C 	 -96.9253 	 41.7747 	 125.481
| 11> C 	 -96.9916 	 41.5584 	 124.154
| 12> H 	 -95.9822 	 42.1591 	 125.873
| 13> C 	 -98.03 	 41.0555 	 127.788
| 14> H 	 -98.9958 	 40.9436 	 128.317
| 15> H 	 -97.8299 	 42.017 	 128.239
| 16> C 	 -97.013 	 40.0691 	 128.303
| 17> H 	 -96.0036 	 40.3233 	 127.98
| 18> H 	 -96.9135 	 40.0753 	 129.436
| 19> C 	 -97.5051 	 38.6098 	 127.982
| 20> H 	 -98.4958 	 38.4296 	 128.404
| 21> H 	 -97.4683 	 38.4261 	 126.885
| 22> H 	 -96.8992 	 37.7869 	 128.534
| 23> S 	 -95.0377 	 40.5458 	 122.64
| 24> C 	 -94.4099 	 41.4892 	 121.298
| 25> C 	 -94.8742 	 42.8352 	 121.27
| 26> C 	 -95.8643 	 42.9959 	 122.264
| 27> C 	 -96.0204 	 41.8752 	 123.078
| 28> H 	 -94.4592 	 43.5542 	 120.619
| 29> C 	 -96.4561 	 44.3481 	 122.454
| 30> H 	 -95.7224 	 45.1156 	 122.245
| 31> H 	 -96.8072 	 44.4393 	 123.449
| 32> C 	 -97.7446 	 44.5632 	 121.564
| 33> H 	 -98.0458 	 45.6134 	 121.813
| 34> H 	 -98.6705 	 44.0691 	 121.944
| 35> C 	 -97.5283 	 44.4986 	 120.061
| 36> H 	 -96.7326 	 45.1752 	 119.837
| 37> H 	 -98.3733 	 44.967 	 119.532
| 38> H 	 -97.3212 	 43.549 	 119.541
| 39> H 	 -99.8977 	 40.1597 	 125.832
| 40> H 	 -93.588 	 41.1428 	 120.715
| 41> *
| 42>
| 43>                          ****END OF INPUT****

CARTESIAN COORDINATES (ANGSTROEM)
---------------------------------
  S    -98.442400   40.588000  123.854000
  C    -98.986700   40.553300  125.494000
  C    -98.018300   41.151100  126.272000
  C    -96.925300   41.774700  125.481000
  C    -96.991600   41.558400  124.154000
  H    -95.982200   42.159100  125.873000
  C    -98.030000   41.055500  127.788000
  H    -98.995800   40.943600  128.317000
  H    -97.829900   42.017000  128.239000
  C    -97.013000   40.069100  128.303000
  H    -96.003600   40.323300  127.980000
  H    -96.913500   40.075300  129.436000
  C    -97.505100   38.609800  127.982000
  H    -98.495800   38.429600  128.404000
  H    -97.468300   38.426100  126.885000
  H    -96.899200   37.786900  128.534000
  S    -95.037700   40.545800  122.640000
  C    -94.409900   41.489200  121.298000
  C    -94.874200   42.835200  121.270000
  C    -95.864300   42.995900  122.264000
  C    -96.020400   41.875200  123.078000
  H    -94.459200   43.554200  120.619000
  C    -96.456100   44.348100  122.454000
  H    -95.722400   45.115600  122.245000
  H    -96.807200   44.439300  123.449000
  C    -97.744600   44.563200  121.564000
  H    -98.045800   45.613400  121.813000
  H    -98.670500   44.069100  121.944000
  C    -97.528300   44.498600  120.061000
  H    -96.732600   45.175200  119.837000
  H    -98.373300   44.967000  119.532000
  H    -97.321200   43.549000  119.541000
  H    -99.897700   40.159700  125.832000
  H    -93.588000   41.142800  120.715000

 Total Charge           Charge          ....    0
 Multiplicity           Mult            ....    1
 Number of Electrons    NEL             ....  134
 Basis Dimension        Dim             ....  322

ORBITAL ENERGIES
----------------

  NO   OCC          E(Eh)            E(eV)
   0   2.0000     -88.971039     -2421.0251
   1   2.0000     -88.957280     -2420.6506
   2   2.0000     -10.329392      -281.0771
   3   2.0000     -10.324325      -280.9392
   4   2.0000     -10.319382      -280.8047
   5   2.0000     -10.311672      -280.5949
   6   2.0000     -10.306193      -280.4458
   7   2.0000     -10.301554      -280.3195
   8   2.0000     -10.297252      -280.2025
   9   2.0000     -10.295684      -280.1598
  10   2.0000     -10.291048      -280.0336
  11   2.0000     -10.290538      -280.0198
  12   2.0000     -10.289485      -279.9911
  13   2.0000     -10.286854      -279.9195
  14   2.0000     -10.283393      -279.8254
  15   2.0000     -10.274431      -279.5815
  16   2.0000      -8.086157      -220.0355
  17   2.0000      -8.072487      -219.6635
  18   2.0000      -6.044417      -164.4770
  19   2.0000      -6.040599      -164.3731
  20   2.0000      -6.037170      -164.2797
  21   2.0000      -6.031076      -164.1139
  22   2.0000      -6.026808      -163.9978
  23   2.0000      -6.023204      -163.8997
  24   2.0000      -1.008087       -27.4314
  25   2.0000      -0.985293       -26.8112
  26   2.0000      -0.909949       -24.7610
  27   2.0000      -0.906838       -24.6763
  28   2.0000      -0.868890       -23.6437
  29   2.0000      -0.850987       -23.1565
  30   2.0000      -0.832747       -22.6602
  31   2.0000      -0.816220       -22.2105
  32   2.0000      -0.782014       -21.2797
  33   2.0000      -0.769842       -20.9485
  34   2.0000      -0.705861       -19.2075
  35   2.0000      -0.692338       -18.8395
  36   2.0000      -0.685943       -18.6654
  37   2.0000      -0.671612       -18.2755
  38   2.0000      -0.649550       -17.6752
  39   2.0000      -0.616659       -16.7801
  40   2.0000      -0.593151       -16.1404
  41   2.0000      -0.574754       -15.6398
  42   2.0000      -0.554065       -15.0769
  43   2.0000      -0.547321       -14.8934
  44   2.0000      -0.537841       -14.6354
  45   2.0000      -0.531979       -14.4759
  46   2.0000      -0.521922       -14.2022
  47   2.0000      -0.511409       -13.9162
  48   2.0000      -0.496024       -13.4975
  49   2.0000      -0.493089       -13.4176
  50   2.0000      -0.488243       -13.2858
  51   2.0000      -0.482066       -13.1177
  52   2.0000      -0.473231       -12.8773
  53   2.0000      -0.464109       -12.6290
  54   2.0000      -0.457670       -12.4538
  55   2.0000      -0.449143       -12.2218
  56   2.0000      -0.434679       -11.8282
  57   2.0000      -0.432889       -11.7795
  58   2.0000      -0.428821       -11.6688
  59   2.0000      -0.426233       -11.5984
  60   2.0000      -0.417898       -11.3716
  61   2.0000      -0.407275       -11.0825
  62   2.0000      -0.400307       -10.8929
  63   2.0000      -0.339832        -9.2473
  64   2.0000      -0.334316        -9.0972
  65   2.0000      -0.317458        -8.6385
  66   2.0000      -0.306177        -8.3315
  67   0.0000       0.043024         1.1707
  68   0.0000       0.056345         1.5332
  69   0.0000       0.107391         2.9223
  70   0.0000       0.121372         3.3027
  71   0.0000       0.129662         3.5283

MULLIKEN ATOMIC CHARGES
-----------------------
   0 S :    0.092810
   1 C :   -0.081878
   2 C :   -0.101606
   3 C :    0.052998
   4 C :   -0.150885
   5 H :    0.019471
   6 C :    0.063140
   7 H :    0.021608
   8 H :    0.012991
   9 C :   -0.082809
  10 H :    0.032636
  11 H :    0.032169
  12 C :   -0.094078
  13 H :    0.025785
  14 H :    0.060166
  15 H :    0.039006
  16 S :    0.136075
  17 C :   -0.092518
  18 C :   -0.030949
  19 C :    0.005678
  20 C :   -0.204534
  21 H :    0.011719
  22 C :    0.095126
  23 H :    0.028093
  24 H :    0.012813
  25 C :   -0.098567
  26 H :    0.020594
  27 H :    0.040651
  28 C :   -0.040856
  29 H :    0.008191
  30 H :    0.030193
  31 H :    0.053969
  32 H :    0.034488
  33 H :    0.048312
Sum of atomic charges:   -0.0000000

LOEWDIN ATOMIC CHARGES
----------------------
   0 S :    0.392032
   1 C :   -0.185413
   2 C :   -0.062340
   3 C :   -0.066408
   4 C :   -0.193255
   5 H :    0.034137
   6 C :   -0.045949
   7 H :    0.034019
   8 H :    0.027766
   9 C :   -0.044424
  10 H :    0.021700
  11 H :    0.029273
  12 C :   -0.077600
  13 H :    0.021657
  14 H :    0.029141
  15 H :    0.031731
  16 S :    0.440453
  17 C :   -0.177530
  18 C :   -0.057605
  19 C :   -0.049146
  20 C :   -0.224121
  21 H :    0.027662
  22 C :   -0.024143
  23 H :    0.030998
  24 H :    0.028125
  25 C :   -0.042198
  26 H :    0.027147
  27 H :    0.028734
  28 C :   -0.075283
  29 H :    0.019248
  30 H :    0.031354
  31 H :    0.029337
  32 H :    0.023149
  33 H :    0.017752

  Mayer bond orders larger than 0.100000
B(  0-S ,  1-C ) :   1.1343 B(  0-S ,  4-C ) :   1.1333 B(  1-C ,  2-C ) :   1.6223
B(  1-C , 32-H ) :   0.9827 B(  2-C ,  3-C ) :   1.2002 B(  2-C ,  6-C ) :   1.0269
B(  3-C ,  4-C ) :   1.6429 B(  3-C ,  5-H ) :   0.9865 B(  4-C , 20-C ) :   0.9801
B(  6-C ,  7-H ) :   0.9473 B(  6-C ,  8-H ) :   0.9321 B(  6-C ,  9-C ) :   1.0752
B(  9-C , 10-H ) :   0.9594 B(  9-C , 11-H ) :   0.9543 B(  9-C , 12-C ) :   1.0591
B( 12-C , 13-H ) :   0.9736 B( 12-C , 14-H ) :   0.9770 B( 12-C , 15-H ) :   0.9763
B( 16-S , 17-C ) :   1.1820 B( 16-S , 20-C ) :   1.1749 B( 17-C , 18-C ) :   1.5676
B( 17-C , 20-C ) :   0.1096 B( 17-C , 33-H ) :   0.9693 B( 18-C , 19-C ) :   1.2542
B( 18-C , 21-H ) :   0.9984 B( 19-C , 20-C ) :   1.5821 B( 19-C , 22-C ) :   1.0497
B( 22-C , 23-H ) :   0.9432 B( 22-C , 24-H ) :   0.9242 B( 22-C , 25-C ) :   1.0763
B( 25-C , 26-H ) :   0.9523 B( 25-C , 27-H ) :   0.9568 B( 25-C , 28-C ) :   1.0753
B( 28-C , 29-H ) :   0.9694 B( 28-C , 30-H ) :   0.9700 B( 28-C , 31-H ) :   0.9729

Dispersion correction           -0.014927019
FINAL SINGLE POINT ENERGY     -1339.866327849606

DIPOLE MOMENT
-------------
                                X             Y             Z
Electronic contribution:      4.53820      -8.03716      -8.13054
Nuclear contribution   :     -4.37308       8.45512       8.37025
                        -----------------------------------------
Total Dipole Moment    :      0.16512       0.41797       0.23970
                        -----------------------------------------
Magnitude (a.u.)       :      0.50933
Magnitude (Debye)      :      1.29461

Rotational constants in cm-1:     0.024967     0.007731     0.006841
Rotational constants in MHz :   748.503380   231.767995   205.091841

                             ****ORCA TERMINATED NORMALLY****
TOTAL RUN TIME: 0 days 0 hours 0 minutes 33 seconds 961 msec
