                         Program Version 4.2.1 -  RELEASE  -
|  1> ! wB97X-D3 SP def2-SVP
|  2> %pal
|  3> nprocs 16
|  4> end
|  5>
|  6> * xyz 0 1
|  7> S 	 68.7385 	 22.8349 	 73.0993
|  8> C 	 67.2279 	 23.0354 	 72.1693
|  9> C 	 67.5654 	 23.6306 	 70.9496
| 10> C 	 68.9753 	 23.6977 	 70.7814
| 11> C 	 69.7438 	 23.0894 	 71.713
| 12> H 	 69.3936 	 24.1256 	 69.9042
| 13> C 	 66.5516 	 24.1454 	 69.9256
| 14> H 	 66.8872 	 25.1629 	 69.7386
| 15> H 	 65.5949 	 24.1442 	 70.4489
| 16> C 	 66.3205 	 23.1747 	 68.6971
| 17> H 	 65.3881 	 23.5065 	 68.2371
| 18> H 	 67.1908 	 23.0815 	 68.0472
| 19> C 	 66.1308 	 21.6758 	 69.0515
| 20> H 	 65.7783 	 21.1197 	 68.1696
| 21> H 	 67.095 	 21.2142 	 69.4242
| 22> H 	 65.4446 	 21.5613 	 69.8765
| 23> S 	 71.7706 	 23.8831 	 73.2989
| 24> C 	 73.4888 	 23.5595 	 72.8601
| 25> C 	 73.5784 	 23.0001 	 71.5906
| 26> C 	 72.2902 	 22.8191 	 71.0134
| 27> C 	 71.2013 	 23.1764 	 71.8159
| 28> H 	 74.4868 	 22.5109 	 71.2068
| 29> C 	 72.1295 	 22.1272 	 69.7281
| 30> H 	 72.8691 	 22.5594 	 69.0353
| 31> H 	 71.1493 	 22.4722 	 69.3627
| 32> C 	 72.1081 	 20.6286 	 69.6817
| 33> H 	 71.5399 	 20.3632 	 70.5998
| 34> H 	 73.1792 	 20.242 	 69.8264
| 35> C 	 71.51 	 20.1414 	 68.3406
| 36> H 	 71.7965 	 19.0689 	 68.1622
| 37> H 	 71.9297 	 20.7131 	 67.4728
| 38> H 	 70.4894 	 20.2928 	 68.35
| 39> H 	 66.2315 	 22.8052 	 72.4571
| 40> H 	 74.354 	 23.652 	 73.4385
| 41> *
| 42>
| 43>                          ****END OF INPUT****

CARTESIAN COORDINATES (ANGSTROEM)
---------------------------------
  S     68.738500   22.834900   73.099300
  C     67.227900   23.035400   72.169300
  C     67.565400   23.630600   70.949600
  C     68.975300   23.697700   70.781400
  C     69.743800   23.089400   71.713000
  H     69.393600   24.125600   69.904200
  C     66.551600   24.145400   69.925600
  H     66.887200   25.162900   69.738600
  H     65.594900   24.144200   70.448900
  C     66.320500   23.174700   68.697100
  H     65.388100   23.506500   68.237100
  H     67.190800   23.081500   68.047200
  C     66.130800   21.675800   69.051500
  H     65.778300   21.119700   68.169600
  H     67.095000   21.214200   69.424200
  H     65.444600   21.561300   69.876500
  S     71.770600   23.883100   73.298900
  C     73.488800   23.559500   72.860100
  C     73.578400   23.000100   71.590600
  C     72.290200   22.819100   71.013400
  C     71.201300   23.176400   71.815900
  H     74.486800   22.510900   71.206800
  C     72.129500   22.127200   69.728100
  H     72.869100   22.559400   69.035300
  H     71.149300   22.472200   69.362700
  C     72.108100   20.628600   69.681700
  H     71.539900   20.363200   70.599800
  H     73.179200   20.242000   69.826400
  C     71.510000   20.141400   68.340600
  H     71.796500   19.068900   68.162200
  H     71.929700   20.713100   67.472800
  H     70.489400   20.292800   68.350000
  H     66.231500   22.805200   72.457100
  H     74.354000   23.652000   73.438500

 Total Charge           Charge          ....    0
 Multiplicity           Mult            ....    1
 Number of Electrons    NEL             ....  134
 Basis Dimension        Dim             ....  322

ORBITAL ENERGIES
----------------

  NO   OCC          E(Eh)            E(eV)
   0   2.0000     -88.966750     -2420.9084
   1   2.0000     -88.966409     -2420.8991
   2   2.0000     -10.330561      -281.1089
   3   2.0000     -10.329192      -281.0716
   4   2.0000     -10.319185      -280.7993
   5   2.0000     -10.318195      -280.7724
   6   2.0000     -10.303432      -280.3706
   7   2.0000     -10.300447      -280.2894
   8   2.0000     -10.298623      -280.2398
   9   2.0000     -10.296249      -280.1752
  10   2.0000     -10.294681      -280.1325
  11   2.0000     -10.290358      -280.0149
  12   2.0000     -10.289649      -279.9956
  13   2.0000     -10.282822      -279.8098
  14   2.0000     -10.281247      -279.7669
  15   2.0000     -10.280529      -279.7474
  16   2.0000      -8.080973      -219.8945
  17   2.0000      -8.080770      -219.8889
  18   2.0000      -6.039656      -164.3474
  19   2.0000      -6.039457      -164.3420
  20   2.0000      -6.035637      -164.2380
  21   2.0000      -6.035304      -164.2290
  22   2.0000      -6.031434      -164.1237
  23   2.0000      -6.031371      -164.1220
  24   2.0000      -1.011625       -27.5277
  25   2.0000      -0.983961       -26.7750
  26   2.0000      -0.913881       -24.8680
  27   2.0000      -0.908585       -24.7239
  28   2.0000      -0.870788       -23.6953
  29   2.0000      -0.849701       -23.1215
  30   2.0000      -0.843294       -22.9472
  31   2.0000      -0.820126       -22.3168
  32   2.0000      -0.781860       -21.2755
  33   2.0000      -0.768637       -20.9157
  34   2.0000      -0.710470       -19.3329
  35   2.0000      -0.697047       -18.9676
  36   2.0000      -0.693580       -18.8733
  37   2.0000      -0.665227       -18.1017
  38   2.0000      -0.641992       -17.4695
  39   2.0000      -0.625854       -17.0303
  40   2.0000      -0.592222       -16.1152
  41   2.0000      -0.570985       -15.5373
  42   2.0000      -0.567089       -15.4313
  43   2.0000      -0.556775       -15.1506
  44   2.0000      -0.543861       -14.7992
  45   2.0000      -0.524583       -14.2746
  46   2.0000      -0.516008       -14.0413
  47   2.0000      -0.514805       -14.0086
  48   2.0000      -0.510648       -13.8954
  49   2.0000      -0.498426       -13.5629
  50   2.0000      -0.488455       -13.2915
  51   2.0000      -0.481079       -13.0908
  52   2.0000      -0.467685       -12.7263
  53   2.0000      -0.465036       -12.6543
  54   2.0000      -0.460483       -12.5304
  55   2.0000      -0.449067       -12.2197
  56   2.0000      -0.445100       -12.1118
  57   2.0000      -0.438488       -11.9319
  58   2.0000      -0.430532       -11.7154
  59   2.0000      -0.424796       -11.5593
  60   2.0000      -0.418887       -11.3985
  61   2.0000      -0.411391       -11.1945
  62   2.0000      -0.408645       -11.1198
  63   2.0000      -0.351787        -9.5726
  64   2.0000      -0.331344        -9.0163
  65   2.0000      -0.327320        -8.9068
  66   2.0000      -0.290900        -7.9158
  67   0.0000       0.022761         0.6194
  68   0.0000       0.063496         1.7278
  69   0.0000       0.101602         2.7647
  70   0.0000       0.115582         3.1451
  71   0.0000       0.126643         3.4461

MULLIKEN ATOMIC CHARGES
-----------------------
   0 S :    0.092387
   1 C :   -0.103768
   2 C :   -0.126740
   3 C :    0.038526
   4 C :   -0.113152
   5 H :    0.005544
   6 C :    0.088119
   7 H :    0.046309
   8 H :    0.015979
   9 C :   -0.070594
  10 H :    0.041322
  11 H :    0.038217
  12 C :   -0.086801
  13 H :    0.047875
  14 H :    0.050562
  15 H :    0.016054
  16 S :    0.094411
  17 C :   -0.068193
  18 C :   -0.031878
  19 C :   -0.076788
  20 C :   -0.138634
  21 H :    0.036915
  22 C :    0.041651
  23 H :    0.022828
  24 H :   -0.002017
  25 C :   -0.070995
  26 H :    0.040688
  27 H :    0.030124
  28 C :   -0.035748
  29 H :    0.044246
  30 H :    0.033379
  31 H :    0.027811
  32 H :    0.036551
  33 H :    0.035812
Sum of atomic charges:    0.0000000

LOEWDIN ATOMIC CHARGES
----------------------
   0 S :    0.397214
   1 C :   -0.180414
   2 C :   -0.061726
   3 C :   -0.062580
   4 C :   -0.200794
   5 H :    0.023654
   6 C :   -0.028298
   7 H :    0.036730
   8 H :    0.030059
   9 C :   -0.038585
  10 H :    0.026365
  11 H :    0.025068
  12 C :   -0.070070
  13 H :    0.030628
  14 H :    0.032407
  15 H :    0.014571
  16 S :    0.393703
  17 C :   -0.163245
  18 C :   -0.067705
  19 C :   -0.066609
  20 C :   -0.194055
  21 H :    0.039979
  22 C :   -0.046493
  23 H :    0.029448
  24 H :    0.026545
  25 C :   -0.043668
  26 H :    0.030752
  27 H :    0.026156
  28 C :   -0.060727
  29 H :    0.033567
  30 H :    0.031048
  31 H :    0.014928
  32 H :    0.023080
  33 H :    0.019068

  Mayer bond orders larger than 0.100000
B(  0-S ,  1-C ) :   1.1345 B(  0-S ,  4-C ) :   1.1439 B(  1-C ,  2-C ) :   1.5829
B(  1-C ,  4-C ) :   0.1019 B(  1-C , 32-H ) :   0.9751 B(  2-C ,  3-C ) :   1.2575
B(  2-C ,  6-C ) :   1.0201 B(  3-C ,  4-C ) :   1.5517 B(  3-C ,  5-H ) :   0.9954
B(  4-C , 20-C ) :   1.0327 B(  6-C ,  7-H ) :   0.9459 B(  6-C ,  8-H ) :   0.9375
B(  6-C ,  9-C ) :   1.0544 B(  9-C , 10-H ) :   0.9621 B(  9-C , 11-H ) :   0.9624
B(  9-C , 12-C ) :   1.0725 B( 12-C , 13-H ) :   0.9742 B( 12-C , 14-H ) :   0.9703
B( 12-C , 15-H ) :   0.9771 B( 16-S , 17-C ) :   1.1414 B( 16-S , 20-C ) :   1.1328
B( 17-C , 18-C ) :   1.6170 B( 17-C , 33-H ) :   0.9710 B( 18-C , 19-C ) :   1.2519
B( 18-C , 21-H ) :   0.9809 B( 19-C , 20-C ) :   1.6022 B( 19-C , 22-C ) :   1.0653
B( 22-C , 23-H ) :   0.9168 B( 22-C , 24-H ) :   0.9301 B( 22-C , 25-C ) :   1.0631
B( 25-C , 26-H ) :   0.9555 B( 25-C , 27-H ) :   0.9519 B( 25-C , 28-C ) :   1.0703
B( 28-C , 29-H ) :   0.9747 B( 28-C , 30-H ) :   0.9729 B( 28-C , 31-H ) :   0.9762

Dispersion correction           -0.014649588
FINAL SINGLE POINT ENERGY     -1339.860292782352

DIPOLE MOMENT
-------------
                                X             Y             Z
Electronic contribution:      8.02054      11.56477      25.48604
Nuclear contribution   :     -8.17026     -11.66784     -26.11820
                        -----------------------------------------
Total Dipole Moment    :     -0.14972      -0.10307      -0.63216
                        -----------------------------------------
Magnitude (a.u.)       :      0.65777
Magnitude (Debye)      :      1.67192

Rotational constants in cm-1:     0.018276     0.009673     0.007053
Rotational constants in MHz :   547.894888   289.986388   211.446362

                             ****ORCA TERMINATED NORMALLY****
TOTAL RUN TIME: 0 days 0 hours 0 minutes 31 seconds 191 msec
