                         Program Version 4.2.1 -  RELEASE  -
|  1> ! wB97X-D3 SP def2-SVP
|  2> %pal
|  3> nprocs 16
|  4> end
|  5>
|  6> * xyz 0 1
|  7> S 	 -70.0454 	 56.7052 	 121.521
|  8> C 	 -69.128 	 57.863 	 120.513
|  9> C 	 -68.4229 	 58.748 	 121.316
| 10> C 	 -68.831 	 58.7124 	 122.688
| 11> C 	 -69.7048 	 57.6905 	 122.967
| 12> H 	 -68.4512 	 59.3409 	 123.446
| 13> C 	 -67.6177 	 59.8942 	 120.843
| 14> H 	 -66.7017 	 59.9559 	 121.354
| 15> H 	 -68.1404 	 60.7187 	 121.23
| 16> C 	 -67.5523 	 60.1092 	 119.322
| 17> H 	 -66.9426 	 59.2628 	 119.04
| 18> H 	 -68.4881 	 59.9432 	 118.791
| 19> C 	 -66.8937 	 61.3557 	 118.8
| 20> H 	 -66.0554 	 61.6428 	 119.381
| 21> H 	 -66.4134 	 61.1941 	 117.853
| 22> H 	 -67.572 	 62.2358 	 118.675
| 23> S 	 -71.9666 	 57.2798 	 124.589
| 24> C 	 -71.8016 	 56.8868 	 126.223
| 25> C 	 -70.4957 	 56.7205 	 126.597
| 26> C 	 -69.6044 	 56.9977 	 125.522
| 27> C 	 -70.2389 	 57.3168 	 124.319
| 28> H 	 -70.0752 	 56.54 	 127.61
| 29> C 	 -68.1085 	 56.8972 	 125.665
| 30> H 	 -67.755 	 57.4979 	 126.586
| 31> H 	 -67.673 	 57.5305 	 124.892
| 32> C 	 -67.4123 	 55.5492 	 125.516
| 33> H 	 -67.506 	 55.0321 	 124.536
| 34> H 	 -67.8184 	 54.804 	 126.188
| 35> C 	 -65.8805 	 55.6931 	 125.851
| 36> H 	 -65.3441 	 56.1525 	 124.996
| 37> H 	 -65.3674 	 54.766 	 125.988
| 38> H 	 -65.7923 	 56.3141 	 126.736
| 39> H 	 -68.9692 	 57.7875 	 119.436
| 40> H 	 -72.5902 	 56.7408 	 126.939
| 41> *
| 42>
| 43>                          ****END OF INPUT****

CARTESIAN COORDINATES (ANGSTROEM)
---------------------------------
  S    -70.045400   56.705200  121.521000
  C    -69.128000   57.863000  120.513000
  C    -68.422900   58.748000  121.316000
  C    -68.831000   58.712400  122.688000
  C    -69.704800   57.690500  122.967000
  H    -68.451200   59.340900  123.446000
  C    -67.617700   59.894200  120.843000
  H    -66.701700   59.955900  121.354000
  H    -68.140400   60.718700  121.230000
  C    -67.552300   60.109200  119.322000
  H    -66.942600   59.262800  119.040000
  H    -68.488100   59.943200  118.791000
  C    -66.893700   61.355700  118.800000
  H    -66.055400   61.642800  119.381000
  H    -66.413400   61.194100  117.853000
  H    -67.572000   62.235800  118.675000
  S    -71.966600   57.279800  124.589000
  C    -71.801600   56.886800  126.223000
  C    -70.495700   56.720500  126.597000
  C    -69.604400   56.997700  125.522000
  C    -70.238900   57.316800  124.319000
  H    -70.075200   56.540000  127.610000
  C    -68.108500   56.897200  125.665000
  H    -67.755000   57.497900  126.586000
  H    -67.673000   57.530500  124.892000
  C    -67.412300   55.549200  125.516000
  H    -67.506000   55.032100  124.536000
  H    -67.818400   54.804000  126.188000
  C    -65.880500   55.693100  125.851000
  H    -65.344100   56.152500  124.996000
  H    -65.367400   54.766000  125.988000
  H    -65.792300   56.314100  126.736000
  H    -68.969200   57.787500  119.436000
  H    -72.590200   56.740800  126.939000

 Total Charge           Charge          ....    0
 Multiplicity           Mult            ....    1
 Number of Electrons    NEL             ....  134
 Basis Dimension        Dim             ....  322

ORBITAL ENERGIES
----------------

  NO   OCC          E(Eh)            E(eV)
   0   2.0000     -88.966011     -2420.8882
   1   2.0000     -88.965449     -2420.8730
   2   2.0000     -10.335362      -281.2395
   3   2.0000     -10.327649      -281.0296
   4   2.0000     -10.316301      -280.7208
   5   2.0000     -10.313459      -280.6435
   6   2.0000     -10.301194      -280.3098
   7   2.0000     -10.300162      -280.2817
   8   2.0000     -10.293435      -280.0986
   9   2.0000     -10.292441      -280.0716
  10   2.0000     -10.291475      -280.0453
  11   2.0000     -10.287056      -279.9250
  12   2.0000     -10.285225      -279.8752
  13   2.0000     -10.282520      -279.8016
  14   2.0000     -10.276614      -279.6409
  15   2.0000     -10.276486      -279.6374
  16   2.0000      -8.081821      -219.9175
  17   2.0000      -8.079014      -219.8412
  18   2.0000      -6.040223      -164.3628
  19   2.0000      -6.037729      -164.2950
  20   2.0000      -6.036009      -164.2482
  21   2.0000      -6.033805      -164.1882
  22   2.0000      -6.032789      -164.1605
  23   2.0000      -6.029501      -164.0711
  24   2.0000      -1.006898       -27.3991
  25   2.0000      -0.985031       -26.8041
  26   2.0000      -0.917501       -24.9665
  27   2.0000      -0.905120       -24.6296
  28   2.0000      -0.865862       -23.5613
  29   2.0000      -0.853294       -23.2193
  30   2.0000      -0.848473       -23.0881
  31   2.0000      -0.816570       -22.2200
  32   2.0000      -0.782885       -21.3034
  33   2.0000      -0.769142       -20.9294
  34   2.0000      -0.719534       -19.5795
  35   2.0000      -0.701760       -19.0959
  36   2.0000      -0.689731       -18.7685
  37   2.0000      -0.658598       -17.9214
  38   2.0000      -0.639503       -17.4018
  39   2.0000      -0.616921       -16.7873
  40   2.0000      -0.600262       -16.3340
  41   2.0000      -0.574924       -15.6445
  42   2.0000      -0.569918       -15.5082
  43   2.0000      -0.553337       -15.0571
  44   2.0000      -0.527918       -14.3654
  45   2.0000      -0.522080       -14.2065
  46   2.0000      -0.519423       -14.1342
  47   2.0000      -0.513028       -13.9602
  48   2.0000      -0.504049       -13.7159
  49   2.0000      -0.500023       -13.6063
  50   2.0000      -0.494435       -13.4543
  51   2.0000      -0.480338       -13.0707
  52   2.0000      -0.471549       -12.8315
  53   2.0000      -0.459075       -12.4921
  54   2.0000      -0.456522       -12.4226
  55   2.0000      -0.455797       -12.4029
  56   2.0000      -0.449762       -12.2387
  57   2.0000      -0.441142       -12.0041
  58   2.0000      -0.437867       -11.9150
  59   2.0000      -0.428131       -11.6500
  60   2.0000      -0.419178       -11.4064
  61   2.0000      -0.407802       -11.0968
  62   2.0000      -0.405283       -11.0283
  63   2.0000      -0.341096        -9.2817
  64   2.0000      -0.332222        -9.0402
  65   2.0000      -0.326611        -8.8875
  66   2.0000      -0.299870        -8.1599
  67   0.0000       0.035760         0.9731
  68   0.0000       0.069025         1.8783
  69   0.0000       0.111411         3.0316
  70   0.0000       0.123382         3.3574
  71   0.0000       0.130758         3.5581

MULLIKEN ATOMIC CHARGES
-----------------------
   0 S :    0.103420
   1 C :   -0.131685
   2 C :   -0.098547
   3 C :    0.041709
   4 C :   -0.127572
   5 H :    0.005168
   6 C :    0.106398
   7 H :    0.016616
   8 H :    0.016217
   9 C :   -0.107401
  10 H :    0.022390
  11 H :    0.035786
  12 C :   -0.007640
  13 H :    0.010864
  14 H :    0.020887
  15 H :    0.042987
  16 S :    0.125232
  17 C :   -0.071284
  18 C :   -0.036527
  19 C :   -0.036643
  20 C :   -0.177768
  21 H :    0.028620
  22 C :    0.023662
  23 H :    0.034382
  24 H :    0.003371
  25 C :   -0.048550
  26 H :    0.039442
  27 H :    0.019370
  28 C :   -0.056439
  29 H :    0.035651
  30 H :    0.028945
  31 H :    0.027313
  32 H :    0.057723
  33 H :    0.053903
Sum of atomic charges:    0.0000000

LOEWDIN ATOMIC CHARGES
----------------------
   0 S :    0.373013
   1 C :   -0.194006
   2 C :   -0.056582
   3 C :   -0.054875
   4 C :   -0.174210
   5 H :    0.026544
   6 C :   -0.029706
   7 H :    0.028147
   8 H :    0.030306
   9 C :   -0.045604
  10 H :    0.023697
  11 H :    0.026765
  12 C :   -0.064432
  13 H :    0.020544
  14 H :    0.028099
  15 H :    0.031165
  16 S :    0.440246
  17 C :   -0.199398
  18 C :   -0.079719
  19 C :   -0.057260
  20 C :   -0.210316
  21 H :    0.038918
  22 C :   -0.047099
  23 H :    0.038545
  24 H :    0.028380
  25 C :   -0.039025
  26 H :    0.031771
  27 H :    0.017845
  28 C :   -0.063527
  29 H :    0.027684
  30 H :    0.021606
  31 H :    0.021391
  32 H :    0.030224
  33 H :    0.030869

  Mayer bond orders larger than 0.100000
B(  0-S ,  1-C ) :   1.1073 B(  0-S ,  4-C ) :   1.1403 B(  1-C ,  2-C ) :   1.6461
B(  1-C , 32-H ) :   0.9551 B(  2-C ,  3-C ) :   1.2091 B(  2-C ,  6-C ) :   1.0245
B(  3-C ,  4-C ) :   1.6098 B(  3-C ,  5-H ) :   0.9994 B(  4-C , 20-C ) :   1.0067
B(  6-C ,  7-H ) :   0.9190 B(  6-C ,  8-H ) :   0.9368 B(  6-C ,  9-C ) :   1.0752
B(  9-C , 10-H ) :   0.9513 B(  9-C , 11-H ) :   0.9507 B(  9-C , 12-C ) :   1.0948
B( 12-C , 13-H ) :   0.9694 B( 12-C , 14-H ) :   0.9678 B( 12-C , 15-H ) :   0.9741
B( 16-S , 17-C ) :   1.1862 B( 16-S , 20-C ) :   1.1508 B( 17-C , 18-C ) :   1.5628
B( 17-C , 33-H ) :   0.9662 B( 18-C , 19-C ) :   1.2870 B( 18-C , 21-H ) :   0.9858
B( 19-C , 20-C ) :   1.5775 B( 19-C , 22-C ) :   1.0496 B( 22-C , 23-H ) :   0.9350
B( 22-C , 24-H ) :   0.9253 B( 22-C , 25-C ) :   1.0585 B( 25-C , 26-H ) :   0.9542
B( 25-C , 27-H ) :   0.9587 B( 25-C , 28-C ) :   1.0710 B( 28-C , 29-H ) :   0.9786
B( 28-C , 30-H ) :   0.9756 B( 28-C , 31-H ) :   0.9769

Dispersion correction           -0.013565631
FINAL SINGLE POINT ENERGY     -1339.877239393861

DIPOLE MOMENT
-------------
                                X             Y             Z
Electronic contribution:    -25.85656      -8.34779       3.99496
Nuclear contribution   :     26.47337       8.67500      -3.86475
                        -----------------------------------------
Total Dipole Moment    :      0.61681       0.32722       0.13021
                        -----------------------------------------
Magnitude (a.u.)       :      0.71026
Magnitude (Debye)      :      1.80535

Rotational constants in cm-1:     0.019442     0.007501     0.006182
Rotational constants in MHz :   582.861971   224.875134   185.337659

                             ****ORCA TERMINATED NORMALLY****
TOTAL RUN TIME: 0 days 0 hours 0 minutes 32 seconds 497 msec
