                         Program Version 4.2.1 -  RELEASE  -
|  1> ! wB97X-D3 SP def2-SVP
|  2> %pal
|  3> nprocs 16
|  4> end
|  5>
|  6> * xyz 0 1
|  7> S 	 41.5507 	 11.9669 	 78.8146
|  8> C 	 42.4959 	 12.4026 	 80.2044
|  9> C 	 43.8613 	 12.6141 	 79.8566
| 10> C 	 44.0344 	 12.5741 	 78.4774
| 11> C 	 42.9172 	 12.2388 	 77.7199
| 12> H 	 44.9177 	 12.8278 	 77.8526
| 13> C 	 44.9972 	 13.0916 	 80.7727
| 14> H 	 44.6127 	 13.3306 	 81.7191
| 15> H 	 45.3835 	 14.0448 	 80.4041
| 16> C 	 46.1515 	 11.9975 	 80.9121
| 17> H 	 46.5466 	 11.7184 	 79.9396
| 18> H 	 46.992 	 12.51 	 81.4449
| 19> C 	 45.5771 	 10.7487 	 81.7071
| 20> H 	 44.9211 	 10.1145 	 81.2084
| 21> H 	 46.3837 	 10.1873 	 82.191
| 22> H 	 45.0507 	 11.0924 	 82.6105
| 23> S 	 42.2032 	 10.2832 	 75.9456
| 24> C 	 42.237 	 10.6199 	 74.2455
| 25> C 	 42.8574 	 11.8339 	 73.9698
| 26> C 	 43.2311 	 12.5477 	 75.1217
| 27> C 	 42.8619 	 11.8875 	 76.3006
| 28> H 	 43.1657 	 12.138 	 72.989
| 29> C 	 43.7256 	 13.9891 	 75.0714
| 30> H 	 43.586 	 14.3602 	 76.0688
| 31> H 	 42.9394 	 14.5628 	 74.5391
| 32> C 	 45.1015 	 14.328 	 74.4773
| 33> H 	 45.2816 	 15.3712 	 74.5816
| 34> H 	 45.2286 	 14.0691 	 73.4401
| 35> C 	 46.2609 	 13.6971 	 75.2432
| 36> H 	 46.1059 	 13.7968 	 76.3288
| 37> H 	 47.2596 	 14.0576 	 75.0087
| 38> H 	 46.2518 	 12.6261 	 75.0287
| 39> H 	 42.059 	 12.3451 	 81.1992
| 40> H 	 42.1119 	 9.82176 	 73.562
| 41> *
| 42>
| 43>                          ****END OF INPUT****

CARTESIAN COORDINATES (ANGSTROEM)
---------------------------------
  S     41.550700   11.966900   78.814600
  C     42.495900   12.402600   80.204400
  C     43.861300   12.614100   79.856600
  C     44.034400   12.574100   78.477400
  C     42.917200   12.238800   77.719900
  H     44.917700   12.827800   77.852600
  C     44.997200   13.091600   80.772700
  H     44.612700   13.330600   81.719100
  H     45.383500   14.044800   80.404100
  C     46.151500   11.997500   80.912100
  H     46.546600   11.718400   79.939600
  H     46.992000   12.510000   81.444900
  C     45.577100   10.748700   81.707100
  H     44.921100   10.114500   81.208400
  H     46.383700   10.187300   82.191000
  H     45.050700   11.092400   82.610500
  S     42.203200   10.283200   75.945600
  C     42.237000   10.619900   74.245500
  C     42.857400   11.833900   73.969800
  C     43.231100   12.547700   75.121700
  C     42.861900   11.887500   76.300600
  H     43.165700   12.138000   72.989000
  C     43.725600   13.989100   75.071400
  H     43.586000   14.360200   76.068800
  H     42.939400   14.562800   74.539100
  C     45.101500   14.328000   74.477300
  H     45.281600   15.371200   74.581600
  H     45.228600   14.069100   73.440100
  C     46.260900   13.697100   75.243200
  H     46.105900   13.796800   76.328800
  H     47.259600   14.057600   75.008700
  H     46.251800   12.626100   75.028700
  H     42.059000   12.345100   81.199200
  H     42.111900    9.821760   73.562000

 Total Charge           Charge          ....    0
 Multiplicity           Mult            ....    1
 Number of Electrons    NEL             ....  134
 Basis Dimension        Dim             ....  322

ORBITAL ENERGIES
----------------

  NO   OCC          E(Eh)            E(eV)
   0   2.0000     -88.967945     -2420.9409
   1   2.0000     -88.965563     -2420.8761
   2   2.0000     -10.329561      -281.0817
   3   2.0000     -10.329237      -281.0728
   4   2.0000     -10.320099      -280.8242
   5   2.0000     -10.314402      -280.6692
   6   2.0000     -10.304965      -280.4124
   7   2.0000     -10.302681      -280.3502
   8   2.0000     -10.298126      -280.2262
   9   2.0000     -10.293402      -280.0977
  10   2.0000     -10.292974      -280.0861
  11   2.0000     -10.292353      -280.0692
  12   2.0000     -10.292239      -280.0661
  13   2.0000     -10.285379      -279.8794
  14   2.0000     -10.276615      -279.6409
  15   2.0000     -10.275689      -279.6157
  16   2.0000      -8.082351      -219.9320
  17   2.0000      -8.080401      -219.8789
  18   2.0000      -6.040710      -164.3761
  19   2.0000      -6.038740      -164.3225
  20   2.0000      -6.036780      -164.2691
  21   2.0000      -6.034907      -164.2182
  22   2.0000      -6.033409      -164.1774
  23   2.0000      -6.031311      -164.1203
  24   2.0000      -1.004996       -27.3473
  25   2.0000      -0.983346       -26.7582
  26   2.0000      -0.910307       -24.7707
  27   2.0000      -0.900940       -24.5158
  28   2.0000      -0.864333       -23.5197
  29   2.0000      -0.854382       -23.2489
  30   2.0000      -0.844166       -22.9709
  31   2.0000      -0.809317       -22.0226
  32   2.0000      -0.783393       -21.3172
  33   2.0000      -0.771681       -20.9985
  34   2.0000      -0.710101       -19.3228
  35   2.0000      -0.702129       -19.1059
  36   2.0000      -0.694827       -18.9072
  37   2.0000      -0.660025       -17.9602
  38   2.0000      -0.645679       -17.5698
  39   2.0000      -0.618495       -16.8301
  40   2.0000      -0.599442       -16.3117
  41   2.0000      -0.563151       -15.3241
  42   2.0000      -0.552315       -15.0292
  43   2.0000      -0.550250       -14.9731
  44   2.0000      -0.539992       -14.6939
  45   2.0000      -0.535566       -14.5735
  46   2.0000      -0.521558       -14.1923
  47   2.0000      -0.509520       -13.8648
  48   2.0000      -0.496501       -13.5105
  49   2.0000      -0.491675       -13.3791
  50   2.0000      -0.488183       -13.2841
  51   2.0000      -0.475550       -12.9404
  52   2.0000      -0.468092       -12.7374
  53   2.0000      -0.465652       -12.6710
  54   2.0000      -0.462622       -12.5886
  55   2.0000      -0.445927       -12.1343
  56   2.0000      -0.444487       -12.0951
  57   2.0000      -0.440049       -11.9744
  58   2.0000      -0.433540       -11.7972
  59   2.0000      -0.429598       -11.6899
  60   2.0000      -0.423492       -11.5238
  61   2.0000      -0.418341       -11.3836
  62   2.0000      -0.414066       -11.2673
  63   2.0000      -0.346788        -9.4366
  64   2.0000      -0.334565        -9.1040
  65   2.0000      -0.329215        -8.9584
  66   2.0000      -0.288146        -7.8409
  67   0.0000       0.027618         0.7515
  68   0.0000       0.061846         1.6829
  69   0.0000       0.111970         3.0469
  70   0.0000       0.118542         3.2257
  71   0.0000       0.128265         3.4903

MULLIKEN ATOMIC CHARGES
-----------------------
   0 S :    0.113359
   1 C :   -0.131121
   2 C :   -0.068843
   3 C :    0.037721
   4 C :   -0.176664
   5 H :    0.003511
   6 C :    0.072266
   7 H :    0.001680
   8 H :    0.032928
   9 C :   -0.082294
  10 H :    0.038025
  11 H :    0.038053
  12 C :   -0.040646
  13 H :    0.042141
  14 H :    0.030396
  15 H :    0.014905
  16 S :    0.106266
  17 C :   -0.080782
  18 C :   -0.021263
  19 C :   -0.028423
  20 C :   -0.170943
  21 H :    0.012105
  22 C :    0.038882
  23 H :    0.014983
  24 H :    0.039869
  25 C :   -0.024126
  26 H :    0.025037
  27 H :    0.028495
  28 C :   -0.081240
  29 H :    0.033591
  30 H :    0.033740
  31 H :    0.036783
  32 H :    0.059141
  33 H :    0.052467
Sum of atomic charges:   -0.0000000

LOEWDIN ATOMIC CHARGES
----------------------
   0 S :    0.411206
   1 C :   -0.201791
   2 C :   -0.066054
   3 C :   -0.065372
   4 C :   -0.200078
   5 H :    0.035215
   6 C :   -0.023173
   7 H :    0.017808
   8 H :    0.031032
   9 C :   -0.032242
  10 H :    0.021014
  11 H :    0.028393
  12 C :   -0.064431
  13 H :    0.018781
  14 H :    0.028504
  15 H :    0.025628
  16 S :    0.410407
  17 C :   -0.184751
  18 C :   -0.066051
  19 C :   -0.061585
  20 C :   -0.190657
  21 H :    0.028399
  22 C :   -0.032219
  23 H :    0.028475
  24 H :    0.040045
  25 C :   -0.035862
  26 H :    0.024314
  27 H :    0.022087
  28 C :   -0.067889
  29 H :    0.021338
  30 H :    0.025114
  31 H :    0.025747
  32 H :    0.028565
  33 H :    0.020080

  Mayer bond orders larger than 0.100000
B(  0-S ,  1-C ) :   1.1698 B(  0-S ,  4-C ) :   1.1558 B(  1-C ,  2-C ) :   1.5425
B(  1-C ,  4-C ) :   0.1114 B(  1-C , 32-H ) :   0.9698 B(  2-C ,  3-C ) :   1.2772
B(  2-C ,  6-C ) :   1.0207 B(  3-C ,  4-C ) :   1.5527 B(  3-C ,  5-H ) :   0.9820
B(  4-C , 20-C ) :   1.0379 B(  6-C ,  7-H ) :   0.9456 B(  6-C ,  8-H ) :   0.9493
B(  6-C ,  9-C ) :   1.0595 B(  9-C , 10-H ) :   0.9642 B(  9-C , 11-H ) :   0.9608
B(  9-C , 12-C ) :   1.0539 B( 12-C , 13-H ) :   0.9804 B( 12-C , 14-H ) :   0.9759
B( 12-C , 15-H ) :   0.9757 B( 16-S , 17-C ) :   1.1661 B( 16-S , 20-C ) :   1.1583
B( 17-C , 18-C ) :   1.5741 B( 17-C , 20-C ) :   0.1053 B( 17-C , 33-H ) :   0.9709
B( 18-C , 19-C ) :   1.2749 B( 18-C , 21-H ) :   0.9906 B( 19-C , 20-C ) :   1.5628
B( 19-C , 22-C ) :   1.0333 B( 22-C , 23-H ) :   0.9345 B( 22-C , 24-H ) :   0.9386
B( 22-C , 25-C ) :   1.0737 B( 25-C , 26-H ) :   0.9528 B( 25-C , 27-H ) :   0.9580
B( 25-C , 28-C ) :   1.0729 B( 28-C , 29-H ) :   0.9693 B( 28-C , 30-H ) :   0.9708
B( 28-C , 31-H ) :   0.9771

Dispersion correction           -0.014968854
FINAL SINGLE POINT ENERGY     -1339.882805461466

DIPOLE MOMENT
-------------
                                X             Y             Z
Electronic contribution:    -23.08193      -9.51426      -5.71844
Nuclear contribution   :     23.64239       9.81061       5.71979
                        -----------------------------------------
Total Dipole Moment    :      0.56046       0.29636       0.00134
                        -----------------------------------------
Magnitude (a.u.)       :      0.63399
Magnitude (Debye)      :      1.61147

Rotational constants in cm-1:     0.018547     0.009081     0.007215
Rotational constants in MHz :   556.035639   272.253639   216.291539

                             ****ORCA TERMINATED NORMALLY****
TOTAL RUN TIME: 0 days 0 hours 0 minutes 31 seconds 134 msec
