                         Program Version 4.2.1 -  RELEASE  -
|  1> ! wB97X-D3 SP def2-SVP
|  2> %pal
|  3> nprocs 16
|  4> end
|  5>
|  6> * xyz 0 1
|  7> S 	 -105.386 	 40.1742 	 131.134
|  8> C 	 -103.932 	 40.3805 	 132.066
|  9> C 	 -102.825 	 40.6424 	 131.3
| 10> C 	 -103.193 	 40.6488 	 129.913
| 11> C 	 -104.541 	 40.4764 	 129.614
| 12> H 	 -102.545 	 40.9103 	 129.172
| 13> C 	 -101.379 	 40.8955 	 131.823
| 14> H 	 -100.881 	 40.2537 	 131.16
| 15> H 	 -101.079 	 40.5652 	 132.842
| 16> C 	 -100.96 	 42.3607 	 131.737
| 17> H 	 -99.9547 	 42.3514 	 132.008
| 18> H 	 -100.841 	 42.7908 	 130.742
| 19> C 	 -101.786 	 43.2567 	 132.61
| 20> H 	 -102.438 	 43.8495 	 131.98
| 21> H 	 -102.296 	 42.801 	 133.462
| 22> H 	 -101.082 	 44.005 	 133.101
| 23> S 	 -106.924 	 41.045 	 128.35
| 24> C 	 -106.892 	 41.2457 	 126.624
| 25> C 	 -105.592 	 41.2978 	 126.152
| 26> C 	 -104.663 	 40.7239 	 127.067
| 27> C 	 -105.221 	 40.6125 	 128.323
| 28> H 	 -105.398 	 41.6186 	 125.208
| 29> C 	 -103.254 	 40.4489 	 126.634
| 30> H 	 -103.383 	 39.8832 	 125.729
| 31> H 	 -102.824 	 39.75 	 127.322
| 32> C 	 -102.395 	 41.7671 	 126.53
| 33> H 	 -102.013 	 42.0643 	 127.432
| 34> H 	 -103.015 	 42.5865 	 126.094
| 35> C 	 -101.117 	 41.4816 	 125.699
| 36> H 	 -100.631 	 40.5944 	 126.013
| 37> H 	 -100.309 	 42.2976 	 125.849
| 38> H 	 -101.484 	 41.5212 	 124.645
| 39> H 	 -103.92 	 40.3529 	 133.102
| 40> H 	 -107.689 	 41.665 	 126.08
| 41> *
| 42>
| 43>                          ****END OF INPUT****

CARTESIAN COORDINATES (ANGSTROEM)
---------------------------------
  S    -105.386000   40.174200  131.134000
  C    -103.932000   40.380500  132.066000
  C    -102.825000   40.642400  131.300000
  C    -103.193000   40.648800  129.913000
  C    -104.541000   40.476400  129.614000
  H    -102.545000   40.910300  129.172000
  C    -101.379000   40.895500  131.823000
  H    -100.881000   40.253700  131.160000
  H    -101.079000   40.565200  132.842000
  C    -100.960000   42.360700  131.737000
  H    -99.954700   42.351400  132.008000
  H    -100.841000   42.790800  130.742000
  C    -101.786000   43.256700  132.610000
  H    -102.438000   43.849500  131.980000
  H    -102.296000   42.801000  133.462000
  H    -101.082000   44.005000  133.101000
  S    -106.924000   41.045000  128.350000
  C    -106.892000   41.245700  126.624000
  C    -105.592000   41.297800  126.152000
  C    -104.663000   40.723900  127.067000
  C    -105.221000   40.612500  128.323000
  H    -105.398000   41.618600  125.208000
  C    -103.254000   40.448900  126.634000
  H    -103.383000   39.883200  125.729000
  H    -102.824000   39.750000  127.322000
  C    -102.395000   41.767100  126.530000
  H    -102.013000   42.064300  127.432000
  H    -103.015000   42.586500  126.094000
  C    -101.117000   41.481600  125.699000
  H    -100.631000   40.594400  126.013000
  H    -100.309000   42.297600  125.849000
  H    -101.484000   41.521200  124.645000
  H    -103.920000   40.352900  133.102000
  H    -107.689000   41.665000  126.080000

 Total Charge           Charge          ....    0
 Multiplicity           Mult            ....    1
 Number of Electrons    NEL             ....  134
 Basis Dimension        Dim             ....  322

ORBITAL ENERGIES
----------------

  NO   OCC          E(Eh)            E(eV)
   0   2.0000     -88.965741     -2420.8809
   1   2.0000     -88.962178     -2420.7839
   2   2.0000     -10.331296      -281.1288
   3   2.0000     -10.327112      -281.0150
   4   2.0000     -10.312463      -280.6164
   5   2.0000     -10.304805      -280.4080
   6   2.0000     -10.300899      -280.3017
   7   2.0000     -10.299570      -280.2655
   8   2.0000     -10.295663      -280.1592
   9   2.0000     -10.292747      -280.0799
  10   2.0000     -10.291524      -280.0466
  11   2.0000     -10.287976      -279.9501
  12   2.0000     -10.287577      -279.9392
  13   2.0000     -10.286141      -279.9001
  14   2.0000     -10.279154      -279.7100
  15   2.0000     -10.277715      -279.6708
  16   2.0000      -8.080703      -219.8871
  17   2.0000      -8.076944      -219.7848
  18   2.0000      -6.039215      -164.3354
  19   2.0000      -6.035533      -164.2352
  20   2.0000      -6.035402      -164.2316
  21   2.0000      -6.031461      -164.1244
  22   2.0000      -6.031232      -164.1182
  23   2.0000      -6.027635      -164.0203
  24   2.0000      -1.007357       -27.4116
  25   2.0000      -0.984186       -26.7811
  26   2.0000      -0.914871       -24.8949
  27   2.0000      -0.912157       -24.8211
  28   2.0000      -0.869939       -23.6722
  29   2.0000      -0.856695       -23.3118
  30   2.0000      -0.844465       -22.9791
  31   2.0000      -0.814333       -22.1591
  32   2.0000      -0.785557       -21.3761
  33   2.0000      -0.775441       -21.1008
  34   2.0000      -0.709334       -19.3020
  35   2.0000      -0.703958       -19.1557
  36   2.0000      -0.697915       -18.9912
  37   2.0000      -0.671725       -18.2786
  38   2.0000      -0.643982       -17.5237
  39   2.0000      -0.626230       -17.0406
  40   2.0000      -0.598572       -16.2880
  41   2.0000      -0.574279       -15.6269
  42   2.0000      -0.567704       -15.4480
  43   2.0000      -0.559669       -15.2294
  44   2.0000      -0.541792       -14.7429
  45   2.0000      -0.528570       -14.3831
  46   2.0000      -0.520901       -14.1744
  47   2.0000      -0.509396       -13.8614
  48   2.0000      -0.506403       -13.7799
  49   2.0000      -0.497529       -13.5385
  50   2.0000      -0.489350       -13.3159
  51   2.0000      -0.485916       -13.2224
  52   2.0000      -0.472424       -12.8553
  53   2.0000      -0.466500       -12.6941
  54   2.0000      -0.463768       -12.6198
  55   2.0000      -0.454794       -12.3756
  56   2.0000      -0.440140       -11.9768
  57   2.0000      -0.438380       -11.9289
  58   2.0000      -0.434210       -11.8155
  59   2.0000      -0.431334       -11.7372
  60   2.0000      -0.422199       -11.4886
  61   2.0000      -0.415439       -11.3047
  62   2.0000      -0.405753       -11.0411
  63   2.0000      -0.359701        -9.7880
  64   2.0000      -0.332284        -9.0419
  65   2.0000      -0.326513        -8.8849
  66   2.0000      -0.280634        -7.6364
  67   0.0000       0.021642         0.5889
  68   0.0000       0.086448         2.3524
  69   0.0000       0.098293         2.6747
  70   0.0000       0.119513         3.2521
  71   0.0000       0.128210         3.4888

MULLIKEN ATOMIC CHARGES
-----------------------
   0 S :    0.092164
   1 C :   -0.103629
   2 C :   -0.063884
   3 C :    0.046492
   4 C :   -0.117769
   5 H :   -0.079484
   6 C :    0.068564
   7 H :    0.016568
   8 H :    0.033495
   9 C :   -0.042666
  10 H :    0.008029
  11 H :    0.018575
  12 C :   -0.051036
  13 H :    0.043040
  14 H :    0.033927
  15 H :    0.028400
  16 S :    0.097808
  17 C :   -0.058184
  18 C :   -0.011536
  19 C :   -0.102583
  20 C :   -0.078777
  21 H :   -0.018469
  22 C :    0.071138
  23 H :    0.027613
  24 H :    0.022071
  25 C :   -0.044034
  26 H :    0.018230
  27 H :    0.040939
  28 C :   -0.078590
  29 H :    0.033489
  30 H :    0.041595
  31 H :    0.047504
  32 H :    0.016731
  33 H :    0.044270
Sum of atomic charges:    0.0000000

LOEWDIN ATOMIC CHARGES
----------------------
   0 S :    0.391668
   1 C :   -0.186741
   2 C :   -0.056879
   3 C :   -0.061597
   4 C :   -0.178272
   5 H :    0.006319
   6 C :   -0.022615
   7 H :    0.024659
   8 H :    0.036154
   9 C :   -0.046580
  10 H :    0.015819
  11 H :    0.024809
  12 C :   -0.067087
  13 H :    0.029968
  14 H :    0.025098
  15 H :    0.034232
  16 S :    0.403188
  17 C :   -0.178310
  18 C :   -0.049941
  19 C :   -0.055797
  20 C :   -0.190603
  21 H :    0.012345
  22 C :   -0.028232
  23 H :    0.032783
  24 H :    0.027631
  25 C :   -0.026298
  26 H :    0.008682
  27 H :    0.030501
  28 C :   -0.067894
  29 H :    0.018375
  30 H :    0.032561
  31 H :    0.031163
  32 H :    0.011738
  33 H :    0.019152

  Mayer bond orders larger than 0.100000
B(  0-S ,  1-C ) :   1.1383 B(  0-S ,  4-C ) :   1.1369 B(  1-C ,  2-C ) :   1.6136
B(  1-C , 32-H ) :   0.9748 B(  2-C ,  3-C ) :   1.2565 B(  2-C ,  6-C ) :   0.9955
B(  3-C ,  4-C ) :   1.5644 B(  3-C ,  5-H ) :   0.9977 B(  4-C , 20-C ) :   1.0745
B(  6-C ,  7-H ) :   0.9362 B(  6-C ,  8-H ) :   0.9531 B(  6-C ,  9-C ) :   1.0841
B(  9-C , 10-H ) :   0.9576 B(  9-C , 11-H ) :   0.9530 B(  9-C , 12-C ) :   1.0591
B( 12-C , 13-H ) :   0.9776 B( 12-C , 14-H ) :   0.9802 B( 12-C , 15-H ) :   0.9735
B( 16-S , 17-C ) :   1.1486 B( 16-S , 20-C ) :   1.1335 B( 17-C , 18-C ) :   1.6217
B( 17-C , 33-H ) :   0.9697 B( 18-C , 19-C ) :   1.2375 B( 18-C , 21-H ) :   0.9987
B( 19-C , 20-C ) :   1.5956 B( 19-C , 22-C ) :   1.0405 B( 22-C , 23-H ) :   0.9370
B( 22-C , 24-H ) :   0.9264 B( 22-C , 25-C ) :   1.0461 B( 25-C , 26-H ) :   0.9541
B( 25-C , 27-H ) :   0.9617 B( 25-C , 28-C ) :   1.0679 B( 28-C , 29-H ) :   0.9730
B( 28-C , 30-H ) :   0.9770 B( 28-C , 31-H ) :   0.9813

Dispersion correction           -0.014584742
FINAL SINGLE POINT ENERGY     -1339.850485142588

DIPOLE MOMENT
-------------
                                X             Y             Z
Electronic contribution:    -28.25496      -9.82924       3.10061
Nuclear contribution   :     29.05383      10.22186      -3.36598
                        -----------------------------------------
Total Dipole Moment    :      0.79887       0.39262      -0.26537
                        -----------------------------------------
Magnitude (a.u.)       :      0.92885
Magnitude (Debye)      :      2.36095

Rotational constants in cm-1:     0.016862     0.010062     0.006992
Rotational constants in MHz :   505.507711   301.648988   209.600918

                             ****ORCA TERMINATED NORMALLY****
TOTAL RUN TIME: 0 days 0 hours 0 minutes 34 seconds 999 msec
