                         Program Version 4.2.1 -  RELEASE  -
|  1> ! wB97X-D3 SP def2-SVP
|  2> %pal
|  3> nprocs 16
|  4> end
|  5>
|  6> * xyz 0 1
|  7> S 	 45.9396 	 20.1261 	 103.001
|  8> C 	 46.434 	 20.7287 	 101.435
|  9> C 	 46.0747 	 19.9969 	 100.396
| 10> C 	 45.4489 	 18.7679 	 100.8
| 11> C 	 45.3928 	 18.5672 	 102.201
| 12> H 	 45.0918 	 17.9804 	 100.171
| 13> C 	 46.4724 	 20.2195 	 98.9426
| 14> H 	 46.684 	 19.306 	 98.4323
| 15> H 	 47.429 	 20.8123 	 98.8689
| 16> C 	 45.3599 	 20.8935 	 98.1916
| 17> H 	 44.5427 	 20.2731 	 98.4017
| 18> H 	 45.195 	 21.908 	 98.5331
| 19> C 	 45.6505 	 20.8259 	 96.7389
| 20> H 	 44.8913 	 21.454 	 96.1762
| 21> H 	 46.6575 	 21.2495 	 96.5614
| 22> H 	 45.6085 	 19.7913 	 96.4046
| 23> S 	 43.0737 	 17.4964 	 103.31
| 24> C 	 42.9475 	 15.8575 	 103.75
| 25> C 	 44.2061 	 15.3061 	 103.715
| 26> C 	 45.236 	 16.1743 	 103.21
| 27> C 	 44.7841 	 17.3824 	 102.901
| 28> H 	 44.4162 	 14.3201 	 104.175
| 29> C 	 46.6698 	 15.6379 	 103.035
| 30> H 	 46.8623 	 14.6809 	 103.607
| 31> H 	 47.3239 	 16.4047 	 103.516
| 32> C 	 47.223 	 15.4329 	 101.573
| 33> H 	 48.1423 	 14.8819 	 101.559
| 34> H 	 47.4748 	 16.3865 	 101.147
| 35> C 	 46.2819 	 14.687 	 100.578
| 36> H 	 46.0622 	 13.6977 	 100.964
| 37> H 	 46.7545 	 14.7593 	 99.5885
| 38> H 	 45.3453 	 15.2947 	 100.62
| 39> H 	 47.0207 	 21.6373 	 101.406
| 40> H 	 42.1357 	 15.51 	 104.42
| 41> *
| 42>
| 43>                          ****END OF INPUT****

CARTESIAN COORDINATES (ANGSTROEM)
---------------------------------
  S     45.939600   20.126100  103.001000
  C     46.434000   20.728700  101.435000
  C     46.074700   19.996900  100.396000
  C     45.448900   18.767900  100.800000
  C     45.392800   18.567200  102.201000
  H     45.091800   17.980400  100.171000
  C     46.472400   20.219500   98.942600
  H     46.684000   19.306000   98.432300
  H     47.429000   20.812300   98.868900
  C     45.359900   20.893500   98.191600
  H     44.542700   20.273100   98.401700
  H     45.195000   21.908000   98.533100
  C     45.650500   20.825900   96.738900
  H     44.891300   21.454000   96.176200
  H     46.657500   21.249500   96.561400
  H     45.608500   19.791300   96.404600
  S     43.073700   17.496400  103.310000
  C     42.947500   15.857500  103.750000
  C     44.206100   15.306100  103.715000
  C     45.236000   16.174300  103.210000
  C     44.784100   17.382400  102.901000
  H     44.416200   14.320100  104.175000
  C     46.669800   15.637900  103.035000
  H     46.862300   14.680900  103.607000
  H     47.323900   16.404700  103.516000
  C     47.223000   15.432900  101.573000
  H     48.142300   14.881900  101.559000
  H     47.474800   16.386500  101.147000
  C     46.281900   14.687000  100.578000
  H     46.062200   13.697700  100.964000
  H     46.754500   14.759300   99.588500
  H     45.345300   15.294700  100.620000
  H     47.020700   21.637300  101.406000
  H     42.135700   15.510000  104.420000

 Total Charge           Charge          ....    0
 Multiplicity           Mult            ....    1
 Number of Electrons    NEL             ....  134
 Basis Dimension        Dim             ....  322

ORBITAL ENERGIES
----------------

  NO   OCC          E(Eh)            E(eV)
   0   2.0000     -88.965925     -2420.8859
   1   2.0000     -88.959441     -2420.7094
   2   2.0000     -10.342025      -281.4208
   3   2.0000     -10.327177      -281.0168
   4   2.0000     -10.316317      -280.7213
   5   2.0000     -10.312116      -280.6069
   6   2.0000     -10.302749      -280.3521
   7   2.0000     -10.302120      -280.3349
   8   2.0000     -10.300762      -280.2980
   9   2.0000     -10.297866      -280.2192
  10   2.0000     -10.295431      -280.1529
  11   2.0000     -10.291872      -280.0561
  12   2.0000     -10.281385      -279.7707
  13   2.0000     -10.280703      -279.7522
  14   2.0000     -10.277604      -279.6678
  15   2.0000     -10.274088      -279.5721
  16   2.0000      -8.079655      -219.8586
  17   2.0000      -8.075462      -219.7445
  18   2.0000      -6.038275      -164.3098
  19   2.0000      -6.034452      -164.2058
  20   2.0000      -6.033968      -164.1926
  21   2.0000      -6.030209      -164.0903
  22   2.0000      -6.029718      -164.0770
  23   2.0000      -6.026181      -163.9807
  24   2.0000      -1.008840       -27.4519
  25   2.0000      -0.987665       -26.8757
  26   2.0000      -0.924023       -25.1440
  27   2.0000      -0.899551       -24.4780
  28   2.0000      -0.869747       -23.6670
  29   2.0000      -0.849061       -23.1041
  30   2.0000      -0.846172       -23.0255
  31   2.0000      -0.813409       -22.1340
  32   2.0000      -0.778646       -21.1880
  33   2.0000      -0.773143       -21.0383
  34   2.0000      -0.703745       -19.1499
  35   2.0000      -0.696616       -18.9559
  36   2.0000      -0.686593       -18.6831
  37   2.0000      -0.662955       -18.0399
  38   2.0000      -0.648076       -17.6350
  39   2.0000      -0.617111       -16.7924
  40   2.0000      -0.587201       -15.9785
  41   2.0000      -0.582930       -15.8623
  42   2.0000      -0.566052       -15.4031
  43   2.0000      -0.552827       -15.0432
  44   2.0000      -0.545606       -14.8467
  45   2.0000      -0.524069       -14.2606
  46   2.0000      -0.512554       -13.9473
  47   2.0000      -0.510183       -13.8828
  48   2.0000      -0.507778       -13.8173
  49   2.0000      -0.503700       -13.7064
  50   2.0000      -0.483565       -13.1585
  51   2.0000      -0.475268       -12.9327
  52   2.0000      -0.472570       -12.8593
  53   2.0000      -0.467302       -12.7159
  54   2.0000      -0.459715       -12.5095
  55   2.0000      -0.447965       -12.1897
  56   2.0000      -0.436509       -11.8780
  57   2.0000      -0.436090       -11.8666
  58   2.0000      -0.429408       -11.6848
  59   2.0000      -0.426021       -11.5926
  60   2.0000      -0.419322       -11.4103
  61   2.0000      -0.415935       -11.3182
  62   2.0000      -0.409027       -11.1302
  63   2.0000      -0.335171        -9.1205
  64   2.0000      -0.331833        -9.0296
  65   2.0000      -0.326491        -8.8843
  66   2.0000      -0.317225        -8.6321
  67   0.0000       0.041606         1.1322
  68   0.0000       0.049733         1.3533
  69   0.0000       0.111306         3.0288
  70   0.0000       0.121896         3.3170
  71   0.0000       0.124627         3.3913

MULLIKEN ATOMIC CHARGES
-----------------------
   0 S :    0.092796
   1 C :   -0.134308
   2 C :   -0.028585
   3 C :    0.053306
   4 C :   -0.167400
   5 H :    0.012486
   6 C :    0.035710
   7 H :    0.011239
   8 H :    0.028287
   9 C :   -0.039111
  10 H :    0.012437
  11 H :    0.029336
  12 C :   -0.044824
  13 H :    0.042770
  14 H :    0.027504
  15 H :    0.032507
  16 S :    0.099805
  17 C :   -0.092927
  18 C :   -0.066163
  19 C :   -0.026000
  20 C :   -0.191449
  21 H :    0.029978
  22 C :    0.051392
  23 H :    0.032498
  24 H :    0.044020
  25 C :   -0.078660
  26 H :    0.022464
  27 H :    0.023863
  28 C :   -0.065703
  29 H :    0.035075
  30 H :    0.044925
  31 H :    0.043333
  32 H :    0.046184
  33 H :    0.083214
Sum of atomic charges:    0.0000000

LOEWDIN ATOMIC CHARGES
----------------------
   0 S :    0.363402
   1 C :   -0.177369
   2 C :   -0.072522
   3 C :   -0.041265
   4 C :   -0.173536
   5 H :    0.028095
   6 C :   -0.024352
   7 H :    0.023754
   8 H :    0.031350
   9 C :   -0.040034
  10 H :    0.019004
  11 H :    0.024273
  12 C :   -0.064432
  13 H :    0.032482
  14 H :    0.024846
  15 H :    0.024279
  16 S :    0.417036
  17 C :   -0.207675
  18 C :   -0.078631
  19 C :   -0.064102
  20 C :   -0.197612
  21 H :    0.033719
  22 C :   -0.033684
  23 H :    0.034105
  24 H :    0.039972
  25 C :   -0.040304
  26 H :    0.019515
  27 H :    0.017583
  28 C :   -0.066956
  29 H :    0.022462
  30 H :    0.029701
  31 H :    0.027128
  32 H :    0.027397
  33 H :    0.042368

  Mayer bond orders larger than 0.100000
B(  0-S ,  1-C ) :   1.1317 B(  0-S ,  4-C ) :   1.1211 B(  1-C ,  2-C ) :   1.6660
B(  1-C , 32-H ) :   0.9613 B(  2-C ,  3-C ) :   1.2036 B(  2-C ,  6-C ) :   1.0107
B(  3-C ,  4-C ) :   1.6188 B(  3-C ,  5-H ) :   0.9909 B(  4-C , 20-C ) :   1.0004
B(  6-C ,  7-H ) :   0.9468 B(  6-C ,  8-H ) :   0.9427 B(  6-C ,  9-C ) :   1.0617
B(  9-C , 10-H ) :   0.9529 B(  9-C , 11-H ) :   0.9526 B(  9-C , 12-C ) :   1.0944
B( 12-C , 13-H ) :   0.9718 B( 12-C , 14-H ) :   0.9691 B( 12-C , 15-H ) :   0.9728
B( 16-S , 17-C ) :   1.1714 B( 16-S , 20-C ) :   1.1444 B( 17-C , 18-C ) :   1.6031
B( 17-C , 33-H ) :   0.9564 B( 18-C , 19-C ) :   1.2455 B( 18-C , 21-H ) :   0.9811
B( 19-C , 20-C ) :   1.6463 B( 19-C , 22-C ) :   1.0260 B( 22-C , 23-H ) :   0.9446
B( 22-C , 24-H ) :   0.9370 B( 22-C , 25-C ) :   1.0652 B( 25-C , 26-H ) :   0.9571
B( 25-C , 27-H ) :   0.9568 B( 25-C , 28-C ) :   1.0754 B( 28-C , 29-H ) :   0.9769
B( 28-C , 30-H ) :   0.9746 B( 28-C , 31-H ) :   0.9725

Dispersion correction           -0.014923960
FINAL SINGLE POINT ENERGY     -1339.872582030409

DIPOLE MOMENT
-------------
                                X             Y             Z
Electronic contribution:    -10.56009       5.31655      23.56537
Nuclear contribution   :     10.90279      -5.49307     -23.91770
                        -----------------------------------------
Total Dipole Moment    :      0.34270      -0.17652      -0.35233
                        -----------------------------------------
Magnitude (a.u.)       :      0.52224
Magnitude (Debye)      :      1.32744

Rotational constants in cm-1:     0.019271     0.008184     0.007232
Rotational constants in MHz :   577.716665   245.345416   216.813423

                             ****ORCA TERMINATED NORMALLY****
TOTAL RUN TIME: 0 days 0 hours 0 minutes 31 seconds 515 msec
