                         Program Version 4.2.1 -  RELEASE  -
|  1> ! wB97X-D3 SP def2-SVP
|  2> %pal
|  3> nprocs 16
|  4> end
|  5>
|  6> * xyz 0 1
|  7> S 	 -30.2351 	 69.5479 	 102.889
|  8> C 	 -28.8503 	 68.491 	 103.079
|  9> C 	 -27.9064 	 68.9813 	 103.963
| 10> C 	 -28.2473 	 70.264 	 104.479
| 11> C 	 -29.4993 	 70.6981 	 104.035
| 12> H 	 -27.6514 	 70.7145 	 105.305
| 13> C 	 -26.5501 	 68.2945 	 104.27
| 14> H 	 -26.409 	 67.4602 	 103.539
| 15> H 	 -26.6078 	 67.8692 	 105.219
| 16> C 	 -25.343 	 69.1747 	 104.12
| 17> H 	 -25.3367 	 70.0532 	 104.823
| 18> H 	 -24.4867 	 68.5894 	 104.568
| 19> C 	 -24.9929 	 69.6782 	 102.676
| 20> H 	 -24.375 	 68.9572 	 102.187
| 21> H 	 -25.7945 	 70.1245 	 102.061
| 22> H 	 -24.2075 	 70.4269 	 102.739
| 23> S 	 -31.8505 	 72.0515 	 104.437
| 24> C 	 -31.8182 	 73.6644 	 105.003
| 25> C 	 -30.5563 	 74.1952 	 105.001
| 26> C 	 -29.56 	 73.1742 	 104.717
| 27> C 	 -30.1436 	 71.9304 	 104.466
| 28> H 	 -30.3805 	 75.2663 	 105.068
| 29> C 	 -28.1504 	 73.5599 	 104.372
| 30> H 	 -27.3981 	 72.8629 	 104.693
| 31> H 	 -28.0254 	 74.364 	 105.049
| 32> C 	 -27.9597 	 73.9815 	 102.885
| 33> H 	 -26.9407 	 74.1368 	 102.598
| 34> H 	 -28.4524 	 74.8828 	 102.672
| 35> C 	 -28.4543 	 72.8595 	 101.921
| 36> H 	 -27.7795 	 71.9656 	 102.103
| 37> H 	 -28.2622 	 73.1228 	 100.921
| 38> H 	 -29.5341 	 72.7275 	 102.043
| 39> H 	 -28.7381 	 67.5011 	 102.658
| 40> H 	 -32.6447 	 74.3246 	 105.011
| 41> *
| 42>
| 43>                          ****END OF INPUT****

CARTESIAN COORDINATES (ANGSTROEM)
---------------------------------
  S    -30.235100   69.547900  102.889000
  C    -28.850300   68.491000  103.079000
  C    -27.906400   68.981300  103.963000
  C    -28.247300   70.264000  104.479000
  C    -29.499300   70.698100  104.035000
  H    -27.651400   70.714500  105.305000
  C    -26.550100   68.294500  104.270000
  H    -26.409000   67.460200  103.539000
  H    -26.607800   67.869200  105.219000
  C    -25.343000   69.174700  104.120000
  H    -25.336700   70.053200  104.823000
  H    -24.486700   68.589400  104.568000
  C    -24.992900   69.678200  102.676000
  H    -24.375000   68.957200  102.187000
  H    -25.794500   70.124500  102.061000
  H    -24.207500   70.426900  102.739000
  S    -31.850500   72.051500  104.437000
  C    -31.818200   73.664400  105.003000
  C    -30.556300   74.195200  105.001000
  C    -29.560000   73.174200  104.717000
  C    -30.143600   71.930400  104.466000
  H    -30.380500   75.266300  105.068000
  C    -28.150400   73.559900  104.372000
  H    -27.398100   72.862900  104.693000
  H    -28.025400   74.364000  105.049000
  C    -27.959700   73.981500  102.885000
  H    -26.940700   74.136800  102.598000
  H    -28.452400   74.882800  102.672000
  C    -28.454300   72.859500  101.921000
  H    -27.779500   71.965600  102.103000
  H    -28.262200   73.122800  100.921000
  H    -29.534100   72.727500  102.043000
  H    -28.738100   67.501100  102.658000
  H    -32.644700   74.324600  105.011000

 Total Charge           Charge          ....    0
 Multiplicity           Mult            ....    1
 Number of Electrons    NEL             ....  134
 Basis Dimension        Dim             ....  322

ORBITAL ENERGIES
----------------

  NO   OCC          E(Eh)            E(eV)
   0   2.0000     -88.971188     -2421.0291
   1   2.0000     -88.966532     -2420.9024
   2   2.0000     -10.333855      -281.1985
   3   2.0000     -10.323240      -280.9096
   4   2.0000     -10.311336      -280.5857
   5   2.0000     -10.309166      -280.5267
   6   2.0000     -10.301202      -280.3100
   7   2.0000     -10.298754      -280.2433
   8   2.0000     -10.297234      -280.2020
   9   2.0000     -10.295308      -280.1496
  10   2.0000     -10.294945      -280.1397
  11   2.0000     -10.292263      -280.0667
  12   2.0000     -10.283428      -279.8263
  13   2.0000     -10.279400      -279.7167
  14   2.0000     -10.278580      -279.6944
  15   2.0000     -10.267855      -279.4025
  16   2.0000      -8.084829      -219.9994
  17   2.0000      -8.082558      -219.9376
  18   2.0000      -6.043444      -164.4505
  19   2.0000      -6.040977      -164.3833
  20   2.0000      -6.039580      -164.3453
  21   2.0000      -6.036952      -164.2738
  22   2.0000      -6.035481      -164.2338
  23   2.0000      -6.033287      -164.1741
  24   2.0000      -1.010448       -27.4957
  25   2.0000      -0.983388       -26.7593
  26   2.0000      -0.909467       -24.7479
  27   2.0000      -0.907593       -24.6969
  28   2.0000      -0.869076       -23.6488
  29   2.0000      -0.847857       -23.0714
  30   2.0000      -0.840987       -22.8844
  31   2.0000      -0.813767       -22.1437
  32   2.0000      -0.787569       -21.4309
  33   2.0000      -0.773815       -21.0566
  34   2.0000      -0.708179       -19.2705
  35   2.0000      -0.696039       -18.9402
  36   2.0000      -0.691903       -18.8276
  37   2.0000      -0.661149       -17.9908
  38   2.0000      -0.629851       -17.1391
  39   2.0000      -0.624343       -16.9892
  40   2.0000      -0.595453       -16.2031
  41   2.0000      -0.566069       -15.4035
  42   2.0000      -0.559179       -15.2160
  43   2.0000      -0.552541       -15.0354
  44   2.0000      -0.547197       -14.8900
  45   2.0000      -0.536076       -14.5874
  46   2.0000      -0.511577       -13.9207
  47   2.0000      -0.501052       -13.6343
  48   2.0000      -0.498398       -13.5621
  49   2.0000      -0.489990       -13.3333
  50   2.0000      -0.488841       -13.3020
  51   2.0000      -0.475089       -12.9278
  52   2.0000      -0.470025       -12.7900
  53   2.0000      -0.464888       -12.6502
  54   2.0000      -0.458288       -12.4707
  55   2.0000      -0.452957       -12.3256
  56   2.0000      -0.446897       -12.1607
  57   2.0000      -0.437528       -11.9057
  58   2.0000      -0.434662       -11.8278
  59   2.0000      -0.424019       -11.5381
  60   2.0000      -0.421267       -11.4633
  61   2.0000      -0.408659       -11.1202
  62   2.0000      -0.407190       -11.0802
  63   2.0000      -0.356818        -9.7095
  64   2.0000      -0.335076        -9.1179
  65   2.0000      -0.327611        -8.9148
  66   2.0000      -0.281848        -7.6695
  67   0.0000       0.021168         0.5760
  68   0.0000       0.078852         2.1457
  69   0.0000       0.105686         2.8759
  70   0.0000       0.118848         3.2340
  71   0.0000       0.129858         3.5336

MULLIKEN ATOMIC CHARGES
-----------------------
   0 S :    0.113878
   1 C :   -0.126408
   2 C :   -0.100572
   3 C :   -0.023414
   4 C :   -0.108769
   5 H :    0.039825
   6 C :    0.122596
   7 H :    0.020553
   8 H :    0.025570
   9 C :   -0.129599
  10 H :    0.027686
  11 H :    0.031721
  12 C :   -0.036540
  13 H :    0.020413
  14 H :    0.066378
  15 H :    0.014416
  16 S :    0.111802
  17 C :   -0.060483
  18 C :   -0.050679
  19 C :   -0.100513
  20 C :   -0.146677
  21 H :    0.027068
  22 C :    0.105983
  23 H :    0.008678
  24 H :    0.005591
  25 C :   -0.023916
  26 H :    0.019156
  27 H :    0.008823
  28 C :   -0.060268
  29 H :    0.045526
  30 H :    0.014542
  31 H :    0.051741
  32 H :    0.042333
  33 H :    0.043561
Sum of atomic charges:   -0.0000000

LOEWDIN ATOMIC CHARGES
----------------------
   0 S :    0.391576
   1 C :   -0.203675
   2 C :   -0.062838
   3 C :   -0.070477
   4 C :   -0.170182
   5 H :    0.039130
   6 C :   -0.026819
   7 H :    0.034536
   8 H :    0.025286
   9 C :   -0.050438
  10 H :    0.021195
  11 H :    0.033029
  12 C :   -0.073613
  13 H :    0.024655
  14 H :    0.033571
  15 H :    0.028444
  16 S :    0.435851
  17 C :   -0.197492
  18 C :   -0.066284
  19 C :   -0.058877
  20 C :   -0.211104
  21 H :    0.034352
  22 C :   -0.031636
  23 H :    0.024684
  24 H :    0.025501
  25 C :   -0.025349
  26 H :    0.021453
  27 H :    0.012985
  28 C :   -0.062378
  29 H :    0.033963
  30 H :    0.014025
  31 H :    0.025804
  32 H :    0.027868
  33 H :    0.023253

  Mayer bond orders larger than 0.100000
B(  0-S ,  1-C ) :   1.1226 B(  0-S ,  4-C ) :   1.1396 B(  1-C ,  2-C ) :   1.6323
B(  1-C , 32-H ) :   0.9615 B(  2-C ,  3-C ) :   1.2547 B(  2-C ,  6-C ) :   1.0084
B(  3-C ,  4-C ) :   1.5672 B(  3-C ,  5-H ) :   0.9811 B(  4-C , 20-C ) :   1.0876
B(  6-C ,  7-H ) :   0.9436 B(  6-C ,  8-H ) :   0.9294 B(  6-C ,  9-C ) :   1.0855
B(  9-C , 10-H ) :   0.9550 B(  9-C , 11-H ) :   0.9509 B(  9-C , 12-C ) :   1.0678
B( 12-C , 13-H ) :   0.9702 B( 12-C , 14-H ) :   0.9745 B( 12-C , 15-H ) :   0.9680
B( 16-S , 17-C ) :   1.1632 B( 16-S , 20-C ) :   1.1465 B( 17-C , 18-C ) :   1.6061
B( 17-C , 33-H ) :   0.9659 B( 18-C , 19-C ) :   1.2598 B( 18-C , 21-H ) :   0.9870
B( 19-C , 20-C ) :   1.5527 B( 19-C , 22-C ) :   1.0467 B( 22-C , 23-H ) :   0.9331
B( 22-C , 24-H ) :   0.9243 B( 22-C , 25-C ) :   1.0625 B( 25-C , 26-H ) :   0.9570
B( 25-C , 27-H ) :   0.9558 B( 25-C , 28-C ) :   1.0861 B( 28-C , 29-H ) :   0.9706
B( 28-C , 30-H ) :   0.9716 B( 28-C , 31-H ) :   0.9697

Dispersion correction           -0.016949979
FINAL SINGLE POINT ENERGY     -1339.872516711712

DIPOLE MOMENT
-------------
                                X             Y             Z
Electronic contribution:    -27.04032      -3.05849       5.26836
Nuclear contribution   :     27.71058       3.27886      -5.32081
                        -----------------------------------------
Total Dipole Moment    :      0.67026       0.22037      -0.05245
                        -----------------------------------------
Magnitude (a.u.)       :      0.70750
Magnitude (Debye)      :      1.79832

Rotational constants in cm-1:     0.022067     0.009969     0.008071
Rotational constants in MHz :   661.542272   298.865293   241.949442

                             ****ORCA TERMINATED NORMALLY****
TOTAL RUN TIME: 0 days 0 hours 0 minutes 32 seconds 331 msec
