                         Program Version 4.2.1 -  RELEASE  -
|  1> ! wB97X-D3 SP def2-SVP
|  2> %pal
|  3> nprocs 16
|  4> end
|  5>
|  6> * xyz 0 1
|  7> S 	 -2.769 	 28.941 	 40.944
|  8> C 	 -1.54286 	 27.7087 	 40.8546
|  9> C 	 -0.284563 	 28.1313 	 41.1304
| 10> C 	 -0.300252 	 29.4742 	 41.5525
| 11> C 	 -1.60201 	 29.9832 	 41.6478
| 12> H 	 0.512027 	 30.0406 	 41.977
| 13> C 	 0.968628 	 27.3735 	 41.186
| 14> H 	 1.20553 	 27.2478 	 42.2301
| 15> H 	 1.75109 	 28.0174 	 40.7699
| 16> C 	 0.921068 	 25.989 	 40.5656
| 17> H 	 0.179216 	 25.4333 	 41.063
| 18> H 	 0.567835 	 26.1059 	 39.5777
| 19> C 	 2.29437 	 25.2319 	 40.6256
| 20> H 	 3.04875 	 25.6886 	 41.2779
| 21> H 	 2.09595 	 24.2494 	 41.1662
| 22> H 	 2.70306 	 25.0912 	 39.5901
| 23> S 	 -2.59957 	 31.2538 	 43.8431
| 24> C 	 -2.36854 	 32.8973 	 44.037
| 25> C 	 -1.7906 	 33.5041 	 42.9275
| 26> C 	 -1.53852 	 32.5551 	 41.845
| 27> C 	 -1.93676 	 31.258 	 42.1944
| 28> H 	 -1.37701 	 34.5444 	 42.8552
| 29> C 	 -0.780403 	 32.9189 	 40.6302
| 30> H 	 -0.431021 	 31.9591 	 40.1816
| 31> H 	 0.0696151 	 33.5567 	 40.9124
| 32> C 	 -1.63913 	 33.5654 	 39.5106
| 33> H 	 -2.00479 	 34.5173 	 39.9107
| 34> H 	 -2.61598 	 33.0757 	 39.2867
| 35> C 	 -0.799823 	 33.839 	 38.2332
| 36> H 	 -1.37821 	 34.3568 	 37.465
| 37> H 	 -0.477889 	 32.9314 	 37.8405
| 38> H 	 0.0886262 	 34.4476 	 38.3756
| 39> H 	 -1.82644 	 26.6867 	 40.5246
| 40> H 	 -2.55292 	 33.3917 	 45.0317
| 41> *
| 42>
| 43>                          ****END OF INPUT****

CARTESIAN COORDINATES (ANGSTROEM)
---------------------------------
  S     -2.769000   28.941000   40.944000
  C     -1.542860   27.708700   40.854600
  C     -0.284563   28.131300   41.130400
  C     -0.300252   29.474200   41.552500
  C     -1.602010   29.983200   41.647800
  H      0.512027   30.040600   41.977000
  C      0.968628   27.373500   41.186000
  H      1.205530   27.247800   42.230100
  H      1.751090   28.017400   40.769900
  C      0.921068   25.989000   40.565600
  H      0.179216   25.433300   41.063000
  H      0.567835   26.105900   39.577700
  C      2.294370   25.231900   40.625600
  H      3.048750   25.688600   41.277900
  H      2.095950   24.249400   41.166200
  H      2.703060   25.091200   39.590100
  S     -2.599570   31.253800   43.843100
  C     -2.368540   32.897300   44.037000
  C     -1.790600   33.504100   42.927500
  C     -1.538520   32.555100   41.845000
  C     -1.936760   31.258000   42.194400
  H     -1.377010   34.544400   42.855200
  C     -0.780403   32.918900   40.630200
  H     -0.431021   31.959100   40.181600
  H      0.069615   33.556700   40.912400
  C     -1.639130   33.565400   39.510600
  H     -2.004790   34.517300   39.910700
  H     -2.615980   33.075700   39.286700
  C     -0.799823   33.839000   38.233200
  H     -1.378210   34.356800   37.465000
  H     -0.477889   32.931400   37.840500
  H      0.088626   34.447600   38.375600
  H     -1.826440   26.686700   40.524600
  H     -2.552920   33.391700   45.031700

 Total Charge           Charge          ....    0
 Multiplicity           Mult            ....    1
 Number of Electrons    NEL             ....  134
 Basis Dimension        Dim             ....  322

ORBITAL ENERGIES
----------------

  NO   OCC          E(Eh)            E(eV)
   0   2.0000     -88.964420     -2420.8449
   1   2.0000     -88.961341     -2420.7612
   2   2.0000     -10.321046      -280.8499
   3   2.0000     -10.319103      -280.7971
   4   2.0000     -10.318446      -280.7792
   5   2.0000     -10.308961      -280.5211
   6   2.0000     -10.302704      -280.3508
   7   2.0000     -10.297464      -280.2082
   8   2.0000     -10.292265      -280.0668
   9   2.0000     -10.291219      -280.0383
  10   2.0000     -10.289587      -279.9939
  11   2.0000     -10.288642      -279.9682
  12   2.0000     -10.288130      -279.9543
  13   2.0000     -10.286270      -279.9036
  14   2.0000     -10.279783      -279.7271
  15   2.0000     -10.271534      -279.5027
  16   2.0000      -8.080150      -219.8721
  17   2.0000      -8.077529      -219.8007
  18   2.0000      -6.038401      -164.3132
  19   2.0000      -6.035838      -164.2435
  20   2.0000      -6.034672      -164.2118
  21   2.0000      -6.031770      -164.1328
  22   2.0000      -6.030997      -164.1118
  23   2.0000      -6.028461      -164.0428
  24   2.0000      -1.011060       -27.5123
  25   2.0000      -0.987995       -26.8847
  26   2.0000      -0.919433       -25.0190
  27   2.0000      -0.907891       -24.7050
  28   2.0000      -0.867267       -23.5995
  29   2.0000      -0.854433       -23.2503
  30   2.0000      -0.847333       -23.0571
  31   2.0000      -0.803980       -21.8774
  32   2.0000      -0.782939       -21.3048
  33   2.0000      -0.768946       -20.9241
  34   2.0000      -0.716600       -19.4997
  35   2.0000      -0.703075       -19.1316
  36   2.0000      -0.686135       -18.6707
  37   2.0000      -0.657345       -17.8873
  38   2.0000      -0.641458       -17.4550
  39   2.0000      -0.611120       -16.6294
  40   2.0000      -0.596281       -16.2256
  41   2.0000      -0.576066       -15.6756
  42   2.0000      -0.562773       -15.3138
  43   2.0000      -0.556403       -15.1405
  44   2.0000      -0.520619       -14.1668
  45   2.0000      -0.520070       -14.1518
  46   2.0000      -0.515133       -14.0175
  47   2.0000      -0.513590       -13.9755
  48   2.0000      -0.506982       -13.7957
  49   2.0000      -0.496871       -13.5205
  50   2.0000      -0.490205       -13.3392
  51   2.0000      -0.478188       -13.0121
  52   2.0000      -0.473355       -12.8807
  53   2.0000      -0.463134       -12.6025
  54   2.0000      -0.455346       -12.3906
  55   2.0000      -0.450801       -12.2669
  56   2.0000      -0.448568       -12.2062
  57   2.0000      -0.439819       -11.9681
  58   2.0000      -0.435972       -11.8634
  59   2.0000      -0.428727       -11.6663
  60   2.0000      -0.423597       -11.5267
  61   2.0000      -0.417981       -11.3738
  62   2.0000      -0.409679       -11.1479
  63   2.0000      -0.333419        -9.0728
  64   2.0000      -0.326931        -8.8963
  65   2.0000      -0.324664        -8.8346
  66   2.0000      -0.298870        -8.1327
  67   0.0000       0.042658         1.1608
  68   0.0000       0.062095         1.6897
  69   0.0000       0.115997         3.1564
  70   0.0000       0.117988         3.2106
  71   0.0000       0.132095         3.5945

MULLIKEN ATOMIC CHARGES
-----------------------
   0 S :    0.131614
   1 C :   -0.162524
   2 C :   -0.057478
   3 C :    0.040349
   4 C :   -0.197594
   5 H :    0.011089
   6 C :    0.065164
   7 H :    0.034248
   8 H :    0.031603
   9 C :   -0.062632
  10 H :    0.020622
  11 H :    0.019762
  12 C :   -0.067364
  13 H :    0.034471
  14 H :    0.040416
  15 H :    0.054515
  16 S :    0.117254
  17 C :   -0.105872
  18 C :   -0.046519
  19 C :   -0.030422
  20 C :   -0.172843
  21 H :    0.035666
  22 C :    0.041629
  23 H :    0.030379
  24 H :    0.034711
  25 C :   -0.087812
  26 H :    0.013248
  27 H :    0.040107
  28 C :   -0.009859
  29 H :    0.032318
  30 H :    0.015115
  31 H :    0.023167
  32 H :    0.051484
  33 H :    0.081987
Sum of atomic charges:   -0.0000000

LOEWDIN ATOMIC CHARGES
----------------------
   0 S :    0.423681
   1 C :   -0.207829
   2 C :   -0.068077
   3 C :   -0.052375
   4 C :   -0.211960
   5 H :    0.031230
   6 C :   -0.031496
   7 H :    0.035300
   8 H :    0.034545
   9 C :   -0.037443
  10 H :    0.017532
  11 H :    0.018712
  12 C :   -0.072928
  13 H :    0.024568
  14 H :    0.035854
  15 H :    0.034716
  16 S :    0.431811
  17 C :   -0.215270
  18 C :   -0.087997
  19 C :   -0.047136
  20 C :   -0.210698
  21 H :    0.037875
  22 C :   -0.037723
  23 H :    0.034303
  24 H :    0.034743
  25 C :   -0.039676
  26 H :    0.017654
  27 H :    0.031925
  28 C :   -0.061032
  29 H :    0.028356
  30 H :    0.014912
  31 H :    0.024654
  32 H :    0.027440
  33 H :    0.041829

  Mayer bond orders larger than 0.100000
B(  0-S ,  1-C ) :   1.1300 B(  0-S ,  4-C ) :   1.1736 B(  1-C ,  2-C ) :   1.6197
B(  1-C , 32-H ) :   0.9587 B(  2-C ,  3-C ) :   1.2402 B(  2-C ,  6-C ) :   1.0228
B(  3-C ,  4-C ) :   1.5653 B(  3-C ,  5-H ) :   1.0001 B(  4-C , 20-C ) :   1.0266
B(  6-C ,  7-H ) :   0.9236 B(  6-C ,  8-H ) :   0.9335 B(  6-C ,  9-C ) :   1.0890
B(  9-C , 10-H ) :   0.9502 B(  9-C , 11-H ) :   0.9624 B(  9-C , 12-C ) :   1.0594
B( 12-C , 13-H ) :   0.9792 B( 12-C , 14-H ) :   0.9786 B( 12-C , 15-H ) :   0.9785
B( 16-S , 17-C ) :   1.1954 B( 16-S , 20-C ) :   1.1412 B( 17-C , 18-C ) :   1.5687
B( 17-C , 33-H ) :   0.9589 B( 18-C , 19-C ) :   1.2526 B( 18-C , 21-H ) :   0.9820
B( 19-C , 20-C ) :   1.5860 B( 19-C , 22-C ) :   1.0608 B( 22-C , 23-H ) :   0.9303
B( 22-C , 24-H ) :   0.9335 B( 22-C , 25-C ) :   1.0565 B( 25-C , 26-H ) :   0.9548
B( 25-C , 27-H ) :   0.9569 B( 25-C , 28-C ) :   1.0775 B( 28-C , 29-H ) :   0.9739
B( 28-C , 30-H ) :   0.9759 B( 28-C , 31-H ) :   0.9735

Dispersion correction           -0.013710437
FINAL SINGLE POINT ENERGY     -1339.879779717838

DIPOLE MOMENT
-------------
                                X             Y             Z
Electronic contribution:    -19.09135       2.85964      15.32981
Nuclear contribution   :     19.73158      -2.83313     -15.39143
                        -----------------------------------------
Total Dipole Moment    :      0.64023       0.02650      -0.06162
                        -----------------------------------------
Magnitude (a.u.)       :      0.64374
Magnitude (Debye)      :      1.63625

Rotational constants in cm-1:     0.019178     0.007520     0.006370
Rotational constants in MHz :   574.929326   225.458109   190.976822

                             ****ORCA TERMINATED NORMALLY****
TOTAL RUN TIME: 0 days 0 hours 0 minutes 33 seconds 870 msec
