                         Program Version 4.2.1 -  RELEASE  -
|  1> ! wB97X-D3 SP def2-SVP
|  2> %pal
|  3> nprocs 16
|  4> end
|  5>
|  6> * xyz 0 1
|  7> S 	 -105.411 	 40.6104 	 126.876
|  8> C 	 -104.005 	 40.6245 	 125.789
|  9> C 	 -103.376 	 41.8874 	 125.754
| 10> C 	 -104.068 	 42.8898 	 126.493
| 11> C 	 -105.069 	 42.2842 	 127.265
| 12> H 	 -103.703 	 43.91 	 126.733
| 13> C 	 -102.211 	 42.2396 	 124.953
| 14> H 	 -102.226 	 43.1984 	 124.395
| 15> H 	 -102.271 	 41.5268 	 124.142
| 16> C 	 -100.885 	 42.1378 	 125.742
| 17> H 	 -100.976 	 41.3822 	 126.446
| 18> H 	 -100.166 	 41.8502 	 124.98
| 19> C 	 -100.594 	 43.4962 	 126.357
| 20> H 	 -100.736 	 44.3976 	 125.685
| 21> H 	 -101.245 	 43.6552 	 127.262
| 22> H 	 -99.5853 	 43.4538 	 126.79
| 23> S 	 -105.521 	 42.4439 	 129.976
| 24> C 	 -106.433 	 43.8439 	 130.552
| 25> C 	 -107.017 	 44.6374 	 129.54
| 26> C 	 -106.478 	 44.1738 	 128.281
| 27> C 	 -105.806 	 42.9728 	 128.329
| 28> H 	 -107.419 	 45.6037 	 129.83
| 29> C 	 -106.897 	 44.9686 	 126.996
| 30> H 	 -107.948 	 45.1002 	 126.897
| 31> H 	 -106.551 	 44.4413 	 126.111
| 32> C 	 -106.35 	 46.4499 	 126.921
| 33> H 	 -105.324 	 46.2719 	 126.876
| 34> H 	 -106.605 	 46.8752 	 127.884
| 35> C 	 -106.947 	 47.3754 	 125.898
| 36> H 	 -108.005 	 47.6939 	 126.045
| 37> H 	 -106.835 	 46.8301 	 125.001
| 38> H 	 -106.54 	 48.3044 	 125.657
| 39> H 	 -103.523 	 39.7695 	 125.295
| 40> H 	 -106.614 	 44.0925 	 131.605
| 41> *
| 42>
| 43>                          ****END OF INPUT****

CARTESIAN COORDINATES (ANGSTROEM)
---------------------------------
  S    -105.411000   40.610400  126.876000
  C    -104.005000   40.624500  125.789000
  C    -103.376000   41.887400  125.754000
  C    -104.068000   42.889800  126.493000
  C    -105.069000   42.284200  127.265000
  H    -103.703000   43.910000  126.733000
  C    -102.211000   42.239600  124.953000
  H    -102.226000   43.198400  124.395000
  H    -102.271000   41.526800  124.142000
  C    -100.885000   42.137800  125.742000
  H    -100.976000   41.382200  126.446000
  H    -100.166000   41.850200  124.980000
  C    -100.594000   43.496200  126.357000
  H    -100.736000   44.397600  125.685000
  H    -101.245000   43.655200  127.262000
  H    -99.585300   43.453800  126.790000
  S    -105.521000   42.443900  129.976000
  C    -106.433000   43.843900  130.552000
  C    -107.017000   44.637400  129.540000
  C    -106.478000   44.173800  128.281000
  C    -105.806000   42.972800  128.329000
  H    -107.419000   45.603700  129.830000
  C    -106.897000   44.968600  126.996000
  H    -107.948000   45.100200  126.897000
  H    -106.551000   44.441300  126.111000
  C    -106.350000   46.449900  126.921000
  H    -105.324000   46.271900  126.876000
  H    -106.605000   46.875200  127.884000
  C    -106.947000   47.375400  125.898000
  H    -108.005000   47.693900  126.045000
  H    -106.835000   46.830100  125.001000
  H    -106.540000   48.304400  125.657000
  H    -103.523000   39.769500  125.295000
  H    -106.614000   44.092500  131.605000

 Total Charge           Charge          ....    0
 Multiplicity           Mult            ....    1
 Number of Electrons    NEL             ....  134
 Basis Dimension        Dim             ....  322

ORBITAL ENERGIES
----------------

  NO   OCC          E(Eh)            E(eV)
   0   2.0000     -88.972950     -2421.0770
   1   2.0000     -88.970067     -2420.9986
   2   2.0000     -10.331515      -281.1348
   3   2.0000     -10.324678      -280.9488
   4   2.0000     -10.324207      -280.9360
   5   2.0000     -10.316633      -280.7299
   6   2.0000     -10.308723      -280.5146
   7   2.0000     -10.299388      -280.2606
   8   2.0000     -10.299290      -280.2579
   9   2.0000     -10.296371      -280.1785
  10   2.0000     -10.288142      -279.9546
  11   2.0000     -10.286057      -279.8978
  12   2.0000     -10.283689      -279.8334
  13   2.0000     -10.281079      -279.7624
  14   2.0000     -10.279996      -279.7329
  15   2.0000     -10.271336      -279.4973
  16   2.0000      -8.086773      -220.0523
  17   2.0000      -8.084414      -219.9881
  18   2.0000      -6.045233      -164.4992
  19   2.0000      -6.042920      -164.4362
  20   2.0000      -6.041475      -164.3969
  21   2.0000      -6.039068      -164.3314
  22   2.0000      -6.037582      -164.2910
  23   2.0000      -6.035106      -164.2236
  24   2.0000      -1.003108       -27.2959
  25   2.0000      -0.979344       -26.6493
  26   2.0000      -0.918336       -24.9892
  27   2.0000      -0.904308       -24.6075
  28   2.0000      -0.864415       -23.5219
  29   2.0000      -0.852085       -23.1864
  30   2.0000      -0.848310       -23.0837
  31   2.0000      -0.811744       -22.0887
  32   2.0000      -0.783663       -21.3246
  33   2.0000      -0.767489       -20.8844
  34   2.0000      -0.704463       -19.1694
  35   2.0000      -0.703371       -19.1397
  36   2.0000      -0.692241       -18.8368
  37   2.0000      -0.660932       -17.9849
  38   2.0000      -0.636609       -17.3230
  39   2.0000      -0.616995       -16.7893
  40   2.0000      -0.593516       -16.1504
  41   2.0000      -0.575331       -15.6556
  42   2.0000      -0.570681       -15.5290
  43   2.0000      -0.548318       -14.9205
  44   2.0000      -0.538276       -14.6472
  45   2.0000      -0.526571       -14.3287
  46   2.0000      -0.515742       -14.0341
  47   2.0000      -0.511172       -13.9097
  48   2.0000      -0.501281       -13.6405
  49   2.0000      -0.489902       -13.3309
  50   2.0000      -0.485988       -13.2244
  51   2.0000      -0.475087       -12.9278
  52   2.0000      -0.473670       -12.8892
  53   2.0000      -0.465126       -12.6567
  54   2.0000      -0.462492       -12.5850
  55   2.0000      -0.451778       -12.2935
  56   2.0000      -0.446632       -12.1535
  57   2.0000      -0.440827       -11.9955
  58   2.0000      -0.436744       -11.8844
  59   2.0000      -0.423228       -11.5166
  60   2.0000      -0.416961       -11.3461
  61   2.0000      -0.410305       -11.1650
  62   2.0000      -0.405354       -11.0302
  63   2.0000      -0.342815        -9.3285
  64   2.0000      -0.331411        -9.0182
  65   2.0000      -0.328199        -8.9307
  66   2.0000      -0.292942        -7.9713
  67   0.0000       0.032311         0.8792
  68   0.0000       0.059034         1.6064
  69   0.0000       0.108148         2.9428
  70   0.0000       0.112624         3.0647
  71   0.0000       0.116500         3.1701

MULLIKEN ATOMIC CHARGES
-----------------------
   0 S :    0.126855
   1 C :   -0.115649
   2 C :   -0.104795
   3 C :    0.036636
   4 C :   -0.183944
   5 H :    0.038340
   6 C :    0.015870
   7 H :    0.030425
   8 H :    0.008711
   9 C :   -0.003461
  10 H :    0.015896
  11 H :    0.030028
  12 C :   -0.085716
  13 H :    0.043622
  14 H :    0.040545
  15 H :    0.037759
  16 S :    0.118559
  17 C :   -0.113440
  18 C :   -0.020599
  19 C :   -0.047812
  20 C :   -0.140132
  21 H :    0.040896
  22 C :    0.059825
  23 H :    0.020573
  24 H :    0.024450
  25 C :   -0.064944
  26 H :    0.015221
  27 H :    0.014076
  28 C :   -0.012018
  29 H :    0.031802
  30 H :    0.013660
  31 H :    0.016674
  32 H :    0.050321
  33 H :    0.061765
Sum of atomic charges:    0.0000000

LOEWDIN ATOMIC CHARGES
----------------------
   0 S :    0.404507
   1 C :   -0.209974
   2 C :   -0.057354
   3 C :   -0.064641
   4 C :   -0.187569
   5 H :    0.039621
   6 C :   -0.040711
   7 H :    0.033840
   8 H :    0.026334
   9 C :   -0.027192
  10 H :    0.017362
  11 H :    0.025812
  12 C :   -0.074312
  13 H :    0.030388
  14 H :    0.030998
  15 H :    0.027421
  16 S :    0.402300
  17 C :   -0.174088
  18 C :   -0.071751
  19 C :   -0.048557
  20 C :   -0.210958
  21 H :    0.036692
  22 C :   -0.022276
  23 H :    0.023689
  24 H :    0.023442
  25 C :   -0.034566
  26 H :    0.014593
  27 H :    0.016720
  28 C :   -0.067726
  29 H :    0.033232
  30 H :    0.022207
  31 H :    0.021740
  32 H :    0.031366
  33 H :    0.029413

  Mayer bond orders larger than 0.100000
B(  0-S ,  1-C ) :   1.1155 B(  0-S ,  4-C ) :   1.1723 B(  1-C ,  2-C ) :   1.6191
B(  1-C , 32-H ) :   0.9596 B(  2-C ,  3-C ) :   1.2430 B(  2-C ,  6-C ) :   1.0395
B(  3-C ,  4-C ) :   1.5660 B(  3-C ,  5-H ) :   0.9784 B(  4-C , 20-C ) :   1.0132
B(  6-C ,  7-H ) :   0.9466 B(  6-C ,  8-H ) :   0.9352 B(  6-C ,  9-C ) :   1.0514
B(  9-C , 10-H ) :   0.9535 B(  9-C , 11-H ) :   0.9548 B(  9-C , 12-C ) :   1.0817
B( 12-C , 13-H ) :   0.9758 B( 12-C , 14-H ) :   0.9696 B( 12-C , 15-H ) :   0.9705
B( 16-S , 17-C ) :   1.1641 B( 16-S , 20-C ) :   1.1218 B( 17-C , 18-C ) :   1.6345
B( 17-C , 33-H ) :   0.9604 B( 18-C , 19-C ) :   1.2127 B( 18-C , 21-H ) :   0.9774
B( 19-C , 20-C ) :   1.6395 B( 19-C , 22-C ) :   1.0426 B( 22-C , 23-H ) :   0.9467
B( 22-C , 24-H ) :   0.9384 B( 22-C , 25-C ) :   1.0436 B( 25-C , 26-H ) :   0.9596
B( 25-C , 27-H ) :   0.9617 B( 25-C , 28-C ) :   1.0779 B( 28-C , 29-H ) :   0.9707
B( 28-C , 30-H ) :   0.9725 B( 28-C , 31-H ) :   0.9720

Dispersion correction           -0.014431416
FINAL SINGLE POINT ENERGY     -1339.845891141876

DIPOLE MOMENT
-------------
                                X             Y             Z
Electronic contribution:    -10.51680     -20.67665      14.04325
Nuclear contribution   :     10.86510      21.19063     -14.21175
                        -----------------------------------------
Total Dipole Moment    :      0.34830       0.51398      -0.16850
                        -----------------------------------------
Magnitude (a.u.)       :      0.64334
Magnitude (Debye)      :      1.63524

Rotational constants in cm-1:     0.015852     0.009209     0.007421
Rotational constants in MHz :   475.222295   276.082253   222.475373

                             ****ORCA TERMINATED NORMALLY****
TOTAL RUN TIME: 0 days 0 hours 0 minutes 34 seconds 309 msec
