                         Program Version 4.2.1 -  RELEASE  -
|  1> ! wB97X-D3 SP def2-SVP
|  2> %pal
|  3> nprocs 16
|  4> end
|  5>
|  6> * xyz 0 1
|  7> S 	 11.8203 	 21.2014 	 38.927
|  8> C 	 13.3564 	 22.0522 	 38.7314
|  9> C 	 14.2979 	 21.4821 	 39.5995
| 10> C 	 13.7984 	 20.3761 	 40.3371
| 11> C 	 12.5127 	 20.0522 	 40.0286
| 12> H 	 14.3952 	 19.8379 	 41.081
| 13> C 	 15.7368 	 21.8604 	 39.6819
| 14> H 	 15.7139 	 22.6827 	 40.3394
| 15> H 	 16.0274 	 22.3015 	 38.7311
| 16> C 	 16.7642 	 20.8161 	 40.0532
| 17> H 	 16.6412 	 20.5412 	 41.0658
| 18> H 	 16.563 	 19.9015 	 39.4621
| 19> C 	 18.2265 	 21.3165 	 39.8902
| 20> H 	 18.7547 	 20.9368 	 40.7248
| 21> H 	 18.7432 	 21.0002 	 38.9394
| 22> H 	 18.4562 	 22.4857 	 40.0216
| 23> S 	 10.5559 	 18.1457 	 39.5729
| 24> C 	 10.0153 	 17.0917 	 40.9023
| 25> C 	 10.6374 	 17.4289 	 42.1012
| 26> C 	 11.5264 	 18.5524 	 41.9405
| 27> C 	 11.6282 	 19.0308 	 40.6381
| 28> H 	 10.4443 	 16.8052 	 42.9724
| 29> C 	 12.1901 	 19.1004 	 43.1312
| 30> H 	 13.2019 	 19.4219 	 42.8795
| 31> H 	 12.4049 	 18.3589 	 43.8106
| 32> C 	 11.3326 	 20.2806 	 43.7425
| 33> H 	 10.2131 	 20.085 	 43.8277
| 34> H 	 11.5075 	 21.2281 	 43.2682
| 35> C 	 11.8186 	 20.5024 	 45.1738
| 36> H 	 11.2803 	 21.481 	 45.5378
| 37> H 	 12.8827 	 20.7298 	 45.2569
| 38> H 	 11.6536 	 19.5867 	 45.8052
| 39> H 	 13.6373 	 22.9226 	 38.0744
| 40> H 	 9.35339 	 16.2844 	 40.6787
| 41> *
| 42>
| 43>                          ****END OF INPUT****

CARTESIAN COORDINATES (ANGSTROEM)
---------------------------------
  S     11.820300   21.201400   38.927000
  C     13.356400   22.052200   38.731400
  C     14.297900   21.482100   39.599500
  C     13.798400   20.376100   40.337100
  C     12.512700   20.052200   40.028600
  H     14.395200   19.837900   41.081000
  C     15.736800   21.860400   39.681900
  H     15.713900   22.682700   40.339400
  H     16.027400   22.301500   38.731100
  C     16.764200   20.816100   40.053200
  H     16.641200   20.541200   41.065800
  H     16.563000   19.901500   39.462100
  C     18.226500   21.316500   39.890200
  H     18.754700   20.936800   40.724800
  H     18.743200   21.000200   38.939400
  H     18.456200   22.485700   40.021600
  S     10.555900   18.145700   39.572900
  C     10.015300   17.091700   40.902300
  C     10.637400   17.428900   42.101200
  C     11.526400   18.552400   41.940500
  C     11.628200   19.030800   40.638100
  H     10.444300   16.805200   42.972400
  C     12.190100   19.100400   43.131200
  H     13.201900   19.421900   42.879500
  H     12.404900   18.358900   43.810600
  C     11.332600   20.280600   43.742500
  H     10.213100   20.085000   43.827700
  H     11.507500   21.228100   43.268200
  C     11.818600   20.502400   45.173800
  H     11.280300   21.481000   45.537800
  H     12.882700   20.729800   45.256900
  H     11.653600   19.586700   45.805200
  H     13.637300   22.922600   38.074400
  H      9.353390   16.284400   40.678700

 Total Charge           Charge          ....    0
 Multiplicity           Mult            ....    1
 Number of Electrons    NEL             ....  134
 Basis Dimension        Dim             ....  322

ORBITAL ENERGIES
----------------

  NO   OCC          E(Eh)            E(eV)
   0   2.0000     -88.965946     -2420.8865
   1   2.0000     -88.962666     -2420.7972
   2   2.0000     -10.329147      -281.0704
   3   2.0000     -10.327220      -281.0179
   4   2.0000     -10.320350      -280.8310
   5   2.0000     -10.317030      -280.7407
   6   2.0000     -10.302150      -280.3358
   7   2.0000     -10.298915      -280.2477
   8   2.0000     -10.297702      -280.2147
   9   2.0000     -10.292218      -280.0655
  10   2.0000     -10.290612      -280.0218
  11   2.0000     -10.290371      -280.0152
  12   2.0000     -10.290044      -280.0063
  13   2.0000     -10.285709      -279.8884
  14   2.0000     -10.284657      -279.8597
  15   2.0000     -10.282621      -279.8043
  16   2.0000      -8.080379      -219.8783
  17   2.0000      -8.077120      -219.7896
  18   2.0000      -6.039017      -164.3300
  19   2.0000      -6.035580      -164.2365
  20   2.0000      -6.034845      -164.2165
  21   2.0000      -6.031634      -164.1291
  22   2.0000      -6.031095      -164.1144
  23   2.0000      -6.027991      -164.0300
  24   2.0000      -1.004999       -27.3474
  25   2.0000      -0.981548       -26.7093
  26   2.0000      -0.916336       -24.9348
  27   2.0000      -0.908591       -24.7240
  28   2.0000      -0.865900       -23.5623
  29   2.0000      -0.850666       -23.1478
  30   2.0000      -0.843835       -22.9619
  31   2.0000      -0.816885       -22.2286
  32   2.0000      -0.779348       -21.2071
  33   2.0000      -0.766476       -20.8569
  34   2.0000      -0.711946       -19.3730
  35   2.0000      -0.695613       -18.9286
  36   2.0000      -0.688488       -18.7347
  37   2.0000      -0.664117       -18.0715
  38   2.0000      -0.636183       -17.3114
  39   2.0000      -0.623813       -16.9748
  40   2.0000      -0.597389       -16.2558
  41   2.0000      -0.574476       -15.6323
  42   2.0000      -0.567031       -15.4297
  43   2.0000      -0.559201       -15.2166
  44   2.0000      -0.530588       -14.4380
  45   2.0000      -0.521953       -14.2031
  46   2.0000      -0.513472       -13.9723
  47   2.0000      -0.507383       -13.8066
  48   2.0000      -0.505444       -13.7538
  49   2.0000      -0.498576       -13.5670
  50   2.0000      -0.492318       -13.3967
  51   2.0000      -0.479869       -13.0579
  52   2.0000      -0.473850       -12.8941
  53   2.0000      -0.457457       -12.4480
  54   2.0000      -0.453812       -12.3489
  55   2.0000      -0.448144       -12.1946
  56   2.0000      -0.444882       -12.1058
  57   2.0000      -0.434417       -11.8211
  58   2.0000      -0.430064       -11.7026
  59   2.0000      -0.427872       -11.6430
  60   2.0000      -0.421413       -11.4672
  61   2.0000      -0.415366       -11.3027
  62   2.0000      -0.411610       -11.2005
  63   2.0000      -0.348607        -9.4861
  64   2.0000      -0.330651        -8.9975
  65   2.0000      -0.326130        -8.8745
  66   2.0000      -0.287703        -7.8288
  67   0.0000       0.028885         0.7860
  68   0.0000       0.074284         2.0214
  69   0.0000       0.109486         2.9793
  70   0.0000       0.120998         3.2925
  71   0.0000       0.139829         3.8050

MULLIKEN ATOMIC CHARGES
-----------------------
   0 S :    0.108435
   1 C :   -0.137376
   2 C :   -0.119367
   3 C :   -0.013049
   4 C :   -0.097097
   5 H :    0.021171
   6 C :    0.087933
   7 H :    0.024551
   8 H :    0.015726
   9 C :   -0.067319
  10 H :    0.022900
  11 H :    0.046374
  12 C :   -0.087160
  13 H :    0.024599
  14 H :    0.055391
  15 H :    0.044635
  16 S :    0.087088
  17 C :   -0.096975
  18 C :   -0.026476
  19 C :   -0.061952
  20 C :   -0.131401
  21 H :    0.028676
  22 C :    0.120219
  23 H :   -0.001469
  24 H :   -0.008814
  25 C :   -0.066996
  26 H :    0.053857
  27 H :    0.040310
  28 C :   -0.099792
  29 H :    0.045904
  30 H :    0.026868
  31 H :    0.040832
  32 H :    0.063697
  33 H :    0.056074
Sum of atomic charges:   -0.0000000

LOEWDIN ATOMIC CHARGES
----------------------
   0 S :    0.408846
   1 C :   -0.215919
   2 C :   -0.060308
   3 C :   -0.076270
   4 C :   -0.188435
   5 H :    0.032043
   6 C :   -0.036226
   7 H :    0.029948
   8 H :    0.030611
   9 C :   -0.039698
  10 H :    0.016401
  11 H :    0.034693
  12 C :   -0.077831
  13 H :    0.020151
  14 H :    0.033355
  15 H :    0.040081
  16 S :    0.388454
  17 C :   -0.165913
  18 C :   -0.069171
  19 C :   -0.055398
  20 C :   -0.201476
  21 H :    0.036686
  22 C :   -0.027773
  23 H :    0.029902
  24 H :    0.017585
  25 C :   -0.033861
  26 H :    0.036374
  27 H :    0.026549
  28 C :   -0.079091
  29 H :    0.035999
  30 H :    0.018468
  31 H :    0.025189
  32 H :    0.043280
  33 H :    0.022755

  Mayer bond orders larger than 0.100000
B(  0-S ,  1-C ) :   1.1210 B(  0-S ,  4-C ) :   1.1674 B(  1-C ,  2-C ) :   1.6094
B(  1-C ,  4-C ) :   0.1035 B(  1-C , 32-H ) :   0.9628 B(  2-C ,  3-C ) :   1.2602
B(  2-C ,  6-C ) :   1.0102 B(  3-C ,  4-C ) :   1.5709 B(  3-C ,  5-H ) :   0.9871
B(  4-C , 20-C ) :   1.0106 B(  6-C ,  7-H ) :   0.9135 B(  6-C ,  8-H ) :   0.9443
B(  6-C ,  9-C ) :   1.0862 B(  9-C , 10-H ) :   0.9481 B(  9-C , 11-H ) :   0.9582
B(  9-C , 12-C ) :   1.0642 B( 12-C , 13-H ) :   0.9776 B( 12-C , 14-H ) :   0.9766
B( 12-C , 15-H ) :   0.9755 B( 16-S , 17-C ) :   1.1593 B( 16-S , 20-C ) :   1.1318
B( 17-C , 18-C ) :   1.5955 B( 17-C , 33-H ) :   0.9735 B( 18-C , 19-C ) :   1.2249
B( 18-C , 21-H ) :   0.9950 B( 19-C , 20-C ) :   1.5969 B( 19-C , 22-C ) :   1.0716
B( 22-C , 23-H ) :   0.9175 B( 22-C , 24-H ) :   0.9307 B( 22-C , 25-C ) :   1.0413
B( 25-C , 26-H ) :   0.9626 B( 25-C , 27-H ) :   0.9552 B( 25-C , 28-C ) :   1.0774
B( 28-C , 29-H ) :   0.9736 B( 28-C , 30-H ) :   0.9720 B( 28-C , 31-H ) :   0.9768

Dispersion correction           -0.013811945
FINAL SINGLE POINT ENERGY     -1339.866261139081

DIPOLE MOMENT
-------------
                                X             Y             Z
Electronic contribution:    -21.41256      -7.23238     -18.10730
Nuclear contribution   :     21.98419       7.20892      18.66827
                        -----------------------------------------
Total Dipole Moment    :      0.57163      -0.02347       0.56097
                        -----------------------------------------
Magnitude (a.u.)       :      0.80125
Magnitude (Debye)      :      2.03661

Rotational constants in cm-1:     0.017319     0.008437     0.006873
Rotational constants in MHz :   519.197031   252.922814   206.034903

                             ****ORCA TERMINATED NORMALLY****
TOTAL RUN TIME: 0 days 0 hours 0 minutes 34 seconds 914 msec
