                         Program Version 4.2.1 -  RELEASE  -
|  1> ! wB97X-D3 SP def2-SVP
|  2> %pal
|  3> nprocs 16
|  4> end
|  5>
|  6> * xyz 0 1
|  7> S 	 4.23039 	 27.135 	 67.0026
|  8> C 	 3.46639 	 25.6285 	 66.5206
|  9> C 	 3.90795 	 25.2425 	 65.2468
| 10> C 	 5.0451 	 26.0867 	 64.7854
| 11> C 	 5.29943 	 27.166 	 65.6278
| 12> H 	 5.63389 	 25.8413 	 63.9456
| 13> C 	 3.22172 	 24.1411 	 64.4213
| 14> H 	 3.6646 	 24.2541 	 63.4149
| 15> H 	 2.16172 	 24.4348 	 64.2003
| 16> C 	 3.39357 	 22.6885 	 65.0575
| 17> H 	 4.44106 	 22.6109 	 65.1201
| 18> H 	 3.02085 	 22.5612 	 66.1047
| 19> C 	 2.78931 	 21.5776 	 64.2765
| 20> H 	 3.20734 	 20.6505 	 64.5546
| 21> H 	 1.70039 	 21.4955 	 64.2512
| 22> H 	 2.96556 	 21.7733 	 63.2341
| 23> S 	 5.72347 	 29.8724 	 65.6236
| 24> C 	 7.28193 	 30.458 	 65.298
| 25> C 	 8.0875 	 29.5162 	 64.7232
| 26> C 	 7.56382 	 28.1746 	 64.8623
| 27> C 	 6.28358 	 28.2447 	 65.4635
| 28> H 	 9.07344 	 29.8169 	 64.4804
| 29> C 	 8.36505 	 27.005 	 64.5275
| 30> H 	 7.88725 	 26.0139 	 64.6326
| 31> H 	 9.2088 	 26.9925 	 65.1556
| 32> C 	 8.67925 	 27.0318 	 63.024
| 33> H 	 9.21125 	 27.9458 	 62.6954
| 34> H 	 7.80345 	 26.9804 	 62.4769
| 35> C 	 9.43366 	 25.7447 	 62.6907
| 36> H 	 8.69063 	 25.0444 	 62.8451
| 37> H 	 10.185 	 25.5712 	 63.4448
| 38> H 	 9.84901 	 25.6403 	 61.6944
| 39> H 	 2.58569 	 25.2197 	 66.9717
| 40> H 	 7.55324 	 31.4621 	 65.519
| 41> *
| 42>
| 43>                          ****END OF INPUT****

CARTESIAN COORDINATES (ANGSTROEM)
---------------------------------
  S      4.230390   27.135000   67.002600
  C      3.466390   25.628500   66.520600
  C      3.907950   25.242500   65.246800
  C      5.045100   26.086700   64.785400
  C      5.299430   27.166000   65.627800
  H      5.633890   25.841300   63.945600
  C      3.221720   24.141100   64.421300
  H      3.664600   24.254100   63.414900
  H      2.161720   24.434800   64.200300
  C      3.393570   22.688500   65.057500
  H      4.441060   22.610900   65.120100
  H      3.020850   22.561200   66.104700
  C      2.789310   21.577600   64.276500
  H      3.207340   20.650500   64.554600
  H      1.700390   21.495500   64.251200
  H      2.965560   21.773300   63.234100
  S      5.723470   29.872400   65.623600
  C      7.281930   30.458000   65.298000
  C      8.087500   29.516200   64.723200
  C      7.563820   28.174600   64.862300
  C      6.283580   28.244700   65.463500
  H      9.073440   29.816900   64.480400
  C      8.365050   27.005000   64.527500
  H      7.887250   26.013900   64.632600
  H      9.208800   26.992500   65.155600
  C      8.679250   27.031800   63.024000
  H      9.211250   27.945800   62.695400
  H      7.803450   26.980400   62.476900
  C      9.433660   25.744700   62.690700
  H      8.690630   25.044400   62.845100
  H     10.185000   25.571200   63.444800
  H      9.849010   25.640300   61.694400
  H      2.585690   25.219700   66.971700
  H      7.553240   31.462100   65.519000

 Total Charge           Charge          ....    0
 Multiplicity           Mult            ....    1
 Number of Electrons    NEL             ....  134
 Basis Dimension        Dim             ....  322

ORBITAL ENERGIES
----------------

  NO   OCC          E(Eh)            E(eV)
   0   2.0000     -88.963608     -2420.8228
   1   2.0000     -88.962968     -2420.8054
   2   2.0000     -10.330545      -281.1084
   3   2.0000     -10.324745      -280.9506
   4   2.0000     -10.312248      -280.6105
   5   2.0000     -10.309385      -280.5326
   6   2.0000     -10.307867      -280.4913
   7   2.0000     -10.305114      -280.4164
   8   2.0000     -10.302929      -280.3569
   9   2.0000     -10.297634      -280.2129
  10   2.0000     -10.290351      -280.0147
  11   2.0000     -10.288794      -279.9723
  12   2.0000     -10.287638      -279.9409
  13   2.0000     -10.281853      -279.7835
  14   2.0000     -10.270566      -279.4763
  15   2.0000     -10.269735      -279.4537
  16   2.0000      -8.079428      -219.8524
  17   2.0000      -8.078274      -219.8210
  18   2.0000      -6.037775      -164.2962
  19   2.0000      -6.036871      -164.2716
  20   2.0000      -6.033808      -164.1883
  21   2.0000      -6.032640      -164.1565
  22   2.0000      -6.030150      -164.0887
  23   2.0000      -6.029102      -164.0602
  24   2.0000      -1.008870       -27.4527
  25   2.0000      -0.980941       -26.6928
  26   2.0000      -0.925595       -25.1867
  27   2.0000      -0.906784       -24.6749
  28   2.0000      -0.869131       -23.6503
  29   2.0000      -0.858733       -23.3673
  30   2.0000      -0.845046       -22.9949
  31   2.0000      -0.815121       -22.1806
  32   2.0000      -0.783170       -21.3111
  33   2.0000      -0.768860       -20.9217
  34   2.0000      -0.709171       -19.2975
  35   2.0000      -0.705867       -19.2076
  36   2.0000      -0.694812       -18.9068
  37   2.0000      -0.662591       -18.0300
  38   2.0000      -0.637986       -17.3605
  39   2.0000      -0.621441       -16.9103
  40   2.0000      -0.604945       -16.4614
  41   2.0000      -0.576145       -15.6777
  42   2.0000      -0.564843       -15.3702
  43   2.0000      -0.555444       -15.1144
  44   2.0000      -0.537000       -14.6125
  45   2.0000      -0.531723       -14.4689
  46   2.0000      -0.522201       -14.2098
  47   2.0000      -0.519232       -14.1290
  48   2.0000      -0.502697       -13.6791
  49   2.0000      -0.497914       -13.5489
  50   2.0000      -0.496285       -13.5046
  51   2.0000      -0.484924       -13.1954
  52   2.0000      -0.470009       -12.7896
  53   2.0000      -0.460881       -12.5412
  54   2.0000      -0.457466       -12.4483
  55   2.0000      -0.452132       -12.3031
  56   2.0000      -0.446469       -12.1490
  57   2.0000      -0.442568       -12.0429
  58   2.0000      -0.435173       -11.8417
  59   2.0000      -0.428524       -11.6607
  60   2.0000      -0.424138       -11.5414
  61   2.0000      -0.416054       -11.3214
  62   2.0000      -0.411661       -11.2019
  63   2.0000      -0.347858        -9.4657
  64   2.0000      -0.328256        -8.9323
  65   2.0000      -0.323896        -8.8137
  66   2.0000      -0.288726        -7.8566
  67   0.0000       0.027608         0.7513
  68   0.0000       0.076949         2.0939
  69   0.0000       0.108391         2.9495
  70   0.0000       0.122705         3.3390
  71   0.0000       0.126096         3.4312

MULLIKEN ATOMIC CHARGES
-----------------------
   0 S :    0.103797
   1 C :   -0.093132
   2 C :   -0.139102
   3 C :    0.055122
   4 C :   -0.158341
   5 H :   -0.011650
   6 C :    0.031779
   7 H :    0.019821
   8 H :    0.044890
   9 C :   -0.068271
  10 H :    0.022939
  11 H :    0.038257
  12 C :   -0.004058
  13 H :    0.028350
  14 H :    0.027127
  15 H :    0.008025
  16 S :    0.115258
  17 C :   -0.086172
  18 C :   -0.014239
  19 C :   -0.038418
  20 C :   -0.118912
  21 H :    0.007869
  22 C :    0.064613
  23 H :    0.016137
  24 H :    0.029284
  25 C :   -0.098000
  26 H :    0.036397
  27 H :    0.015087
  28 C :    0.012837
  29 H :    0.000577
  30 H :    0.019231
  31 H :    0.038325
  32 H :    0.047318
  33 H :    0.047255
Sum of atomic charges:    0.0000000

LOEWDIN ATOMIC CHARGES
----------------------
   0 S :    0.405673
   1 C :   -0.197229
   2 C :   -0.058729
   3 C :   -0.064588
   4 C :   -0.195249
   5 H :    0.019009
   6 C :   -0.038056
   7 H :    0.030496
   8 H :    0.034638
   9 C :   -0.036889
  10 H :    0.021307
  11 H :    0.030126
  12 C :   -0.065407
  13 H :    0.023257
  14 H :    0.026992
  15 H :    0.022048
  16 S :    0.430964
  17 C :   -0.188163
  18 C :   -0.065686
  19 C :   -0.046269
  20 C :   -0.210999
  21 H :    0.024918
  22 C :   -0.028958
  23 H :    0.033129
  24 H :    0.028928
  25 C :   -0.026659
  26 H :    0.021938
  27 H :    0.014552
  28 C :   -0.055150
  29 H :    0.014137
  30 H :    0.022521
  31 H :    0.026026
  32 H :    0.024974
  33 H :    0.022399

  Mayer bond orders larger than 0.100000
B(  0-S ,  1-C ) :   1.1314 B(  0-S ,  4-C ) :   1.1600 B(  1-C ,  2-C ) :   1.6197
B(  1-C , 32-H ) :   0.9697 B(  2-C ,  3-C ) :   1.2334 B(  2-C ,  6-C ) :   1.0228
B(  3-C ,  4-C ) :   1.5677 B(  3-C ,  5-H ) :   0.9943 B(  4-C , 20-C ) :   1.0269
B(  6-C ,  7-H ) :   0.9417 B(  6-C ,  8-H ) :   0.9455 B(  6-C ,  9-C ) :   1.0419
B(  9-C , 10-H ) :   0.9552 B(  9-C , 11-H ) :   0.9590 B(  9-C , 12-C ) :   1.0933
B( 12-C , 13-H ) :   0.9715 B( 12-C , 14-H ) :   0.9718 B( 12-C , 15-H ) :   0.9676
B( 16-S , 17-C ) :   1.1673 B( 16-S , 20-C ) :   1.1569 B( 17-C , 18-C ) :   1.6075
B( 17-C , 33-H ) :   0.9732 B( 18-C , 19-C ) :   1.2222 B( 18-C , 21-H ) :   0.9938
B( 19-C , 20-C ) :   1.5738 B( 19-C , 22-C ) :   1.0628 B( 22-C , 23-H ) :   0.9383
B( 22-C , 24-H ) :   0.9258 B( 22-C , 25-C ) :   1.0478 B( 25-C , 26-H ) :   0.9575
B( 25-C , 27-H ) :   0.9588 B( 25-C , 28-C ) :   1.0757 B( 28-C , 29-H ) :   0.9723
B( 28-C , 30-H ) :   0.9714 B( 28-C , 31-H ) :   0.9728

Dispersion correction           -0.013644219
FINAL SINGLE POINT ENERGY     -1339.860625604167

DIPOLE MOMENT
-------------
                                X             Y             Z
Electronic contribution:     -5.89317      26.25052      15.75035
Nuclear contribution   :      6.15563     -26.64970     -16.21107
                        -----------------------------------------
Total Dipole Moment    :      0.26247      -0.39918      -0.46073
                        -----------------------------------------
Magnitude (a.u.)       :      0.66370
Magnitude (Debye)      :      1.68699

Rotational constants in cm-1:     0.018533     0.008209     0.005973
Rotational constants in MHz :   555.612145   246.100998   179.065393

                             ****ORCA TERMINATED NORMALLY****
TOTAL RUN TIME: 0 days 0 hours 0 minutes 34 seconds 532 msec
