                         Program Version 4.2.1 -  RELEASE  -
|  1> ! wB97X-D3 SP def2-SVP
|  2> %pal
|  3> nprocs 16
|  4> end
|  5>
|  6> * xyz 0 1
|  7> S 	 -8.80886 	 76.2525 	 45.4807
|  8> C 	 -8.20833 	 77.6805 	 46.3886
|  9> C 	 -7.04441 	 77.4412 	 47.0586
| 10> C 	 -6.71252 	 76.0144 	 46.9862
| 11> C 	 -7.58649 	 75.2714 	 46.263
| 12> H 	 -5.79519 	 75.6765 	 47.5265
| 13> C 	 -6.20139 	 78.4539 	 47.7694
| 14> H 	 -6.05461 	 79.297 	 47.0473
| 15> H 	 -5.20928 	 77.9754 	 47.9254
| 16> C 	 -6.87904 	 78.9794 	 49.0674
| 17> H 	 -7.77855 	 79.4402 	 48.9186
| 18> H 	 -7.12538 	 78.1533 	 49.7062
| 19> C 	 -6.06612 	 80.074 	 49.7963
| 20> H 	 -5.83797 	 80.9542 	 49.1756
| 21> H 	 -6.68906 	 80.5091 	 50.5558
| 22> H 	 -5.16463 	 79.7055 	 50.2235
| 23> S 	 -7.42194 	 72.5347 	 46.9281
| 24> C 	 -7.09882 	 71.4235 	 45.7123
| 25> C 	 -6.72159 	 72.0322 	 44.538
| 26> C 	 -6.93214 	 73.4679 	 44.5457
| 27> C 	 -7.35902 	 73.9151 	 45.798
| 28> H 	 -6.33743 	 71.3951 	 43.7521
| 29> C 	 -6.41743 	 74.3303 	 43.4137
| 30> H 	 -5.89761 	 75.0959 	 43.9298
| 31> H 	 -7.24878 	 74.926 	 43.0838
| 32> C 	 -5.62097 	 73.6949 	 42.23
| 33> H 	 -6.24578 	 72.8675 	 41.8459
| 34> H 	 -4.68793 	 73.2693 	 42.5527
| 35> C 	 -5.4128 	 74.521 	 40.9437
| 36> H 	 -5.02867 	 73.8944 	 40.1341
| 37> H 	 -4.93848 	 75.5142 	 40.9768
| 38> H 	 -6.4936 	 74.769 	 40.6803
| 39> H 	 -8.23575 	 78.7291 	 45.9975
| 40> H 	 -6.94369 	 70.3737 	 45.9667
| 41> *
| 42>
| 43>                          ****END OF INPUT****

CARTESIAN COORDINATES (ANGSTROEM)
---------------------------------
  S     -8.808860   76.252500   45.480700
  C     -8.208330   77.680500   46.388600
  C     -7.044410   77.441200   47.058600
  C     -6.712520   76.014400   46.986200
  C     -7.586490   75.271400   46.263000
  H     -5.795190   75.676500   47.526500
  C     -6.201390   78.453900   47.769400
  H     -6.054610   79.297000   47.047300
  H     -5.209280   77.975400   47.925400
  C     -6.879040   78.979400   49.067400
  H     -7.778550   79.440200   48.918600
  H     -7.125380   78.153300   49.706200
  C     -6.066120   80.074000   49.796300
  H     -5.837970   80.954200   49.175600
  H     -6.689060   80.509100   50.555800
  H     -5.164630   79.705500   50.223500
  S     -7.421940   72.534700   46.928100
  C     -7.098820   71.423500   45.712300
  C     -6.721590   72.032200   44.538000
  C     -6.932140   73.467900   44.545700
  C     -7.359020   73.915100   45.798000
  H     -6.337430   71.395100   43.752100
  C     -6.417430   74.330300   43.413700
  H     -5.897610   75.095900   43.929800
  H     -7.248780   74.926000   43.083800
  C     -5.620970   73.694900   42.230000
  H     -6.245780   72.867500   41.845900
  H     -4.687930   73.269300   42.552700
  C     -5.412800   74.521000   40.943700
  H     -5.028670   73.894400   40.134100
  H     -4.938480   75.514200   40.976800
  H     -6.493600   74.769000   40.680300
  H     -8.235750   78.729100   45.997500
  H     -6.943690   70.373700   45.966700

 Total Charge           Charge          ....    0
 Multiplicity           Mult            ....    1
 Number of Electrons    NEL             ....  134
 Basis Dimension        Dim             ....  322

ORBITAL ENERGIES
----------------

  NO   OCC          E(Eh)            E(eV)
   0   2.0000     -88.967531     -2420.9296
   1   2.0000     -88.961176     -2420.7567
   2   2.0000     -10.329556      -281.0815
   3   2.0000     -10.324497      -280.9439
   4   2.0000     -10.311867      -280.6002
   5   2.0000     -10.311287      -280.5844
   6   2.0000     -10.308077      -280.4970
   7   2.0000     -10.302262      -280.3388
   8   2.0000     -10.301035      -280.3054
   9   2.0000     -10.298867      -280.2464
  10   2.0000     -10.293502      -280.1004
  11   2.0000     -10.290877      -280.0290
  12   2.0000     -10.287561      -279.9388
  13   2.0000     -10.286837      -279.9191
  14   2.0000     -10.282668      -279.8056
  15   2.0000     -10.275740      -279.6171
  16   2.0000      -8.081368      -219.9052
  17   2.0000      -8.076996      -219.7862
  18   2.0000      -6.040101      -164.3595
  19   2.0000      -6.036125      -164.2513
  20   2.0000      -6.035372      -164.2308
  21   2.0000      -6.031802      -164.1337
  22   2.0000      -6.031337      -164.1210
  23   2.0000      -6.027860      -164.0264
  24   2.0000      -1.005920       -27.3725
  25   2.0000      -0.983918       -26.7738
  26   2.0000      -0.914277       -24.8787
  27   2.0000      -0.906158       -24.6578
  28   2.0000      -0.871120       -23.7044
  29   2.0000      -0.850497       -23.1432
  30   2.0000      -0.846436       -23.0327
  31   2.0000      -0.812269       -22.1030
  32   2.0000      -0.786257       -21.3951
  33   2.0000      -0.772557       -21.0223
  34   2.0000      -0.712156       -19.3788
  35   2.0000      -0.707227       -19.2446
  36   2.0000      -0.698301       -19.0017
  37   2.0000      -0.648538       -17.6476
  38   2.0000      -0.626901       -17.0589
  39   2.0000      -0.619586       -16.8598
  40   2.0000      -0.597893       -16.2695
  41   2.0000      -0.571388       -15.5483
  42   2.0000      -0.564359       -15.3570
  43   2.0000      -0.557522       -15.1709
  44   2.0000      -0.533119       -14.5069
  45   2.0000      -0.526413       -14.3244
  46   2.0000      -0.520059       -14.1515
  47   2.0000      -0.512212       -13.9380
  48   2.0000      -0.500170       -13.6103
  49   2.0000      -0.497003       -13.5241
  50   2.0000      -0.480696       -13.0804
  51   2.0000      -0.477481       -12.9929
  52   2.0000      -0.469752       -12.7826
  53   2.0000      -0.462790       -12.5932
  54   2.0000      -0.458245       -12.4695
  55   2.0000      -0.452112       -12.3026
  56   2.0000      -0.450105       -12.2480
  57   2.0000      -0.439589       -11.9618
  58   2.0000      -0.431357       -11.7378
  59   2.0000      -0.427225       -11.6254
  60   2.0000      -0.422663       -11.5012
  61   2.0000      -0.419638       -11.4189
  62   2.0000      -0.416730       -11.3398
  63   2.0000      -0.337002        -9.1703
  64   2.0000      -0.327718        -8.9177
  65   2.0000      -0.325359        -8.8535
  66   2.0000      -0.302617        -8.2346
  67   0.0000       0.031250         0.8503
  68   0.0000       0.063920         1.7394
  69   0.0000       0.099041         2.6950
  70   0.0000       0.118998         3.2381
  71   0.0000       0.128531         3.4975

MULLIKEN ATOMIC CHARGES
-----------------------
   0 S :    0.098229
   1 C :   -0.105710
   2 C :   -0.155211
   3 C :    0.036410
   4 C :   -0.145659
   5 H :    0.027551
   6 C :    0.054123
   7 H :    0.034394
   8 H :    0.028556
   9 C :   -0.032425
  10 H :    0.008842
  11 H :    0.027508
  12 C :   -0.034247
  13 H :    0.026127
  14 H :    0.025273
  15 H :    0.028275
  16 S :    0.112780
  17 C :   -0.085117
  18 C :   -0.069168
  19 C :   -0.036958
  20 C :   -0.190072
  21 H :    0.022675
  22 C :    0.130904
  23 H :    0.015731
  24 H :    0.005161
  25 C :   -0.074339
  26 H :    0.038548
  27 H :    0.032312
  28 C :   -0.068668
  29 H :    0.044989
  30 H :    0.044367
  31 H :    0.027217
  32 H :    0.064040
  33 H :    0.063561
Sum of atomic charges:    0.0000000

LOEWDIN ATOMIC CHARGES
----------------------
   0 S :    0.389314
   1 C :   -0.209769
   2 C :   -0.059702
   3 C :   -0.063422
   4 C :   -0.192158
   5 H :    0.037937
   6 C :   -0.033100
   7 H :    0.036189
   8 H :    0.033720
   9 C :   -0.027402
  10 H :    0.015420
  11 H :    0.026536
  12 C :   -0.061087
  13 H :    0.027135
  14 H :    0.025704
  15 H :    0.017917
  16 S :    0.421832
  17 C :   -0.204623
  18 C :   -0.083359
  19 C :   -0.041901
  20 C :   -0.207408
  21 H :    0.031085
  22 C :   -0.036724
  23 H :    0.031746
  24 H :    0.029181
  25 C :   -0.039904
  26 H :    0.031080
  27 H :    0.018849
  28 C :   -0.071037
  29 H :    0.030189
  30 H :    0.024821
  31 H :    0.031809
  32 H :    0.039471
  33 H :    0.031665

  Mayer bond orders larger than 0.100000
B(  0-S ,  1-C ) :   1.1076 B(  0-S ,  4-C ) :   1.1362 B(  1-C ,  2-C ) :   1.6734
B(  1-C , 32-H ) :   0.9431 B(  2-C ,  3-C ) :   1.2247 B(  2-C ,  6-C ) :   1.0278
B(  3-C ,  4-C ) :   1.5997 B(  3-C ,  5-H ) :   0.9855 B(  4-C , 20-C ) :   1.0244
B(  6-C ,  7-H ) :   0.9338 B(  6-C ,  8-H ) :   0.9416 B(  6-C ,  9-C ) :   1.0585
B(  9-C , 10-H ) :   0.9551 B(  9-C , 11-H ) :   0.9546 B(  9-C , 12-C ) :   1.0877
B( 12-C , 13-H ) :   0.9729 B( 12-C , 14-H ) :   0.9740 B( 12-C , 15-H ) :   0.9781
B( 16-S , 17-C ) :   1.1901 B( 16-S , 20-C ) :   1.1396 B( 17-C , 18-C ) :   1.5874
B( 17-C , 33-H ) :   0.9602 B( 18-C , 19-C ) :   1.2491 B( 18-C , 21-H ) :   0.9894
B( 19-C , 20-C ) :   1.5829 B( 19-C , 22-C ) :   1.0290 B( 22-C , 23-H ) :   0.9177
B( 22-C , 24-H ) :   0.9080 B( 22-C , 25-C ) :   1.0686 B( 25-C , 26-H ) :   0.9515
B( 25-C , 27-H ) :   0.9538 B( 25-C , 28-C ) :   1.0742 B( 28-C , 29-H ) :   0.9739
B( 28-C , 30-H ) :   0.9776 B( 28-C , 31-H ) :   0.9755

Dispersion correction           -0.013678183
FINAL SINGLE POINT ENERGY     -1339.859026400658

DIPOLE MOMENT
-------------
                                X             Y             Z
Electronic contribution:    -13.57930     -16.08783       4.86331
Nuclear contribution   :     14.28940      16.38018      -5.04093
                        -----------------------------------------
Total Dipole Moment    :      0.71010       0.29235      -0.17762
                        -----------------------------------------
Magnitude (a.u.)       :      0.78820
Magnitude (Debye)      :      2.00344

Rotational constants in cm-1:     0.019866     0.007070     0.006002
Rotational constants in MHz :   595.566181   211.965391   179.948734

                             ****ORCA TERMINATED NORMALLY****
TOTAL RUN TIME: 0 days 0 hours 0 minutes 32 seconds 210 msec
