                         Program Version 4.2.1 -  RELEASE  -
|  1> ! wB97X-D3 SP def2-SVP
|  2> %pal
|  3> nprocs 16
|  4> end
|  5>
|  6> * xyz 0 1
|  7> S 	 -119.278 	 47.3217 	 131.267
|  8> C 	 -119.066 	 47.6889 	 132.91
|  9> C 	 -118.698 	 46.5077 	 133.591
| 10> C 	 -118.525 	 45.3869 	 132.701
| 11> C 	 -118.75 	 45.7132 	 131.388
| 12> H 	 -118.172 	 44.4043 	 132.989
| 13> C 	 -118.443 	 46.3795 	 135.072
| 14> H 	 -119.375 	 45.9817 	 135.542
| 15> H 	 -118.274 	 47.345 	 135.567
| 16> C 	 -117.254 	 45.5059 	 135.604
| 17> H 	 -117.394 	 45.3977 	 136.665
| 18> H 	 -117.226 	 44.511 	 135.133
| 19> C 	 -115.853 	 46.2039 	 135.408
| 20> H 	 -115.608 	 46.1026 	 134.377
| 21> H 	 -115.931 	 47.287 	 135.59
| 22> H 	 -115.039 	 45.865 	 136.011
| 23> S 	 -120.084 	 44.62 	 129.201
| 24> C 	 -119.201 	 43.6403 	 128.079
| 25> C 	 -117.863 	 43.4389 	 128.507
| 26> C 	 -117.6 	 44.0187 	 129.787
| 27> C 	 -118.623 	 44.8761 	 130.192
| 28> H 	 -117.249 	 42.8862 	 127.793
| 29> C 	 -116.29 	 43.8183 	 130.431
| 30> H 	 -116.021 	 42.732 	 130.253
| 31> H 	 -116.439 	 43.8922 	 131.546
| 32> C 	 -115.033 	 44.5434 	 129.879
| 33> H 	 -114.575 	 44.0606 	 129.026
| 34> H 	 -114.238 	 44.3961 	 130.638
| 35> C 	 -115.203 	 46.0171 	 129.716
| 36> H 	 -116.075 	 46.3164 	 129.144
| 37> H 	 -114.295 	 46.512 	 129.399
| 38> H 	 -115.49 	 46.3343 	 130.75
| 39> H 	 -119.071 	 48.6515 	 133.329
| 40> H 	 -119.551 	 43.3146 	 127.123
| 41> *
| 42>
| 43>                          ****END OF INPUT****

CARTESIAN COORDINATES (ANGSTROEM)
---------------------------------
  S    -119.278000   47.321700  131.267000
  C    -119.066000   47.688900  132.910000
  C    -118.698000   46.507700  133.591000
  C    -118.525000   45.386900  132.701000
  C    -118.750000   45.713200  131.388000
  H    -118.172000   44.404300  132.989000
  C    -118.443000   46.379500  135.072000
  H    -119.375000   45.981700  135.542000
  H    -118.274000   47.345000  135.567000
  C    -117.254000   45.505900  135.604000
  H    -117.394000   45.397700  136.665000
  H    -117.226000   44.511000  135.133000
  C    -115.853000   46.203900  135.408000
  H    -115.608000   46.102600  134.377000
  H    -115.931000   47.287000  135.590000
  H    -115.039000   45.865000  136.011000
  S    -120.084000   44.620000  129.201000
  C    -119.201000   43.640300  128.079000
  C    -117.863000   43.438900  128.507000
  C    -117.600000   44.018700  129.787000
  C    -118.623000   44.876100  130.192000
  H    -117.249000   42.886200  127.793000
  C    -116.290000   43.818300  130.431000
  H    -116.021000   42.732000  130.253000
  H    -116.439000   43.892200  131.546000
  C    -115.033000   44.543400  129.879000
  H    -114.575000   44.060600  129.026000
  H    -114.238000   44.396100  130.638000
  C    -115.203000   46.017100  129.716000
  H    -116.075000   46.316400  129.144000
  H    -114.295000   46.512000  129.399000
  H    -115.490000   46.334300  130.750000
  H    -119.071000   48.651500  133.329000
  H    -119.551000   43.314600  127.123000

 Total Charge           Charge          ....    0
 Multiplicity           Mult            ....    1
 Number of Electrons    NEL             ....  134
 Basis Dimension        Dim             ....  322

ORBITAL ENERGIES
----------------

  NO   OCC          E(Eh)            E(eV)
   0   2.0000     -88.966848     -2420.9110
   1   2.0000     -88.965766     -2420.8816
   2   2.0000     -10.330507      -281.1074
   3   2.0000     -10.325928      -280.9828
   4   2.0000     -10.317145      -280.7438
   5   2.0000     -10.311086      -280.5789
   6   2.0000     -10.306361      -280.4503
   7   2.0000     -10.305848      -280.4364
   8   2.0000     -10.297551      -280.2106
   9   2.0000     -10.297348      -280.2051
  10   2.0000     -10.297205      -280.2012
  11   2.0000     -10.294182      -280.1189
  12   2.0000     -10.292756      -280.0801
  13   2.0000     -10.285335      -279.8782
  14   2.0000     -10.274317      -279.5784
  15   2.0000     -10.268850      -279.4296
  16   2.0000      -8.082280      -219.9300
  17   2.0000      -8.081232      -219.9015
  18   2.0000      -6.040623      -164.3737
  19   2.0000      -6.039757      -164.3501
  20   2.0000      -6.036267      -164.2552
  21   2.0000      -6.035716      -164.2402
  22   2.0000      -6.033366      -164.1762
  23   2.0000      -6.032079      -164.1412
  24   2.0000      -1.013186       -27.5702
  25   2.0000      -0.985869       -26.8269
  26   2.0000      -0.911248       -24.7963
  27   2.0000      -0.905957       -24.6523
  28   2.0000      -0.868673       -23.6378
  29   2.0000      -0.853432       -23.2231
  30   2.0000      -0.845635       -23.0109
  31   2.0000      -0.813117       -22.1260
  32   2.0000      -0.782988       -21.3062
  33   2.0000      -0.772879       -21.0311
  34   2.0000      -0.710894       -19.3444
  35   2.0000      -0.698071       -18.9955
  36   2.0000      -0.692488       -18.8436
  37   2.0000      -0.656234       -17.8570
  38   2.0000      -0.644601       -17.5405
  39   2.0000      -0.626297       -17.0424
  40   2.0000      -0.590134       -16.0584
  41   2.0000      -0.569831       -15.5059
  42   2.0000      -0.554672       -15.0934
  43   2.0000      -0.549056       -14.9406
  44   2.0000      -0.544108       -14.8059
  45   2.0000      -0.538056       -14.6412
  46   2.0000      -0.518335       -14.1046
  47   2.0000      -0.514178       -13.9915
  48   2.0000      -0.503625       -13.7043
  49   2.0000      -0.501573       -13.6485
  50   2.0000      -0.492871       -13.4117
  51   2.0000      -0.478816       -13.0292
  52   2.0000      -0.471158       -12.8209
  53   2.0000      -0.462897       -12.5961
  54   2.0000      -0.452620       -12.3164
  55   2.0000      -0.448429       -12.2024
  56   2.0000      -0.445229       -12.1153
  57   2.0000      -0.438848       -11.9417
  58   2.0000      -0.434173       -11.8145
  59   2.0000      -0.425747       -11.5852
  60   2.0000      -0.421870       -11.4797
  61   2.0000      -0.413662       -11.2563
  62   2.0000      -0.402778       -10.9602
  63   2.0000      -0.346371        -9.4252
  64   2.0000      -0.330468        -8.9925
  65   2.0000      -0.326494        -8.8844
  66   2.0000      -0.292780        -7.9669
  67   0.0000       0.032265         0.8780
  68   0.0000       0.065795         1.7904
  69   0.0000       0.105123         2.8605
  70   0.0000       0.121585         3.3085
  71   0.0000       0.127831         3.4785

MULLIKEN ATOMIC CHARGES
-----------------------
   0 S :    0.129344
   1 C :   -0.096064
   2 C :   -0.089079
   3 C :    0.032216
   4 C :   -0.167891
   5 H :    0.012929
   6 C :    0.025721
   7 H :    0.051338
   8 H :    0.019796
   9 C :   -0.083557
  10 H :    0.030106
  11 H :    0.035818
  12 C :   -0.047865
  13 H :    0.029075
  14 H :    0.022030
  15 H :    0.035626
  16 S :    0.111456
  17 C :   -0.092294
  18 C :   -0.054902
  19 C :   -0.016543
  20 C :   -0.140874
  21 H :    0.026901
  22 C :    0.020095
  23 H :    0.035954
  24 H :    0.027964
  25 C :   -0.052892
  26 H :    0.019649
  27 H :    0.025270
  28 C :   -0.040476
  29 H :    0.043062
  30 H :    0.037484
  31 H :    0.024347
  32 H :    0.036034
  33 H :    0.050221
Sum of atomic charges:   -0.0000000

LOEWDIN ATOMIC CHARGES
----------------------
   0 S :    0.459258
   1 C :   -0.212740
   2 C :   -0.060933
   3 C :   -0.067528
   4 C :   -0.215649
   5 H :    0.028428
   6 C :   -0.039138
   7 H :    0.040916
   8 H :    0.029161
   9 C :   -0.036090
  10 H :    0.023002
  11 H :    0.021533
  12 C :   -0.065430
  13 H :    0.021453
  14 H :    0.024961
  15 H :    0.022375
  16 S :    0.402864
  17 C :   -0.189598
  18 C :   -0.069245
  19 C :   -0.059253
  20 C :   -0.192627
  21 H :    0.035062
  22 C :   -0.043583
  23 H :    0.044020
  24 H :    0.033801
  25 C :   -0.042935
  26 H :    0.017252
  27 H :    0.030374
  28 C :   -0.068180
  29 H :    0.025216
  30 H :    0.025191
  31 H :    0.031581
  32 H :    0.022196
  33 H :    0.024284

  Mayer bond orders larger than 0.100000
B(  0-S ,  1-C ) :   1.1618 B(  0-S ,  4-C ) :   1.1938 B(  1-C ,  2-C ) :   1.5585
B(  1-C , 32-H ) :   0.9815 B(  2-C ,  3-C ) :   1.2632 B(  2-C ,  6-C ) :   1.0269
B(  3-C ,  4-C ) :   1.5462 B(  3-C ,  5-H ) :   0.9934 B(  4-C , 20-C ) :   1.0120
B(  6-C ,  7-H ) :   0.9346 B(  6-C ,  8-H ) :   0.9471 B(  6-C ,  9-C ) :   1.0760
B(  9-C , 10-H ) :   0.9563 B(  9-C , 11-H ) :   0.9573 B(  9-C , 12-C ) :   1.0625
B( 12-C , 13-H ) :   0.9795 B( 12-C , 14-H ) :   0.9758 B( 12-C , 15-H ) :   0.9787
B( 16-S , 17-C ) :   1.1617 B( 16-S , 20-C ) :   1.1436 B( 17-C , 18-C ) :   1.6115
B( 17-C , 20-C ) :   0.1071 B( 17-C , 33-H ) :   0.9687 B( 18-C , 19-C ) :   1.2110
B( 18-C , 21-H ) :   0.9928 B( 19-C , 20-C ) :   1.5795 B( 19-C , 22-C ) :   1.0709
B( 22-C , 23-H ) :   0.9257 B( 22-C , 24-H ) :   0.9320 B( 22-C , 25-C ) :   1.0683
B( 25-C , 26-H ) :   0.9540 B( 25-C , 27-H ) :   0.9501 B( 25-C , 28-C ) :   1.0799
B( 28-C , 29-H ) :   0.9724 B( 28-C , 30-H ) :   0.9723 B( 28-C , 31-H ) :   0.9719

Dispersion correction           -0.015413674
FINAL SINGLE POINT ENERGY     -1339.880669681564

DIPOLE MOMENT
-------------
                                X             Y             Z
Electronic contribution:    -23.15843       1.84292     -15.47849
Nuclear contribution   :     23.69275      -2.04364      15.77768
                        -----------------------------------------
Total Dipole Moment    :      0.53432      -0.20072       0.29919
                        -----------------------------------------
Magnitude (a.u.)       :      0.64444
Magnitude (Debye)      :      1.63804

Rotational constants in cm-1:     0.019353     0.009526     0.007641
Rotational constants in MHz :   580.182330   285.595699   229.067763

                             ****ORCA TERMINATED NORMALLY****
TOTAL RUN TIME: 0 days 0 hours 0 minutes 33 seconds 693 msec
