                         Program Version 4.2.1 -  RELEASE  -
|  1> ! wB97X-D3 SP def2-SVP
|  2> %pal
|  3> nprocs 16
|  4> end
|  5>
|  6> * xyz 0 1
|  7> S 	 8.02374 	 -5.96058 	 87.1216
|  8> C 	 8.19054 	 -4.24514 	 86.6742
|  9> C 	 7.24847 	 -3.4811 	 87.2825
| 10> C 	 6.23458 	 -4.33997 	 87.9245
| 11> C 	 6.46146 	 -5.68927 	 87.9416
| 12> H 	 5.32534 	 -4.04223 	 88.3313
| 13> C 	 7.10553 	 -1.94661 	 87.2609
| 14> H 	 6.06421 	 -1.69731 	 87.0883
| 15> H 	 7.70506 	 -1.49248 	 86.5129
| 16> C 	 7.47602 	 -1.2392 	 88.471
| 17> H 	 6.93838 	 -0.227867 	 88.5159
| 18> H 	 7.17509 	 -1.86766 	 89.372
| 19> C 	 9.01581 	 -1.1037 	 88.6546
| 20> H 	 9.24928 	 -0.829441 	 89.6715
| 21> H 	 9.58556 	 -2.01264 	 88.4636
| 22> H 	 9.3572 	 -0.378085 	 88.0225
| 23> S 	 5.04287 	 -7.98194 	 87.305
| 24> C 	 4.38383 	 -8.87205 	 88.6574
| 25> C 	 4.54433 	 -8.22172 	 89.86
| 26> C 	 5.1438 	 -6.92134 	 89.7864
| 27> C 	 5.61584 	 -6.75506 	 88.5053
| 28> H 	 4.13479 	 -8.62757 	 90.7893
| 29> C 	 5.19843 	 -6.00084 	 91.0233
| 30> H 	 4.21321 	 -6.18883 	 91.5316
| 31> H 	 5.25742 	 -4.96966 	 90.6225
| 32> C 	 6.22693 	 -6.32168 	 92.2148
| 33> H 	 7.25469 	 -6.3139 	 91.7903
| 34> H 	 5.99512 	 -7.28849 	 92.5989
| 35> C 	 6.15185 	 -5.34051 	 93.3534
| 36> H 	 6.04658 	 -4.28621 	 93.0196
| 37> H 	 7.02339 	 -5.46276 	 94.0298
| 38> H 	 5.18235 	 -5.54717 	 93.7832
| 39> H 	 9.06223 	 -3.92202 	 86.2373
| 40> H 	 3.94353 	 -9.90196 	 88.6124
| 41> *
| 42>
| 43>                          ****END OF INPUT****

CARTESIAN COORDINATES (ANGSTROEM)
---------------------------------
  S      8.023740   -5.960580   87.121600
  C      8.190540   -4.245140   86.674200
  C      7.248470   -3.481100   87.282500
  C      6.234580   -4.339970   87.924500
  C      6.461460   -5.689270   87.941600
  H      5.325340   -4.042230   88.331300
  C      7.105530   -1.946610   87.260900
  H      6.064210   -1.697310   87.088300
  H      7.705060   -1.492480   86.512900
  C      7.476020   -1.239200   88.471000
  H      6.938380   -0.227867   88.515900
  H      7.175090   -1.867660   89.372000
  C      9.015810   -1.103700   88.654600
  H      9.249280   -0.829441   89.671500
  H      9.585560   -2.012640   88.463600
  H      9.357200   -0.378085   88.022500
  S      5.042870   -7.981940   87.305000
  C      4.383830   -8.872050   88.657400
  C      4.544330   -8.221720   89.860000
  C      5.143800   -6.921340   89.786400
  C      5.615840   -6.755060   88.505300
  H      4.134790   -8.627570   90.789300
  C      5.198430   -6.000840   91.023300
  H      4.213210   -6.188830   91.531600
  H      5.257420   -4.969660   90.622500
  C      6.226930   -6.321680   92.214800
  H      7.254690   -6.313900   91.790300
  H      5.995120   -7.288490   92.598900
  C      6.151850   -5.340510   93.353400
  H      6.046580   -4.286210   93.019600
  H      7.023390   -5.462760   94.029800
  H      5.182350   -5.547170   93.783200
  H      9.062230   -3.922020   86.237300
  H      3.943530   -9.901960   88.612400

 Total Charge           Charge          ....    0
 Multiplicity           Mult            ....    1
 Number of Electrons    NEL             ....  134
 Basis Dimension        Dim             ....  322

ORBITAL ENERGIES
----------------

  NO   OCC          E(Eh)            E(eV)
   0   2.0000     -88.968708     -2420.9616
   1   2.0000     -88.958419     -2420.6816
   2   2.0000     -10.332482      -281.1611
   3   2.0000     -10.329575      -281.0820
   4   2.0000     -10.320994      -280.8485
   5   2.0000     -10.311160      -280.5809
   6   2.0000     -10.309939      -280.5477
   7   2.0000     -10.309052      -280.5236
   8   2.0000     -10.306916      -280.4654
   9   2.0000     -10.293998      -280.1139
  10   2.0000     -10.291809      -280.0544
  11   2.0000     -10.290953      -280.0311
  12   2.0000     -10.290456      -280.0176
  13   2.0000     -10.286234      -279.9027
  14   2.0000     -10.282454      -279.7998
  15   2.0000     -10.267981      -279.4060
  16   2.0000      -8.082682      -219.9409
  17   2.0000      -8.072640      -219.6677
  18   2.0000      -6.041249      -164.3907
  19   2.0000      -6.037536      -164.2897
  20   2.0000      -6.033160      -164.1706
  21   2.0000      -6.031331      -164.1209
  22   2.0000      -6.027301      -164.0112
  23   2.0000      -6.023145      -163.8981
  24   2.0000      -1.000028       -27.2121
  25   2.0000      -0.979108       -26.6429
  26   2.0000      -0.919811       -25.0293
  27   2.0000      -0.905333       -24.6354
  28   2.0000      -0.868480       -23.6325
  29   2.0000      -0.857492       -23.3335
  30   2.0000      -0.836835       -22.7714
  31   2.0000      -0.811964       -22.0947
  32   2.0000      -0.788692       -21.4614
  33   2.0000      -0.777652       -21.1610
  34   2.0000      -0.704008       -19.1570
  35   2.0000      -0.692235       -18.8367
  36   2.0000      -0.689773       -18.7697
  37   2.0000      -0.658611       -17.9217
  38   2.0000      -0.650442       -17.6994
  39   2.0000      -0.619003       -16.8439
  40   2.0000      -0.592631       -16.1263
  41   2.0000      -0.573301       -15.6003
  42   2.0000      -0.570184       -15.5155
  43   2.0000      -0.554081       -15.0773
  44   2.0000      -0.538180       -14.6446
  45   2.0000      -0.530178       -14.4269
  46   2.0000      -0.520230       -14.1562
  47   2.0000      -0.511773       -13.9260
  48   2.0000      -0.500226       -13.6118
  49   2.0000      -0.495996       -13.4967
  50   2.0000      -0.487344       -13.2613
  51   2.0000      -0.484094       -13.1729
  52   2.0000      -0.472235       -12.8502
  53   2.0000      -0.465811       -12.6754
  54   2.0000      -0.460220       -12.5232
  55   2.0000      -0.449020       -12.2185
  56   2.0000      -0.440064       -11.9748
  57   2.0000      -0.434711       -11.8291
  58   2.0000      -0.431849       -11.7512
  59   2.0000      -0.431407       -11.7392
  60   2.0000      -0.419279       -11.4092
  61   2.0000      -0.414476       -11.2785
  62   2.0000      -0.408439       -11.1142
  63   2.0000      -0.342552        -9.3213
  64   2.0000      -0.334836        -9.1113
  65   2.0000      -0.323413        -8.8005
  66   2.0000      -0.300787        -8.1848
  67   0.0000       0.032101         0.8735
  68   0.0000       0.067255         1.8301
  69   0.0000       0.101376         2.7586
  70   0.0000       0.117197         3.1891
  71   0.0000       0.128256         3.4900

MULLIKEN ATOMIC CHARGES
-----------------------
   0 S :    0.076652
   1 C :   -0.093075
   2 C :   -0.078969
   3 C :    0.042981
   4 C :   -0.143720
   5 H :   -0.015688
   6 C :    0.135776
   7 H :    0.024906
   8 H :    0.003098
   9 C :   -0.128759
  10 H :    0.045724
  11 H :    0.031142
  12 C :   -0.021609
  13 H :    0.026767
  14 H :    0.030480
  15 H :    0.008986
  16 S :    0.118320
  17 C :   -0.098702
  18 C :   -0.046175
  19 C :    0.009756
  20 C :   -0.205545
  21 H :    0.017173
  22 C :    0.033169
  23 H :    0.032185
  24 H :    0.030725
  25 C :   -0.064805
  26 H :    0.043500
  27 H :    0.023158
  28 C :   -0.041578
  29 H :    0.032085
  30 H :    0.056274
  31 H :    0.019024
  32 H :    0.023049
  33 H :    0.073694
Sum of atomic charges:    0.0000000

LOEWDIN ATOMIC CHARGES
----------------------
   0 S :    0.362455
   1 C :   -0.165062
   2 C :   -0.054047
   3 C :   -0.059019
   4 C :   -0.182556
   5 H :    0.015605
   6 C :   -0.032122
   7 H :    0.034370
   8 H :    0.024840
   9 C :   -0.048002
  10 H :    0.033853
  11 H :    0.026747
  12 C :   -0.059358
  13 H :    0.025684
  14 H :    0.027417
  15 H :    0.008845
  16 S :    0.386396
  17 C :   -0.191976
  18 C :   -0.074575
  19 C :   -0.049079
  20 C :   -0.179609
  21 H :    0.029903
  22 C :   -0.030205
  23 H :    0.037559
  24 H :    0.031781
  25 C :   -0.035132
  26 H :    0.027037
  27 H :    0.018735
  28 C :   -0.068569
  29 H :    0.027951
  30 H :    0.035917
  31 H :    0.022875
  32 H :    0.010451
  33 H :    0.040891

  Mayer bond orders larger than 0.100000
B(  0-S ,  1-C ) :   1.1209 B(  0-S ,  4-C ) :   1.1177 B(  1-C ,  2-C ) :   1.6541
B(  1-C , 32-H ) :   0.9772 B(  2-C ,  3-C ) :   1.1749 B(  2-C ,  6-C ) :   1.0305
B(  3-C ,  4-C ) :   1.6433 B(  3-C ,  5-H ) :   0.9965 B(  4-C , 20-C ) :   1.0282
B(  6-C ,  7-H ) :   0.9333 B(  6-C ,  8-H ) :   0.9372 B(  6-C ,  9-C ) :   1.0728
B(  9-C , 10-H ) :   0.9539 B(  9-C , 11-H ) :   0.9574 B(  9-C , 12-C ) :   1.0703
B( 12-C , 13-H ) :   0.9748 B( 12-C , 14-H ) :   0.9760 B( 12-C , 15-H ) :   0.9745
B( 16-S , 17-C ) :   1.1298 B( 16-S , 20-C ) :   1.1332 B( 17-C , 18-C ) :   1.6588
B( 17-C , 33-H ) :   0.9573 B( 18-C , 19-C ) :   1.2057 B( 18-C , 21-H ) :   0.9795
B( 19-C , 20-C ) :   1.6325 B( 19-C , 22-C ) :   1.0341 B( 22-C , 23-H ) :   0.9344
B( 22-C , 24-H ) :   0.9356 B( 22-C , 25-C ) :   1.0560 B( 25-C , 26-H ) :   0.9589
B( 25-C , 27-H ) :   0.9565 B( 25-C , 28-C ) :   1.0794 B( 28-C , 29-H ) :   0.9746
B( 28-C , 30-H ) :   0.9723 B( 28-C , 31-H ) :   0.9732

Dispersion correction           -0.013803304
FINAL SINGLE POINT ENERGY     -1339.860422823119

DIPOLE MOMENT
-------------
                                X             Y             Z
Electronic contribution:     -3.83963     -21.57555     -20.69132
Nuclear contribution   :      3.65880      22.00214      21.29433
                        -----------------------------------------
Total Dipole Moment    :     -0.18083       0.42659       0.60301
                        -----------------------------------------
Magnitude (a.u.)       :      0.76046
Magnitude (Debye)      :      1.93292

Rotational constants in cm-1:     0.016808     0.009034     0.006558
Rotational constants in MHz :   503.879147   270.845021   196.596995

                             ****ORCA TERMINATED NORMALLY****
TOTAL RUN TIME: 0 days 0 hours 0 minutes 32 seconds 946 msec
