                         Program Version 4.2.1 -  RELEASE  -
|  1> ! wB97X-D3 SP def2-SVP
|  2> %pal
|  3> nprocs 16
|  4> end
|  5>
|  6> * xyz 0 1
|  7> S 	 9.34835 	 -13.0357 	 66.5223
|  8> C 	 9.15334 	 -14.5247 	 65.7333
|  9> C 	 8.38906 	 -15.3481 	 66.54
| 10> C 	 8.28864 	 -14.8536 	 67.8676
| 11> C 	 8.89909 	 -13.6664 	 68.0859
| 12> H 	 7.69178 	 -15.2042 	 68.6797
| 13> C 	 7.9896 	 -16.7294 	 66.1071
| 14> H 	 8.78643 	 -17.0895 	 65.3687
| 15> H 	 6.99269 	 -16.5361 	 65.6953
| 16> C 	 7.90069 	 -17.7762 	 67.1917
| 17> H 	 7.07422 	 -17.6149 	 67.8952
| 18> H 	 7.52519 	 -18.6765 	 66.7353
| 19> C 	 9.27936 	 -18.0972 	 67.8316
| 20> H 	 9.1612 	 -18.8857 	 68.58
| 21> H 	 10.0067 	 -18.3825 	 67.0432
| 22> H 	 9.71963 	 -17.1962 	 68.311
| 23> S 	 8.4096 	 -11.1201 	 69.0795
| 24> C 	 8.57996 	 -10.6939 	 70.7585
| 25> C 	 8.8841 	 -11.8278 	 71.5015
| 26> C 	 9.04789 	 -13.0207 	 70.6707
| 27> C 	 8.82998 	 -12.7885 	 69.2903
| 28> H 	 8.96687 	 -11.6979 	 72.5622
| 29> C 	 9.44269 	 -14.4318 	 71.3489
| 30> H 	 8.75531 	 -15.1692 	 70.8664
| 31> H 	 9.16552 	 -14.5586 	 72.3699
| 32> C 	 10.9669 	 -14.7976 	 71.2914
| 33> H 	 11.1151 	 -15.7922 	 71.6983
| 34> H 	 11.6426 	 -14.2031 	 71.9111
| 35> C 	 11.5387 	 -14.8972 	 69.8384
| 36> H 	 11.628 	 -13.91 	 69.4448
| 37> H 	 10.9195 	 -15.5624 	 69.2177
| 38> H 	 12.5675 	 -15.2707 	 69.9545
| 39> H 	 9.47943 	 -14.7526 	 64.7696
| 40> H 	 8.49488 	 -9.65489 	 71.2384
| 41> *
| 42>
| 43>                          ****END OF INPUT****

CARTESIAN COORDINATES (ANGSTROEM)
---------------------------------
  S      9.348350  -13.035700   66.522300
  C      9.153340  -14.524700   65.733300
  C      8.389060  -15.348100   66.540000
  C      8.288640  -14.853600   67.867600
  C      8.899090  -13.666400   68.085900
  H      7.691780  -15.204200   68.679700
  C      7.989600  -16.729400   66.107100
  H      8.786430  -17.089500   65.368700
  H      6.992690  -16.536100   65.695300
  C      7.900690  -17.776200   67.191700
  H      7.074220  -17.614900   67.895200
  H      7.525190  -18.676500   66.735300
  C      9.279360  -18.097200   67.831600
  H      9.161200  -18.885700   68.580000
  H     10.006700  -18.382500   67.043200
  H      9.719630  -17.196200   68.311000
  S      8.409600  -11.120100   69.079500
  C      8.579960  -10.693900   70.758500
  C      8.884100  -11.827800   71.501500
  C      9.047890  -13.020700   70.670700
  C      8.829980  -12.788500   69.290300
  H      8.966870  -11.697900   72.562200
  C      9.442690  -14.431800   71.348900
  H      8.755310  -15.169200   70.866400
  H      9.165520  -14.558600   72.369900
  C     10.966900  -14.797600   71.291400
  H     11.115100  -15.792200   71.698300
  H     11.642600  -14.203100   71.911100
  C     11.538700  -14.897200   69.838400
  H     11.628000  -13.910000   69.444800
  H     10.919500  -15.562400   69.217700
  H     12.567500  -15.270700   69.954500
  H      9.479430  -14.752600   64.769600
  H      8.494880   -9.654890   71.238400

 Total Charge           Charge          ....    0
 Multiplicity           Mult            ....    1
 Number of Electrons    NEL             ....  134
 Basis Dimension        Dim             ....  322

ORBITAL ENERGIES
----------------

  NO   OCC          E(Eh)            E(eV)
   0   2.0000     -88.966098     -2420.8906
   1   2.0000     -88.961433     -2420.7637
   2   2.0000     -10.335594      -281.2458
   3   2.0000     -10.330162      -281.0980
   4   2.0000     -10.322707      -280.8951
   5   2.0000     -10.316419      -280.7240
   6   2.0000     -10.307322      -280.4765
   7   2.0000     -10.300220      -280.2832
   8   2.0000     -10.298442      -280.2348
   9   2.0000     -10.296781      -280.1896
  10   2.0000     -10.296120      -280.1717
  11   2.0000     -10.289327      -279.9868
  12   2.0000     -10.286498      -279.9098
  13   2.0000     -10.285398      -279.8799
  14   2.0000     -10.283949      -279.8405
  15   2.0000     -10.268487      -279.4197
  16   2.0000      -8.081051      -219.8966
  17   2.0000      -8.077436      -219.7982
  18   2.0000      -6.039690      -164.3483
  19   2.0000      -6.035887      -164.2448
  20   2.0000      -6.035316      -164.2293
  21   2.0000      -6.031855      -164.1351
  22   2.0000      -6.031826      -164.1343
  23   2.0000      -6.028100      -164.0329
  24   2.0000      -1.013691       -27.5839
  25   2.0000      -0.986868       -26.8541
  26   2.0000      -0.915545       -24.9133
  27   2.0000      -0.891882       -24.2694
  28   2.0000      -0.871644       -23.7186
  29   2.0000      -0.846130       -23.0244
  30   2.0000      -0.836038       -22.7497
  31   2.0000      -0.820028       -22.3141
  32   2.0000      -0.779567       -21.2131
  33   2.0000      -0.771753       -21.0005
  34   2.0000      -0.709638       -19.3102
  35   2.0000      -0.695106       -18.9148
  36   2.0000      -0.688050       -18.7228
  37   2.0000      -0.654713       -17.8157
  38   2.0000      -0.643783       -17.5182
  39   2.0000      -0.623619       -16.9695
  40   2.0000      -0.584467       -15.9042
  41   2.0000      -0.570838       -15.5333
  42   2.0000      -0.563387       -15.3305
  43   2.0000      -0.542391       -14.7592
  44   2.0000      -0.537614       -14.6292
  45   2.0000      -0.534118       -14.5341
  46   2.0000      -0.519253       -14.1296
  47   2.0000      -0.512062       -13.9339
  48   2.0000      -0.505259       -13.7488
  49   2.0000      -0.502375       -13.6703
  50   2.0000      -0.486295       -13.2328
  51   2.0000      -0.481785       -13.1100
  52   2.0000      -0.471017       -12.8170
  53   2.0000      -0.461807       -12.5664
  54   2.0000      -0.458546       -12.4777
  55   2.0000      -0.443145       -12.0586
  56   2.0000      -0.442952       -12.0533
  57   2.0000      -0.436444       -11.8763
  58   2.0000      -0.432701       -11.7744
  59   2.0000      -0.425088       -11.5672
  60   2.0000      -0.413439       -11.2502
  61   2.0000      -0.404516       -11.0075
  62   2.0000      -0.402705       -10.9582
  63   2.0000      -0.355994        -9.6871
  64   2.0000      -0.330072        -8.9817
  65   2.0000      -0.323421        -8.8007
  66   2.0000      -0.291338        -7.9277
  67   0.0000       0.028059         0.7635
  68   0.0000       0.071231         1.9383
  69   0.0000       0.109706         2.9852
  70   0.0000       0.125770         3.4224
  71   0.0000       0.138646         3.7727

MULLIKEN ATOMIC CHARGES
-----------------------
   0 S :    0.101446
   1 C :   -0.092520
   2 C :   -0.096751
   3 C :    0.010279
   4 C :   -0.112613
   5 H :    0.009807
   6 C :    0.052767
   7 H :    0.040553
   8 H :    0.045190
   9 C :   -0.066531
  10 H :    0.021937
  11 H :    0.017710
  12 C :   -0.059540
  13 H :    0.040717
  14 H :    0.034516
  15 H :    0.039378
  16 S :    0.104834
  17 C :   -0.129870
  18 C :   -0.031985
  19 C :   -0.057802
  20 C :   -0.148761
  21 H :    0.018838
  22 C :    0.075303
  23 H :    0.024085
  24 H :    0.014031
  25 C :   -0.079486
  26 H :    0.020639
  27 H :    0.028912
  28 C :   -0.057035
  29 H :    0.040706
  30 H :    0.047523
  31 H :    0.028527
  32 H :    0.026470
  33 H :    0.088726
Sum of atomic charges:    0.0000000

LOEWDIN ATOMIC CHARGES
----------------------
   0 S :    0.423418
   1 C :   -0.196988
   2 C :   -0.067933
   3 C :   -0.067854
   4 C :   -0.186752
   5 H :    0.028898
   6 C :   -0.036933
   7 H :    0.041083
   8 H :    0.039816
   9 C :   -0.051475
  10 H :    0.023528
  11 H :    0.024426
  12 C :   -0.065802
  13 H :    0.027397
  14 H :    0.029504
  15 H :    0.026052
  16 S :    0.418148
  17 C :   -0.209724
  18 C :   -0.074894
  19 C :   -0.059014
  20 C :   -0.204946
  21 H :    0.030393
  22 C :   -0.031262
  23 H :    0.031491
  24 H :    0.025107
  25 C :   -0.039667
  26 H :    0.021100
  27 H :    0.023656
  28 C :   -0.063086
  29 H :    0.021236
  30 H :    0.023526
  31 H :    0.026677
  32 H :    0.018639
  33 H :    0.052236

  Mayer bond orders larger than 0.100000
B(  0-S ,  1-C ) :   1.1583 B(  0-S ,  4-C ) :   1.1553 B(  1-C ,  2-C ) :   1.5722
B(  1-C ,  4-C ) :   0.1003 B(  1-C , 32-H ) :   0.9857 B(  2-C ,  3-C ) :   1.2500
B(  2-C ,  6-C ) :   1.0067 B(  3-C ,  4-C ) :   1.5651 B(  3-C ,  5-H ) :   0.9959
B(  4-C , 20-C ) :   1.0301 B(  6-C ,  7-H ) :   0.9512 B(  6-C ,  8-H ) :   0.9196
B(  6-C ,  9-C ) :   1.1103 B(  9-C , 10-H ) :   0.9411 B(  9-C , 11-H ) :   0.9463
B(  9-C , 12-C ) :   1.0692 B( 12-C , 13-H ) :   0.9704 B( 12-C , 14-H ) :   0.9695
B( 12-C , 15-H ) :   0.9764 B( 16-S , 17-C ) :   1.1575 B( 16-S , 20-C ) :   1.1558
B( 17-C , 18-C ) :   1.6068 B( 17-C , 33-H ) :   0.9563 B( 18-C , 19-C ) :   1.2509
B( 18-C , 21-H ) :   0.9947 B( 19-C , 20-C ) :   1.5834 B( 19-C , 22-C ) :   1.0108
B( 22-C , 23-H ) :   0.9457 B( 22-C , 24-H ) :   0.9435 B( 22-C , 25-C ) :   1.0666
B( 25-C , 26-H ) :   0.9558 B( 25-C , 27-H ) :   0.9580 B( 25-C , 28-C ) :   1.0829
B( 28-C , 29-H ) :   0.9708 B( 28-C , 30-H ) :   0.9717 B( 28-C , 31-H ) :   0.9703

Dispersion correction           -0.016331483
FINAL SINGLE POINT ENERGY     -1339.864644440612

DIPOLE MOMENT
-------------
                                X             Y             Z
Electronic contribution:     -6.36808      26.30110      -6.82359
Nuclear contribution   :      6.26382     -26.88680       7.10209
                        -----------------------------------------
Total Dipole Moment    :     -0.10426      -0.58570       0.27851
                        -----------------------------------------
Magnitude (a.u.)       :      0.65687
Magnitude (Debye)      :      1.66964

Rotational constants in cm-1:     0.019869     0.010164     0.007840
Rotational constants in MHz :   595.672171   304.708447   235.028312

                             ****ORCA TERMINATED NORMALLY****
TOTAL RUN TIME: 0 days 0 hours 0 minutes 38 seconds 892 msec
