                         Program Version 4.2.1 -  RELEASE  -
|  1> ! wB97X-D3 SP def2-SVP
|  2> %pal
|  3> nprocs 16
|  4> end
|  5>
|  6> * xyz 0 1
|  7> S 	 14.6809 	 26.799 	 48.1903
|  8> C 	 16.123 	 25.8563 	 47.7472
|  9> C 	 15.7382 	 24.6074 	 47.1966
| 10> C 	 14.3228 	 24.4211 	 47.2426
| 11> C 	 13.6034 	 25.5018 	 47.8149
| 12> H 	 13.8726 	 23.5008 	 46.9332
| 13> C 	 16.7372 	 23.5735 	 46.6784
| 14> H 	 16.0711 	 22.764 	 46.4473
| 15> H 	 17.4264 	 23.2328 	 47.4376
| 16> C 	 17.4868 	 23.7858 	 45.3729
| 17> H 	 16.7494 	 24.013 	 44.5815
| 18> H 	 18.0492 	 24.7392 	 45.6185
| 19> C 	 18.326 	 22.6197 	 44.9005
| 20> H 	 18.8347 	 22.1329 	 45.7117
| 21> H 	 17.8041 	 21.8386 	 44.4479
| 22> H 	 19.0984 	 22.8913 	 44.0879
| 23> S 	 11.4732 	 27.0727 	 46.8538
| 24> C 	 9.82101 	 26.5553 	 47.2587
| 25> C 	 9.82264 	 25.4255 	 48.0726
| 26> C 	 11.1867 	 25.041 	 48.4434
| 27> C 	 12.1929 	 25.7474 	 47.8119
| 28> H 	 8.94258 	 24.9078 	 48.3392
| 29> C 	 11.5031 	 23.7591 	 49.1643
| 30> H 	 12.5715 	 23.5164 	 49.068
| 31> H 	 10.9458 	 22.9584 	 48.685
| 32> C 	 11.0368 	 23.625 	 50.7023
| 33> H 	 10.0891 	 24.0335 	 50.9418
| 34> H 	 11.7251 	 24.3617 	 51.2492
| 35> C 	 11.2484 	 22.2769 	 51.2907
| 36> H 	 12.2558 	 21.9829 	 51.1035
| 37> H 	 10.4634 	 21.5772 	 50.9646
| 38> H 	 11.013 	 22.3846 	 52.328
| 39> H 	 17.116 	 26.1829 	 47.736
| 40> H 	 8.90715 	 26.9725 	 46.8565
| 41> *
| 42>
| 43>                          ****END OF INPUT****

CARTESIAN COORDINATES (ANGSTROEM)
---------------------------------
  S     14.680900   26.799000   48.190300
  C     16.123000   25.856300   47.747200
  C     15.738200   24.607400   47.196600
  C     14.322800   24.421100   47.242600
  C     13.603400   25.501800   47.814900
  H     13.872600   23.500800   46.933200
  C     16.737200   23.573500   46.678400
  H     16.071100   22.764000   46.447300
  H     17.426400   23.232800   47.437600
  C     17.486800   23.785800   45.372900
  H     16.749400   24.013000   44.581500
  H     18.049200   24.739200   45.618500
  C     18.326000   22.619700   44.900500
  H     18.834700   22.132900   45.711700
  H     17.804100   21.838600   44.447900
  H     19.098400   22.891300   44.087900
  S     11.473200   27.072700   46.853800
  C      9.821010   26.555300   47.258700
  C      9.822640   25.425500   48.072600
  C     11.186700   25.041000   48.443400
  C     12.192900   25.747400   47.811900
  H      8.942580   24.907800   48.339200
  C     11.503100   23.759100   49.164300
  H     12.571500   23.516400   49.068000
  H     10.945800   22.958400   48.685000
  C     11.036800   23.625000   50.702300
  H     10.089100   24.033500   50.941800
  H     11.725100   24.361700   51.249200
  C     11.248400   22.276900   51.290700
  H     12.255800   21.982900   51.103500
  H     10.463400   21.577200   50.964600
  H     11.013000   22.384600   52.328000
  H     17.116000   26.182900   47.736000
  H      8.907150   26.972500   46.856500

 Total Charge           Charge          ....    0
 Multiplicity           Mult            ....    1
 Number of Electrons    NEL             ....  134
 Basis Dimension        Dim             ....  322

ORBITAL ENERGIES
----------------

  NO   OCC          E(Eh)            E(eV)
   0   2.0000     -88.971259     -2421.0310
   1   2.0000     -88.965247     -2420.8675
   2   2.0000     -10.332462      -281.1606
   3   2.0000     -10.326233      -280.9911
   4   2.0000     -10.323884      -280.9272
   5   2.0000     -10.316944      -280.7383
   6   2.0000     -10.307675      -280.4861
   7   2.0000     -10.304178      -280.3909
   8   2.0000     -10.300777      -280.2984
   9   2.0000     -10.297923      -280.2207
  10   2.0000     -10.292308      -280.0680
  11   2.0000     -10.290297      -280.0132
  12   2.0000     -10.289722      -279.9976
  13   2.0000     -10.284628      -279.8590
  14   2.0000     -10.280767      -279.7539
  15   2.0000     -10.271593      -279.5043
  16   2.0000      -8.085491      -220.0174
  17   2.0000      -8.078972      -219.8400
  18   2.0000      -6.043932      -164.4638
  19   2.0000      -6.039879      -164.3535
  20   2.0000      -6.037724      -164.2948
  21   2.0000      -6.036527      -164.2622
  22   2.0000      -6.033621      -164.1832
  23   2.0000      -6.029514      -164.0714
  24   2.0000      -1.002816       -27.2880
  25   2.0000      -0.976051       -26.5597
  26   2.0000      -0.915669       -24.9166
  27   2.0000      -0.901926       -24.5427
  28   2.0000      -0.871840       -23.7240
  29   2.0000      -0.855282       -23.2734
  30   2.0000      -0.846025       -23.0215
  31   2.0000      -0.813816       -22.1451
  32   2.0000      -0.786158       -21.3924
  33   2.0000      -0.768041       -20.8995
  34   2.0000      -0.706525       -19.2255
  35   2.0000      -0.702416       -19.1137
  36   2.0000      -0.692916       -18.8552
  37   2.0000      -0.661382       -17.9971
  38   2.0000      -0.642397       -17.4805
  39   2.0000      -0.620499       -16.8846
  40   2.0000      -0.594196       -16.1689
  41   2.0000      -0.570477       -15.5235
  42   2.0000      -0.568354       -15.4657
  43   2.0000      -0.560647       -15.2560
  44   2.0000      -0.533406       -14.5147
  45   2.0000      -0.524427       -14.2704
  46   2.0000      -0.519410       -14.1339
  47   2.0000      -0.511593       -13.9212
  48   2.0000      -0.507074       -13.7982
  49   2.0000      -0.501171       -13.6376
  50   2.0000      -0.497012       -13.5244
  51   2.0000      -0.474757       -12.9188
  52   2.0000      -0.471249       -12.8233
  53   2.0000      -0.466611       -12.6971
  54   2.0000      -0.459204       -12.4956
  55   2.0000      -0.454261       -12.3611
  56   2.0000      -0.453013       -12.3271
  57   2.0000      -0.436504       -11.8779
  58   2.0000      -0.432372       -11.7654
  59   2.0000      -0.425724       -11.5845
  60   2.0000      -0.417233       -11.3535
  61   2.0000      -0.405287       -11.0284
  62   2.0000      -0.401895       -10.9361
  63   2.0000      -0.341846        -9.3021
  64   2.0000      -0.333836        -9.0841
  65   2.0000      -0.324827        -8.8390
  66   2.0000      -0.294439        -8.0121
  67   0.0000       0.027204         0.7402
  68   0.0000       0.059566         1.6209
  69   0.0000       0.112856         3.0710
  70   0.0000       0.114818         3.1244
  71   0.0000       0.120522         3.2796

MULLIKEN ATOMIC CHARGES
-----------------------
   0 S :    0.122137
   1 C :   -0.092372
   2 C :   -0.113015
   3 C :    0.062391
   4 C :   -0.189265
   5 H :    0.009652
   6 C :    0.057395
   7 H :   -0.002064
   8 H :    0.038879
   9 C :   -0.074851
  10 H :    0.035295
  11 H :    0.031169
  12 C :   -0.032905
  13 H :    0.019773
  14 H :    0.018014
  15 H :    0.047998
  16 S :    0.103161
  17 C :   -0.090229
  18 C :   -0.003364
  19 C :   -0.007456
  20 C :   -0.142784
  21 H :    0.010364
  22 C :    0.025755
  23 H :    0.033212
  24 H :    0.024015
  25 C :   -0.116165
  26 H :    0.015833
  27 H :    0.029744
  28 C :   -0.001432
  29 H :    0.034374
  30 H :    0.028994
  31 H :    0.026093
  32 H :    0.030396
  33 H :    0.061256
Sum of atomic charges:   -0.0000000

LOEWDIN ATOMIC CHARGES
----------------------
   0 S :    0.425735
   1 C :   -0.183965
   2 C :   -0.057973
   3 C :   -0.055451
   4 C :   -0.205644
   5 H :    0.026982
   6 C :   -0.037186
   7 H :    0.023818
   8 H :    0.030674
   9 C :   -0.045113
  10 H :    0.029143
  11 H :    0.026251
  12 C :   -0.067978
  13 H :    0.021863
  14 H :    0.018414
  15 H :    0.042073
  16 S :    0.375615
  17 C :   -0.169846
  18 C :   -0.060872
  19 C :   -0.050313
  20 C :   -0.199496
  21 H :    0.025672
  22 C :   -0.035371
  23 H :    0.030830
  24 H :    0.027411
  25 C :   -0.043713
  26 H :    0.013341
  27 H :    0.028681
  28 C :   -0.061478
  29 H :    0.024605
  30 H :    0.026898
  31 H :    0.028431
  32 H :    0.016520
  33 H :    0.031443

  Mayer bond orders larger than 0.100000
B(  0-S ,  1-C ) :   1.1539 B(  0-S ,  4-C ) :   1.1747 B(  1-C ,  2-C ) :   1.5578
B(  1-C ,  4-C ) :   0.1107 B(  1-C , 32-H ) :   0.9789 B(  2-C ,  3-C ) :   1.3084
B(  2-C ,  6-C ) :   1.0150 B(  3-C ,  4-C ) :   1.5030 B(  3-C ,  5-H ) :   0.9874
B(  4-C , 20-C ) :   1.0631 B(  6-C ,  7-H ) :   0.9371 B(  6-C ,  8-H ) :   0.9398
B(  6-C ,  9-C ) :   1.0646 B(  9-C , 10-H ) :   0.9548 B(  9-C , 11-H ) :   0.9580
B(  9-C , 12-C ) :   1.0776 B( 12-C , 13-H ) :   0.9729 B( 12-C , 14-H ) :   0.9725
B( 12-C , 15-H ) :   0.9718 B( 16-S , 17-C ) :   1.1424 B( 16-S , 20-C ) :   1.1037
B( 17-C , 18-C ) :   1.6305 B( 17-C , 33-H ) :   0.9665 B( 18-C , 19-C ) :   1.2068
B( 18-C , 21-H ) :   0.9954 B( 19-C , 20-C ) :   1.6156 B( 19-C , 22-C ) :   1.0607
B( 22-C , 23-H ) :   0.9336 B( 22-C , 24-H ) :   0.9409 B( 22-C , 25-C ) :   1.0373
B( 25-C , 26-H ) :   0.9620 B( 25-C , 27-H ) :   0.9536 B( 25-C , 28-C ) :   1.0945
B( 28-C , 29-H ) :   0.9731 B( 28-C , 30-H ) :   0.9699 B( 28-C , 31-H ) :   0.9680

Dispersion correction           -0.013267405
FINAL SINGLE POINT ENERGY     -1339.864589364189

DIPOLE MOMENT
-------------
                                X             Y             Z
Electronic contribution:     -9.51131      24.56802      -2.73741
Nuclear contribution   :      9.50443     -25.27834       2.67312
                        -----------------------------------------
Total Dipole Moment    :     -0.00688      -0.71032      -0.06430
                        -----------------------------------------
Magnitude (a.u.)       :      0.71325
Magnitude (Debye)      :      1.81294

Rotational constants in cm-1:     0.018159     0.007396     0.006139
Rotational constants in MHz :   544.383799   221.715708   184.051888

                             ****ORCA TERMINATED NORMALLY****
TOTAL RUN TIME: 0 days 0 hours 0 minutes 32 seconds 870 msec
