                         Program Version 4.2.1 -  RELEASE  -
|  1> ! wB97X-D3 SP def2-SVP
|  2> %pal
|  3> nprocs 16
|  4> end
|  5>
|  6> * xyz 0 1
|  7> S 	 -4.5297 	 12.1335 	 82.841
|  8> C 	 -4.72791 	 11.1502 	 81.3849
|  9> C 	 -5.0029 	 11.9653 	 80.2899
| 10> C 	 -5.28273 	 13.3477 	 80.6347
| 11> C 	 -5.14041 	 13.561 	 82.0045
| 12> H 	 -5.6315 	 14.0515 	 79.9189
| 13> C 	 -5.16064 	 11.3266 	 78.9495
| 14> H 	 -5.6548 	 10.3672 	 79.1108
| 15> H 	 -4.15808 	 11.0689 	 78.7158
| 16> C 	 -6.00124 	 12.0883 	 77.9301
| 17> H 	 -6.44632 	 11.4403 	 77.1259
| 18> H 	 -6.84321 	 12.502 	 78.4355
| 19> C 	 -5.18417 	 13.1475 	 77.2822
| 20> H 	 -5.78493 	 13.6182 	 76.6017
| 21> H 	 -5.06943 	 13.8753 	 78.0799
| 22> H 	 -4.17116 	 12.8134 	 76.9508
| 23> S 	 -6.98204 	 15.4822 	 82.7553
| 24> C 	 -6.45513 	 16.8657 	 83.5836
| 25> C 	 -5.10996 	 16.9522 	 83.6151
| 26> C 	 -4.47505 	 15.7388 	 83.1395
| 27> C 	 -5.39884 	 14.8456 	 82.5972
| 28> H 	 -4.66928 	 17.7536 	 84.1339
| 29> C 	 -2.95124 	 15.5851 	 83.2982
| 30> H 	 -2.96305 	 14.7571 	 84.0591
| 31> H 	 -2.34915 	 16.4206 	 83.8108
| 32> C 	 -1.99954 	 15.1772 	 82.1459
| 33> H 	 -2.22666 	 15.8256 	 81.2669
| 34> H 	 -2.06904 	 14.1821 	 81.8739
| 35> C 	 -0.550479 	 15.4607 	 82.5094
| 36> H 	 -0.302676 	 14.887 	 83.4166
| 37> H 	 -0.335671 	 16.4936 	 82.6862
| 38> H 	 0.0667436 	 15.2081 	 81.6068
| 39> H 	 -4.5266 	 10.0338 	 81.4168
| 40> H 	 -7.07247 	 17.5769 	 84.0859
| 41> *
| 42>
| 43>                          ****END OF INPUT****

CARTESIAN COORDINATES (ANGSTROEM)
---------------------------------
  S     -4.529700   12.133500   82.841000
  C     -4.727910   11.150200   81.384900
  C     -5.002900   11.965300   80.289900
  C     -5.282730   13.347700   80.634700
  C     -5.140410   13.561000   82.004500
  H     -5.631500   14.051500   79.918900
  C     -5.160640   11.326600   78.949500
  H     -5.654800   10.367200   79.110800
  H     -4.158080   11.068900   78.715800
  C     -6.001240   12.088300   77.930100
  H     -6.446320   11.440300   77.125900
  H     -6.843210   12.502000   78.435500
  C     -5.184170   13.147500   77.282200
  H     -5.784930   13.618200   76.601700
  H     -5.069430   13.875300   78.079900
  H     -4.171160   12.813400   76.950800
  S     -6.982040   15.482200   82.755300
  C     -6.455130   16.865700   83.583600
  C     -5.109960   16.952200   83.615100
  C     -4.475050   15.738800   83.139500
  C     -5.398840   14.845600   82.597200
  H     -4.669280   17.753600   84.133900
  C     -2.951240   15.585100   83.298200
  H     -2.963050   14.757100   84.059100
  H     -2.349150   16.420600   83.810800
  C     -1.999540   15.177200   82.145900
  H     -2.226660   15.825600   81.266900
  H     -2.069040   14.182100   81.873900
  C     -0.550479   15.460700   82.509400
  H     -0.302676   14.887000   83.416600
  H     -0.335671   16.493600   82.686200
  H      0.066744   15.208100   81.606800
  H     -4.526600   10.033800   81.416800
  H     -7.072470   17.576900   84.085900

 Total Charge           Charge          ....    0
 Multiplicity           Mult            ....    1
 Number of Electrons    NEL             ....  134
 Basis Dimension        Dim             ....  322

ORBITAL ENERGIES
----------------

  NO   OCC          E(Eh)            E(eV)
   0   2.0000     -88.967634     -2420.9324
   1   2.0000     -88.963631     -2420.8235
   2   2.0000     -10.330507      -281.1074
   3   2.0000     -10.319222      -280.8003
   4   2.0000     -10.318078      -280.7692
   5   2.0000     -10.306237      -280.4470
   6   2.0000     -10.306068      -280.4424
   7   2.0000     -10.302455      -280.3441
   8   2.0000     -10.298543      -280.2376
   9   2.0000     -10.296680      -280.1869
  10   2.0000     -10.283820      -279.8370
  11   2.0000     -10.283629      -279.8318
  12   2.0000     -10.283312      -279.8232
  13   2.0000     -10.276723      -279.6438
  14   2.0000     -10.275670      -279.6152
  15   2.0000     -10.268805      -279.4284
  16   2.0000      -8.081411      -219.9064
  17   2.0000      -8.079917      -219.8657
  18   2.0000      -6.039969      -164.3559
  19   2.0000      -6.038329      -164.3113
  20   2.0000      -6.036071      -164.2499
  21   2.0000      -6.034125      -164.1969
  22   2.0000      -6.032173      -164.1438
  23   2.0000      -6.030767      -164.1055
  24   2.0000      -1.010510       -27.4974
  25   2.0000      -0.984423       -26.7875
  26   2.0000      -0.921643       -25.0792
  27   2.0000      -0.903564       -24.5872
  28   2.0000      -0.875558       -23.8251
  29   2.0000      -0.851764       -23.1777
  30   2.0000      -0.847433       -23.0598
  31   2.0000      -0.820400       -22.3242
  32   2.0000      -0.781164       -21.2565
  33   2.0000      -0.764964       -20.8157
  34   2.0000      -0.711513       -19.3612
  35   2.0000      -0.694994       -18.9117
  36   2.0000      -0.685875       -18.6636
  37   2.0000      -0.660772       -17.9805
  38   2.0000      -0.639598       -17.4044
  39   2.0000      -0.624452       -16.9922
  40   2.0000      -0.595439       -16.2027
  41   2.0000      -0.573081       -15.5943
  42   2.0000      -0.565983       -15.4012
  43   2.0000      -0.554356       -15.0848
  44   2.0000      -0.538668       -14.6579
  45   2.0000      -0.527793       -14.3620
  46   2.0000      -0.522002       -14.2044
  47   2.0000      -0.515359       -14.0236
  48   2.0000      -0.507880       -13.8201
  49   2.0000      -0.503277       -13.6949
  50   2.0000      -0.488289       -13.2870
  51   2.0000      -0.483672       -13.1614
  52   2.0000      -0.470336       -12.7985
  53   2.0000      -0.466702       -12.6996
  54   2.0000      -0.454525       -12.3683
  55   2.0000      -0.448881       -12.2147
  56   2.0000      -0.447480       -12.1765
  57   2.0000      -0.438923       -11.9437
  58   2.0000      -0.427570       -11.6348
  59   2.0000      -0.421813       -11.4781
  60   2.0000      -0.412191       -11.2163
  61   2.0000      -0.411918       -11.2089
  62   2.0000      -0.407192       -11.0803
  63   2.0000      -0.339023        -9.2253
  64   2.0000      -0.331394        -9.0177
  65   2.0000      -0.321934        -8.7603
  66   2.0000      -0.296501        -8.0682
  67   0.0000       0.040364         1.0984
  68   0.0000       0.059283         1.6132
  69   0.0000       0.109787         2.9875
  70   0.0000       0.126356         3.4383
  71   0.0000       0.132689         3.6106

MULLIKEN ATOMIC CHARGES
-----------------------
   0 S :    0.110746
   1 C :   -0.173508
   2 C :   -0.087295
   3 C :    0.027030
   4 C :   -0.141249
   5 H :    0.013656
   6 C :    0.070696
   7 H :    0.030730
   8 H :    0.027789
   9 C :   -0.086924
  10 H :    0.032212
  11 H :    0.025034
  12 C :    0.012799
  13 H :    0.011076
  14 H :   -0.000083
  15 H :    0.043695
  16 S :    0.130443
  17 C :   -0.085543
  18 C :   -0.018632
  19 C :   -0.005681
  20 C :   -0.176782
  21 H :    0.000457
  22 C :   -0.009065
  23 H :    0.037643
  24 H :    0.032552
  25 C :   -0.027245
  26 H :    0.030454
  27 H :    0.021708
  28 C :   -0.074677
  29 H :    0.036767
  30 H :    0.025054
  31 H :    0.041331
  32 H :    0.077595
  33 H :    0.047217
Sum of atomic charges:    0.0000000

LOEWDIN ATOMIC CHARGES
----------------------
   0 S :    0.393004
   1 C :   -0.208615
   2 C :   -0.055411
   3 C :   -0.058898
   4 C :   -0.185336
   5 H :    0.026400
   6 C :   -0.035385
   7 H :    0.036321
   8 H :    0.030100
   9 C :   -0.042120
  10 H :    0.027712
  11 H :    0.022335
  12 C :   -0.056711
  13 H :    0.014028
  14 H :    0.022009
  15 H :    0.032980
  16 S :    0.444068
  17 C :   -0.196748
  18 C :   -0.070706
  19 C :   -0.047950
  20 C :   -0.226305
  21 H :    0.024116
  22 C :   -0.049105
  23 H :    0.037608
  24 H :    0.039295
  25 C :   -0.037602
  26 H :    0.027930
  27 H :    0.012213
  28 C :   -0.067358
  29 H :    0.026205
  30 H :    0.017090
  31 H :    0.034483
  32 H :    0.042116
  33 H :    0.028237

  Mayer bond orders larger than 0.100000
B(  0-S ,  1-C ) :   1.1231 B(  0-S ,  4-C ) :   1.1494 B(  1-C ,  2-C ) :   1.6160
B(  1-C , 32-H ) :   0.9650 B(  2-C ,  3-C ) :   1.2355 B(  2-C ,  6-C ) :   1.0010
B(  3-C ,  4-C ) :   1.5627 B(  3-C ,  5-H ) :   0.9880 B(  4-C , 20-C ) :   1.0425
B(  6-C ,  7-H ) :   0.9426 B(  6-C ,  8-H ) :   0.9328 B(  6-C ,  9-C ) :   1.0738
B(  9-C , 10-H ) :   0.9558 B(  9-C , 11-H ) :   0.9522 B(  9-C , 12-C ) :   1.0811
B( 12-C , 13-H ) :   0.9636 B( 12-C , 14-H ) :   0.9731 B( 12-C , 15-H ) :   0.9718
B( 16-S , 17-C ) :   1.1712 B( 16-S , 20-C ) :   1.1468 B( 17-C , 18-C ) :   1.6077
B( 17-C , 33-H ) :   0.9674 B( 18-C , 19-C ) :   1.2476 B( 18-C , 21-H ) :   0.9983
B( 19-C , 20-C ) :   1.5803 B( 19-C , 22-C ) :   1.0162 B( 22-C , 23-H ) :   0.9242
B( 22-C , 24-H ) :   0.9536 B( 22-C , 25-C ) :   1.0572 B( 25-C , 26-H ) :   0.9579
B( 25-C , 27-H ) :   0.9493 B( 25-C , 28-C ) :   1.0933 B( 28-C , 29-H ) :   0.9749
B( 28-C , 30-H ) :   0.9723 B( 28-C , 31-H ) :   0.9718

Dispersion correction           -0.014659434
FINAL SINGLE POINT ENERGY     -1339.856043031983

DIPOLE MOMENT
-------------
                                X             Y             Z
Electronic contribution:    -15.03684      -0.60808      15.98339
Nuclear contribution   :     15.23417       0.62269     -16.27735
                        -----------------------------------------
Total Dipole Moment    :      0.19734       0.01461      -0.29397
                        -----------------------------------------
Magnitude (a.u.)       :      0.35436
Magnitude (Debye)      :      0.90072

Rotational constants in cm-1:     0.016646     0.009294     0.007903
Rotational constants in MHz :   499.043245   278.633460   236.917437

                             ****ORCA TERMINATED NORMALLY****
TOTAL RUN TIME: 0 days 0 hours 0 minutes 33 seconds 688 msec
