                         Program Version 4.2.1 -  RELEASE  -
|  1> ! wB97X-D3 SP def2-SVP
|  2> %pal
|  3> nprocs 16
|  4> end
|  5>
|  6> * xyz 0 1
|  7> S 	 0.664171 	 35.7481 	 37.1277
|  8> C 	 1.34865 	 34.1661 	 36.7148
|  9> C 	 0.613019 	 33.0985 	 37.2098
| 10> C 	 -0.655345 	 33.589 	 37.7068
| 11> C 	 -0.803439 	 34.9612 	 37.6589
| 12> H 	 -1.52331 	 32.9699 	 37.9046
| 13> C 	 0.975126 	 31.6441 	 37.1961
| 14> H 	 0.850254 	 31.3299 	 36.1526
| 15> H 	 0.176988 	 31.0614 	 37.6742
| 16> C 	 2.38878 	 31.192 	 37.6679
| 17> H 	 3.08107 	 31.8944 	 37.1192
| 18> H 	 2.43684 	 31.5216 	 38.7598
| 19> C 	 2.79289 	 29.717 	 37.6298
| 20> H 	 2.82631 	 29.162 	 36.7999
| 21> H 	 3.67438 	 29.5063 	 38.1576
| 22> H 	 2.11233 	 29.2482 	 38.2678
| 23> S 	 -2.41421 	 36.7916 	 36.5077
| 24> C 	 -3.72805 	 37.493 	 37.4509
| 25> C 	 -4.02372 	 36.7341 	 38.5087
| 26> C 	 -3.01463 	 35.749 	 38.8519
| 27> C 	 -2.0684 	 35.7078 	 37.844
| 28> H 	 -4.914 	 36.8624 	 39.1097
| 29> C 	 -2.96853 	 34.9074 	 40.1067
| 30> H 	 -2.50182 	 35.4463 	 40.9963
| 31> H 	 -2.2004 	 34.1704 	 39.9563
| 32> C 	 -4.32504 	 34.3918 	 40.6762
| 33> H 	 -4.7733 	 33.6509 	 40.065
| 34> H 	 -4.99438 	 35.1547 	 40.7653
| 35> C 	 -4.08921 	 33.8773 	 42.111
| 36> H 	 -3.52753 	 32.8827 	 42.0106
| 37> H 	 -5.06246 	 33.5132 	 42.633
| 38> H 	 -3.53355 	 34.5434 	 42.7965
| 39> H 	 2.2807 	 33.9797 	 36.2102
| 40> H 	 -4.47747 	 38.2595 	 37.1791
| 41> *
| 42>
| 43>                          ****END OF INPUT****

CARTESIAN COORDINATES (ANGSTROEM)
---------------------------------
  S      0.664171   35.748100   37.127700
  C      1.348650   34.166100   36.714800
  C      0.613019   33.098500   37.209800
  C     -0.655345   33.589000   37.706800
  C     -0.803439   34.961200   37.658900
  H     -1.523310   32.969900   37.904600
  C      0.975126   31.644100   37.196100
  H      0.850254   31.329900   36.152600
  H      0.176988   31.061400   37.674200
  C      2.388780   31.192000   37.667900
  H      3.081070   31.894400   37.119200
  H      2.436840   31.521600   38.759800
  C      2.792890   29.717000   37.629800
  H      2.826310   29.162000   36.799900
  H      3.674380   29.506300   38.157600
  H      2.112330   29.248200   38.267800
  S     -2.414210   36.791600   36.507700
  C     -3.728050   37.493000   37.450900
  C     -4.023720   36.734100   38.508700
  C     -3.014630   35.749000   38.851900
  C     -2.068400   35.707800   37.844000
  H     -4.914000   36.862400   39.109700
  C     -2.968530   34.907400   40.106700
  H     -2.501820   35.446300   40.996300
  H     -2.200400   34.170400   39.956300
  C     -4.325040   34.391800   40.676200
  H     -4.773300   33.650900   40.065000
  H     -4.994380   35.154700   40.765300
  C     -4.089210   33.877300   42.111000
  H     -3.527530   32.882700   42.010600
  H     -5.062460   33.513200   42.633000
  H     -3.533550   34.543400   42.796500
  H      2.280700   33.979700   36.210200
  H     -4.477470   38.259500   37.179100

 Total Charge           Charge          ....    0
 Multiplicity           Mult            ....    1
 Number of Electrons    NEL             ....  134
 Basis Dimension        Dim             ....  322

ORBITAL ENERGIES
----------------

  NO   OCC          E(Eh)            E(eV)
   0   2.0000     -88.968558     -2420.9575
   1   2.0000     -88.963437     -2420.8182
   2   2.0000     -10.328214      -281.0450
   3   2.0000     -10.325704      -280.9767
   4   2.0000     -10.313862      -280.6545
   5   2.0000     -10.312389      -280.6144
   6   2.0000     -10.304677      -280.4045
   7   2.0000     -10.303277      -280.3664
   8   2.0000     -10.301656      -280.3223
   9   2.0000     -10.295670      -280.1594
  10   2.0000     -10.295615      -280.1579
  11   2.0000     -10.293889      -280.1110
  12   2.0000     -10.293598      -280.1030
  13   2.0000     -10.288934      -279.9761
  14   2.0000     -10.283630      -279.8318
  15   2.0000     -10.265909      -279.3496
  16   2.0000      -8.082690      -219.9412
  17   2.0000      -8.078002      -219.8136
  18   2.0000      -6.041260      -164.3910
  19   2.0000      -6.037407      -164.2862
  20   2.0000      -6.036652      -164.2657
  21   2.0000      -6.033284      -164.1740
  22   2.0000      -6.032713      -164.1585
  23   2.0000      -6.028402      -164.0412
  24   2.0000      -1.005038       -27.3485
  25   2.0000      -0.981806       -26.7163
  26   2.0000      -0.910100       -24.7651
  27   2.0000      -0.908014       -24.7083
  28   2.0000      -0.869797       -23.6684
  29   2.0000      -0.853381       -23.2217
  30   2.0000      -0.846109       -23.0238
  31   2.0000      -0.817320       -22.2404
  32   2.0000      -0.787967       -21.4417
  33   2.0000      -0.766254       -20.8508
  34   2.0000      -0.712001       -19.3745
  35   2.0000      -0.709789       -19.3143
  36   2.0000      -0.695335       -18.9210
  37   2.0000      -0.654909       -17.8210
  38   2.0000      -0.637018       -17.3341
  39   2.0000      -0.612632       -16.6706
  40   2.0000      -0.595822       -16.2131
  41   2.0000      -0.571898       -15.5621
  42   2.0000      -0.568488       -15.4693
  43   2.0000      -0.557945       -15.1825
  44   2.0000      -0.526558       -14.3284
  45   2.0000      -0.521776       -14.1982
  46   2.0000      -0.519240       -14.1292
  47   2.0000      -0.509165       -13.8551
  48   2.0000      -0.508487       -13.8366
  49   2.0000      -0.492975       -13.4145
  50   2.0000      -0.490655       -13.3514
  51   2.0000      -0.476789       -12.9741
  52   2.0000      -0.471802       -12.8384
  53   2.0000      -0.463721       -12.6185
  54   2.0000      -0.458787       -12.4842
  55   2.0000      -0.453531       -12.3412
  56   2.0000      -0.448205       -12.1963
  57   2.0000      -0.438533       -11.9331
  58   2.0000      -0.435192       -11.8422
  59   2.0000      -0.425832       -11.5875
  60   2.0000      -0.422209       -11.4889
  61   2.0000      -0.421160       -11.4603
  62   2.0000      -0.414014       -11.2659
  63   2.0000      -0.345269        -9.3953
  64   2.0000      -0.330065        -8.9815
  65   2.0000      -0.323558        -8.8045
  66   2.0000      -0.292866        -7.9693
  67   0.0000       0.029342         0.7984
  68   0.0000       0.074245         2.0203
  69   0.0000       0.105917         2.8822
  70   0.0000       0.108573         2.9544
  71   0.0000       0.133848         3.6422

MULLIKEN ATOMIC CHARGES
-----------------------
   0 S :    0.126782
   1 C :   -0.133259
   2 C :   -0.080167
   3 C :    0.029259
   4 C :   -0.165006
   5 H :    0.022303
   6 C :    0.068856
   7 H :    0.036554
   8 H :    0.013002
   9 C :   -0.120305
  10 H :    0.031054
  11 H :    0.041461
  12 C :    0.055501
  13 H :    0.008085
  14 H :    0.015696
  15 H :    0.002072
  16 S :    0.106160
  17 C :   -0.075260
  18 C :   -0.045366
  19 C :   -0.009434
  20 C :   -0.174798
  21 H :    0.015348
  22 C :    0.047645
  23 H :    0.037434
  24 H :    0.004413
  25 C :   -0.005796
  26 H :    0.029075
  27 H :    0.012317
  28 C :   -0.127410
  29 H :    0.037395
  30 H :    0.045117
  31 H :    0.049399
  32 H :    0.041964
  33 H :    0.059908
Sum of atomic charges:   -0.0000000

LOEWDIN ATOMIC CHARGES
----------------------
   0 S :    0.400323
   1 C :   -0.190134
   2 C :   -0.058299
   3 C :   -0.063456
   4 C :   -0.199586
   5 H :    0.031411
   6 C :   -0.043456
   7 H :    0.036986
   8 H :    0.027932
   9 C :   -0.040620
  10 H :    0.022514
  11 H :    0.035036
  12 C :   -0.054654
  13 H :    0.009595
  14 H :    0.030088
  15 H :    0.026217
  16 S :    0.393809
  17 C :   -0.187947
  18 C :   -0.069988
  19 C :   -0.057081
  20 C :   -0.189929
  21 H :    0.028397
  22 C :   -0.035287
  23 H :    0.042261
  24 H :    0.025962
  25 C :   -0.028325
  26 H :    0.023185
  27 H :    0.010109
  28 C :   -0.078275
  29 H :    0.030792
  30 H :    0.033572
  31 H :    0.025989
  32 H :    0.023318
  33 H :    0.039544

  Mayer bond orders larger than 0.100000
B(  0-S ,  1-C ) :   1.1267 B(  0-S ,  4-C ) :   1.1437 B(  1-C ,  2-C ) :   1.6261
B(  1-C , 32-H ) :   0.9675 B(  2-C ,  3-C ) :   1.2286 B(  2-C ,  6-C ) :   1.0254
B(  3-C ,  4-C ) :   1.5984 B(  3-C ,  5-H ) :   0.9823 B(  4-C , 20-C ) :   1.0196
B(  6-C ,  7-H ) :   0.9276 B(  6-C ,  8-H ) :   0.9395 B(  6-C ,  9-C ) :   1.0509
B(  9-C , 10-H ) :   0.9573 B(  9-C , 11-H ) :   0.9582 B(  9-C , 12-C ) :   1.0773
B( 12-C , 13-H ) :   0.9770 B( 12-C , 14-H ) :   0.9661 B( 12-C , 15-H ) :   0.9621
B( 16-S , 17-C ) :   1.1171 B( 16-S , 20-C ) :   1.1387 B( 17-C , 18-C ) :   1.6743
B( 17-C , 33-H ) :   0.9560 B( 18-C , 19-C ) :   1.2060 B( 18-C , 21-H ) :   0.9813
B( 19-C , 20-C ) :   1.6273 B( 19-C , 22-C ) :   1.0458 B( 22-C , 23-H ) :   0.9313
B( 22-C , 24-H ) :   0.9286 B( 22-C , 25-C ) :   1.0489 B( 25-C , 26-H ) :   0.9554
B( 25-C , 27-H ) :   0.9516 B( 25-C , 28-C ) :   1.0820 B( 28-C , 29-H ) :   0.9759
B( 28-C , 30-H ) :   0.9736 B( 28-C , 31-H ) :   0.9737

Dispersion correction           -0.013097589
FINAL SINGLE POINT ENERGY     -1339.849657518648

DIPOLE MOMENT
-------------
                                X             Y             Z
Electronic contribution:     -0.73596      24.88563     -16.68683
Nuclear contribution   :      0.52489     -25.56487      17.01126
                        -----------------------------------------
Total Dipole Moment    :     -0.21106      -0.67925       0.32443
                        -----------------------------------------
Magnitude (a.u.)       :      0.78178
Magnitude (Debye)      :      1.98712

Rotational constants in cm-1:     0.018042     0.007643     0.005690
Rotational constants in MHz :   540.889426   229.135211   170.573148

                             ****ORCA TERMINATED NORMALLY****
TOTAL RUN TIME: 0 days 0 hours 0 minutes 32 seconds 215 msec
