                         Program Version 4.2.1 -  RELEASE  -
|  1> ! wB97X-D3 SP def2-SVP
|  2> %pal
|  3> nprocs 16
|  4> end
|  5>
|  6> * xyz 0 1
|  7> S 	 -106.313 	 45.4782 	 120.418
|  8> C 	 -106.983 	 46.5073 	 121.686
|  9> C 	 -106.016 	 46.7909 	 122.69
| 10> C 	 -104.831 	 45.8962 	 122.582
| 11> C 	 -104.798 	 45.2634 	 121.32
| 12> H 	 -104.014 	 45.8066 	 123.296
| 13> C 	 -106.231 	 47.7146 	 123.918
| 14> H 	 -107.044 	 47.2795 	 124.538
| 15> H 	 -106.593 	 48.6562 	 123.517
| 16> C 	 -104.996 	 47.9636 	 124.858
| 17> H 	 -105.331 	 48.5627 	 125.778
| 18> H 	 -104.644 	 46.9836 	 125.162
| 19> C 	 -103.908 	 48.7669 	 124.154
| 20> H 	 -104.417 	 49.641 	 123.626
| 21> H 	 -103.265 	 49.133 	 124.901
| 22> H 	 -103.37 	 48.1559 	 123.458
| 23> S 	 -104.447 	 42.7629 	 120.31
| 24> C 	 -102.826 	 42.2281 	 119.921
| 25> C 	 -101.892 	 43.0656 	 120.506
| 26> C 	 -102.481 	 44.2773 	 121.017
| 27> C 	 -103.85 	 44.2959 	 120.828
| 28> H 	 -100.913 	 42.7821 	 120.43
| 29> C 	 -101.663 	 45.3808 	 121.626
| 30> H 	 -102.285 	 46.2525 	 121.785
| 31> H 	 -100.974 	 45.6774 	 120.836
| 32> C 	 -100.933 	 45.1825 	 122.994
| 33> H 	 -100.127 	 44.4402 	 122.935
| 34> H 	 -101.614 	 44.7163 	 123.758
| 35> C 	 -100.365 	 46.5679 	 123.455
| 36> H 	 -99.8375 	 46.5225 	 124.398
| 37> H 	 -101.207 	 47.3144 	 123.487
| 38> H 	 -99.6362 	 46.8439 	 122.625
| 39> H 	 -107.978 	 46.9483 	 121.669
| 40> H 	 -102.532 	 41.3827 	 119.334
| 41> *
| 42>
| 43>                          ****END OF INPUT****

CARTESIAN COORDINATES (ANGSTROEM)
---------------------------------
  S    -106.313000   45.478200  120.418000
  C    -106.983000   46.507300  121.686000
  C    -106.016000   46.790900  122.690000
  C    -104.831000   45.896200  122.582000
  C    -104.798000   45.263400  121.320000
  H    -104.014000   45.806600  123.296000
  C    -106.231000   47.714600  123.918000
  H    -107.044000   47.279500  124.538000
  H    -106.593000   48.656200  123.517000
  C    -104.996000   47.963600  124.858000
  H    -105.331000   48.562700  125.778000
  H    -104.644000   46.983600  125.162000
  C    -103.908000   48.766900  124.154000
  H    -104.417000   49.641000  123.626000
  H    -103.265000   49.133000  124.901000
  H    -103.370000   48.155900  123.458000
  S    -104.447000   42.762900  120.310000
  C    -102.826000   42.228100  119.921000
  C    -101.892000   43.065600  120.506000
  C    -102.481000   44.277300  121.017000
  C    -103.850000   44.295900  120.828000
  H    -100.913000   42.782100  120.430000
  C    -101.663000   45.380800  121.626000
  H    -102.285000   46.252500  121.785000
  H    -100.974000   45.677400  120.836000
  C    -100.933000   45.182500  122.994000
  H    -100.127000   44.440200  122.935000
  H    -101.614000   44.716300  123.758000
  C    -100.365000   46.567900  123.455000
  H    -99.837500   46.522500  124.398000
  H    -101.207000   47.314400  123.487000
  H    -99.636200   46.843900  122.625000
  H    -107.978000   46.948300  121.669000
  H    -102.532000   41.382700  119.334000

 Total Charge           Charge          ....    0
 Multiplicity           Mult            ....    1
 Number of Electrons    NEL             ....  134
 Basis Dimension        Dim             ....  322

ORBITAL ENERGIES
----------------

  NO   OCC          E(Eh)            E(eV)
   0   2.0000     -88.968324     -2420.9512
   1   2.0000     -88.963758     -2420.8269
   2   2.0000     -10.332827      -281.1705
   3   2.0000     -10.320383      -280.8319
   4   2.0000     -10.320029      -280.8223
   5   2.0000     -10.314953      -280.6841
   6   2.0000     -10.314035      -280.6592
   7   2.0000     -10.305826      -280.4358
   8   2.0000     -10.302199      -280.3371
   9   2.0000     -10.298209      -280.2285
  10   2.0000     -10.297897      -280.2200
  11   2.0000     -10.296892      -280.1927
  12   2.0000     -10.291963      -280.0585
  13   2.0000     -10.290604      -280.0216
  14   2.0000     -10.287970      -279.9499
  15   2.0000     -10.278348      -279.6881
  16   2.0000      -8.082098      -219.9251
  17   2.0000      -8.078938      -219.8391
  18   2.0000      -6.040698      -164.3758
  19   2.0000      -6.037464      -164.2878
  20   2.0000      -6.036697      -164.2669
  21   2.0000      -6.033499      -164.1799
  22   2.0000      -6.032865      -164.1626
  23   2.0000      -6.029519      -164.0716
  24   2.0000      -1.006224       -27.3807
  25   2.0000      -0.973921       -26.5017
  26   2.0000      -0.907594       -24.6969
  27   2.0000      -0.905345       -24.6357
  28   2.0000      -0.869816       -23.6689
  29   2.0000      -0.850800       -23.1514
  30   2.0000      -0.839220       -22.8363
  31   2.0000      -0.813981       -22.1496
  32   2.0000      -0.779893       -21.2220
  33   2.0000      -0.767410       -20.8823
  34   2.0000      -0.706913       -19.2361
  35   2.0000      -0.699606       -19.0372
  36   2.0000      -0.689495       -18.7621
  37   2.0000      -0.662597       -18.0302
  38   2.0000      -0.635860       -17.3026
  39   2.0000      -0.622120       -16.9288
  40   2.0000      -0.596601       -16.2343
  41   2.0000      -0.567426       -15.4404
  42   2.0000      -0.561691       -15.2844
  43   2.0000      -0.550203       -14.9718
  44   2.0000      -0.541868       -14.7450
  45   2.0000      -0.523858       -14.2549
  46   2.0000      -0.520777       -14.1711
  47   2.0000      -0.511282       -13.9127
  48   2.0000      -0.506551       -13.7840
  49   2.0000      -0.498627       -13.5683
  50   2.0000      -0.488393       -13.2898
  51   2.0000      -0.478763       -13.0278
  52   2.0000      -0.464360       -12.6359
  53   2.0000      -0.460300       -12.5254
  54   2.0000      -0.458050       -12.4642
  55   2.0000      -0.452363       -12.3094
  56   2.0000      -0.445783       -12.1304
  57   2.0000      -0.436650       -11.8819
  58   2.0000      -0.434820       -11.8320
  59   2.0000      -0.429027       -11.6744
  60   2.0000      -0.421336       -11.4651
  61   2.0000      -0.420061       -11.4304
  62   2.0000      -0.415604       -11.3092
  63   2.0000      -0.347094        -9.4449
  64   2.0000      -0.326904        -8.8955
  65   2.0000      -0.324857        -8.8398
  66   2.0000      -0.287855        -7.8329
  67   0.0000       0.021430         0.5831
  68   0.0000       0.075014         2.0412
  69   0.0000       0.104928         2.8552
  70   0.0000       0.110655         3.0111
  71   0.0000       0.121749         3.3130

MULLIKEN ATOMIC CHARGES
-----------------------
   0 S :    0.109862
   1 C :   -0.124488
   2 C :   -0.105823
   3 C :    0.027908
   4 C :   -0.172749
   5 H :    0.020214
   6 C :    0.039137
   7 H :    0.051955
   8 H :    0.028995
   9 C :   -0.117772
  10 H :    0.046879
  11 H :    0.033955
  12 C :   -0.032632
  13 H :    0.039236
  14 H :    0.029927
  15 H :    0.036613
  16 S :    0.111997
  17 C :   -0.090414
  18 C :    0.000600
  19 C :   -0.028237
  20 C :   -0.111711
  21 H :   -0.018929
  22 C :    0.045708
  23 H :    0.007180
  24 H :    0.032606
  25 C :   -0.088161
  26 H :    0.029233
  27 H :    0.037131
  28 C :   -0.067639
  29 H :    0.044945
  30 H :    0.034899
  31 H :    0.043264
  32 H :    0.056301
  33 H :    0.050011
Sum of atomic charges:    0.0000000

LOEWDIN ATOMIC CHARGES
----------------------
   0 S :    0.394698
   1 C :   -0.201771
   2 C :   -0.054635
   3 C :   -0.059730
   4 C :   -0.184110
   5 H :    0.030293
   6 C :   -0.038646
   7 H :    0.038202
   8 H :    0.027082
   9 C :   -0.043756
  10 H :    0.036258
  11 H :    0.018930
  12 C :   -0.061687
  13 H :    0.036468
  14 H :    0.020192
  15 H :    0.015749
  16 S :    0.412476
  17 C :   -0.178502
  18 C :   -0.055915
  19 C :   -0.054333
  20 C :   -0.212912
  21 H :    0.015587
  22 C :   -0.037848
  23 H :    0.024682
  24 H :    0.034319
  25 C :   -0.043418
  26 H :    0.020912
  27 H :    0.024358
  28 C :   -0.068449
  29 H :    0.024782
  30 H :    0.027878
  31 H :    0.035294
  32 H :    0.030361
  33 H :    0.027191

  Mayer bond orders larger than 0.100000
B(  0-S ,  1-C ) :   1.1331 B(  0-S ,  4-C ) :   1.1471 B(  1-C ,  2-C ) :   1.6180
B(  1-C , 32-H ) :   0.9710 B(  2-C ,  3-C ) :   1.2213 B(  2-C ,  6-C ) :   1.0002
B(  3-C ,  4-C ) :   1.5705 B(  3-C ,  5-H ) :   0.9732 B(  4-C , 20-C ) :   1.0531
B(  6-C ,  7-H ) :   0.9439 B(  6-C ,  8-H ) :   0.9431 B(  6-C ,  9-C ) :   1.0826
B(  9-C , 10-H ) :   0.9563 B(  9-C , 11-H ) :   0.9477 B(  9-C , 12-C ) :   1.0757
B( 12-C , 13-H ) :   0.9694 B( 12-C , 14-H ) :   0.9747 B( 12-C , 15-H ) :   0.9686
B( 16-S , 17-C ) :   1.1443 B( 16-S , 20-C ) :   1.1431 B( 17-C , 18-C ) :   1.6150
B( 17-C , 33-H ) :   0.9715 B( 18-C , 19-C ) :   1.2150 B( 18-C , 21-H ) :   1.0113
B( 19-C , 20-C ) :   1.5889 B( 19-C , 22-C ) :   1.0545 B( 22-C , 23-H ) :   0.9359
B( 22-C , 24-H ) :   0.9275 B( 22-C , 25-C ) :   1.0459 B( 25-C , 26-H ) :   0.9533
B( 25-C , 27-H ) :   0.9556 B( 25-C , 28-C ) :   1.0700 B( 28-C , 29-H ) :   0.9733
B( 28-C , 30-H ) :   0.9738 B( 28-C , 31-H ) :   0.9735

Dispersion correction           -0.015435744
FINAL SINGLE POINT ENERGY     -1339.873166399795

DIPOLE MOMENT
-------------
                                X             Y             Z
Electronic contribution:    -16.30926     -19.15670     -20.74172
Nuclear contribution   :     16.73149      19.43629      21.27713
                        -----------------------------------------
Total Dipole Moment    :      0.42224       0.27959       0.53540
                        -----------------------------------------
Magnitude (a.u.)       :      0.73696
Magnitude (Debye)      :      1.87320

Rotational constants in cm-1:     0.016400     0.011278     0.007065
Rotational constants in MHz :   491.672467   338.118911   211.800291

                             ****ORCA TERMINATED NORMALLY****
TOTAL RUN TIME: 0 days 0 hours 0 minutes 33 seconds 939 msec
