                         Program Version 4.2.1 -  RELEASE  -
|  1> ! wB97X-D3 SP def2-SVP
|  2> %pal
|  3> nprocs 16
|  4> end
|  5>
|  6> * xyz 0 1
|  7> S 	 -10.5229 	 43.9184 	 38.9815
|  8> C 	 -11.7897 	 42.8979 	 38.2454
|  9> C 	 -11.4798 	 41.5781 	 38.4547
| 10> C 	 -10.1301 	 41.3571 	 38.9515
| 11> C 	 -9.47887 	 42.5514 	 39.2389
| 12> H 	 -9.57876 	 40.4136 	 39.1186
| 13> C 	 -12.2622 	 40.4133 	 38.0356
| 14> H 	 -11.6502 	 39.7148 	 37.4831
| 15> H 	 -12.9412 	 40.7394 	 37.2371
| 16> C 	 -13.0737 	 39.572 	 38.995
| 17> H 	 -12.3246 	 38.9353 	 39.5424
| 18> H 	 -13.5362 	 40.3796 	 39.6163
| 19> C 	 -14.1495 	 38.7234 	 38.4499
| 20> H 	 -13.7823 	 37.8268 	 37.9967
| 21> H 	 -14.8283 	 38.3934 	 39.2438
| 22> H 	 -14.5882 	 39.3094 	 37.5673
| 23> S 	 -8.00207 	 42.2514 	 41.4805
| 24> C 	 -6.30886 	 42.3661 	 41.3249
| 25> C 	 -5.86221 	 42.8396 	 40.1174
| 26> C 	 -6.98653 	 43.073 	 39.2146
| 27> C 	 -8.16909 	 42.6756 	 39.8226
| 28> H 	 -4.81134 	 42.9674 	 39.8987
| 29> C 	 -6.8203 	 43.4969 	 37.7908
| 30> H 	 -7.70761 	 43.2756 	 37.2531
| 31> H 	 -6.12756 	 42.8837 	 37.2803
| 32> C 	 -6.45559 	 45.0102 	 37.6625
| 33> H 	 -5.54802 	 45.223 	 38.1497
| 34> H 	 -7.19346 	 45.6395 	 38.1893
| 35> C 	 -6.39229 	 45.4827 	 36.189
| 36> H 	 -7.28422 	 45.2162 	 35.5919
| 37> H 	 -5.67321 	 44.9011 	 35.7017
| 38> H 	 -6.15903 	 46.5971 	 36.1301
| 39> H 	 -12.7448 	 43.1442 	 37.8586
| 40> H 	 -5.48726 	 42.0188 	 41.9628
| 41> *
| 42>
| 43>                          ****END OF INPUT****

CARTESIAN COORDINATES (ANGSTROEM)
---------------------------------
  S    -10.522900   43.918400   38.981500
  C    -11.789700   42.897900   38.245400
  C    -11.479800   41.578100   38.454700
  C    -10.130100   41.357100   38.951500
  C     -9.478870   42.551400   39.238900
  H     -9.578760   40.413600   39.118600
  C    -12.262200   40.413300   38.035600
  H    -11.650200   39.714800   37.483100
  H    -12.941200   40.739400   37.237100
  C    -13.073700   39.572000   38.995000
  H    -12.324600   38.935300   39.542400
  H    -13.536200   40.379600   39.616300
  C    -14.149500   38.723400   38.449900
  H    -13.782300   37.826800   37.996700
  H    -14.828300   38.393400   39.243800
  H    -14.588200   39.309400   37.567300
  S     -8.002070   42.251400   41.480500
  C     -6.308860   42.366100   41.324900
  C     -5.862210   42.839600   40.117400
  C     -6.986530   43.073000   39.214600
  C     -8.169090   42.675600   39.822600
  H     -4.811340   42.967400   39.898700
  C     -6.820300   43.496900   37.790800
  H     -7.707610   43.275600   37.253100
  H     -6.127560   42.883700   37.280300
  C     -6.455590   45.010200   37.662500
  H     -5.548020   45.223000   38.149700
  H     -7.193460   45.639500   38.189300
  C     -6.392290   45.482700   36.189000
  H     -7.284220   45.216200   35.591900
  H     -5.673210   44.901100   35.701700
  H     -6.159030   46.597100   36.130100
  H    -12.744800   43.144200   37.858600
  H     -5.487260   42.018800   41.962800

 Total Charge           Charge          ....    0
 Multiplicity           Mult            ....    1
 Number of Electrons    NEL             ....  134
 Basis Dimension        Dim             ....  322

ORBITAL ENERGIES
----------------

  NO   OCC          E(Eh)            E(eV)
   0   2.0000     -88.968680     -2420.9609
   1   2.0000     -88.966054     -2420.8894
   2   2.0000     -10.325316      -280.9661
   3   2.0000     -10.318250      -280.7738
   4   2.0000     -10.314567      -280.6736
   5   2.0000     -10.311562      -280.5919
   6   2.0000     -10.302948      -280.3575
   7   2.0000     -10.300173      -280.2820
   8   2.0000     -10.296109      -280.1714
   9   2.0000     -10.291783      -280.0537
  10   2.0000     -10.285725      -279.8888
  11   2.0000     -10.283249      -279.8214
  12   2.0000     -10.283008      -279.8149
  13   2.0000     -10.282204      -279.7930
  14   2.0000     -10.280543      -279.7478
  15   2.0000     -10.277369      -279.6614
  16   2.0000      -8.084547      -219.9917
  17   2.0000      -8.080161      -219.8724
  18   2.0000      -6.042951      -164.4371
  19   2.0000      -6.039035      -164.3305
  20   2.0000      -6.038818      -164.3246
  21   2.0000      -6.035198      -164.2261
  22   2.0000      -6.034738      -164.2136
  23   2.0000      -6.030806      -164.1066
  24   2.0000      -1.010802       -27.5053
  25   2.0000      -0.984875       -26.7998
  26   2.0000      -0.920586       -25.0504
  27   2.0000      -0.907683       -24.6993
  28   2.0000      -0.875026       -23.8107
  29   2.0000      -0.851347       -23.1663
  30   2.0000      -0.848176       -23.0800
  31   2.0000      -0.815087       -22.1796
  32   2.0000      -0.784658       -21.3516
  33   2.0000      -0.771659       -20.9979
  34   2.0000      -0.707408       -19.2496
  35   2.0000      -0.700593       -19.0641
  36   2.0000      -0.691736       -18.8231
  37   2.0000      -0.658934       -17.9305
  38   2.0000      -0.639566       -17.4035
  39   2.0000      -0.616108       -16.7652
  40   2.0000      -0.597217       -16.2511
  41   2.0000      -0.578363       -15.7381
  42   2.0000      -0.565898       -15.3989
  43   2.0000      -0.556334       -15.1386
  44   2.0000      -0.530283       -14.4297
  45   2.0000      -0.524354       -14.2684
  46   2.0000      -0.520140       -14.1537
  47   2.0000      -0.512290       -13.9401
  48   2.0000      -0.510017       -13.8783
  49   2.0000      -0.498352       -13.5608
  50   2.0000      -0.495493       -13.4831
  51   2.0000      -0.478656       -13.0249
  52   2.0000      -0.467382       -12.7181
  53   2.0000      -0.462531       -12.5861
  54   2.0000      -0.460844       -12.5402
  55   2.0000      -0.449396       -12.2287
  56   2.0000      -0.443824       -12.0771
  57   2.0000      -0.437832       -11.9140
  58   2.0000      -0.428137       -11.6502
  59   2.0000      -0.427156       -11.6235
  60   2.0000      -0.416285       -11.3277
  61   2.0000      -0.414919       -11.2905
  62   2.0000      -0.408241       -11.1088
  63   2.0000      -0.335003        -9.1159
  64   2.0000      -0.326702        -8.8900
  65   2.0000      -0.324316        -8.8251
  66   2.0000      -0.308779        -8.4023
  67   0.0000       0.039612         1.0779
  68   0.0000       0.066383         1.8064
  69   0.0000       0.112616         3.0644
  70   0.0000       0.117870         3.2074
  71   0.0000       0.124304         3.3825

MULLIKEN ATOMIC CHARGES
-----------------------
   0 S :    0.115631
   1 C :   -0.089615
   2 C :   -0.064375
   3 C :    0.027272
   4 C :   -0.181489
   5 H :    0.028541
   6 C :    0.031721
   7 H :    0.014313
   8 H :   -0.003993
   9 C :   -0.075384
  10 H :    0.033384
  11 H :    0.031106
  12 C :   -0.032553
  13 H :    0.019237
  14 H :    0.049783
  15 H :    0.030398
  16 S :    0.152642
  17 C :   -0.079691
  18 C :   -0.052630
  19 C :   -0.013557
  20 C :   -0.201297
  21 H :    0.018108
  22 C :    0.110476
  23 H :    0.009312
  24 H :    0.011482
  25 C :   -0.076087
  26 H :    0.017248
  27 H :    0.031372
  28 C :   -0.037511
  29 H :    0.030493
  30 H :    0.007465
  31 H :    0.053051
  32 H :    0.030192
  33 H :    0.054956
Sum of atomic charges:    0.0000000

LOEWDIN ATOMIC CHARGES
----------------------
   0 S :    0.397333
   1 C :   -0.182856
   2 C :   -0.060803
   3 C :   -0.060566
   4 C :   -0.201722
   5 H :    0.038625
   6 C :   -0.046493
   7 H :    0.026843
   8 H :    0.025130
   9 C :   -0.049892
  10 H :    0.028077
  11 H :    0.029030
  12 C :   -0.068013
  13 H :    0.019436
  14 H :    0.034707
  15 H :    0.033579
  16 S :    0.443405
  17 C :   -0.207876
  18 C :   -0.070519
  19 C :   -0.041092
  20 C :   -0.222919
  21 H :    0.030481
  22 C :   -0.027174
  23 H :    0.026259
  24 H :    0.025757
  25 C :   -0.030951
  26 H :    0.014830
  27 H :    0.026350
  28 C :   -0.068816
  29 H :    0.028336
  30 H :    0.013194
  31 H :    0.036861
  32 H :    0.024659
  33 H :    0.036801

  Mayer bond orders larger than 0.100000
B(  0-S ,  1-C ) :   1.1132 B(  0-S ,  4-C ) :   1.1447 B(  1-C ,  2-C ) :   1.6385
B(  1-C , 32-H ) :   0.9684 B(  2-C ,  3-C ) :   1.1928 B(  2-C ,  6-C ) :   1.0520
B(  3-C ,  4-C ) :   1.6031 B(  3-C ,  5-H ) :   0.9921 B(  4-C , 20-C ) :   1.0235
B(  6-C ,  7-H ) :   0.9339 B(  6-C ,  8-H ) :   0.9293 B(  6-C ,  9-C ) :   1.0625
B(  9-C , 10-H ) :   0.9470 B(  9-C , 11-H ) :   0.9539 B(  9-C , 12-C ) :   1.0965
B( 12-C , 13-H ) :   0.9710 B( 12-C , 14-H ) :   0.9703 B( 12-C , 15-H ) :   0.9681
B( 16-S , 17-C ) :   1.1496 B( 16-S , 20-C ) :   1.1484 B( 17-C , 18-C ) :   1.6470
B( 17-C , 33-H ) :   0.9566 B( 18-C , 19-C ) :   1.2151 B( 18-C , 21-H ) :   0.9887
B( 19-C , 20-C ) :   1.6041 B( 19-C , 22-C ) :   1.0618 B( 22-C , 23-H ) :   0.9225
B( 22-C , 24-H ) :   0.9318 B( 22-C , 25-C ) :   1.0465 B( 25-C , 26-H ) :   0.9601
B( 25-C , 27-H ) :   0.9563 B( 25-C , 28-C ) :   1.0817 B( 28-C , 29-H ) :   0.9739
B( 28-C , 30-H ) :   0.9712 B( 28-C , 31-H ) :   0.9741

Dispersion correction           -0.013870181
FINAL SINGLE POINT ENERGY     -1339.866482858801

DIPOLE MOMENT
-------------
                                X             Y             Z
Electronic contribution:      4.98790       6.20130      16.28769
Nuclear contribution   :     -4.81753      -6.62240     -16.62718
                        -----------------------------------------
Total Dipole Moment    :      0.17037      -0.42109      -0.33949
                        -----------------------------------------
Magnitude (a.u.)       :      0.56710
Magnitude (Debye)      :      1.44145

Rotational constants in cm-1:     0.020963     0.007474     0.006203
Rotational constants in MHz :   628.451933   224.050239   185.970442

                             ****ORCA TERMINATED NORMALLY****
TOTAL RUN TIME: 0 days 0 hours 0 minutes 32 seconds 764 msec
