                         Program Version 4.2.1 -  RELEASE  -
|  1> ! wB97X-D3 SP def2-SVP
|  2> %pal
|  3> nprocs 16
|  4> end
|  5>
|  6> * xyz 0 1
|  7> S 	 -53.4213 	 7.56399 	 90.2623
|  8> C 	 -52.8189 	 7.33369 	 91.8682
|  9> C 	 -52.7338 	 8.51819 	 92.5748
| 10> C 	 -52.7037 	 9.62758 	 91.6399
| 11> C 	 -53.1864 	 9.30096 	 90.4007
| 12> H 	 -52.4821 	 10.6228 	 91.8967
| 13> C 	 -52.3094 	 8.65342 	 94.0619
| 14> H 	 -53.0409 	 8.24579 	 94.6714
| 15> H 	 -52.3354 	 9.73042 	 94.2975
| 16> C 	 -50.9781 	 8.01061 	 94.3311
| 17> H 	 -50.8298 	 8.22494 	 95.3287
| 18> H 	 -50.9658 	 6.934 	 94.1107
| 19> C 	 -49.8138 	 8.77762 	 93.6106
| 20> H 	 -49.7769 	 9.75442 	 94.0355
| 21> H 	 -48.9165 	 8.29572 	 93.8513
| 22> H 	 -49.8065 	 8.94849 	 92.5412
| 23> S 	 -53.1772 	 9.6151 	 87.6356
| 24> C 	 -53.5736 	 11.2257 	 87.0103
| 25> C 	 -54.1197 	 12.0951 	 87.9909
| 26> C 	 -53.9023 	 11.5387 	 89.2647
| 27> C 	 -53.4188 	 10.2672 	 89.2796
| 28> H 	 -54.6072 	 13.0666 	 87.8075
| 29> C 	 -54.5038 	 12.3224 	 90.4383
| 30> H 	 -54.335 	 11.8097 	 91.4162
| 31> H 	 -55.593 	 12.1867 	 90.2231
| 32> C 	 -54.1606 	 13.7989 	 90.5948
| 33> H 	 -54.6697 	 14.2238 	 91.4659
| 34> H 	 -54.5813 	 14.4168 	 89.8118
| 35> C 	 -52.5927 	 14.0406 	 90.6313
| 36> H 	 -52.4534 	 15.1422 	 90.6764
| 37> H 	 -52.1579 	 13.5836 	 89.7809
| 38> H 	 -52.1248 	 13.6021 	 91.5602
| 39> H 	 -52.6698 	 6.30336 	 92.2575
| 40> H 	 -53.5225 	 11.4715 	 85.9835
| 41> *
| 42>
| 43>                          ****END OF INPUT****

CARTESIAN COORDINATES (ANGSTROEM)
---------------------------------
  S    -53.421300    7.563990   90.262300
  C    -52.818900    7.333690   91.868200
  C    -52.733800    8.518190   92.574800
  C    -52.703700    9.627580   91.639900
  C    -53.186400    9.300960   90.400700
  H    -52.482100   10.622800   91.896700
  C    -52.309400    8.653420   94.061900
  H    -53.040900    8.245790   94.671400
  H    -52.335400    9.730420   94.297500
  C    -50.978100    8.010610   94.331100
  H    -50.829800    8.224940   95.328700
  H    -50.965800    6.934000   94.110700
  C    -49.813800    8.777620   93.610600
  H    -49.776900    9.754420   94.035500
  H    -48.916500    8.295720   93.851300
  H    -49.806500    8.948490   92.541200
  S    -53.177200    9.615100   87.635600
  C    -53.573600   11.225700   87.010300
  C    -54.119700   12.095100   87.990900
  C    -53.902300   11.538700   89.264700
  C    -53.418800   10.267200   89.279600
  H    -54.607200   13.066600   87.807500
  C    -54.503800   12.322400   90.438300
  H    -54.335000   11.809700   91.416200
  H    -55.593000   12.186700   90.223100
  C    -54.160600   13.798900   90.594800
  H    -54.669700   14.223800   91.465900
  H    -54.581300   14.416800   89.811800
  C    -52.592700   14.040600   90.631300
  H    -52.453400   15.142200   90.676400
  H    -52.157900   13.583600   89.780900
  H    -52.124800   13.602100   91.560200
  H    -52.669800    6.303360   92.257500
  H    -53.522500   11.471500   85.983500

 Total Charge           Charge          ....    0
 Multiplicity           Mult            ....    1
 Number of Electrons    NEL             ....  134
 Basis Dimension        Dim             ....  322

ORBITAL ENERGIES
----------------

  NO   OCC          E(Eh)            E(eV)
   0   2.0000     -88.968257     -2420.9494
   1   2.0000     -88.963887     -2420.8304
   2   2.0000     -10.328156      -281.0434
   3   2.0000     -10.327881      -281.0359
   4   2.0000     -10.323030      -280.9039
   5   2.0000     -10.312537      -280.6184
   6   2.0000     -10.301135      -280.3081
   7   2.0000     -10.300963      -280.3035
   8   2.0000     -10.299786      -280.2714
   9   2.0000     -10.295991      -280.1682
  10   2.0000     -10.290759      -280.0258
  11   2.0000     -10.287748      -279.9439
  12   2.0000     -10.287432      -279.9352
  13   2.0000     -10.283443      -279.8267
  14   2.0000     -10.283051      -279.8160
  15   2.0000     -10.266727      -279.3718
  16   2.0000      -8.082080      -219.9246
  17   2.0000      -8.078915      -219.8384
  18   2.0000      -6.040604      -164.3732
  19   2.0000      -6.037454      -164.2875
  20   2.0000      -6.036950      -164.2738
  21   2.0000      -6.033527      -164.1806
  22   2.0000      -6.032665      -164.1571
  23   2.0000      -6.029499      -164.0710
  24   2.0000      -1.003305       -27.3013
  25   2.0000      -0.982710       -26.7409
  26   2.0000      -0.913967       -24.8703
  27   2.0000      -0.904983       -24.6258
  28   2.0000      -0.861231       -23.4353
  29   2.0000      -0.849392       -23.1131
  30   2.0000      -0.841164       -22.8892
  31   2.0000      -0.809436       -22.0259
  32   2.0000      -0.783743       -21.3267
  33   2.0000      -0.774104       -21.0644
  34   2.0000      -0.706543       -19.2260
  35   2.0000      -0.703261       -19.1367
  36   2.0000      -0.689161       -18.7530
  37   2.0000      -0.666057       -18.1243
  38   2.0000      -0.640890       -17.4395
  39   2.0000      -0.612942       -16.6790
  40   2.0000      -0.592811       -16.1312
  41   2.0000      -0.576592       -15.6899
  42   2.0000      -0.554232       -15.0814
  43   2.0000      -0.552600       -15.0370
  44   2.0000      -0.540337       -14.7033
  45   2.0000      -0.532087       -14.4788
  46   2.0000      -0.514254       -13.9936
  47   2.0000      -0.511593       -13.9212
  48   2.0000      -0.494983       -13.4692
  49   2.0000      -0.491708       -13.3801
  50   2.0000      -0.488423       -13.2907
  51   2.0000      -0.473023       -12.8716
  52   2.0000      -0.467908       -12.7324
  53   2.0000      -0.467190       -12.7129
  54   2.0000      -0.459547       -12.5049
  55   2.0000      -0.454905       -12.3786
  56   2.0000      -0.448578       -12.2064
  57   2.0000      -0.439877       -11.9697
  58   2.0000      -0.433108       -11.7855
  59   2.0000      -0.424318       -11.5463
  60   2.0000      -0.418912       -11.3992
  61   2.0000      -0.417752       -11.3676
  62   2.0000      -0.413945       -11.2640
  63   2.0000      -0.349141        -9.5006
  64   2.0000      -0.333961        -9.0875
  65   2.0000      -0.326733        -8.8909
  66   2.0000      -0.283548        -7.7157
  67   0.0000       0.026288         0.7153
  68   0.0000       0.071452         1.9443
  69   0.0000       0.096746         2.6326
  70   0.0000       0.118697         3.2299
  71   0.0000       0.128393         3.4938

MULLIKEN ATOMIC CHARGES
-----------------------
   0 S :    0.105389
   1 C :   -0.152775
   2 C :   -0.095204
   3 C :    0.016859
   4 C :   -0.106558
   5 H :   -0.011035
   6 C :    0.092583
   7 H :    0.014164
   8 H :    0.014191
   9 C :   -0.040557
  10 H :    0.013904
  11 H :    0.041673
  12 C :   -0.037699
  13 H :    0.009453
  14 H :    0.017548
  15 H :    0.044456
  16 S :    0.098710
  17 C :   -0.078065
  18 C :   -0.042135
  19 C :   -0.051432
  20 C :   -0.138729
  21 H :    0.037699
  22 C :    0.017681
  23 H :    0.030031
  24 H :    0.051717
  25 C :   -0.070959
  26 H :    0.029700
  27 H :    0.018308
  28 C :   -0.067462
  29 H :    0.041400
  30 H :    0.047262
  31 H :    0.038886
  32 H :    0.065574
  33 H :    0.045420
Sum of atomic charges:    0.0000000

LOEWDIN ATOMIC CHARGES
----------------------
   0 S :    0.397617
   1 C :   -0.207101
   2 C :   -0.055941
   3 C :   -0.063704
   4 C :   -0.184945
   5 H :    0.018600
   6 C :   -0.024695
   7 H :    0.021202
   8 H :    0.030269
   9 C :   -0.025688
  10 H :    0.017917
  11 H :    0.026369
  12 C :   -0.058650
  13 H :    0.020407
  14 H :    0.018044
  15 H :    0.026921
  16 S :    0.381365
  17 C :   -0.161063
  18 C :   -0.066926
  19 C :   -0.064615
  20 C :   -0.185330
  21 H :    0.039383
  22 C :   -0.037808
  23 H :    0.030571
  24 H :    0.043145
  25 C :   -0.045167
  26 H :    0.027481
  27 H :    0.016891
  28 C :   -0.062779
  29 H :    0.029915
  30 H :    0.021202
  31 H :    0.028304
  32 H :    0.031762
  33 H :    0.017047

  Mayer bond orders larger than 0.100000
B(  0-S ,  1-C ) :   1.1425 B(  0-S ,  4-C ) :   1.1380 B(  1-C ,  2-C ) :   1.6083
B(  1-C , 32-H ) :   0.9651 B(  2-C ,  3-C ) :   1.2164 B(  2-C ,  6-C ) :   1.0224
B(  3-C ,  4-C ) :   1.6011 B(  3-C ,  5-H ) :   0.9928 B(  4-C , 20-C ) :   1.0353
B(  6-C ,  7-H ) :   0.9298 B(  6-C ,  8-H ) :   0.9424 B(  6-C ,  9-C ) :   1.0916
B(  9-C , 10-H ) :   0.9502 B(  9-C , 11-H ) :   0.9567 B(  9-C , 12-C ) :   1.0689
B( 12-C , 13-H ) :   0.9745 B( 12-C , 14-H ) :   0.9751 B( 12-C , 15-H ) :   0.9790
B( 16-S , 17-C ) :   1.1630 B( 16-S , 20-C ) :   1.1143 B( 17-C , 18-C ) :   1.5906
B( 17-C , 20-C ) :   0.1012 B( 17-C , 33-H ) :   0.9742 B( 18-C , 19-C ) :   1.2335
B( 18-C , 21-H ) :   0.9869 B( 19-C , 20-C ) :   1.6344 B( 19-C , 22-C ) :   1.0180
B( 22-C , 23-H ) :   0.9408 B( 22-C , 24-H ) :   0.9387 B( 22-C , 25-C ) :   1.0739
B( 25-C , 26-H ) :   0.9540 B( 25-C , 27-H ) :   0.9520 B( 25-C , 28-C ) :   1.0654
B( 28-C , 29-H ) :   0.9763 B( 28-C , 30-H ) :   0.9746 B( 28-C , 31-H ) :   0.9764

Dispersion correction           -0.014836059
FINAL SINGLE POINT ENERGY     -1339.864489515198

DIPOLE MOMENT
-------------
                                X             Y             Z
Electronic contribution:     -8.36254     -15.63322     -20.63064
Nuclear contribution   :      8.29917      16.12831      21.14044
                        -----------------------------------------
Total Dipole Moment    :     -0.06337       0.49509       0.50980
                        -----------------------------------------
Magnitude (a.u.)       :      0.71346
Magnitude (Debye)      :      1.81347

Rotational constants in cm-1:     0.019065     0.009016     0.006892
Rotational constants in MHz :   571.551273   270.298486   206.624686

                             ****ORCA TERMINATED NORMALLY****
TOTAL RUN TIME: 0 days 0 hours 0 minutes 30 seconds 555 msec
