                         Program Version 4.2.1 -  RELEASE  -
|  1> ! wB97X-D3 SP def2-SVP
|  2> %pal
|  3> nprocs 16
|  4> end
|  5>
|  6> * xyz 0 1
|  7> S 	 69.604 	 23.1809 	 73.6718
|  8> C 	 70.3077 	 22.0996 	 74.7909
|  9> C 	 70.6131 	 22.5509 	 76.0634
| 10> C 	 70.3243 	 23.9465 	 76.0757
| 11> C 	 69.7694 	 24.4854 	 74.9052
| 12> H 	 70.454 	 24.5655 	 76.9407
| 13> C 	 71.262 	 21.7074 	 77.1418
| 14> H 	 71.3709 	 22.4118 	 77.9955
| 15> H 	 72.2686 	 21.52 	 76.7806
| 16> C 	 70.5349 	 20.4014 	 77.4532
| 17> H 	 69.5063 	 20.455 	 77.7626
| 18> H 	 70.4079 	 19.9081 	 76.4965
| 19> C 	 71.5684 	 19.5486 	 78.2699
| 20> H 	 72.4938 	 19.6048 	 77.7014
| 21> H 	 71.6857 	 19.9416 	 79.2693
| 22> H 	 71.3076 	 18.5493 	 78.4415
| 23> S 	 70.5609 	 26.6329 	 73.5517
| 24> C 	 70.1091 	 28.2582 	 73.943
| 25> C 	 69.2511 	 28.2731 	 75.0536
| 26> C 	 69.0376 	 26.9023 	 75.5308
| 27> C 	 69.6338 	 25.9259 	 74.7683
| 28> H 	 68.856 	 29.194 	 75.4749
| 29> C 	 68.1684 	 26.6956 	 76.7601
| 30> H 	 68.3831 	 25.6835 	 77.0145
| 31> H 	 67.181 	 26.6842 	 76.3773
| 32> C 	 68.2603 	 27.5886 	 77.9502
| 33> H 	 67.5694 	 28.4118 	 77.8201
| 34> H 	 69.2317 	 28.0402 	 78.1099
| 35> C 	 67.7439 	 26.8473 	 79.2606
| 36> H 	 66.8262 	 26.34 	 78.8757
| 37> H 	 67.542 	 27.6313 	 80.0143
| 38> H 	 68.443 	 26.0112 	 79.4185
| 39> H 	 70.3152 	 21.0061 	 74.4632
| 40> H 	 70.6646 	 29.1697 	 73.6224
| 41> *
| 42>
| 43>                          ****END OF INPUT****

CARTESIAN COORDINATES (ANGSTROEM)
---------------------------------
  S     69.604000   23.180900   73.671800
  C     70.307700   22.099600   74.790900
  C     70.613100   22.550900   76.063400
  C     70.324300   23.946500   76.075700
  C     69.769400   24.485400   74.905200
  H     70.454000   24.565500   76.940700
  C     71.262000   21.707400   77.141800
  H     71.370900   22.411800   77.995500
  H     72.268600   21.520000   76.780600
  C     70.534900   20.401400   77.453200
  H     69.506300   20.455000   77.762600
  H     70.407900   19.908100   76.496500
  C     71.568400   19.548600   78.269900
  H     72.493800   19.604800   77.701400
  H     71.685700   19.941600   79.269300
  H     71.307600   18.549300   78.441500
  S     70.560900   26.632900   73.551700
  C     70.109100   28.258200   73.943000
  C     69.251100   28.273100   75.053600
  C     69.037600   26.902300   75.530800
  C     69.633800   25.925900   74.768300
  H     68.856000   29.194000   75.474900
  C     68.168400   26.695600   76.760100
  H     68.383100   25.683500   77.014500
  H     67.181000   26.684200   76.377300
  C     68.260300   27.588600   77.950200
  H     67.569400   28.411800   77.820100
  H     69.231700   28.040200   78.109900
  C     67.743900   26.847300   79.260600
  H     66.826200   26.340000   78.875700
  H     67.542000   27.631300   80.014300
  H     68.443000   26.011200   79.418500
  H     70.315200   21.006100   74.463200
  H     70.664600   29.169700   73.622400

 Total Charge           Charge          ....    0
 Multiplicity           Mult            ....    1
 Number of Electrons    NEL             ....  134
 Basis Dimension        Dim             ....  322

ORBITAL ENERGIES
----------------

  NO   OCC          E(Eh)            E(eV)
   0   2.0000     -88.973160     -2421.0828
   1   2.0000     -88.958976     -2420.6968
   2   2.0000     -10.331622      -281.1377
   3   2.0000     -10.318875      -280.7909
   4   2.0000     -10.316376      -280.7229
   5   2.0000     -10.316028      -280.7134
   6   2.0000     -10.300362      -280.2871
   7   2.0000     -10.300277      -280.2848
   8   2.0000     -10.298469      -280.2356
   9   2.0000     -10.296014      -280.1688
  10   2.0000     -10.295485      -280.1544
  11   2.0000     -10.290840      -280.0280
  12   2.0000     -10.287957      -279.9495
  13   2.0000     -10.282814      -279.8096
  14   2.0000     -10.277584      -279.6673
  15   2.0000     -10.277481      -279.6645
  16   2.0000      -8.087428      -220.0701
  17   2.0000      -8.075439      -219.7439
  18   2.0000      -6.045914      -164.5177
  19   2.0000      -6.042007      -164.4114
  20   2.0000      -6.038249      -164.3091
  21   2.0000      -6.033895      -164.1906
  22   2.0000      -6.029518      -164.0715
  23   2.0000      -6.026318      -163.9845
  24   2.0000      -1.009026       -27.4570
  25   2.0000      -0.985489       -26.8165
  26   2.0000      -0.915687       -24.9171
  27   2.0000      -0.911431       -24.8013
  28   2.0000      -0.869694       -23.6656
  29   2.0000      -0.855461       -23.2783
  30   2.0000      -0.844158       -22.9707
  31   2.0000      -0.810710       -22.0605
  32   2.0000      -0.778259       -21.1775
  33   2.0000      -0.766130       -20.8474
  34   2.0000      -0.717162       -19.5150
  35   2.0000      -0.704403       -19.1678
  36   2.0000      -0.690691       -18.7947
  37   2.0000      -0.659203       -17.9378
  38   2.0000      -0.638456       -17.3733
  39   2.0000      -0.618152       -16.8208
  40   2.0000      -0.591903       -16.1065
  41   2.0000      -0.571615       -15.5544
  42   2.0000      -0.568795       -15.4777
  43   2.0000      -0.565433       -15.3862
  44   2.0000      -0.529856       -14.4181
  45   2.0000      -0.527297       -14.3485
  46   2.0000      -0.522354       -14.2140
  47   2.0000      -0.510813       -13.8999
  48   2.0000      -0.501747       -13.6532
  49   2.0000      -0.495452       -13.4819
  50   2.0000      -0.485220       -13.2035
  51   2.0000      -0.471469       -12.8293
  52   2.0000      -0.465755       -12.6738
  53   2.0000      -0.463572       -12.6144
  54   2.0000      -0.458538       -12.4775
  55   2.0000      -0.457338       -12.4448
  56   2.0000      -0.452052       -12.3010
  57   2.0000      -0.444499       -12.0954
  58   2.0000      -0.432909       -11.7801
  59   2.0000      -0.430078       -11.7030
  60   2.0000      -0.420196       -11.4341
  61   2.0000      -0.417998       -11.3743
  62   2.0000      -0.405455       -11.0330
  63   2.0000      -0.349181        -9.5017
  64   2.0000      -0.332349        -9.0437
  65   2.0000      -0.322440        -8.7740
  66   2.0000      -0.288966        -7.8632
  67   0.0000       0.036247         0.9863
  68   0.0000       0.065436         1.7806
  69   0.0000       0.110882         3.0172
  70   0.0000       0.122781         3.3410
  71   0.0000       0.129939         3.5358

MULLIKEN ATOMIC CHARGES
-----------------------
   0 S :    0.136355
   1 C :   -0.178676
   2 C :   -0.069253
   3 C :    0.026899
   4 C :   -0.168958
   5 H :    0.006769
   6 C :    0.076072
   7 H :    0.023088
   8 H :    0.043041
   9 C :   -0.073602
  10 H :    0.034288
  11 H :    0.018643
  12 C :   -0.013958
  13 H :    0.029460
  14 H :    0.029740
  15 H :    0.019626
  16 S :    0.106844
  17 C :   -0.109858
  18 C :   -0.040910
  19 C :   -0.098704
  20 C :   -0.137668
  21 H :    0.025692
  22 C :    0.108769
  23 H :   -0.012216
  24 H :    0.031025
  25 C :   -0.079017
  26 H :    0.020267
  27 H :    0.030535
  28 C :   -0.071242
  29 H :    0.035287
  30 H :    0.056494
  31 H :    0.043376
  32 H :    0.073806
  33 H :    0.077985
Sum of atomic charges:   -0.0000000

LOEWDIN ATOMIC CHARGES
----------------------
   0 S :    0.410861
   1 C :   -0.213399
   2 C :   -0.072622
   3 C :   -0.047580
   4 C :   -0.196772
   5 H :    0.025439
   6 C :   -0.027347
   7 H :    0.031788
   8 H :    0.037190
   9 C :   -0.035668
  10 H :    0.025843
  11 H :    0.022383
  12 C :   -0.055174
  13 H :    0.028101
  14 H :    0.024999
  15 H :    0.015979
  16 S :    0.441302
  17 C :   -0.207391
  18 C :   -0.071223
  19 C :   -0.057446
  20 C :   -0.223993
  21 H :    0.032224
  22 C :   -0.037511
  23 H :    0.020229
  24 H :    0.034554
  25 C :   -0.042461
  26 H :    0.020135
  27 H :    0.019230
  28 C :   -0.063472
  29 H :    0.029489
  30 H :    0.032844
  31 H :    0.026677
  32 H :    0.032731
  33 H :    0.040061

  Mayer bond orders larger than 0.100000
B(  0-S ,  1-C ) :   1.1715 B(  0-S ,  4-C ) :   1.1329 B(  1-C ,  2-C ) :   1.5790
B(  1-C , 32-H ) :   0.9482 B(  2-C ,  3-C ) :   1.2810 B(  2-C ,  6-C ) :   1.0011
B(  3-C ,  4-C ) :   1.5543 B(  3-C ,  5-H ) :   0.9852 B(  4-C , 20-C ) :   1.0359
B(  6-C ,  7-H ) :   0.9397 B(  6-C ,  8-H ) :   0.9405 B(  6-C ,  9-C ) :   1.0501
B(  9-C , 10-H ) :   0.9618 B(  9-C , 11-H ) :   0.9556 B(  9-C , 12-C ) :   1.0679
B( 12-C , 13-H ) :   0.9757 B( 12-C , 14-H ) :   0.9769 B( 12-C , 15-H ) :   0.9751
B( 16-S , 17-C ) :   1.1756 B( 16-S , 20-C ) :   1.1550 B( 17-C , 18-C ) :   1.5832
B( 17-C , 33-H ) :   0.9602 B( 18-C , 19-C ) :   1.2464 B( 18-C , 21-H ) :   0.9923
B( 19-C , 20-C ) :   1.5992 B( 19-C , 22-C ) :   1.0340 B( 22-C , 23-H ) :   0.9341
B( 22-C , 24-H ) :   0.9152 B( 22-C , 25-C ) :   1.0650 B( 25-C , 26-H ) :   0.9451
B( 25-C , 27-H ) :   0.9657 B( 25-C , 28-C ) :   1.0731 B( 28-C , 29-H ) :   0.9752
B( 28-C , 30-H ) :   0.9733 B( 28-C , 31-H ) :   0.9785

Dispersion correction           -0.013465145
FINAL SINGLE POINT ENERGY     -1339.858576120407

DIPOLE MOMENT
-------------
                                X             Y             Z
Electronic contribution:      2.42813       8.52839     -27.95634
Nuclear contribution   :     -2.38398      -8.68875      28.62205
                        -----------------------------------------
Total Dipole Moment    :      0.04416      -0.16037       0.66571
                        -----------------------------------------
Magnitude (a.u.)       :      0.68618
Magnitude (Debye)      :      1.74413

Rotational constants in cm-1:     0.018042     0.008032     0.006031
Rotational constants in MHz :   540.894142   240.786966   180.799637

                             ****ORCA TERMINATED NORMALLY****
TOTAL RUN TIME: 0 days 0 hours 0 minutes 29 seconds 324 msec
