                         Program Version 4.2.1 -  RELEASE  -
|  1> ! wB97X-D3 SP def2-SVP
|  2> %pal
|  3> nprocs 16
|  4> end
|  5>
|  6> * xyz 0 1
|  7> S 	 8.8226 	 -7.62267 	 64.1883
|  8> C 	 7.32858 	 -7.68892 	 63.3254
|  9> C 	 7.52869 	 -8.15555 	 62.0199
| 10> C 	 8.93001 	 -8.3325 	 61.6931
| 11> C 	 9.77082 	 -8.07077 	 62.7251
| 12> H 	 9.36737 	 -8.75301 	 60.8306
| 13> C 	 6.39115 	 -8.71119 	 61.1766
| 14> H 	 5.54886 	 -9.11839 	 61.7426
| 15> H 	 6.65649 	 -9.6873 	 60.7216
| 16> C 	 5.79951 	 -7.82214 	 60.0516
| 17> H 	 4.82297 	 -8.05754 	 59.7681
| 18> H 	 5.74686 	 -6.73038 	 60.3771
| 19> C 	 6.64107 	 -7.79286 	 58.8075
| 20> H 	 6.68781 	 -8.81843 	 58.406
| 21> H 	 6.20191 	 -7.16945 	 58.0722
| 22> H 	 7.73225 	 -7.41677 	 59.1011
| 23> S 	 12.0776 	 -6.73479 	 62.0016
| 24> C 	 13.6301 	 -7.38967 	 62.4361
| 25> C 	 13.4801 	 -8.51621 	 63.1945
| 26> C 	 12.1162 	 -8.95684 	 63.3333
| 27> C 	 11.2544 	 -8.04612 	 62.7839
| 28> H 	 14.3853 	 -8.93034 	 63.595
| 29> C 	 11.775 	 -10.2411 	 64.1133
| 30> H 	 10.8506 	 -10.1305 	 64.6822
| 31> H 	 12.558 	 -10.4879 	 64.8032
| 32> C 	 11.631 	 -11.592 	 63.3341
| 33> H 	 11.5418 	 -12.3282 	 64.078
| 34> H 	 12.5981 	 -11.8806 	 62.8601
| 35> C 	 10.3869 	 -11.6303 	 62.4424
| 36> H 	 10.3124 	 -10.9595 	 61.5768
| 37> H 	 9.57069 	 -11.5461 	 63.1775
| 38> H 	 10.2867 	 -12.7316 	 62.1202
| 39> H 	 6.40353 	 -7.83419 	 63.7972
| 40> H 	 14.5852 	 -7.04605 	 62.1739
| 41> *
| 42>
| 43>                          ****END OF INPUT****

CARTESIAN COORDINATES (ANGSTROEM)
---------------------------------
  S      8.822600   -7.622670   64.188300
  C      7.328580   -7.688920   63.325400
  C      7.528690   -8.155550   62.019900
  C      8.930010   -8.332500   61.693100
  C      9.770820   -8.070770   62.725100
  H      9.367370   -8.753010   60.830600
  C      6.391150   -8.711190   61.176600
  H      5.548860   -9.118390   61.742600
  H      6.656490   -9.687300   60.721600
  C      5.799510   -7.822140   60.051600
  H      4.822970   -8.057540   59.768100
  H      5.746860   -6.730380   60.377100
  C      6.641070   -7.792860   58.807500
  H      6.687810   -8.818430   58.406000
  H      6.201910   -7.169450   58.072200
  H      7.732250   -7.416770   59.101100
  S     12.077600   -6.734790   62.001600
  C     13.630100   -7.389670   62.436100
  C     13.480100   -8.516210   63.194500
  C     12.116200   -8.956840   63.333300
  C     11.254400   -8.046120   62.783900
  H     14.385300   -8.930340   63.595000
  C     11.775000  -10.241100   64.113300
  H     10.850600  -10.130500   64.682200
  H     12.558000  -10.487900   64.803200
  C     11.631000  -11.592000   63.334100
  H     11.541800  -12.328200   64.078000
  H     12.598100  -11.880600   62.860100
  C     10.386900  -11.630300   62.442400
  H     10.312400  -10.959500   61.576800
  H      9.570690  -11.546100   63.177500
  H     10.286700  -12.731600   62.120200
  H      6.403530   -7.834190   63.797200
  H     14.585200   -7.046050   62.173900

 Total Charge           Charge          ....    0
 Multiplicity           Mult            ....    1
 Number of Electrons    NEL             ....  134
 Basis Dimension        Dim             ....  322

ORBITAL ENERGIES
----------------

  NO   OCC          E(Eh)            E(eV)
   0   2.0000     -88.966501     -2420.9016
   1   2.0000     -88.963992     -2420.8333
   2   2.0000     -10.332624      -281.1650
   3   2.0000     -10.326321      -280.9935
   4   2.0000     -10.312196      -280.6091
   5   2.0000     -10.311721      -280.5962
   6   2.0000     -10.309079      -280.5243
   7   2.0000     -10.306467      -280.4532
   8   2.0000     -10.295662      -280.1592
   9   2.0000     -10.295158      -280.1455
  10   2.0000     -10.291210      -280.0381
  11   2.0000     -10.290838      -280.0279
  12   2.0000     -10.285235      -279.8755
  13   2.0000     -10.282387      -279.7980
  14   2.0000     -10.281646      -279.7778
  15   2.0000     -10.278959      -279.7047
  16   2.0000      -8.081602      -219.9116
  17   2.0000      -8.078398      -219.8244
  18   2.0000      -6.040145      -164.3607
  19   2.0000      -6.036941      -164.2735
  20   2.0000      -6.035982      -164.2474
  21   2.0000      -6.032919      -164.1641
  22   2.0000      -6.032368      -164.1491
  23   2.0000      -6.029167      -164.0620
  24   2.0000      -1.007264       -27.4091
  25   2.0000      -0.985141       -26.8070
  26   2.0000      -0.907720       -24.7003
  27   2.0000      -0.904419       -24.6105
  28   2.0000      -0.871838       -23.7239
  29   2.0000      -0.849108       -23.1054
  30   2.0000      -0.845915       -23.0185
  31   2.0000      -0.822245       -22.3744
  32   2.0000      -0.781474       -21.2650
  33   2.0000      -0.769909       -20.9503
  34   2.0000      -0.704187       -19.1619
  35   2.0000      -0.692065       -18.8320
  36   2.0000      -0.691252       -18.8099
  37   2.0000      -0.661973       -18.0132
  38   2.0000      -0.650510       -17.7013
  39   2.0000      -0.618127       -16.8201
  40   2.0000      -0.594965       -16.1898
  41   2.0000      -0.575070       -15.6484
  42   2.0000      -0.552889       -15.0449
  43   2.0000      -0.549416       -14.9504
  44   2.0000      -0.543833       -14.7985
  45   2.0000      -0.535913       -14.5829
  46   2.0000      -0.515789       -14.0353
  47   2.0000      -0.510756       -13.8984
  48   2.0000      -0.501512       -13.6468
  49   2.0000      -0.499508       -13.5923
  50   2.0000      -0.489838       -13.3292
  51   2.0000      -0.478681       -13.0256
  52   2.0000      -0.472378       -12.8541
  53   2.0000      -0.463990       -12.6258
  54   2.0000      -0.458391       -12.4735
  55   2.0000      -0.449025       -12.2186
  56   2.0000      -0.438929       -11.9439
  57   2.0000      -0.429236       -11.6801
  58   2.0000      -0.426755       -11.6126
  59   2.0000      -0.419911       -11.4264
  60   2.0000      -0.418017       -11.3748
  61   2.0000      -0.415123       -11.2961
  62   2.0000      -0.408995       -11.1293
  63   2.0000      -0.340050        -9.2532
  64   2.0000      -0.332575        -9.0498
  65   2.0000      -0.324757        -8.8371
  66   2.0000      -0.310268        -8.4428
  67   0.0000       0.037753         1.0273
  68   0.0000       0.060416         1.6440
  69   0.0000       0.103971         2.8292
  70   0.0000       0.116001         3.1566
  71   0.0000       0.133749         3.6395

MULLIKEN ATOMIC CHARGES
-----------------------
   0 S :    0.098457
   1 C :   -0.073079
   2 C :   -0.082658
   3 C :    0.074720
   4 C :   -0.182395
   5 H :    0.005773
   6 C :    0.024157
   7 H :    0.019194
   8 H :    0.021741
   9 C :   -0.055771
  10 H :    0.011319
  11 H :    0.034296
  12 C :   -0.076714
  13 H :    0.025132
  14 H :    0.031838
  15 H :    0.049676
  16 S :    0.128002
  17 C :   -0.069320
  18 C :   -0.041628
  19 C :    0.013138
  20 C :   -0.183036
  21 H :    0.012029
  22 C :    0.071407
  23 H :    0.019895
  24 H :    0.014333
  25 C :   -0.060147
  26 H :    0.012680
  27 H :    0.024313
  28 C :   -0.058677
  29 H :    0.052356
  30 H :    0.028499
  31 H :    0.033355
  32 H :    0.044322
  33 H :    0.032795
Sum of atomic charges:    0.0000000

LOEWDIN ATOMIC CHARGES
----------------------
   0 S :    0.394058
   1 C :   -0.192674
   2 C :   -0.057029
   3 C :   -0.054050
   4 C :   -0.173933
   5 H :    0.027124
   6 C :   -0.040650
   7 H :    0.031943
   8 H :    0.033203
   9 C :   -0.045290
  10 H :    0.013032
  11 H :    0.031515
  12 C :   -0.069929
  13 H :    0.020434
  14 H :    0.018697
  15 H :    0.037517
  16 S :    0.420872
  17 C :   -0.179183
  18 C :   -0.067875
  19 C :   -0.052230
  20 C :   -0.212297
  21 H :    0.029292
  22 C :   -0.028463
  23 H :    0.026215
  24 H :    0.028534
  25 C :   -0.037608
  26 H :    0.018348
  27 H :    0.021926
  28 C :   -0.071680
  29 H :    0.025242
  30 H :    0.028743
  31 H :    0.033663
  32 H :    0.020860
  33 H :    0.021673

  Mayer bond orders larger than 0.100000
B(  0-S ,  1-C ) :   1.1514 B(  0-S ,  4-C ) :   1.1383 B(  1-C ,  2-C ) :   1.6228
B(  1-C , 32-H ) :   0.9654 B(  2-C ,  3-C ) :   1.2098 B(  2-C ,  6-C ) :   1.0176
B(  3-C ,  4-C ) :   1.6256 B(  3-C ,  5-H ) :   0.9964 B(  4-C , 20-C ) :   0.9891
B(  6-C ,  7-H ) :   0.9469 B(  6-C ,  8-H ) :   0.9478 B(  6-C ,  9-C ) :   1.0571
B(  9-C , 10-H ) :   0.9541 B(  9-C , 11-H ) :   0.9562 B(  9-C , 12-C ) :   1.0895
B( 12-C , 13-H ) :   0.9732 B( 12-C , 14-H ) :   0.9729 B( 12-C , 15-H ) :   0.9726
B( 16-S , 17-C ) :   1.1480 B( 16-S , 20-C ) :   1.1497 B( 17-C , 18-C ) :   1.6410
B( 17-C , 33-H ) :   0.9711 B( 18-C , 19-C ) :   1.2209 B( 18-C , 21-H ) :   0.9911
B( 19-C , 20-C ) :   1.6139 B( 19-C , 22-C ) :   1.0397 B( 22-C , 23-H ) :   0.9339
B( 22-C , 24-H ) :   0.9336 B( 22-C , 25-C ) :   1.0853 B( 25-C , 26-H ) :   0.9515
B( 25-C , 27-H ) :   0.9525 B( 25-C , 28-C ) :   1.0749 B( 28-C , 29-H ) :   0.9756
B( 28-C , 30-H ) :   0.9716 B( 28-C , 31-H ) :   0.9707

Dispersion correction           -0.015404551
FINAL SINGLE POINT ENERGY     -1339.868352920109

DIPOLE MOMENT
-------------
                                X             Y             Z
Electronic contribution:     11.54432      16.38825      11.07182
Nuclear contribution   :    -11.58312     -17.05679     -11.13912
                        -----------------------------------------
Total Dipole Moment    :     -0.03879      -0.66854      -0.06730
                        -----------------------------------------
Magnitude (a.u.)       :      0.67304
Magnitude (Debye)      :      1.71074

Rotational constants in cm-1:     0.019640     0.008494     0.007743
Rotational constants in MHz :   588.789373   254.632901   232.131648

                             ****ORCA TERMINATED NORMALLY****
TOTAL RUN TIME: 0 days 0 hours 0 minutes 33 seconds 649 msec
