                         Program Version 4.2.1 -  RELEASE  -
|  1> ! wB97X-D3 SP def2-SVP
|  2> %pal
|  3> nprocs 16
|  4> end
|  5>
|  6> * xyz 0 1
|  7> S 	 62.3493 	 -4.67721 	 87.6297
|  8> C 	 61.4242 	 -3.6219 	 88.6088
|  9> C 	 60.6365 	 -4.33888 	 89.5008
| 10> C 	 60.9419 	 -5.73887 	 89.491
| 11> C 	 61.7063 	 -6.13522 	 88.4095
| 12> H 	 60.4524 	 -6.59964 	 90.0074
| 13> C 	 59.5911 	 -3.82211 	 90.4421
| 14> H 	 59.9754 	 -3.05934 	 91.0189
| 15> H 	 59.4563 	 -4.55084 	 91.1497
| 16> C 	 58.2751 	 -3.3542 	 89.9047
| 17> H 	 57.7957 	 -2.88557 	 90.8122
| 18> H 	 58.3119 	 -2.50578 	 89.1976
| 19> C 	 57.2542 	 -4.48914 	 89.4567
| 20> H 	 56.2295 	 -4.10734 	 89.2034
| 21> H 	 57.64 	 -5.04424 	 88.6021
| 22> H 	 57.1418 	 -5.2447 	 90.2453
| 23> S 	 62.2437 	 -8.8297 	 88.9861
| 24> C 	 62.4901 	 -9.91451 	 87.6684
| 25> C 	 62.2465 	 -9.30402 	 86.4742
| 26> C 	 61.8822 	 -7.94031 	 86.5822
| 27> C 	 62.0233 	 -7.49664 	 87.8791
| 28> H 	 62.3493 	 -9.86873 	 85.4625
| 29> C 	 61.7226 	 -7.06773 	 85.3649
| 30> H 	 61.4022 	 -6.07012 	 85.6411
| 31> H 	 60.8394 	 -7.56342 	 84.8032
| 32> C 	 63.0472 	 -6.92154 	 84.5367
| 33> H 	 62.8408 	 -6.49139 	 83.5875
| 34> H 	 63.3885 	 -7.90788 	 84.3276
| 35> C 	 64.191 	 -6.28946 	 85.3557
| 36> H 	 65.1179 	 -6.39768 	 84.7775
| 37> H 	 64.297 	 -6.89705 	 86.2396
| 38> H 	 64.0464 	 -5.25574 	 85.6032
| 39> H 	 61.426 	 -2.55971 	 88.5937
| 40> H 	 62.9142 	 -10.8375 	 87.7498
| 41> *
| 42>
| 43>                          ****END OF INPUT****

CARTESIAN COORDINATES (ANGSTROEM)
---------------------------------
  S     62.349300   -4.677210   87.629700
  C     61.424200   -3.621900   88.608800
  C     60.636500   -4.338880   89.500800
  C     60.941900   -5.738870   89.491000
  C     61.706300   -6.135220   88.409500
  H     60.452400   -6.599640   90.007400
  C     59.591100   -3.822110   90.442100
  H     59.975400   -3.059340   91.018900
  H     59.456300   -4.550840   91.149700
  C     58.275100   -3.354200   89.904700
  H     57.795700   -2.885570   90.812200
  H     58.311900   -2.505780   89.197600
  C     57.254200   -4.489140   89.456700
  H     56.229500   -4.107340   89.203400
  H     57.640000   -5.044240   88.602100
  H     57.141800   -5.244700   90.245300
  S     62.243700   -8.829700   88.986100
  C     62.490100   -9.914510   87.668400
  C     62.246500   -9.304020   86.474200
  C     61.882200   -7.940310   86.582200
  C     62.023300   -7.496640   87.879100
  H     62.349300   -9.868730   85.462500
  C     61.722600   -7.067730   85.364900
  H     61.402200   -6.070120   85.641100
  H     60.839400   -7.563420   84.803200
  C     63.047200   -6.921540   84.536700
  H     62.840800   -6.491390   83.587500
  H     63.388500   -7.907880   84.327600
  C     64.191000   -6.289460   85.355700
  H     65.117900   -6.397680   84.777500
  H     64.297000   -6.897050   86.239600
  H     64.046400   -5.255740   85.603200
  H     61.426000   -2.559710   88.593700
  H     62.914200  -10.837500   87.749800

 Total Charge           Charge          ....    0
 Multiplicity           Mult            ....    1
 Number of Electrons    NEL             ....  134
 Basis Dimension        Dim             ....  322

ORBITAL ENERGIES
----------------

  NO   OCC          E(Eh)            E(eV)
   0   2.0000     -88.967537     -2420.9298
   1   2.0000     -88.966142     -2420.8918
   2   2.0000     -10.332970      -281.1744
   3   2.0000     -10.329384      -281.0768
   4   2.0000     -10.310480      -280.5624
   5   2.0000     -10.309626      -280.5392
   6   2.0000     -10.299685      -280.2687
   7   2.0000     -10.299627      -280.2671
   8   2.0000     -10.298902      -280.2474
   9   2.0000     -10.295111      -280.1442
  10   2.0000     -10.293545      -280.1016
  11   2.0000     -10.293155      -280.0910
  12   2.0000     -10.282305      -279.7957
  13   2.0000     -10.281012      -279.7606
  14   2.0000     -10.275276      -279.6045
  15   2.0000     -10.269098      -279.4364
  16   2.0000      -8.082808      -219.9444
  17   2.0000      -8.080272      -219.8754
  18   2.0000      -6.041328      -164.3929
  19   2.0000      -6.038839      -164.3252
  20   2.0000      -6.037303      -164.2834
  21   2.0000      -6.034632      -164.2107
  22   2.0000      -6.033480      -164.1793
  23   2.0000      -6.031204      -164.1174
  24   2.0000      -1.011005       -27.5109
  25   2.0000      -0.990258       -26.9463
  26   2.0000      -0.914121       -24.8745
  27   2.0000      -0.907167       -24.6853
  28   2.0000      -0.868118       -23.6227
  29   2.0000      -0.848723       -23.0949
  30   2.0000      -0.842524       -22.9263
  31   2.0000      -0.814675       -22.1684
  32   2.0000      -0.784852       -21.3569
  33   2.0000      -0.773918       -21.0594
  34   2.0000      -0.708191       -19.2709
  35   2.0000      -0.702353       -19.1120
  36   2.0000      -0.698114       -18.9966
  37   2.0000      -0.660548       -17.9744
  38   2.0000      -0.637426       -17.3452
  39   2.0000      -0.612202       -16.6589
  40   2.0000      -0.598854       -16.2956
  41   2.0000      -0.575893       -15.6708
  42   2.0000      -0.552493       -15.0341
  43   2.0000      -0.549357       -14.9488
  44   2.0000      -0.539887       -14.6911
  45   2.0000      -0.536043       -14.5865
  46   2.0000      -0.521867       -14.2007
  47   2.0000      -0.509712       -13.8700
  48   2.0000      -0.500515       -13.6197
  49   2.0000      -0.488150       -13.2832
  50   2.0000      -0.483322       -13.1519
  51   2.0000      -0.478404       -13.0180
  52   2.0000      -0.475026       -12.9261
  53   2.0000      -0.467617       -12.7245
  54   2.0000      -0.462145       -12.5756
  55   2.0000      -0.449178       -12.2228
  56   2.0000      -0.446150       -12.1404
  57   2.0000      -0.438281       -11.9262
  58   2.0000      -0.434124       -11.8131
  59   2.0000      -0.425691       -11.5836
  60   2.0000      -0.419908       -11.4263
  61   2.0000      -0.411434       -11.1957
  62   2.0000      -0.401597       -10.9280
  63   2.0000      -0.355919        -9.6851
  64   2.0000      -0.334032        -9.0895
  65   2.0000      -0.327834        -8.9208
  66   2.0000      -0.289136        -7.8678
  67   0.0000       0.029592         0.8052
  68   0.0000       0.073568         2.0019
  69   0.0000       0.108385         2.9493
  70   0.0000       0.118304         3.2192
  71   0.0000       0.132979         3.6185

MULLIKEN ATOMIC CHARGES
-----------------------
   0 S :    0.082928
   1 C :   -0.074697
   2 C :   -0.130298
   3 C :    0.011054
   4 C :   -0.148341
   5 H :    0.030633
   6 C :    0.164797
   7 H :    0.002618
   8 H :   -0.016642
   9 C :   -0.088315
  10 H :    0.027579
  11 H :    0.033451
  12 C :   -0.070559
  13 H :    0.044614
  14 H :    0.041106
  15 H :    0.025397
  16 S :    0.106393
  17 C :   -0.047982
  18 C :   -0.061633
  19 C :   -0.066302
  20 C :   -0.140467
  21 H :    0.054491
  22 C :    0.022394
  23 H :    0.025908
  24 H :    0.046626
  25 C :   -0.026297
  26 H :    0.024764
  27 H :    0.005903
  28 C :   -0.056833
  29 H :    0.033658
  30 H :    0.043318
  31 H :    0.044066
  32 H :    0.032951
  33 H :    0.023716
Sum of atomic charges:   -0.0000000

LOEWDIN ATOMIC CHARGES
----------------------
   0 S :    0.441947
   1 C :   -0.207888
   2 C :   -0.060147
   3 C :   -0.079648
   4 C :   -0.175566
   5 H :    0.036836
   6 C :   -0.029769
   7 H :    0.027000
   8 H :    0.022848
   9 C :   -0.038555
  10 H :    0.030531
  11 H :    0.024001
  12 C :   -0.072337
  13 H :    0.031256
  14 H :    0.024656
  15 H :    0.023351
  16 S :    0.414731
  17 C :   -0.176818
  18 C :   -0.076099
  19 C :   -0.065126
  20 C :   -0.201037
  21 H :    0.047686
  22 C :   -0.040153
  23 H :    0.012358
  24 H :    0.042828
  25 C :   -0.028803
  26 H :    0.018648
  27 H :    0.015677
  28 C :   -0.066655
  29 H :    0.029729
  30 H :    0.026689
  31 H :    0.010615
  32 H :    0.024833
  33 H :    0.012381

  Mayer bond orders larger than 0.100000
B(  0-S ,  1-C ) :   1.1387 B(  0-S ,  4-C ) :   1.1518 B(  1-C ,  2-C ) :   1.6035
B(  1-C , 32-H ) :   0.9747 B(  2-C ,  3-C ) :   1.2504 B(  2-C ,  6-C ) :   1.0225
B(  3-C ,  4-C ) :   1.6024 B(  3-C ,  5-H ) :   0.9722 B(  4-C , 20-C ) :   1.0170
B(  6-C ,  7-H ) :   0.9205 B(  6-C ,  8-H ) :   0.9238 B(  6-C ,  9-C ) :   1.0824
B(  9-C , 10-H ) :   0.9518 B(  9-C , 11-H ) :   0.9591 B(  9-C , 12-C ) :   1.0626
B( 12-C , 13-H ) :   0.9771 B( 12-C , 14-H ) :   0.9800 B( 12-C , 15-H ) :   0.9750
B( 16-S , 17-C ) :   1.1512 B( 16-S , 20-C ) :   1.1425 B( 17-C , 18-C ) :   1.6197
B( 17-C , 33-H ) :   0.9774 B( 18-C , 19-C ) :   1.2390 B( 18-C , 21-H ) :   0.9712
B( 19-C , 20-C ) :   1.5706 B( 19-C , 22-C ) :   1.0572 B( 22-C , 23-H ) :   0.9327
B( 22-C , 24-H ) :   0.9298 B( 22-C , 25-C ) :   1.0545 B( 25-C , 26-H ) :   0.9577
B( 25-C , 27-H ) :   0.9565 B( 25-C , 28-C ) :   1.0714 B( 28-C , 29-H ) :   0.9699
B( 28-C , 30-H ) :   0.9726 B( 28-C , 31-H ) :   0.9712

Dispersion correction           -0.015434670
FINAL SINGLE POINT ENERGY     -1339.869207676877

DIPOLE MOMENT
-------------
                                X             Y             Z
Electronic contribution:     10.28820      -8.84040       5.40586
Nuclear contribution   :    -10.49990       8.87073      -5.54135
                        -----------------------------------------
Total Dipole Moment    :     -0.21170       0.03033      -0.13549
                        -----------------------------------------
Magnitude (a.u.)       :      0.25317
Magnitude (Debye)      :      0.64351

Rotational constants in cm-1:     0.021519     0.008739     0.007396
Rotational constants in MHz :   645.113334   262.000670   221.719247

                             ****ORCA TERMINATED NORMALLY****
TOTAL RUN TIME: 0 days 0 hours 0 minutes 31 seconds 155 msec
