                         Program Version 4.2.1 -  RELEASE  -
|  1> ! wB97X-D3 SP def2-SVP
|  2> %pal
|  3> nprocs 16
|  4> end
|  5>
|  6> * xyz 0 1
|  7> S 	 0.00453948 	 -13.5541 	 68.8068
|  8> C 	 0.844229 	 -14.3599 	 67.5498
|  9> C 	 1.34464 	 -15.6168 	 68.0058
| 10> C 	 1.14237 	 -15.7295 	 69.4137
| 11> C 	 0.496632 	 -14.6646 	 70.0256
| 12> H 	 1.51723 	 -16.482 	 70.0161
| 13> C 	 1.98383 	 -16.749 	 67.1699
| 14> H 	 1.12896 	 -17.3949 	 66.9242
| 15> H 	 2.60248 	 -17.4166 	 67.8474
| 16> C 	 2.74655 	 -16.3963 	 65.8836
| 17> H 	 1.97914 	 -15.8297 	 65.3497
| 18> H 	 3.67079 	 -15.7889 	 66.0365
| 19> C 	 3.16641 	 -17.5626 	 64.9042
| 20> H 	 3.78938 	 -18.2906 	 65.5446
| 21> H 	 2.23664 	 -18.1209 	 64.6512
| 22> H 	 3.68973 	 -17.3751 	 63.9564
| 23> S 	 -0.852014 	 -15.6625 	 72.2363
| 24> C 	 -0.586058 	 -14.9277 	 73.8207
| 25> C 	 0.145146 	 -13.7761 	 73.7226
| 26> C 	 0.719281 	 -13.5596 	 72.4108
| 27> C 	 0.230156 	 -14.4912 	 71.4514
| 28> H 	 0.336386 	 -13.2595 	 74.6579
| 29> C 	 1.64243 	 -12.4181 	 72.036
| 30> H 	 1.34444 	 -11.6458 	 72.7168
| 31> H 	 1.37065 	 -11.9943 	 71.0186
| 32> C 	 3.14006 	 -12.7062 	 72.1624
| 33> H 	 3.42478 	 -13.7167 	 71.8451
| 34> H 	 3.27821 	 -12.724 	 73.2091
| 35> C 	 4.00003 	 -11.6465 	 71.5393
| 36> H 	 3.88327 	 -10.641 	 72.0321
| 37> H 	 3.69879 	 -11.6374 	 70.532
| 38> H 	 5.00679 	 -11.9516 	 71.5439
| 39> H 	 0.675816 	 -13.9846 	 66.5323
| 40> H 	 -0.966644 	 -15.3145 	 74.7466
| 41> *
| 42>
| 43>                          ****END OF INPUT****

CARTESIAN COORDINATES (ANGSTROEM)
---------------------------------
  S      0.004539  -13.554100   68.806800
  C      0.844229  -14.359900   67.549800
  C      1.344640  -15.616800   68.005800
  C      1.142370  -15.729500   69.413700
  C      0.496632  -14.664600   70.025600
  H      1.517230  -16.482000   70.016100
  C      1.983830  -16.749000   67.169900
  H      1.128960  -17.394900   66.924200
  H      2.602480  -17.416600   67.847400
  C      2.746550  -16.396300   65.883600
  H      1.979140  -15.829700   65.349700
  H      3.670790  -15.788900   66.036500
  C      3.166410  -17.562600   64.904200
  H      3.789380  -18.290600   65.544600
  H      2.236640  -18.120900   64.651200
  H      3.689730  -17.375100   63.956400
  S     -0.852014  -15.662500   72.236300
  C     -0.586058  -14.927700   73.820700
  C      0.145146  -13.776100   73.722600
  C      0.719281  -13.559600   72.410800
  C      0.230156  -14.491200   71.451400
  H      0.336386  -13.259500   74.657900
  C      1.642430  -12.418100   72.036000
  H      1.344440  -11.645800   72.716800
  H      1.370650  -11.994300   71.018600
  C      3.140060  -12.706200   72.162400
  H      3.424780  -13.716700   71.845100
  H      3.278210  -12.724000   73.209100
  C      4.000030  -11.646500   71.539300
  H      3.883270  -10.641000   72.032100
  H      3.698790  -11.637400   70.532000
  H      5.006790  -11.951600   71.543900
  H      0.675816  -13.984600   66.532300
  H     -0.966644  -15.314500   74.746600

 Total Charge           Charge          ....    0
 Multiplicity           Mult            ....    1
 Number of Electrons    NEL             ....  134
 Basis Dimension        Dim             ....  322

ORBITAL ENERGIES
----------------

  NO   OCC          E(Eh)            E(eV)
   0   2.0000     -88.966615     -2420.9047
   1   2.0000     -88.964413     -2420.8448
   2   2.0000     -10.330437      -281.1055
   3   2.0000     -10.327063      -281.0137
   4   2.0000     -10.319437      -280.8061
   5   2.0000     -10.317283      -280.7475
   6   2.0000     -10.313129      -280.6345
   7   2.0000     -10.310022      -280.5500
   8   2.0000     -10.305475      -280.4262
   9   2.0000     -10.297030      -280.1964
  10   2.0000     -10.296298      -280.1765
  11   2.0000     -10.293318      -280.0954
  12   2.0000     -10.289992      -280.0049
  13   2.0000     -10.288463      -279.9633
  14   2.0000     -10.275595      -279.6132
  15   2.0000     -10.268265      -279.4137
  16   2.0000      -8.082182      -219.9274
  17   2.0000      -8.078423      -219.8251
  18   2.0000      -6.040491      -164.3701
  19   2.0000      -6.036936      -164.2734
  20   2.0000      -6.036341      -164.2572
  21   2.0000      -6.033337      -164.1754
  22   2.0000      -6.032978      -164.1657
  23   2.0000      -6.029283      -164.0651
  24   2.0000      -1.005777       -27.3686
  25   2.0000      -0.980692       -26.6860
  26   2.0000      -0.909804       -24.7570
  27   2.0000      -0.905245       -24.6330
  28   2.0000      -0.868034       -23.6204
  29   2.0000      -0.851625       -23.1739
  30   2.0000      -0.847787       -23.0695
  31   2.0000      -0.813362       -22.1327
  32   2.0000      -0.781522       -21.2663
  33   2.0000      -0.767039       -20.8722
  34   2.0000      -0.705045       -19.1852
  35   2.0000      -0.698771       -19.0145
  36   2.0000      -0.689404       -18.7596
  37   2.0000      -0.658786       -17.9265
  38   2.0000      -0.649982       -17.6869
  39   2.0000      -0.611741       -16.6463
  40   2.0000      -0.591413       -16.0932
  41   2.0000      -0.571161       -15.5421
  42   2.0000      -0.565505       -15.3882
  43   2.0000      -0.560285       -15.2461
  44   2.0000      -0.526640       -14.3306
  45   2.0000      -0.520745       -14.1702
  46   2.0000      -0.516676       -14.0595
  47   2.0000      -0.514538       -14.0013
  48   2.0000      -0.506562       -13.7842
  49   2.0000      -0.499253       -13.5854
  50   2.0000      -0.493677       -13.4336
  51   2.0000      -0.476999       -12.9798
  52   2.0000      -0.469587       -12.7781
  53   2.0000      -0.465751       -12.6737
  54   2.0000      -0.456376       -12.4186
  55   2.0000      -0.451757       -12.2929
  56   2.0000      -0.443447       -12.0668
  57   2.0000      -0.436061       -11.8658
  58   2.0000      -0.432345       -11.7647
  59   2.0000      -0.424737       -11.5577
  60   2.0000      -0.420959       -11.4549
  61   2.0000      -0.410312       -11.1651
  62   2.0000      -0.408546       -11.1171
  63   2.0000      -0.337130        -9.1738
  64   2.0000      -0.334078        -9.0907
  65   2.0000      -0.324391        -8.8271
  66   2.0000      -0.298896        -8.1334
  67   0.0000       0.031359         0.8533
  68   0.0000       0.064716         1.7610
  69   0.0000       0.110146         2.9972
  70   0.0000       0.122057         3.3213
  71   0.0000       0.130384         3.5479

MULLIKEN ATOMIC CHARGES
-----------------------
   0 S :    0.126434
   1 C :   -0.154516
   2 C :   -0.066784
   3 C :    0.052877
   4 C :   -0.162999
   5 H :   -0.017821
   6 C :    0.041218
   7 H :    0.044445
   8 H :    0.030404
   9 C :   -0.089195
  10 H :    0.031468
  11 H :    0.051624
  12 C :   -0.091612
  13 H :    0.037606
  14 H :    0.030807
  15 H :    0.055929
  16 S :    0.102460
  17 C :   -0.094123
  18 C :   -0.027979
  19 C :   -0.029442
  20 C :   -0.165403
  21 H :    0.023336
  22 C :    0.044581
  23 H :    0.012763
  24 H :    0.028226
  25 C :   -0.050217
  26 H :    0.030263
  27 H :    0.005067
  28 C :   -0.005148
  29 H :    0.039198
  30 H :    0.022382
  31 H :    0.022868
  32 H :    0.068930
  33 H :    0.052354
Sum of atomic charges:    0.0000000

LOEWDIN ATOMIC CHARGES
----------------------
   0 S :    0.447832
   1 C :   -0.218890
   2 C :   -0.058471
   3 C :   -0.053639
   4 C :   -0.214055
   5 H :    0.018783
   6 C :   -0.037084
   7 H :    0.039029
   8 H :    0.031525
   9 C :   -0.048056
  10 H :    0.023114
  11 H :    0.030806
  12 C :   -0.077434
  13 H :    0.030341
  14 H :    0.025269
  15 H :    0.031166
  16 S :    0.389135
  17 C :   -0.174784
  18 C :   -0.076186
  19 C :   -0.046223
  20 C :   -0.195731
  21 H :    0.034411
  22 C :   -0.036663
  23 H :    0.027117
  24 H :    0.027704
  25 C :   -0.037825
  26 H :    0.026648
  27 H :    0.016107
  28 C :   -0.057136
  29 H :    0.032958
  30 H :    0.021399
  31 H :    0.021635
  32 H :    0.029636
  33 H :    0.027561

  Mayer bond orders larger than 0.100000
B(  0-S ,  1-C ) :   1.1811 B(  0-S ,  4-C ) :   1.1782 B(  1-C ,  2-C ) :   1.5337
B(  1-C ,  4-C ) :   0.1048 B(  1-C , 32-H ) :   0.9689 B(  2-C ,  3-C ) :   1.2880
B(  2-C ,  6-C ) :   1.0118 B(  3-C ,  4-C ) :   1.5424 B(  3-C ,  5-H ) :   1.0073
B(  4-C , 20-C ) :   1.0270 B(  6-C ,  7-H ) :   0.9334 B(  6-C ,  8-H ) :   0.9452
B(  6-C ,  9-C ) :   1.0546 B(  9-C , 10-H ) :   0.9525 B(  9-C , 11-H ) :   0.9629
B(  9-C , 12-C ) :   1.0689 B( 12-C , 13-H ) :   0.9773 B( 12-C , 14-H ) :   0.9753
B( 12-C , 15-H ) :   0.9771 B( 16-S , 17-C ) :   1.1513 B( 16-S , 20-C ) :   1.1377
B( 17-C , 18-C ) :   1.6279 B( 17-C , 33-H ) :   0.9668 B( 18-C , 19-C ) :   1.2313
B( 18-C , 21-H ) :   0.9866 B( 19-C , 20-C ) :   1.5847 B( 19-C , 22-C ) :   1.0404
B( 22-C , 23-H ) :   0.9288 B( 22-C , 24-H ) :   0.9403 B( 22-C , 25-C ) :   1.0491
B( 25-C , 26-H ) :   0.9596 B( 25-C , 27-H ) :   0.9474 B( 25-C , 28-C ) :   1.0912
B( 28-C , 29-H ) :   0.9717 B( 28-C , 30-H ) :   0.9743 B( 28-C , 31-H ) :   0.9704

Dispersion correction           -0.013790862
FINAL SINGLE POINT ENERGY     -1339.874747691014

DIPOLE MOMENT
-------------
                                X             Y             Z
Electronic contribution:    -21.65599       0.38604      11.76437
Nuclear contribution   :     22.02536      -0.46758     -11.79004
                        -----------------------------------------
Total Dipole Moment    :      0.36937      -0.08155      -0.02568
                        -----------------------------------------
Magnitude (a.u.)       :      0.37913
Magnitude (Debye)      :      0.96368

Rotational constants in cm-1:     0.019762     0.007393     0.006263
Rotational constants in MHz :   592.449578   221.621704   187.767408

                             ****ORCA TERMINATED NORMALLY****
TOTAL RUN TIME: 0 days 0 hours 0 minutes 33 seconds 822 msec
