                         Program Version 4.2.1 -  RELEASE  -
|  1> ! wB97X-D3 SP def2-SVP
|  2> %pal
|  3> nprocs 16
|  4> end
|  5>
|  6> * xyz 0 1
|  7> S 	 4.86459 	 -7.56281 	 79.4234
|  8> C 	 6.32916 	 -7.22895 	 80.2795
|  9> C 	 6.24349 	 -6.05289 	 80.9891
| 10> C 	 5.01533 	 -5.37586 	 80.7231
| 11> C 	 4.13505 	 -6.09922 	 79.9122
| 12> H 	 4.74252 	 -4.4074 	 81.0871
| 13> C 	 7.29151 	 -5.37323 	 81.8799
| 14> H 	 7.76428 	 -6.19759 	 82.4581
| 15> H 	 6.68628 	 -4.83229 	 82.5696
| 16> C 	 8.34125 	 -4.47847 	 81.1427
| 17> H 	 9.26389 	 -4.31151 	 81.6825
| 18> H 	 8.72887 	 -5.02215 	 80.2738
| 19> C 	 7.74872 	 -3.16197 	 80.6837
| 20> H 	 8.55759 	 -2.48917 	 80.3278
| 21> H 	 7.07832 	 -3.35765 	 79.8478
| 22> H 	 7.17028 	 -2.69577 	 81.4393
| 23> S 	 2.69108 	 -4.2516 	 78.5319
| 24> C 	 1.09037 	 -4.6677 	 78.124
| 25> C 	 0.57171 	 -5.77208 	 78.771
| 26> C 	 1.60597 	 -6.41774 	 79.5039
| 27> C 	 2.80556 	 -5.74652 	 79.4985
| 28> H 	 -0.462138 	 -6.07216 	 78.4939
| 29> C 	 1.38824 	 -7.73895 	 80.2029
| 30> H 	 2.26708 	 -8.29212 	 80.3381
| 31> H 	 0.793187 	 -8.3929 	 79.5785
| 32> C 	 0.740745 	 -7.58695 	 81.6332
| 33> H 	 -0.254726 	 -7.42507 	 81.3269
| 34> H 	 1.14927 	 -6.77856 	 82.2106
| 35> C 	 0.811527 	 -8.85579 	 82.4492
| 36> H 	 1.79579 	 -8.96543 	 82.9016
| 37> H 	 0.484956 	 -9.75396 	 81.9763
| 38> H 	 0.126592 	 -8.67496 	 83.2648
| 39> H 	 7.21451 	 -7.86371 	 80.352
| 40> H 	 0.492799 	 -4.04186 	 77.4564
| 41> *
| 42>
| 43>                          ****END OF INPUT****

CARTESIAN COORDINATES (ANGSTROEM)
---------------------------------
  S      4.864590   -7.562810   79.423400
  C      6.329160   -7.228950   80.279500
  C      6.243490   -6.052890   80.989100
  C      5.015330   -5.375860   80.723100
  C      4.135050   -6.099220   79.912200
  H      4.742520   -4.407400   81.087100
  C      7.291510   -5.373230   81.879900
  H      7.764280   -6.197590   82.458100
  H      6.686280   -4.832290   82.569600
  C      8.341250   -4.478470   81.142700
  H      9.263890   -4.311510   81.682500
  H      8.728870   -5.022150   80.273800
  C      7.748720   -3.161970   80.683700
  H      8.557590   -2.489170   80.327800
  H      7.078320   -3.357650   79.847800
  H      7.170280   -2.695770   81.439300
  S      2.691080   -4.251600   78.531900
  C      1.090370   -4.667700   78.124000
  C      0.571710   -5.772080   78.771000
  C      1.605970   -6.417740   79.503900
  C      2.805560   -5.746520   79.498500
  H     -0.462138   -6.072160   78.493900
  C      1.388240   -7.738950   80.202900
  H      2.267080   -8.292120   80.338100
  H      0.793187   -8.392900   79.578500
  C      0.740745   -7.586950   81.633200
  H     -0.254726   -7.425070   81.326900
  H      1.149270   -6.778560   82.210600
  C      0.811527   -8.855790   82.449200
  H      1.795790   -8.965430   82.901600
  H      0.484956   -9.753960   81.976300
  H      0.126592   -8.674960   83.264800
  H      7.214510   -7.863710   80.352000
  H      0.492799   -4.041860   77.456400

 Total Charge           Charge          ....    0
 Multiplicity           Mult            ....    1
 Number of Electrons    NEL             ....  134
 Basis Dimension        Dim             ....  322

ORBITAL ENERGIES
----------------

  NO   OCC          E(Eh)            E(eV)
   0   2.0000     -88.966655     -2420.9058
   1   2.0000     -88.964029     -2420.8343
   2   2.0000     -10.323590      -280.9192
   3   2.0000     -10.321681      -280.8672
   4   2.0000     -10.314870      -280.6819
   5   2.0000     -10.309429      -280.5338
   6   2.0000     -10.303526      -280.3732
   7   2.0000     -10.297359      -280.2054
   8   2.0000     -10.295829      -280.1637
   9   2.0000     -10.293911      -280.1115
  10   2.0000     -10.288805      -279.9726
  11   2.0000     -10.285676      -279.8875
  12   2.0000     -10.280943      -279.7587
  13   2.0000     -10.276993      -279.6512
  14   2.0000     -10.272475      -279.5283
  15   2.0000     -10.269286      -279.4415
  16   2.0000      -8.081888      -219.9193
  17   2.0000      -8.079454      -219.8531
  18   2.0000      -6.040374      -164.3669
  19   2.0000      -6.037736      -164.2951
  20   2.0000      -6.036102      -164.2507
  21   2.0000      -6.033952      -164.1922
  22   2.0000      -6.032869      -164.1627
  23   2.0000      -6.030320      -164.0934
  24   2.0000      -1.011265       -27.5179
  25   2.0000      -0.988243       -26.8914
  26   2.0000      -0.909844       -24.7581
  27   2.0000      -0.907552       -24.6957
  28   2.0000      -0.870403       -23.6849
  29   2.0000      -0.855929       -23.2910
  30   2.0000      -0.846922       -23.0459
  31   2.0000      -0.810441       -22.0532
  32   2.0000      -0.784727       -21.3535
  33   2.0000      -0.771478       -20.9930
  34   2.0000      -0.706068       -19.2131
  35   2.0000      -0.702174       -19.1071
  36   2.0000      -0.693575       -18.8731
  37   2.0000      -0.661492       -18.0001
  38   2.0000      -0.638917       -17.3858
  39   2.0000      -0.612469       -16.6661
  40   2.0000      -0.595897       -16.2152
  41   2.0000      -0.572826       -15.5874
  42   2.0000      -0.567384       -15.4393
  43   2.0000      -0.549682       -14.9576
  44   2.0000      -0.540586       -14.7101
  45   2.0000      -0.522863       -14.2278
  46   2.0000      -0.517999       -14.0955
  47   2.0000      -0.513984       -13.9862
  48   2.0000      -0.503577       -13.7030
  49   2.0000      -0.493442       -13.4272
  50   2.0000      -0.485223       -13.2036
  51   2.0000      -0.477109       -12.9828
  52   2.0000      -0.474138       -12.9019
  53   2.0000      -0.466352       -12.6901
  54   2.0000      -0.464124       -12.6294
  55   2.0000      -0.449825       -12.2403
  56   2.0000      -0.441037       -12.0012
  57   2.0000      -0.440087       -11.9754
  58   2.0000      -0.434799       -11.8315
  59   2.0000      -0.429013       -11.6740
  60   2.0000      -0.425423       -11.5764
  61   2.0000      -0.412155       -11.2153
  62   2.0000      -0.405899       -11.0451
  63   2.0000      -0.342287        -9.3141
  64   2.0000      -0.332326        -9.0431
  65   2.0000      -0.330294        -8.9877
  66   2.0000      -0.290583        -7.9072
  67   0.0000       0.036856         1.0029
  68   0.0000       0.067782         1.8445
  69   0.0000       0.109170         2.9707
  70   0.0000       0.121191         3.2978
  71   0.0000       0.135963         3.6997

MULLIKEN ATOMIC CHARGES
-----------------------
   0 S :    0.136742
   1 C :   -0.132769
   2 C :   -0.107475
   3 C :    0.022199
   4 C :   -0.151379
   5 H :   -0.004388
   6 C :    0.077695
   7 H :    0.029079
   8 H :    0.016303
   9 C :   -0.045845
  10 H :    0.025821
  11 H :    0.022250
  12 C :   -0.049029
  13 H :    0.039341
  14 H :    0.040164
  15 H :    0.020705
  16 S :    0.114052
  17 C :   -0.099570
  18 C :   -0.047810
  19 C :   -0.030084
  20 C :   -0.152919
  21 H :    0.035867
  22 C :    0.081495
  23 H :   -0.008454
  24 H :    0.016198
  25 C :   -0.059934
  26 H :    0.013820
  27 H :    0.037241
  28 C :   -0.025727
  29 H :    0.038011
  30 H :    0.024368
  31 H :    0.023797
  32 H :    0.044335
  33 H :    0.055900
Sum of atomic charges:   -0.0000000

LOEWDIN ATOMIC CHARGES
----------------------
   0 S :    0.448685
   1 C :   -0.214111
   2 C :   -0.065625
   3 C :   -0.068547
   4 C :   -0.211868
   5 H :    0.023325
   6 C :   -0.026353
   7 H :    0.034259
   8 H :    0.024079
   9 C :   -0.040762
  10 H :    0.021601
  11 H :    0.026653
  12 C :   -0.063928
  13 H :    0.032081
  14 H :    0.028171
  15 H :    0.016414
  16 S :    0.412285
  17 C :   -0.188821
  18 C :   -0.081501
  19 C :   -0.048092
  20 C :   -0.196299
  21 H :    0.042265
  22 C :   -0.028749
  23 H :    0.008179
  24 H :    0.027689
  25 C :   -0.026436
  26 H :    0.016226
  27 H :    0.026807
  28 C :   -0.061755
  29 H :    0.027569
  30 H :    0.020414
  31 H :    0.027906
  32 H :    0.031177
  33 H :    0.027059

  Mayer bond orders larger than 0.100000
B(  0-S ,  1-C ) :   1.1508 B(  0-S ,  4-C ) :   1.1732 B(  1-C ,  2-C ) :   1.6010
B(  1-C , 32-H ) :   0.9663 B(  2-C ,  3-C ) :   1.2632 B(  2-C ,  6-C ) :   1.0112
B(  3-C ,  4-C ) :   1.5366 B(  3-C ,  5-H ) :   0.9974 B(  4-C , 20-C ) :   1.0420
B(  6-C ,  7-H ) :   0.9386 B(  6-C ,  8-H ) :   0.9472 B(  6-C ,  9-C ) :   1.0566
B(  9-C , 10-H ) :   0.9598 B(  9-C , 11-H ) :   0.9540 B(  9-C , 12-C ) :   1.0804
B( 12-C , 13-H ) :   0.9712 B( 12-C , 14-H ) :   0.9738 B( 12-C , 15-H ) :   0.9772
B( 16-S , 17-C ) :   1.1822 B( 16-S , 20-C ) :   1.1204 B( 17-C , 18-C ) :   1.6174
B( 17-C , 33-H ) :   0.9608 B( 18-C , 19-C ) :   1.2100 B( 18-C , 21-H ) :   0.9894
B( 19-C , 20-C ) :   1.6160 B( 19-C , 22-C ) :   1.0557 B( 22-C , 23-H ) :   0.9312
B( 22-C , 24-H ) :   0.9329 B( 22-C , 25-C ) :   1.0453 B( 25-C , 26-H ) :   0.9589
B( 25-C , 27-H ) :   0.9593 B( 25-C , 28-C ) :   1.0990 B( 28-C , 29-H ) :   0.9741
B( 28-C , 30-H ) :   0.9721 B( 28-C , 31-H ) :   0.9709

Dispersion correction           -0.014407135
FINAL SINGLE POINT ENERGY     -1339.885811005104

DIPOLE MOMENT
-------------
                                X             Y             Z
Electronic contribution:     -3.94516       1.28455     -14.88068
Nuclear contribution   :      3.88097      -1.32647      15.09533
                        -----------------------------------------
Total Dipole Moment    :     -0.06419      -0.04192       0.21465
                        -----------------------------------------
Magnitude (a.u.)       :      0.22793
Magnitude (Debye)      :      0.57936

Rotational constants in cm-1:     0.019575     0.008626     0.006932
Rotational constants in MHz :   586.843909   258.595757   207.825161

                             ****ORCA TERMINATED NORMALLY****
TOTAL RUN TIME: 0 days 0 hours 0 minutes 32 seconds 966 msec
