                         Program Version 4.2.1 -  RELEASE  -
|  1> ! wB97X-D3 SP def2-SVP
|  2> %pal
|  3> nprocs 16
|  4> end
|  5>
|  6> * xyz 0 1
|  7> S 	 -65.6966 	 39.3804 	 134.996
|  8> C 	 -64.198 	 40.257 	 135.108
|  9> C 	 -63.1935 	 39.6062 	 135.785
| 10> C 	 -63.6712 	 38.3118 	 136.201
| 11> C 	 -64.9206 	 37.99 	 135.739
| 12> H 	 -63.0544 	 37.5548 	 136.692
| 13> C 	 -61.7289 	 40.0898 	 135.935
| 14> H 	 -61.758 	 40.3933 	 136.964
| 15> H 	 -61.6343 	 40.9916 	 135.352
| 16> C 	 -60.6011 	 39.1785 	 135.58
| 17> H 	 -60.7358 	 38.3679 	 136.151
| 18> H 	 -60.7927 	 38.9528 	 134.613
| 19> C 	 -59.1379 	 39.6148 	 135.852
| 20> H 	 -58.9995 	 39.5248 	 136.919
| 21> H 	 -58.478 	 38.9348 	 135.332
| 22> H 	 -59.0188 	 40.6965 	 135.786
| 23> S 	 -67.1765 	 36.8782 	 136.841
| 24> C 	 -67.2186 	 35.1186 	 136.976
| 25> C 	 -66.0703 	 34.4766 	 136.524
| 26> C 	 -65.2048 	 35.4061 	 135.884
| 27> C 	 -65.6023 	 36.7595 	 136.046
| 28> H 	 -65.846 	 33.4686 	 136.678
| 29> C 	 -63.9672 	 34.9516 	 135.149
| 30> H 	 -63.7485 	 33.861 	 135.347
| 31> H 	 -63.1502 	 35.5505 	 135.644
| 32> C 	 -63.9715 	 35.0321 	 133.605
| 33> H 	 -63.0978 	 34.575 	 133.141
| 34> H 	 -63.8067 	 36.1065 	 133.381
| 35> C 	 -65.2124 	 34.5874 	 132.777
| 36> H 	 -66.0554 	 34.8821 	 133.236
| 37> H 	 -65.1844 	 33.501 	 132.71
| 38> H 	 -65.2991 	 34.9552 	 131.737
| 39> H 	 -64.096 	 41.3027 	 134.919
| 40> H 	 -68.053 	 34.5604 	 137.391
| 41> *
| 42>
| 43>                          ****END OF INPUT****

CARTESIAN COORDINATES (ANGSTROEM)
---------------------------------
  S    -65.696600   39.380400  134.996000
  C    -64.198000   40.257000  135.108000
  C    -63.193500   39.606200  135.785000
  C    -63.671200   38.311800  136.201000
  C    -64.920600   37.990000  135.739000
  H    -63.054400   37.554800  136.692000
  C    -61.728900   40.089800  135.935000
  H    -61.758000   40.393300  136.964000
  H    -61.634300   40.991600  135.352000
  C    -60.601100   39.178500  135.580000
  H    -60.735800   38.367900  136.151000
  H    -60.792700   38.952800  134.613000
  C    -59.137900   39.614800  135.852000
  H    -58.999500   39.524800  136.919000
  H    -58.478000   38.934800  135.332000
  H    -59.018800   40.696500  135.786000
  S    -67.176500   36.878200  136.841000
  C    -67.218600   35.118600  136.976000
  C    -66.070300   34.476600  136.524000
  C    -65.204800   35.406100  135.884000
  C    -65.602300   36.759500  136.046000
  H    -65.846000   33.468600  136.678000
  C    -63.967200   34.951600  135.149000
  H    -63.748500   33.861000  135.347000
  H    -63.150200   35.550500  135.644000
  C    -63.971500   35.032100  133.605000
  H    -63.097800   34.575000  133.141000
  H    -63.806700   36.106500  133.381000
  C    -65.212400   34.587400  132.777000
  H    -66.055400   34.882100  133.236000
  H    -65.184400   33.501000  132.710000
  H    -65.299100   34.955200  131.737000
  H    -64.096000   41.302700  134.919000
  H    -68.053000   34.560400  137.391000

 Total Charge           Charge          ....    0
 Multiplicity           Mult            ....    1
 Number of Electrons    NEL             ....  134
 Basis Dimension        Dim             ....  322

ORBITAL ENERGIES
----------------

  NO   OCC          E(Eh)            E(eV)
   0   2.0000     -88.969323     -2420.9784
   1   2.0000     -88.967570     -2420.9307
   2   2.0000     -10.327034      -281.0129
   3   2.0000     -10.326508      -280.9986
   4   2.0000     -10.320072      -280.8234
   5   2.0000     -10.309425      -280.5337
   6   2.0000     -10.305237      -280.4198
   7   2.0000     -10.302854      -280.3549
   8   2.0000     -10.299460      -280.2626
   9   2.0000     -10.293795      -280.1084
  10   2.0000     -10.292248      -280.0663
  11   2.0000     -10.289522      -279.9921
  12   2.0000     -10.284604      -279.8583
  13   2.0000     -10.281892      -279.7845
  14   2.0000     -10.268798      -279.4282
  15   2.0000     -10.266288      -279.3599
  16   2.0000      -8.083420      -219.9610
  17   2.0000      -8.082417      -219.9337
  18   2.0000      -6.041853      -164.4072
  19   2.0000      -6.040883      -164.3808
  20   2.0000      -6.038104      -164.3052
  21   2.0000      -6.037094      -164.2777
  22   2.0000      -6.034216      -164.1994
  23   2.0000      -6.033032      -164.1671
  24   2.0000      -1.005789       -27.3689
  25   2.0000      -0.981117       -26.6976
  26   2.0000      -0.919458       -25.0197
  27   2.0000      -0.900651       -24.5080
  28   2.0000      -0.872930       -23.7536
  29   2.0000      -0.850991       -23.1566
  30   2.0000      -0.846527       -23.0352
  31   2.0000      -0.813861       -22.1463
  32   2.0000      -0.788430       -21.4543
  33   2.0000      -0.773507       -21.0482
  34   2.0000      -0.716970       -19.5097
  35   2.0000      -0.703498       -19.1431
  36   2.0000      -0.685564       -18.6551
  37   2.0000      -0.666407       -18.1338
  38   2.0000      -0.640354       -17.4249
  39   2.0000      -0.620959       -16.8972
  40   2.0000      -0.583815       -15.8864
  41   2.0000      -0.580130       -15.7861
  42   2.0000      -0.566044       -15.4028
  43   2.0000      -0.550392       -14.9769
  44   2.0000      -0.547506       -14.8984
  45   2.0000      -0.535855       -14.5814
  46   2.0000      -0.514925       -14.0118
  47   2.0000      -0.503617       -13.7041
  48   2.0000      -0.497364       -13.5340
  49   2.0000      -0.493880       -13.4391
  50   2.0000      -0.491665       -13.3789
  51   2.0000      -0.485907       -13.2222
  52   2.0000      -0.466567       -12.6959
  53   2.0000      -0.465602       -12.6697
  54   2.0000      -0.461293       -12.5524
  55   2.0000      -0.455187       -12.3863
  56   2.0000      -0.448087       -12.1931
  57   2.0000      -0.447284       -12.1712
  58   2.0000      -0.438590       -11.9346
  59   2.0000      -0.424336       -11.5468
  60   2.0000      -0.419239       -11.4081
  61   2.0000      -0.418476       -11.3873
  62   2.0000      -0.395146       -10.7525
  63   2.0000      -0.344778        -9.3819
  64   2.0000      -0.334053        -9.0901
  65   2.0000      -0.328230        -8.9316
  66   2.0000      -0.288563        -7.8522
  67   0.0000       0.026295         0.7155
  68   0.0000       0.069201         1.8831
  69   0.0000       0.102478         2.7886
  70   0.0000       0.119553         3.2532
  71   0.0000       0.133416         3.6304

MULLIKEN ATOMIC CHARGES
-----------------------
   0 S :    0.113372
   1 C :   -0.108995
   2 C :   -0.112256
   3 C :    0.011622
   4 C :   -0.152956
   5 H :    0.021706
   6 C :    0.082789
   7 H :    0.025667
   8 H :    0.007097
   9 C :   -0.006186
  10 H :   -0.005574
  11 H :    0.010836
  12 C :   -0.022342
  13 H :    0.015885
  14 H :    0.049491
  15 H :    0.027128
  16 S :    0.113281
  17 C :   -0.093379
  18 C :   -0.005906
  19 C :   -0.063072
  20 C :   -0.155147
  21 H :    0.003044
  22 C :    0.057675
  23 H :    0.022630
  24 H :    0.036976
  25 C :   -0.085240
  26 H :    0.026043
  27 H :    0.030049
  28 C :   -0.014704
  29 H :    0.015769
  30 H :    0.021350
  31 H :    0.037292
  32 H :    0.037809
  33 H :    0.058245
Sum of atomic charges:   -0.0000000

LOEWDIN ATOMIC CHARGES
----------------------
   0 S :    0.401447
   1 C :   -0.199199
   2 C :   -0.057740
   3 C :   -0.060259
   4 C :   -0.197053
   5 H :    0.029800
   6 C :   -0.023378
   7 H :    0.029174
   8 H :    0.024984
   9 C :   -0.028925
  10 H :    0.008458
  11 H :    0.014222
  12 C :   -0.054946
  13 H :    0.025805
  14 H :    0.032478
  15 H :    0.026876
  16 S :    0.399384
  17 C :   -0.177221
  18 C :   -0.061290
  19 C :   -0.054731
  20 C :   -0.198657
  21 H :    0.024968
  22 C :   -0.038380
  23 H :    0.031370
  24 H :    0.038797
  25 C :   -0.045003
  26 H :    0.022904
  27 H :    0.025560
  28 C :   -0.056100
  29 H :    0.008495
  30 H :    0.022743
  31 H :    0.034658
  32 H :    0.022772
  33 H :    0.027989

  Mayer bond orders larger than 0.100000
B(  0-S ,  1-C ) :   1.1338 B(  0-S ,  4-C ) :   1.1318 B(  1-C ,  2-C ) :   1.6488
B(  1-C , 32-H ) :   0.9579 B(  2-C ,  3-C ) :   1.2317 B(  2-C ,  6-C ) :   1.0050
B(  3-C ,  4-C ) :   1.5947 B(  3-C ,  5-H ) :   0.9831 B(  4-C , 20-C ) :   1.0680
B(  6-C ,  7-H ) :   0.9300 B(  6-C ,  8-H ) :   0.9390 B(  6-C ,  9-C ) :   1.0697
B(  9-C , 10-H ) :   0.9470 B(  9-C , 11-H ) :   0.9574 B(  9-C , 12-C ) :   1.0822
B( 12-C , 13-H ) :   0.9728 B( 12-C , 14-H ) :   0.9739 B( 12-C , 15-H ) :   0.9775
B( 16-S , 17-C ) :   1.1583 B( 16-S , 20-C ) :   1.1369 B( 17-C , 18-C ) :   1.5945
B( 17-C , 20-C ) :   0.1036 B( 17-C , 33-H ) :   0.9651 B( 18-C , 19-C ) :   1.2597
B( 18-C , 21-H ) :   0.9970 B( 19-C , 20-C ) :   1.5655 B( 19-C , 22-C ) :   1.0344
B( 22-C , 23-H ) :   0.9403 B( 22-C , 24-H ) :   0.9338 B( 22-C , 25-C ) :   1.0587
B( 25-C , 26-H ) :   0.9613 B( 25-C , 27-H ) :   0.9566 B( 25-C , 28-C ) :   1.0729
B( 28-C , 29-H ) :   0.9744 B( 28-C , 30-H ) :   0.9769 B( 28-C , 31-H ) :   0.9744

Dispersion correction           -0.014571717
FINAL SINGLE POINT ENERGY     -1339.848223913011

DIPOLE MOMENT
-------------
                                X             Y             Z
Electronic contribution:    -25.67264       5.54021       8.15472
Nuclear contribution   :     26.29470      -5.76294      -8.05671
                        -----------------------------------------
Total Dipole Moment    :      0.62205      -0.22273       0.09801
                        -----------------------------------------
Magnitude (a.u.)       :      0.66795
Magnitude (Debye)      :      1.69780

Rotational constants in cm-1:     0.018901     0.008458     0.007117
Rotational constants in MHz :   566.650163   253.549738   213.352472

                             ****ORCA TERMINATED NORMALLY****
TOTAL RUN TIME: 0 days 0 hours 0 minutes 35 seconds 936 msec
