                         Program Version 4.2.1 -  RELEASE  -
|  1> ! wB97X-D3 SP def2-SVP
|  2> %pal
|  3> nprocs 16
|  4> end
|  5>
|  6> * xyz 0 1
|  7> S 	 -70.9201 	 33.3489 	 115.636
|  8> C 	 -72.5969 	 33.5969 	 115.865
|  9> C 	 -73.0775 	 34.5462 	 114.978
| 10> C 	 -72.084 	 35.0229 	 114.111
| 11> C 	 -70.8194 	 34.4879 	 114.292
| 12> H 	 -72.1628 	 35.6846 	 113.333
| 13> C 	 -74.5486 	 34.7833 	 114.808
| 14> H 	 -74.9251 	 33.9918 	 115.471
| 15> H 	 -74.661 	 34.3877 	 113.741
| 16> C 	 -75.0967 	 36.1814 	 114.995
| 17> H 	 -74.6489 	 36.6486 	 115.849
| 18> H 	 -74.7511 	 36.8566 	 114.151
| 19> C 	 -76.6615 	 36.1863 	 115.192
| 20> H 	 -76.9286 	 35.9175 	 116.211
| 21> H 	 -77.039 	 37.0906 	 114.769
| 22> H 	 -77.1486 	 35.3911 	 114.631
| 23> S 	 -68.9217 	 33.1455 	 112.844
| 24> C 	 -67.6659 	 34.0179 	 111.93
| 25> C 	 -67.8029 	 35.3639 	 112.128
| 26> C 	 -68.9606 	 35.7518 	 112.912
| 27> C 	 -69.6483 	 34.6276 	 113.448
| 28> H 	 -67.1175 	 36.1011 	 111.608
| 29> C 	 -69.4621 	 37.1797 	 113.05
| 30> H 	 -70.1903 	 37.3132 	 112.334
| 31> H 	 -68.5768 	 37.6752 	 112.631
| 32> C 	 -69.7413 	 37.7267 	 114.456
| 33> H 	 -68.7979 	 37.5235 	 115.018
| 34> H 	 -70.5506 	 37.1998 	 114.996
| 35> C 	 -70.0308 	 39.2619 	 114.393
| 36> H 	 -70.8968 	 39.4438 	 113.799
| 37> H 	 -69.1815 	 39.8919 	 114.047
| 38> H 	 -70.359 	 39.6815 	 115.35
| 39> H 	 -73.2263 	 33.0863 	 116.568
| 40> H 	 -66.978 	 33.6122 	 111.24
| 41> *
| 42>
| 43>                          ****END OF INPUT****

CARTESIAN COORDINATES (ANGSTROEM)
---------------------------------
  S    -70.920100   33.348900  115.636000
  C    -72.596900   33.596900  115.865000
  C    -73.077500   34.546200  114.978000
  C    -72.084000   35.022900  114.111000
  C    -70.819400   34.487900  114.292000
  H    -72.162800   35.684600  113.333000
  C    -74.548600   34.783300  114.808000
  H    -74.925100   33.991800  115.471000
  H    -74.661000   34.387700  113.741000
  C    -75.096700   36.181400  114.995000
  H    -74.648900   36.648600  115.849000
  H    -74.751100   36.856600  114.151000
  C    -76.661500   36.186300  115.192000
  H    -76.928600   35.917500  116.211000
  H    -77.039000   37.090600  114.769000
  H    -77.148600   35.391100  114.631000
  S    -68.921700   33.145500  112.844000
  C    -67.665900   34.017900  111.930000
  C    -67.802900   35.363900  112.128000
  C    -68.960600   35.751800  112.912000
  C    -69.648300   34.627600  113.448000
  H    -67.117500   36.101100  111.608000
  C    -69.462100   37.179700  113.050000
  H    -70.190300   37.313200  112.334000
  H    -68.576800   37.675200  112.631000
  C    -69.741300   37.726700  114.456000
  H    -68.797900   37.523500  115.018000
  H    -70.550600   37.199800  114.996000
  C    -70.030800   39.261900  114.393000
  H    -70.896800   39.443800  113.799000
  H    -69.181500   39.891900  114.047000
  H    -70.359000   39.681500  115.350000
  H    -73.226300   33.086300  116.568000
  H    -66.978000   33.612200  111.240000

 Total Charge           Charge          ....    0
 Multiplicity           Mult            ....    1
 Number of Electrons    NEL             ....  134
 Basis Dimension        Dim             ....  322

ORBITAL ENERGIES
----------------

  NO   OCC          E(Eh)            E(eV)
   0   2.0000     -88.965171     -2420.8654
   1   2.0000     -88.964819     -2420.8558
   2   2.0000     -10.330427      -281.1052
   3   2.0000     -10.329694      -281.0853
   4   2.0000     -10.317837      -280.7626
   5   2.0000     -10.309992      -280.5491
   6   2.0000     -10.308608      -280.5115
   7   2.0000     -10.301850      -280.3276
   8   2.0000     -10.295540      -280.1559
   9   2.0000     -10.295238      -280.1477
  10   2.0000     -10.293525      -280.1011
  11   2.0000     -10.291126      -280.0358
  12   2.0000     -10.286594      -279.9124
  13   2.0000     -10.285314      -279.8776
  14   2.0000     -10.280264      -279.7402
  15   2.0000     -10.278844      -279.7016
  16   2.0000      -8.079879      -219.8647
  17   2.0000      -8.079198      -219.8462
  18   2.0000      -6.038277      -164.3099
  19   2.0000      -6.037845      -164.2981
  20   2.0000      -6.034175      -164.1982
  21   2.0000      -6.033656      -164.1841
  22   2.0000      -6.030897      -164.1090
  23   2.0000      -6.029979      -164.0841
  24   2.0000      -1.007290       -27.4098
  25   2.0000      -0.982724       -26.7413
  26   2.0000      -0.911547       -24.8045
  27   2.0000      -0.905474       -24.6392
  28   2.0000      -0.872338       -23.7375
  29   2.0000      -0.851201       -23.1623
  30   2.0000      -0.843339       -22.9484
  31   2.0000      -0.820720       -22.3329
  32   2.0000      -0.780201       -21.2304
  33   2.0000      -0.768506       -20.9121
  34   2.0000      -0.717673       -19.5289
  35   2.0000      -0.704186       -19.1619
  36   2.0000      -0.692725       -18.8500
  37   2.0000      -0.659955       -17.9583
  38   2.0000      -0.647870       -17.6294
  39   2.0000      -0.619673       -16.8622
  40   2.0000      -0.591035       -16.0829
  41   2.0000      -0.568683       -15.4746
  42   2.0000      -0.563825       -15.3425
  43   2.0000      -0.559070       -15.2131
  44   2.0000      -0.530487       -14.4353
  45   2.0000      -0.519696       -14.1416
  46   2.0000      -0.516501       -14.0547
  47   2.0000      -0.509228       -13.8568
  48   2.0000      -0.505976       -13.7683
  49   2.0000      -0.505001       -13.7418
  50   2.0000      -0.491866       -13.3844
  51   2.0000      -0.486138       -13.2285
  52   2.0000      -0.476826       -12.9751
  53   2.0000      -0.464039       -12.6271
  54   2.0000      -0.459648       -12.5077
  55   2.0000      -0.446525       -12.1506
  56   2.0000      -0.442806       -12.0494
  57   2.0000      -0.437101       -11.8941
  58   2.0000      -0.431436       -11.7400
  59   2.0000      -0.425610       -11.5814
  60   2.0000      -0.421826       -11.4785
  61   2.0000      -0.412957       -11.2371
  62   2.0000      -0.409165       -11.1339
  63   2.0000      -0.351389        -9.5618
  64   2.0000      -0.329392        -8.9632
  65   2.0000      -0.327093        -8.9007
  66   2.0000      -0.289410        -7.8752
  67   0.0000       0.026568         0.7230
  68   0.0000       0.070326         1.9137
  69   0.0000       0.116072         3.1585
  70   0.0000       0.123477         3.3600
  71   0.0000       0.131744         3.5849

MULLIKEN ATOMIC CHARGES
-----------------------
   0 S :    0.118110
   1 C :   -0.120861
   2 C :   -0.092523
   3 C :    0.068667
   4 C :   -0.167581
   5 H :   -0.032860
   6 C :    0.045232
   7 H :    0.010117
   8 H :    0.051431
   9 C :   -0.073507
  10 H :    0.028667
  11 H :    0.037396
  12 C :   -0.026327
  13 H :    0.038679
  14 H :    0.034825
  15 H :    0.020969
  16 S :    0.100411
  17 C :   -0.076521
  18 C :   -0.049575
  19 C :   -0.068715
  20 C :   -0.150714
  21 H :    0.043123
  22 C :    0.087639
  23 H :    0.022341
  24 H :    0.005263
  25 C :   -0.084842
  26 H :    0.038633
  27 H :    0.058298
  28 C :   -0.042375
  29 H :    0.017707
  30 H :    0.041228
  31 H :    0.026700
  32 H :    0.045268
  33 H :    0.045699
Sum of atomic charges:    0.0000000

LOEWDIN ATOMIC CHARGES
----------------------
   0 S :    0.418649
   1 C :   -0.211166
   2 C :   -0.070609
   3 C :   -0.054357
   4 C :   -0.191416
   5 H :    0.015053
   6 C :   -0.040122
   7 H :    0.029719
   8 H :    0.045819
   9 C :   -0.044367
  10 H :    0.022144
  11 H :    0.031170
  12 C :   -0.060810
  13 H :    0.028446
  14 H :    0.025174
  15 H :    0.024648
  16 S :    0.395205
  17 C :   -0.174028
  18 C :   -0.079940
  19 C :   -0.054330
  20 C :   -0.198156
  21 H :    0.042115
  22 C :   -0.032870
  23 H :    0.018814
  24 H :    0.034149
  25 C :   -0.039588
  26 H :    0.032366
  27 H :    0.029651
  28 C :   -0.069056
  29 H :    0.019222
  30 H :    0.029286
  31 H :    0.026350
  32 H :    0.027019
  33 H :    0.025816

  Mayer bond orders larger than 0.100000
B(  0-S ,  1-C ) :   1.1552 B(  0-S ,  4-C ) :   1.1566 B(  1-C ,  2-C ) :   1.5759
B(  1-C , 32-H ) :   0.9659 B(  2-C ,  3-C ) :   1.2577 B(  2-C ,  6-C ) :   1.0155
B(  3-C ,  4-C ) :   1.5440 B(  3-C ,  5-H ) :   1.0128 B(  4-C , 20-C ) :   1.0625
B(  6-C ,  7-H ) :   0.9449 B(  6-C ,  8-H ) :   0.9339 B(  6-C ,  9-C ) :   1.0502
B(  9-C , 10-H ) :   0.9620 B(  9-C , 11-H ) :   0.9552 B(  9-C , 12-C ) :   1.0687
B( 12-C , 13-H ) :   0.9774 B( 12-C , 14-H ) :   0.9769 B( 12-C , 15-H ) :   0.9771
B( 16-S , 17-C ) :   1.1437 B( 16-S , 20-C ) :   1.1433 B( 17-C , 18-C ) :   1.6172
B( 17-C , 33-H ) :   0.9705 B( 18-C , 19-C ) :   1.2620 B( 18-C , 21-H ) :   0.9704
B( 19-C , 20-C ) :   1.5627 B( 19-C , 22-C ) :   1.0243 B( 22-C , 23-H ) :   0.9313
B( 22-C , 24-H ) :   0.9283 B( 22-C , 25-C ) :   1.0529 B( 25-C , 26-H ) :   0.9564
B( 25-C , 27-H ) :   0.9539 B( 25-C , 28-C ) :   1.0792 B( 28-C , 29-H ) :   0.9735
B( 28-C , 30-H ) :   0.9766 B( 28-C , 31-H ) :   0.9743

Dispersion correction           -0.014170901
FINAL SINGLE POINT ENERGY     -1339.869210429661

DIPOLE MOMENT
-------------
                                X             Y             Z
Electronic contribution:     18.46261     -24.01720      -2.04287
Nuclear contribution   :    -18.85547      24.53854       1.76300
                        -----------------------------------------
Total Dipole Moment    :     -0.39286       0.52134      -0.27987
                        -----------------------------------------
Magnitude (a.u.)       :      0.71026
Magnitude (Debye)      :      1.80533

Rotational constants in cm-1:     0.018428     0.008557     0.006591
Rotational constants in MHz :   552.456254   256.519065   197.592843

                             ****ORCA TERMINATED NORMALLY****
TOTAL RUN TIME: 0 days 0 hours 0 minutes 33 seconds 412 msec
