                         Program Version 4.2.1 -  RELEASE  -
|  1> ! wB97X-D3 SP def2-SVP
|  2> %pal
|  3> nprocs 16
|  4> end
|  5>
|  6> * xyz 0 1
|  7> S 	 -1.45995 	 -13.3236 	 52.6092
|  8> C 	 -2.01412 	 -12.6551 	 51.1088
|  9> C 	 -3.36937 	 -12.4691 	 51.1139
| 10> C 	 -4.00599 	 -12.9315 	 52.315
| 11> C 	 -3.09632 	 -13.4484 	 53.2327
| 12> H 	 -5.06178 	 -13.0525 	 52.5703
| 13> C 	 -4.1599 	 -11.757 	 50.024
| 14> H 	 -4.98577 	 -12.4348 	 49.7996
| 15> H 	 -3.61448 	 -11.9738 	 49.1008
| 16> C 	 -4.53934 	 -10.2876 	 50.3487
| 17> H 	 -5.14668 	 -9.81951 	 49.5689
| 18> H 	 -5.22075 	 -10.4049 	 51.2128
| 19> C 	 -3.43092 	 -9.34922 	 50.7716
| 20> H 	 -2.57419 	 -9.38198 	 50.1911
| 21> H 	 -3.77284 	 -8.28876 	 50.5735
| 22> H 	 -3.0115 	 -9.42562 	 51.8168
| 23> S 	 -2.71623 	 -15.5548 	 54.9938
| 24> C 	 -3.13913 	 -15.3117 	 56.659
| 25> C 	 -3.92711 	 -14.158 	 56.7703
| 26> C 	 -4.10217 	 -13.4242 	 55.5242
| 27> C 	 -3.42846 	 -13.9909 	 54.4842
| 28> H 	 -4.32038 	 -13.877 	 57.7438
| 29> C 	 -4.77297 	 -12.0726 	 55.5036
| 30> H 	 -5.13305 	 -11.9175 	 56.5346
| 31> H 	 -5.71913 	 -12.1727 	 54.8881
| 32> C 	 -3.94072 	 -10.8117 	 55.1048
| 33> H 	 -3.45178 	 -10.9303 	 54.123
| 34> H 	 -3.21531 	 -10.7382 	 55.8436
| 35> C 	 -4.80521 	 -9.5757 	 55.3727
| 36> H 	 -4.23213 	 -8.58617 	 55.1747
| 37> H 	 -5.12243 	 -9.63196 	 56.4447
| 38> H 	 -5.6395 	 -9.49322 	 54.6697
| 39> H 	 -1.38409 	 -12.1345 	 50.4237
| 40> H 	 -2.8247 	 -15.929 	 57.521
| 41> *
| 42>
| 43>                          ****END OF INPUT****

CARTESIAN COORDINATES (ANGSTROEM)
---------------------------------
  S     -1.459950  -13.323600   52.609200
  C     -2.014120  -12.655100   51.108800
  C     -3.369370  -12.469100   51.113900
  C     -4.005990  -12.931500   52.315000
  C     -3.096320  -13.448400   53.232700
  H     -5.061780  -13.052500   52.570300
  C     -4.159900  -11.757000   50.024000
  H     -4.985770  -12.434800   49.799600
  H     -3.614480  -11.973800   49.100800
  C     -4.539340  -10.287600   50.348700
  H     -5.146680   -9.819510   49.568900
  H     -5.220750  -10.404900   51.212800
  C     -3.430920   -9.349220   50.771600
  H     -2.574190   -9.381980   50.191100
  H     -3.772840   -8.288760   50.573500
  H     -3.011500   -9.425620   51.816800
  S     -2.716230  -15.554800   54.993800
  C     -3.139130  -15.311700   56.659000
  C     -3.927110  -14.158000   56.770300
  C     -4.102170  -13.424200   55.524200
  C     -3.428460  -13.990900   54.484200
  H     -4.320380  -13.877000   57.743800
  C     -4.772970  -12.072600   55.503600
  H     -5.133050  -11.917500   56.534600
  H     -5.719130  -12.172700   54.888100
  C     -3.940720  -10.811700   55.104800
  H     -3.451780  -10.930300   54.123000
  H     -3.215310  -10.738200   55.843600
  C     -4.805210   -9.575700   55.372700
  H     -4.232130   -8.586170   55.174700
  H     -5.122430   -9.631960   56.444700
  H     -5.639500   -9.493220   54.669700
  H     -1.384090  -12.134500   50.423700
  H     -2.824700  -15.929000   57.521000

 Total Charge           Charge          ....    0
 Multiplicity           Mult            ....    1
 Number of Electrons    NEL             ....  134
 Basis Dimension        Dim             ....  322

ORBITAL ENERGIES
----------------

  NO   OCC          E(Eh)            E(eV)
   0   2.0000     -88.966952     -2420.9138
   1   2.0000     -88.962863     -2420.8026
   2   2.0000     -10.326448      -280.9969
   3   2.0000     -10.322638      -280.8933
   4   2.0000     -10.321493      -280.8621
   5   2.0000     -10.310140      -280.5532
   6   2.0000     -10.303662      -280.3769
   7   2.0000     -10.301264      -280.3116
   8   2.0000     -10.298267      -280.2301
   9   2.0000     -10.296806      -280.1903
  10   2.0000     -10.295302      -280.1494
  11   2.0000     -10.295065      -280.1430
  12   2.0000     -10.292945      -280.0853
  13   2.0000     -10.288008      -279.9509
  14   2.0000     -10.281779      -279.7814
  15   2.0000     -10.280135      -279.7367
  16   2.0000      -8.081759      -219.9159
  17   2.0000      -8.077400      -219.7972
  18   2.0000      -6.040256      -164.3637
  19   2.0000      -6.036189      -164.2531
  20   2.0000      -6.036015      -164.2483
  21   2.0000      -6.032567      -164.1545
  22   2.0000      -6.031876      -164.1357
  23   2.0000      -6.028106      -164.0331
  24   2.0000      -1.008768       -27.4500
  25   2.0000      -0.982680       -26.7401
  26   2.0000      -0.910471       -24.7752
  27   2.0000      -0.907356       -24.6904
  28   2.0000      -0.874860       -23.8061
  29   2.0000      -0.851910       -23.1817
  30   2.0000      -0.845261       -23.0007
  31   2.0000      -0.812480       -22.1087
  32   2.0000      -0.782527       -21.2936
  33   2.0000      -0.768651       -20.9160
  34   2.0000      -0.713110       -19.4047
  35   2.0000      -0.703132       -19.1332
  36   2.0000      -0.692461       -18.8428
  37   2.0000      -0.663425       -18.0527
  38   2.0000      -0.642856       -17.4930
  39   2.0000      -0.613588       -16.6966
  40   2.0000      -0.588557       -16.0154
  41   2.0000      -0.571552       -15.5527
  42   2.0000      -0.568590       -15.4721
  43   2.0000      -0.548175       -14.9166
  44   2.0000      -0.538478       -14.6527
  45   2.0000      -0.521795       -14.1988
  46   2.0000      -0.516076       -14.0431
  47   2.0000      -0.512707       -13.9515
  48   2.0000      -0.503794       -13.7089
  49   2.0000      -0.497360       -13.5339
  50   2.0000      -0.492371       -13.3981
  51   2.0000      -0.481952       -13.1146
  52   2.0000      -0.469052       -12.7636
  53   2.0000      -0.464687       -12.6448
  54   2.0000      -0.457473       -12.4485
  55   2.0000      -0.448022       -12.1913
  56   2.0000      -0.445997       -12.1362
  57   2.0000      -0.435913       -11.8618
  58   2.0000      -0.423470       -11.5232
  59   2.0000      -0.421921       -11.4811
  60   2.0000      -0.420109       -11.4317
  61   2.0000      -0.417364       -11.3570
  62   2.0000      -0.412114       -11.2142
  63   2.0000      -0.349292        -9.5047
  64   2.0000      -0.334065        -9.0904
  65   2.0000      -0.325696        -8.8626
  66   2.0000      -0.291944        -7.9442
  67   0.0000       0.023466         0.6385
  68   0.0000       0.070549         1.9197
  69   0.0000       0.113608         3.0914
  70   0.0000       0.118995         3.2380
  71   0.0000       0.126708         3.4479

MULLIKEN ATOMIC CHARGES
-----------------------
   0 S :    0.121234
   1 C :   -0.099425
   2 C :   -0.117766
   3 C :    0.008552
   4 C :   -0.171496
   5 H :    0.022929
   6 C :    0.078057
   7 H :    0.023072
   8 H :    0.009910
   9 C :   -0.035916
  10 H :    0.038246
  11 H :    0.029525
  12 C :   -0.060904
  13 H :    0.006981
  14 H :    0.034865
  15 H :    0.053410
  16 S :    0.103435
  17 C :   -0.106847
  18 C :   -0.043367
  19 C :   -0.006393
  20 C :   -0.170107
  21 H :    0.019171
  22 C :    0.012748
  23 H :    0.006774
  24 H :    0.039602
  25 C :   -0.030652
  26 H :    0.064533
  27 H :    0.014344
  28 C :   -0.082287
  29 H :    0.044995
  30 H :    0.040832
  31 H :    0.032013
  32 H :    0.044445
  33 H :    0.075487
Sum of atomic charges:   -0.0000000

LOEWDIN ATOMIC CHARGES
----------------------
   0 S :    0.413222
   1 C :   -0.201359
   2 C :   -0.063348
   3 C :   -0.062443
   4 C :   -0.192434
   5 H :    0.035861
   6 C :   -0.040309
   7 H :    0.034425
   8 H :    0.027046
   9 C :   -0.040629
  10 H :    0.029232
  11 H :    0.030173
  12 C :   -0.074664
  13 H :    0.011708
  14 H :    0.037419
  15 H :    0.035386
  16 S :    0.389101
  17 C :   -0.193098
  18 C :   -0.074822
  19 C :   -0.054789
  20 C :   -0.192774
  21 H :    0.028757
  22 C :   -0.036735
  23 H :    0.028181
  24 H :    0.033866
  25 C :   -0.035906
  26 H :    0.028900
  27 H :    0.018181
  28 C :   -0.070178
  29 H :    0.034361
  30 H :    0.030819
  31 H :    0.020133
  32 H :    0.025683
  33 H :    0.041035

  Mayer bond orders larger than 0.100000
B(  0-S ,  1-C ) :   1.1324 B(  0-S ,  4-C ) :   1.1477 B(  1-C ,  2-C ) :   1.6255
B(  1-C , 32-H ) :   0.9645 B(  2-C ,  3-C ) :   1.2225 B(  2-C ,  6-C ) :   1.0194
B(  3-C ,  4-C ) :   1.5552 B(  3-C ,  5-H ) :   0.9966 B(  4-C , 20-C ) :   1.1010
B(  6-C ,  7-H ) :   0.9392 B(  6-C ,  8-H ) :   0.9390 B(  6-C ,  9-C ) :   1.0499
B(  9-C , 10-H ) :   0.9599 B(  9-C , 11-H ) :   0.9540 B(  9-C , 12-C ) :   1.0743
B( 12-C , 13-H ) :   0.9742 B( 12-C , 14-H ) :   0.9710 B( 12-C , 15-H ) :   0.9702
B( 16-S , 17-C ) :   1.1536 B( 16-S , 20-C ) :   1.1131 B( 17-C , 18-C ) :   1.6119
B( 17-C , 33-H ) :   0.9632 B( 18-C , 19-C ) :   1.2356 B( 18-C , 21-H ) :   0.9866
B( 19-C , 20-C ) :   1.5982 B( 19-C , 22-C ) :   1.0448 B( 22-C , 23-H ) :   0.9326
B( 22-C , 24-H ) :   0.9293 B( 22-C , 25-C ) :   1.0553 B( 25-C , 26-H ) :   0.9519
B( 25-C , 27-H ) :   0.9490 B( 25-C , 28-C ) :   1.0780 B( 28-C , 29-H ) :   0.9732
B( 28-C , 30-H ) :   0.9703 B( 28-C , 31-H ) :   0.9776

Dispersion correction           -0.016138393
FINAL SINGLE POINT ENERGY     -1339.874968396873

DIPOLE MOMENT
-------------
                                X             Y             Z
Electronic contribution:     12.76594     -27.23136       4.98575
Nuclear contribution   :    -13.10315      27.83631      -4.95615
                        -----------------------------------------
Total Dipole Moment    :     -0.33722       0.60495       0.02960
                        -----------------------------------------
Magnitude (a.u.)       :      0.69322
Magnitude (Debye)      :      1.76203

Rotational constants in cm-1:     0.020188     0.010043     0.007525
Rotational constants in MHz :   605.221054   301.077046   225.587936

                             ****ORCA TERMINATED NORMALLY****
TOTAL RUN TIME: 0 days 0 hours 0 minutes 32 seconds 982 msec
