                         Program Version 4.2.1 -  RELEASE  -
|  1> ! wB97X-D3 SP def2-SVP
|  2> %pal
|  3> nprocs 16
|  4> end
|  5>
|  6> * xyz 0 1
|  7> S 	 -15.8894 	 -1.81466 	 82.4386
|  8> C 	 -15.4892 	 -1.05609 	 83.9583
|  9> C 	 -15.9503 	 0.279091 	 83.9922
| 10> C 	 -16.5601 	 0.606788 	 82.723
| 11> C 	 -16.7433 	 -0.410692 	 81.8315
| 12> H 	 -16.9477 	 1.57524 	 82.5178
| 13> C 	 -15.788 	 1.21423 	 85.1946
| 14> H 	 -16.291 	 2.20564 	 84.9395
| 15> H 	 -14.7426 	 1.4826 	 85.3706
| 16> C 	 -16.488 	 0.843527 	 86.5426
| 17> H 	 -17.5775 	 0.789507 	 86.2158
| 18> H 	 -16.1346 	 -0.173869 	 86.7582
| 19> C 	 -16.2878 	 1.78271 	 87.6806
| 20> H 	 -16.6527 	 1.42021 	 88.6065
| 21> H 	 -15.2078 	 1.91717 	 87.9695
| 22> H 	 -16.6657 	 2.81404 	 87.4399
| 23> S 	 -17.1742 	 -1.49234 	 79.2834
| 24> C 	 -18.5235 	 -0.962966 	 78.3118
| 25> C 	 -19.3172 	 -0.0665058 	 79.0143
| 26> C 	 -18.7464 	 0.304203 	 80.2608
| 27> C 	 -17.5225 	 -0.31791 	 80.6077
| 28> H 	 -20.2953 	 0.292792 	 78.6148
| 29> C 	 -19.4484 	 1.2533 	 81.1535
| 30> H 	 -19.3918 	 0.880773 	 82.1542
| 31> H 	 -20.5328 	 1.20678 	 81.0586
| 32> C 	 -18.986 	 2.71336 	 81.045
| 33> H 	 -19.192 	 3.07619 	 80.0708
| 34> H 	 -17.9669 	 2.97503 	 81.2225
| 35> C 	 -19.6992 	 3.74022 	 81.9543
| 36> H 	 -20.7643 	 3.97508 	 81.8573
| 37> H 	 -19.3302 	 4.69903 	 81.528
| 38> H 	 -19.4173 	 3.64167 	 82.9657
| 39> H 	 -14.9395 	 -1.43635 	 84.7949
| 40> H 	 -18.7936 	 -1.31162 	 77.3792
| 41> *
| 42>
| 43>                          ****END OF INPUT****

CARTESIAN COORDINATES (ANGSTROEM)
---------------------------------
  S    -15.889400   -1.814660   82.438600
  C    -15.489200   -1.056090   83.958300
  C    -15.950300    0.279091   83.992200
  C    -16.560100    0.606788   82.723000
  C    -16.743300   -0.410692   81.831500
  H    -16.947700    1.575240   82.517800
  C    -15.788000    1.214230   85.194600
  H    -16.291000    2.205640   84.939500
  H    -14.742600    1.482600   85.370600
  C    -16.488000    0.843527   86.542600
  H    -17.577500    0.789507   86.215800
  H    -16.134600   -0.173869   86.758200
  C    -16.287800    1.782710   87.680600
  H    -16.652700    1.420210   88.606500
  H    -15.207800    1.917170   87.969500
  H    -16.665700    2.814040   87.439900
  S    -17.174200   -1.492340   79.283400
  C    -18.523500   -0.962966   78.311800
  C    -19.317200   -0.066506   79.014300
  C    -18.746400    0.304203   80.260800
  C    -17.522500   -0.317910   80.607700
  H    -20.295300    0.292792   78.614800
  C    -19.448400    1.253300   81.153500
  H    -19.391800    0.880773   82.154200
  H    -20.532800    1.206780   81.058600
  C    -18.986000    2.713360   81.045000
  H    -19.192000    3.076190   80.070800
  H    -17.966900    2.975030   81.222500
  C    -19.699200    3.740220   81.954300
  H    -20.764300    3.975080   81.857300
  H    -19.330200    4.699030   81.528000
  H    -19.417300    3.641670   82.965700
  H    -14.939500   -1.436350   84.794900
  H    -18.793600   -1.311620   77.379200

 Total Charge           Charge          ....    0
 Multiplicity           Mult            ....    1
 Number of Electrons    NEL             ....  134
 Basis Dimension        Dim             ....  322

ORBITAL ENERGIES
----------------

  NO   OCC          E(Eh)            E(eV)
   0   2.0000     -88.970472     -2421.0096
   1   2.0000     -88.966470     -2420.9007
   2   2.0000     -10.336816      -281.2791
   3   2.0000     -10.332370      -281.1581
   4   2.0000     -10.317483      -280.7530
   5   2.0000     -10.317295      -280.7479
   6   2.0000     -10.307709      -280.4870
   7   2.0000     -10.307004      -280.4678
   8   2.0000     -10.300630      -280.2944
   9   2.0000     -10.299032      -280.2509
  10   2.0000     -10.294648      -280.1316
  11   2.0000     -10.291370      -280.0424
  12   2.0000     -10.286031      -279.8971
  13   2.0000     -10.285160      -279.8734
  14   2.0000     -10.284838      -279.8647
  15   2.0000     -10.276953      -279.6501
  16   2.0000      -8.084792      -219.9984
  17   2.0000      -8.080474      -219.8809
  18   2.0000      -6.043469      -164.4512
  19   2.0000      -6.039299      -164.3377
  20   2.0000      -6.039089      -164.3320
  21   2.0000      -6.035434      -164.2325
  22   2.0000      -6.034982      -164.2202
  23   2.0000      -6.031271      -164.1192
  24   2.0000      -1.005026       -27.3481
  25   2.0000      -0.982632       -26.7388
  26   2.0000      -0.911945       -24.8153
  27   2.0000      -0.909637       -24.7525
  28   2.0000      -0.872412       -23.7395
  29   2.0000      -0.856068       -23.2948
  30   2.0000      -0.847839       -23.0709
  31   2.0000      -0.817781       -22.2529
  32   2.0000      -0.783753       -21.3270
  33   2.0000      -0.773038       -21.0354
  34   2.0000      -0.711022       -19.3479
  35   2.0000      -0.702893       -19.1267
  36   2.0000      -0.696277       -18.9467
  37   2.0000      -0.665346       -18.1050
  38   2.0000      -0.640092       -17.4178
  39   2.0000      -0.620071       -16.8730
  40   2.0000      -0.599418       -16.3110
  41   2.0000      -0.575604       -15.6630
  42   2.0000      -0.567268       -15.4361
  43   2.0000      -0.562066       -15.2946
  44   2.0000      -0.534533       -14.5454
  45   2.0000      -0.527877       -14.3643
  46   2.0000      -0.518367       -14.1055
  47   2.0000      -0.514390       -13.9973
  48   2.0000      -0.512234       -13.9386
  49   2.0000      -0.502150       -13.6642
  50   2.0000      -0.498002       -13.5513
  51   2.0000      -0.478209       -13.0127
  52   2.0000      -0.470837       -12.8121
  53   2.0000      -0.464553       -12.6411
  54   2.0000      -0.459127       -12.4935
  55   2.0000      -0.454132       -12.3576
  56   2.0000      -0.447012       -12.1638
  57   2.0000      -0.433606       -11.7990
  58   2.0000      -0.429428       -11.6853
  59   2.0000      -0.419077       -11.4037
  60   2.0000      -0.417488       -11.3604
  61   2.0000      -0.416458       -11.3324
  62   2.0000      -0.407358       -11.0848
  63   2.0000      -0.359355        -9.7786
  64   2.0000      -0.333108        -9.0643
  65   2.0000      -0.329176        -8.9573
  66   2.0000      -0.284354        -7.7377
  67   0.0000       0.018320         0.4985
  68   0.0000       0.073769         2.0073
  69   0.0000       0.103895         2.8271
  70   0.0000       0.120237         3.2718
  71   0.0000       0.127668         3.4740

MULLIKEN ATOMIC CHARGES
-----------------------
   0 S :    0.122595
   1 C :   -0.106473
   2 C :   -0.084351
   3 C :    0.023613
   4 C :   -0.092930
   5 H :   -0.031087
   6 C :    0.016640
   7 H :    0.019701
   8 H :    0.039589
   9 C :   -0.091532
  10 H :    0.045232
  11 H :    0.024779
  12 C :   -0.028842
  13 H :    0.030679
  14 H :    0.025752
  15 H :    0.039150
  16 S :    0.084643
  17 C :   -0.046687
  18 C :   -0.042270
  19 C :   -0.045804
  20 C :   -0.135114
  21 H :    0.035815
  22 C :    0.077444
  23 H :    0.017845
  24 H :    0.011672
  25 C :   -0.046999
  26 H :    0.009672
  27 H :    0.032578
  28 C :   -0.060997
  29 H :    0.030995
  30 H :    0.022408
  31 H :    0.029233
  32 H :    0.044027
  33 H :    0.029025
Sum of atomic charges:   -0.0000000

LOEWDIN ATOMIC CHARGES
----------------------
   0 S :    0.412004
   1 C :   -0.195989
   2 C :   -0.062332
   3 C :   -0.062170
   4 C :   -0.194848
   5 H :    0.021544
   6 C :   -0.041429
   7 H :    0.031558
   8 H :    0.028414
   9 C :   -0.047458
  10 H :    0.034529
  11 H :    0.019740
  12 C :   -0.071045
  13 H :    0.025109
  14 H :    0.031200
  15 H :    0.032157
  16 S :    0.387459
  17 C :   -0.167509
  18 C :   -0.075228
  19 C :   -0.050258
  20 C :   -0.177543
  21 H :    0.041113
  22 C :   -0.040082
  23 H :    0.028135
  24 H :    0.033778
  25 C :   -0.032114
  26 H :    0.021216
  27 H :    0.022711
  28 C :   -0.068343
  29 H :    0.023954
  30 H :    0.033162
  31 H :    0.014824
  32 H :    0.027822
  33 H :    0.015922

  Mayer bond orders larger than 0.100000
B(  0-S ,  1-C ) :   1.1461 B(  0-S ,  4-C ) :   1.1288 B(  1-C ,  2-C ) :   1.5858
B(  1-C , 32-H ) :   0.9699 B(  2-C ,  3-C ) :   1.2646 B(  2-C ,  6-C ) :   1.0218
B(  3-C ,  4-C ) :   1.5489 B(  3-C ,  5-H ) :   1.0016 B(  4-C , 20-C ) :   1.0978
B(  6-C ,  7-H ) :   0.9463 B(  6-C ,  8-H ) :   0.9416 B(  6-C ,  9-C ) :   1.0478
B(  9-C , 10-H ) :   0.9555 B(  9-C , 11-H ) :   0.9555 B(  9-C , 12-C ) :   1.0934
B( 12-C , 13-H ) :   0.9696 B( 12-C , 14-H ) :   0.9675 B( 12-C , 15-H ) :   0.9706
B( 16-S , 17-C ) :   1.1709 B( 16-S , 20-C ) :   1.1139 B( 17-C , 18-C ) :   1.5762
B( 17-C , 20-C ) :   0.1038 B( 17-C , 33-H ) :   0.9750 B( 18-C , 19-C ) :   1.2791
B( 18-C , 21-H ) :   0.9847 B( 19-C , 20-C ) :   1.5427 B( 19-C , 22-C ) :   1.0589
B( 22-C , 23-H ) :   0.9240 B( 22-C , 24-H ) :   0.9298 B( 22-C , 25-C ) :   1.0537
B( 25-C , 26-H ) :   0.9524 B( 25-C , 27-H ) :   0.9548 B( 25-C , 28-C ) :   1.0793
B( 28-C , 29-H ) :   0.9749 B( 28-C , 30-H ) :   0.9737 B( 28-C , 31-H ) :   0.9782

Dispersion correction           -0.013885422
FINAL SINGLE POINT ENERGY     -1339.864381865864

DIPOLE MOMENT
-------------
                                X             Y             Z
Electronic contribution:      8.46037     -24.77906     -21.72022
Nuclear contribution   :     -8.87052      25.34998      22.07737
                        -----------------------------------------
Total Dipole Moment    :     -0.41016       0.57092       0.35714
                        -----------------------------------------
Magnitude (a.u.)       :      0.78850
Magnitude (Debye)      :      2.00421

Rotational constants in cm-1:     0.018694     0.008583     0.006096
Rotational constants in MHz :   560.434213   257.298137   182.761869

                             ****ORCA TERMINATED NORMALLY****
TOTAL RUN TIME: 0 days 0 hours 0 minutes 34 seconds 167 msec
