                         Program Version 4.2.1 -  RELEASE  -
|  1> ! wB97X-D3 SP def2-SVP
|  2> %pal
|  3> nprocs 16
|  4> end
|  5>
|  6> * xyz 0 1
|  7> S 	 -34.1572 	 46.9317 	 99.6264
|  8> C 	 -35.5002 	 45.8846 	 99.1118
|  9> C 	 -35.9867 	 46.2335 	 97.8763
| 10> C 	 -35.1993 	 47.2889 	 97.3288
| 11> C 	 -34.0719 	 47.601 	 98.0403
| 12> H 	 -35.4013 	 47.8005 	 96.4072
| 13> C 	 -37.1064 	 45.5828 	 97.1769
| 14> H 	 -37.6021 	 46.2494 	 96.4718
| 15> H 	 -37.8839 	 45.3563 	 97.8758
| 16> C 	 -36.5025 	 44.3475 	 96.5818
| 17> H 	 -35.5825 	 44.5437 	 96.0012
| 18> H 	 -36.1283 	 43.6496 	 97.3738
| 19> C 	 -37.5349 	 43.5501 	 95.7929
| 20> H 	 -37.1575 	 42.5817 	 95.6801
| 21> H 	 -38.4588 	 43.4112 	 96.4015
| 22> H 	 -37.8 	 44.0693 	 94.8892
| 23> S 	 -33.0768 	 50.2342 	 98.3601
| 24> C 	 -31.7717 	 50.8803 	 97.3552
| 25> C 	 -31.6828 	 50.0011 	 96.2805
| 26> C 	 -32.3391 	 48.7309 	 96.5062
| 27> C 	 -33.1941 	 48.6827 	 97.6015
| 28> H 	 -31.0498 	 50.2514 	 95.4221
| 29> C 	 -32.2073 	 47.5816 	 95.4853
| 30> H 	 -31.7217 	 47.9999 	 94.5855
| 31> H 	 -33.1487 	 47.296 	 95.1448
| 32> C 	 -31.606 	 46.1859 	 95.9353
| 33> H 	 -31.9696 	 45.4341 	 95.1931
| 34> H 	 -32.1482 	 45.8069 	 96.8448
| 35> C 	 -30.1005 	 46.195 	 96.2329
| 36> H 	 -29.7097 	 45.185 	 96.2586
| 37> H 	 -30.0584 	 46.703 	 97.1936
| 38> H 	 -29.5321 	 46.8147 	 95.5758
| 39> H 	 -35.9669 	 45.0566 	 99.6303
| 40> H 	 -31.1436 	 51.757 	 97.4502
| 41> *
| 42>
| 43>                          ****END OF INPUT****

CARTESIAN COORDINATES (ANGSTROEM)
---------------------------------
  S    -34.157200   46.931700   99.626400
  C    -35.500200   45.884600   99.111800
  C    -35.986700   46.233500   97.876300
  C    -35.199300   47.288900   97.328800
  C    -34.071900   47.601000   98.040300
  H    -35.401300   47.800500   96.407200
  C    -37.106400   45.582800   97.176900
  H    -37.602100   46.249400   96.471800
  H    -37.883900   45.356300   97.875800
  C    -36.502500   44.347500   96.581800
  H    -35.582500   44.543700   96.001200
  H    -36.128300   43.649600   97.373800
  C    -37.534900   43.550100   95.792900
  H    -37.157500   42.581700   95.680100
  H    -38.458800   43.411200   96.401500
  H    -37.800000   44.069300   94.889200
  S    -33.076800   50.234200   98.360100
  C    -31.771700   50.880300   97.355200
  C    -31.682800   50.001100   96.280500
  C    -32.339100   48.730900   96.506200
  C    -33.194100   48.682700   97.601500
  H    -31.049800   50.251400   95.422100
  C    -32.207300   47.581600   95.485300
  H    -31.721700   47.999900   94.585500
  H    -33.148700   47.296000   95.144800
  C    -31.606000   46.185900   95.935300
  H    -31.969600   45.434100   95.193100
  H    -32.148200   45.806900   96.844800
  C    -30.100500   46.195000   96.232900
  H    -29.709700   45.185000   96.258600
  H    -30.058400   46.703000   97.193600
  H    -29.532100   46.814700   95.575800
  H    -35.966900   45.056600   99.630300
  H    -31.143600   51.757000   97.450200

 Total Charge           Charge          ....    0
 Multiplicity           Mult            ....    1
 Number of Electrons    NEL             ....  134
 Basis Dimension        Dim             ....  322

ORBITAL ENERGIES
----------------

  NO   OCC          E(Eh)            E(eV)
   0   2.0000     -88.971254     -2421.0309
   1   2.0000     -88.961709     -2420.7712
   2   2.0000     -10.327742      -281.0322
   3   2.0000     -10.325263      -280.9647
   4   2.0000     -10.320362      -280.8313
   5   2.0000     -10.314542      -280.6730
   6   2.0000     -10.302492      -280.3451
   7   2.0000     -10.297737      -280.2157
   8   2.0000     -10.296523      -280.1826
   9   2.0000     -10.291611      -280.0490
  10   2.0000     -10.289952      -280.0038
  11   2.0000     -10.289206      -279.9835
  12   2.0000     -10.288621      -279.9676
  13   2.0000     -10.286295      -279.9043
  14   2.0000     -10.274314      -279.5783
  15   2.0000     -10.267802      -279.4011
  16   2.0000      -8.085551      -220.0190
  17   2.0000      -8.076272      -219.7665
  18   2.0000      -6.044106      -164.4685
  19   2.0000      -6.040306      -164.3651
  20   2.0000      -6.036078      -164.2500
  21   2.0000      -6.034946      -164.2192
  22   2.0000      -6.030614      -164.1014
  23   2.0000      -6.026999      -164.0030
  24   2.0000      -1.010056       -27.4850
  25   2.0000      -0.986360       -26.8402
  26   2.0000      -0.928025       -25.2528
  27   2.0000      -0.894635       -24.3443
  28   2.0000      -0.871161       -23.7055
  29   2.0000      -0.852479       -23.1971
  30   2.0000      -0.838617       -22.8199
  31   2.0000      -0.817345       -22.2411
  32   2.0000      -0.785427       -21.3726
  33   2.0000      -0.772020       -21.0077
  34   2.0000      -0.709597       -19.3091
  35   2.0000      -0.703556       -19.1447
  36   2.0000      -0.685388       -18.6504
  37   2.0000      -0.657615       -17.8946
  38   2.0000      -0.643753       -17.5174
  39   2.0000      -0.621931       -16.9236
  40   2.0000      -0.585607       -15.9352
  41   2.0000      -0.578459       -15.7407
  42   2.0000      -0.566210       -15.4073
  43   2.0000      -0.543931       -14.8011
  44   2.0000      -0.538612       -14.6564
  45   2.0000      -0.535927       -14.5833
  46   2.0000      -0.520266       -14.1572
  47   2.0000      -0.514293       -13.9946
  48   2.0000      -0.511042       -13.9062
  49   2.0000      -0.505618       -13.7586
  50   2.0000      -0.484289       -13.1782
  51   2.0000      -0.479264       -13.0414
  52   2.0000      -0.475173       -12.9301
  53   2.0000      -0.466267       -12.6878
  54   2.0000      -0.458747       -12.4831
  55   2.0000      -0.453428       -12.3384
  56   2.0000      -0.441255       -12.0072
  57   2.0000      -0.431509       -11.7420
  58   2.0000      -0.428750       -11.6669
  59   2.0000      -0.425055       -11.5663
  60   2.0000      -0.419936       -11.4270
  61   2.0000      -0.417626       -11.3642
  62   2.0000      -0.399216       -10.8632
  63   2.0000      -0.337804        -9.1921
  64   2.0000      -0.329702        -8.9717
  65   2.0000      -0.322333        -8.7711
  66   2.0000      -0.300001        -8.1634
  67   0.0000       0.028919         0.7869
  68   0.0000       0.064702         1.7606
  69   0.0000       0.110152         2.9974
  70   0.0000       0.116308         3.1649
  71   0.0000       0.137520         3.7421

MULLIKEN ATOMIC CHARGES
-----------------------
   0 S :    0.130302
   1 C :   -0.114575
   2 C :   -0.100052
   3 C :    0.028459
   4 C :   -0.162481
   5 H :    0.014451
   6 C :    0.124385
   7 H :    0.023516
   8 H :    0.014829
   9 C :   -0.140140
  10 H :    0.037587
  11 H :    0.028269
  12 C :    0.021071
  13 H :    0.020302
  14 H :    0.020438
  15 H :    0.032789
  16 S :    0.097560
  17 C :   -0.100086
  18 C :   -0.042338
  19 C :   -0.071449
  20 C :   -0.129550
  21 H :    0.028000
  22 C :    0.094759
  23 H :    0.014961
  24 H :   -0.001713
  25 C :   -0.120273
  26 H :    0.024400
  27 H :    0.041198
  28 C :   -0.011599
  29 H :    0.038860
  30 H :    0.037518
  31 H :    0.017978
  32 H :    0.037833
  33 H :    0.064791
Sum of atomic charges:   -0.0000000

LOEWDIN ATOMIC CHARGES
----------------------
   0 S :    0.412446
   1 C :   -0.188343
   2 C :   -0.057238
   3 C :   -0.048885
   4 C :   -0.207430
   5 H :    0.029095
   6 C :   -0.031241
   7 H :    0.032760
   8 H :    0.029255
   9 C :   -0.041296
  10 H :    0.028366
  11 H :    0.028808
  12 C :   -0.059467
  13 H :    0.018786
  14 H :    0.028219
  15 H :    0.022548
  16 S :    0.404588
  17 C :   -0.185766
  18 C :   -0.076958
  19 C :   -0.065890
  20 C :   -0.207659
  21 H :    0.031747
  22 C :   -0.030406
  23 H :    0.029024
  24 H :    0.018516
  25 C :   -0.044331
  26 H :    0.022131
  27 H :    0.029779
  28 C :   -0.064270
  29 H :    0.027122
  30 H :    0.032527
  31 H :    0.017603
  32 H :    0.028086
  33 H :    0.037771

  Mayer bond orders larger than 0.100000
B(  0-S ,  1-C ) :   1.1302 B(  0-S ,  4-C ) :   1.1378 B(  1-C ,  2-C ) :   1.6183
B(  1-C , 32-H ) :   0.9618 B(  2-C ,  3-C ) :   1.2414 B(  2-C ,  6-C ) :   1.0336
B(  3-C ,  4-C ) :   1.5714 B(  3-C ,  5-H ) :   0.9942 B(  4-C , 20-C ) :   1.0403
B(  6-C ,  7-H ) :   0.9395 B(  6-C ,  8-H ) :   0.9213 B(  6-C ,  9-C ) :   1.0581
B(  9-C , 10-H ) :   0.9555 B(  9-C , 11-H ) :   0.9552 B(  9-C , 12-C ) :   1.0853
B( 12-C , 13-H ) :   0.9712 B( 12-C , 14-H ) :   0.9690 B( 12-C , 15-H ) :   0.9740
B( 16-S , 17-C ) :   1.1575 B( 16-S , 20-C ) :   1.1372 B( 17-C , 18-C ) :   1.5861
B( 17-C , 20-C ) :   0.1008 B( 17-C , 33-H ) :   0.9711 B( 18-C , 19-C ) :   1.2643
B( 18-C , 21-H ) :   0.9827 B( 19-C , 20-C ) :   1.5801 B( 19-C , 22-C ) :   1.0391
B( 22-C , 23-H ) :   0.9399 B( 22-C , 24-H ) :   0.9287 B( 22-C , 25-C ) :   1.0684
B( 25-C , 26-H ) :   0.9585 B( 25-C , 27-H ) :   0.9563 B( 25-C , 28-C ) :   1.0587
B( 28-C , 29-H ) :   0.9750 B( 28-C , 30-H ) :   0.9755 B( 28-C , 31-H ) :   0.9794

Dispersion correction           -0.015019770
FINAL SINGLE POINT ENERGY     -1339.860754315978

DIPOLE MOMENT
-------------
                                X             Y             Z
Electronic contribution:      2.74177      21.06438      17.68110
Nuclear contribution   :     -3.04158     -21.47121     -18.24178
                        -----------------------------------------
Total Dipole Moment    :     -0.29981      -0.40684      -0.56067
                        -----------------------------------------
Magnitude (a.u.)       :      0.75482
Magnitude (Debye)      :      1.91861

Rotational constants in cm-1:     0.019995     0.008552     0.007213
Rotational constants in MHz :   599.445943   256.378217   216.226573

                             ****ORCA TERMINATED NORMALLY****
TOTAL RUN TIME: 0 days 0 hours 0 minutes 29 seconds 221 msec
