                         Program Version 4.2.1 -  RELEASE  -
|  1> ! wB97X-D3 SP def2-SVP
|  2> %pal
|  3> nprocs 16
|  4> end
|  5>
|  6> * xyz 0 1
|  7> S 	 -70.8359 	 46.8871 	 135.341
|  8> C 	 -70.1438 	 47.4168 	 133.801
|  9> C 	 -70.4389 	 46.5202 	 132.808
| 10> C 	 -71.181 	 45.3961 	 133.263
| 11> C 	 -71.2982 	 45.395 	 134.655
| 12> H 	 -71.5992 	 44.6598 	 132.697
| 13> C 	 -70.2879 	 46.9431 	 131.358
| 14> H 	 -69.8734 	 46.095 	 130.841
| 15> H 	 -69.527 	 47.7221 	 131.299
| 16> C 	 -71.6443 	 47.3584 	 130.749
| 17> H 	 -72.2844 	 46.5547 	 130.412
| 18> H 	 -72.2554 	 47.8102 	 131.492
| 19> C 	 -71.4768 	 48.4602 	 129.713
| 20> H 	 -72.4017 	 48.5835 	 129.2
| 21> H 	 -71.2576 	 49.4066 	 130.229
| 22> H 	 -70.7729 	 48.2299 	 128.932
| 23> S 	 -73.4041 	 44.8395 	 136.505
| 24> C 	 -73.9365 	 43.2133 	 136.672
| 25> C 	 -73.1286 	 42.3587 	 135.96
| 26> C 	 -71.986 	 42.992 	 135.313
| 27> C 	 -72.08 	 44.3946 	 135.405
| 28> H 	 -73.356 	 41.2932 	 136.126
| 29> C 	 -70.8646 	 42.2158 	 134.679
| 30> H 	 -70.7603 	 42.5827 	 133.621
| 31> H 	 -71.2149 	 41.2084 	 134.582
| 32> C 	 -69.4492 	 42.3365 	 135.222
| 33> H 	 -69.5492 	 41.9848 	 136.247
| 34> H 	 -69.0486 	 43.4205 	 135.217
| 35> C 	 -68.5473 	 41.4237 	 134.422
| 36> H 	 -68.6643 	 41.6635 	 133.355
| 37> H 	 -68.8506 	 40.3443 	 134.467
| 38> H 	 -67.4296 	 41.4813 	 134.6
| 39> H 	 -69.7248 	 48.4316 	 133.665
| 40> H 	 -74.7079 	 42.9648 	 137.357
| 41> *
| 42>
| 43>                          ****END OF INPUT****

CARTESIAN COORDINATES (ANGSTROEM)
---------------------------------
  S    -70.835900   46.887100  135.341000
  C    -70.143800   47.416800  133.801000
  C    -70.438900   46.520200  132.808000
  C    -71.181000   45.396100  133.263000
  C    -71.298200   45.395000  134.655000
  H    -71.599200   44.659800  132.697000
  C    -70.287900   46.943100  131.358000
  H    -69.873400   46.095000  130.841000
  H    -69.527000   47.722100  131.299000
  C    -71.644300   47.358400  130.749000
  H    -72.284400   46.554700  130.412000
  H    -72.255400   47.810200  131.492000
  C    -71.476800   48.460200  129.713000
  H    -72.401700   48.583500  129.200000
  H    -71.257600   49.406600  130.229000
  H    -70.772900   48.229900  128.932000
  S    -73.404100   44.839500  136.505000
  C    -73.936500   43.213300  136.672000
  C    -73.128600   42.358700  135.960000
  C    -71.986000   42.992000  135.313000
  C    -72.080000   44.394600  135.405000
  H    -73.356000   41.293200  136.126000
  C    -70.864600   42.215800  134.679000
  H    -70.760300   42.582700  133.621000
  H    -71.214900   41.208400  134.582000
  C    -69.449200   42.336500  135.222000
  H    -69.549200   41.984800  136.247000
  H    -69.048600   43.420500  135.217000
  C    -68.547300   41.423700  134.422000
  H    -68.664300   41.663500  133.355000
  H    -68.850600   40.344300  134.467000
  H    -67.429600   41.481300  134.600000
  H    -69.724800   48.431600  133.665000
  H    -74.707900   42.964800  137.357000

 Total Charge           Charge          ....    0
 Multiplicity           Mult            ....    1
 Number of Electrons    NEL             ....  134
 Basis Dimension        Dim             ....  322

ORBITAL ENERGIES
----------------

  NO   OCC          E(Eh)            E(eV)
   0   2.0000     -88.965719     -2420.8803
   1   2.0000     -88.963441     -2420.8183
   2   2.0000     -10.329819      -281.0887
   3   2.0000     -10.329258      -281.0734
   4   2.0000     -10.313757      -280.6516
   5   2.0000     -10.313594      -280.6472
   6   2.0000     -10.307847      -280.4908
   7   2.0000     -10.298497      -280.2364
   8   2.0000     -10.296810      -280.1904
   9   2.0000     -10.290880      -280.0291
  10   2.0000     -10.289939      -280.0035
  11   2.0000     -10.289290      -279.9858
  12   2.0000     -10.289103      -279.9807
  13   2.0000     -10.283068      -279.8165
  14   2.0000     -10.281176      -279.7650
  15   2.0000     -10.273795      -279.5642
  16   2.0000      -8.081040      -219.8963
  17   2.0000      -8.078446      -219.8257
  18   2.0000      -6.039347      -164.3390
  19   2.0000      -6.036882      -164.2719
  20   2.0000      -6.035572      -164.2363
  21   2.0000      -6.032865      -164.1626
  22   2.0000      -6.031886      -164.1360
  23   2.0000      -6.029321      -164.0662
  24   2.0000      -1.007231       -27.4081
  25   2.0000      -0.984412       -26.7872
  26   2.0000      -0.914467       -24.8839
  27   2.0000      -0.912337       -24.8259
  28   2.0000      -0.868639       -23.6369
  29   2.0000      -0.853728       -23.2311
  30   2.0000      -0.844310       -22.9748
  31   2.0000      -0.815165       -22.1818
  32   2.0000      -0.781315       -21.2607
  33   2.0000      -0.768626       -20.9154
  34   2.0000      -0.709884       -19.3169
  35   2.0000      -0.700035       -19.0489
  36   2.0000      -0.688549       -18.7364
  37   2.0000      -0.659539       -17.9470
  38   2.0000      -0.643626       -17.5139
  39   2.0000      -0.621316       -16.9069
  40   2.0000      -0.594828       -16.1861
  41   2.0000      -0.572254       -15.5718
  42   2.0000      -0.565818       -15.3967
  43   2.0000      -0.558169       -15.1886
  44   2.0000      -0.526906       -14.3379
  45   2.0000      -0.521805       -14.1990
  46   2.0000      -0.518278       -14.1031
  47   2.0000      -0.514875       -14.0105
  48   2.0000      -0.509175       -13.8553
  49   2.0000      -0.501162       -13.6373
  50   2.0000      -0.487655       -13.2698
  51   2.0000      -0.477717       -12.9993
  52   2.0000      -0.474890       -12.9224
  53   2.0000      -0.460773       -12.5383
  54   2.0000      -0.451602       -12.2887
  55   2.0000      -0.450078       -12.2472
  56   2.0000      -0.445385       -12.1195
  57   2.0000      -0.442580       -12.0432
  58   2.0000      -0.433244       -11.7892
  59   2.0000      -0.428810       -11.6685
  60   2.0000      -0.421434       -11.4678
  61   2.0000      -0.412721       -11.2307
  62   2.0000      -0.411616       -11.2006
  63   2.0000      -0.346269        -9.4225
  64   2.0000      -0.331654        -9.0248
  65   2.0000      -0.326695        -8.8898
  66   2.0000      -0.289400        -7.8750
  67   0.0000       0.024402         0.6640
  68   0.0000       0.075620         2.0577
  69   0.0000       0.109458         2.9785
  70   0.0000       0.122767         3.3407
  71   0.0000       0.135580         3.6893

MULLIKEN ATOMIC CHARGES
-----------------------
   0 S :    0.103295
   1 C :   -0.141245
   2 C :   -0.089361
   3 C :    0.051155
   4 C :   -0.153500
   5 H :   -0.015337
   6 C :    0.091212
   7 H :    0.022263
   8 H :    0.018545
   9 C :   -0.055330
  10 H :    0.027805
  11 H :    0.023045
  12 C :   -0.044766
  13 H :    0.019079
  14 H :    0.038075
  15 H :    0.028916
  16 S :    0.101218
  17 C :   -0.096282
  18 C :   -0.037368
  19 C :   -0.047386
  20 C :   -0.134300
  21 H :    0.028844
  22 C :    0.050066
  23 H :    0.016422
  24 H :    0.010540
  25 C :   -0.053534
  26 H :    0.030735
  27 H :    0.063456
  28 C :   -0.070839
  29 H :    0.019562
  30 H :    0.031269
  31 H :    0.048893
  32 H :    0.061762
  33 H :    0.053090
Sum of atomic charges:   -0.0000000

LOEWDIN ATOMIC CHARGES
----------------------
   0 S :    0.414049
   1 C :   -0.200179
   2 C :   -0.061688
   3 C :   -0.048642
   4 C :   -0.198710
   5 H :    0.015353
   6 C :   -0.024221
   7 H :    0.027902
   8 H :    0.029295
   9 C :   -0.038899
  10 H :    0.023851
  11 H :    0.023591
  12 C :   -0.059876
  13 H :    0.022490
  14 H :    0.028748
  15 H :    0.020588
  16 S :    0.401130
  17 C :   -0.188419
  18 C :   -0.080448
  19 C :   -0.054681
  20 C :   -0.194912
  21 H :    0.035796
  22 C :   -0.039115
  23 H :    0.033472
  24 H :    0.026644
  25 C :   -0.043258
  26 H :    0.023320
  27 H :    0.041664
  28 C :   -0.077481
  29 H :    0.022908
  30 H :    0.028356
  31 H :    0.032886
  32 H :    0.033495
  33 H :    0.024989

  Mayer bond orders larger than 0.100000
B(  0-S ,  1-C ) :   1.1314 B(  0-S ,  4-C ) :   1.1752 B(  1-C ,  2-C ) :   1.5991
B(  1-C , 32-H ) :   0.9668 B(  2-C ,  3-C ) :   1.2460 B(  2-C ,  6-C ) :   1.0400
B(  3-C ,  4-C ) :   1.5355 B(  3-C ,  5-H ) :   1.0098 B(  4-C , 20-C ) :   1.0480
B(  6-C ,  7-H ) :   0.9265 B(  6-C ,  8-H ) :   0.9496 B(  6-C ,  9-C ) :   1.0417
B(  9-C , 10-H ) :   0.9534 B(  9-C , 11-H ) :   0.9608 B(  9-C , 12-C ) :   1.0901
B( 12-C , 13-H ) :   0.9716 B( 12-C , 14-H ) :   0.9779 B( 12-C , 15-H ) :   0.9765
B( 16-S , 17-C ) :   1.1654 B( 16-S , 20-C ) :   1.1358 B( 17-C , 18-C ) :   1.6050
B( 17-C , 33-H ) :   0.9716 B( 18-C , 19-C ) :   1.2395 B( 18-C , 21-H ) :   0.9860
B( 19-C , 20-C ) :   1.5711 B( 19-C , 22-C ) :   1.0536 B( 22-C , 23-H ) :   0.9187
B( 22-C , 24-H ) :   0.9353 B( 22-C , 25-C ) :   1.0567 B( 25-C , 26-H ) :   0.9536
B( 25-C , 27-H ) :   0.9493 B( 25-C , 28-C ) :   1.0774 B( 28-C , 29-H ) :   0.9709
B( 28-C , 30-H ) :   0.9718 B( 28-C , 31-H ) :   0.9734

Dispersion correction           -0.014183553
FINAL SINGLE POINT ENERGY     -1339.877968063547

DIPOLE MOMENT
-------------
                                X             Y             Z
Electronic contribution:    -11.01358       5.51044      21.66530
Nuclear contribution   :     10.98968      -5.72619     -22.17236
                        -----------------------------------------
Total Dipole Moment    :     -0.02389      -0.21575      -0.50705
                        -----------------------------------------
Magnitude (a.u.)       :      0.55156
Magnitude (Debye)      :      1.40196

Rotational constants in cm-1:     0.018091     0.008315     0.006958
Rotational constants in MHz :   542.342506   249.280137   208.592398

                             ****ORCA TERMINATED NORMALLY****
TOTAL RUN TIME: 0 days 0 hours 0 minutes 34 seconds 640 msec
