                         Program Version 4.2.1 -  RELEASE  -
|  1> ! wB97X-D3 SP def2-SVP
|  2> %pal
|  3> nprocs 16
|  4> end
|  5>
|  6> * xyz 0 1
|  7> S 	 34.0271 	 24.0745 	 47.65
|  8> C 	 33.1814 	 24.503 	 49.1691
|  9> C 	 32.7805 	 23.4098 	 49.9193
| 10> C 	 33.1054 	 22.1659 	 49.2188
| 11> C 	 33.7763 	 22.3447 	 48.025
| 12> H 	 32.8945 	 21.1555 	 49.5892
| 13> C 	 31.9439 	 23.3869 	 51.1985
| 14> H 	 32.1477 	 24.2737 	 51.7862
| 15> H 	 32.4009 	 22.6611 	 51.8241
| 16> C 	 30.4642 	 23.027 	 51.0324
| 17> H 	 30.0032 	 23.779 	 50.4371
| 18> H 	 30.4373 	 22.1125 	 50.5047
| 19> C 	 29.7504 	 22.9659 	 52.4099
| 20> H 	 30.2901 	 22.4633 	 53.1517
| 21> H 	 29.5824 	 24.0236 	 52.7373
| 22> H 	 28.8413 	 22.459 	 52.2737
| 23> S 	 33.2722 	 19.8667 	 47.0712
| 24> C 	 34.5451 	 19.0037 	 46.107
| 25> C 	 35.6109 	 19.8698 	 45.9001
| 26> C 	 35.4899 	 21.1334 	 46.5748
| 27> C 	 34.2717 	 21.2638 	 47.2135
| 28> H 	 36.4287 	 19.5862 	 45.1942
| 29> C 	 36.7162 	 22.0589 	 46.5341
| 30> H 	 36.3957 	 22.9361 	 47.0913
| 31> H 	 37.0327 	 22.34 	 45.5884
| 32> C 	 37.976 	 21.4115 	 47.2214
| 33> H 	 38.2746 	 20.4287 	 46.8069
| 34> H 	 37.8309 	 21.311 	 48.3064
| 35> C 	 39.1726 	 22.4336 	 47.0678
| 36> H 	 40.1106 	 21.9912 	 47.4444
| 37> H 	 38.9076 	 23.375 	 47.5524
| 38> H 	 39.2541 	 22.7988 	 46.0861
| 39> H 	 33.3029 	 25.437 	 49.6217
| 40> H 	 34.4316 	 18.0486 	 45.5175
| 41> *
| 42>
| 43>                          ****END OF INPUT****

CARTESIAN COORDINATES (ANGSTROEM)
---------------------------------
  S     34.027100   24.074500   47.650000
  C     33.181400   24.503000   49.169100
  C     32.780500   23.409800   49.919300
  C     33.105400   22.165900   49.218800
  C     33.776300   22.344700   48.025000
  H     32.894500   21.155500   49.589200
  C     31.943900   23.386900   51.198500
  H     32.147700   24.273700   51.786200
  H     32.400900   22.661100   51.824100
  C     30.464200   23.027000   51.032400
  H     30.003200   23.779000   50.437100
  H     30.437300   22.112500   50.504700
  C     29.750400   22.965900   52.409900
  H     30.290100   22.463300   53.151700
  H     29.582400   24.023600   52.737300
  H     28.841300   22.459000   52.273700
  S     33.272200   19.866700   47.071200
  C     34.545100   19.003700   46.107000
  C     35.610900   19.869800   45.900100
  C     35.489900   21.133400   46.574800
  C     34.271700   21.263800   47.213500
  H     36.428700   19.586200   45.194200
  C     36.716200   22.058900   46.534100
  H     36.395700   22.936100   47.091300
  H     37.032700   22.340000   45.588400
  C     37.976000   21.411500   47.221400
  H     38.274600   20.428700   46.806900
  H     37.830900   21.311000   48.306400
  C     39.172600   22.433600   47.067800
  H     40.110600   21.991200   47.444400
  H     38.907600   23.375000   47.552400
  H     39.254100   22.798800   46.086100
  H     33.302900   25.437000   49.621700
  H     34.431600   18.048600   45.517500

 Total Charge           Charge          ....    0
 Multiplicity           Mult            ....    1
 Number of Electrons    NEL             ....  134
 Basis Dimension        Dim             ....  322

ORBITAL ENERGIES
----------------

  NO   OCC          E(Eh)            E(eV)
   0   2.0000     -88.969683     -2420.9881
   1   2.0000     -88.967974     -2420.9417
   2   2.0000     -10.332409      -281.1591
   3   2.0000     -10.326266      -280.9920
   4   2.0000     -10.325418      -280.9689
   5   2.0000     -10.312770      -280.6247
   6   2.0000     -10.307176      -280.4725
   7   2.0000     -10.302582      -280.3475
   8   2.0000     -10.298322      -280.2316
   9   2.0000     -10.296884      -280.1925
  10   2.0000     -10.291496      -280.0458
  11   2.0000     -10.289241      -279.9845
  12   2.0000     -10.288917      -279.9757
  13   2.0000     -10.282280      -279.7951
  14   2.0000     -10.275035      -279.5979
  15   2.0000     -10.274515      -279.5838
  16   2.0000      -8.082779      -219.9436
  17   2.0000      -8.081941      -219.9208
  18   2.0000      -6.041509      -164.3978
  19   2.0000      -6.040670      -164.3750
  20   2.0000      -6.037643      -164.2926
  21   2.0000      -6.036583      -164.2638
  22   2.0000      -6.033279      -164.1739
  23   2.0000      -6.032478      -164.1521
  24   2.0000      -1.003287       -27.3008
  25   2.0000      -0.974942       -26.5295
  26   2.0000      -0.911931       -24.8149
  27   2.0000      -0.901833       -24.5401
  28   2.0000      -0.870995       -23.7010
  29   2.0000      -0.849773       -23.1235
  30   2.0000      -0.839707       -22.8496
  31   2.0000      -0.811135       -22.0721
  32   2.0000      -0.782725       -21.2990
  33   2.0000      -0.769583       -20.9414
  34   2.0000      -0.710243       -19.3267
  35   2.0000      -0.704199       -19.1622
  36   2.0000      -0.695679       -18.9304
  37   2.0000      -0.665829       -18.1181
  38   2.0000      -0.634434       -17.2638
  39   2.0000      -0.615396       -16.7458
  40   2.0000      -0.592071       -16.1111
  41   2.0000      -0.569151       -15.4874
  42   2.0000      -0.562913       -15.3176
  43   2.0000      -0.558460       -15.1965
  44   2.0000      -0.527430       -14.3521
  45   2.0000      -0.525307       -14.2943
  46   2.0000      -0.519055       -14.1242
  47   2.0000      -0.511905       -13.9297
  48   2.0000      -0.504356       -13.7242
  49   2.0000      -0.500874       -13.6295
  50   2.0000      -0.484874       -13.1941
  51   2.0000      -0.479647       -13.0519
  52   2.0000      -0.464694       -12.6450
  53   2.0000      -0.458799       -12.4846
  54   2.0000      -0.455451       -12.3934
  55   2.0000      -0.451885       -12.2964
  56   2.0000      -0.442299       -12.0356
  57   2.0000      -0.439668       -11.9640
  58   2.0000      -0.434979       -11.8364
  59   2.0000      -0.427496       -11.6328
  60   2.0000      -0.425771       -11.5858
  61   2.0000      -0.419906       -11.4262
  62   2.0000      -0.414674       -11.2839
  63   2.0000      -0.352052        -9.5798
  64   2.0000      -0.332032        -9.0351
  65   2.0000      -0.329245        -8.9592
  66   2.0000      -0.289300        -7.8723
  67   0.0000       0.023448         0.6380
  68   0.0000       0.075512         2.0548
  69   0.0000       0.103432         2.8145
  70   0.0000       0.107670         2.9298
  71   0.0000       0.125014         3.4018

MULLIKEN ATOMIC CHARGES
-----------------------
   0 S :    0.096320
   1 C :   -0.098079
   2 C :   -0.090277
   3 C :   -0.022377
   4 C :   -0.122333
   5 H :    0.027412
   6 C :    0.069838
   7 H :    0.008301
   8 H :    0.007891
   9 C :   -0.039902
  10 H :    0.028179
  11 H :    0.019774
  12 C :   -0.016175
  13 H :    0.017843
  14 H :    0.038116
  15 H :    0.027758
  16 S :    0.098518
  17 C :   -0.120506
  18 C :   -0.049873
  19 C :   -0.050665
  20 C :   -0.137481
  21 H :    0.041473
  22 C :    0.108840
  23 H :    0.011964
  24 H :    0.012904
  25 C :   -0.114137
  26 H :    0.040233
  27 H :    0.042666
  28 C :   -0.028020
  29 H :    0.046722
  30 H :    0.020468
  31 H :    0.007511
  32 H :    0.036455
  33 H :    0.080639
Sum of atomic charges:    0.0000000

LOEWDIN ATOMIC CHARGES
----------------------
   0 S :    0.378418
   1 C :   -0.182714
   2 C :   -0.049472
   3 C :   -0.069578
   4 C :   -0.175016
   5 H :    0.029254
   6 C :   -0.032549
   7 H :    0.026093
   8 H :    0.025313
   9 C :   -0.024867
  10 H :    0.023507
  11 H :    0.018756
  12 C :   -0.052590
  13 H :    0.015609
  14 H :    0.033735
  15 H :    0.021927
  16 S :    0.397456
  17 C :   -0.186597
  18 C :   -0.068238
  19 C :   -0.061794
  20 C :   -0.202163
  21 H :    0.039179
  22 C :   -0.022930
  23 H :    0.017917
  24 H :    0.019468
  25 C :   -0.032747
  26 H :    0.022371
  27 H :    0.028063
  28 C :   -0.067013
  29 H :    0.029412
  30 H :    0.026658
  31 H :    0.013656
  32 H :    0.016608
  33 H :    0.044870

  Mayer bond orders larger than 0.100000
B(  0-S ,  1-C ) :   1.1097 B(  0-S ,  4-C ) :   1.1185 B(  1-C ,  2-C ) :   1.6615
B(  1-C , 32-H ) :   0.9621 B(  2-C ,  3-C ) :   1.2029 B(  2-C ,  6-C ) :   1.0304
B(  3-C ,  4-C ) :   1.5957 B(  3-C ,  5-H ) :   0.9822 B(  4-C , 20-C ) :   1.0668
B(  6-C ,  7-H ) :   0.9398 B(  6-C ,  8-H ) :   0.9304 B(  6-C ,  9-C ) :   1.0598
B(  9-C , 10-H ) :   0.9572 B(  9-C , 11-H ) :   0.9554 B(  9-C , 12-C ) :   1.0788
B( 12-C , 13-H ) :   0.9776 B( 12-C , 14-H ) :   0.9767 B( 12-C , 15-H ) :   0.9741
B( 16-S , 17-C ) :   1.1203 B( 16-S , 20-C ) :   1.1387 B( 17-C , 18-C ) :   1.6425
B( 17-C , 33-H ) :   0.9587 B( 18-C , 19-C ) :   1.2234 B( 18-C , 21-H ) :   0.9759
B( 19-C , 20-C ) :   1.5933 B( 19-C , 22-C ) :   1.0403 B( 22-C , 23-H ) :   0.9233
B( 22-C , 24-H ) :   0.9392 B( 22-C , 25-C ) :   1.0581 B( 25-C , 26-H ) :   0.9605
B( 25-C , 27-H ) :   0.9575 B( 25-C , 28-C ) :   1.0752 B( 28-C , 29-H ) :   0.9751
B( 28-C , 30-H ) :   0.9718 B( 28-C , 31-H ) :   0.9734

Dispersion correction           -0.013473098
FINAL SINGLE POINT ENERGY     -1339.871624879430

DIPOLE MOMENT
-------------
                                X             Y             Z
Electronic contribution:     -4.82310      -3.91124     -13.24086
Nuclear contribution   :      4.99833       3.84814      13.52288
                        -----------------------------------------
Total Dipole Moment    :      0.17523      -0.06309       0.28201
                        -----------------------------------------
Magnitude (a.u.)       :      0.33796
Magnitude (Debye)      :      0.85903

Rotational constants in cm-1:     0.021247     0.007385     0.006081
Rotational constants in MHz :   636.965564   221.387361   182.314204

                             ****ORCA TERMINATED NORMALLY****
TOTAL RUN TIME: 0 days 0 hours 0 minutes 32 seconds 34 msec
