                         Program Version 4.2.1 -  RELEASE  -
|  1> ! wB97X-D3 SP def2-SVP
|  2> %pal
|  3> nprocs 16
|  4> end
|  5>
|  6> * xyz 0 1
|  7> S 	 46.8403 	 13.2091 	 103.759
|  8> C 	 47.9195 	 14.3127 	 102.977
|  9> C 	 47.2192 	 15.1031 	 102.042
| 10> C 	 45.9042 	 14.6786 	 101.863
| 11> C 	 45.5375 	 13.6154 	 102.705
| 12> H 	 45.1571 	 15.0911 	 101.13
| 13> C 	 47.8844 	 16.1831 	 101.206
| 14> H 	 47.763 	 16.0817 	 100.139
| 15> H 	 48.9986 	 16.0324 	 101.318
| 16> C 	 47.5444 	 17.6008 	 101.754
| 17> H 	 47.1079 	 17.4358 	 102.707
| 18> H 	 48.4549 	 18.1875 	 101.897
| 19> C 	 46.6625 	 18.3774 	 100.82
| 20> H 	 45.9092 	 17.8143 	 100.312
| 21> H 	 46.1704 	 19.1676 	 101.327
| 22> H 	 47.1094 	 18.8195 	 99.9511
| 23> S 	 43.1762 	 13.929 	 103.986
| 24> C 	 41.8311 	 12.8132 	 103.523
| 25> C 	 42.1931 	 11.8171 	 102.619
| 26> C 	 43.59 	 11.93 	 102.308
| 27> C 	 44.1606 	 13.0654 	 102.848
| 28> H 	 41.431 	 11.0421 	 102.399
| 29> C 	 44.1997 	 10.899 	 101.395
| 30> H 	 43.8271 	 9.92416 	 101.692
| 31> H 	 45.3058 	 10.938 	 101.522
| 32> C 	 43.8201 	 10.903 	 99.8906
| 33> H 	 42.8965 	 11.3402 	 99.634
| 34> H 	 43.859 	 9.90401 	 99.4392
| 35> C 	 44.7996 	 11.8091 	 99.1399
| 36> H 	 44.3578 	 12.1308 	 98.1414
| 37> H 	 45.8223 	 11.488 	 98.9889
| 38> H 	 44.8597 	 12.6844 	 99.7293
| 39> H 	 48.9012 	 14.528 	 103.234
| 40> H 	 40.8205 	 13.0088 	 103.802
| 41> *
| 42>
| 43>                          ****END OF INPUT****

CARTESIAN COORDINATES (ANGSTROEM)
---------------------------------
  S     46.840300   13.209100  103.759000
  C     47.919500   14.312700  102.977000
  C     47.219200   15.103100  102.042000
  C     45.904200   14.678600  101.863000
  C     45.537500   13.615400  102.705000
  H     45.157100   15.091100  101.130000
  C     47.884400   16.183100  101.206000
  H     47.763000   16.081700  100.139000
  H     48.998600   16.032400  101.318000
  C     47.544400   17.600800  101.754000
  H     47.107900   17.435800  102.707000
  H     48.454900   18.187500  101.897000
  C     46.662500   18.377400  100.820000
  H     45.909200   17.814300  100.312000
  H     46.170400   19.167600  101.327000
  H     47.109400   18.819500   99.951100
  S     43.176200   13.929000  103.986000
  C     41.831100   12.813200  103.523000
  C     42.193100   11.817100  102.619000
  C     43.590000   11.930000  102.308000
  C     44.160600   13.065400  102.848000
  H     41.431000   11.042100  102.399000
  C     44.199700   10.899000  101.395000
  H     43.827100    9.924160  101.692000
  H     45.305800   10.938000  101.522000
  C     43.820100   10.903000   99.890600
  H     42.896500   11.340200   99.634000
  H     43.859000    9.904010   99.439200
  C     44.799600   11.809100   99.139900
  H     44.357800   12.130800   98.141400
  H     45.822300   11.488000   98.988900
  H     44.859700   12.684400   99.729300
  H     48.901200   14.528000  103.234000
  H     40.820500   13.008800  103.802000

 Total Charge           Charge          ....    0
 Multiplicity           Mult            ....    1
 Number of Electrons    NEL             ....  134
 Basis Dimension        Dim             ....  322

ORBITAL ENERGIES
----------------

  NO   OCC          E(Eh)            E(eV)
   0   2.0000     -88.970311     -2421.0052
   1   2.0000     -88.967714     -2420.9346
   2   2.0000     -10.327766      -281.0328
   3   2.0000     -10.326790      -281.0062
   4   2.0000     -10.319900      -280.8188
   5   2.0000     -10.309861      -280.5456
   6   2.0000     -10.306055      -280.4420
   7   2.0000     -10.300062      -280.2789
   8   2.0000     -10.299191      -280.2552
   9   2.0000     -10.295310      -280.1496
  10   2.0000     -10.292056      -280.0611
  11   2.0000     -10.291647      -280.0499
  12   2.0000     -10.281722      -279.7799
  13   2.0000     -10.281057      -279.7618
  14   2.0000     -10.267771      -279.4002
  15   2.0000     -10.265967      -279.3512
  16   2.0000      -8.085186      -220.0091
  17   2.0000      -8.081986      -219.9220
  18   2.0000      -6.043511      -164.4523
  19   2.0000      -6.040464      -164.3694
  20   2.0000      -6.039439      -164.3415
  21   2.0000      -6.036731      -164.2678
  22   2.0000      -6.036378      -164.2582
  23   2.0000      -6.032623      -164.1560
  24   2.0000      -1.006545       -27.3895
  25   2.0000      -0.983601       -26.7651
  26   2.0000      -0.911216       -24.7955
  27   2.0000      -0.907295       -24.6888
  28   2.0000      -0.866517       -23.5791
  29   2.0000      -0.851607       -23.1734
  30   2.0000      -0.846665       -23.0389
  31   2.0000      -0.813890       -22.1471
  32   2.0000      -0.781332       -21.2611
  33   2.0000      -0.768271       -20.9057
  34   2.0000      -0.705293       -19.1920
  35   2.0000      -0.701779       -19.0964
  36   2.0000      -0.692602       -18.8467
  37   2.0000      -0.662244       -18.0206
  38   2.0000      -0.641795       -17.4641
  39   2.0000      -0.616769       -16.7831
  40   2.0000      -0.596535       -16.2325
  41   2.0000      -0.572623       -15.5819
  42   2.0000      -0.552074       -15.0227
  43   2.0000      -0.547370       -14.8947
  44   2.0000      -0.534811       -14.5529
  45   2.0000      -0.532792       -14.4980
  46   2.0000      -0.521736       -14.1972
  47   2.0000      -0.519599       -14.1390
  48   2.0000      -0.499786       -13.5999
  49   2.0000      -0.494979       -13.4691
  50   2.0000      -0.484599       -13.1866
  51   2.0000      -0.476847       -12.9757
  52   2.0000      -0.467011       -12.7080
  53   2.0000      -0.465656       -12.6711
  54   2.0000      -0.455334       -12.3903
  55   2.0000      -0.447406       -12.1745
  56   2.0000      -0.446204       -12.1418
  57   2.0000      -0.439842       -11.9687
  58   2.0000      -0.432774       -11.7764
  59   2.0000      -0.422440       -11.4952
  60   2.0000      -0.418555       -11.3895
  61   2.0000      -0.413361       -11.2481
  62   2.0000      -0.409458       -11.1419
  63   2.0000      -0.341205        -9.2847
  64   2.0000      -0.331024        -9.0076
  65   2.0000      -0.312766        -8.5108
  66   2.0000      -0.311812        -8.4848
  67   0.0000       0.043678         1.1885
  68   0.0000       0.050949         1.3864
  69   0.0000       0.104119         2.8332
  70   0.0000       0.122351         3.3294
  71   0.0000       0.127798         3.4776

MULLIKEN ATOMIC CHARGES
-----------------------
   0 S :    0.140824
   1 C :   -0.085818
   2 C :   -0.102390
   3 C :    0.035108
   4 C :   -0.197865
   5 H :    0.040154
   6 C :    0.023812
   7 H :    0.034896
   8 H :    0.018282
   9 C :   -0.025823
  10 H :    0.031320
  11 H :    0.031428
  12 C :   -0.027625
  13 H :    0.008998
  14 H :    0.022664
  15 H :    0.018496
  16 S :    0.117062
  17 C :   -0.095391
  18 C :   -0.043748
  19 C :   -0.006011
  20 C :   -0.189580
  21 H :    0.043167
  22 C :    0.065002
  23 H :    0.019739
  24 H :    0.037560
  25 C :   -0.037207
  26 H :    0.019408
  27 H :    0.031770
  28 C :   -0.063674
  29 H :    0.027249
  30 H :    0.032946
  31 H :    0.007679
  32 H :    0.020481
  33 H :    0.047084
Sum of atomic charges:    0.0000000

LOEWDIN ATOMIC CHARGES
----------------------
   0 S :    0.439892
   1 C :   -0.200472
   2 C :   -0.064653
   3 C :   -0.068372
   4 C :   -0.218690
   5 H :    0.042025
   6 C :   -0.031688
   7 H :    0.027192
   8 H :    0.034250
   9 C :   -0.033880
  10 H :    0.022945
  11 H :    0.028116
  12 C :   -0.065906
  13 H :    0.019019
  14 H :    0.022945
  15 H :    0.023979
  16 S :    0.392708
  17 C :   -0.159810
  18 C :   -0.068499
  19 C :   -0.054559
  20 C :   -0.208432
  21 H :    0.044297
  22 C :   -0.031050
  23 H :    0.032545
  24 H :    0.035529
  25 C :   -0.034521
  26 H :    0.020821
  27 H :    0.024768
  28 C :   -0.066791
  29 H :    0.027152
  30 H :    0.020456
  31 H :    0.016157
  32 H :    0.013951
  33 H :    0.018575

  Mayer bond orders larger than 0.100000
B(  0-S ,  1-C ) :   1.1644 B(  0-S ,  4-C ) :   1.1885 B(  1-C ,  2-C ) :   1.5559
B(  1-C ,  4-C ) :   0.1122 B(  1-C , 32-H ) :   0.9729 B(  2-C ,  3-C ) :   1.2933
B(  2-C ,  6-C ) :   1.0369 B(  3-C ,  4-C ) :   1.5306 B(  3-C ,  5-H ) :   0.9832
B(  4-C , 20-C ) :   0.9956 B(  6-C ,  7-H ) :   0.9590 B(  6-C ,  8-H ) :   0.9426
B(  6-C ,  9-C ) :   1.0324 B(  9-C , 10-H ) :   0.9638 B(  9-C , 11-H ) :   0.9550
B(  9-C , 12-C ) :   1.0796 B( 12-C , 13-H ) :   0.9740 B( 12-C , 14-H ) :   0.9727
B( 12-C , 15-H ) :   0.9724 B( 16-S , 17-C ) :   1.1362 B( 16-S , 20-C ) :   1.1482
B( 17-C , 18-C ) :   1.6573 B( 17-C , 33-H ) :   0.9669 B( 18-C , 19-C ) :   1.1917
B( 18-C , 21-H ) :   0.9826 B( 19-C , 20-C ) :   1.6322 B( 19-C , 22-C ) :   1.0653
B( 22-C , 23-H ) :   0.9276 B( 22-C , 24-H ) :   0.9347 B( 22-C , 25-C ) :   1.0559
B( 25-C , 26-H ) :   0.9588 B( 25-C , 27-H ) :   0.9594 B( 25-C , 28-C ) :   1.0730
B( 28-C , 29-H ) :   0.9749 B( 28-C , 30-H ) :   0.9767 B( 28-C , 31-H ) :   0.9754

Dispersion correction           -0.014811739
FINAL SINGLE POINT ENERGY     -1339.864393334220

DIPOLE MOMENT
-------------
                                X             Y             Z
Electronic contribution:     -5.01957      -7.26709      21.67130
Nuclear contribution   :      4.94527       7.36603     -22.05116
                        -----------------------------------------
Total Dipole Moment    :     -0.07430       0.09894      -0.37986
                        -----------------------------------------
Magnitude (a.u.)       :      0.39950
Magnitude (Debye)      :      1.01545

Rotational constants in cm-1:     0.018607     0.008434     0.007697
Rotational constants in MHz :   557.827349   252.850204   230.761867

                             ****ORCA TERMINATED NORMALLY****
TOTAL RUN TIME: 0 days 0 hours 0 minutes 30 seconds 399 msec
