                         Program Version 4.2.1 -  RELEASE  -
|  1> ! wB97X-D3 SP def2-SVP
|  2> %pal
|  3> nprocs 16
|  4> end
|  5>
|  6> * xyz 0 1
|  7> S 	 -55.4251 	 37.8259 	 115.982
|  8> C 	 -55.8634 	 36.9341 	 117.488
|  9> C 	 -56.6408 	 35.8382 	 117.163
| 10> C 	 -56.8456 	 35.6633 	 115.769
| 11> C 	 -56.3597 	 36.7131 	 115.072
| 12> H 	 -57.2955 	 34.8736 	 115.274
| 13> C 	 -57.1397 	 34.8785 	 118.237
| 14> H 	 -58.1699 	 34.7761 	 118.027
| 15> H 	 -56.9643 	 35.2606 	 119.264
| 16> C 	 -56.4777 	 33.4419 	 118.236
| 17> H 	 -56.6545 	 33.0477 	 119.174
| 18> H 	 -57.0154 	 32.83 	 117.507
| 19> C 	 -54.9538 	 33.4406 	 117.985
| 20> H 	 -54.5272 	 34.2698 	 118.557
| 21> H 	 -54.4222 	 32.4962 	 118.2
| 22> H 	 -54.7985 	 33.6393 	 116.904
| 23> S 	 -58.3236 	 37.1181 	 113.279
| 24> C 	 -58.0116 	 37.3669 	 111.582
| 25> C 	 -56.6771 	 37.2629 	 111.299
| 26> C 	 -55.8547 	 37.055 	 112.468
| 27> C 	 -56.6765 	 36.8838 	 113.666
| 28> H 	 -56.3828 	 37.4709 	 110.263
| 29> C 	 -54.4037 	 36.9695 	 112.486
| 30> H 	 -54.0411 	 37.3566 	 113.36
| 31> H 	 -54.0234 	 37.7009 	 111.738
| 32> C 	 -53.7812 	 35.6065 	 112.175
| 33> H 	 -52.8416 	 35.6884 	 111.735
| 34> H 	 -54.2635 	 35.0817 	 111.327
| 35> C 	 -53.6578 	 34.5517 	 113.318
| 36> H 	 -53.3039 	 33.6665 	 112.849
| 37> H 	 -54.6466 	 34.3883 	 113.735
| 38> H 	 -53.0398 	 34.978 	 114.123
| 39> H 	 -55.4402 	 37.2167 	 118.39
| 40> H 	 -58.661 	 37.828 	 110.891
| 41> *
| 42>
| 43>                          ****END OF INPUT****

CARTESIAN COORDINATES (ANGSTROEM)
---------------------------------
  S    -55.425100   37.825900  115.982000
  C    -55.863400   36.934100  117.488000
  C    -56.640800   35.838200  117.163000
  C    -56.845600   35.663300  115.769000
  C    -56.359700   36.713100  115.072000
  H    -57.295500   34.873600  115.274000
  C    -57.139700   34.878500  118.237000
  H    -58.169900   34.776100  118.027000
  H    -56.964300   35.260600  119.264000
  C    -56.477700   33.441900  118.236000
  H    -56.654500   33.047700  119.174000
  H    -57.015400   32.830000  117.507000
  C    -54.953800   33.440600  117.985000
  H    -54.527200   34.269800  118.557000
  H    -54.422200   32.496200  118.200000
  H    -54.798500   33.639300  116.904000
  S    -58.323600   37.118100  113.279000
  C    -58.011600   37.366900  111.582000
  C    -56.677100   37.262900  111.299000
  C    -55.854700   37.055000  112.468000
  C    -56.676500   36.883800  113.666000
  H    -56.382800   37.470900  110.263000
  C    -54.403700   36.969500  112.486000
  H    -54.041100   37.356600  113.360000
  H    -54.023400   37.700900  111.738000
  C    -53.781200   35.606500  112.175000
  H    -52.841600   35.688400  111.735000
  H    -54.263500   35.081700  111.327000
  C    -53.657800   34.551700  113.318000
  H    -53.303900   33.666500  112.849000
  H    -54.646600   34.388300  113.735000
  H    -53.039800   34.978000  114.123000
  H    -55.440200   37.216700  118.390000
  H    -58.661000   37.828000  110.891000

 Total Charge           Charge          ....    0
 Multiplicity           Mult            ....    1
 Number of Electrons    NEL             ....  134
 Basis Dimension        Dim             ....  322

ORBITAL ENERGIES
----------------

  NO   OCC          E(Eh)            E(eV)
   0   2.0000     -88.965928     -2420.8860
   1   2.0000     -88.965522     -2420.8749
   2   2.0000     -10.325853      -280.9807
   3   2.0000     -10.325277      -280.9651
   4   2.0000     -10.312289      -280.6116
   5   2.0000     -10.309442      -280.5342
   6   2.0000     -10.307021      -280.4683
   7   2.0000     -10.303702      -280.3780
   8   2.0000     -10.295381      -280.1515
   9   2.0000     -10.292525      -280.0739
  10   2.0000     -10.285982      -279.8958
  11   2.0000     -10.282480      -279.8005
  12   2.0000     -10.280727      -279.7528
  13   2.0000     -10.278093      -279.6811
  14   2.0000     -10.277339      -279.6606
  15   2.0000     -10.270807      -279.4829
  16   2.0000      -8.081137      -219.8989
  17   2.0000      -8.080170      -219.8726
  18   2.0000      -6.039499      -164.3431
  19   2.0000      -6.038607      -164.3188
  20   2.0000      -6.035344      -164.2301
  21   2.0000      -6.034803      -164.2153
  22   2.0000      -6.032246      -164.1458
  23   2.0000      -6.030909      -164.1094
  24   2.0000      -1.010719       -27.5031
  25   2.0000      -0.984456       -26.7884
  26   2.0000      -0.910377       -24.7726
  27   2.0000      -0.908065       -24.7097
  28   2.0000      -0.871778       -23.7223
  29   2.0000      -0.849918       -23.1274
  30   2.0000      -0.844278       -22.9740
  31   2.0000      -0.819205       -22.2917
  32   2.0000      -0.784217       -21.3396
  33   2.0000      -0.770279       -20.9604
  34   2.0000      -0.709824       -19.3153
  35   2.0000      -0.701398       -19.0860
  36   2.0000      -0.695497       -18.9254
  37   2.0000      -0.658205       -17.9107
  38   2.0000      -0.645570       -17.5669
  39   2.0000      -0.620835       -16.8938
  40   2.0000      -0.596878       -16.2419
  41   2.0000      -0.566159       -15.4060
  42   2.0000      -0.562580       -15.3086
  43   2.0000      -0.553389       -15.0585
  44   2.0000      -0.538820       -14.6620
  45   2.0000      -0.533034       -14.5046
  46   2.0000      -0.524409       -14.2699
  47   2.0000      -0.521382       -14.1875
  48   2.0000      -0.498935       -13.5767
  49   2.0000      -0.494881       -13.4664
  50   2.0000      -0.489968       -13.3327
  51   2.0000      -0.478110       -13.0100
  52   2.0000      -0.471946       -12.8423
  53   2.0000      -0.466161       -12.6849
  54   2.0000      -0.462377       -12.5819
  55   2.0000      -0.449797       -12.2396
  56   2.0000      -0.444421       -12.0933
  57   2.0000      -0.438366       -11.9285
  58   2.0000      -0.435074       -11.8390
  59   2.0000      -0.421616       -11.4728
  60   2.0000      -0.416196       -11.3253
  61   2.0000      -0.411345       -11.1933
  62   2.0000      -0.407901       -11.0995
  63   2.0000      -0.342374        -9.3165
  64   2.0000      -0.334700        -9.1076
  65   2.0000      -0.325512        -8.8576
  66   2.0000      -0.293582        -7.9888
  67   0.0000       0.034827         0.9477
  68   0.0000       0.063918         1.7393
  69   0.0000       0.108386         2.9493
  70   0.0000       0.121429         3.3042
  71   0.0000       0.121599         3.3089

MULLIKEN ATOMIC CHARGES
-----------------------
   0 S :    0.101229
   1 C :   -0.117700
   2 C :   -0.061062
   3 C :    0.033489
   4 C :   -0.123382
   5 H :   -0.008441
   6 C :    0.072710
   7 H :    0.029102
   8 H :    0.027020
   9 C :   -0.066855
  10 H :    0.016258
  11 H :    0.027447
  12 C :   -0.056211
  13 H :    0.025756
  14 H :    0.043982
  15 H :    0.040464
  16 S :    0.126223
  17 C :   -0.087874
  18 C :   -0.044456
  19 C :   -0.047563
  20 C :   -0.180479
  21 H :    0.026157
  22 C :    0.136746
  23 H :   -0.019255
  24 H :    0.019450
  25 C :   -0.068404
  26 H :    0.002890
  27 H :    0.011780
  28 C :   -0.025410
  29 H :    0.030928
  30 H :    0.027019
  31 H :    0.037830
  32 H :    0.023644
  33 H :    0.046971
Sum of atomic charges:    0.0000000

LOEWDIN ATOMIC CHARGES
----------------------
   0 S :    0.394338
   1 C :   -0.170943
   2 C :   -0.050265
   3 C :   -0.062853
   4 C :   -0.197238
   5 H :    0.022520
   6 C :   -0.023669
   7 H :    0.028056
   8 H :    0.032110
   9 C :   -0.034160
  10 H :    0.012810
  11 H :    0.020511
  12 C :   -0.069322
  13 H :    0.024214
  14 H :    0.028623
  15 H :    0.030459
  16 S :    0.441768
  17 C :   -0.195131
  18 C :   -0.069185
  19 C :   -0.050710
  20 C :   -0.216799
  21 H :    0.036311
  22 C :   -0.036122
  23 H :    0.012435
  24 H :    0.041482
  25 C :   -0.038740
  26 H :    0.013179
  27 H :    0.025569
  28 C :   -0.056363
  29 H :    0.023242
  30 H :    0.021897
  31 H :    0.026839
  32 H :    0.010603
  33 H :    0.024533

  Mayer bond orders larger than 0.100000
B(  0-S ,  1-C ) :   1.1107 B(  0-S ,  4-C ) :   1.1586 B(  1-C ,  2-C ) :   1.6096
B(  1-C , 32-H ) :   0.9857 B(  2-C ,  3-C ) :   1.1967 B(  2-C ,  6-C ) :   1.0296
B(  3-C ,  4-C ) :   1.5697 B(  3-C ,  5-H ) :   1.0156 B(  4-C , 20-C ) :   1.0328
B(  6-C ,  7-H ) :   0.9381 B(  6-C ,  8-H ) :   0.9476 B(  6-C ,  9-C ) :   1.0646
B(  9-C , 10-H ) :   0.9614 B(  9-C , 11-H ) :   0.9570 B(  9-C , 12-C ) :   1.0801
B( 12-C , 13-H ) :   0.9756 B( 12-C , 14-H ) :   0.9757 B( 12-C , 15-H ) :   0.9689
B( 16-S , 17-C ) :   1.1656 B( 16-S , 20-C ) :   1.1782 B( 17-C , 18-C ) :   1.5993
B( 17-C , 33-H ) :   0.9673 B( 18-C , 19-C ) :   1.2648 B( 18-C , 21-H ) :   0.9857
B( 19-C , 20-C ) :   1.5033 B( 19-C , 22-C ) :   1.0817 B( 22-C , 23-H ) :   0.9183
B( 22-C , 24-H ) :   0.9168 B( 22-C , 25-C ) :   1.0611 B( 25-C , 26-H ) :   0.9515
B( 25-C , 27-H ) :   0.9538 B( 25-C , 28-C ) :   1.0815 B( 28-C , 29-H ) :   0.9716
B( 28-C , 30-H ) :   0.9770 B( 28-C , 31-H ) :   0.9769

Dispersion correction           -0.015989874
FINAL SINGLE POINT ENERGY     -1339.866420540141

DIPOLE MOMENT
-------------
                                X             Y             Z
Electronic contribution:    -13.12683      18.49836      -5.25624
Nuclear contribution   :     13.30574     -18.73450       5.22765
                        -----------------------------------------
Total Dipole Moment    :      0.17890      -0.23613      -0.02858
                        -----------------------------------------
Magnitude (a.u.)       :      0.29763
Magnitude (Debye)      :      0.75651

Rotational constants in cm-1:     0.020209     0.009256     0.007981
Rotational constants in MHz :   605.856372   277.492604   239.263481

                             ****ORCA TERMINATED NORMALLY****
TOTAL RUN TIME: 0 days 0 hours 0 minutes 29 seconds 857 msec
