                         Program Version 4.2.1 -  RELEASE  -
|  1> ! wB97X-D3 SP def2-SVP
|  2> %pal
|  3> nprocs 16
|  4> end
|  5>
|  6> * xyz 0 1
|  7> S 	 -42.697 	 15.4895 	 76.2521
|  8> C 	 -41.0656 	 15.6324 	 76.9637
|  9> C 	 -40.2847 	 14.5191 	 76.7625
| 10> C 	 -41.069 	 13.4872 	 76.1871
| 11> C 	 -42.3899 	 13.7951 	 75.8951
| 12> H 	 -40.7241 	 12.4844 	 75.9555
| 13> C 	 -38.746 	 14.5298 	 76.9791
| 14> H 	 -38.444 	 15.543 	 77.2789
| 15> H 	 -38.1857 	 14.2541 	 76.0527
| 16> C 	 -38.3416 	 13.5177 	 78.0405
| 17> H 	 -38.9308 	 13.6387 	 79.0094
| 18> H 	 -38.6295 	 12.5744 	 77.5464
| 19> C 	 -36.8014 	 13.3439 	 78.3168
| 20> H 	 -36.3398 	 14.2625 	 78.7598
| 21> H 	 -36.613 	 12.5028 	 79.008
| 22> H 	 -36.4192 	 13.2364 	 77.2537
| 23> S 	 -44.6841 	 13.8348 	 74.3973
| 24> C 	 -45.4936 	 12.3538 	 74.0698
| 25> C 	 -45.0473 	 11.2616 	 74.7444
| 26> C 	 -43.9539 	 11.6711 	 75.5223
| 27> C 	 -43.4998 	 12.9711 	 75.3539
| 28> H 	 -45.4325 	 10.2682 	 74.6347
| 29> C 	 -43.2551 	 10.6761 	 76.3139
| 30> H 	 -44.1049 	 10.0894 	 76.7162
| 31> H 	 -42.7504 	 11.2071 	 77.1447
| 32> C 	 -42.3719 	 9.7465 	 75.5345
| 33> H 	 -41.5231 	 10.4226 	 75.2598
| 34> H 	 -42.7832 	 9.37461 	 74.6273
| 35> C 	 -41.8381 	 8.59432 	 76.3525
| 36> H 	 -42.5402 	 7.76296 	 76.4969
| 37> H 	 -41.6475 	 8.87158 	 77.3943
| 38> H 	 -40.8641 	 8.16709 	 75.985
| 39> H 	 -40.5378 	 16.6677 	 77.1566
| 40> H 	 -46.2431 	 12.2099 	 73.3637
| 41> *
| 42>
| 43>                          ****END OF INPUT****

CARTESIAN COORDINATES (ANGSTROEM)
---------------------------------
  S    -42.697000   15.489500   76.252100
  C    -41.065600   15.632400   76.963700
  C    -40.284700   14.519100   76.762500
  C    -41.069000   13.487200   76.187100
  C    -42.389900   13.795100   75.895100
  H    -40.724100   12.484400   75.955500
  C    -38.746000   14.529800   76.979100
  H    -38.444000   15.543000   77.278900
  H    -38.185700   14.254100   76.052700
  C    -38.341600   13.517700   78.040500
  H    -38.930800   13.638700   79.009400
  H    -38.629500   12.574400   77.546400
  C    -36.801400   13.343900   78.316800
  H    -36.339800   14.262500   78.759800
  H    -36.613000   12.502800   79.008000
  H    -36.419200   13.236400   77.253700
  S    -44.684100   13.834800   74.397300
  C    -45.493600   12.353800   74.069800
  C    -45.047300   11.261600   74.744400
  C    -43.953900   11.671100   75.522300
  C    -43.499800   12.971100   75.353900
  H    -45.432500   10.268200   74.634700
  C    -43.255100   10.676100   76.313900
  H    -44.104900   10.089400   76.716200
  H    -42.750400   11.207100   77.144700
  C    -42.371900    9.746500   75.534500
  H    -41.523100   10.422600   75.259800
  H    -42.783200    9.374610   74.627300
  C    -41.838100    8.594320   76.352500
  H    -42.540200    7.762960   76.496900
  H    -41.647500    8.871580   77.394300
  H    -40.864100    8.167090   75.985000
  H    -40.537800   16.667700   77.156600
  H    -46.243100   12.209900   73.363700

 Total Charge           Charge          ....    0
 Multiplicity           Mult            ....    1
 Number of Electrons    NEL             ....  134
 Basis Dimension        Dim             ....  322

ORBITAL ENERGIES
----------------

  NO   OCC          E(Eh)            E(eV)
   0   2.0000     -88.967546     -2420.9300
   1   2.0000     -88.966657     -2420.9058
   2   2.0000     -10.337569      -281.2996
   3   2.0000     -10.327503      -281.0257
   4   2.0000     -10.322269      -280.8832
   5   2.0000     -10.311226      -280.5827
   6   2.0000     -10.306055      -280.4420
   7   2.0000     -10.303713      -280.3783
   8   2.0000     -10.297247      -280.2023
   9   2.0000     -10.296378      -280.1787
  10   2.0000     -10.293465      -280.0994
  11   2.0000     -10.292307      -280.0679
  12   2.0000     -10.289563      -279.9933
  13   2.0000     -10.286296      -279.9043
  14   2.0000     -10.284019      -279.8424
  15   2.0000     -10.281114      -279.7633
  16   2.0000      -8.082176      -219.9272
  17   2.0000      -8.081697      -219.9142
  18   2.0000      -6.040651      -164.3745
  19   2.0000      -6.040328      -164.3657
  20   2.0000      -6.036654      -164.2657
  21   2.0000      -6.036448      -164.2601
  22   2.0000      -6.032868      -164.1627
  23   2.0000      -6.032190      -164.1442
  24   2.0000      -1.013582       -27.5810
  25   2.0000      -0.988394       -26.8956
  26   2.0000      -0.922688       -25.1076
  27   2.0000      -0.910498       -24.7759
  28   2.0000      -0.871308       -23.7095
  29   2.0000      -0.857368       -23.3302
  30   2.0000      -0.842197       -22.9174
  31   2.0000      -0.818381       -22.2693
  32   2.0000      -0.782511       -21.2932
  33   2.0000      -0.769906       -20.9502
  34   2.0000      -0.709258       -19.2999
  35   2.0000      -0.698374       -19.0037
  36   2.0000      -0.685042       -18.6409
  37   2.0000      -0.669981       -18.2311
  38   2.0000      -0.638916       -17.3858
  39   2.0000      -0.620322       -16.8798
  40   2.0000      -0.599669       -16.3178
  41   2.0000      -0.577272       -15.7084
  42   2.0000      -0.569210       -15.4890
  43   2.0000      -0.556806       -15.1515
  44   2.0000      -0.532384       -14.4869
  45   2.0000      -0.525428       -14.2976
  46   2.0000      -0.515959       -14.0400
  47   2.0000      -0.509753       -13.8711
  48   2.0000      -0.504997       -13.7417
  49   2.0000      -0.495126       -13.4731
  50   2.0000      -0.488462       -13.2917
  51   2.0000      -0.486089       -13.2272
  52   2.0000      -0.470121       -12.7926
  53   2.0000      -0.465483       -12.6664
  54   2.0000      -0.464294       -12.6341
  55   2.0000      -0.453975       -12.3533
  56   2.0000      -0.442389       -12.0380
  57   2.0000      -0.440362       -11.9829
  58   2.0000      -0.434698       -11.8287
  59   2.0000      -0.421320       -11.4647
  60   2.0000      -0.418082       -11.3766
  61   2.0000      -0.416978       -11.3466
  62   2.0000      -0.410359       -11.1664
  63   2.0000      -0.356473        -9.7001
  64   2.0000      -0.337024        -9.1709
  65   2.0000      -0.330776        -9.0009
  66   2.0000      -0.287679        -7.8281
  67   0.0000       0.024244         0.6597
  68   0.0000       0.069149         1.8816
  69   0.0000       0.098398         2.6775
  70   0.0000       0.117612         3.2004
  71   0.0000       0.131323         3.5735

MULLIKEN ATOMIC CHARGES
-----------------------
   0 S :    0.091790
   1 C :   -0.152983
   2 C :   -0.079136
   3 C :    0.009152
   4 C :   -0.117269
   5 H :   -0.001827
   6 C :    0.087191
   7 H :    0.016087
   8 H :    0.041396
   9 C :   -0.146077
  10 H :    0.048863
  11 H :    0.030100
  12 C :   -0.059034
  13 H :    0.040552
  14 H :    0.054786
  15 H :    0.034797
  16 S :    0.096841
  17 C :   -0.030200
  18 C :   -0.035734
  19 C :   -0.055544
  20 C :   -0.130893
  21 H :    0.016859
  22 C :    0.022571
  23 H :    0.016986
  24 H :    0.039029
  25 C :   -0.025209
  26 H :    0.019338
  27 H :    0.020900
  28 C :   -0.050451
  29 H :    0.029882
  30 H :    0.020845
  31 H :    0.040414
  32 H :    0.082966
  33 H :    0.023011
Sum of atomic charges:    0.0000000

LOEWDIN ATOMIC CHARGES
----------------------
   0 S :    0.380683
   1 C :   -0.205227
   2 C :   -0.063149
   3 C :   -0.072677
   4 C :   -0.178111
   5 H :    0.025349
   6 C :   -0.025646
   7 H :    0.025168
   8 H :    0.036279
   9 C :   -0.054296
  10 H :    0.029643
  11 H :    0.023172
  12 C :   -0.073943
  13 H :    0.025542
  14 H :    0.031835
  15 H :    0.031465
  16 S :    0.411638
  17 C :   -0.166511
  18 C :   -0.066800
  19 C :   -0.055680
  20 C :   -0.202457
  21 H :    0.034911
  22 C :   -0.040902
  23 H :    0.031481
  24 H :    0.035059
  25 C :   -0.038611
  26 H :    0.027422
  27 H :    0.021098
  28 C :   -0.072640
  29 H :    0.024682
  30 H :    0.024833
  31 H :    0.032012
  32 H :    0.049041
  33 H :    0.015337

  Mayer bond orders larger than 0.100000
B(  0-S ,  1-C ) :   1.1241 B(  0-S ,  4-C ) :   1.1402 B(  1-C ,  2-C ) :   1.6487
B(  1-C , 32-H ) :   0.9431 B(  2-C ,  3-C ) :   1.2293 B(  2-C ,  6-C ) :   1.0188
B(  3-C ,  4-C ) :   1.5893 B(  3-C ,  5-H ) :   0.9950 B(  4-C , 20-C ) :   1.0431
B(  6-C ,  7-H ) :   0.9407 B(  6-C ,  8-H ) :   0.9409 B(  6-C ,  9-C ) :   1.0472
B(  9-C , 10-H ) :   0.9570 B(  9-C , 11-H ) :   0.9614 B(  9-C , 12-C ) :   1.0685
B( 12-C , 13-H ) :   0.9773 B( 12-C , 14-H ) :   0.9752 B( 12-C , 15-H ) :   0.9715
B( 16-S , 17-C ) :   1.1746 B( 16-S , 20-C ) :   1.1115 B( 17-C , 18-C ) :   1.6068
B( 17-C , 33-H ) :   0.9666 B( 18-C , 19-C ) :   1.2334 B( 18-C , 21-H ) :   0.9986
B( 19-C , 20-C ) :   1.5927 B( 19-C , 22-C ) :   1.0654 B( 22-C , 23-H ) :   0.9240
B( 22-C , 24-H ) :   0.9259 B( 22-C , 25-C ) :   1.0732 B( 25-C , 26-H ) :   0.9461
B( 25-C , 27-H ) :   0.9529 B( 25-C , 28-C ) :   1.0798 B( 28-C , 29-H ) :   0.9734
B( 28-C , 30-H ) :   0.9704 B( 28-C , 31-H ) :   0.9739

Dispersion correction           -0.013717354
FINAL SINGLE POINT ENERGY     -1339.866697504156

DIPOLE MOMENT
-------------
                                X             Y             Z
Electronic contribution:    -24.18712      19.71546     -10.67441
Nuclear contribution   :     24.55130     -20.30735      10.63334
                        -----------------------------------------
Total Dipole Moment    :      0.36418      -0.59188      -0.04107
                        -----------------------------------------
Magnitude (a.u.)       :      0.69616
Magnitude (Debye)      :      1.76951

Rotational constants in cm-1:     0.017696     0.008932     0.006133
Rotational constants in MHz :   530.525592   267.782181   183.847852

                             ****ORCA TERMINATED NORMALLY****
TOTAL RUN TIME: 0 days 0 hours 0 minutes 29 seconds 843 msec
