                         Program Version 4.2.1 -  RELEASE  -
|  1> ! wB97X-D3 SP def2-SVP
|  2> %pal
|  3> nprocs 16
|  4> end
|  5>
|  6> * xyz 0 1
|  7> S 	 37.0121 	 18.3338 	 65.1284
|  8> C 	 36.3872 	 18.8362 	 66.7588
|  9> C 	 36.9582 	 17.9768 	 67.7108
| 10> C 	 37.903 	 17.0605 	 67.1469
| 11> C 	 37.9602 	 16.9894 	 65.7604
| 12> H 	 38.3692 	 16.2926 	 67.74
| 13> C 	 36.534 	 17.9742 	 69.1512
| 14> H 	 36.3924 	 16.9199 	 69.4395
| 15> H 	 35.5761 	 18.4485 	 69.3302
| 16> C 	 37.5373 	 18.6242 	 70.0654
| 17> H 	 38.5043 	 18.2091 	 69.8828
| 18> H 	 37.6115 	 19.6939 	 69.7397
| 19> C 	 37.0741 	 18.5784 	 71.5408
| 20> H 	 37.0164 	 17.5888 	 72.0236
| 21> H 	 37.6631 	 19.1957 	 72.1841
| 22> H 	 36.1208 	 19.0048 	 71.6408
| 23> S 	 39.2982 	 16.8672 	 63.4314
| 24> C 	 40.1544 	 15.4683 	 62.9181
| 25> C 	 40.0361 	 14.4664 	 63.8333
| 26> C 	 39.1546 	 14.7971 	 64.9534
| 27> C 	 38.7701 	 16.1373 	 64.8421
| 28> H 	 40.5419 	 13.4919 	 63.7273
| 29> C 	 38.6293 	 13.7482 	 65.9744
| 30> H 	 37.5964 	 13.9592 	 66.3133
| 31> H 	 39.2991 	 13.8416 	 66.866
| 32> C 	 38.501 	 12.3337 	 65.3883
| 33> H 	 38.2104 	 11.5856 	 66.1281
| 34> H 	 39.4411 	 11.9678 	 65.0625
| 35> C 	 37.4562 	 12.1338 	 64.3403
| 36> H 	 36.4873 	 12.5802 	 64.5902
| 37> H 	 37.3345 	 11.0532 	 64.1812
| 38> H 	 37.7604 	 12.6693 	 63.4124
| 39> H 	 35.3955 	 19.38 	 66.9707
| 40> H 	 40.8253 	 15.3625 	 62.0633
| 41> *
| 42>
| 43>                          ****END OF INPUT****

CARTESIAN COORDINATES (ANGSTROEM)
---------------------------------
  S     37.012100   18.333800   65.128400
  C     36.387200   18.836200   66.758800
  C     36.958200   17.976800   67.710800
  C     37.903000   17.060500   67.146900
  C     37.960200   16.989400   65.760400
  H     38.369200   16.292600   67.740000
  C     36.534000   17.974200   69.151200
  H     36.392400   16.919900   69.439500
  H     35.576100   18.448500   69.330200
  C     37.537300   18.624200   70.065400
  H     38.504300   18.209100   69.882800
  H     37.611500   19.693900   69.739700
  C     37.074100   18.578400   71.540800
  H     37.016400   17.588800   72.023600
  H     37.663100   19.195700   72.184100
  H     36.120800   19.004800   71.640800
  S     39.298200   16.867200   63.431400
  C     40.154400   15.468300   62.918100
  C     40.036100   14.466400   63.833300
  C     39.154600   14.797100   64.953400
  C     38.770100   16.137300   64.842100
  H     40.541900   13.491900   63.727300
  C     38.629300   13.748200   65.974400
  H     37.596400   13.959200   66.313300
  H     39.299100   13.841600   66.866000
  C     38.501000   12.333700   65.388300
  H     38.210400   11.585600   66.128100
  H     39.441100   11.967800   65.062500
  C     37.456200   12.133800   64.340300
  H     36.487300   12.580200   64.590200
  H     37.334500   11.053200   64.181200
  H     37.760400   12.669300   63.412400
  H     35.395500   19.380000   66.970700
  H     40.825300   15.362500   62.063300

 Total Charge           Charge          ....    0
 Multiplicity           Mult            ....    1
 Number of Electrons    NEL             ....  134
 Basis Dimension        Dim             ....  322

ORBITAL ENERGIES
----------------

  NO   OCC          E(Eh)            E(eV)
   0   2.0000     -88.968386     -2420.9529
   1   2.0000     -88.963600     -2420.8226
   2   2.0000     -10.339091      -281.3410
   3   2.0000     -10.329413      -281.0776
   4   2.0000     -10.324308      -280.9387
   5   2.0000     -10.315727      -280.7052
   6   2.0000     -10.310733      -280.5693
   7   2.0000     -10.305358      -280.4230
   8   2.0000     -10.303568      -280.3743
   9   2.0000     -10.298578      -280.2386
  10   2.0000     -10.295500      -280.1548
  11   2.0000     -10.289902      -280.0025
  12   2.0000     -10.286436      -279.9082
  13   2.0000     -10.282396      -279.7982
  14   2.0000     -10.276480      -279.6372
  15   2.0000     -10.274617      -279.5865
  16   2.0000      -8.085074      -220.0060
  17   2.0000      -8.077168      -219.7909
  18   2.0000      -6.043475      -164.4513
  19   2.0000      -6.039253      -164.3364
  20   2.0000      -6.035909      -164.2454
  21   2.0000      -6.035859      -164.2441
  22   2.0000      -6.031753      -164.1323
  23   2.0000      -6.027813      -164.0251
  24   2.0000      -1.014413       -27.6036
  25   2.0000      -0.981764       -26.7151
  26   2.0000      -0.916734       -24.9456
  27   2.0000      -0.913248       -24.8507
  28   2.0000      -0.869551       -23.6617
  29   2.0000      -0.852031       -23.1850
  30   2.0000      -0.839626       -22.8474
  31   2.0000      -0.817019       -22.2322
  32   2.0000      -0.783826       -21.3290
  33   2.0000      -0.774074       -21.0636
  34   2.0000      -0.707828       -19.2610
  35   2.0000      -0.698150       -18.9976
  36   2.0000      -0.693919       -18.8825
  37   2.0000      -0.657577       -17.8936
  38   2.0000      -0.637450       -17.3459
  39   2.0000      -0.619745       -16.8641
  40   2.0000      -0.601977       -16.3806
  41   2.0000      -0.567334       -15.4379
  42   2.0000      -0.563597       -15.3363
  43   2.0000      -0.558505       -15.1977
  44   2.0000      -0.542591       -14.7646
  45   2.0000      -0.519873       -14.1465
  46   2.0000      -0.516848       -14.0641
  47   2.0000      -0.513011       -13.9597
  48   2.0000      -0.502645       -13.6777
  49   2.0000      -0.499396       -13.5893
  50   2.0000      -0.492602       -13.4044
  51   2.0000      -0.481799       -13.1104
  52   2.0000      -0.468617       -12.7517
  53   2.0000      -0.464027       -12.6268
  54   2.0000      -0.460910       -12.5420
  55   2.0000      -0.451981       -12.2990
  56   2.0000      -0.447081       -12.1657
  57   2.0000      -0.443490       -12.0680
  58   2.0000      -0.438498       -11.9321
  59   2.0000      -0.427287       -11.6271
  60   2.0000      -0.420758       -11.4494
  61   2.0000      -0.410569       -11.1722
  62   2.0000      -0.405232       -11.0269
  63   2.0000      -0.357352        -9.7241
  64   2.0000      -0.331825        -9.0294
  65   2.0000      -0.326915        -8.8958
  66   2.0000      -0.290503        -7.9050
  67   0.0000       0.023369         0.6359
  68   0.0000       0.077497         2.1088
  69   0.0000       0.099546         2.7088
  70   0.0000       0.118209         3.2166
  71   0.0000       0.139622         3.7993

MULLIKEN ATOMIC CHARGES
-----------------------
   0 S :    0.070675
   1 C :   -0.134325
   2 C :   -0.116220
   3 C :    0.039786
   4 C :   -0.121946
   5 H :    0.002338
   6 C :    0.056299
   7 H :    0.027148
   8 H :    0.010850
   9 C :   -0.074134
  10 H :    0.024555
  11 H :    0.032373
  12 C :   -0.009943
  13 H :    0.033072
  14 H :    0.023161
  15 H :    0.009099
  16 S :    0.123749
  17 C :   -0.080967
  18 C :   -0.055694
  19 C :   -0.074010
  20 C :   -0.132953
  21 H :    0.030538
  22 C :    0.058824
  23 H :    0.038364
  24 H :    0.052455
  25 C :   -0.069853
  26 H :    0.021948
  27 H :    0.010567
  28 C :   -0.052749
  29 H :    0.028601
  30 H :    0.039976
  31 H :    0.037940
  32 H :    0.089952
  33 H :    0.060524
Sum of atomic charges:    0.0000000

LOEWDIN ATOMIC CHARGES
----------------------
   0 S :    0.364540
   1 C :   -0.205636
   2 C :   -0.056415
   3 C :   -0.074558
   4 C :   -0.173392
   5 H :    0.025863
   6 C :   -0.033658
   7 H :    0.031132
   8 H :    0.026574
   9 C :   -0.036044
  10 H :    0.018755
  11 H :    0.031919
  12 C :   -0.063634
  13 H :    0.028216
  14 H :    0.023961
  15 H :    0.018441
  16 S :    0.454190
  17 C :   -0.203280
  18 C :   -0.073198
  19 C :   -0.060148
  20 C :   -0.220339
  21 H :    0.035224
  22 C :   -0.032563
  23 H :    0.034798
  24 H :    0.037546
  25 C :   -0.048105
  26 H :    0.028332
  27 H :    0.013510
  28 C :   -0.064414
  29 H :    0.025239
  30 H :    0.030353
  31 H :    0.027480
  32 H :    0.052467
  33 H :    0.036845

  Mayer bond orders larger than 0.100000
B(  0-S ,  1-C ) :   1.1106 B(  0-S ,  4-C ) :   1.1535 B(  1-C ,  2-C ) :   1.6175
B(  1-C ,  4-C ) :   0.1037 B(  1-C , 32-H ) :   0.9510 B(  2-C ,  3-C ) :   1.2432
B(  2-C ,  6-C ) :   1.0328 B(  3-C ,  4-C ) :   1.5809 B(  3-C ,  5-H ) :   0.9855
B(  4-C , 20-C ) :   1.0223 B(  6-C ,  7-H ) :   0.9392 B(  6-C ,  8-H ) :   0.9421
B(  6-C ,  9-C ) :   1.0609 B(  9-C , 10-H ) :   0.9603 B(  9-C , 11-H ) :   0.9512
B(  9-C , 12-C ) :   1.0781 B( 12-C , 13-H ) :   0.9754 B( 12-C , 14-H ) :   0.9732
B( 12-C , 15-H ) :   0.9696 B( 16-S , 17-C ) :   1.1539 B( 16-S , 20-C ) :   1.1739
B( 17-C , 18-C ) :   1.6138 B( 17-C , 33-H ) :   0.9658 B( 18-C , 19-C ) :   1.2541
B( 18-C , 21-H ) :   0.9804 B( 19-C , 20-C ) :   1.5832 B( 19-C , 22-C ) :   1.0173
B( 22-C , 23-H ) :   0.9466 B( 22-C , 24-H ) :   0.9314 B( 22-C , 25-C ) :   1.0754
B( 25-C , 26-H ) :   0.9528 B( 25-C , 27-H ) :   0.9470 B( 25-C , 28-C ) :   1.0842
B( 28-C , 29-H ) :   0.9709 B( 28-C , 30-H ) :   0.9736 B( 28-C , 31-H ) :   0.9718

Dispersion correction           -0.013739326
FINAL SINGLE POINT ENERGY     -1339.877963245757

DIPOLE MOMENT
-------------
                                X             Y             Z
Electronic contribution:      4.84526      13.16342     -22.11156
Nuclear contribution   :     -4.88462     -13.77731      22.63586
                        -----------------------------------------
Total Dipole Moment    :     -0.03936      -0.61389       0.52430
                        -----------------------------------------
Magnitude (a.u.)       :      0.80828
Magnitude (Debye)      :      2.05447

Rotational constants in cm-1:     0.020551     0.007480     0.006167
Rotational constants in MHz :   616.104738   224.243254   184.870887

                             ****ORCA TERMINATED NORMALLY****
TOTAL RUN TIME: 0 days 0 hours 0 minutes 29 seconds 162 msec
