                         Program Version 4.2.1 -  RELEASE  -
|  1> ! wB97X-D3 SP def2-SVP
|  2> %pal
|  3> nprocs 16
|  4> end
|  5>
|  6> * xyz 0 1
|  7> S 	 -58.0409 	 35.6704 	 96.1172
|  8> C 	 -59.2279 	 34.4201 	 95.8785
|  9> C 	 -58.7286 	 33.1752 	 96.2225
| 10> C 	 -57.4171 	 33.2817 	 96.8441
| 11> C 	 -56.8411 	 34.4842 	 96.774
| 12> H 	 -56.7509 	 32.5256 	 97.2323
| 13> C 	 -59.4142 	 31.8416 	 96.1481
| 14> H 	 -60.4696 	 31.9175 	 96.3418
| 15> H 	 -58.8512 	 31.0953 	 96.7924
| 16> C 	 -59.5808 	 31.1819 	 94.7798
| 17> H 	 -60.1007 	 31.7012 	 93.951
| 18> H 	 -58.6256 	 31.086 	 94.3051
| 19> C 	 -60.2285 	 29.772 	 94.9797
| 20> H 	 -61.1578 	 29.8445 	 95.5212
| 21> H 	 -60.4143 	 29.1996 	 94.0556
| 22> H 	 -59.6627 	 29.0144 	 95.4546
| 23> S 	 -54.8243 	 34.2177 	 98.7993
| 24> C 	 -53.3476 	 35.0502 	 98.5088
| 25> C 	 -53.27 	 35.6463 	 97.2117
| 26> C 	 -54.4871 	 35.4531 	 96.4548
| 27> C 	 -55.4878 	 34.8221 	 97.1835
| 28> H 	 -52.332 	 35.9776 	 96.7889
| 29> C 	 -54.7012 	 36.0191 	 95.058
| 30> H 	 -55.4571 	 36.8626 	 94.9862
| 31> H 	 -55.0945 	 35.2219 	 94.4347
| 32> C 	 -53.4334 	 36.5122 	 94.223
| 33> H 	 -52.5368 	 35.8537 	 94.3976
| 34> H 	 -52.9681 	 37.4129 	 94.6549
| 35> C 	 -53.6169 	 36.6978 	 92.6626
| 36> H 	 -52.8595 	 37.3288 	 92.2692
| 37> H 	 -54.5949 	 37.1596 	 92.5445
| 38> H 	 -53.6482 	 35.7874 	 92.1045
| 39> H 	 -60.1761 	 34.6905 	 95.4583
| 40> H 	 -52.5024 	 35.0209 	 99.1373
| 41> *
| 42>
| 43>                          ****END OF INPUT****

CARTESIAN COORDINATES (ANGSTROEM)
---------------------------------
  S    -58.040900   35.670400   96.117200
  C    -59.227900   34.420100   95.878500
  C    -58.728600   33.175200   96.222500
  C    -57.417100   33.281700   96.844100
  C    -56.841100   34.484200   96.774000
  H    -56.750900   32.525600   97.232300
  C    -59.414200   31.841600   96.148100
  H    -60.469600   31.917500   96.341800
  H    -58.851200   31.095300   96.792400
  C    -59.580800   31.181900   94.779800
  H    -60.100700   31.701200   93.951000
  H    -58.625600   31.086000   94.305100
  C    -60.228500   29.772000   94.979700
  H    -61.157800   29.844500   95.521200
  H    -60.414300   29.199600   94.055600
  H    -59.662700   29.014400   95.454600
  S    -54.824300   34.217700   98.799300
  C    -53.347600   35.050200   98.508800
  C    -53.270000   35.646300   97.211700
  C    -54.487100   35.453100   96.454800
  C    -55.487800   34.822100   97.183500
  H    -52.332000   35.977600   96.788900
  C    -54.701200   36.019100   95.058000
  H    -55.457100   36.862600   94.986200
  H    -55.094500   35.221900   94.434700
  C    -53.433400   36.512200   94.223000
  H    -52.536800   35.853700   94.397600
  H    -52.968100   37.412900   94.654900
  C    -53.616900   36.697800   92.662600
  H    -52.859500   37.328800   92.269200
  H    -54.594900   37.159600   92.544500
  H    -53.648200   35.787400   92.104500
  H    -60.176100   34.690500   95.458300
  H    -52.502400   35.020900   99.137300

 Total Charge           Charge          ....    0
 Multiplicity           Mult            ....    1
 Number of Electrons    NEL             ....  134
 Basis Dimension        Dim             ....  322

ORBITAL ENERGIES
----------------

  NO   OCC          E(Eh)            E(eV)
   0   2.0000     -88.972850     -2421.0743
   1   2.0000     -88.962642     -2420.7966
   2   2.0000     -10.332807      -281.1700
   3   2.0000     -10.327663      -281.0300
   4   2.0000     -10.321662      -280.8667
   5   2.0000     -10.317400      -280.7507
   6   2.0000     -10.311054      -280.5780
   7   2.0000     -10.306885      -280.4646
   8   2.0000     -10.301695      -280.3234
   9   2.0000     -10.300520      -280.2914
  10   2.0000     -10.296363      -280.1783
  11   2.0000     -10.295384      -280.1516
  12   2.0000     -10.291421      -280.0438
  13   2.0000     -10.287935      -279.9489
  14   2.0000     -10.278407      -279.6897
  15   2.0000     -10.276218      -279.6301
  16   2.0000      -8.086226      -220.0374
  17   2.0000      -8.076780      -219.7804
  18   2.0000      -6.044780      -164.4868
  19   2.0000      -6.040968      -164.3831
  20   2.0000      -6.036987      -164.2748
  21   2.0000      -6.035465      -164.2334
  22   2.0000      -6.031372      -164.1220
  23   2.0000      -6.027390      -164.0136
  24   2.0000      -1.000557       -27.2265
  25   2.0000      -0.977632       -26.6027
  26   2.0000      -0.911403       -24.8005
  27   2.0000      -0.897105       -24.4115
  28   2.0000      -0.871975       -23.7276
  29   2.0000      -0.850854       -23.1529
  30   2.0000      -0.843995       -22.9663
  31   2.0000      -0.810865       -22.0648
  32   2.0000      -0.782921       -21.3044
  33   2.0000      -0.770324       -20.9616
  34   2.0000      -0.708443       -19.2777
  35   2.0000      -0.704894       -19.1811
  36   2.0000      -0.698644       -19.0111
  37   2.0000      -0.663798       -18.0629
  38   2.0000      -0.642186       -17.4748
  39   2.0000      -0.618060       -16.8183
  40   2.0000      -0.599793       -16.3212
  41   2.0000      -0.566997       -15.4288
  42   2.0000      -0.562770       -15.3138
  43   2.0000      -0.551911       -15.0182
  44   2.0000      -0.525163       -14.2904
  45   2.0000      -0.522232       -14.2106
  46   2.0000      -0.517043       -14.0695
  47   2.0000      -0.513227       -13.9656
  48   2.0000      -0.501023       -13.6335
  49   2.0000      -0.497973       -13.5505
  50   2.0000      -0.488932       -13.3045
  51   2.0000      -0.474360       -12.9080
  52   2.0000      -0.469299       -12.7703
  53   2.0000      -0.466873       -12.7043
  54   2.0000      -0.463640       -12.6163
  55   2.0000      -0.453115       -12.3299
  56   2.0000      -0.448110       -12.1937
  57   2.0000      -0.436188       -11.8693
  58   2.0000      -0.428693       -11.6653
  59   2.0000      -0.424985       -11.5644
  60   2.0000      -0.417372       -11.3573
  61   2.0000      -0.413070       -11.2402
  62   2.0000      -0.411819       -11.2062
  63   2.0000      -0.352601        -9.5948
  64   2.0000      -0.334140        -9.0924
  65   2.0000      -0.324550        -8.8315
  66   2.0000      -0.289740        -7.8842
  67   0.0000       0.024855         0.6763
  68   0.0000       0.062590         1.7032
  69   0.0000       0.097118         2.6427
  70   0.0000       0.112628         3.0648
  71   0.0000       0.126274         3.4361

MULLIKEN ATOMIC CHARGES
-----------------------
   0 S :    0.088575
   1 C :   -0.121146
   2 C :   -0.029217
   3 C :    0.004498
   4 C :   -0.149563
   5 H :    0.010297
   6 C :    0.054151
   7 H :    0.023624
   8 H :    0.043357
   9 C :   -0.068990
  10 H :    0.034084
  11 H :    0.011600
  12 C :   -0.054747
  13 H :    0.025695
  14 H :    0.027322
  15 H :    0.018529
  16 S :    0.113814
  17 C :   -0.067742
  18 C :   -0.040495
  19 C :   -0.029956
  20 C :   -0.151584
  21 H :    0.024134
  22 C :    0.048798
  23 H :    0.060993
  24 H :    0.039505
  25 C :   -0.144520
  26 H :    0.026400
  27 H :    0.028140
  28 C :   -0.015976
  29 H :    0.032495
  30 H :    0.028285
  31 H :    0.035621
  32 H :    0.048032
  33 H :    0.045989
Sum of atomic charges:    0.0000000

LOEWDIN ATOMIC CHARGES
----------------------
   0 S :    0.378819
   1 C :   -0.185060
   2 C :   -0.061887
   3 C :   -0.063246
   4 C :   -0.172720
   5 H :    0.030791
   6 C :   -0.036297
   7 H :    0.032575
   8 H :    0.043394
   9 C :   -0.041924
  10 H :    0.027912
  11 H :    0.016085
  12 C :   -0.071199
  13 H :    0.021917
  14 H :    0.030672
  15 H :    0.019746
  16 S :    0.389756
  17 C :   -0.182563
  18 C :   -0.071622
  19 C :   -0.047962
  20 C :   -0.174097
  21 H :    0.030092
  22 C :   -0.041032
  23 H :    0.038941
  24 H :    0.034963
  25 C :   -0.052889
  26 H :    0.021914
  27 H :    0.020437
  28 C :   -0.056741
  29 H :    0.025497
  30 H :    0.026515
  31 H :    0.023153
  32 H :    0.025169
  33 H :    0.020893

  Mayer bond orders larger than 0.100000
B(  0-S ,  1-C ) :   1.1371 B(  0-S ,  4-C ) :   1.1066 B(  1-C ,  2-C ) :   1.6140
B(  1-C , 32-H ) :   0.9764 B(  2-C ,  3-C ) :   1.1928 B(  2-C ,  6-C ) :   1.0305
B(  3-C ,  4-C ) :   1.6452 B(  3-C ,  5-H ) :   0.9895 B(  4-C , 20-C ) :   1.0616
B(  6-C ,  7-H ) :   0.9399 B(  6-C ,  8-H ) :   0.9460 B(  6-C ,  9-C ) :   1.0446
B(  9-C , 10-H ) :   0.9589 B(  9-C , 11-H ) :   0.9513 B(  9-C , 12-C ) :   1.0727
B( 12-C , 13-H ) :   0.9761 B( 12-C , 14-H ) :   0.9721 B( 12-C , 15-H ) :   0.9749
B( 16-S , 17-C ) :   1.1714 B( 16-S , 20-C ) :   1.1094 B( 17-C , 18-C ) :   1.5901
B( 17-C , 33-H ) :   0.9667 B( 18-C , 19-C ) :   1.2532 B( 18-C , 21-H ) :   0.9810
B( 19-C , 20-C ) :   1.5943 B( 19-C , 22-C ) :   1.0380 B( 22-C , 23-H ) :   0.9354
B( 22-C , 24-H ) :   0.9303 B( 22-C , 25-C ) :   1.0566 B( 25-C , 26-H ) :   0.9575
B( 25-C , 27-H ) :   0.9559 B( 25-C , 28-C ) :   1.0725 B( 28-C , 29-H ) :   0.9743
B( 28-C , 30-H ) :   0.9776 B( 28-C , 31-H ) :   0.9772

Dispersion correction           -0.013321944
FINAL SINGLE POINT ENERGY     -1339.858622475770

DIPOLE MOMENT
-------------
                                X             Y             Z
Electronic contribution:      2.46405       9.44490      20.33691
Nuclear contribution   :     -2.32395      -9.76856     -20.79729
                        -----------------------------------------
Total Dipole Moment    :      0.14009      -0.32366      -0.46038
                        -----------------------------------------
Magnitude (a.u.)       :      0.57994
Magnitude (Debye)      :      1.47409

Rotational constants in cm-1:     0.017920     0.007297     0.006147
Rotational constants in MHz :   537.218715   218.755828   184.267471

                             ****ORCA TERMINATED NORMALLY****
TOTAL RUN TIME: 0 days 0 hours 0 minutes 29 seconds 242 msec
