                         Program Version 4.2.1 -  RELEASE  -
|  1> ! wB97X-D3 SP def2-SVP
|  2> %pal
|  3> nprocs 16
|  4> end
|  5>
|  6> * xyz 0 1
|  7> S 	 15.1533 	 -8.72264 	 82.6267
|  8> C 	 14.4425 	 -10.3362 	 82.4528
|  9> C 	 15.3815 	 -11.2616 	 82.8402
| 10> C 	 16.68 	 -10.7073 	 83.0606
| 11> C 	 16.7291 	 -9.32486 	 83.0281
| 12> H 	 17.5541 	 -11.2554 	 83.3579
| 13> C 	 15.0885 	 -12.74 	 83.0819
| 14> H 	 14.07 	 -12.8232 	 83.5637
| 15> H 	 15.8343 	 -13.139 	 83.826
| 16> C 	 15.2254 	 -13.5656 	 81.8153
| 17> H 	 14.3888 	 -13.4847 	 81.1557
| 18> H 	 16.145 	 -13.2732 	 81.3025
| 19> C 	 15.373 	 -15.0374 	 82.0555
| 20> H 	 16.129 	 -15.1702 	 82.7935
| 21> H 	 14.3778 	 -15.4795 	 82.3166
| 22> H 	 15.8788 	 -15.4888 	 81.1267
| 23> S 	 17.5829 	 -7.20638 	 84.6517
| 24> C 	 19.111 	 -6.47189 	 84.3033
| 25> C 	 19.83 	 -7.1194 	 83.3239
| 26> C 	 19.0594 	 -8.2302 	 82.718
| 27> C 	 17.817 	 -8.39581 	 83.298
| 28> H 	 20.7888 	 -6.73271 	 83.1069
| 29> C 	 19.568 	 -8.94117 	 81.5534
| 30> H 	 19.8582 	 -8.17097 	 80.885
| 31> H 	 18.7479 	 -9.49703 	 81.1335
| 32> C 	 20.6866 	 -9.97236 	 81.707
| 33> H 	 20.339 	 -10.6762 	 82.4003
| 34> H 	 21.6372 	 -9.43869 	 81.9987
| 35> C 	 21.1657 	 -10.6263 	 80.39
| 36> H 	 22.1651 	 -11.0242 	 80.5791
| 37> H 	 21.335 	 -9.8809 	 79.5317
| 38> H 	 20.5394 	 -11.319 	 79.9997
| 39> H 	 13.4185 	 -10.5103 	 82.3245
| 40> H 	 19.6291 	 -5.68926 	 84.8972
| 41> *
| 42>
| 43>                          ****END OF INPUT****

CARTESIAN COORDINATES (ANGSTROEM)
---------------------------------
  S     15.153300   -8.722640   82.626700
  C     14.442500  -10.336200   82.452800
  C     15.381500  -11.261600   82.840200
  C     16.680000  -10.707300   83.060600
  C     16.729100   -9.324860   83.028100
  H     17.554100  -11.255400   83.357900
  C     15.088500  -12.740000   83.081900
  H     14.070000  -12.823200   83.563700
  H     15.834300  -13.139000   83.826000
  C     15.225400  -13.565600   81.815300
  H     14.388800  -13.484700   81.155700
  H     16.145000  -13.273200   81.302500
  C     15.373000  -15.037400   82.055500
  H     16.129000  -15.170200   82.793500
  H     14.377800  -15.479500   82.316600
  H     15.878800  -15.488800   81.126700
  S     17.582900   -7.206380   84.651700
  C     19.111000   -6.471890   84.303300
  C     19.830000   -7.119400   83.323900
  C     19.059400   -8.230200   82.718000
  C     17.817000   -8.395810   83.298000
  H     20.788800   -6.732710   83.106900
  C     19.568000   -8.941170   81.553400
  H     19.858200   -8.170970   80.885000
  H     18.747900   -9.497030   81.133500
  C     20.686600   -9.972360   81.707000
  H     20.339000  -10.676200   82.400300
  H     21.637200   -9.438690   81.998700
  C     21.165700  -10.626300   80.390000
  H     22.165100  -11.024200   80.579100
  H     21.335000   -9.880900   79.531700
  H     20.539400  -11.319000   79.999700
  H     13.418500  -10.510300   82.324500
  H     19.629100   -5.689260   84.897200

 Total Charge           Charge          ....    0
 Multiplicity           Mult            ....    1
 Number of Electrons    NEL             ....  134
 Basis Dimension        Dim             ....  322

ORBITAL ENERGIES
----------------

  NO   OCC          E(Eh)            E(eV)
   0   2.0000     -88.964308     -2420.8419
   1   2.0000     -88.962591     -2420.7952
   2   2.0000     -10.330940      -281.1192
   3   2.0000     -10.330700      -281.1126
   4   2.0000     -10.319066      -280.7961
   5   2.0000     -10.311920      -280.6016
   6   2.0000     -10.307479      -280.4808
   7   2.0000     -10.302024      -280.3323
   8   2.0000     -10.299381      -280.2604
   9   2.0000     -10.294707      -280.1332
  10   2.0000     -10.293423      -280.0983
  11   2.0000     -10.288286      -279.9585
  12   2.0000     -10.281103      -279.7630
  13   2.0000     -10.279512      -279.7197
  14   2.0000     -10.279285      -279.7136
  15   2.0000     -10.277897      -279.6758
  16   2.0000      -8.078536      -219.8281
  17   2.0000      -8.077404      -219.7973
  18   2.0000      -6.037209      -164.2808
  19   2.0000      -6.035935      -164.2461
  20   2.0000      -6.033176      -164.1711
  21   2.0000      -6.031778      -164.1330
  22   2.0000      -6.029080      -164.0596
  23   2.0000      -6.028236      -164.0366
  24   2.0000      -1.004608       -27.3368
  25   2.0000      -0.981269       -26.7017
  26   2.0000      -0.916839       -24.9485
  27   2.0000      -0.914426       -24.8828
  28   2.0000      -0.873094       -23.7581
  29   2.0000      -0.853864       -23.2348
  30   2.0000      -0.844551       -22.9814
  31   2.0000      -0.817699       -22.2507
  32   2.0000      -0.784177       -21.3385
  33   2.0000      -0.770921       -20.9778
  34   2.0000      -0.710139       -19.3239
  35   2.0000      -0.694660       -18.9026
  36   2.0000      -0.692293       -18.8383
  37   2.0000      -0.659461       -17.9449
  38   2.0000      -0.647344       -17.6151
  39   2.0000      -0.619894       -16.8682
  40   2.0000      -0.592215       -16.1150
  41   2.0000      -0.581378       -15.8201
  42   2.0000      -0.576091       -15.6762
  43   2.0000      -0.567169       -15.4334
  44   2.0000      -0.529713       -14.4142
  45   2.0000      -0.527216       -14.3463
  46   2.0000      -0.520115       -14.1531
  47   2.0000      -0.514851       -14.0098
  48   2.0000      -0.506340       -13.7782
  49   2.0000      -0.500777       -13.6268
  50   2.0000      -0.493453       -13.4275
  51   2.0000      -0.478921       -13.0321
  52   2.0000      -0.467105       -12.7106
  53   2.0000      -0.465018       -12.6538
  54   2.0000      -0.459732       -12.5099
  55   2.0000      -0.453916       -12.3517
  56   2.0000      -0.442356       -12.0371
  57   2.0000      -0.433479       -11.7956
  58   2.0000      -0.429416       -11.6850
  59   2.0000      -0.424463       -11.5502
  60   2.0000      -0.420912       -11.4536
  61   2.0000      -0.414569       -11.2810
  62   2.0000      -0.412771       -11.2321
  63   2.0000      -0.343538        -9.3482
  64   2.0000      -0.331054        -9.0084
  65   2.0000      -0.324864        -8.8400
  66   2.0000      -0.300411        -8.1746
  67   0.0000       0.033161         0.9024
  68   0.0000       0.065898         1.7932
  69   0.0000       0.114899         3.1266
  70   0.0000       0.116732         3.1764
  71   0.0000       0.124788         3.3957

MULLIKEN ATOMIC CHARGES
-----------------------
   0 S :    0.101635
   1 C :   -0.096834
   2 C :   -0.087349
   3 C :    0.045510
   4 C :   -0.166496
   5 H :    0.002354
   6 C :    0.032121
   7 H :    0.039586
   8 H :    0.028115
   9 C :   -0.057749
  10 H :    0.025138
  11 H :    0.024382
  12 C :   -0.056685
  13 H :    0.014324
  14 H :    0.046606
  15 H :    0.041072
  16 S :    0.101709
  17 C :   -0.089371
  18 C :   -0.031243
  19 C :   -0.005788
  20 C :   -0.159732
  21 H :    0.004766
  22 C :    0.077958
  23 H :    0.017296
  24 H :    0.015761
  25 C :   -0.064349
  26 H :    0.020987
  27 H :    0.030913
  28 C :   -0.037177
  29 H :    0.035792
  30 H :    0.030049
  31 H :    0.015861
  32 H :    0.032285
  33 H :    0.068552
Sum of atomic charges:    0.0000000

LOEWDIN ATOMIC CHARGES
----------------------
   0 S :    0.407303
   1 C :   -0.182286
   2 C :   -0.061560
   3 C :   -0.066073
   4 C :   -0.197924
   5 H :    0.027415
   6 C :   -0.034987
   7 H :    0.035850
   8 H :    0.033504
   9 C :   -0.046355
  10 H :    0.021064
  11 H :    0.026160
  12 C :   -0.068204
  13 H :    0.014174
  14 H :    0.029773
  15 H :    0.036978
  16 S :    0.379302
  17 C :   -0.188406
  18 C :   -0.070373
  19 C :   -0.041406
  20 C :   -0.185952
  21 H :    0.024984
  22 C :   -0.037244
  23 H :    0.030206
  24 H :    0.029713
  25 C :   -0.029724
  26 H :    0.016660
  27 H :    0.029593
  28 C :   -0.060262
  29 H :    0.029583
  30 H :    0.034348
  31 H :    0.005541
  32 H :    0.018819
  33 H :    0.039785

  Mayer bond orders larger than 0.100000
B(  0-S ,  1-C ) :   1.1328 B(  0-S ,  4-C ) :   1.1675 B(  1-C ,  2-C ) :   1.6065
B(  1-C ,  4-C ) :   0.1019 B(  1-C , 32-H ) :   0.9799 B(  2-C ,  3-C ) :   1.2432
B(  2-C ,  6-C ) :   1.0210 B(  3-C ,  4-C ) :   1.5651 B(  3-C ,  5-H ) :   0.9994
B(  4-C , 20-C ) :   1.0305 B(  6-C ,  7-H ) :   0.9404 B(  6-C ,  8-H ) :   0.9448
B(  6-C ,  9-C ) :   1.0667 B(  9-C , 10-H ) :   0.9534 B(  9-C , 11-H ) :   0.9562
B(  9-C , 12-C ) :   1.0904 B( 12-C , 13-H ) :   0.9728 B( 12-C , 14-H ) :   0.9742
B( 12-C , 15-H ) :   0.9740 B( 16-S , 17-C ) :   1.1418 B( 16-S , 20-C ) :   1.1043
B( 17-C , 18-C ) :   1.6692 B( 17-C , 33-H ) :   0.9558 B( 18-C , 19-C ) :   1.1660
B( 18-C , 21-H ) :   0.9958 B( 19-C , 20-C ) :   1.6362 B( 19-C , 22-C ) :   1.0744
B( 22-C , 23-H ) :   0.9206 B( 22-C , 24-H ) :   0.9237 B( 22-C , 25-C ) :   1.0749
B( 25-C , 26-H ) :   0.9542 B( 25-C , 27-H ) :   0.9587 B( 25-C , 28-C ) :   1.0777
B( 28-C , 29-H ) :   0.9772 B( 28-C , 30-H ) :   0.9721 B( 28-C , 31-H ) :   0.9780

Dispersion correction           -0.013528361
FINAL SINGLE POINT ENERGY     -1339.870022023245

DIPOLE MOMENT
-------------
                                X             Y             Z
Electronic contribution:    -10.42267      26.26629      12.88184
Nuclear contribution   :     10.82931     -26.75174     -13.05535
                        -----------------------------------------
Total Dipole Moment    :      0.40665      -0.48545      -0.17351
                        -----------------------------------------
Magnitude (a.u.)       :      0.65661
Magnitude (Debye)      :      1.66896

Rotational constants in cm-1:     0.017190     0.008557     0.006244
Rotational constants in MHz :   515.344402   256.534757   187.185650

                             ****ORCA TERMINATED NORMALLY****
TOTAL RUN TIME: 0 days 0 hours 0 minutes 29 seconds 311 msec
