                         Program Version 4.2.1 -  RELEASE  -
|  1> ! wB97X-D3 SP def2-SVP
|  2> %pal
|  3> nprocs 16
|  4> end
|  5>
|  6> * xyz 0 1
|  7> S 	 41.9752 	 9.43152 	 80.7916
|  8> C 	 42.8505 	 10.7972 	 81.3532
|  9> C 	 43.1336 	 11.6913 	 80.4087
| 10> C 	 42.5874 	 11.286 	 79.1817
| 11> C 	 42.0032 	 10.0446 	 79.1865
| 12> H 	 42.576 	 11.9219 	 78.329
| 13> C 	 43.9065 	 12.9715 	 80.5988
| 14> H 	 44.4514 	 13.1755 	 79.7073
| 15> H 	 44.6634 	 12.8021 	 81.3956
| 16> C 	 43.156 	 14.2741 	 80.9196
| 17> H 	 42.5161 	 14.2668 	 81.8004
| 18> H 	 43.8531 	 14.977 	 81.2603
| 19> C 	 42.4226 	 15.0284 	 79.8267
| 20> H 	 41.6366 	 14.364 	 79.3027
| 21> H 	 41.907 	 15.8716 	 80.2515
| 22> H 	 42.9832 	 15.3728 	 78.9816
| 23> S 	 42.4684 	 8.88071 	 76.7619
| 24> C 	 41.1725 	 8.11596 	 75.9068
| 25> C 	 39.9796 	 8.25637 	 76.5854
| 26> C 	 40.0625 	 8.91665 	 77.8723
| 27> C 	 41.3542 	 9.38669 	 78.0733
| 28> H 	 39.0976 	 7.72339 	 76.2288
| 29> C 	 38.8756 	 9.10881 	 78.8169
| 30> H 	 39.1463 	 8.6424 	 79.8277
| 31> H 	 38.0653 	 8.65427 	 78.2568
| 32> C 	 38.4917 	 10.5694 	 79.1869
| 33> H 	 39.3477 	 11.1121 	 79.6255
| 34> H 	 37.772 	 10.4906 	 80.0045
| 35> C 	 37.761 	 11.2695 	 78.0634
| 36> H 	 38.5293 	 11.7279 	 77.4022
| 37> H 	 37.2106 	 12.1336 	 78.4559
| 38> H 	 37.1605 	 10.5775 	 77.4463
| 39> H 	 43.1697 	 11.0483 	 82.3663
| 40> H 	 41.2426 	 7.5932 	 74.9528
| 41> *
| 42>
| 43>                          ****END OF INPUT****

CARTESIAN COORDINATES (ANGSTROEM)
---------------------------------
  S     41.975200    9.431520   80.791600
  C     42.850500   10.797200   81.353200
  C     43.133600   11.691300   80.408700
  C     42.587400   11.286000   79.181700
  C     42.003200   10.044600   79.186500
  H     42.576000   11.921900   78.329000
  C     43.906500   12.971500   80.598800
  H     44.451400   13.175500   79.707300
  H     44.663400   12.802100   81.395600
  C     43.156000   14.274100   80.919600
  H     42.516100   14.266800   81.800400
  H     43.853100   14.977000   81.260300
  C     42.422600   15.028400   79.826700
  H     41.636600   14.364000   79.302700
  H     41.907000   15.871600   80.251500
  H     42.983200   15.372800   78.981600
  S     42.468400    8.880710   76.761900
  C     41.172500    8.115960   75.906800
  C     39.979600    8.256370   76.585400
  C     40.062500    8.916650   77.872300
  C     41.354200    9.386690   78.073300
  H     39.097600    7.723390   76.228800
  C     38.875600    9.108810   78.816900
  H     39.146300    8.642400   79.827700
  H     38.065300    8.654270   78.256800
  C     38.491700   10.569400   79.186900
  H     39.347700   11.112100   79.625500
  H     37.772000   10.490600   80.004500
  C     37.761000   11.269500   78.063400
  H     38.529300   11.727900   77.402200
  H     37.210600   12.133600   78.455900
  H     37.160500   10.577500   77.446300
  H     43.169700   11.048300   82.366300
  H     41.242600    7.593200   74.952800

 Total Charge           Charge          ....    0
 Multiplicity           Mult            ....    1
 Number of Electrons    NEL             ....  134
 Basis Dimension        Dim             ....  322

ORBITAL ENERGIES
----------------

  NO   OCC          E(Eh)            E(eV)
   0   2.0000     -88.968150     -2420.9464
   1   2.0000     -88.963746     -2420.8266
   2   2.0000     -10.324936      -280.9558
   3   2.0000     -10.322391      -280.8865
   4   2.0000     -10.316030      -280.7134
   5   2.0000     -10.305327      -280.4222
   6   2.0000     -10.304969      -280.4125
   7   2.0000     -10.298372      -280.2329
   8   2.0000     -10.294650      -280.1317
   9   2.0000     -10.293644      -280.1043
  10   2.0000     -10.288562      -279.9660
  11   2.0000     -10.285064      -279.8708
  12   2.0000     -10.282946      -279.8132
  13   2.0000     -10.282939      -279.8130
  14   2.0000     -10.279884      -279.7299
  15   2.0000     -10.276075      -279.6262
  16   2.0000      -8.083668      -219.9678
  17   2.0000      -8.078171      -219.8182
  18   2.0000      -6.042121      -164.4145
  19   2.0000      -6.038085      -164.3047
  20   2.0000      -6.036713      -164.2673
  21   2.0000      -6.034427      -164.2051
  22   2.0000      -6.032669      -164.1573
  23   2.0000      -6.028957      -164.0563
  24   2.0000      -1.014988       -27.6192
  25   2.0000      -0.985185       -26.8083
  26   2.0000      -0.914681       -24.8897
  27   2.0000      -0.905636       -24.6436
  28   2.0000      -0.872902       -23.7529
  29   2.0000      -0.853512       -23.2253
  30   2.0000      -0.846352       -23.0304
  31   2.0000      -0.813053       -22.1243
  32   2.0000      -0.787098       -21.4180
  33   2.0000      -0.772790       -21.0287
  34   2.0000      -0.709624       -19.3099
  35   2.0000      -0.707021       -19.2390
  36   2.0000      -0.686860       -18.6904
  37   2.0000      -0.660725       -17.9792
  38   2.0000      -0.639218       -17.3940
  39   2.0000      -0.616428       -16.7739
  40   2.0000      -0.586363       -15.9558
  41   2.0000      -0.575029       -15.6473
  42   2.0000      -0.554174       -15.0798
  43   2.0000      -0.550012       -14.9666
  44   2.0000      -0.542767       -14.7694
  45   2.0000      -0.536075       -14.5873
  46   2.0000      -0.522164       -14.2088
  47   2.0000      -0.513565       -13.9748
  48   2.0000      -0.501294       -13.6409
  49   2.0000      -0.490009       -13.3338
  50   2.0000      -0.484657       -13.1882
  51   2.0000      -0.479179       -13.0391
  52   2.0000      -0.477122       -12.9831
  53   2.0000      -0.465973       -12.6798
  54   2.0000      -0.462509       -12.5855
  55   2.0000      -0.447914       -12.1884
  56   2.0000      -0.443297       -12.0627
  57   2.0000      -0.440554       -11.9881
  58   2.0000      -0.432619       -11.7722
  59   2.0000      -0.428391       -11.6571
  60   2.0000      -0.425790       -11.5863
  61   2.0000      -0.408839       -11.1251
  62   2.0000      -0.404209       -10.9991
  63   2.0000      -0.339097        -9.2273
  64   2.0000      -0.335021        -9.1164
  65   2.0000      -0.328441        -8.9373
  66   2.0000      -0.298056        -8.1105
  67   0.0000       0.036255         0.9865
  68   0.0000       0.068540         1.8651
  69   0.0000       0.113136         3.0786
  70   0.0000       0.122025         3.3205
  71   0.0000       0.125470         3.4142

MULLIKEN ATOMIC CHARGES
-----------------------
   0 S :    0.132537
   1 C :   -0.120599
   2 C :   -0.063784
   3 C :    0.025889
   4 C :   -0.160105
   5 H :   -0.006160
   6 C :    0.088839
   7 H :    0.015247
   8 H :    0.028148
   9 C :   -0.035102
  10 H :    0.017420
  11 H :    0.010038
  12 C :   -0.070637
  13 H :    0.032607
  14 H :    0.033869
  15 H :    0.024470
  16 S :    0.111861
  17 C :   -0.088299
  18 C :   -0.052886
  19 C :   -0.022406
  20 C :   -0.184918
  21 H :    0.019885
  22 C :    0.049943
  23 H :    0.052419
  24 H :    0.015620
  25 C :   -0.070217
  26 H :    0.046448
  27 H :    0.023492
  28 C :   -0.055336
  29 H :    0.037252
  30 H :    0.037070
  31 H :    0.033749
  32 H :    0.032143
  33 H :    0.061507
Sum of atomic charges:   -0.0000000

LOEWDIN ATOMIC CHARGES
----------------------
   0 S :    0.435509
   1 C :   -0.203187
   2 C :   -0.073665
   3 C :   -0.057594
   4 C :   -0.213496
   5 H :    0.024132
   6 C :   -0.024641
   7 H :    0.029489
   8 H :    0.038303
   9 C :   -0.044637
  10 H :    0.025756
  11 H :    0.021285
  12 C :   -0.069301
  13 H :    0.029570
  14 H :    0.027300
  15 H :    0.018498
  16 S :    0.401862
  17 C :   -0.193732
  18 C :   -0.079830
  19 C :   -0.056687
  20 C :   -0.187863
  21 H :    0.029917
  22 C :   -0.032526
  23 H :    0.041825
  24 H :    0.027120
  25 C :   -0.044161
  26 H :    0.029519
  27 H :    0.022468
  28 C :   -0.071053
  29 H :    0.030415
  30 H :    0.027937
  31 H :    0.025929
  32 H :    0.030996
  33 H :    0.034543

  Mayer bond orders larger than 0.100000
B(  0-S ,  1-C ) :   1.1413 B(  0-S ,  4-C ) :   1.1484 B(  1-C ,  2-C ) :   1.6409
B(  1-C , 32-H ) :   0.9548 B(  2-C ,  3-C ) :   1.2511 B(  2-C ,  6-C ) :   1.0227
B(  3-C ,  4-C ) :   1.5635 B(  3-C ,  5-H ) :   1.0042 B(  4-C , 20-C ) :   1.0324
B(  6-C ,  7-H ) :   0.9357 B(  6-C ,  8-H ) :   0.9365 B(  6-C ,  9-C ) :   1.0751
B(  9-C , 10-H ) :   0.9521 B(  9-C , 11-H ) :   0.9458 B(  9-C , 12-C ) :   1.0862
B( 12-C , 13-H ) :   0.9742 B( 12-C , 14-H ) :   0.9715 B( 12-C , 15-H ) :   0.9747
B( 16-S , 17-C ) :   1.1520 B( 16-S , 20-C ) :   1.1439 B( 17-C , 18-C ) :   1.6272
B( 17-C , 33-H ) :   0.9631 B( 18-C , 19-C ) :   1.2305 B( 18-C , 21-H ) :   0.9793
B( 19-C , 20-C ) :   1.5911 B( 19-C , 22-C ) :   1.0355 B( 22-C , 23-H ) :   0.9295
B( 22-C , 24-H ) :   0.9342 B( 22-C , 25-C ) :   1.0818 B( 25-C , 26-H ) :   0.9525
B( 25-C , 27-H ) :   0.9564 B( 25-C , 28-C ) :   1.0669 B( 28-C , 29-H ) :   0.9753
B( 28-C , 30-H ) :   0.9745 B( 28-C , 31-H ) :   0.9753

Dispersion correction           -0.015089723
FINAL SINGLE POINT ENERGY     -1339.883640269442

DIPOLE MOMENT
-------------
                                X             Y             Z
Electronic contribution:     10.52907     -22.01063      -3.98131
Nuclear contribution   :    -10.69369      22.47771       4.12031
                        -----------------------------------------
Total Dipole Moment    :     -0.16462       0.46707       0.13900
                        -----------------------------------------
Magnitude (a.u.)       :      0.51437
Magnitude (Debye)      :      1.30742

Rotational constants in cm-1:     0.018906     0.008822     0.007901
Rotational constants in MHz :   566.788787   264.479340   236.875111

                             ****ORCA TERMINATED NORMALLY****
TOTAL RUN TIME: 0 days 0 hours 0 minutes 31 seconds 86 msec
