                         Program Version 4.2.1 -  RELEASE  -
|  1> ! wB97X-D3 SP def2-SVP
|  2> %pal
|  3> nprocs 16
|  4> end
|  5>
|  6> * xyz 0 1
|  7> S 	 39.1526 	 8.35113 	 79.2155
|  8> C 	 40.3121 	 6.98796 	 79.0916
|  9> C 	 41.6142 	 7.38978 	 79.4521
| 10> C 	 41.6003 	 8.7455 	 79.8402
| 11> C 	 40.3656 	 9.41128 	 79.9001
| 12> H 	 42.4337 	 9.32927 	 80.2278
| 13> C 	 42.8311 	 6.52688 	 79.3532
| 14> H 	 42.6348 	 5.58368 	 79.8205
| 15> H 	 43.6392 	 6.87333 	 80.0154
| 16> C 	 43.422 	 6.45623 	 77.9027
| 17> H 	 44.2825 	 5.74275 	 77.9828
| 18> H 	 42.7729 	 6.01425 	 77.1751
| 19> C 	 43.908 	 7.76918 	 77.2335
| 20> H 	 44.5611 	 8.26939 	 77.9918
| 21> H 	 44.5222 	 7.43655 	 76.4479
| 22> H 	 43.0895 	 8.42987 	 76.751
| 23> S 	 40.1669 	 11.8422 	 78.7553
| 24> C 	 39.8943 	 13.2396 	 79.6463
| 25> C 	 39.8197 	 13.0055 	 80.9913
| 26> C 	 40.0194 	 11.5743 	 81.2672
| 27> C 	 40.0755 	 10.8198 	 80.1089
| 28> H 	 39.6463 	 13.6998 	 81.7912
| 29> C 	 40.0568 	 10.8827 	 82.5971
| 30> H 	 40.0402 	 9.77648 	 82.5601
| 31> H 	 39.092 	 11.2235 	 83.1073
| 32> C 	 41.1669 	 11.2791 	 83.5681
| 33> H 	 40.8998 	 10.7295 	 84.4334
| 34> H 	 41.0704 	 12.3322 	 83.858
| 35> C 	 42.5456 	 11.0447 	 83.0672
| 36> H 	 43.217 	 10.9817 	 83.933
| 37> H 	 42.9081 	 11.6886 	 82.2537
| 38> H 	 42.5941 	 10.0528 	 82.6495
| 39> H 	 40.0413 	 5.98016 	 78.8343
| 40> H 	 39.7754 	 14.2144 	 79.2297
| 41> *
| 42>
| 43>                          ****END OF INPUT****

CARTESIAN COORDINATES (ANGSTROEM)
---------------------------------
  S     39.152600    8.351130   79.215500
  C     40.312100    6.987960   79.091600
  C     41.614200    7.389780   79.452100
  C     41.600300    8.745500   79.840200
  C     40.365600    9.411280   79.900100
  H     42.433700    9.329270   80.227800
  C     42.831100    6.526880   79.353200
  H     42.634800    5.583680   79.820500
  H     43.639200    6.873330   80.015400
  C     43.422000    6.456230   77.902700
  H     44.282500    5.742750   77.982800
  H     42.772900    6.014250   77.175100
  C     43.908000    7.769180   77.233500
  H     44.561100    8.269390   77.991800
  H     44.522200    7.436550   76.447900
  H     43.089500    8.429870   76.751000
  S     40.166900   11.842200   78.755300
  C     39.894300   13.239600   79.646300
  C     39.819700   13.005500   80.991300
  C     40.019400   11.574300   81.267200
  C     40.075500   10.819800   80.108900
  H     39.646300   13.699800   81.791200
  C     40.056800   10.882700   82.597100
  H     40.040200    9.776480   82.560100
  H     39.092000   11.223500   83.107300
  C     41.166900   11.279100   83.568100
  H     40.899800   10.729500   84.433400
  H     41.070400   12.332200   83.858000
  C     42.545600   11.044700   83.067200
  H     43.217000   10.981700   83.933000
  H     42.908100   11.688600   82.253700
  H     42.594100   10.052800   82.649500
  H     40.041300    5.980160   78.834300
  H     39.775400   14.214400   79.229700

 Total Charge           Charge          ....    0
 Multiplicity           Mult            ....    1
 Number of Electrons    NEL             ....  134
 Basis Dimension        Dim             ....  322

ORBITAL ENERGIES
----------------

  NO   OCC          E(Eh)            E(eV)
   0   2.0000     -88.965282     -2420.8684
   1   2.0000     -88.960490     -2420.7380
   2   2.0000     -10.327209      -281.0176
   3   2.0000     -10.318558      -280.7822
   4   2.0000     -10.315516      -280.6995
   5   2.0000     -10.311393      -280.5873
   6   2.0000     -10.302878      -280.3556
   7   2.0000     -10.301742      -280.3247
   8   2.0000     -10.295097      -280.1438
   9   2.0000     -10.294819      -280.1363
  10   2.0000     -10.293580      -280.1026
  11   2.0000     -10.291298      -280.0404
  12   2.0000     -10.290384      -280.0156
  13   2.0000     -10.283378      -279.8250
  14   2.0000     -10.277381      -279.6617
  15   2.0000     -10.271196      -279.4934
  16   2.0000      -8.079085      -219.8431
  17   2.0000      -8.077742      -219.8065
  18   2.0000      -6.037546      -164.2900
  19   2.0000      -6.036100      -164.2506
  20   2.0000      -6.033552      -164.1813
  21   2.0000      -6.031797      -164.1335
  22   2.0000      -6.030131      -164.0882
  23   2.0000      -6.028585      -164.0461
  24   2.0000      -1.012786       -27.5593
  25   2.0000      -0.982551       -26.7366
  26   2.0000      -0.914322       -24.8800
  27   2.0000      -0.908326       -24.7168
  28   2.0000      -0.868379       -23.6298
  29   2.0000      -0.850172       -23.1344
  30   2.0000      -0.842939       -22.9375
  31   2.0000      -0.813287       -22.1307
  32   2.0000      -0.785434       -21.3727
  33   2.0000      -0.773732       -21.0543
  34   2.0000      -0.703353       -19.1392
  35   2.0000      -0.697084       -18.9686
  36   2.0000      -0.693801       -18.8793
  37   2.0000      -0.656579       -17.8664
  38   2.0000      -0.642899       -17.4942
  39   2.0000      -0.612090       -16.6558
  40   2.0000      -0.599847       -16.3227
  41   2.0000      -0.575170       -15.6512
  42   2.0000      -0.552960       -15.0468
  43   2.0000      -0.550998       -14.9934
  44   2.0000      -0.546185       -14.8624
  45   2.0000      -0.537724       -14.6322
  46   2.0000      -0.514144       -13.9906
  47   2.0000      -0.508829       -13.8459
  48   2.0000      -0.502500       -13.6737
  49   2.0000      -0.499937       -13.6040
  50   2.0000      -0.492467       -13.4007
  51   2.0000      -0.473951       -12.8969
  52   2.0000      -0.471135       -12.8202
  53   2.0000      -0.462414       -12.5829
  54   2.0000      -0.458459       -12.4753
  55   2.0000      -0.450270       -12.2525
  56   2.0000      -0.446270       -12.1436
  57   2.0000      -0.431503       -11.7418
  58   2.0000      -0.429761       -11.6944
  59   2.0000      -0.420687       -11.4475
  60   2.0000      -0.415753       -11.3132
  61   2.0000      -0.413322       -11.2471
  62   2.0000      -0.411563       -11.1992
  63   2.0000      -0.336542        -9.1578
  64   2.0000      -0.327138        -8.9019
  65   2.0000      -0.317337        -8.6352
  66   2.0000      -0.307677        -8.3723
  67   0.0000       0.041301         1.1239
  68   0.0000       0.060791         1.6542
  69   0.0000       0.115501         3.1429
  70   0.0000       0.120332         3.2744
  71   0.0000       0.128386         3.4935

MULLIKEN ATOMIC CHARGES
-----------------------
   0 S :    0.105923
   1 C :   -0.121210
   2 C :   -0.072653
   3 C :    0.046256
   4 C :   -0.202299
   5 H :    0.008617
   6 C :    0.085597
   7 H :    0.022616
   8 H :    0.018939
   9 C :   -0.091126
  10 H :    0.031581
  11 H :    0.024293
  12 C :   -0.061303
  13 H :    0.033738
  14 H :    0.026231
  15 H :    0.067615
  16 S :    0.133158
  17 C :   -0.067423
  18 C :   -0.013159
  19 C :   -0.037115
  20 C :   -0.166334
  21 H :    0.011374
  22 C :   -0.003385
  23 H :    0.045575
  24 H :    0.035191
  25 C :   -0.049270
  26 H :    0.018180
  27 H :    0.018722
  28 C :   -0.031150
  29 H :    0.031564
  30 H :    0.050119
  31 H :    0.007634
  32 H :    0.043607
  33 H :    0.049898
Sum of atomic charges:   -0.0000000

LOEWDIN ATOMIC CHARGES
----------------------
   0 S :    0.398180
   1 C :   -0.180083
   2 C :   -0.064649
   3 C :   -0.061333
   4 C :   -0.205835
   5 H :    0.029080
   6 C :   -0.036213
   7 H :    0.031344
   8 H :    0.032782
   9 C :   -0.038266
  10 H :    0.027189
  11 H :    0.018179
  12 C :   -0.070433
  13 H :    0.027545
  14 H :    0.020972
  15 H :    0.042074
  16 S :    0.457749
  17 C :   -0.197783
  18 C :   -0.072278
  19 C :   -0.050301
  20 C :   -0.235980
  21 H :    0.028704
  22 C :   -0.038843
  23 H :    0.034622
  24 H :    0.039891
  25 C :   -0.043135
  26 H :    0.022749
  27 H :    0.020658
  28 C :   -0.069857
  29 H :    0.030827
  30 H :    0.031891
  31 H :    0.019824
  32 H :    0.023553
  33 H :    0.027178

  Mayer bond orders larger than 0.100000
B(  0-S ,  1-C ) :   1.1601 B(  0-S ,  4-C ) :   1.1549 B(  1-C ,  2-C ) :   1.5616
B(  1-C ,  4-C ) :   0.1165 B(  1-C , 32-H ) :   0.9724 B(  2-C ,  3-C ) :   1.2655
B(  2-C ,  6-C ) :   1.0303 B(  3-C ,  4-C ) :   1.5677 B(  3-C ,  5-H ) :   0.9897
B(  4-C , 20-C ) :   0.9988 B(  6-C ,  7-H ) :   0.9350 B(  6-C ,  8-H ) :   0.9390
B(  6-C ,  9-C ) :   1.0623 B(  9-C , 10-H ) :   0.9580 B(  9-C , 11-H ) :   0.9594
B(  9-C , 12-C ) :   1.0720 B( 12-C , 13-H ) :   0.9756 B( 12-C , 14-H ) :   0.9717
B( 12-C , 15-H ) :   0.9719 B( 16-S , 17-C ) :   1.1864 B( 16-S , 20-C ) :   1.1568
B( 17-C , 18-C ) :   1.5767 B( 17-C , 33-H ) :   0.9705 B( 18-C , 19-C ) :   1.2430
B( 18-C , 21-H ) :   0.9970 B( 19-C , 20-C ) :   1.5937 B( 19-C , 22-C ) :   1.0521
B( 22-C , 23-H ) :   0.9393 B( 22-C , 24-H ) :   0.9315 B( 22-C , 25-C ) :   1.0833
B( 25-C , 26-H ) :   0.9516 B( 25-C , 27-H ) :   0.9503 B( 25-C , 28-C ) :   1.0813
B( 28-C , 29-H ) :   0.9673 B( 28-C , 30-H ) :   0.9706 B( 28-C , 31-H ) :   0.9676

Dispersion correction           -0.015370272
FINAL SINGLE POINT ENERGY     -1339.877603939194

DIPOLE MOMENT
-------------
                                X             Y             Z
Electronic contribution:    -19.17500       6.49789      -8.78589
Nuclear contribution   :     19.65181      -6.62652       9.07461
                        -----------------------------------------
Total Dipole Moment    :      0.47681      -0.12863       0.28872
                        -----------------------------------------
Magnitude (a.u.)       :      0.57206
Magnitude (Debye)      :      1.45406

Rotational constants in cm-1:     0.019593     0.008711     0.007895
Rotational constants in MHz :   587.383230   261.155738   236.682711

                             ****ORCA TERMINATED NORMALLY****
TOTAL RUN TIME: 0 days 0 hours 0 minutes 31 seconds 143 msec
