                         Program Version 4.2.1 -  RELEASE  -
|  1> ! wB97X-D3 SP def2-SVP
|  2> %pal
|  3> nprocs 16
|  4> end
|  5>
|  6> * xyz 0 1
|  7> S 	 -40.0374 	 51.4943 	 100.932
|  8> C 	 -39.5947 	 52.6025 	 102.259
|  9> C 	 -39.7313 	 52.0241 	 103.454
| 10> C 	 -39.7935 	 50.5626 	 103.35
| 11> C 	 -40.1234 	 50.1514 	 102.08
| 12> H 	 -39.6934 	 49.8276 	 104.162
| 13> C 	 -39.4022 	 52.8163 	 104.759
| 14> H 	 -39.3788 	 53.9442 	 104.507
| 15> H 	 -38.3799 	 52.56 	 104.94
| 16> C 	 -40.2845 	 52.4215 	 105.972
| 17> H 	 -40.1132 	 51.365 	 106.272
| 18> H 	 -40.0542 	 52.9715 	 106.86
| 19> C 	 -41.8104 	 52.5175 	 105.821
| 20> H 	 -42.1726 	 51.7679 	 105.058
| 21> H 	 -42.3199 	 52.3592 	 106.747
| 22> H 	 -42.0522 	 53.4915 	 105.385
| 23> S 	 -40.4776 	 48.4373 	 100.009
| 24> C 	 -41.4254 	 46.9778 	 100.209
| 25> C 	 -41.7761 	 46.7693 	 101.514
| 26> C 	 -41.2624 	 47.7857 	 102.367
| 27> C 	 -40.5148 	 48.7702 	 101.729
| 28> H 	 -42.3855 	 45.9331 	 101.801
| 29> C 	 -41.6589 	 47.814 	 103.875
| 30> H 	 -42.7751 	 47.6493 	 103.921
| 31> H 	 -41.5576 	 48.8431 	 104.26
| 32> C 	 -40.9721 	 46.8415 	 104.83
| 33> H 	 -39.8256 	 46.863 	 104.784
| 34> H 	 -41.1715 	 45.8811 	 104.45
| 35> C 	 -41.4192 	 46.8932 	 106.285
| 36> H 	 -40.9521 	 46.0737 	 106.791
| 37> H 	 -42.4979 	 46.884 	 106.361
| 38> H 	 -40.9391 	 47.7013 	 106.76
| 39> H 	 -39.2408 	 53.6606 	 102.246
| 40> H 	 -41.6746 	 46.235 	 99.4221
| 41> *
| 42>
| 43>                          ****END OF INPUT****

CARTESIAN COORDINATES (ANGSTROEM)
---------------------------------
  S    -40.037400   51.494300  100.932000
  C    -39.594700   52.602500  102.259000
  C    -39.731300   52.024100  103.454000
  C    -39.793500   50.562600  103.350000
  C    -40.123400   50.151400  102.080000
  H    -39.693400   49.827600  104.162000
  C    -39.402200   52.816300  104.759000
  H    -39.378800   53.944200  104.507000
  H    -38.379900   52.560000  104.940000
  C    -40.284500   52.421500  105.972000
  H    -40.113200   51.365000  106.272000
  H    -40.054200   52.971500  106.860000
  C    -41.810400   52.517500  105.821000
  H    -42.172600   51.767900  105.058000
  H    -42.319900   52.359200  106.747000
  H    -42.052200   53.491500  105.385000
  S    -40.477600   48.437300  100.009000
  C    -41.425400   46.977800  100.209000
  C    -41.776100   46.769300  101.514000
  C    -41.262400   47.785700  102.367000
  C    -40.514800   48.770200  101.729000
  H    -42.385500   45.933100  101.801000
  C    -41.658900   47.814000  103.875000
  H    -42.775100   47.649300  103.921000
  H    -41.557600   48.843100  104.260000
  C    -40.972100   46.841500  104.830000
  H    -39.825600   46.863000  104.784000
  H    -41.171500   45.881100  104.450000
  C    -41.419200   46.893200  106.285000
  H    -40.952100   46.073700  106.791000
  H    -42.497900   46.884000  106.361000
  H    -40.939100   47.701300  106.760000
  H    -39.240800   53.660600  102.246000
  H    -41.674600   46.235000   99.422100

 Total Charge           Charge          ....    0
 Multiplicity           Mult            ....    1
 Number of Electrons    NEL             ....  134
 Basis Dimension        Dim             ....  322

ORBITAL ENERGIES
----------------

  NO   OCC          E(Eh)            E(eV)
   0   2.0000     -88.966720     -2420.9075
   1   2.0000     -88.965953     -2420.8867
   2   2.0000     -10.334540      -281.2171
   3   2.0000     -10.331368      -281.1308
   4   2.0000     -10.321877      -280.8726
   5   2.0000     -10.312494      -280.6172
   6   2.0000     -10.309915      -280.5470
   7   2.0000     -10.304278      -280.3937
   8   2.0000     -10.301300      -280.3126
   9   2.0000     -10.297839      -280.2185
  10   2.0000     -10.297481      -280.2087
  11   2.0000     -10.294644      -280.1315
  12   2.0000     -10.289488      -279.9912
  13   2.0000     -10.287317      -279.9321
  14   2.0000     -10.276905      -279.6488
  15   2.0000     -10.274433      -279.5815
  16   2.0000      -8.080876      -219.8918
  17   2.0000      -8.080479      -219.8810
  18   2.0000      -6.039419      -164.3410
  19   2.0000      -6.039383      -164.3400
  20   2.0000      -6.035347      -164.2301
  21   2.0000      -6.035322      -164.2295
  22   2.0000      -6.031629      -164.1290
  23   2.0000      -6.030617      -164.1014
  24   2.0000      -1.007112       -27.4049
  25   2.0000      -0.983918       -26.7738
  26   2.0000      -0.908290       -24.7158
  27   2.0000      -0.905452       -24.6386
  28   2.0000      -0.872090       -23.7308
  29   2.0000      -0.854543       -23.2533
  30   2.0000      -0.839642       -22.8478
  31   2.0000      -0.818615       -22.2756
  32   2.0000      -0.783235       -21.3129
  33   2.0000      -0.774795       -21.0833
  34   2.0000      -0.708110       -19.2686
  35   2.0000      -0.694962       -18.9109
  36   2.0000      -0.689469       -18.7614
  37   2.0000      -0.663267       -18.0484
  38   2.0000      -0.631246       -17.1771
  39   2.0000      -0.618449       -16.8289
  40   2.0000      -0.594262       -16.1707
  41   2.0000      -0.566519       -15.4158
  42   2.0000      -0.562718       -15.3123
  43   2.0000      -0.555530       -15.1168
  44   2.0000      -0.540847       -14.7172
  45   2.0000      -0.527224       -14.3465
  46   2.0000      -0.518817       -14.1177
  47   2.0000      -0.507383       -13.8066
  48   2.0000      -0.503686       -13.7060
  49   2.0000      -0.496042       -13.4980
  50   2.0000      -0.488226       -13.2853
  51   2.0000      -0.486250       -13.2315
  52   2.0000      -0.470917       -12.8143
  53   2.0000      -0.466215       -12.6864
  54   2.0000      -0.456063       -12.4101
  55   2.0000      -0.452332       -12.3086
  56   2.0000      -0.449256       -12.2249
  57   2.0000      -0.439303       -11.9541
  58   2.0000      -0.436975       -11.8907
  59   2.0000      -0.422344       -11.4926
  60   2.0000      -0.415796       -11.3144
  61   2.0000      -0.413042       -11.2395
  62   2.0000      -0.407760       -11.0957
  63   2.0000      -0.358877        -9.7655
  64   2.0000      -0.335415        -9.1271
  65   2.0000      -0.327634        -8.9154
  66   2.0000      -0.289004        -7.8642
  67   0.0000       0.021753         0.5919
  68   0.0000       0.087075         2.3694
  69   0.0000       0.097617         2.6563
  70   0.0000       0.114662         3.1201
  71   0.0000       0.123839         3.3698

MULLIKEN ATOMIC CHARGES
-----------------------
   0 S :    0.104185
   1 C :   -0.128551
   2 C :   -0.087608
   3 C :   -0.018034
   4 C :   -0.091824
   5 H :    0.031194
   6 C :    0.043720
   7 H :    0.037220
   8 H :    0.041286
   9 C :   -0.077897
  10 H :    0.024770
  11 H :    0.024287
  12 C :   -0.065075
  13 H :    0.047452
  14 H :    0.036420
  15 H :    0.028784
  16 S :    0.083736
  17 C :   -0.095234
  18 C :   -0.020810
  19 C :   -0.045296
  20 C :   -0.127090
  21 H :    0.019072
  22 C :    0.018137
  23 H :    0.031109
  24 H :    0.016196
  25 C :   -0.079617
  26 H :    0.032655
  27 H :    0.004685
  28 C :    0.005411
  29 H :    0.023833
  30 H :    0.036646
  31 H :    0.016890
  32 H :    0.059151
  33 H :    0.070198
Sum of atomic charges:   -0.0000000

LOEWDIN ATOMIC CHARGES
----------------------
   0 S :    0.369753
   1 C :   -0.194803
   2 C :   -0.064134
   3 C :   -0.069206
   4 C :   -0.178540
   5 H :    0.033391
   6 C :   -0.029808
   7 H :    0.037052
   8 H :    0.032591
   9 C :   -0.048255
  10 H :    0.025201
  11 H :    0.021565
  12 C :   -0.066585
  13 H :    0.030727
  14 H :    0.023208
  15 H :    0.023786
  16 S :    0.400937
  17 C :   -0.181863
  18 C :   -0.072331
  19 C :   -0.050742
  20 C :   -0.192274
  21 H :    0.033051
  22 C :   -0.038510
  23 H :    0.035391
  24 H :    0.023565
  25 C :   -0.047045
  26 H :    0.030880
  27 H :    0.012234
  28 C :   -0.055535
  29 H :    0.028857
  30 H :    0.026133
  31 H :    0.019720
  32 H :    0.042020
  33 H :    0.039571

  Mayer bond orders larger than 0.100000
B(  0-S ,  1-C ) :   1.0911 B(  0-S ,  4-C ) :   1.1153 B(  1-C ,  2-C ) :   1.6991
B(  1-C , 32-H ) :   0.9554 B(  2-C ,  3-C ) :   1.1616 B(  2-C ,  6-C ) :   1.0122
B(  3-C ,  4-C ) :   1.6275 B(  3-C ,  5-H ) :   0.9849 B(  4-C , 20-C ) :   1.0707
B(  6-C ,  7-H ) :   0.9471 B(  6-C ,  8-H ) :   0.9434 B(  6-C ,  9-C ) :   1.0640
B(  9-C , 10-H ) :   0.9534 B(  9-C , 11-H ) :   0.9581 B(  9-C , 12-C ) :   1.0807
B( 12-C , 13-H ) :   0.9712 B( 12-C , 14-H ) :   0.9745 B( 12-C , 15-H ) :   0.9761
B( 16-S , 17-C ) :   1.1612 B( 16-S , 20-C ) :   1.1225 B( 17-C , 18-C ) :   1.6064
B( 17-C , 33-H ) :   0.9601 B( 18-C , 19-C ) :   1.2584 B( 18-C , 21-H ) :   0.9945
B( 19-C , 20-C ) :   1.5854 B( 19-C , 22-C ) :   1.0253 B( 22-C , 23-H ) :   0.9352
B( 22-C , 24-H ) :   0.9393 B( 22-C , 25-C ) :   1.0594 B( 25-C , 26-H ) :   0.9510
B( 25-C , 27-H ) :   0.9520 B( 25-C , 28-C ) :   1.0893 B( 28-C , 29-H ) :   0.9684
B( 28-C , 30-H ) :   0.9736 B( 28-C , 31-H ) :   0.9731

Dispersion correction           -0.014497673
FINAL SINGLE POINT ENERGY     -1339.871219244283

DIPOLE MOMENT
-------------
                                X             Y             Z
Electronic contribution:      5.81078       0.75878     -31.78441
Nuclear contribution   :     -5.94760      -0.98531      32.54240
                        -----------------------------------------
Total Dipole Moment    :     -0.13682      -0.22653       0.75799
                        -----------------------------------------
Magnitude (a.u.)       :      0.80286
Magnitude (Debye)      :      2.04071

Rotational constants in cm-1:     0.015792     0.010765     0.006804
Rotational constants in MHz :   473.433877   322.739870   203.969824

                             ****ORCA TERMINATED NORMALLY****
TOTAL RUN TIME: 0 days 0 hours 0 minutes 31 seconds 153 msec
