                         Program Version 4.2.1 -  RELEASE  -
|  1> ! wB97X-D3 SP def2-SVP
|  2> %pal
|  3> nprocs 16
|  4> end
|  5>
|  6> * xyz 0 1
|  7> S 	 -38.1213 	 68.9045 	 144.637
|  8> C 	 -38.9104 	 67.7515 	 143.566
|  9> C 	 -39.4057 	 66.6919 	 144.227
| 10> C 	 -39.0208 	 66.6856 	 145.606
| 11> C 	 -38.2718 	 67.7517 	 145.979
| 12> H 	 -39.3784 	 65.8768 	 146.268
| 13> C 	 -40.2221 	 65.6481 	 143.464
| 14> H 	 -40.6731 	 65.9745 	 142.558
| 15> H 	 -41.055 	 65.2922 	 144.065
| 16> C 	 -39.5182 	 64.3233 	 143.02
| 17> H 	 -38.79 	 63.9959 	 143.786
| 18> H 	 -40.1577 	 63.3918 	 142.957
| 19> C 	 -38.7584 	 64.3692 	 141.695
| 20> H 	 -39.3581 	 64.6295 	 140.846
| 21> H 	 -38.0805 	 65.1546 	 141.794
| 22> H 	 -38.2336 	 63.4615 	 141.438
| 23> S 	 -38.6827 	 68.8934 	 148.417
| 24> C 	 -37.5875 	 68.4875 	 149.748
| 25> C 	 -36.582 	 67.6266 	 149.384
| 26> C 	 -36.6389 	 67.3129 	 147.973
| 27> C 	 -37.7311 	 67.8732 	 147.302
| 28> H 	 -35.7497 	 67.335 	 149.996
| 29> C 	 -35.6045 	 66.3201 	 147.566
| 30> H 	 -35.6942 	 66.0769 	 146.506
| 31> H 	 -35.864 	 65.3377 	 148.126
| 32> C 	 -34.1474 	 66.5715 	 148.019
| 33> H 	 -34.0366 	 66.5047 	 149.106
| 34> H 	 -33.87 	 67.611 	 147.748
| 35> C 	 -33.1515 	 65.5317 	 147.526
| 36> H 	 -32.1374 	 65.7839 	 147.833
| 37> H 	 -33.0859 	 65.4164 	 146.503
| 38> H 	 -33.4886 	 64.5555 	 147.927
| 39> H 	 -39.1428 	 67.9425 	 142.518
| 40> H 	 -37.6818 	 68.7297 	 150.731
| 41> *
| 42>
| 43>                          ****END OF INPUT****

CARTESIAN COORDINATES (ANGSTROEM)
---------------------------------
  S    -38.121300   68.904500  144.637000
  C    -38.910400   67.751500  143.566000
  C    -39.405700   66.691900  144.227000
  C    -39.020800   66.685600  145.606000
  C    -38.271800   67.751700  145.979000
  H    -39.378400   65.876800  146.268000
  C    -40.222100   65.648100  143.464000
  H    -40.673100   65.974500  142.558000
  H    -41.055000   65.292200  144.065000
  C    -39.518200   64.323300  143.020000
  H    -38.790000   63.995900  143.786000
  H    -40.157700   63.391800  142.957000
  C    -38.758400   64.369200  141.695000
  H    -39.358100   64.629500  140.846000
  H    -38.080500   65.154600  141.794000
  H    -38.233600   63.461500  141.438000
  S    -38.682700   68.893400  148.417000
  C    -37.587500   68.487500  149.748000
  C    -36.582000   67.626600  149.384000
  C    -36.638900   67.312900  147.973000
  C    -37.731100   67.873200  147.302000
  H    -35.749700   67.335000  149.996000
  C    -35.604500   66.320100  147.566000
  H    -35.694200   66.076900  146.506000
  H    -35.864000   65.337700  148.126000
  C    -34.147400   66.571500  148.019000
  H    -34.036600   66.504700  149.106000
  H    -33.870000   67.611000  147.748000
  C    -33.151500   65.531700  147.526000
  H    -32.137400   65.783900  147.833000
  H    -33.085900   65.416400  146.503000
  H    -33.488600   64.555500  147.927000
  H    -39.142800   67.942500  142.518000
  H    -37.681800   68.729700  150.731000

 Total Charge           Charge          ....    0
 Multiplicity           Mult            ....    1
 Number of Electrons    NEL             ....  134
 Basis Dimension        Dim             ....  322

ORBITAL ENERGIES
----------------

  NO   OCC          E(Eh)            E(eV)
   0   2.0000     -88.966300     -2420.8961
   1   2.0000     -88.963923     -2420.8314
   2   2.0000     -10.328427      -281.0508
   3   2.0000     -10.328145      -281.0431
   4   2.0000     -10.312809      -280.6258
   5   2.0000     -10.312439      -280.6157
   6   2.0000     -10.305425      -280.4249
   7   2.0000     -10.299090      -280.2525
   8   2.0000     -10.296963      -280.1946
   9   2.0000     -10.296927      -280.1936
  10   2.0000     -10.294713      -280.1334
  11   2.0000     -10.291309      -280.0407
  12   2.0000     -10.290269      -280.0125
  13   2.0000     -10.289465      -279.9906
  14   2.0000     -10.275274      -279.6044
  15   2.0000     -10.266288      -279.3599
  16   2.0000      -8.080682      -219.8865
  17   2.0000      -8.077968      -219.8127
  18   2.0000      -6.039334      -164.3386
  19   2.0000      -6.036730      -164.2678
  20   2.0000      -6.035351      -164.2303
  21   2.0000      -6.032542      -164.1538
  22   2.0000      -6.031184      -164.1169
  23   2.0000      -6.028528      -164.0446
  24   2.0000      -1.005879       -27.3714
  25   2.0000      -0.981591       -26.7104
  26   2.0000      -0.911274       -24.7970
  27   2.0000      -0.906858       -24.6769
  28   2.0000      -0.873833       -23.7782
  29   2.0000      -0.852173       -23.1888
  30   2.0000      -0.847562       -23.0633
  31   2.0000      -0.817572       -22.2473
  32   2.0000      -0.785515       -21.3749
  33   2.0000      -0.772101       -21.0099
  34   2.0000      -0.712986       -19.4013
  35   2.0000      -0.700441       -19.0600
  36   2.0000      -0.692314       -18.8388
  37   2.0000      -0.662549       -18.0289
  38   2.0000      -0.640946       -17.4410
  39   2.0000      -0.622747       -16.9458
  40   2.0000      -0.598667       -16.2905
  41   2.0000      -0.570728       -15.5303
  42   2.0000      -0.567920       -15.4539
  43   2.0000      -0.551151       -14.9976
  44   2.0000      -0.535740       -14.5782
  45   2.0000      -0.526359       -14.3230
  46   2.0000      -0.521884       -14.2012
  47   2.0000      -0.514562       -14.0019
  48   2.0000      -0.505660       -13.7597
  49   2.0000      -0.495668       -13.4878
  50   2.0000      -0.483572       -13.1587
  51   2.0000      -0.479894       -13.0586
  52   2.0000      -0.473934       -12.8964
  53   2.0000      -0.471224       -12.8226
  54   2.0000      -0.461543       -12.5592
  55   2.0000      -0.446822       -12.1587
  56   2.0000      -0.444378       -12.0921
  57   2.0000      -0.438181       -11.9235
  58   2.0000      -0.431672       -11.7464
  59   2.0000      -0.425726       -11.5846
  60   2.0000      -0.421535       -11.4706
  61   2.0000      -0.417750       -11.3676
  62   2.0000      -0.405439       -11.0326
  63   2.0000      -0.338133        -9.2011
  64   2.0000      -0.329524        -8.9668
  65   2.0000      -0.322869        -8.7857
  66   2.0000      -0.310038        -8.4366
  67   0.0000       0.043788         1.1915
  68   0.0000       0.053307         1.4506
  69   0.0000       0.112716         3.0672
  70   0.0000       0.114708         3.1214
  71   0.0000       0.117546         3.1986

MULLIKEN ATOMIC CHARGES
-----------------------
   0 S :    0.114927
   1 C :   -0.128540
   2 C :   -0.059961
   3 C :    0.037807
   4 C :   -0.153176
   5 H :    0.027203
   6 C :    0.092511
   7 H :    0.011498
   8 H :    0.026029
   9 C :   -0.113021
  10 H :    0.024367
  11 H :    0.031041
  12 C :   -0.024146
  13 H :    0.016466
  14 H :    0.012014
  15 H :    0.033056
  16 S :    0.097809
  17 C :   -0.024273
  18 C :   -0.052439
  19 C :    0.024353
  20 C :   -0.195347
  21 H :    0.021401
  22 C :    0.019545
  23 H :    0.027893
  24 H :    0.043749
  25 C :   -0.112711
  26 H :    0.033720
  27 H :    0.037771
  28 C :   -0.006289
  29 H :    0.034338
  30 H :    0.013305
  31 H :    0.024004
  32 H :    0.050174
  33 H :    0.014925
Sum of atomic charges:   -0.0000000

LOEWDIN ATOMIC CHARGES
----------------------
   0 S :    0.385478
   1 C :   -0.182529
   2 C :   -0.069908
   3 C :   -0.049334
   4 C :   -0.199257
   5 H :    0.040203
   6 C :   -0.026913
   7 H :    0.025718
   8 H :    0.035444
   9 C :   -0.048088
  10 H :    0.023389
  11 H :    0.026221
  12 C :   -0.064468
  13 H :    0.018425
  14 H :    0.015861
  15 H :    0.027268
  16 S :    0.382621
  17 C :   -0.155264
  18 C :   -0.066037
  19 C :   -0.048020
  20 C :   -0.193258
  21 H :    0.030189
  22 C :   -0.040180
  23 H :    0.028288
  24 H :    0.044442
  25 C :   -0.043268
  26 H :    0.022949
  27 H :    0.025026
  28 C :   -0.056559
  29 H :    0.029999
  30 H :    0.012378
  31 H :    0.028627
  32 H :    0.030885
  33 H :    0.009674

  Mayer bond orders larger than 0.100000
B(  0-S ,  1-C ) :   1.1271 B(  0-S ,  4-C ) :   1.1175 B(  1-C ,  2-C ) :   1.6491
B(  1-C , 32-H ) :   0.9617 B(  2-C ,  3-C ) :   1.2209 B(  2-C ,  6-C ) :   1.0321
B(  3-C ,  4-C ) :   1.6065 B(  3-C ,  5-H ) :   0.9924 B(  4-C , 20-C ) :   1.0416
B(  6-C ,  7-H ) :   0.9493 B(  6-C ,  8-H ) :   0.9346 B(  6-C ,  9-C ) :   1.0453
B(  9-C , 10-H ) :   0.9577 B(  9-C , 11-H ) :   0.9609 B(  9-C , 12-C ) :   1.0817
B( 12-C , 13-H ) :   0.9738 B( 12-C , 14-H ) :   0.9753 B( 12-C , 15-H ) :   0.9735
B( 16-S , 17-C ) :   1.1413 B( 16-S , 20-C ) :   1.1148 B( 17-C , 18-C ) :   1.6454
B( 17-C , 33-H ) :   0.9714 B( 18-C , 19-C ) :   1.2058 B( 18-C , 21-H ) :   0.9859
B( 19-C , 20-C ) :   1.6258 B( 19-C , 22-C ) :   1.0619 B( 22-C , 23-H ) :   0.9406
B( 22-C , 24-H ) :   0.9313 B( 22-C , 25-C ) :   1.0485 B( 25-C , 26-H ) :   0.9478
B( 25-C , 27-H ) :   0.9597 B( 25-C , 28-C ) :   1.0884 B( 28-C , 29-H ) :   0.9725
B( 28-C , 30-H ) :   0.9753 B( 28-C , 31-H ) :   0.9704

Dispersion correction           -0.013528297
FINAL SINGLE POINT ENERGY     -1339.864882023824

DIPOLE MOMENT
-------------
                                X             Y             Z
Electronic contribution:    -11.61425      23.52675       9.52220
Nuclear contribution   :     11.80166     -24.17127      -9.51813
                        -----------------------------------------
Total Dipole Moment    :      0.18741      -0.64452       0.00408
                        -----------------------------------------
Magnitude (a.u.)       :      0.67123
Magnitude (Debye)      :      1.70613

Rotational constants in cm-1:     0.017366     0.008048     0.006372
Rotational constants in MHz :   520.633240   241.282784   191.024825

                             ****ORCA TERMINATED NORMALLY****
TOTAL RUN TIME: 0 days 0 hours 0 minutes 32 seconds 843 msec
