                         Program Version 4.2.1 -  RELEASE  -
|  1> ! wB97X-D3 SP def2-SVP
|  2> %pal
|  3> nprocs 16
|  4> end
|  5>
|  6> * xyz 0 1
|  7> S 	 -6.50865 	 66.1822 	 52.8604
|  8> C 	 -7.52281 	 64.8 	 52.61
|  9> C 	 -7.91211 	 64.1537 	 53.8146
| 10> C 	 -7.1346 	 64.719 	 54.9102
| 11> C 	 -6.32621 	 65.7776 	 54.5752
| 12> H 	 -7.0935 	 64.4545 	 56.0169
| 13> C 	 -8.78883 	 62.9129 	 53.9506
| 14> H 	 -8.4227 	 62.1891 	 54.7863
| 15> H 	 -8.69788 	 62.4393 	 53.0505
| 16> C 	 -10.2142 	 63.1477 	 54.2718
| 17> H 	 -10.1397 	 63.5527 	 55.2469
| 18> H 	 -10.7644 	 63.785 	 53.5097
| 19> C 	 -11.1299 	 61.8536 	 54.3543
| 20> H 	 -11.2162 	 61.5319 	 55.3879
| 21> H 	 -12.144 	 62.0237 	 53.9194
| 22> H 	 -10.6325 	 60.9304 	 53.8904
| 23> S 	 -3.74607 	 66.531 	 54.7376
| 24> C 	 -3.26838 	 67.6029 	 56.0948
| 25> C 	 -4.15227 	 67.5974 	 57.0879
| 26> C 	 -5.37783 	 66.9567 	 56.681
| 27> C 	 -5.34118 	 66.4226 	 55.3705
| 28> H 	 -4.038 	 68.1537 	 58.0134
| 29> C 	 -6.60572 	 67.1064 	 57.5623
| 30> H 	 -6.36464 	 66.7107 	 58.5876
| 31> H 	 -7.42707 	 66.5165 	 57.1627
| 32> C 	 -7.14313 	 68.5417 	 57.5922
| 33> H 	 -7.38951 	 68.701 	 56.5383
| 34> H 	 -6.34788 	 69.358 	 57.841
| 35> C 	 -8.41113 	 68.6855 	 58.5117
| 36> H 	 -9.06511 	 67.7931 	 58.5472
| 37> H 	 -8.94622 	 69.5416 	 58.1776
| 38> H 	 -8.12247 	 68.8684 	 59.5504
| 39> H 	 -7.95024 	 64.5069 	 51.6692
| 40> H 	 -2.23342 	 68.0525 	 56.2514
| 41> *
| 42>
| 43>                          ****END OF INPUT****

CARTESIAN COORDINATES (ANGSTROEM)
---------------------------------
  S     -6.508650   66.182200   52.860400
  C     -7.522810   64.800000   52.610000
  C     -7.912110   64.153700   53.814600
  C     -7.134600   64.719000   54.910200
  C     -6.326210   65.777600   54.575200
  H     -7.093500   64.454500   56.016900
  C     -8.788830   62.912900   53.950600
  H     -8.422700   62.189100   54.786300
  H     -8.697880   62.439300   53.050500
  C    -10.214200   63.147700   54.271800
  H    -10.139700   63.552700   55.246900
  H    -10.764400   63.785000   53.509700
  C    -11.129900   61.853600   54.354300
  H    -11.216200   61.531900   55.387900
  H    -12.144000   62.023700   53.919400
  H    -10.632500   60.930400   53.890400
  S     -3.746070   66.531000   54.737600
  C     -3.268380   67.602900   56.094800
  C     -4.152270   67.597400   57.087900
  C     -5.377830   66.956700   56.681000
  C     -5.341180   66.422600   55.370500
  H     -4.038000   68.153700   58.013400
  C     -6.605720   67.106400   57.562300
  H     -6.364640   66.710700   58.587600
  H     -7.427070   66.516500   57.162700
  C     -7.143130   68.541700   57.592200
  H     -7.389510   68.701000   56.538300
  H     -6.347880   69.358000   57.841000
  C     -8.411130   68.685500   58.511700
  H     -9.065110   67.793100   58.547200
  H     -8.946220   69.541600   58.177600
  H     -8.122470   68.868400   59.550400
  H     -7.950240   64.506900   51.669200
  H     -2.233420   68.052500   56.251400

 Total Charge           Charge          ....    0
 Multiplicity           Mult            ....    1
 Number of Electrons    NEL             ....  134
 Basis Dimension        Dim             ....  322

ORBITAL ENERGIES
----------------

  NO   OCC          E(Eh)            E(eV)
   0   2.0000     -88.968877     -2420.9662
   1   2.0000     -88.964027     -2420.8343
   2   2.0000     -10.326158      -280.9890
   3   2.0000     -10.324310      -280.9388
   4   2.0000     -10.319630      -280.8114
   5   2.0000     -10.319391      -280.8049
   6   2.0000     -10.311602      -280.5930
   7   2.0000     -10.304003      -280.3862
   8   2.0000     -10.301753      -280.3250
   9   2.0000     -10.294314      -280.1225
  10   2.0000     -10.292536      -280.0741
  11   2.0000     -10.292480      -280.0726
  12   2.0000     -10.291445      -280.0444
  13   2.0000     -10.288507      -279.9645
  14   2.0000     -10.287532      -279.9380
  15   2.0000     -10.279617      -279.7226
  16   2.0000      -8.083470      -219.9624
  17   2.0000      -8.078832      -219.8362
  18   2.0000      -6.041925      -164.4091
  19   2.0000      -6.038035      -164.3033
  20   2.0000      -6.037479      -164.2882
  21   2.0000      -6.034235      -164.1999
  22   2.0000      -6.033461      -164.1788
  23   2.0000      -6.029278      -164.0650
  24   2.0000      -1.008136       -27.4328
  25   2.0000      -0.982029       -26.7224
  26   2.0000      -0.916378       -24.9359
  27   2.0000      -0.903776       -24.5930
  28   2.0000      -0.876518       -23.8513
  29   2.0000      -0.847086       -23.0504
  30   2.0000      -0.840306       -22.8659
  31   2.0000      -0.816049       -22.2058
  32   2.0000      -0.781146       -21.2561
  33   2.0000      -0.765938       -20.8422
  34   2.0000      -0.706644       -19.2288
  35   2.0000      -0.693862       -18.8809
  36   2.0000      -0.688831       -18.7440
  37   2.0000      -0.660117       -17.9627
  38   2.0000      -0.643438       -17.5088
  39   2.0000      -0.614964       -16.7340
  40   2.0000      -0.592755       -16.1297
  41   2.0000      -0.577976       -15.7275
  42   2.0000      -0.564437       -15.3591
  43   2.0000      -0.554699       -15.0941
  44   2.0000      -0.521944       -14.2028
  45   2.0000      -0.520951       -14.1758
  46   2.0000      -0.514378       -13.9969
  47   2.0000      -0.503762       -13.7081
  48   2.0000      -0.501876       -13.6567
  49   2.0000      -0.499844       -13.6014
  50   2.0000      -0.494582       -13.4583
  51   2.0000      -0.480595       -13.0777
  52   2.0000      -0.469275       -12.7696
  53   2.0000      -0.464230       -12.6324
  54   2.0000      -0.457016       -12.4360
  55   2.0000      -0.449241       -12.2245
  56   2.0000      -0.444264       -12.0890
  57   2.0000      -0.434906       -11.8344
  58   2.0000      -0.432994       -11.7824
  59   2.0000      -0.422438       -11.4951
  60   2.0000      -0.417436       -11.3590
  61   2.0000      -0.415269       -11.3000
  62   2.0000      -0.413490       -11.2516
  63   2.0000      -0.354552        -9.6478
  64   2.0000      -0.329966        -8.9788
  65   2.0000      -0.328370        -8.9354
  66   2.0000      -0.288525        -7.8512
  67   0.0000       0.025575         0.6959
  68   0.0000       0.073426         1.9980
  69   0.0000       0.105193         2.8625
  70   0.0000       0.113268         3.0822
  71   0.0000       0.127860         3.4792

MULLIKEN ATOMIC CHARGES
-----------------------
   0 S :    0.126299
   1 C :   -0.106902
   2 C :   -0.092348
   3 C :    0.018401
   4 C :   -0.186768
   5 H :    0.041031
   6 C :    0.076657
   7 H :    0.042624
   8 H :   -0.005896
   9 C :   -0.071942
  10 H :    0.022276
  11 H :    0.042957
  12 C :   -0.085301
  13 H :    0.030607
  14 H :    0.052874
  15 H :    0.036358
  16 S :    0.105697
  17 C :   -0.109060
  18 C :   -0.017190
  19 C :   -0.050173
  20 C :   -0.145894
  21 H :    0.026890
  22 C :    0.053569
  23 H :    0.034497
  24 H :    0.014253
  25 C :   -0.121545
  26 H :    0.035611
  27 H :    0.043585
  28 C :   -0.030103
  29 H :    0.034961
  30 H :    0.033806
  31 H :    0.031396
  32 H :    0.043519
  33 H :    0.075252
Sum of atomic charges:    0.0000000

LOEWDIN ATOMIC CHARGES
----------------------
   0 S :    0.408221
   1 C :   -0.195829
   2 C :   -0.056428
   3 C :   -0.065388
   4 C :   -0.200126
   5 H :    0.044088
   6 C :   -0.033222
   7 H :    0.043738
   8 H :    0.013968
   9 C :   -0.044182
  10 H :    0.020310
  11 H :    0.031287
  12 C :   -0.078094
  13 H :    0.022935
  14 H :    0.032607
  15 H :    0.031233
  16 S :    0.397129
  17 C :   -0.178082
  18 C :   -0.070140
  19 C :   -0.054229
  20 C :   -0.214002
  21 H :    0.036703
  22 C :   -0.041105
  23 H :    0.031327
  24 H :    0.025931
  25 C :   -0.044967
  26 H :    0.026216
  27 H :    0.030432
  28 C :   -0.066149
  29 H :    0.028082
  30 H :    0.023978
  31 H :    0.025932
  32 H :    0.024155
  33 H :    0.043669

  Mayer bond orders larger than 0.100000
B(  0-S ,  1-C ) :   1.1527 B(  0-S ,  4-C ) :   1.1270 B(  1-C ,  2-C ) :   1.6041
B(  1-C , 32-H ) :   0.9661 B(  2-C ,  3-C ) :   1.2205 B(  2-C ,  6-C ) :   1.0216
B(  3-C ,  4-C ) :   1.6101 B(  3-C ,  5-H ) :   0.9726 B(  4-C , 20-C ) :   1.0679
B(  6-C ,  7-H ) :   0.9480 B(  6-C ,  8-H ) :   0.9278 B(  6-C ,  9-C ) :   1.0710
B(  9-C , 10-H ) :   0.9612 B(  9-C , 11-H ) :   0.9613 B(  9-C , 12-C ) :   1.0567
B( 12-C , 13-H ) :   0.9775 B( 12-C , 14-H ) :   0.9809 B( 12-C , 15-H ) :   0.9768
B( 16-S , 17-C ) :   1.1252 B( 16-S , 20-C ) :   1.1388 B( 17-C , 18-C ) :   1.6542
B( 17-C , 33-H ) :   0.9539 B( 18-C , 19-C ) :   1.2189 B( 18-C , 21-H ) :   0.9875
B( 19-C , 20-C ) :   1.5846 B( 19-C , 22-C ) :   1.0611 B( 22-C , 23-H ) :   0.9345
B( 22-C , 24-H ) :   0.9299 B( 22-C , 25-C ) :   1.0534 B( 25-C , 26-H ) :   0.9576
B( 25-C , 27-H ) :   0.9576 B( 25-C , 28-C ) :   1.0660 B( 28-C , 29-H ) :   0.9756
B( 28-C , 30-H ) :   0.9763 B( 28-C , 31-H ) :   0.9762

Dispersion correction           -0.013507536
FINAL SINGLE POINT ENERGY     -1339.858980596031

DIPOLE MOMENT
-------------
                                X             Y             Z
Electronic contribution:     24.98169       6.17486     -14.61711
Nuclear contribution   :    -25.38089      -6.29170      15.07760
                        -----------------------------------------
Total Dipole Moment    :     -0.39920      -0.11684       0.46049
                        -----------------------------------------
Magnitude (a.u.)       :      0.62053
Magnitude (Debye)      :      1.57727

Rotational constants in cm-1:     0.017992     0.008031     0.006199
Rotational constants in MHz :   539.386531   240.751411   185.836764

                             ****ORCA TERMINATED NORMALLY****
TOTAL RUN TIME: 0 days 0 hours 0 minutes 32 seconds 579 msec
