                         Program Version 4.2.1 -  RELEASE  -
|  1> ! wB97X-D3 SP def2-SVP
|  2> %pal
|  3> nprocs 16
|  4> end
|  5>
|  6> * xyz 0 1
|  7> S 	 -61.3906 	 61.0957 	 124.193
|  8> C 	 -62.0964 	 62.5093 	 124.953
|  9> C 	 -63.3714 	 62.2903 	 125.501
| 10> C 	 -63.8074 	 61.0117 	 124.999
| 11> C 	 -62.9095 	 60.2626 	 124.234
| 12> H 	 -64.7553 	 60.6249 	 125.269
| 13> C 	 -64.1338 	 63.2753 	 126.496
| 14> H 	 -65.0347 	 62.9212 	 126.391
| 15> H 	 -64.2537 	 64.285 	 126.137
| 16> C 	 -63.7406 	 63.1105 	 127.936
| 17> H 	 -63.7548 	 62.0559 	 128.156
| 18> H 	 -62.7954 	 63.5599 	 127.986
| 19> C 	 -64.7495 	 63.6533 	 128.945
| 20> H 	 -65.2394 	 64.5631 	 128.675
| 21> H 	 -65.4528 	 62.8586 	 129.067
| 22> H 	 -64.159 	 63.7071 	 129.894
| 23> S 	 -62.2166 	 58.6522 	 122.116
| 24> C 	 -63.0936 	 57.181 	 121.755
| 25> C 	 -63.8808 	 56.8704 	 122.813
| 26> C 	 -64.0765 	 57.9365 	 123.709
| 27> C 	 -63.1387 	 58.9801 	 123.546
| 28> H 	 -64.4359 	 55.9326 	 122.856
| 29> C 	 -65.1494 	 57.7871 	 124.791
| 30> H 	 -65.0363 	 58.3301 	 125.652
| 31> H 	 -65.1393 	 56.7636 	 125.259
| 32> C 	 -66.6395 	 57.8796 	 124.195
| 33> H 	 -66.737 	 57.1008 	 123.432
| 34> H 	 -66.694 	 58.8573 	 123.748
| 35> C 	 -67.6477 	 57.8742 	 125.358
| 36> H 	 -67.7798 	 56.8771 	 125.865
| 37> H 	 -68.5798 	 58.0873 	 124.9
| 38> H 	 -67.5122 	 58.6222 	 126.086
| 39> H 	 -61.4715 	 63.4093 	 125.144
| 40> H 	 -62.8115 	 56.4737 	 121.019
| 41> *
| 42>
| 43>                          ****END OF INPUT****

CARTESIAN COORDINATES (ANGSTROEM)
---------------------------------
  S    -61.390600   61.095700  124.193000
  C    -62.096400   62.509300  124.953000
  C    -63.371400   62.290300  125.501000
  C    -63.807400   61.011700  124.999000
  C    -62.909500   60.262600  124.234000
  H    -64.755300   60.624900  125.269000
  C    -64.133800   63.275300  126.496000
  H    -65.034700   62.921200  126.391000
  H    -64.253700   64.285000  126.137000
  C    -63.740600   63.110500  127.936000
  H    -63.754800   62.055900  128.156000
  H    -62.795400   63.559900  127.986000
  C    -64.749500   63.653300  128.945000
  H    -65.239400   64.563100  128.675000
  H    -65.452800   62.858600  129.067000
  H    -64.159000   63.707100  129.894000
  S    -62.216600   58.652200  122.116000
  C    -63.093600   57.181000  121.755000
  C    -63.880800   56.870400  122.813000
  C    -64.076500   57.936500  123.709000
  C    -63.138700   58.980100  123.546000
  H    -64.435900   55.932600  122.856000
  C    -65.149400   57.787100  124.791000
  H    -65.036300   58.330100  125.652000
  H    -65.139300   56.763600  125.259000
  C    -66.639500   57.879600  124.195000
  H    -66.737000   57.100800  123.432000
  H    -66.694000   58.857300  123.748000
  C    -67.647700   57.874200  125.358000
  H    -67.779800   56.877100  125.865000
  H    -68.579800   58.087300  124.900000
  H    -67.512200   58.622200  126.086000
  H    -61.471500   63.409300  125.144000
  H    -62.811500   56.473700  121.019000

 Total Charge           Charge          ....    0
 Multiplicity           Mult            ....    1
 Number of Electrons    NEL             ....  134
 Basis Dimension        Dim             ....  322

ORBITAL ENERGIES
----------------

  NO   OCC          E(Eh)            E(eV)
   0   2.0000     -88.967520     -2420.9293
   1   2.0000     -88.963540     -2420.8210
   2   2.0000     -10.332938      -281.1735
   3   2.0000     -10.332306      -281.1563
   4   2.0000     -10.317127      -280.7433
   5   2.0000     -10.311529      -280.5910
   6   2.0000     -10.309449      -280.5344
   7   2.0000     -10.304235      -280.3925
   8   2.0000     -10.294290      -280.1219
   9   2.0000     -10.291458      -280.0448
  10   2.0000     -10.290274      -280.0126
  11   2.0000     -10.289557      -279.9931
  12   2.0000     -10.284981      -279.8686
  13   2.0000     -10.278888      -279.7028
  14   2.0000     -10.278767      -279.6995
  15   2.0000     -10.277861      -279.6748
  16   2.0000      -8.082428      -219.9341
  17   2.0000      -8.078700      -219.8326
  18   2.0000      -6.040888      -164.3809
  19   2.0000      -6.037235      -164.2815
  20   2.0000      -6.037018      -164.2756
  21   2.0000      -6.033126      -164.1697
  22   2.0000      -6.033081      -164.1685
  23   2.0000      -6.029460      -164.0699
  24   2.0000      -1.008137       -27.4328
  25   2.0000      -0.985356       -26.8129
  26   2.0000      -0.920391       -25.0451
  27   2.0000      -0.903019       -24.5724
  28   2.0000      -0.871165       -23.7056
  29   2.0000      -0.851179       -23.1618
  30   2.0000      -0.846256       -23.0278
  31   2.0000      -0.814141       -22.1539
  32   2.0000      -0.789122       -21.4731
  33   2.0000      -0.773630       -21.0515
  34   2.0000      -0.705375       -19.1942
  35   2.0000      -0.704534       -19.1713
  36   2.0000      -0.696832       -18.9618
  37   2.0000      -0.663842       -18.0641
  38   2.0000      -0.636614       -17.3231
  39   2.0000      -0.624063       -16.9816
  40   2.0000      -0.602565       -16.3966
  41   2.0000      -0.582087       -15.8394
  42   2.0000      -0.565086       -15.3768
  43   2.0000      -0.561293       -15.2736
  44   2.0000      -0.533418       -14.5150
  45   2.0000      -0.525370       -14.2960
  46   2.0000      -0.516709       -14.0604
  47   2.0000      -0.512667       -13.9504
  48   2.0000      -0.504213       -13.7203
  49   2.0000      -0.497785       -13.5454
  50   2.0000      -0.490961       -13.3597
  51   2.0000      -0.486546       -13.2396
  52   2.0000      -0.469732       -12.7821
  53   2.0000      -0.466863       -12.7040
  54   2.0000      -0.462941       -12.5973
  55   2.0000      -0.454205       -12.3595
  56   2.0000      -0.442978       -12.0540
  57   2.0000      -0.441539       -12.0149
  58   2.0000      -0.437320       -11.9001
  59   2.0000      -0.426003       -11.5921
  60   2.0000      -0.419076       -11.4036
  61   2.0000      -0.416117       -11.3231
  62   2.0000      -0.410930       -11.1820
  63   2.0000      -0.358850        -9.7648
  64   2.0000      -0.333076        -9.0635
  65   2.0000      -0.326771        -8.8919
  66   2.0000      -0.281911        -7.6712
  67   0.0000       0.021654         0.5892
  68   0.0000       0.081093         2.2066
  69   0.0000       0.101120         2.7516
  70   0.0000       0.123005         3.3471
  71   0.0000       0.131285         3.5724

MULLIKEN ATOMIC CHARGES
-----------------------
   0 S :    0.113496
   1 C :   -0.149204
   2 C :   -0.119039
   3 C :    0.006096
   4 C :   -0.110592
   5 H :   -0.019697
   6 C :    0.167393
   7 H :   -0.050422
   8 H :    0.030191
   9 C :   -0.059075
  10 H :    0.027557
  11 H :    0.021117
  12 C :   -0.034197
  13 H :    0.034092
  14 H :    0.024042
  15 H :    0.043419
  16 S :    0.090504
  17 C :   -0.068763
  18 C :   -0.032410
  19 C :   -0.037119
  20 C :   -0.107119
  21 H :    0.024889
  22 C :    0.030023
  23 H :   -0.007724
  24 H :    0.022678
  25 C :   -0.082520
  26 H :    0.038420
  27 H :    0.031218
  28 C :   -0.021343
  29 H :    0.037614
  30 H :    0.021978
  31 H :    0.022444
  32 H :    0.062257
  33 H :    0.049795
Sum of atomic charges:   -0.0000000

LOEWDIN ATOMIC CHARGES
----------------------
   0 S :    0.411169
   1 C :   -0.199865
   2 C :   -0.052955
   3 C :   -0.066008
   4 C :   -0.198354
   5 H :    0.017165
   6 C :   -0.014520
   7 H :    0.003153
   8 H :    0.032943
   9 C :   -0.032103
  10 H :    0.029733
  11 H :    0.014819
  12 C :   -0.057532
  13 H :    0.019029
  14 H :    0.022367
  15 H :    0.037827
  16 S :    0.412144
  17 C :   -0.181939
  18 C :   -0.067807
  19 C :   -0.059255
  20 C :   -0.198631
  21 H :    0.034001
  22 C :   -0.034079
  23 H :    0.008352
  24 H :    0.035393
  25 C :   -0.027892
  26 H :    0.024908
  27 H :    0.022339
  28 C :   -0.063261
  29 H :    0.030808
  30 H :    0.023565
  31 H :    0.019063
  32 H :    0.030504
  33 H :    0.024915

  Mayer bond orders larger than 0.100000
B(  0-S ,  1-C ) :   1.1584 B(  0-S ,  4-C ) :   1.1498 B(  1-C ,  2-C ) :   1.5853
B(  1-C , 32-H ) :   0.9635 B(  2-C ,  3-C ) :   1.2810 B(  2-C ,  6-C ) :   0.9951
B(  3-C ,  4-C ) :   1.5501 B(  3-C ,  5-H ) :   0.9951 B(  4-C , 20-C ) :   1.0611
B(  6-C ,  7-H ) :   0.9116 B(  6-C ,  8-H ) :   0.9395 B(  6-C ,  9-C ) :   1.0681
B(  9-C , 10-H ) :   0.9566 B(  9-C , 11-H ) :   0.9636 B(  9-C , 12-C ) :   1.0731
B( 12-C , 13-H ) :   0.9778 B( 12-C , 14-H ) :   0.9796 B( 12-C , 15-H ) :   0.9739
B( 16-S , 17-C ) :   1.1522 B( 16-S , 20-C ) :   1.1494 B( 17-C , 18-C ) :   1.5992
B( 17-C , 20-C ) :   0.1029 B( 17-C , 33-H ) :   0.9675 B( 18-C , 19-C ) :   1.2722
B( 18-C , 21-H ) :   0.9817 B( 19-C , 20-C ) :   1.5566 B( 19-C , 22-C ) :   1.0398
B( 22-C , 23-H ) :   0.9469 B( 22-C , 24-H ) :   0.9403 B( 22-C , 25-C ) :   1.0407
B( 25-C , 26-H ) :   0.9600 B( 25-C , 27-H ) :   0.9578 B( 25-C , 28-C ) :   1.0820
B( 28-C , 29-H ) :   0.9744 B( 28-C , 30-H ) :   0.9726 B( 28-C , 31-H ) :   0.9736

Dispersion correction           -0.013395821
FINAL SINGLE POINT ENERGY     -1339.841054449327

DIPOLE MOMENT
-------------
                                X             Y             Z
Electronic contribution:     24.08762      -4.46862     -21.67465
Nuclear contribution   :    -24.72388       4.42650      22.20322
                        -----------------------------------------
Total Dipole Moment    :     -0.63626      -0.04212       0.52857
                        -----------------------------------------
Magnitude (a.u.)       :      0.82824
Magnitude (Debye)      :      2.10521

Rotational constants in cm-1:     0.017254     0.008591     0.005940
Rotational constants in MHz :   517.248038   257.537224   178.064757

                             ****ORCA TERMINATED NORMALLY****
TOTAL RUN TIME: 0 days 0 hours 0 minutes 32 seconds 46 msec
