                         Program Version 4.2.1 -  RELEASE  -
|  1> ! wB97X-D3 SP def2-SVP
|  2> %pal
|  3> nprocs 16
|  4> end
|  5>
|  6> * xyz 0 1
|  7> S 	 -42.5369 	 21.887 	 79.7773
|  8> C 	 -43.3761 	 23.412 	 79.4597
|  9> C 	 -42.6358 	 24.2309 	 78.6228
| 10> C 	 -41.4853 	 23.5901 	 78.1394
| 11> C 	 -41.3167 	 22.3285 	 78.5533
| 12> H 	 -40.8269 	 24.0685 	 77.4754
| 13> C 	 -43.0619 	 25.5909 	 78.3082
| 14> H 	 -43.7495 	 25.6137 	 77.4979
| 15> H 	 -42.1753 	 26.0643 	 78.0286
| 16> C 	 -43.4515 	 26.4569 	 79.4929
| 17> H 	 -44.4001 	 26.2664 	 79.8429
| 18> H 	 -42.7796 	 26.1453 	 80.2636
| 19> C 	 -43.2713 	 27.9908 	 79.3187
| 20> H 	 -42.2006 	 28.1937 	 79.0966
| 21> H 	 -43.9415 	 28.4282 	 78.5894
| 22> H 	 -43.5084 	 28.4673 	 80.2727
| 23> S 	 -39.4121 	 20.6738 	 79.5329
| 24> C 	 -38.3098 	 19.9125 	 78.3722
| 25> C 	 -38.6009 	 20.3151 	 77.0741
| 26> C 	 -39.7723 	 21.0468 	 76.9578
| 27> C 	 -40.2584 	 21.4039 	 78.1967
| 28> H 	 -37.9604 	 19.8858 	 76.3569
| 29> C 	 -40.1909 	 21.7818 	 75.6855
| 30> H 	 -39.6478 	 22.7224 	 75.631
| 31> H 	 -41.2654 	 21.7858 	 75.7287
| 32> C 	 -39.7449 	 20.8606 	 74.4806
| 33> H 	 -40.3113 	 19.9473 	 74.5449
| 34> H 	 -38.7024 	 20.6367 	 74.4288
| 35> C 	 -40.2294 	 21.3466 	 73.0991
| 36> H 	 -41.2649 	 21.0029 	 72.9646
| 37> H 	 -39.7127 	 20.8982 	 72.2535
| 38> H 	 -40.1047 	 22.476 	 73.0959
| 39> H 	 -44.2075 	 23.6639 	 80.0732
| 40> H 	 -37.5743 	 19.2017 	 78.5628
| 41> *
| 42>
| 43>                          ****END OF INPUT****

CARTESIAN COORDINATES (ANGSTROEM)
---------------------------------
  S    -42.536900   21.887000   79.777300
  C    -43.376100   23.412000   79.459700
  C    -42.635800   24.230900   78.622800
  C    -41.485300   23.590100   78.139400
  C    -41.316700   22.328500   78.553300
  H    -40.826900   24.068500   77.475400
  C    -43.061900   25.590900   78.308200
  H    -43.749500   25.613700   77.497900
  H    -42.175300   26.064300   78.028600
  C    -43.451500   26.456900   79.492900
  H    -44.400100   26.266400   79.842900
  H    -42.779600   26.145300   80.263600
  C    -43.271300   27.990800   79.318700
  H    -42.200600   28.193700   79.096600
  H    -43.941500   28.428200   78.589400
  H    -43.508400   28.467300   80.272700
  S    -39.412100   20.673800   79.532900
  C    -38.309800   19.912500   78.372200
  C    -38.600900   20.315100   77.074100
  C    -39.772300   21.046800   76.957800
  C    -40.258400   21.403900   78.196700
  H    -37.960400   19.885800   76.356900
  C    -40.190900   21.781800   75.685500
  H    -39.647800   22.722400   75.631000
  H    -41.265400   21.785800   75.728700
  C    -39.744900   20.860600   74.480600
  H    -40.311300   19.947300   74.544900
  H    -38.702400   20.636700   74.428800
  C    -40.229400   21.346600   73.099100
  H    -41.264900   21.002900   72.964600
  H    -39.712700   20.898200   72.253500
  H    -40.104700   22.476000   73.095900
  H    -44.207500   23.663900   80.073200
  H    -37.574300   19.201700   78.562800

 Total Charge           Charge          ....    0
 Multiplicity           Mult            ....    1
 Number of Electrons    NEL             ....  134
 Basis Dimension        Dim             ....  322

ORBITAL ENERGIES
----------------

  NO   OCC          E(Eh)            E(eV)
   0   2.0000     -88.966451     -2420.9002
   1   2.0000     -88.961630     -2420.7690
   2   2.0000     -10.324561      -280.9456
   3   2.0000     -10.320759      -280.8421
   4   2.0000     -10.310946      -280.5751
   5   2.0000     -10.309886      -280.5462
   6   2.0000     -10.295897      -280.1656
   7   2.0000     -10.295507      -280.1550
   8   2.0000     -10.293819      -280.1091
   9   2.0000     -10.285647      -279.8867
  10   2.0000     -10.285204      -279.8746
  11   2.0000     -10.282032      -279.7883
  12   2.0000     -10.281446      -279.7724
  13   2.0000     -10.279934      -279.7312
  14   2.0000     -10.277476      -279.6643
  15   2.0000     -10.276363      -279.6340
  16   2.0000      -8.080880      -219.8919
  17   2.0000      -8.076006      -219.7593
  18   2.0000      -6.039255      -164.3365
  19   2.0000      -6.035458      -164.2331
  20   2.0000      -6.034458      -164.2060
  21   2.0000      -6.031783      -164.1332
  22   2.0000      -6.030709      -164.1039
  23   2.0000      -6.026718      -163.9953
  24   2.0000      -1.009626       -27.4733
  25   2.0000      -0.986267       -26.8377
  26   2.0000      -0.920595       -25.0507
  27   2.0000      -0.906690       -24.6723
  28   2.0000      -0.869357       -23.6564
  29   2.0000      -0.855071       -23.2677
  30   2.0000      -0.847939       -23.0736
  31   2.0000      -0.819625       -22.3031
  32   2.0000      -0.782466       -21.2920
  33   2.0000      -0.768437       -20.9102
  34   2.0000      -0.714128       -19.4324
  35   2.0000      -0.700197       -19.0533
  36   2.0000      -0.699441       -19.0328
  37   2.0000      -0.655585       -17.8394
  38   2.0000      -0.645503       -17.5650
  39   2.0000      -0.624974       -17.0064
  40   2.0000      -0.592574       -16.1247
  41   2.0000      -0.583414       -15.8755
  42   2.0000      -0.579980       -15.7821
  43   2.0000      -0.567574       -15.4445
  44   2.0000      -0.532622       -14.4934
  45   2.0000      -0.523683       -14.2501
  46   2.0000      -0.517295       -14.0763
  47   2.0000      -0.515345       -14.0233
  48   2.0000      -0.511405       -13.9160
  49   2.0000      -0.499647       -13.5961
  50   2.0000      -0.493420       -13.4266
  51   2.0000      -0.477542       -12.9946
  52   2.0000      -0.470404       -12.8004
  53   2.0000      -0.462175       -12.5764
  54   2.0000      -0.455381       -12.3916
  55   2.0000      -0.449807       -12.2399
  56   2.0000      -0.446842       -12.1592
  57   2.0000      -0.433087       -11.7849
  58   2.0000      -0.431934       -11.7535
  59   2.0000      -0.428549       -11.6614
  60   2.0000      -0.420032       -11.4297
  61   2.0000      -0.415941       -11.3183
  62   2.0000      -0.412628       -11.2282
  63   2.0000      -0.346280        -9.4228
  64   2.0000      -0.335500        -9.1294
  65   2.0000      -0.329661        -8.9705
  66   2.0000      -0.289493        -7.8775
  67   0.0000       0.027899         0.7592
  68   0.0000       0.069337         1.8868
  69   0.0000       0.103584         2.8187
  70   0.0000       0.124838         3.3970
  71   0.0000       0.140256         3.8166

MULLIKEN ATOMIC CHARGES
-----------------------
   0 S :    0.089489
   1 C :   -0.119766
   2 C :   -0.117178
   3 C :    0.042312
   4 C :   -0.133037
   5 H :   -0.014124
   6 C :    0.166917
   7 H :    0.037524
   8 H :   -0.018576
   9 C :   -0.086138
  10 H :    0.010786
  11 H :    0.024662
  12 C :   -0.054624
  13 H :    0.037153
  14 H :    0.035702
  15 H :    0.033477
  16 S :    0.111579
  17 C :   -0.073906
  18 C :   -0.040072
  19 C :   -0.032115
  20 C :   -0.149907
  21 H :    0.005632
  22 C :    0.084174
  23 H :    0.056523
  24 H :    0.039095
  25 C :   -0.128240
  26 H :    0.028122
  27 H :    0.035991
  28 C :   -0.042180
  29 H :    0.032804
  30 H :    0.029825
  31 H :    0.035608
  32 H :    0.044312
  33 H :    0.028178
Sum of atomic charges:   -0.0000000

LOEWDIN ATOMIC CHARGES
----------------------
   0 S :    0.374058
   1 C :   -0.177560
   2 C :   -0.061862
   3 C :   -0.055906
   4 C :   -0.177673
   5 H :    0.025440
   6 C :   -0.027641
   7 H :    0.030669
   8 H :    0.023982
   9 C :   -0.031753
  10 H :    0.007727
  11 H :    0.025667
  12 C :   -0.061102
  13 H :    0.027681
  14 H :    0.022592
  15 H :    0.028819
  16 S :    0.403897
  17 C :   -0.170033
  18 C :   -0.064095
  19 C :   -0.065830
  20 C :   -0.193873
  21 H :    0.025317
  22 C :   -0.016641
  23 H :    0.033455
  24 H :    0.035617
  25 C :   -0.044240
  26 H :    0.025727
  27 H :    0.016715
  28 C :   -0.070872
  29 H :    0.025694
  30 H :    0.023979
  31 H :    0.027601
  32 H :    0.018980
  33 H :    0.015464

  Mayer bond orders larger than 0.100000
B(  0-S ,  1-C ) :   1.1352 B(  0-S ,  4-C ) :   1.1342 B(  1-C ,  2-C ) :   1.5904
B(  1-C , 32-H ) :   0.9760 B(  2-C ,  3-C ) :   1.2519 B(  2-C ,  6-C ) :   1.0257
B(  3-C ,  4-C ) :   1.5795 B(  3-C ,  5-H ) :   1.0068 B(  4-C , 20-C ) :   1.0363
B(  6-C ,  7-H ) :   0.9226 B(  6-C ,  8-H ) :   0.9236 B(  6-C ,  9-C ) :   1.0633
B(  9-C , 10-H ) :   0.9501 B(  9-C , 11-H ) :   0.9586 B(  9-C , 12-C ) :   1.0977
B( 12-C , 13-H ) :   0.9735 B( 12-C , 14-H ) :   0.9764 B( 12-C , 15-H ) :   0.9740
B( 16-S , 17-C ) :   1.1433 B( 16-S , 20-C ) :   1.1570 B( 17-C , 18-C ) :   1.6212
B( 17-C , 20-C ) :   0.1112 B( 17-C , 33-H ) :   0.9727 B( 18-C , 19-C ) :   1.2336
B( 18-C , 21-H ) :   0.9904 B( 19-C , 20-C ) :   1.5840 B( 19-C , 22-C ) :   1.0483
B( 22-C , 23-H ) :   0.9346 B( 22-C , 24-H ) :   0.9263 B( 22-C , 25-C ) :   1.0754
B( 25-C , 26-H ) :   0.9658 B( 25-C , 27-H ) :   0.9544 B( 25-C , 28-C ) :   1.0764
B( 28-C , 29-H ) :   0.9810 B( 28-C , 30-H ) :   0.9733 B( 28-C , 31-H ) :   0.9738

Dispersion correction           -0.013420836
FINAL SINGLE POINT ENERGY     -1339.858394606506

DIPOLE MOMENT
-------------
                                X             Y             Z
Electronic contribution:      4.32152     -18.47205      18.54483
Nuclear contribution   :     -4.24765      18.89038     -18.98477
                        -----------------------------------------
Total Dipole Moment    :      0.07387       0.41833      -0.43994
                        -----------------------------------------
Magnitude (a.u.)       :      0.61156
Magnitude (Debye)      :      1.55446

Rotational constants in cm-1:     0.018921     0.007661     0.006062
Rotational constants in MHz :   567.247111   229.675126   181.738111

                             ****ORCA TERMINATED NORMALLY****
TOTAL RUN TIME: 0 days 0 hours 0 minutes 28 seconds 83 msec
