                         Program Version 4.2.1 -  RELEASE  -
|  1> ! wB97X-D3 SP def2-SVP
|  2> %pal
|  3> nprocs 16
|  4> end
|  5>
|  6> * xyz 0 1
|  7> S 	 -25.7746 	 44.9664 	 58.5109
|  8> C 	 -25.9826 	 46.6206 	 59.2263
|  9> C 	 -24.7587 	 47.2361 	 59.1018
| 10> C 	 -23.6782 	 46.3526 	 58.7583
| 11> C 	 -24.0438 	 45.1267 	 58.3446
| 12> H 	 -22.6258 	 46.7028 	 58.67
| 13> C 	 -24.6371 	 48.7021 	 59.3865
| 14> H 	 -25.1936 	 49.336 	 58.6873
| 15> H 	 -23.5703 	 48.8922 	 59.2138
| 16> C 	 -25.1392 	 49.082 	 60.8236
| 17> H 	 -25.3534 	 50.1042 	 60.8989
| 18> H 	 -26.0662 	 48.596 	 61.0162
| 19> C 	 -24.1561 	 48.694 	 61.9505
| 20> H 	 -23.2326 	 49.2771 	 61.9521
| 21> H 	 -24.6426 	 48.6748 	 62.9251
| 22> H 	 -23.8974 	 47.647 	 61.8328
| 23> S 	 -23.8276 	 42.3747 	 58.7609
| 24> C 	 -22.3712 	 41.6162 	 58.3044
| 25> C 	 -21.6328 	 42.4064 	 57.4696
| 26> C 	 -22.1313 	 43.7697 	 57.3369
| 27> C 	 -23.2936 	 43.9394 	 58.0587
| 28> H 	 -20.6835 	 41.9921 	 57.0708
| 29> C 	 -21.2476 	 44.781 	 56.5172
| 30> H 	 -20.1404 	 44.612 	 56.4969
| 31> H 	 -21.4278 	 45.7494 	 57.0348
| 32> C 	 -21.7083 	 45.0815 	 55.0837
| 33> H 	 -21.29 	 45.9333 	 54.6148
| 34> H 	 -22.6928 	 45.3503 	 55.1533
| 35> C 	 -21.5524 	 43.8903 	 54.1783
| 36> H 	 -22.0838 	 43.9422 	 53.2177
| 37> H 	 -21.9574 	 43.0203 	 54.6863
| 38> H 	 -20.5812 	 43.6973 	 53.7873
| 39> H 	 -26.8627 	 47.0089 	 59.6528
| 40> H 	 -22.0518 	 40.6325 	 58.623
| 41> *
| 42>
| 43>                          ****END OF INPUT****

CARTESIAN COORDINATES (ANGSTROEM)
---------------------------------
  S    -25.774600   44.966400   58.510900
  C    -25.982600   46.620600   59.226300
  C    -24.758700   47.236100   59.101800
  C    -23.678200   46.352600   58.758300
  C    -24.043800   45.126700   58.344600
  H    -22.625800   46.702800   58.670000
  C    -24.637100   48.702100   59.386500
  H    -25.193600   49.336000   58.687300
  H    -23.570300   48.892200   59.213800
  C    -25.139200   49.082000   60.823600
  H    -25.353400   50.104200   60.898900
  H    -26.066200   48.596000   61.016200
  C    -24.156100   48.694000   61.950500
  H    -23.232600   49.277100   61.952100
  H    -24.642600   48.674800   62.925100
  H    -23.897400   47.647000   61.832800
  S    -23.827600   42.374700   58.760900
  C    -22.371200   41.616200   58.304400
  C    -21.632800   42.406400   57.469600
  C    -22.131300   43.769700   57.336900
  C    -23.293600   43.939400   58.058700
  H    -20.683500   41.992100   57.070800
  C    -21.247600   44.781000   56.517200
  H    -20.140400   44.612000   56.496900
  H    -21.427800   45.749400   57.034800
  C    -21.708300   45.081500   55.083700
  H    -21.290000   45.933300   54.614800
  H    -22.692800   45.350300   55.153300
  C    -21.552400   43.890300   54.178300
  H    -22.083800   43.942200   53.217700
  H    -21.957400   43.020300   54.686300
  H    -20.581200   43.697300   53.787300
  H    -26.862700   47.008900   59.652800
  H    -22.051800   40.632500   58.623000

 Total Charge           Charge          ....    0
 Multiplicity           Mult            ....    1
 Number of Electrons    NEL             ....  134
 Basis Dimension        Dim             ....  322

ORBITAL ENERGIES
----------------

  NO   OCC          E(Eh)            E(eV)
   0   2.0000     -88.967600     -2420.9315
   1   2.0000     -88.959708     -2420.7167
   2   2.0000     -10.333290      -281.1831
   3   2.0000     -10.328643      -281.0567
   4   2.0000     -10.315625      -280.7024
   5   2.0000     -10.315346      -280.6948
   6   2.0000     -10.314225      -280.6643
   7   2.0000     -10.303929      -280.3842
   8   2.0000     -10.300844      -280.3002
   9   2.0000     -10.296086      -280.1707
  10   2.0000     -10.295899      -280.1657
  11   2.0000     -10.293152      -280.0909
  12   2.0000     -10.283098      -279.8173
  13   2.0000     -10.273720      -279.5621
  14   2.0000     -10.272641      -279.5328
  15   2.0000     -10.266020      -279.3526
  16   2.0000      -8.082530      -219.9368
  17   2.0000      -8.074103      -219.7075
  18   2.0000      -6.041222      -164.3900
  19   2.0000      -6.036986      -164.2747
  20   2.0000      -6.033069      -164.1682
  21   2.0000      -6.032799      -164.1608
  22   2.0000      -6.028644      -164.0478
  23   2.0000      -6.024673      -163.9397
  24   2.0000      -1.010213       -27.4893
  25   2.0000      -0.985420       -26.8147
  26   2.0000      -0.913129       -24.8475
  27   2.0000      -0.911069       -24.7915
  28   2.0000      -0.870881       -23.6979
  29   2.0000      -0.850972       -23.1561
  30   2.0000      -0.837506       -22.7897
  31   2.0000      -0.818504       -22.2726
  32   2.0000      -0.785549       -21.3759
  33   2.0000      -0.773541       -21.0491
  34   2.0000      -0.715868       -19.4798
  35   2.0000      -0.711051       -19.3487
  36   2.0000      -0.694702       -18.9038
  37   2.0000      -0.660169       -17.9641
  38   2.0000      -0.639983       -17.4148
  39   2.0000      -0.616743       -16.7824
  40   2.0000      -0.595443       -16.2028
  41   2.0000      -0.573846       -15.6151
  42   2.0000      -0.557243       -15.1634
  43   2.0000      -0.553409       -15.0590
  44   2.0000      -0.545537       -14.8448
  45   2.0000      -0.538017       -14.6402
  46   2.0000      -0.523271       -14.2389
  47   2.0000      -0.515001       -14.0139
  48   2.0000      -0.510536       -13.8924
  49   2.0000      -0.493746       -13.4355
  50   2.0000      -0.487266       -13.2592
  51   2.0000      -0.479029       -13.0350
  52   2.0000      -0.473847       -12.8940
  53   2.0000      -0.465993       -12.6803
  54   2.0000      -0.459691       -12.5088
  55   2.0000      -0.443318       -12.0633
  56   2.0000      -0.440044       -11.9742
  57   2.0000      -0.433769       -11.8035
  58   2.0000      -0.431618       -11.7449
  59   2.0000      -0.428309       -11.6549
  60   2.0000      -0.422631       -11.5004
  61   2.0000      -0.411920       -11.2089
  62   2.0000      -0.407588       -11.0910
  63   2.0000      -0.355629        -9.6772
  64   2.0000      -0.332345        -9.0436
  65   2.0000      -0.326499        -8.8845
  66   2.0000      -0.291984        -7.9453
  67   0.0000       0.022157         0.6029
  68   0.0000       0.068708         1.8696
  69   0.0000       0.098090         2.6692
  70   0.0000       0.122221         3.3258
  71   0.0000       0.137553         3.7430

MULLIKEN ATOMIC CHARGES
-----------------------
   0 S :    0.069481
   1 C :   -0.127298
   2 C :   -0.100800
   3 C :    0.016657
   4 C :   -0.129595
   5 H :    0.028134
   6 C :    0.070570
   7 H :    0.043234
   8 H :    0.012802
   9 C :   -0.046354
  10 H :    0.014538
  11 H :    0.013006
  12 C :   -0.052542
  13 H :    0.037864
  14 H :    0.030445
  15 H :    0.026804
  16 S :    0.120688
  17 C :   -0.087114
  18 C :   -0.049162
  19 C :   -0.028515
  20 C :   -0.138795
  21 H :    0.031211
  22 C :    0.038030
  23 H :    0.046162
  24 H :    0.017153
  25 C :    0.006220
  26 H :    0.015047
  27 H :    0.004485
  28 C :   -0.053428
  29 H :    0.021650
  30 H :    0.032788
  31 H :    0.014876
  32 H :    0.044000
  33 H :    0.057758
Sum of atomic charges:   -0.0000000

LOEWDIN ATOMIC CHARGES
----------------------
   0 S :    0.370678
   1 C :   -0.167905
   2 C :   -0.062832
   3 C :   -0.077584
   4 C :   -0.183186
   5 H :    0.035490
   6 C :   -0.029659
   7 H :    0.035769
   8 H :    0.027151
   9 C :   -0.029024
  10 H :    0.014809
  11 H :    0.018592
  12 C :   -0.066157
  13 H :    0.024992
  14 H :    0.027033
  15 H :    0.025485
  16 S :    0.407289
  17 C :   -0.192919
  18 C :   -0.080118
  19 C :   -0.045128
  20 C :   -0.188283
  21 H :    0.035819
  22 C :   -0.028246
  23 H :    0.036114
  24 H :    0.032239
  25 C :   -0.034692
  26 H :    0.021792
  27 H :    0.016923
  28 C :   -0.070232
  29 H :    0.027985
  30 H :    0.026611
  31 H :    0.017972
  32 H :    0.020476
  33 H :    0.032745

  Mayer bond orders larger than 0.100000
B(  0-S ,  1-C ) :   1.1130 B(  0-S ,  4-C ) :   1.1327 B(  1-C ,  2-C ) :   1.6033
B(  1-C , 32-H ) :   0.9836 B(  2-C ,  3-C ) :   1.2310 B(  2-C ,  6-C ) :   1.0186
B(  3-C ,  4-C ) :   1.6090 B(  3-C ,  5-H ) :   0.9730 B(  4-C , 20-C ) :   1.0567
B(  6-C ,  7-H ) :   0.9396 B(  6-C ,  8-H ) :   0.9454 B(  6-C ,  9-C ) :   1.0667
B(  9-C , 10-H ) :   0.9559 B(  9-C , 11-H ) :   0.9582 B(  9-C , 12-C ) :   1.0764
B( 12-C , 13-H ) :   0.9772 B( 12-C , 14-H ) :   0.9730 B( 12-C , 15-H ) :   0.9759
B( 16-S , 17-C ) :   1.1538 B( 16-S , 20-C ) :   1.1202 B( 17-C , 18-C ) :   1.6321
B( 17-C , 33-H ) :   0.9664 B( 18-C , 19-C ) :   1.2061 B( 18-C , 21-H ) :   0.9855
B( 19-C , 20-C ) :   1.6251 B( 19-C , 22-C ) :   1.0187 B( 22-C , 23-H ) :   0.9512
B( 22-C , 24-H ) :   0.9295 B( 22-C , 25-C ) :   1.0786 B( 25-C , 26-H ) :   0.9519
B( 25-C , 27-H ) :   0.9470 B( 25-C , 28-C ) :   1.0846 B( 28-C , 29-H ) :   0.9697
B( 28-C , 30-H ) :   0.9743 B( 28-C , 31-H ) :   0.9746

Dispersion correction           -0.014225445
FINAL SINGLE POINT ENERGY     -1339.863227092811

DIPOLE MOMENT
-------------
                                X             Y             Z
Electronic contribution:    -10.60683     -17.92999       3.45475
Nuclear contribution   :     11.05550      18.34009      -3.49246
                        -----------------------------------------
Total Dipole Moment    :      0.44867       0.41010      -0.03771
                        -----------------------------------------
Magnitude (a.u.)       :      0.60902
Magnitude (Debye)      :      1.54802

Rotational constants in cm-1:     0.021404     0.007832     0.006785
Rotational constants in MHz :   641.670564   234.788068   203.410351

                             ****ORCA TERMINATED NORMALLY****
TOTAL RUN TIME: 0 days 0 hours 0 minutes 33 seconds 337 msec
