                         Program Version 4.2.1 -  RELEASE  -
|  1> ! wB97X-D3 SP def2-SVP
|  2> %pal
|  3> nprocs 16
|  4> end
|  5>
|  6> * xyz 0 1
|  7> S 	 -105.737 	 38.9479 	 128.724
|  8> C 	 -104.514 	 38.0426 	 129.484
|  9> C 	 -103.368 	 37.8754 	 128.788
| 10> C 	 -103.562 	 38.3281 	 127.438
| 11> C 	 -104.803 	 38.9246 	 127.173
| 12> H 	 -102.905 	 38.2465 	 126.649
| 13> C 	 -102.115 	 37.1202 	 129.285
| 14> H 	 -102.19 	 36.0475 	 129.158
| 15> H 	 -102.232 	 37.4046 	 130.347
| 16> C 	 -100.796 	 37.4475 	 128.664
| 17> H 	 -100.063 	 36.7699 	 129.104
| 18> H 	 -100.866 	 37.1367 	 127.657
| 19> C 	 -100.385 	 38.9216 	 128.842
| 20> H 	 -101.167 	 39.5459 	 128.581
| 21> H 	 -100.061 	 39.0093 	 129.854
| 22> H 	 -99.4939 	 39.1974 	 128.314
| 23> S 	 -104.931 	 41.3389 	 125.718
| 24> C 	 -105.831 	 41.3692 	 124.123
| 25> C 	 -106.315 	 40.0896 	 123.858
| 26> C 	 -106.041 	 39.0921 	 124.848
| 27> C 	 -105.209 	 39.5773 	 125.903
| 28> H 	 -106.878 	 39.8541 	 122.968
| 29> C 	 -106.71 	 37.6621 	 124.722
| 30> H 	 -106.043 	 36.9566 	 124.21
| 31> H 	 -107.516 	 37.834 	 124.034
| 32> C 	 -107.416 	 37.0779 	 125.951
| 33> H 	 -108.275 	 37.8056 	 126.212
| 34> H 	 -106.549 	 37.1847 	 126.665
| 35> C 	 -107.965 	 35.7071 	 125.812
| 36> H 	 -108.948 	 35.6575 	 125.289
| 37> H 	 -108.154 	 35.285 	 126.81
| 38> H 	 -107.287 	 35.0072 	 125.251
| 39> H 	 -104.654 	 37.608 	 130.413
| 40> H 	 -105.749 	 42.1534 	 123.349
| 41> *
| 42>
| 43>                          ****END OF INPUT****

CARTESIAN COORDINATES (ANGSTROEM)
---------------------------------
  S    -105.737000   38.947900  128.724000
  C    -104.514000   38.042600  129.484000
  C    -103.368000   37.875400  128.788000
  C    -103.562000   38.328100  127.438000
  C    -104.803000   38.924600  127.173000
  H    -102.905000   38.246500  126.649000
  C    -102.115000   37.120200  129.285000
  H    -102.190000   36.047500  129.158000
  H    -102.232000   37.404600  130.347000
  C    -100.796000   37.447500  128.664000
  H    -100.063000   36.769900  129.104000
  H    -100.866000   37.136700  127.657000
  C    -100.385000   38.921600  128.842000
  H    -101.167000   39.545900  128.581000
  H    -100.061000   39.009300  129.854000
  H    -99.493900   39.197400  128.314000
  S    -104.931000   41.338900  125.718000
  C    -105.831000   41.369200  124.123000
  C    -106.315000   40.089600  123.858000
  C    -106.041000   39.092100  124.848000
  C    -105.209000   39.577300  125.903000
  H    -106.878000   39.854100  122.968000
  C    -106.710000   37.662100  124.722000
  H    -106.043000   36.956600  124.210000
  H    -107.516000   37.834000  124.034000
  C    -107.416000   37.077900  125.951000
  H    -108.275000   37.805600  126.212000
  H    -106.549000   37.184700  126.665000
  C    -107.965000   35.707100  125.812000
  H    -108.948000   35.657500  125.289000
  H    -108.154000   35.285000  126.810000
  H    -107.287000   35.007200  125.251000
  H    -104.654000   37.608000  130.413000
  H    -105.749000   42.153400  123.349000

 Total Charge           Charge          ....    0
 Multiplicity           Mult            ....    1
 Number of Electrons    NEL             ....  134
 Basis Dimension        Dim             ....  322

ORBITAL ENERGIES
----------------

  NO   OCC          E(Eh)            E(eV)
   0   2.0000     -88.967295     -2420.9232
   1   2.0000     -88.966322     -2420.8967
   2   2.0000     -10.337182      -281.2890
   3   2.0000     -10.334515      -281.2164
   4   2.0000     -10.329027      -281.0671
   5   2.0000     -10.313431      -280.6427
   6   2.0000     -10.305415      -280.4246
   7   2.0000     -10.298564      -280.2382
   8   2.0000     -10.298288      -280.2307
   9   2.0000     -10.293573      -280.1024
  10   2.0000     -10.292548      -280.0745
  11   2.0000     -10.291669      -280.0506
  12   2.0000     -10.286291      -279.9042
  13   2.0000     -10.282034      -279.7884
  14   2.0000     -10.280783      -279.7543
  15   2.0000     -10.265503      -279.3385
  16   2.0000      -8.080735      -219.8880
  17   2.0000      -8.079957      -219.8668
  18   2.0000      -6.039220      -164.3355
  19   2.0000      -6.038678      -164.3208
  20   2.0000      -6.035326      -164.2296
  21   2.0000      -6.034713      -164.2129
  22   2.0000      -6.031470      -164.1246
  23   2.0000      -6.030622      -164.1016
  24   2.0000      -0.998620       -27.1738
  25   2.0000      -0.973386       -26.4872
  26   2.0000      -0.915830       -24.9210
  27   2.0000      -0.902361       -24.5545
  28   2.0000      -0.868137       -23.6232
  29   2.0000      -0.846493       -23.0342
  30   2.0000      -0.842560       -22.9272
  31   2.0000      -0.814768       -22.1710
  32   2.0000      -0.786426       -21.3997
  33   2.0000      -0.771523       -20.9942
  34   2.0000      -0.712451       -19.3868
  35   2.0000      -0.695498       -18.9255
  36   2.0000      -0.679721       -18.4961
  37   2.0000      -0.655952       -17.8494
  38   2.0000      -0.649401       -17.6711
  39   2.0000      -0.615620       -16.7519
  40   2.0000      -0.586568       -15.9613
  41   2.0000      -0.566025       -15.4023
  42   2.0000      -0.563779       -15.3412
  43   2.0000      -0.559747       -15.2315
  44   2.0000      -0.549905       -14.9637
  45   2.0000      -0.521449       -14.1894
  46   2.0000      -0.513554       -13.9745
  47   2.0000      -0.510883       -13.9018
  48   2.0000      -0.501629       -13.6500
  49   2.0000      -0.495546       -13.4845
  50   2.0000      -0.490385       -13.3441
  51   2.0000      -0.480670       -13.0797
  52   2.0000      -0.475223       -12.9315
  53   2.0000      -0.463413       -12.6101
  54   2.0000      -0.458440       -12.4748
  55   2.0000      -0.448442       -12.2027
  56   2.0000      -0.440924       -11.9982
  57   2.0000      -0.435183       -11.8419
  58   2.0000      -0.430169       -11.7055
  59   2.0000      -0.423618       -11.5272
  60   2.0000      -0.418935       -11.3998
  61   2.0000      -0.412700       -11.2301
  62   2.0000      -0.393715       -10.7135
  63   2.0000      -0.338021        -9.1980
  64   2.0000      -0.331247        -9.0137
  65   2.0000      -0.317109        -8.6290
  66   2.0000      -0.308574        -8.3967
  67   0.0000       0.033180         0.9029
  68   0.0000       0.046318         1.2604
  69   0.0000       0.108573         2.9544
  70   0.0000       0.115662         3.1473
  71   0.0000       0.126287         3.4364

MULLIKEN ATOMIC CHARGES
-----------------------
   0 S :    0.126313
   1 C :   -0.101460
   2 C :   -0.083938
   3 C :    0.067117
   4 C :   -0.201722
   5 H :   -0.017942
   6 C :    0.065472
   7 H :    0.044363
   8 H :    0.024789
   9 C :   -0.071854
  10 H :    0.026797
  11 H :    0.018571
  12 C :   -0.000585
  13 H :    0.034027
  14 H :    0.018457
  15 H :    0.022121
  16 S :    0.094920
  17 C :   -0.107498
  18 C :   -0.027357
  19 C :   -0.035356
  20 C :   -0.174376
  21 H :    0.022767
  22 C :    0.071210
  23 H :    0.039870
  24 H :    0.001819
  25 C :   -0.122175
  26 H :    0.045367
  27 H :    0.062499
  28 C :   -0.044294
  29 H :    0.034500
  30 H :    0.040366
  31 H :    0.031193
  32 H :    0.017766
  33 H :    0.078250
Sum of atomic charges:    0.0000000

LOEWDIN ATOMIC CHARGES
----------------------
   0 S :    0.409411
   1 C :   -0.188481
   2 C :   -0.071840
   3 C :   -0.039669
   4 C :   -0.192367
   5 H :    0.016964
   6 C :   -0.030484
   7 H :    0.034834
   8 H :    0.032579
   9 C :   -0.039765
  10 H :    0.028910
  11 H :    0.016587
  12 C :   -0.052199
  13 H :    0.017800
  14 H :    0.025866
  15 H :    0.024941
  16 S :    0.365255
  17 C :   -0.171311
  18 C :   -0.069215
  19 C :   -0.047891
  20 C :   -0.193786
  21 H :    0.030928
  22 C :   -0.032176
  23 H :    0.030912
  24 H :    0.020571
  25 C :   -0.059379
  26 H :    0.036292
  27 H :    0.027531
  28 C :   -0.073967
  29 H :    0.028605
  30 H :    0.032520
  31 H :    0.028100
  32 H :    0.014148
  33 H :    0.039775

  Mayer bond orders larger than 0.100000
B(  0-S ,  1-C ) :   1.1631 B(  0-S ,  4-C ) :   1.1200 B(  1-C ,  2-C ) :   1.6337
B(  1-C , 32-H ) :   0.9677 B(  2-C ,  3-C ) :   1.2163 B(  2-C ,  6-C ) :   0.9865
B(  3-C ,  4-C ) :   1.6042 B(  3-C ,  5-H ) :   1.0027 B(  4-C , 20-C ) :   1.0315
B(  6-C ,  7-H ) :   0.9393 B(  6-C ,  8-H ) :   0.9418 B(  6-C ,  9-C ) :   1.0917
B(  9-C , 10-H ) :   0.9519 B(  9-C , 11-H ) :   0.9458 B(  9-C , 12-C ) :   1.0758
B( 12-C , 13-H ) :   0.9787 B( 12-C , 14-H ) :   0.9729 B( 12-C , 15-H ) :   0.9730
B( 16-S , 17-C ) :   1.1365 B( 16-S , 20-C ) :   1.1391 B( 17-C , 18-C ) :   1.6111
B( 17-C , 20-C ) :   0.1077 B( 17-C , 33-H ) :   0.9597 B( 18-C , 19-C ) :   1.2753
B( 18-C , 21-H ) :   0.9786 B( 19-C , 20-C ) :   1.5767 B( 19-C , 22-C ) :   1.0114
B( 22-C , 23-H ) :   0.9354 B( 22-C , 24-H ) :   0.9403 B( 22-C , 25-C ) :   1.0531
B( 25-C , 26-H ) :   0.9531 B( 25-C , 27-H ) :   0.9539 B( 25-C , 28-C ) :   1.0913
B( 28-C , 29-H ) :   0.9711 B( 28-C , 30-H ) :   0.9693 B( 28-C , 31-H ) :   0.9710

Dispersion correction           -0.014540890
FINAL SINGLE POINT ENERGY     -1339.853059115221

DIPOLE MOMENT
-------------
                                X             Y             Z
Electronic contribution:     -6.78710      17.64511      -0.72392
Nuclear contribution   :      6.99471     -18.19619       0.55651
                        -----------------------------------------
Total Dipole Moment    :      0.20761      -0.55108      -0.16741
                        -----------------------------------------
Magnitude (a.u.)       :      0.61222
Magnitude (Debye)      :      1.55615

Rotational constants in cm-1:     0.017504     0.009043     0.007182
Rotational constants in MHz :   524.770634   271.091526   215.310289

                             ****ORCA TERMINATED NORMALLY****
TOTAL RUN TIME: 0 days 0 hours 0 minutes 33 seconds 776 msec
