                         Program Version 4.2.1 -  RELEASE  -
|  1> ! wB97X-D3 SP def2-SVP
|  2> %pal
|  3> nprocs 16
|  4> end
|  5>
|  6> * xyz 0 1
|  7> S 	 -0.285827 	 5.01162 	 85.339
|  8> C 	 0.798175 	 4.42765 	 84.0801
|  9> C 	 0.211606 	 4.3659 	 82.8726
| 10> C 	 -1.16554 	 4.76989 	 82.8969
| 11> C 	 -1.5612 	 5.14382 	 84.1657
| 12> H 	 -1.86211 	 4.71813 	 82.0731
| 13> C 	 0.869733 	 3.89843 	 81.6195
| 14> H 	 1.94204 	 3.87289 	 81.9025
| 15> H 	 0.784478 	 4.63513 	 80.8229
| 16> C 	 0.287176 	 2.55717 	 81.0302
| 17> H 	 0.176681 	 1.71987 	 81.7483
| 18> H 	 -0.697448 	 2.75342 	 80.725
| 19> C 	 1.03835 	 2.09804 	 79.7872
| 20> H 	 0.406804 	 1.53432 	 79.0956
| 21> H 	 1.31433 	 2.95563 	 79.1726
| 22> H 	 1.9784 	 1.64017 	 79.8183
| 23> S 	 -3.46844 	 4.86173 	 86.0155
| 24> C 	 -5.00386 	 5.72132 	 85.7753
| 25> C 	 -4.96652 	 6.55283 	 84.6519
| 26> C 	 -3.78237 	 6.45678 	 83.8647
| 27> C 	 -2.91679 	 5.55054 	 84.5408
| 28> H 	 -5.82359 	 7.16371 	 84.4669
| 29> C 	 -3.57378 	 7.22072 	 82.553
| 30> H 	 -2.51419 	 7.36584 	 82.2921
| 31> H 	 -4.07906 	 8.20345 	 82.8033
| 32> C 	 -4.27519 	 6.5678 	 81.3717
| 33> H 	 -5.27807 	 6.28319 	 81.6321
| 34> H 	 -3.64477 	 5.79112 	 80.8591
| 35> C 	 -4.44263 	 7.54707 	 80.2151
| 36> H 	 -4.97525 	 6.9703 	 79.4555
| 37> H 	 -3.51157 	 7.93795 	 79.9079
| 38> H 	 -5.0468 	 8.37935 	 80.6331
| 39> H 	 1.81903 	 4.09517 	 84.2399
| 40> H 	 -5.89221 	 5.6459 	 86.5002
| 41> *
| 42>
| 43>                          ****END OF INPUT****

CARTESIAN COORDINATES (ANGSTROEM)
---------------------------------
  S     -0.285827    5.011620   85.339000
  C      0.798175    4.427650   84.080100
  C      0.211606    4.365900   82.872600
  C     -1.165540    4.769890   82.896900
  C     -1.561200    5.143820   84.165700
  H     -1.862110    4.718130   82.073100
  C      0.869733    3.898430   81.619500
  H      1.942040    3.872890   81.902500
  H      0.784478    4.635130   80.822900
  C      0.287176    2.557170   81.030200
  H      0.176681    1.719870   81.748300
  H     -0.697448    2.753420   80.725000
  C      1.038350    2.098040   79.787200
  H      0.406804    1.534320   79.095600
  H      1.314330    2.955630   79.172600
  H      1.978400    1.640170   79.818300
  S     -3.468440    4.861730   86.015500
  C     -5.003860    5.721320   85.775300
  C     -4.966520    6.552830   84.651900
  C     -3.782370    6.456780   83.864700
  C     -2.916790    5.550540   84.540800
  H     -5.823590    7.163710   84.466900
  C     -3.573780    7.220720   82.553000
  H     -2.514190    7.365840   82.292100
  H     -4.079060    8.203450   82.803300
  C     -4.275190    6.567800   81.371700
  H     -5.278070    6.283190   81.632100
  H     -3.644770    5.791120   80.859100
  C     -4.442630    7.547070   80.215100
  H     -4.975250    6.970300   79.455500
  H     -3.511570    7.937950   79.907900
  H     -5.046800    8.379350   80.633100
  H      1.819030    4.095170   84.239900
  H     -5.892210    5.645900   86.500200

 Total Charge           Charge          ....    0
 Multiplicity           Mult            ....    1
 Number of Electrons    NEL             ....  134
 Basis Dimension        Dim             ....  322

ORBITAL ENERGIES
----------------

  NO   OCC          E(Eh)            E(eV)
   0   2.0000     -88.969903     -2420.9941
   1   2.0000     -88.965411     -2420.8719
   2   2.0000     -10.326031      -280.9856
   3   2.0000     -10.325251      -280.9644
   4   2.0000     -10.323351      -280.9127
   5   2.0000     -10.308383      -280.5054
   6   2.0000     -10.306925      -280.4657
   7   2.0000     -10.302294      -280.3397
   8   2.0000     -10.295678      -280.1596
   9   2.0000     -10.294319      -280.1227
  10   2.0000     -10.292749      -280.0799
  11   2.0000     -10.289197      -279.9833
  12   2.0000     -10.288479      -279.9638
  13   2.0000     -10.288124      -279.9541
  14   2.0000     -10.276471      -279.6370
  15   2.0000     -10.272360      -279.5251
  16   2.0000      -8.084607      -219.9933
  17   2.0000      -8.080261      -219.8751
  18   2.0000      -6.042912      -164.4360
  19   2.0000      -6.039240      -164.3361
  20   2.0000      -6.038852      -164.3255
  21   2.0000      -6.035461      -164.2333
  22   2.0000      -6.034868      -164.2171
  23   2.0000      -6.030835      -164.1074
  24   2.0000      -1.007661       -27.4198
  25   2.0000      -0.982539       -26.7362
  26   2.0000      -0.917340       -24.9621
  27   2.0000      -0.909699       -24.7542
  28   2.0000      -0.869473       -23.6596
  29   2.0000      -0.856570       -23.3085
  30   2.0000      -0.847462       -23.0606
  31   2.0000      -0.812496       -22.1091
  32   2.0000      -0.782480       -21.2924
  33   2.0000      -0.769413       -20.9368
  34   2.0000      -0.712351       -19.3841
  35   2.0000      -0.697061       -18.9680
  36   2.0000      -0.686562       -18.6823
  37   2.0000      -0.662637       -18.0313
  38   2.0000      -0.635934       -17.3046
  39   2.0000      -0.620042       -16.8722
  40   2.0000      -0.596645       -16.2355
  41   2.0000      -0.576053       -15.6752
  42   2.0000      -0.569457       -15.4957
  43   2.0000      -0.550253       -14.9731
  44   2.0000      -0.533896       -14.5280
  45   2.0000      -0.525093       -14.2885
  46   2.0000      -0.513347       -13.9689
  47   2.0000      -0.511189       -13.9102
  48   2.0000      -0.506071       -13.7709
  49   2.0000      -0.499916       -13.6034
  50   2.0000      -0.489379       -13.3167
  51   2.0000      -0.476753       -12.9731
  52   2.0000      -0.473142       -12.8748
  53   2.0000      -0.465232       -12.6596
  54   2.0000      -0.456653       -12.4262
  55   2.0000      -0.451375       -12.2825
  56   2.0000      -0.441823       -12.0226
  57   2.0000      -0.439507       -11.9596
  58   2.0000      -0.436860       -11.8876
  59   2.0000      -0.433169       -11.7871
  60   2.0000      -0.424292       -11.5456
  61   2.0000      -0.420781       -11.4500
  62   2.0000      -0.411949       -11.2097
  63   2.0000      -0.348753        -9.4901
  64   2.0000      -0.333481        -9.0745
  65   2.0000      -0.330298        -8.9879
  66   2.0000      -0.285300        -7.7634
  67   0.0000       0.030776         0.8374
  68   0.0000       0.076843         2.0910
  69   0.0000       0.104327         2.8389
  70   0.0000       0.120414         3.2766
  71   0.0000       0.127829         3.4784

MULLIKEN ATOMIC CHARGES
-----------------------
   0 S :    0.106405
   1 C :   -0.134693
   2 C :   -0.061235
   3 C :    0.010042
   4 C :   -0.125586
   5 H :   -0.004103
   6 C :    0.064869
   7 H :    0.018754
   8 H :    0.027008
   9 C :   -0.046159
  10 H :    0.040585
  11 H :    0.013404
  12 C :   -0.030161
  13 H :    0.026920
  14 H :    0.004176
  15 H :    0.023611
  16 S :    0.120666
  17 C :   -0.130899
  18 C :   -0.037003
  19 C :    0.000687
  20 C :   -0.177469
  21 H :    0.008429
  22 C :    0.046510
  23 H :    0.039109
  24 H :    0.035613
  25 C :   -0.091015
  26 H :    0.027979
  27 H :    0.044112
  28 C :   -0.029104
  29 H :    0.041910
  30 H :    0.020744
  31 H :    0.024151
  32 H :    0.040472
  33 H :    0.081270
Sum of atomic charges:    0.0000000

LOEWDIN ATOMIC CHARGES
----------------------
   0 S :    0.395213
   1 C :   -0.197502
   2 C :   -0.066012
   3 C :   -0.067975
   4 C :   -0.189447
   5 H :    0.026472
   6 C :   -0.029206
   7 H :    0.031011
   8 H :    0.030563
   9 C :   -0.032181
  10 H :    0.030176
  11 H :    0.018712
  12 C :   -0.070849
  13 H :    0.028214
  14 H :    0.025170
  15 H :    0.018116
  16 S :    0.414720
  17 C :   -0.200652
  18 C :   -0.067463
  19 C :   -0.054401
  20 C :   -0.203310
  21 H :    0.026846
  22 C :   -0.032898
  23 H :    0.034823
  24 H :    0.039888
  25 C :   -0.041614
  26 H :    0.022077
  27 H :    0.029109
  28 C :   -0.057024
  29 H :    0.028953
  30 H :    0.014977
  31 H :    0.023384
  32 H :    0.028384
  33 H :    0.043727

  Mayer bond orders larger than 0.100000
B(  0-S ,  1-C ) :   1.1051 B(  0-S ,  4-C ) :   1.1516 B(  1-C ,  2-C ) :   1.6616
B(  1-C , 32-H ) :   0.9607 B(  2-C ,  3-C ) :   1.2018 B(  2-C ,  6-C ) :   1.0368
B(  3-C ,  4-C ) :   1.5855 B(  3-C ,  5-H ) :   0.9989 B(  4-C , 20-C ) :   1.0392
B(  6-C ,  7-H ) :   0.9431 B(  6-C ,  8-H ) :   0.9312 B(  6-C ,  9-C ) :   1.0546
B(  9-C , 10-H ) :   0.9602 B(  9-C , 11-H ) :   0.9504 B(  9-C , 12-C ) :   1.0813
B( 12-C , 13-H ) :   0.9744 B( 12-C , 14-H ) :   0.9645 B( 12-C , 15-H ) :   0.9775
B( 16-S , 17-C ) :   1.1363 B( 16-S , 20-C ) :   1.1716 B( 17-C , 18-C ) :   1.6116
B( 17-C , 20-C ) :   0.1024 B( 17-C , 33-H ) :   0.9589 B( 18-C , 19-C ) :   1.2425
B( 18-C , 21-H ) :   0.9889 B( 19-C , 20-C ) :   1.5553 B( 19-C , 22-C ) :   1.0369
B( 22-C , 23-H ) :   0.9271 B( 22-C , 24-H ) :   0.9357 B( 22-C , 25-C ) :   1.0812
B( 25-C , 26-H ) :   0.9575 B( 25-C , 27-H ) :   0.9488 B( 25-C , 28-C ) :   1.0776
B( 28-C , 29-H ) :   0.9759 B( 28-C , 30-H ) :   0.9737 B( 28-C , 31-H ) :   0.9763

Dispersion correction           -0.013743440
FINAL SINGLE POINT ENERGY     -1339.876455214679

DIPOLE MOMENT
-------------
                                X             Y             Z
Electronic contribution:     -0.98494       0.67367      31.44221
Nuclear contribution   :      0.80778      -0.59679     -32.11507
                        -----------------------------------------
Total Dipole Moment    :     -0.17716       0.07688      -0.67286
                        -----------------------------------------
Magnitude (a.u.)       :      0.70003
Magnitude (Debye)      :      1.77933

Rotational constants in cm-1:     0.016315     0.009170     0.006546
Rotational constants in MHz :   489.114004   274.908451   196.241135

                             ****ORCA TERMINATED NORMALLY****
TOTAL RUN TIME: 0 days 0 hours 0 minutes 32 seconds 269 msec
