                         Program Version 4.2.1 -  RELEASE  -
|  1> ! wB97X-D3 SP def2-SVP
|  2> %pal
|  3> nprocs 16
|  4> end
|  5>
|  6> * xyz 0 1
|  7> S 	 -42.5161 	 16.0246 	 80.6469
|  8> C 	 -42.6924 	 14.293 	 80.5378
|  9> C 	 -42.1828 	 13.6275 	 81.6756
| 10> C 	 -41.3556 	 14.5227 	 82.4764
| 11> C 	 -41.2682 	 15.7802 	 81.915
| 12> H 	 -40.9176 	 14.273 	 83.4508
| 13> C 	 -42.4043 	 12.1423 	 82.0222
| 14> H 	 -41.8102 	 12.0536 	 82.9355
| 15> H 	 -41.916 	 11.4869 	 81.2591
| 16> C 	 -43.8432 	 11.6315 	 82.3906
| 17> H 	 -43.7873 	 10.599 	 82.7847
| 18> H 	 -44.2582 	 12.2434 	 83.1775
| 19> C 	 -44.8666 	 11.7866 	 81.2791
| 20> H 	 -45.8033 	 11.1476 	 81.4006
| 21> H 	 -45.2186 	 12.8425 	 81.22
| 22> H 	 -44.4413 	 11.4258 	 80.3439
| 23> S 	 -41.662 	 18.1943 	 83.3168
| 24> C 	 -40.2756 	 19.0357 	 83.8234
| 25> C 	 -39.1307 	 18.2775 	 83.6492
| 26> C 	 -39.3427 	 17.0192 	 83.0355
| 27> C 	 -40.6433 	 16.9078 	 82.6188
| 28> H 	 -38.1599 	 18.5801 	 83.912
| 29> C 	 -38.1908 	 16.1285 	 82.6048
| 30> H 	 -38.5626 	 15.1104 	 82.4513
| 31> H 	 -37.4575 	 16.0867 	 83.3749
| 32> C 	 -37.5198 	 16.3579 	 81.1829
| 33> H 	 -38.3213 	 16.3241 	 80.505
| 34> H 	 -36.7566 	 15.6213 	 80.959
| 35> C 	 -36.8478 	 17.7188 	 81.2462
| 36> H 	 -37.5719 	 18.4838 	 81.1796
| 37> H 	 -36.1441 	 17.9181 	 80.4
| 38> H 	 -36.3462 	 17.8887 	 82.1113
| 39> H 	 -43.3336 	 13.8844 	 79.7886
| 40> H 	 -40.2334 	 19.9966 	 84.3572
| 41> *
| 42>
| 43>                          ****END OF INPUT****

CARTESIAN COORDINATES (ANGSTROEM)
---------------------------------
  S    -42.516100   16.024600   80.646900
  C    -42.692400   14.293000   80.537800
  C    -42.182800   13.627500   81.675600
  C    -41.355600   14.522700   82.476400
  C    -41.268200   15.780200   81.915000
  H    -40.917600   14.273000   83.450800
  C    -42.404300   12.142300   82.022200
  H    -41.810200   12.053600   82.935500
  H    -41.916000   11.486900   81.259100
  C    -43.843200   11.631500   82.390600
  H    -43.787300   10.599000   82.784700
  H    -44.258200   12.243400   83.177500
  C    -44.866600   11.786600   81.279100
  H    -45.803300   11.147600   81.400600
  H    -45.218600   12.842500   81.220000
  H    -44.441300   11.425800   80.343900
  S    -41.662000   18.194300   83.316800
  C    -40.275600   19.035700   83.823400
  C    -39.130700   18.277500   83.649200
  C    -39.342700   17.019200   83.035500
  C    -40.643300   16.907800   82.618800
  H    -38.159900   18.580100   83.912000
  C    -38.190800   16.128500   82.604800
  H    -38.562600   15.110400   82.451300
  H    -37.457500   16.086700   83.374900
  C    -37.519800   16.357900   81.182900
  H    -38.321300   16.324100   80.505000
  H    -36.756600   15.621300   80.959000
  C    -36.847800   17.718800   81.246200
  H    -37.571900   18.483800   81.179600
  H    -36.144100   17.918100   80.400000
  H    -36.346200   17.888700   82.111300
  H    -43.333600   13.884400   79.788600
  H    -40.233400   19.996600   84.357200

 Total Charge           Charge          ....    0
 Multiplicity           Mult            ....    1
 Number of Electrons    NEL             ....  134
 Basis Dimension        Dim             ....  322

ORBITAL ENERGIES
----------------

  NO   OCC          E(Eh)            E(eV)
   0   2.0000     -88.968494     -2420.9558
   1   2.0000     -88.965935     -2420.8862
   2   2.0000     -10.330982      -281.1203
   3   2.0000     -10.323862      -280.9266
   4   2.0000     -10.317429      -280.7515
   5   2.0000     -10.313262      -280.6381
   6   2.0000     -10.311140      -280.5804
   7   2.0000     -10.302822      -280.3540
   8   2.0000     -10.301192      -280.3097
   9   2.0000     -10.296885      -280.1925
  10   2.0000     -10.290918      -280.0301
  11   2.0000     -10.287112      -279.9266
  12   2.0000     -10.285436      -279.8809
  13   2.0000     -10.283660      -279.8326
  14   2.0000     -10.280746      -279.7533
  15   2.0000     -10.259900      -279.1861
  16   2.0000      -8.082738      -219.9425
  17   2.0000      -8.081058      -219.8968
  18   2.0000      -6.041191      -164.3892
  19   2.0000      -6.039519      -164.3437
  20   2.0000      -6.037648      -164.2928
  21   2.0000      -6.035570      -164.2362
  22   2.0000      -6.033250      -164.1731
  23   2.0000      -6.031794      -164.1335
  24   2.0000      -1.005601       -27.3638
  25   2.0000      -0.981934       -26.7198
  26   2.0000      -0.907357       -24.6904
  27   2.0000      -0.904745       -24.6194
  28   2.0000      -0.866632       -23.5822
  29   2.0000      -0.851615       -23.1736
  30   2.0000      -0.847497       -23.0616
  31   2.0000      -0.807681       -21.9781
  32   2.0000      -0.782811       -21.3014
  33   2.0000      -0.771235       -20.9864
  34   2.0000      -0.708728       -19.2855
  35   2.0000      -0.696229       -18.9454
  36   2.0000      -0.690007       -18.7761
  37   2.0000      -0.661701       -18.0058
  38   2.0000      -0.643085       -17.4992
  39   2.0000      -0.613469       -16.6933
  40   2.0000      -0.594437       -16.1755
  41   2.0000      -0.566711       -15.4210
  42   2.0000      -0.556420       -15.1410
  43   2.0000      -0.544927       -14.8282
  44   2.0000      -0.541877       -14.7452
  45   2.0000      -0.532480       -14.4895
  46   2.0000      -0.518780       -14.1167
  47   2.0000      -0.509799       -13.8723
  48   2.0000      -0.499907       -13.6032
  49   2.0000      -0.491642       -13.3783
  50   2.0000      -0.490140       -13.3374
  51   2.0000      -0.478874       -13.0308
  52   2.0000      -0.471560       -12.8318
  53   2.0000      -0.468485       -12.7481
  54   2.0000      -0.459610       -12.5066
  55   2.0000      -0.448624       -12.2077
  56   2.0000      -0.443402       -12.0656
  57   2.0000      -0.434995       -11.8368
  58   2.0000      -0.429745       -11.6940
  59   2.0000      -0.426323       -11.6008
  60   2.0000      -0.421708       -11.4753
  61   2.0000      -0.419769       -11.4225
  62   2.0000      -0.408711       -11.1216
  63   2.0000      -0.346527        -9.4295
  64   2.0000      -0.331640        -9.0244
  65   2.0000      -0.325036        -8.8447
  66   2.0000      -0.290432        -7.9031
  67   0.0000       0.025697         0.6992
  68   0.0000       0.058949         1.6041
  69   0.0000       0.103018         2.8033
  70   0.0000       0.117691         3.2025
  71   0.0000       0.125992         3.4284

MULLIKEN ATOMIC CHARGES
-----------------------
   0 S :    0.101749
   1 C :   -0.104881
   2 C :   -0.109765
   3 C :    0.035718
   4 C :   -0.164034
   5 H :    0.038806
   6 C :    0.041431
   7 H :    0.016933
   8 H :    0.054258
   9 C :   -0.051383
  10 H :    0.040109
  11 H :    0.026129
  12 C :   -0.093259
  13 H :    0.040689
  14 H :    0.052078
  15 H :    0.025435
  16 S :    0.117024
  17 C :   -0.088391
  18 C :   -0.016003
  19 C :   -0.033114
  20 C :   -0.165277
  21 H :   -0.012022
  22 C :    0.035454
  23 H :    0.018570
  24 H :    0.018313
  25 C :   -0.022565
  26 H :    0.025897
  27 H :    0.033862
  28 C :   -0.026390
  29 H :    0.026106
  30 H :    0.028260
  31 H :   -0.001252
  32 H :    0.047576
  33 H :    0.063939
Sum of atomic charges:   -0.0000000

LOEWDIN ATOMIC CHARGES
----------------------
   0 S :    0.389542
   1 C :   -0.186790
   2 C :   -0.062050
   3 C :   -0.050537
   4 C :   -0.186706
   5 H :    0.039344
   6 C :   -0.037313
   7 H :    0.030749
   8 H :    0.038115
   9 C :   -0.042667
  10 H :    0.029307
  11 H :    0.025182
  12 C :   -0.078114
  13 H :    0.034014
  14 H :    0.030642
  15 H :    0.017657
  16 S :    0.410663
  17 C :   -0.208163
  18 C :   -0.065306
  19 C :   -0.061728
  20 C :   -0.186490
  21 H :    0.018680
  22 C :   -0.028442
  23 H :    0.029821
  24 H :    0.021437
  25 C :   -0.017523
  26 H :    0.020111
  27 H :    0.025335
  28 C :   -0.061556
  29 H :    0.022280
  30 H :    0.027883
  31 H :    0.005719
  32 H :    0.019870
  33 H :    0.037034

  Mayer bond orders larger than 0.100000
B(  0-S ,  1-C ) :   1.1457 B(  0-S ,  4-C ) :   1.1358 B(  1-C ,  2-C ) :   1.5956
B(  1-C , 32-H ) :   0.9725 B(  2-C ,  3-C ) :   1.2472 B(  2-C ,  6-C ) :   1.0076
B(  3-C ,  4-C ) :   1.5791 B(  3-C ,  5-H ) :   0.9820 B(  4-C , 20-C ) :   1.0363
B(  6-C ,  7-H ) :   0.9391 B(  6-C ,  8-H ) :   0.9452 B(  6-C ,  9-C ) :   1.0693
B(  9-C , 10-H ) :   0.9564 B(  9-C , 11-H ) :   0.9562 B(  9-C , 12-C ) :   1.0775
B( 12-C , 13-H ) :   0.9708 B( 12-C , 14-H ) :   0.9718 B( 12-C , 15-H ) :   0.9763
B( 16-S , 17-C ) :   1.1531 B( 16-S , 20-C ) :   1.1446 B( 17-C , 18-C ) :   1.5956
B( 17-C , 33-H ) :   0.9640 B( 18-C , 19-C ) :   1.2529 B( 18-C , 21-H ) :   0.9947
B( 19-C , 20-C ) :   1.5982 B( 19-C , 22-C ) :   1.0619 B( 22-C , 23-H ) :   0.9275
B( 22-C , 24-H ) :   0.9379 B( 22-C , 25-C ) :   1.0677 B( 25-C , 26-H ) :   0.9563
B( 25-C , 27-H ) :   0.9578 B( 25-C , 28-C ) :   1.0835 B( 28-C , 29-H ) :   0.9709
B( 28-C , 30-H ) :   0.9711 B( 28-C , 31-H ) :   0.9738

Dispersion correction           -0.014809585
FINAL SINGLE POINT ENERGY     -1339.863872200091

DIPOLE MOMENT
-------------
                                X             Y             Z
Electronic contribution:     -7.89535      16.45021       2.46178
Nuclear contribution   :      8.04084     -16.94443      -2.24302
                        -----------------------------------------
Total Dipole Moment    :      0.14548      -0.49422       0.21875
                        -----------------------------------------
Magnitude (a.u.)       :      0.55970
Magnitude (Debye)      :      1.42266

Rotational constants in cm-1:     0.023877     0.007461     0.006631
Rotational constants in MHz :   715.811980   223.663788   198.796151

                             ****ORCA TERMINATED NORMALLY****
TOTAL RUN TIME: 0 days 0 hours 0 minutes 32 seconds 421 msec
