                         Program Version 4.2.1 -  RELEASE  -
|  1> ! wB97X-D3 SP def2-SVP
|  2> %pal
|  3> nprocs 16
|  4> end
|  5>
|  6> * xyz 0 1
|  7> S 	 -4.81442 	 10.5215 	 80.5088
|  8> C 	 -6.51242 	 10.1115 	 80.0699
|  9> C 	 -7.16274 	 11.2997 	 79.8532
| 10> C 	 -6.39097 	 12.4865 	 80.1868
| 11> C 	 -5.07583 	 12.2222 	 80.119
| 12> H 	 -6.83202 	 13.4794 	 80.2536
| 13> C 	 -8.59513 	 11.402 	 79.56
| 14> H 	 -9.11125 	 11.8884 	 80.3575
| 15> H 	 -8.98587 	 10.3628 	 79.3728
| 16> C 	 -8.85403 	 11.9958 	 78.1226
| 17> H 	 -9.88119 	 11.741 	 77.7784
| 18> H 	 -8.77819 	 13.1175 	 78.1766
| 19> C 	 -7.83729 	 11.4937 	 77.0711
| 20> H 	 -6.85211 	 12.041 	 77.0543
| 21> H 	 -7.58824 	 10.3616 	 77.0851
| 22> H 	 -8.24108 	 11.5825 	 76.0647
| 23> S 	 -2.62392 	 12.6256 	 81.2355
| 24> C 	 -2.00137 	 14.2829 	 81.4464
| 25> C 	 -2.75528 	 15.2011 	 80.7716
| 26> C 	 -3.93142 	 14.5708 	 80.1313
| 27> C 	 -4.00906 	 13.2135 	 80.3813
| 28> H 	 -2.57652 	 16.2829 	 80.8219
| 29> C 	 -4.96517 	 15.3605 	 79.346
| 30> H 	 -5.79989 	 15.7529 	 80.0165
| 31> H 	 -5.4435 	 14.8099 	 78.5762
| 32> C 	 -4.43991 	 16.7407 	 78.7942
| 33> H 	 -3.50833 	 16.6751 	 78.1982
| 34> H 	 -4.16832 	 17.4861 	 79.5545
| 35> C 	 -5.51216 	 17.4033 	 77.9134
| 36> H 	 -5.6473 	 16.8868 	 76.9383
| 37> H 	 -5.20459 	 18.4379 	 77.6503
| 38> H 	 -6.46269 	 17.4899 	 78.4162
| 39> H 	 -6.91773 	 9.10283 	 80.08
| 40> H 	 -1.16594 	 14.5729 	 82.0611
| 41> *
| 42>
| 43>                          ****END OF INPUT****

CARTESIAN COORDINATES (ANGSTROEM)
---------------------------------
  S     -4.814420   10.521500   80.508800
  C     -6.512420   10.111500   80.069900
  C     -7.162740   11.299700   79.853200
  C     -6.390970   12.486500   80.186800
  C     -5.075830   12.222200   80.119000
  H     -6.832020   13.479400   80.253600
  C     -8.595130   11.402000   79.560000
  H     -9.111250   11.888400   80.357500
  H     -8.985870   10.362800   79.372800
  C     -8.854030   11.995800   78.122600
  H     -9.881190   11.741000   77.778400
  H     -8.778190   13.117500   78.176600
  C     -7.837290   11.493700   77.071100
  H     -6.852110   12.041000   77.054300
  H     -7.588240   10.361600   77.085100
  H     -8.241080   11.582500   76.064700
  S     -2.623920   12.625600   81.235500
  C     -2.001370   14.282900   81.446400
  C     -2.755280   15.201100   80.771600
  C     -3.931420   14.570800   80.131300
  C     -4.009060   13.213500   80.381300
  H     -2.576520   16.282900   80.821900
  C     -4.965170   15.360500   79.346000
  H     -5.799890   15.752900   80.016500
  H     -5.443500   14.809900   78.576200
  C     -4.439910   16.740700   78.794200
  H     -3.508330   16.675100   78.198200
  H     -4.168320   17.486100   79.554500
  C     -5.512160   17.403300   77.913400
  H     -5.647300   16.886800   76.938300
  H     -5.204590   18.437900   77.650300
  H     -6.462690   17.489900   78.416200
  H     -6.917730    9.102830   80.080000
  H     -1.165940   14.572900   82.061100

 Total Charge           Charge          ....    0
 Multiplicity           Mult            ....    1
 Number of Electrons    NEL             ....  134
 Basis Dimension        Dim             ....  322

ORBITAL ENERGIES
----------------

  NO   OCC          E(Eh)            E(eV)
   0   2.0000     -88.964342     -2420.8428
   1   2.0000     -88.959103     -2420.7002
   2   2.0000     -10.331393      -281.1315
   3   2.0000     -10.326950      -281.0106
   4   2.0000     -10.319083      -280.7965
   5   2.0000     -10.317428      -280.7515
   6   2.0000     -10.308782      -280.5162
   7   2.0000     -10.301303      -280.3127
   8   2.0000     -10.300840      -280.3001
   9   2.0000     -10.299045      -280.2513
  10   2.0000     -10.298097      -280.2255
  11   2.0000     -10.294109      -280.1170
  12   2.0000     -10.293667      -280.1049
  13   2.0000     -10.291229      -280.0386
  14   2.0000     -10.285061      -279.8707
  15   2.0000     -10.282490      -279.8008
  16   2.0000      -8.079150      -219.8449
  17   2.0000      -8.073484      -219.6907
  18   2.0000      -6.037849      -164.2982
  19   2.0000      -6.033732      -164.1862
  20   2.0000      -6.032407      -164.1501
  21   2.0000      -6.029615      -164.0742
  22   2.0000      -6.028368      -164.0402
  23   2.0000      -6.023483      -163.9073
  24   2.0000      -1.008167       -27.4336
  25   2.0000      -0.982289       -26.7294
  26   2.0000      -0.911207       -24.7952
  27   2.0000      -0.905406       -24.6374
  28   2.0000      -0.867369       -23.6023
  29   2.0000      -0.850035       -23.1306
  30   2.0000      -0.834935       -22.7197
  31   2.0000      -0.821026       -22.3412
  32   2.0000      -0.776891       -21.1403
  33   2.0000      -0.769178       -20.9304
  34   2.0000      -0.706018       -19.2117
  35   2.0000      -0.700521       -19.0621
  36   2.0000      -0.692046       -18.8315
  37   2.0000      -0.654291       -17.8042
  38   2.0000      -0.636214       -17.3123
  39   2.0000      -0.623636       -16.9700
  40   2.0000      -0.599501       -16.3132
  41   2.0000      -0.566343       -15.4110
  42   2.0000      -0.564589       -15.3632
  43   2.0000      -0.556334       -15.1386
  44   2.0000      -0.542829       -14.7711
  45   2.0000      -0.523514       -14.2455
  46   2.0000      -0.514997       -14.0138
  47   2.0000      -0.509524       -13.8648
  48   2.0000      -0.506710       -13.7883
  49   2.0000      -0.494906       -13.4671
  50   2.0000      -0.483849       -13.1662
  51   2.0000      -0.477233       -12.9862
  52   2.0000      -0.467099       -12.7104
  53   2.0000      -0.459701       -12.5091
  54   2.0000      -0.459126       -12.4935
  55   2.0000      -0.456359       -12.4182
  56   2.0000      -0.448152       -12.1948
  57   2.0000      -0.437799       -11.9131
  58   2.0000      -0.431561       -11.7434
  59   2.0000      -0.423378       -11.5207
  60   2.0000      -0.419654       -11.4194
  61   2.0000      -0.410420       -11.1681
  62   2.0000      -0.404319       -11.0021
  63   2.0000      -0.359494        -9.7823
  64   2.0000      -0.332449        -9.0464
  65   2.0000      -0.317378        -8.6363
  66   2.0000      -0.289412        -7.8753
  67   0.0000       0.021740         0.5916
  68   0.0000       0.083278         2.2661
  69   0.0000       0.086358         2.3499
  70   0.0000       0.114335         3.1112
  71   0.0000       0.124441         3.3862

MULLIKEN ATOMIC CHARGES
-----------------------
   0 S :    0.051777
   1 C :   -0.105878
   2 C :   -0.104767
   3 C :   -0.004792
   4 C :   -0.067280
   5 H :    0.027736
   6 C :    0.072987
   7 H :    0.040882
   8 H :    0.019718
   9 C :   -0.102358
  10 H :    0.041995
  11 H :    0.036049
  12 C :   -0.088729
  13 H :    0.051759
  14 H :    0.037475
  15 H :    0.031160
  16 S :    0.090256
  17 C :   -0.074853
  18 C :   -0.031194
  19 C :   -0.049973
  20 C :   -0.124804
  21 H :    0.031981
  22 C :    0.027003
  23 H :    0.050501
  24 H :    0.031130
  25 C :   -0.113211
  26 H :    0.036133
  27 H :    0.034343
  28 C :   -0.055174
  29 H :    0.041086
  30 H :    0.031603
  31 H :    0.025825
  32 H :    0.058094
  33 H :    0.053519
Sum of atomic charges:   -0.0000000

LOEWDIN ATOMIC CHARGES
----------------------
   0 S :    0.353198
   1 C :   -0.175310
   2 C :   -0.062485
   3 C :   -0.056349
   4 C :   -0.171338
   5 H :    0.033277
   6 C :   -0.034927
   7 H :    0.030006
   8 H :    0.034581
   9 C :   -0.044998
  10 H :    0.026705
  11 H :    0.024057
  12 C :   -0.084608
  13 H :    0.033409
  14 H :    0.033404
  15 H :    0.023915
  16 S :    0.390969
  17 C :   -0.170542
  18 C :   -0.068009
  19 C :   -0.060251
  20 C :   -0.194484
  21 H :    0.037040
  22 C :   -0.035202
  23 H :    0.040928
  24 H :    0.025114
  25 C :   -0.047568
  26 H :    0.024993
  27 H :    0.022885
  28 C :   -0.068615
  29 H :    0.028355
  30 H :    0.028955
  31 H :    0.019529
  32 H :    0.033327
  33 H :    0.030038

  Mayer bond orders larger than 0.100000
B(  0-S ,  1-C ) :   1.0930 B(  0-S ,  4-C ) :   1.1252 B(  1-C ,  2-C ) :   1.6440
B(  1-C , 32-H ) :   0.9718 B(  2-C ,  3-C ) :   1.1791 B(  2-C ,  6-C ) :   1.0557
B(  3-C ,  4-C ) :   1.6023 B(  3-C ,  5-H ) :   0.9876 B(  4-C , 20-C ) :   1.0593
B(  6-C ,  7-H ) :   0.9446 B(  6-C ,  8-H ) :   0.9390 B(  6-C ,  9-C ) :   1.0482
B(  9-C , 10-H ) :   0.9672 B(  9-C , 11-H ) :   0.9540 B(  9-C , 12-C ) :   1.0737
B( 12-C , 13-H ) :   0.9680 B( 12-C , 14-H ) :   0.9734 B( 12-C , 15-H ) :   0.9739
B( 16-S , 17-C ) :   1.1338 B( 16-S , 20-C ) :   1.1221 B( 17-C , 18-C ) :   1.6488
B( 17-C , 33-H ) :   0.9658 B( 18-C , 19-C ) :   1.2084 B( 18-C , 21-H ) :   0.9830
B( 19-C , 20-C ) :   1.6406 B( 19-C , 22-C ) :   1.0490 B( 22-C , 23-H ) :   0.9228
B( 22-C , 24-H ) :   0.9454 B( 22-C , 25-C ) :   1.0568 B( 25-C , 26-H ) :   0.9576
B( 25-C , 27-H ) :   0.9496 B( 25-C , 28-C ) :   1.0889 B( 28-C , 29-H ) :   0.9756
B( 28-C , 30-H ) :   0.9725 B( 28-C , 31-H ) :   0.9729

Dispersion correction           -0.014516014
FINAL SINGLE POINT ENERGY     -1339.863651585991

DIPOLE MOMENT
-------------
                                X             Y             Z
Electronic contribution:     18.67984     -16.66641      17.41747
Nuclear contribution   :    -19.26476      17.29041     -17.52978
                        -----------------------------------------
Total Dipole Moment    :     -0.58492       0.62400      -0.11231
                        -----------------------------------------
Magnitude (a.u.)       :      0.86262
Magnitude (Debye)      :      2.19262

Rotational constants in cm-1:     0.016427     0.010411     0.006752
Rotational constants in MHz :   492.479068   312.109582   202.410743

                             ****ORCA TERMINATED NORMALLY****
TOTAL RUN TIME: 0 days 0 hours 0 minutes 33 seconds 334 msec
