                         Program Version 4.2.1 -  RELEASE  -
|  1> ! wB97X-D3 SP def2-SVP
|  2> %pal
|  3> nprocs 16
|  4> end
|  5>
|  6> * xyz 0 1
|  7> S 	 6.46355 	 14.7258 	 87.0566
|  8> C 	 4.78719 	 14.9961 	 86.9676
|  9> C 	 4.05179 	 13.886 	 87.3421
| 10> C 	 4.92661 	 12.8341 	 87.7277
| 11> C 	 6.22759 	 13.1002 	 87.4828
| 12> H 	 4.73443 	 11.7988 	 88.025
| 13> C 	 2.56514 	 13.498 	 87.1663
| 14> H 	 2.3202 	 14.3258 	 86.5836
| 15> H 	 1.99825 	 13.6786 	 88.0484
| 16> C 	 2.16113 	 12.1855 	 86.4277
| 17> H 	 2.94758 	 11.9287 	 85.7692
| 18> H 	 2.23591 	 11.4523 	 87.282
| 19> C 	 0.725876 	 12.2073 	 85.8984
| 20> H 	 0.0564593 	 12.4523 	 86.7243
| 21> H 	 0.656868 	 12.9618 	 85.1211
| 22> H 	 0.422776 	 11.246 	 85.4755
| 23> S 	 8.51314 	 12.439 	 88.79
| 24> C 	 9.1384 	 10.8197 	 88.6892
| 25> C 	 8.57688 	 10.1912 	 87.6379
| 26> C 	 7.41534 	 10.8457 	 87.107
| 27> C 	 7.30104 	 12.14 	 87.6456
| 28> H 	 8.89928 	 9.13885 	 87.4849
| 29> C 	 6.45447 	 10.0918 	 86.2099
| 30> H 	 5.46468 	 10.4986 	 86.0848
| 31> H 	 6.47337 	 9.16936 	 86.7186
| 32> C 	 7.05109 	 9.83534 	 84.8383
| 33> H 	 7.91184 	 9.18022 	 85.0739
| 34> H 	 7.3801 	 10.7155 	 84.2813
| 35> C 	 6.13515 	 9.09423 	 83.8881
| 36> H 	 5.74428 	 8.2008 	 84.3345
| 37> H 	 6.56976 	 8.82767 	 82.8973
| 38> H 	 5.25008 	 9.64791 	 83.6204
| 39> H 	 4.43017 	 15.9394 	 86.452
| 40> H 	 9.93943 	 10.4395 	 89.2976
| 41> *
| 42>
| 43>                          ****END OF INPUT****

CARTESIAN COORDINATES (ANGSTROEM)
---------------------------------
  S      6.463550   14.725800   87.056600
  C      4.787190   14.996100   86.967600
  C      4.051790   13.886000   87.342100
  C      4.926610   12.834100   87.727700
  C      6.227590   13.100200   87.482800
  H      4.734430   11.798800   88.025000
  C      2.565140   13.498000   87.166300
  H      2.320200   14.325800   86.583600
  H      1.998250   13.678600   88.048400
  C      2.161130   12.185500   86.427700
  H      2.947580   11.928700   85.769200
  H      2.235910   11.452300   87.282000
  C      0.725876   12.207300   85.898400
  H      0.056459   12.452300   86.724300
  H      0.656868   12.961800   85.121100
  H      0.422776   11.246000   85.475500
  S      8.513140   12.439000   88.790000
  C      9.138400   10.819700   88.689200
  C      8.576880   10.191200   87.637900
  C      7.415340   10.845700   87.107000
  C      7.301040   12.140000   87.645600
  H      8.899280    9.138850   87.484900
  C      6.454470   10.091800   86.209900
  H      5.464680   10.498600   86.084800
  H      6.473370    9.169360   86.718600
  C      7.051090    9.835340   84.838300
  H      7.911840    9.180220   85.073900
  H      7.380100   10.715500   84.281300
  C      6.135150    9.094230   83.888100
  H      5.744280    8.200800   84.334500
  H      6.569760    8.827670   82.897300
  H      5.250080    9.647910   83.620400
  H      4.430170   15.939400   86.452000
  H      9.939430   10.439500   89.297600

 Total Charge           Charge          ....    0
 Multiplicity           Mult            ....    1
 Number of Electrons    NEL             ....  134
 Basis Dimension        Dim             ....  322

ORBITAL ENERGIES
----------------

  NO   OCC          E(Eh)            E(eV)
   0   2.0000     -88.963467     -2420.8190
   1   2.0000     -88.960218     -2420.7306
   2   2.0000     -10.320213      -280.8273
   3   2.0000     -10.315518      -280.6995
   4   2.0000     -10.315398      -280.6962
   5   2.0000     -10.312006      -280.6039
   6   2.0000     -10.304717      -280.4056
   7   2.0000     -10.302736      -280.3517
   8   2.0000     -10.293175      -280.0915
   9   2.0000     -10.292086      -280.0619
  10   2.0000     -10.287168      -279.9281
  11   2.0000     -10.284794      -279.8635
  12   2.0000     -10.284542      -279.8566
  13   2.0000     -10.283733      -279.8346
  14   2.0000     -10.282780      -279.8087
  15   2.0000     -10.273790      -279.5640
  16   2.0000      -8.080394      -219.8787
  17   2.0000      -8.076646      -219.7767
  18   2.0000      -6.038695      -164.3212
  19   2.0000      -6.035019      -164.2212
  20   2.0000      -6.034610      -164.2101
  21   2.0000      -6.031236      -164.1183
  22   2.0000      -6.030906      -164.1093
  23   2.0000      -6.027444      -164.0151
  24   2.0000      -1.019144       -27.7323
  25   2.0000      -0.995582       -27.0912
  26   2.0000      -0.917354       -24.9625
  27   2.0000      -0.910703       -24.7815
  28   2.0000      -0.875762       -23.8307
  29   2.0000      -0.855098       -23.2684
  30   2.0000      -0.849536       -23.1171
  31   2.0000      -0.817949       -22.2575
  32   2.0000      -0.785014       -21.3613
  33   2.0000      -0.773966       -21.0607
  34   2.0000      -0.712458       -19.3870
  35   2.0000      -0.697259       -18.9734
  36   2.0000      -0.691441       -18.8151
  37   2.0000      -0.660080       -17.9617
  38   2.0000      -0.644851       -17.5473
  39   2.0000      -0.620410       -16.8822
  40   2.0000      -0.601047       -16.3553
  41   2.0000      -0.576660       -15.6917
  42   2.0000      -0.571769       -15.5586
  43   2.0000      -0.555420       -15.1138
  44   2.0000      -0.528470       -14.3804
  45   2.0000      -0.524524       -14.2730
  46   2.0000      -0.516846       -14.0641
  47   2.0000      -0.510692       -13.8966
  48   2.0000      -0.507158       -13.8005
  49   2.0000      -0.499224       -13.5846
  50   2.0000      -0.495619       -13.4865
  51   2.0000      -0.484046       -13.1715
  52   2.0000      -0.477597       -12.9961
  53   2.0000      -0.467009       -12.7080
  54   2.0000      -0.464581       -12.6419
  55   2.0000      -0.454134       -12.3576
  56   2.0000      -0.443216       -12.0605
  57   2.0000      -0.441644       -12.0177
  58   2.0000      -0.432024       -11.7560
  59   2.0000      -0.427929       -11.6445
  60   2.0000      -0.422333       -11.4923
  61   2.0000      -0.411845       -11.2069
  62   2.0000      -0.407218       -11.0810
  63   2.0000      -0.350360        -9.5338
  64   2.0000      -0.331105        -9.0098
  65   2.0000      -0.324364        -8.8264
  66   2.0000      -0.294617        -8.0169
  67   0.0000       0.045731         1.2444
  68   0.0000       0.070582         1.9206
  69   0.0000       0.116484         3.1697
  70   0.0000       0.125097         3.4041
  71   0.0000       0.134587         3.6623

MULLIKEN ATOMIC CHARGES
-----------------------
   0 S :    0.124983
   1 C :   -0.158554
   2 C :   -0.085834
   3 C :    0.011234
   4 C :   -0.172222
   5 H :    0.017918
   6 C :    0.096375
   7 H :   -0.013945
   8 H :    0.028121
   9 C :   -0.080399
  10 H :    0.032679
  11 H :    0.034033
  12 C :   -0.029573
  13 H :    0.036522
  14 H :    0.034774
  15 H :    0.039821
  16 S :    0.107296
  17 C :   -0.101601
  18 C :   -0.046921
  19 C :   -0.051709
  20 C :   -0.149453
  21 H :    0.033800
  22 C :    0.123791
  23 H :    0.019716
  24 H :    0.015270
  25 C :   -0.099171
  26 H :    0.026082
  27 H :    0.039826
  28 C :   -0.026576
  29 H :    0.010243
  30 H :    0.037547
  31 H :    0.017696
  32 H :    0.072871
  33 H :    0.055360
Sum of atomic charges:   -0.0000000

LOEWDIN ATOMIC CHARGES
----------------------
   0 S :    0.443391
   1 C :   -0.225215
   2 C :   -0.061394
   3 C :   -0.067947
   4 C :   -0.213543
   5 H :    0.034023
   6 C :   -0.030843
   7 H :    0.018423
   8 H :    0.028163
   9 C :   -0.037830
  10 H :    0.017405
  11 H :    0.028153
  12 C :   -0.057573
  13 H :    0.029901
  14 H :    0.025218
  15 H :    0.029429
  16 S :    0.426559
  17 C :   -0.184906
  18 C :   -0.080721
  19 C :   -0.051029
  20 C :   -0.220115
  21 H :    0.037204
  22 C :   -0.024346
  23 H :    0.025104
  24 H :    0.030674
  25 C :   -0.039775
  26 H :    0.025093
  27 H :    0.027410
  28 C :   -0.069525
  29 H :    0.018065
  30 H :    0.031545
  31 H :    0.020478
  32 H :    0.039277
  33 H :    0.029244

  Mayer bond orders larger than 0.100000
B(  0-S ,  1-C ) :   1.1574 B(  0-S ,  4-C ) :   1.1684 B(  1-C ,  2-C ) :   1.6107
B(  1-C , 32-H ) :   0.9590 B(  2-C ,  3-C ) :   1.2252 B(  2-C ,  6-C ) :   1.0008
B(  3-C ,  4-C ) :   1.6037 B(  3-C ,  5-H ) :   0.9912 B(  4-C , 20-C ) :   1.0036
B(  6-C ,  7-H ) :   0.9370 B(  6-C ,  8-H ) :   0.9298 B(  6-C ,  9-C ) :   1.0517
B(  9-C , 10-H ) :   0.9619 B(  9-C , 11-H ) :   0.9511 B(  9-C , 12-C ) :   1.0796
B( 12-C , 13-H ) :   0.9738 B( 12-C , 14-H ) :   0.9769 B( 12-C , 15-H ) :   0.9737
B( 16-S , 17-C ) :   1.1557 B( 16-S , 20-C ) :   1.1629 B( 17-C , 18-C ) :   1.6338
B( 17-C , 33-H ) :   0.9700 B( 18-C , 19-C ) :   1.2297 B( 18-C , 21-H ) :   0.9752
B( 19-C , 20-C ) :   1.5915 B( 19-C , 22-C ) :   1.0334 B( 22-C , 23-H ) :   0.9404
B( 22-C , 24-H ) :   0.9201 B( 22-C , 25-C ) :   1.0657 B( 25-C , 26-H ) :   0.9536
B( 25-C , 27-H ) :   0.9584 B( 25-C , 28-C ) :   1.0964 B( 28-C , 29-H ) :   0.9687
B( 28-C , 30-H ) :   0.9730 B( 28-C , 31-H ) :   0.9705

Dispersion correction           -0.014122498
FINAL SINGLE POINT ENERGY     -1339.861889801704

DIPOLE MOMENT
-------------
                                X             Y             Z
Electronic contribution:     22.18021      17.04714      15.91205
Nuclear contribution   :    -22.64902     -17.60663     -16.19214
                        -----------------------------------------
Total Dipole Moment    :     -0.46881      -0.55948      -0.28009
                        -----------------------------------------
Magnitude (a.u.)       :      0.78183
Magnitude (Debye)      :      1.98725

Rotational constants in cm-1:     0.016105     0.009791     0.006963
Rotational constants in MHz :   482.824050   293.536993   208.752308

                             ****ORCA TERMINATED NORMALLY****
TOTAL RUN TIME: 0 days 0 hours 0 minutes 36 seconds 299 msec
