                         Program Version 4.2.1 -  RELEASE  -
|  1> ! wB97X-D3 SP def2-SVP
|  2> %pal
|  3> nprocs 16
|  4> end
|  5>
|  6> * xyz 0 1
|  7> S 	 37.4412 	 29.4256 	 92.477
|  8> C 	 36.5033 	 30.5026 	 91.4292
|  9> C 	 35.901 	 29.8038 	 90.4269
| 10> C 	 36.1268 	 28.4183 	 90.5039
| 11> C 	 36.9678 	 28.0357 	 91.5162
| 12> H 	 35.5416 	 27.6192 	 90.0845
| 13> C 	 34.7333 	 30.3672 	 89.4934
| 14> H 	 34.8066 	 31.4625 	 89.5875
| 15> H 	 33.8107 	 29.9677 	 89.8956
| 16> C 	 34.8149 	 30.0583 	 87.978
| 17> H 	 34.5773 	 28.9407 	 87.8932
| 18> H 	 33.9774 	 30.4494 	 87.5039
| 19> C 	 36.1919 	 30.3767 	 87.2816
| 20> H 	 36.8994 	 29.6622 	 87.7817
| 21> H 	 36.2867 	 30.1811 	 86.2319
| 22> H 	 36.6439 	 31.3381 	 87.3544
| 23> S 	 37.5033 	 26.4948 	 93.7528
| 24> C 	 37.8204 	 24.794 	 93.5685
| 25> C 	 37.7588 	 24.3885 	 92.2693
| 26> C 	 37.5721 	 25.4839 	 91.3374
| 27> C 	 37.3817 	 26.712 	 92.0101
| 28> H 	 37.9576 	 23.3838 	 92.0891
| 29> C 	 37.6559 	 25.3234 	 89.8758
| 30> H 	 37.045 	 25.9273 	 89.2566
| 31> H 	 37.4686 	 24.2482 	 89.7644
| 32> C 	 39.0862 	 25.4814 	 89.3987
| 33> H 	 39.7131 	 24.7791 	 89.8893
| 34> H 	 39.3706 	 26.4328 	 89.7052
| 35> C 	 39.1786 	 25.4107 	 87.9061
| 36> H 	 40.2445 	 25.3975 	 87.6662
| 37> H 	 38.7233 	 26.088 	 87.1712
| 38> H 	 38.933 	 24.4061 	 87.5766
| 39> H 	 36.3969 	 31.5531 	 91.6457
| 40> H 	 38.1031 	 24.2031 	 94.4723
| 41> *
| 42>
| 43>                          ****END OF INPUT****

CARTESIAN COORDINATES (ANGSTROEM)
---------------------------------
  S     37.441200   29.425600   92.477000
  C     36.503300   30.502600   91.429200
  C     35.901000   29.803800   90.426900
  C     36.126800   28.418300   90.503900
  C     36.967800   28.035700   91.516200
  H     35.541600   27.619200   90.084500
  C     34.733300   30.367200   89.493400
  H     34.806600   31.462500   89.587500
  H     33.810700   29.967700   89.895600
  C     34.814900   30.058300   87.978000
  H     34.577300   28.940700   87.893200
  H     33.977400   30.449400   87.503900
  C     36.191900   30.376700   87.281600
  H     36.899400   29.662200   87.781700
  H     36.286700   30.181100   86.231900
  H     36.643900   31.338100   87.354400
  S     37.503300   26.494800   93.752800
  C     37.820400   24.794000   93.568500
  C     37.758800   24.388500   92.269300
  C     37.572100   25.483900   91.337400
  C     37.381700   26.712000   92.010100
  H     37.957600   23.383800   92.089100
  C     37.655900   25.323400   89.875800
  H     37.045000   25.927300   89.256600
  H     37.468600   24.248200   89.764400
  C     39.086200   25.481400   89.398700
  H     39.713100   24.779100   89.889300
  H     39.370600   26.432800   89.705200
  C     39.178600   25.410700   87.906100
  H     40.244500   25.397500   87.666200
  H     38.723300   26.088000   87.171200
  H     38.933000   24.406100   87.576600
  H     36.396900   31.553100   91.645700
  H     38.103100   24.203100   94.472300

 Total Charge           Charge          ....    0
 Multiplicity           Mult            ....    1
 Number of Electrons    NEL             ....  134
 Basis Dimension        Dim             ....  322

ORBITAL ENERGIES
----------------

  NO   OCC          E(Eh)            E(eV)
   0   2.0000     -88.963512     -2420.8202
   1   2.0000     -88.962704     -2420.7982
   2   2.0000     -10.330676      -281.1120
   3   2.0000     -10.328916      -281.0641
   4   2.0000     -10.320000      -280.8215
   5   2.0000     -10.314075      -280.6602
   6   2.0000     -10.307257      -280.4747
   7   2.0000     -10.302670      -280.3499
   8   2.0000     -10.300544      -280.2921
   9   2.0000     -10.293510      -280.1007
  10   2.0000     -10.293351      -280.0963
  11   2.0000     -10.289164      -279.9824
  12   2.0000     -10.282147      -279.7915
  13   2.0000     -10.278270      -279.6859
  14   2.0000     -10.273297      -279.5506
  15   2.0000     -10.273162      -279.5469
  16   2.0000      -8.078591      -219.8296
  17   2.0000      -8.077501      -219.8000
  18   2.0000      -6.037092      -164.2776
  19   2.0000      -6.036046      -164.2492
  20   2.0000      -6.033033      -164.1672
  21   2.0000      -6.032021      -164.1396
  22   2.0000      -6.029354      -164.0671
  23   2.0000      -6.028194      -164.0355
  24   2.0000      -1.007044       -27.4031
  25   2.0000      -0.984757       -26.7966
  26   2.0000      -0.922489       -25.1022
  27   2.0000      -0.901529       -24.5318
  28   2.0000      -0.868258       -23.6265
  29   2.0000      -0.855095       -23.2683
  30   2.0000      -0.840617       -22.8744
  31   2.0000      -0.816953       -22.2304
  32   2.0000      -0.785768       -21.3818
  33   2.0000      -0.774208       -21.0673
  34   2.0000      -0.711003       -19.3474
  35   2.0000      -0.701248       -19.0819
  36   2.0000      -0.692612       -18.8469
  37   2.0000      -0.664464       -18.0810
  38   2.0000      -0.642241       -17.4763
  39   2.0000      -0.622963       -16.9517
  40   2.0000      -0.602885       -16.4053
  41   2.0000      -0.576464       -15.6864
  42   2.0000      -0.560161       -15.2428
  43   2.0000      -0.551003       -14.9935
  44   2.0000      -0.538531       -14.6542
  45   2.0000      -0.524308       -14.2671
  46   2.0000      -0.515807       -14.0358
  47   2.0000      -0.511955       -13.9310
  48   2.0000      -0.506799       -13.7907
  49   2.0000      -0.498034       -13.5522
  50   2.0000      -0.487002       -13.2520
  51   2.0000      -0.485284       -13.2052
  52   2.0000      -0.470113       -12.7924
  53   2.0000      -0.464611       -12.6427
  54   2.0000      -0.457315       -12.4442
  55   2.0000      -0.451486       -12.2856
  56   2.0000      -0.446120       -12.1395
  57   2.0000      -0.441273       -12.0076
  58   2.0000      -0.436906       -11.8888
  59   2.0000      -0.422320       -11.4919
  60   2.0000      -0.419031       -11.4024
  61   2.0000      -0.411588       -11.1999
  62   2.0000      -0.406303       -11.0561
  63   2.0000      -0.356568        -9.7027
  64   2.0000      -0.334372        -9.0987
  65   2.0000      -0.328425        -8.9369
  66   2.0000      -0.286330        -7.7914
  67   0.0000       0.022156         0.6029
  68   0.0000       0.080769         2.1978
  69   0.0000       0.102923         2.8007
  70   0.0000       0.120976         3.2919
  71   0.0000       0.129699         3.5293

MULLIKEN ATOMIC CHARGES
-----------------------
   0 S :    0.082776
   1 C :   -0.129554
   2 C :   -0.064765
   3 C :    0.004292
   4 C :   -0.138049
   5 H :    0.025096
   6 C :    0.049601
   7 H :    0.024981
   8 H :    0.047766
   9 C :   -0.060527
  10 H :    0.025349
  11 H :    0.016916
  12 C :   -0.056246
  13 H :    0.041858
  14 H :    0.028706
  15 H :    0.029451
  16 S :    0.093186
  17 C :   -0.111719
  18 C :   -0.001916
  19 C :   -0.062202
  20 C :   -0.125097
  21 H :   -0.003726
  22 C :    0.092235
  23 H :    0.010644
  24 H :    0.010630
  25 C :   -0.018585
  26 H :    0.013868
  27 H :    0.010847
  28 C :   -0.032980
  29 H :    0.019567
  30 H :    0.045793
  31 H :    0.005994
  32 H :    0.048411
  33 H :    0.077398
Sum of atomic charges:    0.0000000

LOEWDIN ATOMIC CHARGES
----------------------
   0 S :    0.385584
   1 C :   -0.185118
   2 C :   -0.066018
   3 C :   -0.077964
   4 C :   -0.177108
   5 H :    0.033039
   6 C :   -0.019046
   7 H :    0.027608
   8 H :    0.033883
   9 C :   -0.040895
  10 H :    0.029082
  11 H :    0.013122
  12 C :   -0.072713
  13 H :    0.035720
  14 H :    0.024283
  15 H :    0.021722
  16 S :    0.397957
  17 C :   -0.184821
  18 C :   -0.068808
  19 C :   -0.047649
  20 C :   -0.201291
  21 H :    0.023120
  22 C :   -0.029483
  23 H :    0.022854
  24 H :    0.032708
  25 C :   -0.024093
  26 H :    0.023181
  27 H :    0.016719
  28 C :   -0.072617
  29 H :    0.029703
  30 H :    0.030398
  31 H :    0.021093
  32 H :    0.027023
  33 H :    0.038825

  Mayer bond orders larger than 0.100000
B(  0-S ,  1-C ) :   1.1257 B(  0-S ,  4-C ) :   1.1489 B(  1-C ,  2-C ) :   1.6390
B(  1-C , 32-H ) :   0.9715 B(  2-C ,  3-C ) :   1.2165 B(  2-C ,  6-C ) :   1.0010
B(  3-C ,  4-C ) :   1.6097 B(  3-C ,  5-H ) :   0.9847 B(  4-C , 20-C ) :   1.0430
B(  6-C ,  7-H ) :   0.9465 B(  6-C ,  8-H ) :   0.9500 B(  6-C ,  9-C ) :   1.0732
B(  9-C , 10-H ) :   0.9539 B(  9-C , 11-H ) :   0.9593 B(  9-C , 12-C ) :   1.0553
B( 12-C , 13-H ) :   0.9716 B( 12-C , 14-H ) :   0.9775 B( 12-C , 15-H ) :   0.9808
B( 16-S , 17-C ) :   1.1586 B( 16-S , 20-C ) :   1.1364 B( 17-C , 18-C ) :   1.6109
B( 17-C , 33-H ) :   0.9610 B( 18-C , 19-C ) :   1.2276 B( 18-C , 21-H ) :   1.0021
B( 19-C , 20-C ) :   1.5779 B( 19-C , 22-C ) :   1.0655 B( 22-C , 23-H ) :   0.9375
B( 22-C , 24-H ) :   0.9167 B( 22-C , 25-C ) :   1.0737 B( 25-C , 26-H ) :   0.9472
B( 25-C , 27-H ) :   0.9525 B( 25-C , 28-C ) :   1.0916 B( 28-C , 29-H ) :   0.9672
B( 28-C , 30-H ) :   0.9749 B( 28-C , 31-H ) :   0.9666

Dispersion correction           -0.014251892
FINAL SINGLE POINT ENERGY     -1339.864423320172

DIPOLE MOMENT
-------------
                                X             Y             Z
Electronic contribution:      1.20999       0.95452      29.72384
Nuclear contribution   :     -1.37969      -1.23089     -30.19597
                        -----------------------------------------
Total Dipole Moment    :     -0.16970      -0.27636      -0.47214
                        -----------------------------------------
Magnitude (a.u.)       :      0.57279
Magnitude (Debye)      :      1.45591

Rotational constants in cm-1:     0.017550     0.009661     0.006925
Rotational constants in MHz :   526.135152   289.624766   207.603538

                             ****ORCA TERMINATED NORMALLY****
TOTAL RUN TIME: 0 days 0 hours 0 minutes 30 seconds 697 msec
