                         Program Version 4.2.1 -  RELEASE  -
|  1> ! wB97X-D3 SP def2-SVP
|  2> %pal
|  3> nprocs 16
|  4> end
|  5>
|  6> * xyz 0 1
|  7> S 	 -38.6134 	 43.8036 	 97.162
|  8> C 	 -39.7535 	 44.264 	 98.4048
|  9> C 	 -39.4447 	 43.6719 	 99.5853
| 10> C 	 -38.2524 	 42.8908 	 99.4763
| 11> C 	 -37.6625 	 42.8994 	 98.2488
| 12> H 	 -37.8118 	 42.2379 	 100.21
| 13> C 	 -40.2987 	 43.6152 	 100.862
| 14> H 	 -39.831 	 42.7754 	 101.464
| 15> H 	 -41.3476 	 43.3571 	 100.545
| 16> C 	 -40.2656 	 44.9983 	 101.551
| 17> H 	 -39.2477 	 45.3389 	 101.631
| 18> H 	 -40.7524 	 45.8082 	 100.999
| 19> C 	 -40.9312 	 44.8478 	 102.953
| 20> H 	 -41.9354 	 44.4696 	 102.995
| 21> H 	 -40.3207 	 44.1939 	 103.567
| 22> H 	 -41.0712 	 45.8595 	 103.36
| 23> S 	 -35.0416 	 43.2956 	 97.6525
| 24> C 	 -33.9462 	 41.8911 	 97.4669
| 25> C 	 -34.735 	 40.7458 	 97.2467
| 26> C 	 -36.0911 	 40.9237 	 97.664
| 27> C 	 -36.4799 	 42.2682 	 97.8091
| 28> H 	 -34.3235 	 39.8193 	 96.8699
| 29> C 	 -37.0259 	 39.7707 	 97.8112
| 30> H 	 -38.0783 	 40.1411 	 98.0318
| 31> H 	 -36.8663 	 39.2845 	 98.7322
| 32> C 	 -37.0239 	 38.8385 	 96.5653
| 33> H 	 -36.1859 	 38.2086 	 96.6478
| 34> H 	 -37.1043 	 39.3878 	 95.6314
| 35> C 	 -38.2494 	 37.8986 	 96.4383
| 36> H 	 -38.125 	 37.2881 	 95.5071
| 37> H 	 -39.222 	 38.4044 	 96.3497
| 38> H 	 -38.1887 	 37.182 	 97.2603
| 39> H 	 -40.5799 	 44.9387 	 98.3293
| 40> H 	 -32.9007 	 41.9949 	 97.3163
| 41> *
| 42>
| 43>                          ****END OF INPUT****

CARTESIAN COORDINATES (ANGSTROEM)
---------------------------------
  S    -38.613400   43.803600   97.162000
  C    -39.753500   44.264000   98.404800
  C    -39.444700   43.671900   99.585300
  C    -38.252400   42.890800   99.476300
  C    -37.662500   42.899400   98.248800
  H    -37.811800   42.237900  100.210000
  C    -40.298700   43.615200  100.862000
  H    -39.831000   42.775400  101.464000
  H    -41.347600   43.357100  100.545000
  C    -40.265600   44.998300  101.551000
  H    -39.247700   45.338900  101.631000
  H    -40.752400   45.808200  100.999000
  C    -40.931200   44.847800  102.953000
  H    -41.935400   44.469600  102.995000
  H    -40.320700   44.193900  103.567000
  H    -41.071200   45.859500  103.360000
  S    -35.041600   43.295600   97.652500
  C    -33.946200   41.891100   97.466900
  C    -34.735000   40.745800   97.246700
  C    -36.091100   40.923700   97.664000
  C    -36.479900   42.268200   97.809100
  H    -34.323500   39.819300   96.869900
  C    -37.025900   39.770700   97.811200
  H    -38.078300   40.141100   98.031800
  H    -36.866300   39.284500   98.732200
  C    -37.023900   38.838500   96.565300
  H    -36.185900   38.208600   96.647800
  H    -37.104300   39.387800   95.631400
  C    -38.249400   37.898600   96.438300
  H    -38.125000   37.288100   95.507100
  H    -39.222000   38.404400   96.349700
  H    -38.188700   37.182000   97.260300
  H    -40.579900   44.938700   98.329300
  H    -32.900700   41.994900   97.316300

 Total Charge           Charge          ....    0
 Multiplicity           Mult            ....    1
 Number of Electrons    NEL             ....  134
 Basis Dimension        Dim             ....  322

ORBITAL ENERGIES
----------------

  NO   OCC          E(Eh)            E(eV)
   0   2.0000     -88.961475     -2420.7648
   1   2.0000     -88.961267     -2420.7591
   2   2.0000     -10.323887      -280.9272
   3   2.0000     -10.323521      -280.9173
   4   2.0000     -10.317627      -280.7569
   5   2.0000     -10.307214      -280.4736
   6   2.0000     -10.305518      -280.4274
   7   2.0000     -10.302210      -280.3374
   8   2.0000     -10.299102      -280.2528
   9   2.0000     -10.294576      -280.1297
  10   2.0000     -10.289528      -279.9923
  11   2.0000     -10.288792      -279.9723
  12   2.0000     -10.286638      -279.9137
  13   2.0000     -10.285188      -279.8742
  14   2.0000     -10.281403      -279.7712
  15   2.0000     -10.276607      -279.6407
  16   2.0000      -8.077304      -219.7946
  17   2.0000      -8.075228      -219.7381
  18   2.0000      -6.035736      -164.2407
  19   2.0000      -6.033870      -164.1899
  20   2.0000      -6.031600      -164.1282
  21   2.0000      -6.029797      -164.0791
  22   2.0000      -6.028116      -164.0334
  23   2.0000      -6.025921      -163.9736
  24   2.0000      -1.011119       -27.5139
  25   2.0000      -0.980582       -26.6830
  26   2.0000      -0.910216       -24.7682
  27   2.0000      -0.905560       -24.6416
  28   2.0000      -0.872239       -23.7348
  29   2.0000      -0.847949       -23.0739
  30   2.0000      -0.844174       -22.9711
  31   2.0000      -0.812710       -22.1150
  32   2.0000      -0.779089       -21.2001
  33   2.0000      -0.767972       -20.8976
  34   2.0000      -0.706455       -19.2236
  35   2.0000      -0.704012       -19.1571
  36   2.0000      -0.700681       -19.0665
  37   2.0000      -0.657952       -17.9038
  38   2.0000      -0.644816       -17.5463
  39   2.0000      -0.614007       -16.7080
  40   2.0000      -0.597401       -16.2561
  41   2.0000      -0.572982       -15.5916
  42   2.0000      -0.568546       -15.4709
  43   2.0000      -0.559760       -15.2319
  44   2.0000      -0.527336       -14.3495
  45   2.0000      -0.525087       -14.2883
  46   2.0000      -0.517404       -14.0793
  47   2.0000      -0.511336       -13.9142
  48   2.0000      -0.508230       -13.8296
  49   2.0000      -0.500159       -13.6100
  50   2.0000      -0.489233       -13.3127
  51   2.0000      -0.477763       -13.0006
  52   2.0000      -0.470964       -12.8156
  53   2.0000      -0.466506       -12.6943
  54   2.0000      -0.459735       -12.5100
  55   2.0000      -0.451710       -12.2916
  56   2.0000      -0.441802       -12.0220
  57   2.0000      -0.432614       -11.7720
  58   2.0000      -0.430736       -11.7209
  59   2.0000      -0.426944       -11.6177
  60   2.0000      -0.418948       -11.4002
  61   2.0000      -0.412482       -11.2242
  62   2.0000      -0.407627       -11.0921
  63   2.0000      -0.336190        -9.1482
  64   2.0000      -0.326715        -8.8904
  65   2.0000      -0.319371        -8.6905
  66   2.0000      -0.302995        -8.2449
  67   0.0000       0.039298         1.0694
  68   0.0000       0.056905         1.5485
  69   0.0000       0.112878         3.0716
  70   0.0000       0.119318         3.2468
  71   0.0000       0.129917         3.5352

MULLIKEN ATOMIC CHARGES
-----------------------
   0 S :    0.118652
   1 C :   -0.110030
   2 C :   -0.086201
   3 C :    0.042662
   4 C :   -0.178650
   5 H :   -0.001074
   6 C :    0.042050
   7 H :    0.040306
   8 H :    0.046630
   9 C :   -0.085098
  10 H :    0.033428
  11 H :    0.031602
  12 C :   -0.031138
  13 H :    0.022576
  14 H :    0.031855
  15 H :    0.029806
  16 S :    0.094545
  17 C :   -0.088683
  18 C :   -0.028305
  19 C :   -0.033350
  20 C :   -0.153631
  21 H :    0.026432
  22 C :    0.075348
  23 H :    0.024284
  24 H :    0.019849
  25 C :   -0.080066
  26 H :    0.027351
  27 H :    0.043926
  28 C :   -0.071618
  29 H :    0.035311
  30 H :    0.046695
  31 H :    0.026329
  32 H :    0.031240
  33 H :    0.056964
Sum of atomic charges:    0.0000000

LOEWDIN ATOMIC CHARGES
----------------------
   0 S :    0.428038
   1 C :   -0.197534
   2 C :   -0.068465
   3 C :   -0.064762
   4 C :   -0.218595
   5 H :    0.027952
   6 C :   -0.029720
   7 H :    0.037739
   8 H :    0.037198
   9 C :   -0.037944
  10 H :    0.025292
  11 H :    0.024458
  12 C :   -0.066835
  13 H :    0.021424
  14 H :    0.023653
  15 H :    0.027022
  16 S :    0.384095
  17 C :   -0.161683
  18 C :   -0.066739
  19 C :   -0.047686
  20 C :   -0.204254
  21 H :    0.030750
  22 C :   -0.037370
  23 H :    0.036411
  24 H :    0.026126
  25 C :   -0.034172
  26 H :    0.017264
  27 H :    0.030403
  28 C :   -0.066924
  29 H :    0.030480
  30 H :    0.026614
  31 H :    0.020447
  32 H :    0.024753
  33 H :    0.022562

  Mayer bond orders larger than 0.100000
B(  0-S ,  1-C ) :   1.1380 B(  0-S ,  4-C ) :   1.1628 B(  1-C ,  2-C ) :   1.6256
B(  1-C , 32-H ) :   0.9711 B(  2-C ,  3-C ) :   1.2356 B(  2-C ,  6-C ) :   0.9977
B(  3-C ,  4-C ) :   1.5948 B(  3-C ,  5-H ) :   0.9992 B(  4-C , 20-C ) :   1.0151
B(  6-C ,  7-H ) :   0.9511 B(  6-C ,  8-H ) :   0.9429 B(  6-C ,  9-C ) :   1.0532
B(  9-C , 10-H ) :   0.9584 B(  9-C , 11-H ) :   0.9588 B(  9-C , 12-C ) :   1.0793
B( 12-C , 13-H ) :   0.9741 B( 12-C , 14-H ) :   0.9774 B( 12-C , 15-H ) :   0.9744
B( 16-S , 17-C ) :   1.1638 B( 16-S , 20-C ) :   1.1275 B( 17-C , 18-C ) :   1.5860
B( 17-C , 20-C ) :   0.1136 B( 17-C , 33-H ) :   0.9729 B( 18-C , 19-C ) :   1.2331
B( 18-C , 21-H ) :   0.9884 B( 19-C , 20-C ) :   1.5979 B( 19-C , 22-C ) :   1.0566
B( 22-C , 23-H ) :   0.9357 B( 22-C , 24-H ) :   0.9221 B( 22-C , 25-C ) :   1.0489
B( 25-C , 26-H ) :   0.9502 B( 25-C , 27-H ) :   0.9654 B( 25-C , 28-C ) :   1.0930
B( 28-C , 29-H ) :   0.9752 B( 28-C , 30-H ) :   0.9762 B( 28-C , 31-H ) :   0.9754

Dispersion correction           -0.013639120
FINAL SINGLE POINT ENERGY     -1339.867619482575

DIPOLE MOMENT
-------------
                                X             Y             Z
Electronic contribution:     14.99906      12.12346     -12.80483
Nuclear contribution   :    -15.21631     -12.61947      13.11789
                        -----------------------------------------
Total Dipole Moment    :     -0.21725      -0.49600       0.31305
                        -----------------------------------------
Magnitude (a.u.)       :      0.62548
Magnitude (Debye)      :      1.58984

Rotational constants in cm-1:     0.019599     0.007295     0.006317
Rotational constants in MHz :   587.548785   218.686262   189.366167

                             ****ORCA TERMINATED NORMALLY****
TOTAL RUN TIME: 0 days 0 hours 0 minutes 28 seconds 878 msec
