                         Program Version 4.2.1 -  RELEASE  -
|  1> ! wB97X-D3 SP def2-SVP
|  2> %pal
|  3> nprocs 16
|  4> end
|  5>
|  6> * xyz 0 1
|  7> S 	 -49.403 	 58.0997 	 130.425
|  8> C 	 -49.185 	 57.5497 	 132.083
|  9> C 	 -49.0608 	 58.6643 	 132.897
| 10> C 	 -49.4416 	 59.8504 	 132.239
| 11> C 	 -49.4814 	 59.776 	 130.877
| 12> H 	 -49.5568 	 60.8179 	 132.727
| 13> C 	 -48.7782 	 58.5083 	 134.399
| 14> H 	 -49.6414 	 59.0461 	 134.869
| 15> H 	 -47.9423 	 59.183 	 134.654
| 16> C 	 -48.7122 	 57.0657 	 135.029
| 17> H 	 -49.5475 	 56.5691 	 134.696
| 18> H 	 -47.8079 	 56.538 	 134.773
| 19> C 	 -48.8651 	 57.006 	 136.498
| 20> H 	 -49.6241 	 57.6888 	 136.846
| 21> H 	 -49.2491 	 56.0089 	 136.856
| 22> H 	 -47.9951 	 57.3412 	 137.032
| 23> S 	 -49.0929 	 60.9897 	 128.441
| 24> C 	 -50.0777 	 62.3629 	 127.946
| 25> C 	 -50.7685 	 62.8422 	 128.978
| 26> C 	 -50.6845 	 61.9728 	 130.184
| 27> C 	 -49.8735 	 60.8531 	 129.972
| 28> H 	 -51.4254 	 63.6378 	 128.908
| 29> C 	 -51.4829 	 62.3211 	 131.407
| 30> H 	 -51.5857 	 61.4376 	 131.973
| 31> H 	 -52.4775 	 62.6085 	 131.068
| 32> C 	 -51.142 	 63.5111 	 132.235
| 33> H 	 -50.9118 	 64.3166 	 131.502
| 34> H 	 -50.168 	 63.3446 	 132.74
| 35> C 	 -52.1561 	 63.8718 	 133.277
| 36> H 	 -51.7926 	 64.7314 	 133.944
| 37> H 	 -52.3223 	 63.041 	 133.969
| 38> H 	 -53.2083 	 64.0773 	 132.909
| 39> H 	 -49.262 	 56.4647 	 132.228
| 40> H 	 -50.0651 	 62.8979 	 126.93
| 41> *
| 42>
| 43>                          ****END OF INPUT****

CARTESIAN COORDINATES (ANGSTROEM)
---------------------------------
  S    -49.403000   58.099700  130.425000
  C    -49.185000   57.549700  132.083000
  C    -49.060800   58.664300  132.897000
  C    -49.441600   59.850400  132.239000
  C    -49.481400   59.776000  130.877000
  H    -49.556800   60.817900  132.727000
  C    -48.778200   58.508300  134.399000
  H    -49.641400   59.046100  134.869000
  H    -47.942300   59.183000  134.654000
  C    -48.712200   57.065700  135.029000
  H    -49.547500   56.569100  134.696000
  H    -47.807900   56.538000  134.773000
  C    -48.865100   57.006000  136.498000
  H    -49.624100   57.688800  136.846000
  H    -49.249100   56.008900  136.856000
  H    -47.995100   57.341200  137.032000
  S    -49.092900   60.989700  128.441000
  C    -50.077700   62.362900  127.946000
  C    -50.768500   62.842200  128.978000
  C    -50.684500   61.972800  130.184000
  C    -49.873500   60.853100  129.972000
  H    -51.425400   63.637800  128.908000
  C    -51.482900   62.321100  131.407000
  H    -51.585700   61.437600  131.973000
  H    -52.477500   62.608500  131.068000
  C    -51.142000   63.511100  132.235000
  H    -50.911800   64.316600  131.502000
  H    -50.168000   63.344600  132.740000
  C    -52.156100   63.871800  133.277000
  H    -51.792600   64.731400  133.944000
  H    -52.322300   63.041000  133.969000
  H    -53.208300   64.077300  132.909000
  H    -49.262000   56.464700  132.228000
  H    -50.065100   62.897900  126.930000

 Total Charge           Charge          ....    0
 Multiplicity           Mult            ....    1
 Number of Electrons    NEL             ....  134
 Basis Dimension        Dim             ....  322

ORBITAL ENERGIES
----------------

  NO   OCC          E(Eh)            E(eV)
   0   2.0000     -88.961292     -2420.7598
   1   2.0000     -88.961226     -2420.7580
   2   2.0000     -10.328819      -281.0614
   3   2.0000     -10.328650      -281.0569
   4   2.0000     -10.319525      -280.8085
   5   2.0000     -10.318392      -280.7777
   6   2.0000     -10.306970      -280.4669
   7   2.0000     -10.306194      -280.4458
   8   2.0000     -10.302147      -280.3357
   9   2.0000     -10.293794      -280.1084
  10   2.0000     -10.290522      -280.0193
  11   2.0000     -10.288866      -279.9743
  12   2.0000     -10.288628      -279.9678
  13   2.0000     -10.283618      -279.8315
  14   2.0000     -10.282529      -279.8018
  15   2.0000     -10.277438      -279.6633
  16   2.0000      -8.076673      -219.7774
  17   2.0000      -8.076445      -219.7712
  18   2.0000      -6.035436      -164.2326
  19   2.0000      -6.034952      -164.2194
  20   2.0000      -6.031125      -164.1153
  21   2.0000      -6.030798      -164.1064
  22   2.0000      -6.027250      -164.0098
  23   2.0000      -6.027070      -164.0049
  24   2.0000      -1.010619       -27.5004
  25   2.0000      -0.987746       -26.8779
  26   2.0000      -0.919747       -25.0276
  27   2.0000      -0.914449       -24.8834
  28   2.0000      -0.876965       -23.8634
  29   2.0000      -0.855213       -23.2715
  30   2.0000      -0.847037       -23.0490
  31   2.0000      -0.821820       -22.3628
  32   2.0000      -0.781794       -21.2737
  33   2.0000      -0.769240       -20.9321
  34   2.0000      -0.713230       -19.4080
  35   2.0000      -0.702441       -19.1144
  36   2.0000      -0.689759       -18.7693
  37   2.0000      -0.665979       -18.1222
  38   2.0000      -0.643394       -17.5077
  39   2.0000      -0.618221       -16.8227
  40   2.0000      -0.595998       -16.2179
  41   2.0000      -0.580163       -15.7870
  42   2.0000      -0.572585       -15.5808
  43   2.0000      -0.565227       -15.3806
  44   2.0000      -0.529544       -14.4096
  45   2.0000      -0.526711       -14.3325
  46   2.0000      -0.525235       -14.2924
  47   2.0000      -0.517559       -14.0835
  48   2.0000      -0.506573       -13.7846
  49   2.0000      -0.503668       -13.7055
  50   2.0000      -0.486586       -13.2407
  51   2.0000      -0.484409       -13.1814
  52   2.0000      -0.476471       -12.9654
  53   2.0000      -0.464203       -12.6316
  54   2.0000      -0.461012       -12.5448
  55   2.0000      -0.453545       -12.3416
  56   2.0000      -0.441772       -12.0212
  57   2.0000      -0.434167       -11.8143
  58   2.0000      -0.432911       -11.7801
  59   2.0000      -0.426522       -11.6062
  60   2.0000      -0.420981       -11.4555
  61   2.0000      -0.414424       -11.2771
  62   2.0000      -0.412602       -11.2275
  63   2.0000      -0.358881        -9.7657
  64   2.0000      -0.329824        -8.9750
  65   2.0000      -0.323759        -8.8099
  66   2.0000      -0.290505        -7.9050
  67   0.0000       0.028965         0.7882
  68   0.0000       0.080991         2.2039
  69   0.0000       0.112146         3.0516
  70   0.0000       0.120170         3.2700
  71   0.0000       0.126465         3.4413

MULLIKEN ATOMIC CHARGES
-----------------------
   0 S :    0.096712
   1 C :   -0.170945
   2 C :   -0.051291
   3 C :   -0.027027
   4 C :   -0.097930
   5 H :    0.014680
   6 C :    0.025013
   7 H :    0.026468
   8 H :    0.039334
   9 C :   -0.016659
  10 H :    0.011103
  11 H :    0.038945
  12 C :   -0.048631
  13 H :    0.010941
  14 H :    0.040778
  15 H :    0.027820
  16 S :    0.093228
  17 C :   -0.102521
  18 C :    0.008487
  19 C :   -0.068841
  20 C :   -0.118176
  21 H :   -0.006726
  22 C :    0.058152
  23 H :    0.008462
  24 H :    0.008727
  25 C :   -0.054016
  26 H :    0.025717
  27 H :    0.022710
  28 C :   -0.072082
  29 H :    0.051800
  30 H :    0.026948
  31 H :    0.039017
  32 H :    0.075698
  33 H :    0.084104
Sum of atomic charges:   -0.0000000

LOEWDIN ATOMIC CHARGES
----------------------
   0 S :    0.403347
   1 C :   -0.195314
   2 C :   -0.064112
   3 C :   -0.068684
   4 C :   -0.196185
   5 H :    0.032968
   6 C :   -0.034076
   7 H :    0.035459
   8 H :    0.033568
   9 C :   -0.036297
  10 H :    0.017443
  11 H :    0.027379
  12 C :   -0.063390
  13 H :    0.020879
  14 H :    0.035180
  15 H :    0.021436
  16 S :    0.399667
  17 C :   -0.188915
  18 C :   -0.064473
  19 C :   -0.051339
  20 C :   -0.200983
  21 H :    0.018832
  22 C :   -0.040112
  23 H :    0.020575
  24 H :    0.031818
  25 C :   -0.048691
  26 H :    0.027102
  27 H :    0.022838
  28 C :   -0.075521
  29 H :    0.039069
  30 H :    0.025190
  31 H :    0.029606
  32 H :    0.034035
  33 H :    0.051702

  Mayer bond orders larger than 0.100000
B(  0-S ,  1-C ) :   1.1447 B(  0-S ,  4-C ) :   1.1539 B(  1-C ,  2-C ) :   1.5716
B(  1-C ,  4-C ) :   0.1016 B(  1-C , 32-H ) :   0.9677 B(  2-C ,  3-C ) :   1.2636
B(  2-C ,  6-C ) :   1.0108 B(  3-C ,  4-C ) :   1.5719 B(  3-C ,  5-H ) :   0.9908
B(  4-C , 20-C ) :   1.0332 B(  6-C ,  7-H ) :   0.9396 B(  6-C ,  8-H ) :   0.9364
B(  6-C ,  9-C ) :   1.0738 B(  9-C , 10-H ) :   0.9433 B(  9-C , 11-H ) :   0.9518
B(  9-C , 12-C ) :   1.0995 B( 12-C , 13-H ) :   0.9685 B( 12-C , 14-H ) :   0.9735
B( 12-C , 15-H ) :   0.9740 B( 16-S , 17-C ) :   1.1244 B( 16-S , 20-C ) :   1.1280
B( 17-C , 18-C ) :   1.6574 B( 17-C , 33-H ) :   0.9546 B( 18-C , 19-C ) :   1.2001
B( 18-C , 21-H ) :   0.9969 B( 19-C , 20-C ) :   1.6195 B( 19-C , 22-C ) :   1.0601
B( 22-C , 23-H ) :   0.9308 B( 22-C , 24-H ) :   0.9239 B( 22-C , 25-C ) :   1.0669
B( 25-C , 26-H ) :   0.9476 B( 25-C , 27-H ) :   0.9427 B( 25-C , 28-C ) :   1.0858
B( 28-C , 29-H ) :   0.9714 B( 28-C , 30-H ) :   0.9699 B( 28-C , 31-H ) :   0.9713

Dispersion correction           -0.013458136
FINAL SINGLE POINT ENERGY     -1339.865641502012

DIPOLE MOMENT
-------------
                                X             Y             Z
Electronic contribution:      7.16058      -5.26181     -30.16872
Nuclear contribution   :     -7.50786       5.50679      30.88601
                        -----------------------------------------
Total Dipole Moment    :     -0.34727       0.24498       0.71729
                        -----------------------------------------
Magnitude (a.u.)       :      0.83374
Magnitude (Debye)      :      2.11919

Rotational constants in cm-1:     0.018765     0.008016     0.005836
Rotational constants in MHz :   562.575487   240.322537   174.946461

                             ****ORCA TERMINATED NORMALLY****
TOTAL RUN TIME: 0 days 0 hours 0 minutes 34 seconds 11 msec
