                         Program Version 4.2.1 -  RELEASE  -
|  1> ! wB97X-D3 SP def2-SVP
|  2> %pal
|  3> nprocs 16
|  4> end
|  5>
|  6> * xyz 0 1
|  7> S 	 -14.6033 	 -11.2218 	 91.7318
|  8> C 	 -15.9156 	 -9.99903 	 91.4803
|  9> C 	 -15.9233 	 -9.62586 	 90.1336
| 10> C 	 -14.891 	 -10.265 	 89.3585
| 11> C 	 -14.1415 	 -11.1523 	 90.0574
| 12> H 	 -14.6424 	 -10.0141 	 88.3075
| 13> C 	 -16.7812 	 -8.52445 	 89.5142
| 14> H 	 -17.858 	 -8.88818 	 89.4025
| 15> H 	 -16.3521 	 -8.38725 	 88.5244
| 16> C 	 -16.7831 	 -7.2348 	 90.3941
| 17> H 	 -17.4644 	 -7.35499 	 91.2684
| 18> H 	 -15.7931 	 -7.12616 	 90.8421
| 19> C 	 -17.1912 	 -5.92607 	 89.6444
| 20> H 	 -16.402 	 -5.50598 	 88.9849
| 21> H 	 -18.0432 	 -6.12722 	 89.0934
| 22> H 	 -17.2879 	 -5.19922 	 90.4195
| 23> S 	 -11.7356 	 -12.0288 	 90.8356
| 24> C 	 -10.3805 	 -12.3501 	 89.7653
| 25> C 	 -10.8577 	 -12.3144 	 88.4572
| 26> C 	 -12.2028 	 -11.8815 	 88.34
| 27> C 	 -12.8564 	 -11.6566 	 89.5735
| 28> H 	 -10.2226 	 -12.4528 	 87.5637
| 29> C 	 -12.9689 	 -11.6732 	 86.9807
| 30> H 	 -14.0674 	 -11.9953 	 87.1586
| 31> H 	 -12.5296 	 -12.4419 	 86.3055
| 32> C 	 -12.783 	 -10.2645 	 86.3565
| 33> H 	 -11.7365 	 -10.0532 	 86.0838
| 34> H 	 -13.0626 	 -9.54006 	 87.0806
| 35> C 	 -13.6333 	 -10.2 	 85.0821
| 36> H 	 -13.3356 	 -10.9291 	 84.3273
| 37> H 	 -13.4347 	 -9.22243 	 84.5983
| 38> H 	 -14.6706 	 -10.3294 	 85.2832
| 39> H 	 -16.7191 	 -9.70337 	 92.1462
| 40> H 	 -9.39855 	 -12.5575 	 90.1939
| 41> *
| 42>
| 43>                          ****END OF INPUT****

CARTESIAN COORDINATES (ANGSTROEM)
---------------------------------
  S    -14.603300  -11.221800   91.731800
  C    -15.915600   -9.999030   91.480300
  C    -15.923300   -9.625860   90.133600
  C    -14.891000  -10.265000   89.358500
  C    -14.141500  -11.152300   90.057400
  H    -14.642400  -10.014100   88.307500
  C    -16.781200   -8.524450   89.514200
  H    -17.858000   -8.888180   89.402500
  H    -16.352100   -8.387250   88.524400
  C    -16.783100   -7.234800   90.394100
  H    -17.464400   -7.354990   91.268400
  H    -15.793100   -7.126160   90.842100
  C    -17.191200   -5.926070   89.644400
  H    -16.402000   -5.505980   88.984900
  H    -18.043200   -6.127220   89.093400
  H    -17.287900   -5.199220   90.419500
  S    -11.735600  -12.028800   90.835600
  C    -10.380500  -12.350100   89.765300
  C    -10.857700  -12.314400   88.457200
  C    -12.202800  -11.881500   88.340000
  C    -12.856400  -11.656600   89.573500
  H    -10.222600  -12.452800   87.563700
  C    -12.968900  -11.673200   86.980700
  H    -14.067400  -11.995300   87.158600
  H    -12.529600  -12.441900   86.305500
  C    -12.783000  -10.264500   86.356500
  H    -11.736500  -10.053200   86.083800
  H    -13.062600   -9.540060   87.080600
  C    -13.633300  -10.200000   85.082100
  H    -13.335600  -10.929100   84.327300
  H    -13.434700   -9.222430   84.598300
  H    -14.670600  -10.329400   85.283200
  H    -16.719100   -9.703370   92.146200
  H     -9.398550  -12.557500   90.193900

 Total Charge           Charge          ....    0
 Multiplicity           Mult            ....    1
 Number of Electrons    NEL             ....  134
 Basis Dimension        Dim             ....  322

ORBITAL ENERGIES
----------------

  NO   OCC          E(Eh)            E(eV)
   0   2.0000     -88.970132     -2421.0004
   1   2.0000     -88.960555     -2420.7398
   2   2.0000     -10.331617      -281.1376
   3   2.0000     -10.329453      -281.0787
   4   2.0000     -10.321994      -280.8757
   5   2.0000     -10.320158      -280.8258
   6   2.0000     -10.306670      -280.4587
   7   2.0000     -10.305002      -280.4134
   8   2.0000     -10.304913      -280.4109
   9   2.0000     -10.300656      -280.2951
  10   2.0000     -10.300149      -280.2813
  11   2.0000     -10.294264      -280.1212
  12   2.0000     -10.292320      -280.0683
  13   2.0000     -10.290546      -280.0200
  14   2.0000     -10.279508      -279.7196
  15   2.0000     -10.275678      -279.6154
  16   2.0000      -8.083804      -219.9715
  17   2.0000      -8.076004      -219.7592
  18   2.0000      -6.042661      -164.4292
  19   2.0000      -6.038473      -164.3152
  20   2.0000      -6.034468      -164.2062
  21   2.0000      -6.034220      -164.1995
  22   2.0000      -6.030207      -164.0903
  23   2.0000      -6.026965      -164.0020
  24   2.0000      -1.008671       -27.4473
  25   2.0000      -0.981232       -26.7007
  26   2.0000      -0.908158       -24.7122
  27   2.0000      -0.905504       -24.6400
  28   2.0000      -0.867945       -23.6180
  29   2.0000      -0.851834       -23.1796
  30   2.0000      -0.842904       -22.9366
  31   2.0000      -0.814757       -22.1707
  32   2.0000      -0.778023       -21.1711
  33   2.0000      -0.768686       -20.9170
  34   2.0000      -0.711188       -19.3524
  35   2.0000      -0.702850       -19.1255
  36   2.0000      -0.690954       -18.8018
  37   2.0000      -0.666244       -18.1294
  38   2.0000      -0.633866       -17.2484
  39   2.0000      -0.616177       -16.7670
  40   2.0000      -0.592739       -16.1292
  41   2.0000      -0.568048       -15.4574
  42   2.0000      -0.562414       -15.3041
  43   2.0000      -0.556795       -15.1512
  44   2.0000      -0.531737       -14.4693
  45   2.0000      -0.527601       -14.3568
  46   2.0000      -0.521708       -14.1964
  47   2.0000      -0.513006       -13.9596
  48   2.0000      -0.503712       -13.7067
  49   2.0000      -0.499797       -13.6002
  50   2.0000      -0.494193       -13.4477
  51   2.0000      -0.481680       -13.1072
  52   2.0000      -0.472617       -12.8606
  53   2.0000      -0.462276       -12.5792
  54   2.0000      -0.458857       -12.4861
  55   2.0000      -0.450093       -12.2476
  56   2.0000      -0.445340       -12.1183
  57   2.0000      -0.441244       -12.0069
  58   2.0000      -0.435875       -11.8608
  59   2.0000      -0.425367       -11.5748
  60   2.0000      -0.422028       -11.4840
  61   2.0000      -0.414610       -11.2821
  62   2.0000      -0.402693       -10.9578
  63   2.0000      -0.360811        -9.8182
  64   2.0000      -0.336113        -9.1461
  65   2.0000      -0.325020        -8.8442
  66   2.0000      -0.283460        -7.7133
  67   0.0000       0.018616         0.5066
  68   0.0000       0.079584         2.1656
  69   0.0000       0.096641         2.6297
  70   0.0000       0.121131         3.2961
  71   0.0000       0.129922         3.5354

MULLIKEN ATOMIC CHARGES
-----------------------
   0 S :    0.096868
   1 C :   -0.120905
   2 C :   -0.098481
   3 C :   -0.038779
   4 C :   -0.044191
   5 H :    0.009474
   6 C :    0.068886
   7 H :    0.053190
   8 H :    0.019875
   9 C :   -0.129238
  10 H :    0.032883
  11 H :    0.039992
  12 C :   -0.014165
  13 H :    0.037385
  14 H :    0.024949
  15 H :    0.028748
  16 S :    0.070187
  17 C :   -0.107401
  18 C :   -0.011669
  19 C :   -0.066609
  20 C :   -0.132080
  21 H :    0.027825
  22 C :   -0.032178
  23 H :    0.059064
  24 H :    0.028821
  25 C :   -0.048745
  26 H :    0.031430
  27 H :    0.027297
  28 C :   -0.031341
  29 H :    0.030367
  30 H :    0.035394
  31 H :    0.027298
  32 H :    0.053527
  33 H :    0.072321
Sum of atomic charges:   -0.0000000

LOEWDIN ATOMIC CHARGES
----------------------
   0 S :    0.386070
   1 C :   -0.188227
   2 C :   -0.056467
   3 C :   -0.075184
   4 C :   -0.190180
   5 H :    0.035426
   6 C :   -0.036611
   7 H :    0.041767
   8 H :    0.026951
   9 C :   -0.042510
  10 H :    0.025101
  11 H :    0.024430
  12 C :   -0.056937
  13 H :    0.030134
  14 H :    0.014774
  15 H :    0.025739
  16 S :    0.410148
  17 C :   -0.186811
  18 C :   -0.076938
  19 C :   -0.069730
  20 C :   -0.193483
  21 H :    0.036694
  22 C :   -0.041016
  23 H :    0.040876
  24 H :    0.030844
  25 C :   -0.038754
  26 H :    0.030009
  27 H :    0.015436
  28 C :   -0.063059
  29 H :    0.026707
  30 H :    0.029356
  31 H :    0.018951
  32 H :    0.032998
  33 H :    0.033495

  Mayer bond orders larger than 0.100000
B(  0-S ,  1-C ) :   1.1048 B(  0-S ,  4-C ) :   1.1412 B(  1-C ,  2-C ) :   1.6216
B(  1-C , 32-H ) :   0.9687 B(  2-C ,  3-C ) :   1.2442 B(  2-C ,  6-C ) :   1.0233
B(  3-C ,  4-C ) :   1.5749 B(  3-C ,  5-H ) :   0.9806 B(  4-C , 20-C ) :   1.0577
B(  6-C ,  7-H ) :   0.9296 B(  6-C ,  8-H ) :   0.9487 B(  6-C ,  9-C ) :   1.0576
B(  9-C , 10-H ) :   0.9521 B(  9-C , 11-H ) :   0.9641 B(  9-C , 12-C ) :   1.0810
B( 12-C , 13-H ) :   0.9771 B( 12-C , 14-H ) :   0.9764 B( 12-C , 15-H ) :   0.9744
B( 16-S , 17-C ) :   1.1754 B( 16-S , 20-C ) :   1.1552 B( 17-C , 18-C ) :   1.5335
B( 17-C , 20-C ) :   0.1065 B( 17-C , 33-H ) :   0.9748 B( 18-C , 19-C ) :   1.3123
B( 18-C , 21-H ) :   0.9845 B( 19-C , 20-C ) :   1.5399 B( 19-C , 22-C ) :   1.0189
B( 22-C , 23-H ) :   0.9478 B( 22-C , 24-H ) :   0.9381 B( 22-C , 25-C ) :   1.0534
B( 25-C , 26-H ) :   0.9493 B( 25-C , 27-H ) :   0.9533 B( 25-C , 28-C ) :   1.0821
B( 28-C , 29-H ) :   0.9732 B( 28-C , 30-H ) :   0.9733 B( 28-C , 31-H ) :   0.9753

Dispersion correction           -0.013988753
FINAL SINGLE POINT ENERGY     -1339.876987679113

DIPOLE MOMENT
-------------
                                X             Y             Z
Electronic contribution:     12.05857     -19.66779      21.23695
Nuclear contribution   :    -12.16253      20.16890     -21.82546
                        -----------------------------------------
Total Dipole Moment    :     -0.10396       0.50111      -0.58851
                        -----------------------------------------
Magnitude (a.u.)       :      0.77991
Magnitude (Debye)      :      1.98237

Rotational constants in cm-1:     0.017419     0.009051     0.006449
Rotational constants in MHz :   522.211487   271.336270   193.324646

                             ****ORCA TERMINATED NORMALLY****
TOTAL RUN TIME: 0 days 0 hours 0 minutes 31 seconds 594 msec
