                         Program Version 4.2.1 -  RELEASE  -
|  1> ! wB97X-D3 SP def2-SVP
|  2> %pal
|  3> nprocs 16
|  4> end
|  5>
|  6> * xyz 0 1
|  7> S 	 3.26348 	 -24.6663 	 86.3414
|  8> C 	 4.932 	 -24.6513 	 85.663
|  9> C 	 5.49939 	 -23.4029 	 85.761
| 10> C 	 4.59292 	 -22.4474 	 86.3053
| 11> C 	 3.39321 	 -22.9853 	 86.877
| 12> H 	 4.88928 	 -21.453 	 86.4525
| 13> C 	 6.9678 	 -23.0652 	 85.4632
| 14> H 	 7.12703 	 -22.7423 	 84.456
| 15> H 	 7.51808 	 -23.9681 	 85.5374
| 16> C 	 7.60179 	 -22.0327 	 86.3741
| 17> H 	 8.71189 	 -21.9435 	 86.114
| 18> H 	 7.15787 	 -21.0134 	 86.0086
| 19> C 	 7.65601 	 -22.2162 	 87.8671
| 20> H 	 8.33871 	 -22.9988 	 88.1984
| 21> H 	 7.83492 	 -21.2589 	 88.3697
| 22> H 	 6.64483 	 -22.5883 	 88.1546
| 23> S 	 1.75776 	 -22.9274 	 89.1273
| 24> C 	 0.499987 	 -21.7432 	 89.1506
| 25> C 	 0.482402 	 -20.9144 	 88.0448
| 26> C 	 1.60951 	 -21.1273 	 87.1927
| 27> C 	 2.26946 	 -22.2964 	 87.5224
| 28> H 	 -0.216971 	 -20.0286 	 87.892
| 29> C 	 1.83129 	 -20.341 	 85.9215
| 30> H 	 2.8199 	 -20.2139 	 85.6237
| 31> H 	 1.59606 	 -19.2473 	 86.1656
| 32> C 	 1.03401 	 -20.6547 	 84.6788
| 33> H 	 1.21274 	 -19.9221 	 83.9415
| 34> H 	 -0.00646654 	 -20.5245 	 84.9067
| 35> C 	 1.31345 	 -22.0294 	 83.997
| 36> H 	 0.734512 	 -22.0474 	 83.1313
| 37> H 	 0.96519 	 -22.8462 	 84.5836
| 38> H 	 2.32308 	 -22.3194 	 83.7326
| 39> H 	 5.39127 	 -25.4629 	 85.2251
| 40> H 	 -0.161762 	 -21.6427 	 90.0035
| 41> *
| 42>
| 43>                          ****END OF INPUT****

CARTESIAN COORDINATES (ANGSTROEM)
---------------------------------
  S      3.263480  -24.666300   86.341400
  C      4.932000  -24.651300   85.663000
  C      5.499390  -23.402900   85.761000
  C      4.592920  -22.447400   86.305300
  C      3.393210  -22.985300   86.877000
  H      4.889280  -21.453000   86.452500
  C      6.967800  -23.065200   85.463200
  H      7.127030  -22.742300   84.456000
  H      7.518080  -23.968100   85.537400
  C      7.601790  -22.032700   86.374100
  H      8.711890  -21.943500   86.114000
  H      7.157870  -21.013400   86.008600
  C      7.656010  -22.216200   87.867100
  H      8.338710  -22.998800   88.198400
  H      7.834920  -21.258900   88.369700
  H      6.644830  -22.588300   88.154600
  S      1.757760  -22.927400   89.127300
  C      0.499987  -21.743200   89.150600
  C      0.482402  -20.914400   88.044800
  C      1.609510  -21.127300   87.192700
  C      2.269460  -22.296400   87.522400
  H     -0.216971  -20.028600   87.892000
  C      1.831290  -20.341000   85.921500
  H      2.819900  -20.213900   85.623700
  H      1.596060  -19.247300   86.165600
  C      1.034010  -20.654700   84.678800
  H      1.212740  -19.922100   83.941500
  H     -0.006467  -20.524500   84.906700
  C      1.313450  -22.029400   83.997000
  H      0.734512  -22.047400   83.131300
  H      0.965190  -22.846200   84.583600
  H      2.323080  -22.319400   83.732600
  H      5.391270  -25.462900   85.225100
  H     -0.161762  -21.642700   90.003500

 Total Charge           Charge          ....    0
 Multiplicity           Mult            ....    1
 Number of Electrons    NEL             ....  134
 Basis Dimension        Dim             ....  322

ORBITAL ENERGIES
----------------

  NO   OCC          E(Eh)            E(eV)
   0   2.0000     -88.968140     -2420.9462
   1   2.0000     -88.967057     -2420.9167
   2   2.0000     -10.337205      -281.2896
   3   2.0000     -10.330566      -281.1090
   4   2.0000     -10.319596      -280.8105
   5   2.0000     -10.311775      -280.5977
   6   2.0000     -10.306132      -280.4441
   7   2.0000     -10.301842      -280.3274
   8   2.0000     -10.301128      -280.3079
   9   2.0000     -10.296749      -280.1888
  10   2.0000     -10.294101      -280.1167
  11   2.0000     -10.290024      -280.0058
  12   2.0000     -10.288438      -279.9626
  13   2.0000     -10.279478      -279.7188
  14   2.0000     -10.277217      -279.6573
  15   2.0000     -10.260641      -279.2062
  16   2.0000      -8.082682      -219.9410
  17   2.0000      -8.080350      -219.8775
  18   2.0000      -6.041064      -164.3857
  19   2.0000      -6.038954      -164.3283
  20   2.0000      -6.037318      -164.2838
  21   2.0000      -6.035019      -164.2212
  22   2.0000      -6.033489      -164.1796
  23   2.0000      -6.031129      -164.1154
  24   2.0000      -1.001119       -27.2418
  25   2.0000      -0.978833       -26.6354
  26   2.0000      -0.912480       -24.8298
  27   2.0000      -0.909039       -24.7362
  28   2.0000      -0.865997       -23.5650
  29   2.0000      -0.850253       -23.1365
  30   2.0000      -0.838299       -22.8113
  31   2.0000      -0.810961       -22.0674
  32   2.0000      -0.791625       -21.5412
  33   2.0000      -0.780045       -21.2261
  34   2.0000      -0.710830       -19.3427
  35   2.0000      -0.696941       -18.9647
  36   2.0000      -0.685473       -18.6527
  37   2.0000      -0.657241       -17.8844
  38   2.0000      -0.638037       -17.3619
  39   2.0000      -0.624191       -16.9851
  40   2.0000      -0.604208       -16.4413
  41   2.0000      -0.560181       -15.2433
  42   2.0000      -0.557648       -15.1744
  43   2.0000      -0.548582       -14.9277
  44   2.0000      -0.537586       -14.6285
  45   2.0000      -0.537083       -14.6148
  46   2.0000      -0.519019       -14.1232
  47   2.0000      -0.508140       -13.8272
  48   2.0000      -0.497416       -13.5354
  49   2.0000      -0.494938       -13.4679
  50   2.0000      -0.489230       -13.3126
  51   2.0000      -0.483051       -13.1445
  52   2.0000      -0.471567       -12.8320
  53   2.0000      -0.467967       -12.7340
  54   2.0000      -0.460882       -12.5412
  55   2.0000      -0.448849       -12.2138
  56   2.0000      -0.443192       -12.0599
  57   2.0000      -0.438274       -11.9260
  58   2.0000      -0.433089       -11.7849
  59   2.0000      -0.420252       -11.4356
  60   2.0000      -0.416218       -11.3259
  61   2.0000      -0.410436       -11.1685
  62   2.0000      -0.399690       -10.8761
  63   2.0000      -0.343264        -9.3407
  64   2.0000      -0.336265        -9.1502
  65   2.0000      -0.329270        -8.9599
  66   2.0000      -0.290546        -7.9062
  67   0.0000       0.025439         0.6922
  68   0.0000       0.063498         1.7279
  69   0.0000       0.107218         2.9175
  70   0.0000       0.118671         3.2292
  71   0.0000       0.124379         3.3845

MULLIKEN ATOMIC CHARGES
-----------------------
   0 S :    0.097916
   1 C :   -0.101581
   2 C :   -0.102471
   3 C :    0.043582
   4 C :   -0.139174
   5 H :   -0.005992
   6 C :    0.150188
   7 H :    0.033533
   8 H :    0.004556
   9 C :   -0.180953
  10 H :    0.035767
  11 H :    0.039019
  12 C :   -0.027089
  13 H :    0.036502
  14 H :    0.044687
  15 H :    0.035806
  16 S :    0.113428
  17 C :   -0.085851
  18 C :   -0.045528
  19 C :   -0.015442
  20 C :   -0.170904
  21 H :    0.043595
  22 C :    0.060934
  23 H :   -0.001642
  24 H :    0.017503
  25 C :   -0.031702
  26 H :    0.014359
  27 H :    0.012702
  28 C :   -0.014852
  29 H :    0.011918
  30 H :    0.020731
  31 H :    0.030075
  32 H :    0.015739
  33 H :    0.060640
Sum of atomic charges:    0.0000000

LOEWDIN ATOMIC CHARGES
----------------------
   0 S :    0.385705
   1 C :   -0.170959
   2 C :   -0.061586
   3 C :   -0.058564
   4 C :   -0.186305
   5 H :    0.016584
   6 C :   -0.027952
   7 H :    0.034412
   8 H :    0.024700
   9 C :   -0.059644
  10 H :    0.032307
  11 H :    0.028648
  12 C :   -0.071611
  13 H :    0.027366
  14 H :    0.033383
  15 H :    0.029150
  16 S :    0.399586
  17 C :   -0.185378
  18 C :   -0.077173
  19 C :   -0.049669
  20 C :   -0.189011
  21 H :    0.044200
  22 C :   -0.034659
  23 H :    0.019073
  24 H :    0.039352
  25 C :   -0.028563
  26 H :    0.020604
  27 H :    0.021004
  28 C :   -0.060441
  29 H :    0.018372
  30 H :    0.020370
  31 H :    0.026677
  32 H :    0.011590
  33 H :    0.028432

  Mayer bond orders larger than 0.100000
B(  0-S ,  1-C ) :   1.1301 B(  0-S ,  4-C ) :   1.1552 B(  1-C ,  2-C ) :   1.6110
B(  1-C ,  4-C ) :   0.1099 B(  1-C , 32-H ) :   0.9780 B(  2-C ,  3-C ) :   1.2645
B(  2-C ,  6-C ) :   1.0020 B(  3-C ,  4-C ) :   1.5439 B(  3-C ,  5-H ) :   0.9926
B(  4-C , 20-C ) :   1.0438 B(  6-C ,  7-H ) :   0.9285 B(  6-C ,  8-H ) :   0.9382
B(  6-C ,  9-C ) :   1.0859 B(  9-C , 10-H ) :   0.9519 B(  9-C , 11-H ) :   0.9493
B(  9-C , 12-C ) :   1.0711 B( 12-C , 13-H ) :   0.9714 B( 12-C , 14-H ) :   0.9703
B( 12-C , 15-H ) :   0.9724 B( 16-S , 17-C ) :   1.1590 B( 16-S , 20-C ) :   1.1342
B( 17-C , 18-C ) :   1.6075 B( 17-C , 33-H ) :   0.9667 B( 18-C , 19-C ) :   1.2370
B( 18-C , 21-H ) :   0.9749 B( 19-C , 20-C ) :   1.5978 B( 19-C , 22-C ) :   1.0540
B( 22-C , 23-H ) :   0.9331 B( 22-C , 24-H ) :   0.9217 B( 22-C , 25-C ) :   1.0921
B( 25-C , 26-H ) :   0.9489 B( 25-C , 27-H ) :   0.9502 B( 25-C , 28-C ) :   1.0785
B( 28-C , 29-H ) :   0.9710 B( 28-C , 30-H ) :   0.9733 B( 28-C , 31-H ) :   0.9755

Dispersion correction           -0.015793956
FINAL SINGLE POINT ENERGY     -1339.865257607601

DIPOLE MOMENT
-------------
                                X             Y             Z
Electronic contribution:    -12.09927     -12.18113      12.37577
Nuclear contribution   :     12.36922      12.67572     -12.64546
                        -----------------------------------------
Total Dipole Moment    :      0.26995       0.49459      -0.26969
                        -----------------------------------------
Magnitude (a.u.)       :      0.62468
Magnitude (Debye)      :      1.58781

Rotational constants in cm-1:     0.018654     0.009169     0.008356
Rotational constants in MHz :   559.218006   274.894276   250.519409

                             ****ORCA TERMINATED NORMALLY****
TOTAL RUN TIME: 0 days 0 hours 0 minutes 35 seconds 779 msec
