                         Program Version 4.2.1 -  RELEASE  -
|  1> ! wB97X-D3 SP def2-SVP
|  2> %pal
|  3> nprocs 16
|  4> end
|  5>
|  6> * xyz 0 1
|  7> S 	 12.238 	 -28.1416 	 82.0617
|  8> C 	 11.8592 	 -28.5486 	 83.7316
|  9> C 	 11.1838 	 -27.49 	 84.2974
| 10> C 	 11.0201 	 -26.3266 	 83.4647
| 11> C 	 11.5584 	 -26.5551 	 82.1846
| 12> H 	 10.4353 	 -25.4548 	 83.6365
| 13> C 	 10.6108 	 -27.5285 	 85.6858
| 14> H 	 10.9369 	 -26.6517 	 86.1794
| 15> H 	 11.0641 	 -28.4092 	 86.1745
| 16> C 	 9.08057 	 -27.7572 	 85.7677
| 17> H 	 8.71511 	 -27.0546 	 85.1222
| 18> H 	 8.83089 	 -28.8262 	 85.5725
| 19> C 	 8.60225 	 -27.5433 	 87.1782
| 20> H 	 8.98475 	 -28.3961 	 87.8175
| 21> H 	 9.05457 	 -26.6891 	 87.6372
| 22> H 	 7.47969 	 -27.4777 	 87.2115
| 23> S 	 10.5101 	 -25.7913 	 79.7166
| 24> C 	 10.9343 	 -24.1948 	 79.0544
| 25> C 	 11.8965 	 -23.5973 	 79.8925
| 26> C 	 12.3238 	 -24.3275 	 80.9896
| 27> C 	 11.6399 	 -25.586 	 81.099
| 28> H 	 12.2427 	 -22.6739 	 79.6231
| 29> C 	 13.2209 	 -23.6931 	 82.0138
| 30> H 	 14.0342 	 -23.2274 	 81.4879
| 31> H 	 13.7548 	 -24.4665 	 82.4925
| 32> C 	 12.4941 	 -22.6439 	 82.9745
| 33> H 	 13.1767 	 -22.4464 	 83.8202
| 34> H 	 11.5432 	 -23.0204 	 83.3984
| 35> C 	 12.1089 	 -21.2667 	 82.3448
| 36> H 	 11.5273 	 -20.6726 	 82.9952
| 37> H 	 11.5546 	 -21.2635 	 81.4003
| 38> H 	 13.0305 	 -20.7432 	 82.1141
| 39> H 	 12.1316 	 -29.4947 	 84.2225
| 40> H 	 10.6091 	 -23.8089 	 78.1152
| 41> *
| 42>
| 43>                          ****END OF INPUT****

CARTESIAN COORDINATES (ANGSTROEM)
---------------------------------
  S     12.238000  -28.141600   82.061700
  C     11.859200  -28.548600   83.731600
  C     11.183800  -27.490000   84.297400
  C     11.020100  -26.326600   83.464700
  C     11.558400  -26.555100   82.184600
  H     10.435300  -25.454800   83.636500
  C     10.610800  -27.528500   85.685800
  H     10.936900  -26.651700   86.179400
  H     11.064100  -28.409200   86.174500
  C      9.080570  -27.757200   85.767700
  H      8.715110  -27.054600   85.122200
  H      8.830890  -28.826200   85.572500
  C      8.602250  -27.543300   87.178200
  H      8.984750  -28.396100   87.817500
  H      9.054570  -26.689100   87.637200
  H      7.479690  -27.477700   87.211500
  S     10.510100  -25.791300   79.716600
  C     10.934300  -24.194800   79.054400
  C     11.896500  -23.597300   79.892500
  C     12.323800  -24.327500   80.989600
  C     11.639900  -25.586000   81.099000
  H     12.242700  -22.673900   79.623100
  C     13.220900  -23.693100   82.013800
  H     14.034200  -23.227400   81.487900
  H     13.754800  -24.466500   82.492500
  C     12.494100  -22.643900   82.974500
  H     13.176700  -22.446400   83.820200
  H     11.543200  -23.020400   83.398400
  C     12.108900  -21.266700   82.344800
  H     11.527300  -20.672600   82.995200
  H     11.554600  -21.263500   81.400300
  H     13.030500  -20.743200   82.114100
  H     12.131600  -29.494700   84.222500
  H     10.609100  -23.808900   78.115200

 Total Charge           Charge          ....    0
 Multiplicity           Mult            ....    1
 Number of Electrons    NEL             ....  134
 Basis Dimension        Dim             ....  322

ORBITAL ENERGIES
----------------

  NO   OCC          E(Eh)            E(eV)
   0   2.0000     -88.966854     -2420.9112
   1   2.0000     -88.964760     -2420.8542
   2   2.0000     -10.332552      -281.1630
   3   2.0000     -10.330188      -281.0987
   4   2.0000     -10.320985      -280.8483
   5   2.0000     -10.316242      -280.7192
   6   2.0000     -10.304435      -280.3979
   7   2.0000     -10.299543      -280.2648
   8   2.0000     -10.299231      -280.2563
   9   2.0000     -10.295545      -280.1560
  10   2.0000     -10.290726      -280.0249
  11   2.0000     -10.285909      -279.8938
  12   2.0000     -10.284859      -279.8653
  13   2.0000     -10.280263      -279.7402
  14   2.0000     -10.279961      -279.7320
  15   2.0000     -10.276450      -279.6364
  16   2.0000      -8.080126      -219.8714
  17   2.0000      -8.079671      -219.8590
  18   2.0000      -6.038607      -164.3189
  19   2.0000      -6.038138      -164.3061
  20   2.0000      -6.034624      -164.2105
  21   2.0000      -6.033983      -164.1930
  22   2.0000      -6.031220      -164.1178
  23   2.0000      -6.030625      -164.1016
  24   2.0000      -1.000679       -27.2299
  25   2.0000      -0.977897       -26.6099
  26   2.0000      -0.915644       -24.9159
  27   2.0000      -0.900586       -24.5062
  28   2.0000      -0.868470       -23.6323
  29   2.0000      -0.848044       -23.0765
  30   2.0000      -0.847104       -23.0509
  31   2.0000      -0.812993       -22.1227
  32   2.0000      -0.783861       -21.3299
  33   2.0000      -0.767474       -20.8840
  34   2.0000      -0.709783       -19.3142
  35   2.0000      -0.699866       -19.0443
  36   2.0000      -0.694348       -18.8942
  37   2.0000      -0.662927       -18.0392
  38   2.0000      -0.644780       -17.5454
  39   2.0000      -0.617737       -16.8095
  40   2.0000      -0.594868       -16.1872
  41   2.0000      -0.575639       -15.6639
  42   2.0000      -0.565929       -15.3997
  43   2.0000      -0.549082       -14.9413
  44   2.0000      -0.538462       -14.6523
  45   2.0000      -0.527786       -14.3618
  46   2.0000      -0.520398       -14.1607
  47   2.0000      -0.514477       -13.9996
  48   2.0000      -0.506765       -13.7898
  49   2.0000      -0.499274       -13.5859
  50   2.0000      -0.488889       -13.3034
  51   2.0000      -0.481350       -13.0982
  52   2.0000      -0.467656       -12.7256
  53   2.0000      -0.460504       -12.5309
  54   2.0000      -0.457943       -12.4613
  55   2.0000      -0.449386       -12.2284
  56   2.0000      -0.442193       -12.0327
  57   2.0000      -0.433179       -11.7874
  58   2.0000      -0.431261       -11.7352
  59   2.0000      -0.427607       -11.6358
  60   2.0000      -0.422804       -11.5051
  61   2.0000      -0.416308       -11.3283
  62   2.0000      -0.411999       -11.2111
  63   2.0000      -0.337505        -9.1840
  64   2.0000      -0.328211        -8.9311
  65   2.0000      -0.324888        -8.8407
  66   2.0000      -0.299266        -8.1434
  67   0.0000       0.031823         0.8659
  68   0.0000       0.054926         1.4946
  69   0.0000       0.119841         3.2610
  70   0.0000       0.125669         3.4196
  71   0.0000       0.126435         3.4405

MULLIKEN ATOMIC CHARGES
-----------------------
   0 S :    0.113961
   1 C :   -0.133197
   2 C :   -0.086007
   3 C :    0.054098
   4 C :   -0.168928
   5 H :    0.013833
   6 C :    0.041689
   7 H :    0.020746
   8 H :    0.009487
   9 C :   -0.023048
  10 H :    0.009078
  11 H :    0.040285
  12 C :   -0.058573
  13 H :    0.030499
  14 H :    0.016610
  15 H :    0.049229
  16 S :    0.102738
  17 C :   -0.089702
  18 C :   -0.019709
  19 C :   -0.011470
  20 C :   -0.188775
  21 H :   -0.016093
  22 C :    0.119399
  23 H :    0.012869
  24 H :    0.014678
  25 C :   -0.070171
  26 H :    0.040827
  27 H :    0.033108
  28 C :   -0.053393
  29 H :    0.027169
  30 H :    0.034495
  31 H :    0.022121
  32 H :    0.060317
  33 H :    0.051829
Sum of atomic charges:    0.0000000

LOEWDIN ATOMIC CHARGES
----------------------
   0 S :    0.415179
   1 C :   -0.201950
   2 C :   -0.063606
   3 C :   -0.057777
   4 C :   -0.205376
   5 H :    0.028229
   6 C :   -0.029705
   7 H :    0.023020
   8 H :    0.027794
   9 C :   -0.030475
  10 H :    0.008920
  11 H :    0.034912
  12 C :   -0.068835
  13 H :    0.030416
  14 H :    0.015698
  15 H :    0.032516
  16 S :    0.388226
  17 C :   -0.173324
  18 C :   -0.062003
  19 C :   -0.049503
  20 C :   -0.194635
  21 H :    0.013704
  22 C :   -0.027580
  23 H :    0.031013
  24 H :    0.028396
  25 C :   -0.030266
  26 H :    0.029408
  27 H :    0.024380
  28 C :   -0.067742
  29 H :    0.021497
  30 H :    0.025919
  31 H :    0.022207
  32 H :    0.036399
  33 H :    0.024945

  Mayer bond orders larger than 0.100000
B(  0-S ,  1-C ) :   1.1307 B(  0-S ,  4-C ) :   1.1804 B(  1-C ,  2-C ) :   1.6072
B(  1-C , 32-H ) :   0.9682 B(  2-C ,  3-C ) :   1.2313 B(  2-C ,  6-C ) :   1.0339
B(  3-C ,  4-C ) :   1.5541 B(  3-C ,  5-H ) :   0.9977 B(  4-C , 20-C ) :   1.0185
B(  6-C ,  7-H ) :   0.9399 B(  6-C ,  8-H ) :   0.9394 B(  6-C ,  9-C ) :   1.0663
B(  9-C , 10-H ) :   0.9580 B(  9-C , 11-H ) :   0.9549 B(  9-C , 12-C ) :   1.0859
B( 12-C , 13-H ) :   0.9735 B( 12-C , 14-H ) :   0.9741 B( 12-C , 15-H ) :   0.9729
B( 16-S , 17-C ) :   1.1638 B( 16-S , 20-C ) :   1.1595 B( 17-C , 18-C ) :   1.5579
B( 17-C , 20-C ) :   0.1250 B( 17-C , 33-H ) :   0.9723 B( 18-C , 19-C ) :   1.2861
B( 18-C , 21-H ) :   0.9971 B( 19-C , 20-C ) :   1.5313 B( 19-C , 22-C ) :   1.0569
B( 22-C , 23-H ) :   0.9306 B( 22-C , 24-H ) :   0.9244 B( 22-C , 25-C ) :   1.0439
B( 25-C , 26-H ) :   0.9582 B( 25-C , 27-H ) :   0.9610 B( 25-C , 28-C ) :   1.0738
B( 28-C , 29-H ) :   0.9739 B( 28-C , 30-H ) :   0.9712 B( 28-C , 31-H ) :   0.9766

Dispersion correction           -0.014357627
FINAL SINGLE POINT ENERGY     -1339.868018042004

DIPOLE MOMENT
-------------
                                X             Y             Z
Electronic contribution:      4.33816     -13.13928     -22.88210
Nuclear contribution   :     -4.33023      13.60905      23.35938
                        -----------------------------------------
Total Dipole Moment    :      0.00792       0.46977       0.47728
                        -----------------------------------------
Magnitude (a.u.)       :      0.66974
Magnitude (Debye)      :      1.70233

Rotational constants in cm-1:     0.018482     0.008046     0.006739
Rotational constants in MHz :   554.064861   241.211438   202.039295

                             ****ORCA TERMINATED NORMALLY****
TOTAL RUN TIME: 0 days 0 hours 0 minutes 33 seconds 307 msec
