                         Program Version 4.2.1 -  RELEASE  -
|  1> ! wB97X-D3 SP def2-SVP
|  2> %pal
|  3> nprocs 16
|  4> end
|  5>
|  6> * xyz 0 1
|  7> S 	 -106.19 	 40.178 	 129.575
|  8> C 	 -104.784 	 40.9066 	 130.349
|  9> C 	 -104.174 	 41.7237 	 129.455
| 10> C 	 -104.742 	 41.6557 	 128.112
| 11> C 	 -105.829 	 40.8219 	 128.034
| 12> H 	 -104.388 	 42.1713 	 127.216
| 13> C 	 -102.844 	 42.4125 	 129.804
| 14> H 	 -102.085 	 41.6266 	 129.975
| 15> H 	 -102.974 	 42.9563 	 130.808
| 16> C 	 -102.262 	 43.4268 	 128.645
| 17> H 	 -101.274 	 43.6436 	 129.034
| 18> H 	 -102.228 	 42.9519 	 127.65
| 19> C 	 -103.138 	 44.6589 	 128.591
| 20> H 	 -103.137 	 45.1005 	 129.586
| 21> H 	 -102.886 	 45.3893 	 127.862
| 22> H 	 -104.169 	 44.4552 	 128.465
| 23> S 	 -108.335 	 40.5047 	 127.043
| 24> C 	 -108.599 	 40.2819 	 125.352
| 25> C 	 -107.468 	 40.3619 	 124.587
| 26> C 	 -106.287 	 40.5332 	 125.412
| 27> C 	 -106.614 	 40.5549 	 126.796
| 28> H 	 -107.595 	 40.2402 	 123.501
| 29> C 	 -104.878 	 40.5333 	 124.735
| 30> H 	 -104.716 	 39.6918 	 124.136
| 31> H 	 -104.122 	 40.6887 	 125.543
| 32> C 	 -104.636 	 41.737 	 123.874
| 33> H 	 -104.986 	 42.6489 	 124.336
| 34> H 	 -105.206 	 41.4823 	 122.919
| 35> C 	 -103.079 	 42.0552 	 123.741
| 36> H 	 -103.095 	 42.9899 	 123.154
| 37> H 	 -102.561 	 41.3544 	 123.034
| 38> H 	 -102.633 	 42.1736 	 124.727
| 39> H 	 -104.388 	 40.9817 	 131.348
| 40> H 	 -109.537 	 39.9925 	 124.968
| 41> *
| 42>
| 43>                          ****END OF INPUT****

CARTESIAN COORDINATES (ANGSTROEM)
---------------------------------
  S    -106.190000   40.178000  129.575000
  C    -104.784000   40.906600  130.349000
  C    -104.174000   41.723700  129.455000
  C    -104.742000   41.655700  128.112000
  C    -105.829000   40.821900  128.034000
  H    -104.388000   42.171300  127.216000
  C    -102.844000   42.412500  129.804000
  H    -102.085000   41.626600  129.975000
  H    -102.974000   42.956300  130.808000
  C    -102.262000   43.426800  128.645000
  H    -101.274000   43.643600  129.034000
  H    -102.228000   42.951900  127.650000
  C    -103.138000   44.658900  128.591000
  H    -103.137000   45.100500  129.586000
  H    -102.886000   45.389300  127.862000
  H    -104.169000   44.455200  128.465000
  S    -108.335000   40.504700  127.043000
  C    -108.599000   40.281900  125.352000
  C    -107.468000   40.361900  124.587000
  C    -106.287000   40.533200  125.412000
  C    -106.614000   40.554900  126.796000
  H    -107.595000   40.240200  123.501000
  C    -104.878000   40.533300  124.735000
  H    -104.716000   39.691800  124.136000
  H    -104.122000   40.688700  125.543000
  C    -104.636000   41.737000  123.874000
  H    -104.986000   42.648900  124.336000
  H    -105.206000   41.482300  122.919000
  C    -103.079000   42.055200  123.741000
  H    -103.095000   42.989900  123.154000
  H    -102.561000   41.354400  123.034000
  H    -102.633000   42.173600  124.727000
  H    -104.388000   40.981700  131.348000
  H    -109.537000   39.992500  124.968000

 Total Charge           Charge          ....    0
 Multiplicity           Mult            ....    1
 Number of Electrons    NEL             ....  134
 Basis Dimension        Dim             ....  322

ORBITAL ENERGIES
----------------

  NO   OCC          E(Eh)            E(eV)
   0   2.0000     -88.967839     -2420.9380
   1   2.0000     -88.965850     -2420.8839
   2   2.0000     -10.334732      -281.2224
   3   2.0000     -10.330214      -281.0994
   4   2.0000     -10.314974      -280.6847
   5   2.0000     -10.311267      -280.5838
   6   2.0000     -10.309430      -280.5339
   7   2.0000     -10.307439      -280.4797
   8   2.0000     -10.300314      -280.2858
   9   2.0000     -10.297800      -280.2174
  10   2.0000     -10.297312      -280.2041
  11   2.0000     -10.294257      -280.1210
  12   2.0000     -10.291401      -280.0433
  13   2.0000     -10.290148      -280.0092
  14   2.0000     -10.289790      -279.9994
  15   2.0000     -10.269054      -279.4352
  16   2.0000      -8.082670      -219.9406
  17   2.0000      -8.081472      -219.9080
  18   2.0000      -6.041453      -164.3963
  19   2.0000      -6.039837      -164.3523
  20   2.0000      -6.037038      -164.2762
  21   2.0000      -6.035917      -164.2457
  22   2.0000      -6.033231      -164.1726
  23   2.0000      -6.032272      -164.1465
  24   2.0000      -1.009528       -27.4706
  25   2.0000      -0.987039       -26.8587
  26   2.0000      -0.911976       -24.8161
  27   2.0000      -0.904040       -24.6002
  28   2.0000      -0.872457       -23.7408
  29   2.0000      -0.847082       -23.0503
  30   2.0000      -0.841478       -22.8978
  31   2.0000      -0.817947       -22.2575
  32   2.0000      -0.781371       -21.2622
  33   2.0000      -0.772325       -21.0160
  34   2.0000      -0.710420       -19.3315
  35   2.0000      -0.694051       -18.8861
  36   2.0000      -0.688319       -18.7301
  37   2.0000      -0.658420       -17.9165
  38   2.0000      -0.632786       -17.2190
  39   2.0000      -0.622277       -16.9330
  40   2.0000      -0.597518       -16.2593
  41   2.0000      -0.581496       -15.8233
  42   2.0000      -0.571658       -15.5556
  43   2.0000      -0.550922       -14.9914
  44   2.0000      -0.531999       -14.4764
  45   2.0000      -0.517500       -14.0819
  46   2.0000      -0.514810       -14.0087
  47   2.0000      -0.510890       -13.9020
  48   2.0000      -0.509487       -13.8638
  49   2.0000      -0.503508       -13.7011
  50   2.0000      -0.490326       -13.3425
  51   2.0000      -0.480701       -13.0805
  52   2.0000      -0.477951       -13.0057
  53   2.0000      -0.472012       -12.8441
  54   2.0000      -0.459132       -12.4936
  55   2.0000      -0.448659       -12.2086
  56   2.0000      -0.445183       -12.1140
  57   2.0000      -0.436442       -11.8762
  58   2.0000      -0.432841       -11.7782
  59   2.0000      -0.429186       -11.6787
  60   2.0000      -0.419331       -11.4106
  61   2.0000      -0.410717       -11.1762
  62   2.0000      -0.404559       -11.0086
  63   2.0000      -0.354060        -9.6345
  64   2.0000      -0.332666        -9.0523
  65   2.0000      -0.327768        -8.9190
  66   2.0000      -0.292430        -7.9574
  67   0.0000       0.028582         0.7778
  68   0.0000       0.081375         2.2143
  69   0.0000       0.107324         2.9204
  70   0.0000       0.113055         3.0764
  71   0.0000       0.121388         3.3031

MULLIKEN ATOMIC CHARGES
-----------------------
   0 S :    0.114604
   1 C :   -0.092077
   2 C :   -0.092726
   3 C :    0.006483
   4 C :   -0.111098
   5 H :    0.004260
   6 C :   -0.037864
   7 H :    0.055569
   8 H :    0.045449
   9 C :   -0.066041
  10 H :    0.034978
  11 H :    0.041356
  12 C :   -0.024294
  13 H :    0.017100
  14 H :    0.032221
  15 H :    0.024647
  16 S :    0.102468
  17 C :   -0.075006
  18 C :   -0.043152
  19 C :   -0.044144
  20 C :   -0.143430
  21 H :    0.032959
  22 C :    0.104464
  23 H :    0.027276
  24 H :    0.007973
  25 C :   -0.135142
  26 H :    0.034925
  27 H :    0.041242
  28 C :   -0.072455
  29 H :    0.038954
  30 H :    0.043185
  31 H :    0.050771
  32 H :    0.037082
  33 H :    0.039463
Sum of atomic charges:   -0.0000000

LOEWDIN ATOMIC CHARGES
----------------------
   0 S :    0.416303
   1 C :   -0.202822
   2 C :   -0.067483
   3 C :   -0.075855
   4 C :   -0.204069
   5 H :    0.027871
   6 C :   -0.036988
   7 H :    0.034559
   8 H :    0.037096
   9 C :   -0.034029
  10 H :    0.025391
  11 H :    0.022993
  12 C :   -0.067398
  13 H :    0.027575
  14 H :    0.021481
  15 H :    0.021866
  16 S :    0.418183
  17 C :   -0.182617
  18 C :   -0.074286
  19 C :   -0.048854
  20 C :   -0.196902
  21 H :    0.039295
  22 C :   -0.029679
  23 H :    0.024295
  24 H :    0.027649
  25 C :   -0.045032
  26 H :    0.021658
  27 H :    0.028932
  28 C :   -0.068797
  29 H :    0.030631
  30 H :    0.029578
  31 H :    0.025114
  32 H :    0.035963
  33 H :    0.018375

  Mayer bond orders larger than 0.100000
B(  0-S ,  1-C ) :   1.1100 B(  0-S ,  4-C ) :   1.1564 B(  1-C ,  2-C ) :   1.6586
B(  1-C , 32-H ) :   0.9673 B(  2-C ,  3-C ) :   1.2244 B(  2-C ,  6-C ) :   0.9988
B(  3-C ,  4-C ) :   1.5831 B(  3-C ,  5-H ) :   0.9862 B(  4-C , 20-C ) :   1.0195
B(  6-C ,  7-H ) :   0.9513 B(  6-C ,  8-H ) :   0.9443 B(  6-C ,  9-C ) :   1.0689
B(  9-C , 10-H ) :   0.9572 B(  9-C , 11-H ) :   0.9546 B(  9-C , 12-C ) :   1.0724
B( 12-C , 13-H ) :   0.9694 B( 12-C , 14-H ) :   0.9745 B( 12-C , 15-H ) :   0.9757
B( 16-S , 17-C ) :   1.1595 B( 16-S , 20-C ) :   1.1540 B( 17-C , 18-C ) :   1.6310
B( 17-C , 33-H ) :   0.9695 B( 18-C , 19-C ) :   1.2150 B( 18-C , 21-H ) :   0.9879
B( 19-C , 20-C ) :   1.6020 B( 19-C , 22-C ) :   1.0359 B( 22-C , 23-H ) :   0.9436
B( 22-C , 24-H ) :   0.9371 B( 22-C , 25-C ) :   1.0552 B( 25-C , 26-H ) :   0.9594
B( 25-C , 27-H ) :   0.9550 B( 25-C , 28-C ) :   1.0757 B( 28-C , 29-H ) :   0.9778
B( 28-C , 30-H ) :   0.9751 B( 28-C , 31-H ) :   0.9712

Dispersion correction           -0.014509996
FINAL SINGLE POINT ENERGY     -1339.858779963055

DIPOLE MOMENT
-------------
                                X             Y             Z
Electronic contribution:    -24.54351     -16.02152      11.62848
Nuclear contribution   :     25.02812      16.30887     -12.03782
                        -----------------------------------------
Total Dipole Moment    :      0.48461       0.28735      -0.40934
                        -----------------------------------------
Magnitude (a.u.)       :      0.69640
Magnitude (Debye)      :      1.77010

Rotational constants in cm-1:     0.015814     0.010662     0.007017
Rotational constants in MHz :   474.079393   319.626798   210.376402

                             ****ORCA TERMINATED NORMALLY****
TOTAL RUN TIME: 0 days 0 hours 0 minutes 34 seconds 681 msec
