                         Program Version 4.2.1 -  RELEASE  -
|  1> ! wB97X-D3 SP def2-SVP
|  2> %pal
|  3> nprocs 16
|  4> end
|  5>
|  6> * xyz 0 1
|  7> S 	 4.64801 	 -7.35855 	 80.0978
|  8> C 	 5.94721 	 -6.90912 	 81.1398
|  9> C 	 5.56767 	 -5.93081 	 82.0313
| 10> C 	 4.38358 	 -5.23216 	 81.5328
| 11> C 	 3.77722 	 -5.89054 	 80.5122
| 12> H 	 3.86968 	 -4.3539 	 81.952
| 13> C 	 6.39962 	 -5.4653 	 83.2137
| 14> H 	 6.33078 	 -6.31281 	 83.909
| 15> H 	 5.95931 	 -4.63394 	 83.7674
| 16> C 	 7.91369 	 -5.27341 	 82.9865
| 17> H 	 8.58959 	 -5.32991 	 83.8622
| 18> H 	 8.16714 	 -6.09872 	 82.338
| 19> C 	 8.22174 	 -3.98429 	 82.3691
| 20> H 	 9.22486 	 -4.01944 	 81.9073
| 21> H 	 7.58987 	 -3.85896 	 81.4679
| 22> H 	 8.21694 	 -3.25845 	 83.1278
| 23> S 	 2.43165 	 -4.54294 	 78.6444
| 24> C 	 0.7018 	 -4.51743 	 78.6878
| 25> C 	 0.181885 	 -5.48142 	 79.5715
| 26> C 	 1.22409 	 -6.15187 	 80.2884
| 27> C 	 2.45394 	 -5.60437 	 79.9878
| 28> H 	 -0.921644 	 -5.47421 	 79.5892
| 29> C 	 0.802868 	 -7.2366 	 81.337
| 30> H 	 0.446778 	 -6.59795 	 82.148
| 31> H 	 1.60814 	 -7.78641 	 81.8249
| 32> C 	 -0.268677 	 -8.22074 	 80.9105
| 33> H 	 -0.0298156 	 -8.8176 	 80.0518
| 34> H 	 -1.08429 	 -7.72014 	 80.5021
| 35> C 	 -0.755069 	 -9.16309 	 82.0075
| 36> H 	 -1.35828 	 -8.66531 	 82.773
| 37> H 	 -0.0104876 	 -9.63306 	 82.6032
| 38> H 	 -1.41625 	 -9.95478 	 81.5573
| 39> H 	 6.77728 	 -7.6144 	 81.1912
| 40> H 	 0.070273 	 -3.95411 	 78.0175
| 41> *
| 42>
| 43>                          ****END OF INPUT****

CARTESIAN COORDINATES (ANGSTROEM)
---------------------------------
  S      4.648010   -7.358550   80.097800
  C      5.947210   -6.909120   81.139800
  C      5.567670   -5.930810   82.031300
  C      4.383580   -5.232160   81.532800
  C      3.777220   -5.890540   80.512200
  H      3.869680   -4.353900   81.952000
  C      6.399620   -5.465300   83.213700
  H      6.330780   -6.312810   83.909000
  H      5.959310   -4.633940   83.767400
  C      7.913690   -5.273410   82.986500
  H      8.589590   -5.329910   83.862200
  H      8.167140   -6.098720   82.338000
  C      8.221740   -3.984290   82.369100
  H      9.224860   -4.019440   81.907300
  H      7.589870   -3.858960   81.467900
  H      8.216940   -3.258450   83.127800
  S      2.431650   -4.542940   78.644400
  C      0.701800   -4.517430   78.687800
  C      0.181885   -5.481420   79.571500
  C      1.224090   -6.151870   80.288400
  C      2.453940   -5.604370   79.987800
  H     -0.921644   -5.474210   79.589200
  C      0.802868   -7.236600   81.337000
  H      0.446778   -6.597950   82.148000
  H      1.608140   -7.786410   81.824900
  C     -0.268677   -8.220740   80.910500
  H     -0.029816   -8.817600   80.051800
  H     -1.084290   -7.720140   80.502100
  C     -0.755069   -9.163090   82.007500
  H     -1.358280   -8.665310   82.773000
  H     -0.010488   -9.633060   82.603200
  H     -1.416250   -9.954780   81.557300
  H      6.777280   -7.614400   81.191200
  H      0.070273   -3.954110   78.017500

 Total Charge           Charge          ....    0
 Multiplicity           Mult            ....    1
 Number of Electrons    NEL             ....  134
 Basis Dimension        Dim             ....  322

ORBITAL ENERGIES
----------------

  NO   OCC          E(Eh)            E(eV)
   0   2.0000     -88.964250     -2420.8403
   1   2.0000     -88.960605     -2420.7411
   2   2.0000     -10.320840      -280.8443
   3   2.0000     -10.318993      -280.7941
   4   2.0000     -10.313482      -280.6441
   5   2.0000     -10.312800      -280.6256
   6   2.0000     -10.309224      -280.5282
   7   2.0000     -10.307493      -280.4811
   8   2.0000     -10.296648      -280.1860
   9   2.0000     -10.295800      -280.1630
  10   2.0000     -10.293954      -280.1127
  11   2.0000     -10.291856      -280.0556
  12   2.0000     -10.280565      -279.7484
  13   2.0000     -10.278179      -279.6835
  14   2.0000     -10.277940      -279.6770
  15   2.0000     -10.266860      -279.3755
  16   2.0000      -8.080017      -219.8684
  17   2.0000      -8.076091      -219.7616
  18   2.0000      -6.038303      -164.3106
  19   2.0000      -6.034497      -164.2070
  20   2.0000      -6.034425      -164.2051
  21   2.0000      -6.030915      -164.1095
  22   2.0000      -6.030649      -164.1023
  23   2.0000      -6.026759      -163.9965
  24   2.0000      -1.010282       -27.4912
  25   2.0000      -0.986915       -26.8553
  26   2.0000      -0.916678       -24.9441
  27   2.0000      -0.909189       -24.7403
  28   2.0000      -0.870644       -23.6914
  29   2.0000      -0.851389       -23.1675
  30   2.0000      -0.849315       -23.1110
  31   2.0000      -0.814385       -22.1606
  32   2.0000      -0.783453       -21.3188
  33   2.0000      -0.770480       -20.9658
  34   2.0000      -0.710384       -19.3305
  35   2.0000      -0.698372       -19.0037
  36   2.0000      -0.690101       -18.7786
  37   2.0000      -0.655744       -17.8437
  38   2.0000      -0.647756       -17.6263
  39   2.0000      -0.609279       -16.5793
  40   2.0000      -0.596317       -16.2266
  41   2.0000      -0.581570       -15.8253
  42   2.0000      -0.555744       -15.1226
  43   2.0000      -0.554592       -15.0912
  44   2.0000      -0.542606       -14.7650
  45   2.0000      -0.527344       -14.3498
  46   2.0000      -0.517670       -14.0865
  47   2.0000      -0.514926       -14.0119
  48   2.0000      -0.502636       -13.6774
  49   2.0000      -0.497654       -13.5418
  50   2.0000      -0.486791       -13.2463
  51   2.0000      -0.474456       -12.9106
  52   2.0000      -0.472610       -12.8604
  53   2.0000      -0.466690       -12.6993
  54   2.0000      -0.457517       -12.4497
  55   2.0000      -0.447349       -12.1730
  56   2.0000      -0.441457       -12.0127
  57   2.0000      -0.438045       -11.9198
  58   2.0000      -0.435191       -11.8421
  59   2.0000      -0.426848       -11.6151
  60   2.0000      -0.417570       -11.3627
  61   2.0000      -0.411976       -11.2104
  62   2.0000      -0.410884       -11.1807
  63   2.0000      -0.335229        -9.1221
  64   2.0000      -0.329793        -8.9741
  65   2.0000      -0.317283        -8.6337
  66   2.0000      -0.308308        -8.3895
  67   0.0000       0.048080         1.3083
  68   0.0000       0.055269         1.5039
  69   0.0000       0.109011         2.9663
  70   0.0000       0.118816         3.2331
  71   0.0000       0.136241         3.7073

MULLIKEN ATOMIC CHARGES
-----------------------
   0 S :    0.114485
   1 C :   -0.147215
   2 C :   -0.081565
   3 C :    0.039142
   4 C :   -0.158738
   5 H :    0.024359
   6 C :    0.068088
   7 H :    0.033367
   8 H :    0.017990
   9 C :   -0.074473
  10 H :    0.027902
  11 H :    0.012295
  12 C :   -0.023408
  13 H :    0.024250
  14 H :    0.035615
  15 H :    0.024823
  16 S :    0.132842
  17 C :   -0.103631
  18 C :   -0.081165
  19 C :    0.030894
  20 C :   -0.224328
  21 H :    0.038573
  22 C :    0.085250
  23 H :    0.033323
  24 H :    0.021124
  25 C :   -0.035707
  26 H :    0.021730
  27 H :    0.002318
  28 C :   -0.057507
  29 H :    0.023213
  30 H :    0.022872
  31 H :    0.040245
  32 H :    0.063587
  33 H :    0.049447
Sum of atomic charges:   -0.0000000

LOEWDIN ATOMIC CHARGES
----------------------
   0 S :    0.406594
   1 C :   -0.204191
   2 C :   -0.058966
   3 C :   -0.057243
   4 C :   -0.203266
   5 H :    0.039042
   6 C :   -0.035320
   7 H :    0.038184
   8 H :    0.026489
   9 C :   -0.044211
  10 H :    0.027147
  11 H :    0.018443
  12 C :   -0.063906
  13 H :    0.028743
  14 H :    0.030864
  15 H :    0.017993
  16 S :    0.437758
  17 C :   -0.194955
  18 C :   -0.078608
  19 C :   -0.048213
  20 C :   -0.221652
  21 H :    0.038829
  22 C :   -0.027937
  23 H :    0.037186
  24 H :    0.027671
  25 C :   -0.041859
  26 H :    0.026616
  27 H :    0.015503
  28 C :   -0.064019
  29 H :    0.023512
  30 H :    0.018931
  31 H :    0.034976
  32 H :    0.025560
  33 H :    0.024303

  Mayer bond orders larger than 0.100000
B(  0-S ,  1-C ) :   1.1483 B(  0-S ,  4-C ) :   1.1414 B(  1-C ,  2-C ) :   1.6108
B(  1-C , 32-H ) :   0.9650 B(  2-C ,  3-C ) :   1.1999 B(  2-C ,  6-C ) :   1.0284
B(  3-C ,  4-C ) :   1.6288 B(  3-C ,  5-H ) :   0.9878 B(  4-C , 20-C ) :   1.0029
B(  6-C ,  7-H ) :   0.9233 B(  6-C ,  8-H ) :   0.9509 B(  6-C ,  9-C ) :   1.0695
B(  9-C , 10-H ) :   0.9548 B(  9-C , 11-H ) :   0.9506 B(  9-C , 12-C ) :   1.0956
B( 12-C , 13-H ) :   0.9676 B( 12-C , 14-H ) :   0.9725 B( 12-C , 15-H ) :   0.9755
B( 16-S , 17-C ) :   1.1677 B( 16-S , 20-C ) :   1.1696 B( 17-C , 18-C ) :   1.6209
B( 17-C , 20-C ) :   0.1030 B( 17-C , 33-H ) :   0.9674 B( 18-C , 19-C ) :   1.2126
B( 18-C , 21-H ) :   0.9849 B( 19-C , 20-C ) :   1.6124 B( 19-C , 22-C ) :   1.0196
B( 22-C , 23-H ) :   0.9386 B( 22-C , 24-H ) :   0.9411 B( 22-C , 25-C ) :   1.0584
B( 25-C , 26-H ) :   0.9535 B( 25-C , 27-H ) :   0.9442 B( 25-C , 28-C ) :   1.0883
B( 28-C , 29-H ) :   0.9746 B( 28-C , 30-H ) :   0.9760 B( 28-C , 31-H ) :   0.9741

Dispersion correction           -0.013721089
FINAL SINGLE POINT ENERGY     -1339.861627016315

DIPOLE MOMENT
-------------
                                X             Y             Z
Electronic contribution:     -1.14082       4.56174     -17.23234
Nuclear contribution   :      0.95799      -4.65435      17.73372
                        -----------------------------------------
Total Dipole Moment    :     -0.18283      -0.09261       0.50138
                        -----------------------------------------
Magnitude (a.u.)       :      0.54165
Magnitude (Debye)      :      1.37677

Rotational constants in cm-1:     0.021275     0.007384     0.006203
Rotational constants in MHz :   637.821933   221.353203   185.970376

                             ****ORCA TERMINATED NORMALLY****
TOTAL RUN TIME: 0 days 0 hours 0 minutes 35 seconds 242 msec
