                         Program Version 4.2.1 -  RELEASE  -
|  1> ! wB97X-D3 SP def2-SVP
|  2> %pal
|  3> nprocs 16
|  4> end
|  5>
|  6> * xyz 0 1
|  7> S 	 -62.1384 	 50.8088 	 126.495
|  8> C 	 -63.8488 	 51.2227 	 126.664
|  9> C 	 -64.2668 	 51.3444 	 127.961
| 10> C 	 -63.233 	 51.0463 	 128.916
| 11> C 	 -62.019 	 50.8007 	 128.299
| 12> H 	 -63.4358 	 51.1694 	 129.955
| 13> C 	 -65.6284 	 51.8022 	 128.373
| 14> H 	 -65.8604 	 51.3424 	 129.385
| 15> H 	 -66.4388 	 51.4125 	 127.74
| 16> C 	 -65.8353 	 53.3229 	 128.436
| 17> H 	 -65.0762 	 53.7827 	 129.103
| 18> H 	 -65.763 	 53.6921 	 127.38
| 19> C 	 -67.2271 	 53.7496 	 128.976
| 20> H 	 -67.553 	 54.7474 	 128.975
| 21> H 	 -68.0589 	 53.2762 	 128.47
| 22> H 	 -67.3295 	 53.421 	 129.991
| 23> S 	 -59.483 	 49.7173 	 128.278
| 24> C 	 -58.3136 	 50.3395 	 129.374
| 25> C 	 -58.8633 	 51.0642 	 130.371
| 26> C 	 -60.2539 	 51.286 	 130.152
| 27> C 	 -60.6839 	 50.7773 	 128.935
| 28> H 	 -58.4128 	 51.47 	 131.245
| 29> C 	 -61.0557 	 52.0181 	 131.214
| 30> H 	 -60.5144 	 52.0142 	 132.238
| 31> H 	 -61.9709 	 51.498 	 131.381
| 32> C 	 -61.4223 	 53.4452 	 130.908
| 33> H 	 -62.0537 	 54.0328 	 131.571
| 34> H 	 -61.9764 	 53.4772 	 129.96
| 35> C 	 -60.1448 	 54.359 	 130.733
| 36> H 	 -60.4439 	 55.4907 	 130.731
| 37> H 	 -59.6574 	 54.1055 	 129.739
| 38> H 	 -59.4185 	 54.2454 	 131.636
| 39> H 	 -64.487 	 51.3682 	 125.815
| 40> H 	 -57.2948 	 49.9597 	 129.417
| 41> *
| 42>
| 43>                          ****END OF INPUT****

CARTESIAN COORDINATES (ANGSTROEM)
---------------------------------
  S    -62.138400   50.808800  126.495000
  C    -63.848800   51.222700  126.664000
  C    -64.266800   51.344400  127.961000
  C    -63.233000   51.046300  128.916000
  C    -62.019000   50.800700  128.299000
  H    -63.435800   51.169400  129.955000
  C    -65.628400   51.802200  128.373000
  H    -65.860400   51.342400  129.385000
  H    -66.438800   51.412500  127.740000
  C    -65.835300   53.322900  128.436000
  H    -65.076200   53.782700  129.103000
  H    -65.763000   53.692100  127.380000
  C    -67.227100   53.749600  128.976000
  H    -67.553000   54.747400  128.975000
  H    -68.058900   53.276200  128.470000
  H    -67.329500   53.421000  129.991000
  S    -59.483000   49.717300  128.278000
  C    -58.313600   50.339500  129.374000
  C    -58.863300   51.064200  130.371000
  C    -60.253900   51.286000  130.152000
  C    -60.683900   50.777300  128.935000
  H    -58.412800   51.470000  131.245000
  C    -61.055700   52.018100  131.214000
  H    -60.514400   52.014200  132.238000
  H    -61.970900   51.498000  131.381000
  C    -61.422300   53.445200  130.908000
  H    -62.053700   54.032800  131.571000
  H    -61.976400   53.477200  129.960000
  C    -60.144800   54.359000  130.733000
  H    -60.443900   55.490700  130.731000
  H    -59.657400   54.105500  129.739000
  H    -59.418500   54.245400  131.636000
  H    -64.487000   51.368200  125.815000
  H    -57.294800   49.959700  129.417000

 Total Charge           Charge          ....    0
 Multiplicity           Mult            ....    1
 Number of Electrons    NEL             ....  134
 Basis Dimension        Dim             ....  322

ORBITAL ENERGIES
----------------

  NO   OCC          E(Eh)            E(eV)
   0   2.0000     -88.969512     -2420.9835
   1   2.0000     -88.966437     -2420.8998
   2   2.0000     -10.338585      -281.3272
   3   2.0000     -10.327261      -281.0191
   4   2.0000     -10.313731      -280.6509
   5   2.0000     -10.313013      -280.6314
   6   2.0000     -10.302483      -280.3448
   7   2.0000     -10.300336      -280.2864
   8   2.0000     -10.298102      -280.2256
   9   2.0000     -10.297995      -280.2227
  10   2.0000     -10.297251      -280.2024
  11   2.0000     -10.297059      -280.1972
  12   2.0000     -10.293964      -280.1130
  13   2.0000     -10.288808      -279.9727
  14   2.0000     -10.286278      -279.9039
  15   2.0000     -10.273565      -279.5579
  16   2.0000      -8.083127      -219.9531
  17   2.0000      -8.082289      -219.9303
  18   2.0000      -6.041782      -164.4052
  19   2.0000      -6.040751      -164.3772
  20   2.0000      -6.037985      -164.3019
  21   2.0000      -6.036817      -164.2701
  22   2.0000      -6.033612      -164.1829
  23   2.0000      -6.032873      -164.1628
  24   2.0000      -1.011356       -27.5204
  25   2.0000      -0.985213       -26.8090
  26   2.0000      -0.910959       -24.7885
  27   2.0000      -0.910144       -24.7663
  28   2.0000      -0.869263       -23.6539
  29   2.0000      -0.851329       -23.1658
  30   2.0000      -0.844395       -22.9772
  31   2.0000      -0.815530       -22.1917
  32   2.0000      -0.781850       -21.2752
  33   2.0000      -0.770726       -20.9725
  34   2.0000      -0.705555       -19.1991
  35   2.0000      -0.703080       -19.1318
  36   2.0000      -0.685193       -18.6450
  37   2.0000      -0.669204       -18.2100
  38   2.0000      -0.639407       -17.3991
  39   2.0000      -0.626876       -17.0582
  40   2.0000      -0.598925       -16.2976
  41   2.0000      -0.568379       -15.4664
  42   2.0000      -0.562089       -15.2952
  43   2.0000      -0.552310       -15.0291
  44   2.0000      -0.548111       -14.9149
  45   2.0000      -0.521732       -14.1970
  46   2.0000      -0.517077       -14.0704
  47   2.0000      -0.506744       -13.7892
  48   2.0000      -0.501028       -13.6337
  49   2.0000      -0.494502       -13.4561
  50   2.0000      -0.487886       -13.2761
  51   2.0000      -0.480028       -13.0622
  52   2.0000      -0.473011       -12.8713
  53   2.0000      -0.462900       -12.5962
  54   2.0000      -0.457511       -12.4495
  55   2.0000      -0.451378       -12.2826
  56   2.0000      -0.443046       -12.0559
  57   2.0000      -0.435620       -11.8538
  58   2.0000      -0.435092       -11.8395
  59   2.0000      -0.429072       -11.6756
  60   2.0000      -0.418489       -11.3877
  61   2.0000      -0.416232       -11.3263
  62   2.0000      -0.409666       -11.1476
  63   2.0000      -0.356443        -9.6993
  64   2.0000      -0.335880        -9.1397
  65   2.0000      -0.332060        -9.0358
  66   2.0000      -0.287684        -7.8283
  67   0.0000       0.020075         0.5463
  68   0.0000       0.076187         2.0731
  69   0.0000       0.095622         2.6020
  70   0.0000       0.111820         3.0428
  71   0.0000       0.129652         3.5280

MULLIKEN ATOMIC CHARGES
-----------------------
   0 S :    0.098560
   1 C :   -0.109366
   2 C :   -0.073124
   3 C :    0.022154
   4 C :   -0.095379
   5 H :   -0.004755
   6 C :    0.018020
   7 H :    0.024962
   8 H :    0.026885
   9 C :   -0.071948
  10 H :    0.040296
  11 H :    0.038313
  12 C :   -0.023040
  13 H :    0.025732
  14 H :    0.013262
  15 H :    0.015003
  16 S :    0.109753
  17 C :   -0.072073
  18 C :   -0.003610
  19 C :   -0.067799
  20 C :   -0.133208
  21 H :    0.001450
  22 C :    0.055676
  23 H :    0.034931
  24 H :    0.024722
  25 C :   -0.065750
  26 H :    0.027738
  27 H :    0.039262
  28 C :   -0.148140
  29 H :    0.047584
  30 H :    0.066051
  31 H :    0.040011
  32 H :    0.038814
  33 H :    0.059016
Sum of atomic charges:   -0.0000000

LOEWDIN ATOMIC CHARGES
----------------------
   0 S :    0.372998
   1 C :   -0.181479
   2 C :   -0.064133
   3 C :   -0.056689
   4 C :   -0.164605
   5 H :    0.026925
   6 C :   -0.040027
   7 H :    0.032173
   8 H :    0.031630
   9 C :   -0.037232
  10 H :    0.027152
  11 H :    0.029038
  12 C :   -0.070044
  13 H :    0.021888
  14 H :    0.023484
  15 H :    0.021764
  16 S :    0.424075
  17 C :   -0.190883
  18 C :   -0.063199
  19 C :   -0.053356
  20 C :   -0.203812
  21 H :    0.027936
  22 C :   -0.034635
  23 H :    0.039401
  24 H :    0.022784
  25 C :   -0.050366
  26 H :    0.022935
  27 H :    0.026465
  28 C :   -0.087296
  29 H :    0.032968
  30 H :    0.033145
  31 H :    0.026789
  32 H :    0.023437
  33 H :    0.030769

  Mayer bond orders larger than 0.100000
B(  0-S ,  1-C ) :   1.1163 B(  0-S ,  4-C ) :   1.1365 B(  1-C ,  2-C ) :   1.6448
B(  1-C , 32-H ) :   0.9678 B(  2-C ,  3-C ) :   1.2286 B(  2-C ,  6-C ) :   1.0323
B(  3-C ,  4-C ) :   1.5744 B(  3-C ,  5-H ) :   0.9966 B(  4-C , 20-C ) :   1.0390
B(  6-C ,  7-H ) :   0.9411 B(  6-C ,  8-H ) :   0.9393 B(  6-C ,  9-C ) :   1.0568
B(  9-C , 10-H ) :   0.9574 B(  9-C , 11-H ) :   0.9561 B(  9-C , 12-C ) :   1.0733
B( 12-C , 13-H ) :   0.9765 B( 12-C , 14-H ) :   0.9714 B( 12-C , 15-H ) :   0.9732
B( 16-S , 17-C ) :   1.1563 B( 16-S , 20-C ) :   1.1523 B( 17-C , 18-C ) :   1.5843
B( 17-C , 33-H ) :   0.9651 B( 18-C , 19-C ) :   1.2693 B( 18-C , 21-H ) :   0.9978
B( 19-C , 20-C ) :   1.5880 B( 19-C , 22-C ) :   1.0274 B( 22-C , 23-H ) :   0.9393
B( 22-C , 24-H ) :   0.9328 B( 22-C , 25-C ) :   1.0736 B( 25-C , 26-H ) :   0.9619
B( 25-C , 27-H ) :   0.9510 B( 25-C , 28-C ) :   1.0599 B( 28-C , 29-H ) :   0.9762
B( 28-C , 30-H ) :   0.9735 B( 28-C , 31-H ) :   0.9739

Dispersion correction           -0.014959571
FINAL SINGLE POINT ENERGY     -1339.876486996420

DIPOLE MOMENT
-------------
                                X             Y             Z
Electronic contribution:     18.07963     -21.02745     -14.95463
Nuclear contribution   :    -18.50959      21.35912      15.45519
                        -----------------------------------------
Total Dipole Moment    :     -0.42995       0.33167       0.50057
                        -----------------------------------------
Magnitude (a.u.)       :      0.73853
Magnitude (Debye)      :      1.87720

Rotational constants in cm-1:     0.020094     0.008992     0.006747
Rotational constants in MHz :   602.403407   269.564664   202.273299

                             ****ORCA TERMINATED NORMALLY****
TOTAL RUN TIME: 0 days 0 hours 0 minutes 35 seconds 997 msec
