                         Program Version 4.2.1 -  RELEASE  -
|  1> ! wB97X-D3 SP def2-SVP
|  2> %pal
|  3> nprocs 16
|  4> end
|  5>
|  6> * xyz 0 1
|  7> S 	 -7.13101 	 7.70813 	 85.0508
|  8> C 	 -6.6509 	 7.62002 	 86.7823
|  9> C 	 -6.55469 	 8.87474 	 87.3913
| 10> C 	 -6.94627 	 9.86082 	 86.3994
| 11> C 	 -7.20607 	 9.43748 	 85.155
| 12> H 	 -6.98979 	 10.9227 	 86.6221
| 13> C 	 -6.00921 	 9.17248 	 88.7136
| 14> H 	 -6.5185 	 8.45102 	 89.3659
| 15> H 	 -6.42569 	 10.1166 	 88.9668
| 16> C 	 -4.47473 	 9.23064 	 88.8942
| 17> H 	 -4.03411 	 8.23144 	 88.8156
| 18> H 	 -3.95513 	 9.74393 	 88.0534
| 19> C 	 -3.94188 	 9.79726 	 90.2723
| 20> H 	 -4.30015 	 9.12939 	 91.0315
| 21> H 	 -2.81684 	 9.85723 	 90.1739
| 22> H 	 -4.29801 	 10.8296 	 90.3876
| 23> S 	 -6.09887 	 11.3671 	 83.4452
| 24> C 	 -7.06755 	 12.0996 	 82.1942
| 25> C 	 -8.33741 	 11.4347 	 82.0999
| 26> C 	 -8.489 	 10.3798 	 83.0736
| 27> C 	 -7.44017 	 10.3109 	 83.971
| 28> H 	 -9.12168 	 11.7953 	 81.4668
| 29> C 	 -9.66145 	 9.40686 	 83.0201
| 30> H 	 -10.6104 	 9.78922 	 83.1594
| 31> H 	 -9.51707 	 8.68153 	 83.8233
| 32> C 	 -9.77686 	 8.64013 	 81.6813
| 33> H 	 -10.4901 	 9.22194 	 81.0228
| 34> H 	 -10.282 	 7.69638 	 81.6917
| 35> C 	 -8.43126 	 8.22658 	 80.9779
| 36> H 	 -7.8064 	 9.08581 	 80.679
| 37> H 	 -8.59947 	 7.76631 	 80.0558
| 38> H 	 -7.92588 	 7.5661 	 81.7248
| 39> H 	 -6.57034 	 6.71664 	 87.3228
| 40> H 	 -6.92577 	 12.9761 	 81.5957
| 41> *
| 42>
| 43>                          ****END OF INPUT****

CARTESIAN COORDINATES (ANGSTROEM)
---------------------------------
  S     -7.131010    7.708130   85.050800
  C     -6.650900    7.620020   86.782300
  C     -6.554690    8.874740   87.391300
  C     -6.946270    9.860820   86.399400
  C     -7.206070    9.437480   85.155000
  H     -6.989790   10.922700   86.622100
  C     -6.009210    9.172480   88.713600
  H     -6.518500    8.451020   89.365900
  H     -6.425690   10.116600   88.966800
  C     -4.474730    9.230640   88.894200
  H     -4.034110    8.231440   88.815600
  H     -3.955130    9.743930   88.053400
  C     -3.941880    9.797260   90.272300
  H     -4.300150    9.129390   91.031500
  H     -2.816840    9.857230   90.173900
  H     -4.298010   10.829600   90.387600
  S     -6.098870   11.367100   83.445200
  C     -7.067550   12.099600   82.194200
  C     -8.337410   11.434700   82.099900
  C     -8.489000   10.379800   83.073600
  C     -7.440170   10.310900   83.971000
  H     -9.121680   11.795300   81.466800
  C     -9.661450    9.406860   83.020100
  H    -10.610400    9.789220   83.159400
  H     -9.517070    8.681530   83.823300
  C     -9.776860    8.640130   81.681300
  H    -10.490100    9.221940   81.022800
  H    -10.282000    7.696380   81.691700
  C     -8.431260    8.226580   80.977900
  H     -7.806400    9.085810   80.679000
  H     -8.599470    7.766310   80.055800
  H     -7.925880    7.566100   81.724800
  H     -6.570340    6.716640   87.322800
  H     -6.925770   12.976100   81.595700

 Total Charge           Charge          ....    0
 Multiplicity           Mult            ....    1
 Number of Electrons    NEL             ....  134
 Basis Dimension        Dim             ....  322

ORBITAL ENERGIES
----------------

  NO   OCC          E(Eh)            E(eV)
   0   2.0000     -88.969598     -2420.9859
   1   2.0000     -88.967580     -2420.9309
   2   2.0000     -10.330526      -281.1079
   3   2.0000     -10.326240      -280.9913
   4   2.0000     -10.321618      -280.8655
   5   2.0000     -10.316323      -280.7214
   6   2.0000     -10.305977      -280.4399
   7   2.0000     -10.303415      -280.3702
   8   2.0000     -10.297203      -280.2011
   9   2.0000     -10.293836      -280.1095
  10   2.0000     -10.292481      -280.0727
  11   2.0000     -10.290284      -280.0129
  12   2.0000     -10.287792      -279.9451
  13   2.0000     -10.286112      -279.8993
  14   2.0000     -10.285304      -279.8773
  15   2.0000     -10.271122      -279.4914
  16   2.0000      -8.083224      -219.9557
  17   2.0000      -8.081448      -219.9074
  18   2.0000      -6.041837      -164.4067
  19   2.0000      -6.040056      -164.3583
  20   2.0000      -6.037803      -164.2970
  21   2.0000      -6.036172      -164.2526
  22   2.0000      -6.034013      -164.1939
  23   2.0000      -6.032080      -164.1412
  24   2.0000      -1.002284       -27.2735
  25   2.0000      -0.978750       -26.6332
  26   2.0000      -0.912977       -24.8434
  27   2.0000      -0.902285       -24.5524
  28   2.0000      -0.862550       -23.4712
  29   2.0000      -0.846688       -23.0396
  30   2.0000      -0.839792       -22.8519
  31   2.0000      -0.812728       -22.1155
  32   2.0000      -0.786241       -21.3947
  33   2.0000      -0.775601       -21.1052
  34   2.0000      -0.704921       -19.1819
  35   2.0000      -0.700742       -19.0682
  36   2.0000      -0.689373       -18.7588
  37   2.0000      -0.662711       -18.0333
  38   2.0000      -0.639441       -17.4001
  39   2.0000      -0.616898       -16.7866
  40   2.0000      -0.588001       -16.0003
  41   2.0000      -0.569315       -15.4918
  42   2.0000      -0.559749       -15.2315
  43   2.0000      -0.557546       -15.1716
  44   2.0000      -0.543243       -14.7824
  45   2.0000      -0.528140       -14.3714
  46   2.0000      -0.522997       -14.2315
  47   2.0000      -0.508815       -13.8456
  48   2.0000      -0.503272       -13.6947
  49   2.0000      -0.495619       -13.4865
  50   2.0000      -0.491607       -13.3773
  51   2.0000      -0.473752       -12.8915
  52   2.0000      -0.463339       -12.6081
  53   2.0000      -0.458439       -12.4748
  54   2.0000      -0.454622       -12.3709
  55   2.0000      -0.448513       -12.2047
  56   2.0000      -0.441827       -12.0227
  57   2.0000      -0.440130       -11.9765
  58   2.0000      -0.431454       -11.7405
  59   2.0000      -0.426309       -11.6005
  60   2.0000      -0.417978       -11.3738
  61   2.0000      -0.416683       -11.3385
  62   2.0000      -0.402851       -10.9621
  63   2.0000      -0.335991        -9.1428
  64   2.0000      -0.329436        -8.9644
  65   2.0000      -0.327626        -8.9151
  66   2.0000      -0.302616        -8.2346
  67   0.0000       0.033542         0.9127
  68   0.0000       0.064379         1.7519
  69   0.0000       0.102211         2.7813
  70   0.0000       0.111011         3.0208
  71   0.0000       0.121529         3.3070

MULLIKEN ATOMIC CHARGES
-----------------------
   0 S :    0.105894
   1 C :   -0.114391
   2 C :   -0.108305
   3 C :    0.017494
   4 C :   -0.139960
   5 H :    0.007480
   6 C :    0.119986
   7 H :    0.028347
   8 H :    0.003163
   9 C :   -0.092710
  10 H :    0.024265
  11 H :    0.036473
  12 C :   -0.061926
  13 H :    0.042435
  14 H :    0.050698
  15 H :    0.038329
  16 S :    0.123461
  17 C :   -0.086618
  18 C :   -0.046654
  19 C :   -0.043391
  20 C :   -0.167576
  21 H :    0.019710
  22 C :    0.156475
  23 H :    0.013723
  24 H :    0.012762
  25 C :   -0.140654
  26 H :    0.021623
  27 H :    0.028316
  28 C :   -0.035475
  29 H :    0.038586
  30 H :    0.020551
  31 H :    0.039668
  32 H :    0.032676
  33 H :    0.055547
Sum of atomic charges:   -0.0000000

LOEWDIN ATOMIC CHARGES
----------------------
   0 S :    0.393369
   1 C :   -0.171039
   2 C :   -0.057803
   3 C :   -0.061687
   4 C :   -0.202451
   5 H :    0.030114
   6 C :   -0.036966
   7 H :    0.038043
   8 H :    0.026829
   9 C :   -0.042990
  10 H :    0.022849
  11 H :    0.028882
  12 C :   -0.063235
  13 H :    0.023141
  14 H :    0.037348
  15 H :    0.024360
  16 S :    0.405985
  17 C :   -0.192086
  18 C :   -0.065239
  19 C :   -0.049956
  20 C :   -0.188568
  21 H :    0.027506
  22 C :   -0.026097
  23 H :    0.023478
  24 H :    0.022841
  25 C :   -0.046426
  26 H :    0.020596
  27 H :    0.023728
  28 C :   -0.065641
  29 H :    0.027306
  30 H :    0.016621
  31 H :    0.030130
  32 H :    0.017037
  33 H :    0.030021

  Mayer bond orders larger than 0.100000
B(  0-S ,  1-C ) :   1.1316 B(  0-S ,  4-C ) :   1.1247 B(  1-C ,  2-C ) :   1.6172
B(  1-C , 32-H ) :   0.9726 B(  2-C ,  3-C ) :   1.2146 B(  2-C ,  6-C ) :   1.0384
B(  3-C ,  4-C ) :   1.6258 B(  3-C ,  5-H ) :   0.9942 B(  4-C , 20-C ) :   1.0051
B(  6-C ,  7-H ) :   0.9257 B(  6-C ,  8-H ) :   0.9289 B(  6-C ,  9-C ) :   1.0500
B(  9-C , 10-H ) :   0.9544 B(  9-C , 11-H ) :   0.9593 B(  9-C , 12-C ) :   1.0753
B( 12-C , 13-H ) :   0.9781 B( 12-C , 14-H ) :   0.9752 B( 12-C , 15-H ) :   0.9783
B( 16-S , 17-C ) :   1.1596 B( 16-S , 20-C ) :   1.1356 B( 17-C , 18-C ) :   1.5930
B( 17-C , 33-H ) :   0.9688 B( 18-C , 19-C ) :   1.2371 B( 18-C , 21-H ) :   0.9893
B( 19-C , 20-C ) :   1.6026 B( 19-C , 22-C ) :   1.0556 B( 22-C , 23-H ) :   0.9356
B( 22-C , 24-H ) :   0.9261 B( 22-C , 25-C ) :   1.0509 B( 25-C , 26-H ) :   0.9558
B( 25-C , 27-H ) :   0.9612 B( 25-C , 28-C ) :   1.0760 B( 28-C , 29-H ) :   0.9684
B( 28-C , 30-H ) :   0.9737 B( 28-C , 31-H ) :   0.9757

Dispersion correction           -0.014810672
FINAL SINGLE POINT ENERGY     -1339.865725535289

DIPOLE MOMENT
-------------
                                X             Y             Z
Electronic contribution:      0.13685       3.57560      -7.68260
Nuclear contribution   :     -0.30362      -3.47746       7.96548
                        -----------------------------------------
Total Dipole Moment    :     -0.16677       0.09813       0.28287
                        -----------------------------------------
Magnitude (a.u.)       :      0.34272
Magnitude (Debye)      :      0.87113

Rotational constants in cm-1:     0.026031     0.007279     0.006163
Rotational constants in MHz :   780.383325   218.208967   184.768360

                             ****ORCA TERMINATED NORMALLY****
TOTAL RUN TIME: 0 days 0 hours 0 minutes 32 seconds 438 msec
