                         Program Version 4.2.1 -  RELEASE  -
|  1> ! wB97X-D3 SP def2-SVP
|  2> %pal
|  3> nprocs 16
|  4> end
|  5>
|  6> * xyz 0 1
|  7> S 	 -4.53808 	 38.4101 	 34.3168
|  8> C 	 -6.08943 	 37.6812 	 34.7002
|  9> C 	 -7.04696 	 38.6439 	 34.6961
| 10> C 	 -6.52929 	 39.9811 	 34.4875
| 11> C 	 -5.15876 	 40.0168 	 34.2681
| 12> H 	 -7.14363 	 40.8988 	 34.561
| 13> C 	 -8.53895 	 38.3127 	 34.9011
| 14> H 	 -9.05583 	 38.9955 	 35.5823
| 15> H 	 -8.43778 	 37.2705 	 35.2507
| 16> C 	 -9.31507 	 38.3601 	 33.6074
| 17> H 	 -9.13652 	 39.3417 	 33.127
| 18> H 	 -8.87767 	 37.5927 	 32.9854
| 19> C 	 -10.7506 	 38.1372 	 33.7925
| 20> H 	 -11.1644 	 38.4411 	 32.7747
| 21> H 	 -10.9558 	 37.0724 	 34.2565
| 22> H 	 -11.2615 	 38.8907 	 34.4084
| 23> S 	 -2.69315 	 40.9216 	 34.81
| 24> C 	 -2.26674 	 42.4805 	 34.1587
| 25> C 	 -3.36959 	 43.1547 	 33.6466
| 26> C 	 -4.5401 	 42.3978 	 33.6042
| 27> C 	 -4.26387 	 41.1381 	 34.1169
| 28> H 	 -3.12251 	 44.1514 	 33.3802
| 29> C 	 -5.85623 	 42.8305 	 32.8778
| 30> H 	 -6.34496 	 42.0071 	 32.4749
| 31> H 	 -5.60559 	 43.377 	 31.9792
| 32> C 	 -6.84162 	 43.5383 	 33.7999
| 33> H 	 -6.39983 	 44.4771 	 34.0686
| 34> H 	 -6.98338 	 42.9738 	 34.7515
| 35> C 	 -8.16868 	 43.8185 	 33.0311
| 36> H 	 -7.95862 	 44.3874 	 32.1168
| 37> H 	 -8.89685 	 44.3671 	 33.6623
| 38> H 	 -8.72656 	 42.9236 	 32.6803
| 39> H 	 -6.32776 	 36.6978 	 34.9668
| 40> H 	 -1.29919 	 42.9851 	 34.2134
| 41> *
| 42>
| 43>                          ****END OF INPUT****

CARTESIAN COORDINATES (ANGSTROEM)
---------------------------------
  S     -4.538080   38.410100   34.316800
  C     -6.089430   37.681200   34.700200
  C     -7.046960   38.643900   34.696100
  C     -6.529290   39.981100   34.487500
  C     -5.158760   40.016800   34.268100
  H     -7.143630   40.898800   34.561000
  C     -8.538950   38.312700   34.901100
  H     -9.055830   38.995500   35.582300
  H     -8.437780   37.270500   35.250700
  C     -9.315070   38.360100   33.607400
  H     -9.136520   39.341700   33.127000
  H     -8.877670   37.592700   32.985400
  C    -10.750600   38.137200   33.792500
  H    -11.164400   38.441100   32.774700
  H    -10.955800   37.072400   34.256500
  H    -11.261500   38.890700   34.408400
  S     -2.693150   40.921600   34.810000
  C     -2.266740   42.480500   34.158700
  C     -3.369590   43.154700   33.646600
  C     -4.540100   42.397800   33.604200
  C     -4.263870   41.138100   34.116900
  H     -3.122510   44.151400   33.380200
  C     -5.856230   42.830500   32.877800
  H     -6.344960   42.007100   32.474900
  H     -5.605590   43.377000   31.979200
  C     -6.841620   43.538300   33.799900
  H     -6.399830   44.477100   34.068600
  H     -6.983380   42.973800   34.751500
  C     -8.168680   43.818500   33.031100
  H     -7.958620   44.387400   32.116800
  H     -8.896850   44.367100   33.662300
  H     -8.726560   42.923600   32.680300
  H     -6.327760   36.697800   34.966800
  H     -1.299190   42.985100   34.213400

 Total Charge           Charge          ....    0
 Multiplicity           Mult            ....    1
 Number of Electrons    NEL             ....  134
 Basis Dimension        Dim             ....  322

ORBITAL ENERGIES
----------------

  NO   OCC          E(Eh)            E(eV)
   0   2.0000     -88.971453     -2421.0363
   1   2.0000     -88.962920     -2420.8041
   2   2.0000     -10.326800      -281.0065
   3   2.0000     -10.325067      -280.9594
   4   2.0000     -10.314492      -280.6716
   5   2.0000     -10.306310      -280.4490
   6   2.0000     -10.305526      -280.4276
   7   2.0000     -10.297767      -280.2165
   8   2.0000     -10.294081      -280.1162
   9   2.0000     -10.292648      -280.0772
  10   2.0000     -10.290695      -280.0241
  11   2.0000     -10.290339      -280.0144
  12   2.0000     -10.290008      -280.0054
  13   2.0000     -10.288958      -279.9768
  14   2.0000     -10.287999      -279.9507
  15   2.0000     -10.279111      -279.7088
  16   2.0000      -8.086414      -220.0425
  17   2.0000      -8.078040      -219.8146
  18   2.0000      -6.044711      -164.4850
  19   2.0000      -6.041023      -164.3846
  20   2.0000      -6.037241      -164.2817
  21   2.0000      -6.036730      -164.2678
  22   2.0000      -6.032405      -164.1501
  23   2.0000      -6.028664      -164.0483
  24   2.0000      -1.014092       -27.5949
  25   2.0000      -0.987289       -26.8655
  26   2.0000      -0.920934       -25.0599
  27   2.0000      -0.911947       -24.8153
  28   2.0000      -0.876338       -23.8464
  29   2.0000      -0.855200       -23.2712
  30   2.0000      -0.841912       -22.9096
  31   2.0000      -0.814958       -22.1761
  32   2.0000      -0.784250       -21.3405
  33   2.0000      -0.771882       -21.0040
  34   2.0000      -0.710498       -19.3336
  35   2.0000      -0.702777       -19.1235
  36   2.0000      -0.686950       -18.6929
  37   2.0000      -0.663411       -18.0523
  38   2.0000      -0.636948       -17.3322
  39   2.0000      -0.621250       -16.9051
  40   2.0000      -0.598316       -16.2810
  41   2.0000      -0.578566       -15.7436
  42   2.0000      -0.570005       -15.5106
  43   2.0000      -0.562320       -15.3015
  44   2.0000      -0.530795       -14.4437
  45   2.0000      -0.524365       -14.2687
  46   2.0000      -0.519816       -14.1449
  47   2.0000      -0.508865       -13.8469
  48   2.0000      -0.502599       -13.6764
  49   2.0000      -0.500039       -13.6067
  50   2.0000      -0.493634       -13.4325
  51   2.0000      -0.487711       -13.2713
  52   2.0000      -0.468345       -12.7443
  53   2.0000      -0.464443       -12.6381
  54   2.0000      -0.459355       -12.4997
  55   2.0000      -0.452167       -12.3041
  56   2.0000      -0.447644       -12.1810
  57   2.0000      -0.440856       -11.9963
  58   2.0000      -0.431995       -11.7552
  59   2.0000      -0.426409       -11.6032
  60   2.0000      -0.423078       -11.5125
  61   2.0000      -0.418204       -11.3799
  62   2.0000      -0.405154       -11.0248
  63   2.0000      -0.354676        -9.6512
  64   2.0000      -0.339765        -9.2455
  65   2.0000      -0.326884        -8.8950
  66   2.0000      -0.285401        -7.7662
  67   0.0000       0.022568         0.6141
  68   0.0000       0.085500         2.3266
  69   0.0000       0.106213         2.8902
  70   0.0000       0.122475         3.3327
  71   0.0000       0.124791         3.3957

MULLIKEN ATOMIC CHARGES
-----------------------
   0 S :    0.093517
   1 C :   -0.094145
   2 C :   -0.109723
   3 C :    0.009870
   4 C :   -0.121071
   5 H :    0.000633
   6 C :    0.075516
   7 H :    0.023357
   8 H :    0.012231
   9 C :   -0.080203
  10 H :    0.026968
  11 H :    0.023926
  12 C :   -0.053806
  13 H :    0.040257
  14 H :    0.055045
  15 H :    0.025483
  16 S :    0.130644
  17 C :   -0.101833
  18 C :   -0.045501
  19 C :   -0.002960
  20 C :   -0.140931
  21 H :    0.000968
  22 C :    0.092298
  23 H :   -0.000097
  24 H :    0.022583
  25 C :   -0.073927
  26 H :    0.022562
  27 H :    0.047003
  28 C :   -0.063287
  29 H :    0.033774
  30 H :    0.042701
  31 H :    0.033239
  32 H :    0.021621
  33 H :    0.053289
Sum of atomic charges:   -0.0000000

LOEWDIN ATOMIC CHARGES
----------------------
   0 S :    0.405236
   1 C :   -0.197237
   2 C :   -0.058304
   3 C :   -0.079069
   4 C :   -0.194313
   5 H :    0.031184
   6 C :   -0.028571
   7 H :    0.027054
   8 H :    0.029387
   9 C :   -0.052803
  10 H :    0.025500
  11 H :    0.024666
  12 C :   -0.079708
  13 H :    0.039488
  14 H :    0.040903
  15 H :    0.021738
  16 S :    0.424672
  17 C :   -0.194580
  18 C :   -0.065932
  19 C :   -0.050861
  20 C :   -0.197640
  21 H :    0.027328
  22 C :   -0.020905
  23 H :    0.018818
  24 H :    0.031362
  25 C :   -0.037824
  26 H :    0.022143
  27 H :    0.027164
  28 C :   -0.071629
  29 H :    0.027386
  30 H :    0.028969
  31 H :    0.025520
  32 H :    0.020114
  33 H :    0.030745

  Mayer bond orders larger than 0.100000
B(  0-S ,  1-C ) :   1.1123 B(  0-S ,  4-C ) :   1.1537 B(  1-C ,  2-C ) :   1.6376
B(  1-C , 32-H ) :   0.9700 B(  2-C ,  3-C ) :   1.2372 B(  2-C ,  6-C ) :   1.0243
B(  3-C ,  4-C ) :   1.5536 B(  3-C ,  5-H ) :   0.9853 B(  4-C , 20-C ) :   1.0644
B(  6-C ,  7-H ) :   0.9409 B(  6-C ,  8-H ) :   0.9357 B(  6-C ,  9-C ) :   1.0707
B(  9-C , 10-H ) :   0.9527 B(  9-C , 11-H ) :   0.9463 B(  9-C , 12-C ) :   1.0978
B( 12-C , 13-H ) :   0.9684 B( 12-C , 14-H ) :   0.9663 B( 12-C , 15-H ) :   0.9680
B( 16-S , 17-C ) :   1.1417 B( 16-S , 20-C ) :   1.1627 B( 17-C , 18-C ) :   1.6199
B( 17-C , 20-C ) :   0.1033 B( 17-C , 33-H ) :   0.9659 B( 18-C , 19-C ) :   1.2340
B( 18-C , 21-H ) :   0.9989 B( 19-C , 20-C ) :   1.5705 B( 19-C , 22-C ) :   1.0232
B( 22-C , 23-H ) :   0.9339 B( 22-C , 24-H ) :   0.9388 B( 22-C , 25-C ) :   1.0548
B( 25-C , 26-H ) :   0.9505 B( 25-C , 27-H ) :   0.9534 B( 25-C , 28-C ) :   1.0728
B( 28-C , 29-H ) :   0.9722 B( 28-C , 30-H ) :   0.9754 B( 28-C , 31-H ) :   0.9755

Dispersion correction           -0.014131827
FINAL SINGLE POINT ENERGY     -1339.871394505815

DIPOLE MOMENT
-------------
                                X             Y             Z
Electronic contribution:     31.93864      -7.19749       6.23553
Nuclear contribution   :    -32.44046       7.65815      -6.35191
                        -----------------------------------------
Total Dipole Moment    :     -0.50181       0.46066      -0.11637
                        -----------------------------------------
Magnitude (a.u.)       :      0.69106
Magnitude (Debye)      :      1.75655

Rotational constants in cm-1:     0.018284     0.009485     0.006463
Rotational constants in MHz :   548.153857   284.365648   193.756618

                             ****ORCA TERMINATED NORMALLY****
TOTAL RUN TIME: 0 days 0 hours 0 minutes 32 seconds 515 msec
