                         Program Version 4.2.1 -  RELEASE  -
|  1> ! wB97X-D3 SP def2-SVP
|  2> %pal
|  3> nprocs 16
|  4> end
|  5>
|  6> * xyz 0 1
|  7> S 	 41.5005 	 10.8529 	 81.3155
|  8> C 	 42.0435 	 11.499 	 79.8091
|  9> C 	 43.2855 	 12.1092 	 79.9348
| 10> C 	 43.8026 	 12.0886 	 81.2485
| 11> C 	 43.0448 	 11.3601 	 82.1777
| 12> H 	 44.8175 	 12.3151 	 81.5436
| 13> C 	 44.081 	 12.6205 	 78.7068
| 14> H 	 43.2156 	 12.9386 	 78.1352
| 15> H 	 44.6745 	 11.7473 	 78.3596
| 16> C 	 44.9621 	 13.9222 	 79.0334
| 17> H 	 45.7303 	 13.6429 	 79.7494
| 18> H 	 45.4909 	 14.2866 	 78.1324
| 19> C 	 44.1317 	 15.05 	 79.7228
| 20> H 	 44.8473 	 15.7066 	 80.2272
| 21> H 	 43.4705 	 15.5995 	 79.0489
| 22> H 	 43.4768 	 14.7335 	 80.4833
| 23> S 	 44.8565 	 10.9169 	 84.2863
| 24> C 	 44.1894 	 10.5695 	 85.8391
| 25> C 	 42.8548 	 10.965 	 85.8884
| 26> C 	 42.2738 	 11.2232 	 84.6186
| 27> C 	 43.236 	 11.2802 	 83.6036
| 28> H 	 42.2721 	 10.9322 	 86.7767
| 29> C 	 40.8245 	 11.5327 	 84.4897
| 30> H 	 40.4059 	 11.3627 	 85.5036
| 31> H 	 40.4085 	 10.8253 	 83.8204
| 32> C 	 40.4264 	 12.9174 	 83.8962
| 33> H 	 40.6932 	 12.9209 	 82.8439
| 34> H 	 40.8628 	 13.7858 	 84.3158
| 35> C 	 38.9341 	 13.0138 	 83.6934
| 36> H 	 38.6241 	 13.819 	 82.9327
| 37> H 	 38.467 	 13.3619 	 84.6078
| 38> H 	 38.4288 	 12.057 	 83.3763
| 39> H 	 41.5318 	 11.578 	 78.8582
| 40> H 	 44.8232 	 10.276 	 86.7043
| 41> *
| 42>
| 43>                          ****END OF INPUT****

CARTESIAN COORDINATES (ANGSTROEM)
---------------------------------
  S     41.500500   10.852900   81.315500
  C     42.043500   11.499000   79.809100
  C     43.285500   12.109200   79.934800
  C     43.802600   12.088600   81.248500
  C     43.044800   11.360100   82.177700
  H     44.817500   12.315100   81.543600
  C     44.081000   12.620500   78.706800
  H     43.215600   12.938600   78.135200
  H     44.674500   11.747300   78.359600
  C     44.962100   13.922200   79.033400
  H     45.730300   13.642900   79.749400
  H     45.490900   14.286600   78.132400
  C     44.131700   15.050000   79.722800
  H     44.847300   15.706600   80.227200
  H     43.470500   15.599500   79.048900
  H     43.476800   14.733500   80.483300
  S     44.856500   10.916900   84.286300
  C     44.189400   10.569500   85.839100
  C     42.854800   10.965000   85.888400
  C     42.273800   11.223200   84.618600
  C     43.236000   11.280200   83.603600
  H     42.272100   10.932200   86.776700
  C     40.824500   11.532700   84.489700
  H     40.405900   11.362700   85.503600
  H     40.408500   10.825300   83.820400
  C     40.426400   12.917400   83.896200
  H     40.693200   12.920900   82.843900
  H     40.862800   13.785800   84.315800
  C     38.934100   13.013800   83.693400
  H     38.624100   13.819000   82.932700
  H     38.467000   13.361900   84.607800
  H     38.428800   12.057000   83.376300
  H     41.531800   11.578000   78.858200
  H     44.823200   10.276000   86.704300

 Total Charge           Charge          ....    0
 Multiplicity           Mult            ....    1
 Number of Electrons    NEL             ....  134
 Basis Dimension        Dim             ....  322

ORBITAL ENERGIES
----------------

  NO   OCC          E(Eh)            E(eV)
   0   2.0000     -88.970744     -2421.0170
   1   2.0000     -88.969132     -2420.9732
   2   2.0000     -10.338393      -281.3220
   3   2.0000     -10.330135      -281.0973
   4   2.0000     -10.323762      -280.9239
   5   2.0000     -10.313843      -280.6539
   6   2.0000     -10.302366      -280.3416
   7   2.0000     -10.299773      -280.2711
   8   2.0000     -10.299107      -280.2529
   9   2.0000     -10.295674      -280.1595
  10   2.0000     -10.293807      -280.1087
  11   2.0000     -10.293563      -280.1021
  12   2.0000     -10.290867      -280.0287
  13   2.0000     -10.279761      -279.7265
  14   2.0000     -10.276359      -279.6340
  15   2.0000     -10.273557      -279.5577
  16   2.0000      -8.083476      -219.9626
  17   2.0000      -8.083435      -219.9614
  18   2.0000      -6.042175      -164.4159
  19   2.0000      -6.042028      -164.4119
  20   2.0000      -6.038121      -164.3056
  21   2.0000      -6.038037      -164.3033
  22   2.0000      -6.034239      -164.2000
  23   2.0000      -6.034188      -164.1986
  24   2.0000      -1.002964       -27.2920
  25   2.0000      -0.981582       -26.7102
  26   2.0000      -0.911736       -24.8096
  27   2.0000      -0.899677       -24.4815
  28   2.0000      -0.870417       -23.6853
  29   2.0000      -0.856072       -23.2949
  30   2.0000      -0.840853       -22.8808
  31   2.0000      -0.813198       -22.1282
  32   2.0000      -0.780711       -21.2442
  33   2.0000      -0.766458       -20.8564
  34   2.0000      -0.712508       -19.3883
  35   2.0000      -0.696966       -18.9654
  36   2.0000      -0.690532       -18.7903
  37   2.0000      -0.669588       -18.2204
  38   2.0000      -0.631389       -17.1810
  39   2.0000      -0.615583       -16.7509
  40   2.0000      -0.598053       -16.2738
  41   2.0000      -0.568609       -15.4726
  42   2.0000      -0.558595       -15.2002
  43   2.0000      -0.555379       -15.1126
  44   2.0000      -0.531339       -14.4585
  45   2.0000      -0.521664       -14.1952
  46   2.0000      -0.517279       -14.0759
  47   2.0000      -0.516145       -14.0450
  48   2.0000      -0.507911       -13.8210
  49   2.0000      -0.491421       -13.3722
  50   2.0000      -0.487904       -13.2765
  51   2.0000      -0.482522       -13.1301
  52   2.0000      -0.471421       -12.8280
  53   2.0000      -0.469742       -12.7823
  54   2.0000      -0.454874       -12.3777
  55   2.0000      -0.448388       -12.2013
  56   2.0000      -0.441970       -12.0266
  57   2.0000      -0.437223       -11.8974
  58   2.0000      -0.433901       -11.8070
  59   2.0000      -0.425038       -11.5659
  60   2.0000      -0.417292       -11.3551
  61   2.0000      -0.412774       -11.2322
  62   2.0000      -0.399710       -10.8767
  63   2.0000      -0.359138        -9.7726
  64   2.0000      -0.332732        -9.0541
  65   2.0000      -0.328522        -8.9395
  66   2.0000      -0.279821        -7.6143
  67   0.0000       0.014284         0.3887
  68   0.0000       0.069489         1.8909
  69   0.0000       0.106348         2.8939
  70   0.0000       0.109932         2.9914
  71   0.0000       0.130601         3.5538

MULLIKEN ATOMIC CHARGES
-----------------------
   0 S :    0.075824
   1 C :   -0.099056
   2 C :   -0.151155
   3 C :    0.021399
   4 C :   -0.131480
   5 H :    0.017000
   6 C :    0.080825
   7 H :    0.022427
   8 H :    0.069875
   9 C :   -0.091727
  10 H :    0.030556
  11 H :    0.043787
  12 C :   -0.058330
  13 H :    0.034147
  14 H :    0.032464
  15 H :    0.034281
  16 S :    0.100818
  17 C :   -0.108296
  18 C :   -0.013541
  19 C :   -0.075840
  20 C :   -0.123332
  21 H :    0.008090
  22 C :    0.074626
  23 H :    0.020494
  24 H :    0.023332
  25 C :   -0.030881
  26 H :    0.032184
  27 H :    0.025284
  28 C :   -0.090939
  29 H :    0.039560
  30 H :    0.022389
  31 H :    0.039298
  32 H :    0.046516
  33 H :    0.079404
Sum of atomic charges:   -0.0000000

LOEWDIN ATOMIC CHARGES
----------------------
   0 S :    0.397446
   1 C :   -0.211694
   2 C :   -0.071802
   3 C :   -0.067968
   4 C :   -0.156501
   5 H :    0.028198
   6 C :   -0.029166
   7 H :    0.029426
   8 H :    0.041977
   9 C :   -0.040422
  10 H :    0.020291
  11 H :    0.029037
  12 C :   -0.066360
  13 H :    0.030440
  14 H :    0.024919
  15 H :    0.020895
  16 S :    0.401822
  17 C :   -0.192611
  18 C :   -0.069433
  19 C :   -0.053679
  20 C :   -0.190116
  21 H :    0.025197
  22 C :   -0.031766
  23 H :    0.033129
  24 H :    0.021754
  25 C :   -0.042459
  26 H :    0.020067
  27 H :    0.020242
  28 C :   -0.072317
  29 H :    0.032961
  30 H :    0.015836
  31 H :    0.030128
  32 H :    0.032819
  33 H :    0.039710

  Mayer bond orders larger than 0.100000
B(  0-S ,  1-C ) :   1.1350 B(  0-S ,  4-C ) :   1.1220 B(  1-C ,  2-C ) :   1.6174
B(  1-C , 32-H ) :   0.9602 B(  2-C ,  3-C ) :   1.2633 B(  2-C ,  6-C ) :   0.9790
B(  3-C ,  4-C ) :   1.5550 B(  3-C ,  5-H ) :   0.9843 B(  4-C , 20-C ) :   1.0854
B(  6-C ,  7-H ) :   0.9422 B(  6-C ,  8-H ) :   0.9472 B(  6-C ,  9-C ) :   1.0655
B(  9-C , 10-H ) :   0.9573 B(  9-C , 11-H ) :   0.9610 B(  9-C , 12-C ) :   1.0704
B( 12-C , 13-H ) :   0.9756 B( 12-C , 14-H ) :   0.9768 B( 12-C , 15-H ) :   0.9722
B( 16-S , 17-C ) :   1.1758 B( 16-S , 20-C ) :   1.1211 B( 17-C , 18-C ) :   1.5657
B( 17-C , 33-H ) :   0.9618 B( 18-C , 19-C ) :   1.2784 B( 18-C , 21-H ) :   0.9892
B( 19-C , 20-C ) :   1.5401 B( 19-C , 22-C ) :   1.0569 B( 22-C , 23-H ) :   0.9314
B( 22-C , 24-H ) :   0.9143 B( 22-C , 25-C ) :   1.0681 B( 25-C , 26-H ) :   0.9450
B( 25-C , 27-H ) :   0.9598 B( 25-C , 28-C ) :   1.0715 B( 28-C , 29-H ) :   0.9762
B( 28-C , 30-H ) :   0.9762 B( 28-C , 31-H ) :   0.9704

Dispersion correction           -0.015032824
FINAL SINGLE POINT ENERGY     -1339.862888578002

DIPOLE MOMENT
-------------
                                X             Y             Z
Electronic contribution:      7.85433     -16.68960       7.77760
Nuclear contribution   :     -7.85915      16.96335      -7.76627
                        -----------------------------------------
Total Dipole Moment    :     -0.00482       0.27376       0.01133
                        -----------------------------------------
Magnitude (a.u.)       :      0.27403
Magnitude (Debye)      :      0.69654

Rotational constants in cm-1:     0.017757     0.009684     0.007642
Rotational constants in MHz :   532.348327   290.330991   229.106374

                             ****ORCA TERMINATED NORMALLY****
TOTAL RUN TIME: 0 days 0 hours 0 minutes 29 seconds 864 msec
