                         Program Version 4.2.1 -  RELEASE  -
|  1> ! wB97X-D3 SP def2-SVP
|  2> %pal
|  3> nprocs 16
|  4> end
|  5>
|  6> * xyz 0 1
|  7> S 	 15.667 	 -10.0759 	 79.3781
|  8> C 	 15.5152 	 -11.8117 	 79.6437
|  9> C 	 16.5076 	 -12.255 	 80.5119
| 10> C 	 17.568 	 -11.3093 	 80.7067
| 11> C 	 17.3349 	 -10.1043 	 80.0852
| 12> H 	 18.5108 	 -11.5236 	 81.2173
| 13> C 	 16.5352 	 -13.6561 	 81.1555
| 14> H 	 16.6214 	 -14.4007 	 80.4206
| 15> H 	 15.615 	 -13.6907 	 81.6826
| 16> C 	 17.6865 	 -13.9171 	 82.2006
| 17> H 	 18.668 	 -14.0482 	 81.7052
| 18> H 	 17.7882 	 -13.2093 	 83.0511
| 19> C 	 17.5102 	 -15.1902 	 83.0188
| 20> H 	 16.7307 	 -15.0274 	 83.8261
| 21> H 	 17.0384 	 -16.0129 	 82.4276
| 22> H 	 18.3633 	 -15.5531 	 83.4978
| 23> S 	 17.3833 	 -7.30329 	 80.2886
| 24> C 	 18.8895 	 -6.51057 	 79.9109
| 25> C 	 19.9486 	 -7.34339 	 79.7978
| 26> C 	 19.5587 	 -8.71898 	 79.8926
| 27> C 	 18.1951 	 -8.88616 	 80.0432
| 28> H 	 20.9411 	 -6.94561 	 79.6364
| 29> C 	 20.554 	 -9.80158 	 79.6915
| 30> H 	 20.0938 	 -10.7765 	 79.4703
| 31> H 	 21.0136 	 -10.0376 	 80.6815
| 32> C 	 21.6053 	 -9.58972 	 78.5863
| 33> H 	 22.1867 	 -8.7006 	 78.808
| 34> H 	 21.1615 	 -9.36492 	 77.5876
| 35> C 	 22.6145 	 -10.6828 	 78.5247
| 36> H 	 23.1257 	 -10.7987 	 79.4772
| 37> H 	 23.3649 	 -10.5028 	 77.7278
| 38> H 	 22.2118 	 -11.6646 	 78.2456
| 39> H 	 14.6385 	 -12.4726 	 79.47
| 40> H 	 19.071 	 -5.38926 	 79.9067
| 41> *
| 42>
| 43>                          ****END OF INPUT****

CARTESIAN COORDINATES (ANGSTROEM)
---------------------------------
  S     15.667000  -10.075900   79.378100
  C     15.515200  -11.811700   79.643700
  C     16.507600  -12.255000   80.511900
  C     17.568000  -11.309300   80.706700
  C     17.334900  -10.104300   80.085200
  H     18.510800  -11.523600   81.217300
  C     16.535200  -13.656100   81.155500
  H     16.621400  -14.400700   80.420600
  H     15.615000  -13.690700   81.682600
  C     17.686500  -13.917100   82.200600
  H     18.668000  -14.048200   81.705200
  H     17.788200  -13.209300   83.051100
  C     17.510200  -15.190200   83.018800
  H     16.730700  -15.027400   83.826100
  H     17.038400  -16.012900   82.427600
  H     18.363300  -15.553100   83.497800
  S     17.383300   -7.303290   80.288600
  C     18.889500   -6.510570   79.910900
  C     19.948600   -7.343390   79.797800
  C     19.558700   -8.718980   79.892600
  C     18.195100   -8.886160   80.043200
  H     20.941100   -6.945610   79.636400
  C     20.554000   -9.801580   79.691500
  H     20.093800  -10.776500   79.470300
  H     21.013600  -10.037600   80.681500
  C     21.605300   -9.589720   78.586300
  H     22.186700   -8.700600   78.808000
  H     21.161500   -9.364920   77.587600
  C     22.614500  -10.682800   78.524700
  H     23.125700  -10.798700   79.477200
  H     23.364900  -10.502800   77.727800
  H     22.211800  -11.664600   78.245600
  H     14.638500  -12.472600   79.470000
  H     19.071000   -5.389260   79.906700

 Total Charge           Charge          ....    0
 Multiplicity           Mult            ....    1
 Number of Electrons    NEL             ....  134
 Basis Dimension        Dim             ....  322

ORBITAL ENERGIES
----------------

  NO   OCC          E(Eh)            E(eV)
   0   2.0000     -88.966758     -2420.9086
   1   2.0000     -88.965172     -2420.8654
   2   2.0000     -10.336113      -281.2599
   3   2.0000     -10.330852      -281.1168
   4   2.0000     -10.317768      -280.7607
   5   2.0000     -10.316468      -280.7254
   6   2.0000     -10.303223      -280.3650
   7   2.0000     -10.302811      -280.3537
   8   2.0000     -10.295561      -280.1565
   9   2.0000     -10.295129      -280.1447
  10   2.0000     -10.294354      -280.1236
  11   2.0000     -10.292976      -280.0861
  12   2.0000     -10.289976      -280.0045
  13   2.0000     -10.286883      -279.9203
  14   2.0000     -10.280239      -279.7395
  15   2.0000     -10.278324      -279.6874
  16   2.0000      -8.080090      -219.8704
  17   2.0000      -8.079465      -219.8534
  18   2.0000      -6.038833      -164.3250
  19   2.0000      -6.038112      -164.3054
  20   2.0000      -6.035004      -164.2208
  21   2.0000      -6.034228      -164.1997
  22   2.0000      -6.030458      -164.0971
  23   2.0000      -6.029926      -164.0826
  24   2.0000      -1.000386       -27.2219
  25   2.0000      -0.979793       -26.6615
  26   2.0000      -0.913401       -24.8549
  27   2.0000      -0.907122       -24.6840
  28   2.0000      -0.866969       -23.5914
  29   2.0000      -0.855712       -23.2851
  30   2.0000      -0.844101       -22.9692
  31   2.0000      -0.818183       -22.2639
  32   2.0000      -0.781686       -21.2707
  33   2.0000      -0.768336       -20.9075
  34   2.0000      -0.708270       -19.2730
  35   2.0000      -0.699506       -19.0345
  36   2.0000      -0.687087       -18.6966
  37   2.0000      -0.652199       -17.7472
  38   2.0000      -0.634731       -17.2719
  39   2.0000      -0.618931       -16.8420
  40   2.0000      -0.598894       -16.2967
  41   2.0000      -0.578278       -15.7357
  42   2.0000      -0.565451       -15.3867
  43   2.0000      -0.563074       -15.3220
  44   2.0000      -0.531197       -14.4546
  45   2.0000      -0.524239       -14.2653
  46   2.0000      -0.512320       -13.9409
  47   2.0000      -0.503436       -13.6992
  48   2.0000      -0.501303       -13.6411
  49   2.0000      -0.498682       -13.5698
  50   2.0000      -0.493776       -13.4363
  51   2.0000      -0.479606       -13.0507
  52   2.0000      -0.467183       -12.7127
  53   2.0000      -0.464116       -12.6292
  54   2.0000      -0.457806       -12.4575
  55   2.0000      -0.454118       -12.3572
  56   2.0000      -0.450243       -12.2517
  57   2.0000      -0.436180       -11.8691
  58   2.0000      -0.430765       -11.7217
  59   2.0000      -0.423363       -11.5203
  60   2.0000      -0.420864       -11.4523
  61   2.0000      -0.416235       -11.3263
  62   2.0000      -0.408481       -11.1153
  63   2.0000      -0.352411        -9.5896
  64   2.0000      -0.331877        -9.0308
  65   2.0000      -0.329198        -8.9579
  66   2.0000      -0.286944        -7.8081
  67   0.0000       0.025762         0.7010
  68   0.0000       0.069733         1.8975
  69   0.0000       0.102573         2.7911
  70   0.0000       0.129530         3.5247
  71   0.0000       0.132392         3.6026

MULLIKEN ATOMIC CHARGES
-----------------------
   0 S :    0.100943
   1 C :   -0.122242
   2 C :   -0.130431
   3 C :    0.018142
   4 C :   -0.121910
   5 H :    0.026213
   6 C :    0.114156
   7 H :    0.036447
   8 H :    0.029481
   9 C :   -0.129957
  10 H :    0.039790
  11 H :    0.046084
  12 C :   -0.056075
  13 H :    0.030072
  14 H :    0.023546
  15 H :    0.029179
  16 S :    0.096657
  17 C :   -0.097193
  18 C :   -0.041013
  19 C :   -0.008886
  20 C :   -0.150753
  21 H :    0.018180
  22 C :    0.029719
  23 H :    0.022324
  24 H :    0.036222
  25 C :   -0.074042
  26 H :    0.021309
  27 H :    0.043082
  28 C :   -0.046291
  29 H :    0.027516
  30 H :    0.035098
  31 H :    0.024697
  32 H :    0.057798
  33 H :    0.072141
Sum of atomic charges:   -0.0000000

LOEWDIN ATOMIC CHARGES
----------------------
   0 S :    0.374021
   1 C :   -0.206092
   2 C :   -0.061218
   3 C :   -0.067065
   4 C :   -0.166069
   5 H :    0.035857
   6 C :   -0.019522
   7 H :    0.028993
   8 H :    0.030887
   9 C :   -0.051226
  10 H :    0.025426
  11 H :    0.031722
  12 C :   -0.067912
  13 H :    0.027872
  14 H :    0.023637
  15 H :    0.017502
  16 S :    0.379647
  17 C :   -0.188430
  18 C :   -0.074487
  19 C :   -0.055972
  20 C :   -0.179685
  21 H :    0.033188
  22 C :   -0.040612
  23 H :    0.031137
  24 H :    0.037467
  25 C :   -0.044709
  26 H :    0.020189
  27 H :    0.032477
  28 C :   -0.066564
  29 H :    0.024456
  30 H :    0.031330
  31 H :    0.022170
  32 H :    0.038157
  33 H :    0.043427

  Mayer bond orders larger than 0.100000
B(  0-S ,  1-C ) :   1.1193 B(  0-S ,  4-C ) :   1.1316 B(  1-C ,  2-C ) :   1.6475
B(  1-C , 32-H ) :   0.9640 B(  2-C ,  3-C ) :   1.2387 B(  2-C ,  6-C ) :   0.9911
B(  3-C ,  4-C ) :   1.5690 B(  3-C ,  5-H ) :   0.9868 B(  4-C , 20-C ) :   1.0462
B(  6-C ,  7-H ) :   0.9363 B(  6-C ,  8-H ) :   0.9416 B(  6-C ,  9-C ) :   1.0853
B(  9-C , 10-H ) :   0.9517 B(  9-C , 11-H ) :   0.9588 B(  9-C , 12-C ) :   1.0753
B( 12-C , 13-H ) :   0.9778 B( 12-C , 14-H ) :   0.9726 B( 12-C , 15-H ) :   0.9742
B( 16-S , 17-C ) :   1.1378 B( 16-S , 20-C ) :   1.1141 B( 17-C , 18-C ) :   1.6591
B( 17-C , 33-H ) :   0.9517 B( 18-C , 19-C ) :   1.2043 B( 18-C , 21-H ) :   0.9910
B( 19-C , 20-C ) :   1.6314 B( 19-C , 22-C ) :   1.0514 B( 22-C , 23-H ) :   0.9350
B( 22-C , 24-H ) :   0.9220 B( 22-C , 25-C ) :   1.0629 B( 25-C , 26-H ) :   0.9438
B( 25-C , 27-H ) :   0.9554 B( 25-C , 28-C ) :   1.0967 B( 28-C , 29-H ) :   0.9717
B( 28-C , 30-H ) :   0.9712 B( 28-C , 31-H ) :   0.9730

Dispersion correction           -0.013315657
FINAL SINGLE POINT ENERGY     -1339.874824995086

DIPOLE MOMENT
-------------
                                X             Y             Z
Electronic contribution:    -19.50212      23.54850      -5.15385
Nuclear contribution   :     20.11006     -24.04743       5.37924
                        -----------------------------------------
Total Dipole Moment    :      0.60794      -0.49893       0.22539
                        -----------------------------------------
Magnitude (a.u.)       :      0.81812
Magnitude (Debye)      :      2.07950

Rotational constants in cm-1:     0.016027     0.008561     0.006317
Rotational constants in MHz :   480.480812   256.666277   189.378122

                             ****ORCA TERMINATED NORMALLY****
TOTAL RUN TIME: 0 days 0 hours 0 minutes 29 seconds 95 msec
