                         Program Version 4.2.1 -  RELEASE  -
|  1> ! wB97X-D3 SP def2-SVP
|  2> %pal
|  3> nprocs 16
|  4> end
|  5>
|  6> * xyz 0 1
|  7> S 	 -42.2289 	 56.597 	 112.554
|  8> C 	 -43.6019 	 57.4896 	 111.985
|  9> C 	 -43.4668 	 57.8886 	 110.683
| 10> C 	 -42.1686 	 57.5337 	 110.132
| 11> C 	 -41.3438 	 56.9458 	 111.109
| 12> H 	 -41.7084 	 57.6798 	 109.136
| 13> C 	 -44.5273 	 58.5891 	 109.791
| 14> H 	 -45.4161 	 57.9387 	 109.66
| 15> H 	 -44.0234 	 58.7326 	 108.78
| 16> C 	 -44.903 	 59.9724 	 110.22
| 17> H 	 -43.9102 	 60.4651 	 110.242
| 18> H 	 -45.5448 	 60.4543 	 109.45
| 19> C 	 -45.443 	 60.1555 	 111.658
| 20> H 	 -46.0972 	 59.3574 	 111.863
| 21> H 	 -44.5668 	 60.2378 	 112.355
| 22> H 	 -46.0585 	 61.0132 	 111.801
| 23> S 	 -38.6248 	 57.4212 	 110.624
| 24> C 	 -37.5621 	 55.9997 	 110.692
| 25> C 	 -38.2524 	 54.797 	 110.739
| 26> C 	 -39.6488 	 54.9845 	 110.742
| 27> C 	 -40.0457 	 56.3311 	 110.76
| 28> H 	 -37.7316 	 53.8641 	 110.771
| 29> C 	 -40.6751 	 53.8863 	 110.433
| 30> H 	 -40.1896 	 53.2789 	 109.647
| 31> H 	 -41.6085 	 54.3125 	 110.074
| 32> C 	 -41.0086 	 52.948 	 111.638
| 33> H 	 -41.536 	 53.5478 	 112.406
| 34> H 	 -40.0928 	 52.7829 	 112.104
| 35> C 	 -41.807 	 51.791 	 111.094
| 36> H 	 -41.3226 	 50.9732 	 110.516
| 37> H 	 -42.7484 	 52.0314 	 110.668
| 38> H 	 -41.9465 	 51.2659 	 112.049
| 39> H 	 -44.5411 	 57.5844 	 112.573
| 40> H 	 -36.4978 	 56.1141 	 110.88
| 41> *
| 42>
| 43>                          ****END OF INPUT****

CARTESIAN COORDINATES (ANGSTROEM)
---------------------------------
  S    -42.228900   56.597000  112.554000
  C    -43.601900   57.489600  111.985000
  C    -43.466800   57.888600  110.683000
  C    -42.168600   57.533700  110.132000
  C    -41.343800   56.945800  111.109000
  H    -41.708400   57.679800  109.136000
  C    -44.527300   58.589100  109.791000
  H    -45.416100   57.938700  109.660000
  H    -44.023400   58.732600  108.780000
  C    -44.903000   59.972400  110.220000
  H    -43.910200   60.465100  110.242000
  H    -45.544800   60.454300  109.450000
  C    -45.443000   60.155500  111.658000
  H    -46.097200   59.357400  111.863000
  H    -44.566800   60.237800  112.355000
  H    -46.058500   61.013200  111.801000
  S    -38.624800   57.421200  110.624000
  C    -37.562100   55.999700  110.692000
  C    -38.252400   54.797000  110.739000
  C    -39.648800   54.984500  110.742000
  C    -40.045700   56.331100  110.760000
  H    -37.731600   53.864100  110.771000
  C    -40.675100   53.886300  110.433000
  H    -40.189600   53.278900  109.647000
  H    -41.608500   54.312500  110.074000
  C    -41.008600   52.948000  111.638000
  H    -41.536000   53.547800  112.406000
  H    -40.092800   52.782900  112.104000
  C    -41.807000   51.791000  111.094000
  H    -41.322600   50.973200  110.516000
  H    -42.748400   52.031400  110.668000
  H    -41.946500   51.265900  112.049000
  H    -44.541100   57.584400  112.573000
  H    -36.497800   56.114100  110.880000

 Total Charge           Charge          ....    0
 Multiplicity           Mult            ....    1
 Number of Electrons    NEL             ....  134
 Basis Dimension        Dim             ....  322

ORBITAL ENERGIES
----------------

  NO   OCC          E(Eh)            E(eV)
   0   2.0000     -88.970720     -2421.0164
   1   2.0000     -88.963706     -2420.8255
   2   2.0000     -10.327942      -281.0376
   3   2.0000     -10.326517      -280.9988
   4   2.0000     -10.319711      -280.8136
   5   2.0000     -10.316186      -280.7177
   6   2.0000     -10.305655      -280.4311
   7   2.0000     -10.300578      -280.2930
   8   2.0000     -10.300450      -280.2895
   9   2.0000     -10.298717      -280.2423
  10   2.0000     -10.293285      -280.0945
  11   2.0000     -10.286501      -279.9099
  12   2.0000     -10.286191      -279.9015
  13   2.0000     -10.280103      -279.7358
  14   2.0000     -10.275390      -279.6076
  15   2.0000     -10.274426      -279.5813
  16   2.0000      -8.085479      -220.0171
  17   2.0000      -8.077527      -219.8007
  18   2.0000      -6.043909      -164.4631
  19   2.0000      -6.039977      -164.3561
  20   2.0000      -6.036322      -164.2567
  21   2.0000      -6.035946      -164.2464
  22   2.0000      -6.032221      -164.1451
  23   2.0000      -6.028390      -164.0408
  24   2.0000      -1.002668       -27.2840
  25   2.0000      -0.979027       -26.6407
  26   2.0000      -0.912028       -24.8175
  27   2.0000      -0.905039       -24.6274
  28   2.0000      -0.864119       -23.5139
  29   2.0000      -0.849442       -23.1145
  30   2.0000      -0.845446       -23.0057
  31   2.0000      -0.807418       -21.9710
  32   2.0000      -0.787327       -21.4242
  33   2.0000      -0.768420       -20.9098
  34   2.0000      -0.703137       -19.1333
  35   2.0000      -0.692349       -18.8398
  36   2.0000      -0.689832       -18.7713
  37   2.0000      -0.659689       -17.9510
  38   2.0000      -0.641963       -17.4687
  39   2.0000      -0.607190       -16.5225
  40   2.0000      -0.593991       -16.1633
  41   2.0000      -0.573073       -15.5941
  42   2.0000      -0.560401       -15.2493
  43   2.0000      -0.545984       -14.8570
  44   2.0000      -0.538127       -14.6432
  45   2.0000      -0.524288       -14.2666
  46   2.0000      -0.514987       -14.0135
  47   2.0000      -0.511421       -13.9165
  48   2.0000      -0.506442       -13.7810
  49   2.0000      -0.493470       -13.4280
  50   2.0000      -0.488827       -13.3017
  51   2.0000      -0.481100       -13.0914
  52   2.0000      -0.476103       -12.9554
  53   2.0000      -0.465060       -12.6549
  54   2.0000      -0.455484       -12.3944
  55   2.0000      -0.453354       -12.3364
  56   2.0000      -0.446346       -12.1457
  57   2.0000      -0.434237       -11.8162
  58   2.0000      -0.430544       -11.7157
  59   2.0000      -0.420479       -11.4418
  60   2.0000      -0.413765       -11.2591
  61   2.0000      -0.412374       -11.2213
  62   2.0000      -0.397582       -10.8187
  63   2.0000      -0.337484        -9.1834
  64   2.0000      -0.334279        -9.0962
  65   2.0000      -0.324479        -8.8295
  66   2.0000      -0.295089        -8.0298
  67   0.0000       0.034492         0.9386
  68   0.0000       0.053682         1.4608
  69   0.0000       0.101303         2.7566
  70   0.0000       0.118019         3.2115
  71   0.0000       0.131662         3.5827

MULLIKEN ATOMIC CHARGES
-----------------------
   0 S :    0.134638
   1 C :   -0.150384
   2 C :   -0.079159
   3 C :    0.000491
   4 C :   -0.138146
   5 H :    0.036004
   6 C :    0.047518
   7 H :    0.043747
   8 H :    0.035291
   9 C :   -0.094304
  10 H :    0.029789
  11 H :    0.041588
  12 C :   -0.041085
  13 H :    0.014113
  14 H :    0.055652
  15 H :    0.026160
  16 S :    0.092310
  17 C :   -0.106098
  18 C :   -0.016036
  19 C :   -0.023526
  20 C :   -0.198371
  21 H :    0.015523
  22 C :    0.036880
  23 H :    0.032596
  24 H :    0.030086
  25 C :   -0.057995
  26 H :    0.024339
  27 H :    0.005157
  28 C :   -0.029856
  29 H :    0.039933
  30 H :    0.036213
  31 H :    0.024242
  32 H :    0.067351
  33 H :    0.065337
Sum of atomic charges:    0.0000000

LOEWDIN ATOMIC CHARGES
----------------------
   0 S :    0.434065
   1 C :   -0.209321
   2 C :   -0.067348
   3 C :   -0.062152
   4 C :   -0.210664
   5 H :    0.039750
   6 C :   -0.035449
   7 H :    0.028670
   8 H :    0.040462
   9 C :   -0.050250
  10 H :    0.030132
  11 H :    0.027502
  12 C :   -0.068009
  13 H :    0.013501
  14 H :    0.037037
  15 H :    0.024228
  16 S :    0.375019
  17 C :   -0.173061
  18 C :   -0.070424
  19 C :   -0.059930
  20 C :   -0.190422
  21 H :    0.031201
  22 C :   -0.027851
  23 H :    0.033137
  24 H :    0.027018
  25 C :   -0.037432
  26 H :    0.023241
  27 H :    0.012988
  28 C :   -0.070249
  29 H :    0.031882
  30 H :    0.023310
  31 H :    0.033310
  32 H :    0.037400
  33 H :    0.028710

  Mayer bond orders larger than 0.100000
B(  0-S ,  1-C ) :   1.1466 B(  0-S ,  4-C ) :   1.1643 B(  1-C ,  2-C ) :   1.6187
B(  1-C , 32-H ) :   0.9585 B(  2-C ,  3-C ) :   1.2456 B(  2-C ,  6-C ) :   0.9998
B(  3-C ,  4-C ) :   1.5675 B(  3-C ,  5-H ) :   0.9864 B(  4-C , 20-C ) :   1.0165
B(  6-C ,  7-H ) :   0.9416 B(  6-C ,  8-H ) :   0.9444 B(  6-C ,  9-C ) :   1.0793
B(  9-C , 10-H ) :   0.9557 B(  9-C , 11-H ) :   0.9570 B(  9-C , 12-C ) :   1.0754
B( 12-C , 13-H ) :   0.9750 B( 12-C , 14-H ) :   0.9722 B( 12-C , 15-H ) :   0.9706
B( 16-S , 17-C ) :   1.1588 B( 16-S , 20-C ) :   1.1306 B( 17-C , 18-C ) :   1.6006
B( 17-C , 20-C ) :   0.1022 B( 17-C , 33-H ) :   0.9646 B( 18-C , 19-C ) :   1.2438
B( 18-C , 21-H ) :   0.9944 B( 19-C , 20-C ) :   1.5964 B( 19-C , 22-C ) :   1.0196
B( 22-C , 23-H ) :   0.9484 B( 22-C , 24-H ) :   0.9433 B( 22-C , 25-C ) :   1.0544
B( 25-C , 26-H ) :   0.9469 B( 25-C , 27-H ) :   0.9601 B( 25-C , 28-C ) :   1.0745
B( 28-C , 29-H ) :   0.9739 B( 28-C , 30-H ) :   0.9725 B( 28-C , 31-H ) :   0.9698

Dispersion correction           -0.014743584
FINAL SINGLE POINT ENERGY     -1339.860625204486

DIPOLE MOMENT
-------------
                                X             Y             Z
Electronic contribution:     17.69559       5.25800       3.19823
Nuclear contribution   :    -18.03649      -5.53163      -3.32934
                        -----------------------------------------
Total Dipole Moment    :     -0.34090      -0.27363      -0.13111
                        -----------------------------------------
Magnitude (a.u.)       :      0.45637
Magnitude (Debye)      :      1.16001

Rotational constants in cm-1:     0.020457     0.008109     0.006509
Rotational constants in MHz :   613.288027   243.108741   195.136579

                             ****ORCA TERMINATED NORMALLY****
TOTAL RUN TIME: 0 days 0 hours 0 minutes 30 seconds 114 msec
