                         Program Version 4.2.1 -  RELEASE  -
|  1> ! wB97X-D3 SP def2-SVP
|  2> %pal
|  3> nprocs 16
|  4> end
|  5>
|  6> * xyz 0 1
|  7> S 	 7.00331 	 17.5597 	 87.0292
|  8> C 	 5.30086 	 17.8857 	 86.896
|  9> C 	 4.54068 	 16.7606 	 87.1552
| 10> C 	 5.3498 	 15.6586 	 87.5626
| 11> C 	 6.69852 	 15.8967 	 87.5462
| 12> H 	 4.91334 	 14.6623 	 87.8479
| 13> C 	 3.05712 	 16.7451 	 87.0155
| 14> H 	 2.8761 	 17.5267 	 86.3088
| 15> H 	 2.62493 	 17.0301 	 87.9845
| 16> C 	 2.51967 	 15.4417 	 86.5464
| 17> H 	 3.10264 	 14.5823 	 86.1746
| 18> H 	 2.13937 	 14.8174 	 87.3646
| 19> C 	 1.29463 	 15.5033 	 85.5513
| 20> H 	 0.594237 	 16.3051 	 85.8392
| 21> H 	 1.64441 	 15.6125 	 84.5579
| 22> H 	 0.742033 	 14.5647 	 85.5542
| 23> S 	 8.82702 	 15.564 	 89.2964
| 24> C 	 9.74408 	 14.0426 	 89.3675
| 25> C 	 9.23679 	 13.2167 	 88.3807
| 26> C 	 8.07051 	 13.6977 	 87.7357
| 27> C 	 7.75417 	 15.0223 	 88.0016
| 28> H 	 9.76257 	 12.2934 	 88.1076
| 29> C 	 7.39496 	 12.8869 	 86.6162
| 30> H 	 8.16195 	 12.532 	 85.9471
| 31> H 	 6.86464 	 13.6022 	 85.9854
| 32> C 	 6.50738 	 11.7411 	 87.0627
| 33> H 	 6.02312 	 11.9405 	 87.9865
| 34> H 	 6.97619 	 10.7825 	 87.2299
| 35> C 	 5.34576 	 11.5018 	 85.9927
| 36> H 	 5.80554 	 11.3854 	 85.0271
| 37> H 	 4.71931 	 12.44 	 85.8532
| 38> H 	 4.59047 	 10.7245 	 86.1849
| 39> H 	 4.89252 	 18.9228 	 86.9895
| 40> H 	 10.6412 	 13.824 	 89.8893
| 41> *
| 42>
| 43>                          ****END OF INPUT****

CARTESIAN COORDINATES (ANGSTROEM)
---------------------------------
  S      7.003310   17.559700   87.029200
  C      5.300860   17.885700   86.896000
  C      4.540680   16.760600   87.155200
  C      5.349800   15.658600   87.562600
  C      6.698520   15.896700   87.546200
  H      4.913340   14.662300   87.847900
  C      3.057120   16.745100   87.015500
  H      2.876100   17.526700   86.308800
  H      2.624930   17.030100   87.984500
  C      2.519670   15.441700   86.546400
  H      3.102640   14.582300   86.174600
  H      2.139370   14.817400   87.364600
  C      1.294630   15.503300   85.551300
  H      0.594237   16.305100   85.839200
  H      1.644410   15.612500   84.557900
  H      0.742033   14.564700   85.554200
  S      8.827020   15.564000   89.296400
  C      9.744080   14.042600   89.367500
  C      9.236790   13.216700   88.380700
  C      8.070510   13.697700   87.735700
  C      7.754170   15.022300   88.001600
  H      9.762570   12.293400   88.107600
  C      7.394960   12.886900   86.616200
  H      8.161950   12.532000   85.947100
  H      6.864640   13.602200   85.985400
  C      6.507380   11.741100   87.062700
  H      6.023120   11.940500   87.986500
  H      6.976190   10.782500   87.229900
  C      5.345760   11.501800   85.992700
  H      5.805540   11.385400   85.027100
  H      4.719310   12.440000   85.853200
  H      4.590470   10.724500   86.184900
  H      4.892520   18.922800   86.989500
  H     10.641200   13.824000   89.889300

 Total Charge           Charge          ....    0
 Multiplicity           Mult            ....    1
 Number of Electrons    NEL             ....  134
 Basis Dimension        Dim             ....  322

ORBITAL ENERGIES
----------------

  NO   OCC          E(Eh)            E(eV)
   0   2.0000     -88.965586     -2420.8767
   1   2.0000     -88.963301     -2420.8145
   2   2.0000     -10.331048      -281.1221
   3   2.0000     -10.328957      -281.0652
   4   2.0000     -10.319458      -280.8067
   5   2.0000     -10.314019      -280.6587
   6   2.0000     -10.302808      -280.3537
   7   2.0000     -10.299914      -280.2749
   8   2.0000     -10.298585      -280.2388
   9   2.0000     -10.294734      -280.1340
  10   2.0000     -10.292700      -280.0786
  11   2.0000     -10.289256      -279.9849
  12   2.0000     -10.288223      -279.9568
  13   2.0000     -10.286654      -279.9141
  14   2.0000     -10.284942      -279.8675
  15   2.0000     -10.278658      -279.6965
  16   2.0000      -8.080325      -219.8768
  17   2.0000      -8.077359      -219.7961
  18   2.0000      -6.038859      -164.3257
  19   2.0000      -6.036006      -164.2481
  20   2.0000      -6.034793      -164.2151
  21   2.0000      -6.031824      -164.1343
  22   2.0000      -6.031091      -164.1143
  23   2.0000      -6.028098      -164.0329
  24   2.0000      -1.006875       -27.3985
  25   2.0000      -0.984625       -26.7930
  26   2.0000      -0.918258       -24.9871
  27   2.0000      -0.904422       -24.6106
  28   2.0000      -0.872311       -23.7368
  29   2.0000      -0.847939       -23.0736
  30   2.0000      -0.841172       -22.8895
  31   2.0000      -0.819040       -22.2872
  32   2.0000      -0.781753       -21.2726
  33   2.0000      -0.769561       -20.9408
  34   2.0000      -0.718787       -19.5592
  35   2.0000      -0.705875       -19.2078
  36   2.0000      -0.693893       -18.8818
  37   2.0000      -0.659680       -17.9508
  38   2.0000      -0.640912       -17.4401
  39   2.0000      -0.620465       -16.8837
  40   2.0000      -0.594592       -16.1797
  41   2.0000      -0.572248       -15.5717
  42   2.0000      -0.565379       -15.3848
  43   2.0000      -0.558686       -15.2026
  44   2.0000      -0.532835       -14.4992
  45   2.0000      -0.527710       -14.3597
  46   2.0000      -0.518923       -14.1206
  47   2.0000      -0.515565       -14.0292
  48   2.0000      -0.510825       -13.9003
  49   2.0000      -0.495475       -13.4825
  50   2.0000      -0.490888       -13.3577
  51   2.0000      -0.477928       -13.0051
  52   2.0000      -0.471955       -12.8426
  53   2.0000      -0.465181       -12.6582
  54   2.0000      -0.457681       -12.4541
  55   2.0000      -0.449816       -12.2401
  56   2.0000      -0.446941       -12.1619
  57   2.0000      -0.442723       -12.0471
  58   2.0000      -0.431617       -11.7449
  59   2.0000      -0.422695       -11.5021
  60   2.0000      -0.420342       -11.4381
  61   2.0000      -0.409339       -11.1387
  62   2.0000      -0.401570       -10.9273
  63   2.0000      -0.346296        -9.4232
  64   2.0000      -0.329455        -8.9649
  65   2.0000      -0.328446        -8.9375
  66   2.0000      -0.296509        -8.0684
  67   0.0000       0.023924         0.6510
  68   0.0000       0.069233         1.8839
  69   0.0000       0.113277         3.0824
  70   0.0000       0.119364         3.2481
  71   0.0000       0.127545         3.4707

MULLIKEN ATOMIC CHARGES
-----------------------
   0 S :    0.110497
   1 C :   -0.145893
   2 C :   -0.151228
   3 C :    0.030658
   4 C :   -0.156292
   5 H :    0.030650
   6 C :    0.174525
   7 H :    0.024126
   8 H :    0.049860
   9 C :   -0.139603
  10 H :    0.031266
  11 H :    0.015821
  12 C :   -0.053281
  13 H :    0.036430
  14 H :    0.033590
  15 H :    0.025542
  16 S :    0.093416
  17 C :   -0.077201
  18 C :   -0.039427
  19 C :   -0.039575
  20 C :   -0.138938
  21 H :    0.028412
  22 C :    0.050027
  23 H :    0.026425
  24 H :    0.025771
  25 C :   -0.023444
  26 H :    0.021395
  27 H :    0.029917
  28 C :   -0.103031
  29 H :    0.029104
  30 H :    0.029756
  31 H :    0.042648
  32 H :    0.076598
  33 H :    0.051478
Sum of atomic charges:    0.0000000

LOEWDIN ATOMIC CHARGES
----------------------
   0 S :    0.403426
   1 C :   -0.215474
   2 C :   -0.062708
   3 C :   -0.061484
   4 C :   -0.193056
   5 H :    0.040647
   6 C :   -0.028615
   7 H :    0.032736
   8 H :    0.043747
   9 C :   -0.061284
  10 H :    0.029937
  11 H :    0.026820
  12 C :   -0.059273
  13 H :    0.025245
  14 H :    0.018369
  15 H :    0.026121
  16 S :    0.391013
  17 C :   -0.173519
  18 C :   -0.072889
  19 C :   -0.057655
  20 C :   -0.194405
  21 H :    0.034733
  22 C :   -0.030528
  23 H :    0.031565
  24 H :    0.031437
  25 C :   -0.034552
  26 H :    0.017729
  27 H :    0.023944
  28 C :   -0.072902
  29 H :    0.020111
  30 H :    0.025387
  31 H :    0.025762
  32 H :    0.041482
  33 H :    0.028136

  Mayer bond orders larger than 0.100000
B(  0-S ,  1-C ) :   1.1425 B(  0-S ,  4-C ) :   1.1466 B(  1-C ,  2-C ) :   1.6214
B(  1-C , 32-H ) :   0.9551 B(  2-C ,  3-C ) :   1.2600 B(  2-C ,  6-C ) :   1.0099
B(  3-C ,  4-C ) :   1.5643 B(  3-C ,  5-H ) :   0.9836 B(  4-C , 20-C ) :   1.0412
B(  6-C ,  7-H ) :   0.9512 B(  6-C ,  8-H ) :   0.9163 B(  6-C ,  9-C ) :   1.0352
B(  9-C , 10-H ) :   0.9645 B(  9-C , 11-H ) :   0.9455 B(  9-C , 12-C ) :   1.0894
B( 12-C , 13-H ) :   0.9781 B( 12-C , 14-H ) :   0.9792 B( 12-C , 15-H ) :   0.9747
B( 16-S , 17-C ) :   1.1491 B( 16-S , 20-C ) :   1.1322 B( 17-C , 18-C ) :   1.6016
B( 17-C , 20-C ) :   0.1072 B( 17-C , 33-H ) :   0.9716 B( 18-C , 19-C ) :   1.2522
B( 18-C , 21-H ) :   0.9842 B( 19-C , 20-C ) :   1.5884 B( 19-C , 22-C ) :   1.0471
B( 22-C , 23-H ) :   0.9347 B( 22-C , 24-H ) :   0.9472 B( 22-C , 25-C ) :   1.0383
B( 25-C , 26-H ) :   0.9633 B( 25-C , 27-H ) :   0.9548 B( 25-C , 28-C ) :   1.0689
B( 28-C , 29-H ) :   0.9752 B( 28-C , 30-H ) :   0.9779 B( 28-C , 31-H ) :   0.9765

Dispersion correction           -0.014501916
FINAL SINGLE POINT ENERGY     -1339.865372815664

DIPOLE MOMENT
-------------
                                X             Y             Z
Electronic contribution:     25.16973      17.44157      12.22968
Nuclear contribution   :    -25.62128     -17.91260     -12.34518
                        -----------------------------------------
Total Dipole Moment    :     -0.45154      -0.47103      -0.11550
                        -----------------------------------------
Magnitude (a.u.)       :      0.66264
Magnitude (Debye)      :      1.68431

Rotational constants in cm-1:     0.017663     0.009544     0.006650
Rotational constants in MHz :   529.537471   286.135763   199.356791

                             ****ORCA TERMINATED NORMALLY****
TOTAL RUN TIME: 0 days 0 hours 0 minutes 35 seconds 833 msec
