                         Program Version 4.2.1 -  RELEASE  -
|  1> ! wB97X-D3 SP def2-SVP
|  2> %pal
|  3> nprocs 16
|  4> end
|  5>
|  6> * xyz 0 1
|  7> S 	 35.4358 	 4.37591 	 88.9061
|  8> C 	 33.9057 	 4.49845 	 88.0183
|  9> C 	 33.9583 	 5.46566 	 87.0613
| 10> C 	 35.1493 	 6.26956 	 87.229
| 11> C 	 36.0894 	 5.78967 	 88.1517
| 12> H 	 35.4587 	 7.09649 	 86.615
| 13> C 	 32.9756 	 5.68458 	 86.0112
| 14> H 	 32.9633 	 6.67843 	 85.5349
| 15> H 	 32.065 	 5.61362 	 86.5391
| 16> C 	 32.8191 	 4.66874 	 84.9091
| 17> H 	 32.7115 	 3.60408 	 85.3516
| 18> H 	 31.9108 	 4.85965 	 84.3208
| 19> C 	 33.9004 	 4.71942 	 83.8811
| 20> H 	 33.7287 	 3.96044 	 83.1488
| 21> H 	 33.8969 	 5.71799 	 83.3327
| 22> H 	 34.9697 	 4.49164 	 84.3041
| 23> S 	 38.6293 	 4.87594 	 88.7623
| 24> C 	 39.9282 	 6.02646 	 88.6949
| 25> C 	 39.6232 	 7.24941 	 88.2185
| 26> C 	 38.194 	 7.36058 	 88.0059
| 27> C 	 37.5041 	 6.13209 	 88.2181
| 28> H 	 40.2881 	 8.06149 	 88.1103
| 29> C 	 37.5184 	 8.6439 	 87.4786
| 30> H 	 38.0668 	 9.43831 	 87.9653
| 31> H 	 36.5651 	 8.50392 	 88.0017
| 32> C 	 37.427 	 8.73534 	 85.9622
| 33> H 	 37.1311 	 7.80945 	 85.4568
| 34> H 	 38.4619 	 8.89204 	 85.6049
| 35> C 	 36.6731 	 9.93507 	 85.4541
| 36> H 	 36.5213 	 9.98237 	 84.358
| 37> H 	 36.9703 	 10.9067 	 85.874
| 38> H 	 35.6765 	 9.72727 	 85.8693
| 39> H 	 33.0549 	 3.87456 	 88.1081
| 40> H 	 40.9848 	 5.81015 	 88.9883
| 41> *
| 42>
| 43>                          ****END OF INPUT****

CARTESIAN COORDINATES (ANGSTROEM)
---------------------------------
  S     35.435800    4.375910   88.906100
  C     33.905700    4.498450   88.018300
  C     33.958300    5.465660   87.061300
  C     35.149300    6.269560   87.229000
  C     36.089400    5.789670   88.151700
  H     35.458700    7.096490   86.615000
  C     32.975600    5.684580   86.011200
  H     32.963300    6.678430   85.534900
  H     32.065000    5.613620   86.539100
  C     32.819100    4.668740   84.909100
  H     32.711500    3.604080   85.351600
  H     31.910800    4.859650   84.320800
  C     33.900400    4.719420   83.881100
  H     33.728700    3.960440   83.148800
  H     33.896900    5.717990   83.332700
  H     34.969700    4.491640   84.304100
  S     38.629300    4.875940   88.762300
  C     39.928200    6.026460   88.694900
  C     39.623200    7.249410   88.218500
  C     38.194000    7.360580   88.005900
  C     37.504100    6.132090   88.218100
  H     40.288100    8.061490   88.110300
  C     37.518400    8.643900   87.478600
  H     38.066800    9.438310   87.965300
  H     36.565100    8.503920   88.001700
  C     37.427000    8.735340   85.962200
  H     37.131100    7.809450   85.456800
  H     38.461900    8.892040   85.604900
  C     36.673100    9.935070   85.454100
  H     36.521300    9.982370   84.358000
  H     36.970300   10.906700   85.874000
  H     35.676500    9.727270   85.869300
  H     33.054900    3.874560   88.108100
  H     40.984800    5.810150   88.988300

 Total Charge           Charge          ....    0
 Multiplicity           Mult            ....    1
 Number of Electrons    NEL             ....  134
 Basis Dimension        Dim             ....  322

ORBITAL ENERGIES
----------------

  NO   OCC          E(Eh)            E(eV)
   0   2.0000     -88.968588     -2420.9584
   1   2.0000     -88.967003     -2420.9152
   2   2.0000     -10.332169      -281.1526
   3   2.0000     -10.331835      -281.1435
   4   2.0000     -10.316846      -280.7357
   5   2.0000     -10.311824      -280.5990
   6   2.0000     -10.307160      -280.4721
   7   2.0000     -10.300714      -280.2967
   8   2.0000     -10.293867      -280.1104
   9   2.0000     -10.293479      -280.0998
  10   2.0000     -10.292031      -280.0604
  11   2.0000     -10.290316      -280.0137
  12   2.0000     -10.290160      -280.0095
  13   2.0000     -10.285237      -279.8755
  14   2.0000     -10.283129      -279.8182
  15   2.0000     -10.281603      -279.7766
  16   2.0000      -8.083179      -219.9545
  17   2.0000      -8.081634      -219.9125
  18   2.0000      -6.041789      -164.4054
  19   2.0000      -6.040296      -164.3648
  20   2.0000      -6.037823      -164.2975
  21   2.0000      -6.036165      -164.2524
  22   2.0000      -6.033743      -164.1865
  23   2.0000      -6.032219      -164.1450
  24   2.0000      -1.006844       -27.3976
  25   2.0000      -0.984486       -26.7892
  26   2.0000      -0.924572       -25.1589
  27   2.0000      -0.913645       -24.8616
  28   2.0000      -0.874068       -23.7846
  29   2.0000      -0.854511       -23.2524
  30   2.0000      -0.846284       -23.0286
  31   2.0000      -0.817437       -22.2436
  32   2.0000      -0.787759       -21.4360
  33   2.0000      -0.771361       -20.9898
  34   2.0000      -0.706926       -19.2364
  35   2.0000      -0.697928       -18.9916
  36   2.0000      -0.692384       -18.8407
  37   2.0000      -0.664562       -18.0837
  38   2.0000      -0.637964       -17.3599
  39   2.0000      -0.614197       -16.7132
  40   2.0000      -0.591141       -16.0858
  41   2.0000      -0.582891       -15.8613
  42   2.0000      -0.568687       -15.4747
  43   2.0000      -0.557249       -15.1635
  44   2.0000      -0.545819       -14.8525
  45   2.0000      -0.530276       -14.4296
  46   2.0000      -0.518022       -14.0961
  47   2.0000      -0.510018       -13.8783
  48   2.0000      -0.507911       -13.8210
  49   2.0000      -0.502207       -13.6657
  50   2.0000      -0.492900       -13.4125
  51   2.0000      -0.478024       -13.0077
  52   2.0000      -0.472610       -12.8604
  53   2.0000      -0.466118       -12.6837
  54   2.0000      -0.462816       -12.5939
  55   2.0000      -0.451909       -12.2971
  56   2.0000      -0.444979       -12.1085
  57   2.0000      -0.438559       -11.9338
  58   2.0000      -0.428607       -11.6630
  59   2.0000      -0.426162       -11.5964
  60   2.0000      -0.416679       -11.3384
  61   2.0000      -0.415856       -11.3160
  62   2.0000      -0.404308       -11.0018
  63   2.0000      -0.360023        -9.7967
  64   2.0000      -0.334421        -9.1001
  65   2.0000      -0.327561        -8.9134
  66   2.0000      -0.280917        -7.6441
  67   0.0000       0.019567         0.5324
  68   0.0000       0.079264         2.1569
  69   0.0000       0.102626         2.7926
  70   0.0000       0.118134         3.2146
  71   0.0000       0.132407         3.6030

MULLIKEN ATOMIC CHARGES
-----------------------
   0 S :    0.094670
   1 C :   -0.103946
   2 C :   -0.065110
   3 C :    0.015900
   4 C :   -0.105173
   5 H :   -0.028461
   6 C :    0.098131
   7 H :    0.021340
   8 H :    0.014628
   9 C :   -0.093562
  10 H :    0.034974
  11 H :    0.029880
  12 C :   -0.081054
  13 H :    0.029279
  14 H :    0.034682
  15 H :    0.053055
  16 S :    0.105248
  17 C :   -0.087838
  18 C :    0.007860
  19 C :   -0.111530
  20 C :   -0.136195
  21 H :    0.001991
  22 C :    0.060541
  23 H :    0.022511
  24 H :    0.035401
  25 C :   -0.071657
  26 H :    0.046980
  27 H :    0.019436
  28 C :   -0.028741
  29 H :    0.045165
  30 H :    0.036224
  31 H :    0.011784
  32 H :    0.028502
  33 H :    0.065087
Sum of atomic charges:   -0.0000000

LOEWDIN ATOMIC CHARGES
----------------------
   0 S :    0.401044
   1 C :   -0.184472
   2 C :   -0.056675
   3 C :   -0.065501
   4 C :   -0.196966
   5 H :    0.022803
   6 C :   -0.039907
   7 H :    0.034676
   8 H :    0.033941
   9 C :   -0.046834
  10 H :    0.030081
  11 H :    0.028224
  12 C :   -0.078112
  13 H :    0.020558
  14 H :    0.029225
  15 H :    0.035941
  16 S :    0.397763
  17 C :   -0.188403
  18 C :   -0.069902
  19 C :   -0.048142
  20 C :   -0.192839
  21 H :    0.027285
  22 C :   -0.033459
  23 H :    0.030493
  24 H :    0.032695
  25 C :   -0.049768
  26 H :    0.029161
  27 H :    0.025528
  28 C :   -0.069851
  29 H :    0.031450
  30 H :    0.027571
  31 H :    0.022703
  32 H :    0.021999
  33 H :    0.037686

  Mayer bond orders larger than 0.100000
B(  0-S ,  1-C ) :   1.1214 B(  0-S ,  4-C ) :   1.1440 B(  1-C ,  2-C ) :   1.6107
B(  1-C , 32-H ) :   0.9706 B(  2-C ,  3-C ) :   1.2460 B(  2-C ,  6-C ) :   1.0306
B(  3-C ,  4-C ) :   1.5336 B(  3-C ,  5-H ) :   0.9943 B(  4-C , 20-C ) :   1.0894
B(  6-C ,  7-H ) :   0.9396 B(  6-C ,  8-H ) :   0.9166 B(  6-C ,  9-C ) :   1.0899
B(  9-C , 10-H ) :   0.9491 B(  9-C , 11-H ) :   0.9487 B(  9-C , 12-C ) :   1.0859
B( 12-C , 13-H ) :   0.9715 B( 12-C , 14-H ) :   0.9698 B( 12-C , 15-H ) :   0.9732
B( 16-S , 17-C ) :   1.1480 B( 16-S , 20-C ) :   1.1220 B( 17-C , 18-C ) :   1.6272
B( 17-C , 33-H ) :   0.9551 B( 18-C , 19-C ) :   1.2413 B( 18-C , 21-H ) :   0.9951
B( 19-C , 20-C ) :   1.5842 B( 19-C , 22-C ) :   1.0305 B( 22-C , 23-H ) :   0.9299
B( 22-C , 24-H ) :   0.9329 B( 22-C , 25-C ) :   1.0600 B( 25-C , 26-H ) :   0.9501
B( 25-C , 27-H ) :   0.9455 B( 25-C , 28-C ) :   1.0808 B( 28-C , 29-H ) :   0.9718
B( 28-C , 30-H ) :   0.9718 B( 28-C , 31-H ) :   0.9722

Dispersion correction           -0.014559620
FINAL SINGLE POINT ENERGY     -1339.869096423547

DIPOLE MOMENT
-------------
                                X             Y             Z
Electronic contribution:     11.41202     -14.62799      22.99309
Nuclear contribution   :    -11.57660      15.02815     -23.55741
                        -----------------------------------------
Total Dipole Moment    :     -0.16458       0.40016      -0.56433
                        -----------------------------------------
Magnitude (a.u.)       :      0.71111
Magnitude (Debye)      :      1.80750

Rotational constants in cm-1:     0.017161     0.009945     0.007158
Rotational constants in MHz :   514.475906   298.151817   214.601355

                             ****ORCA TERMINATED NORMALLY****
TOTAL RUN TIME: 0 days 0 hours 0 minutes 31 seconds 118 msec
