                         Program Version 4.2.1 -  RELEASE  -
|  1> ! wB97X-D3 SP def2-SVP
|  2> %pal
|  3> nprocs 16
|  4> end
|  5>
|  6> * xyz 0 1
|  7> S 	 -44.3163 	 16.9039 	 83.8476
|  8> C 	 -42.737 	 16.2289 	 83.9834
|  9> C 	 -41.8885 	 17.2334 	 84.4254
| 10> C 	 -42.5874 	 18.3896 	 84.9241
| 11> C 	 -43.9358 	 18.3537 	 84.7448
| 12> H 	 -42.1784 	 19.282 	 85.3901
| 13> C 	 -40.3551 	 17.1553 	 84.5164
| 14> H 	 -40.2645 	 16.0767 	 84.3588
| 15> H 	 -39.9872 	 17.3847 	 85.5141
| 16> C 	 -39.5251 	 17.9379 	 83.5409
| 17> H 	 -39.6539 	 17.4725 	 82.6009
| 18> H 	 -39.901 	 19.0142 	 83.4764
| 19> C 	 -38.0354 	 17.9056 	 83.7604
| 20> H 	 -37.6307 	 18.3401 	 84.6746
| 21> H 	 -37.7717 	 16.8898 	 83.6958
| 22> H 	 -37.5666 	 18.3637 	 82.8562
| 23> S 	 -45.5054 	 20.2949 	 83.669
| 24> C 	 -46.5062 	 21.2236 	 84.683
| 25> C 	 -46.5037 	 20.7442 	 86.0263
| 26> C 	 -45.6234 	 19.673 	 86.2562
| 27> C 	 -44.942 	 19.3811 	 85.006
| 28> H 	 -47.152 	 21.0841 	 86.8035
| 29> C 	 -45.4103 	 18.9549 	 87.579
| 30> H 	 -45.7092 	 17.92 	 87.4468
| 31> H 	 -46.0424 	 19.5176 	 88.2928
| 32> C 	 -44.0083 	 19.0867 	 88.1311
| 33> H 	 -43.7155 	 20.1267 	 88.1248
| 34> H 	 -43.3289 	 18.4734 	 87.5175
| 35> C 	 -43.9241 	 18.5309 	 89.6156
| 36> H 	 -43.0308 	 18.8333 	 90.1659
| 37> H 	 -43.9811 	 17.4703 	 89.7224
| 38> H 	 -44.8169 	 18.9371 	 90.1175
| 39> H 	 -42.3563 	 15.2724 	 83.6412
| 40> H 	 -47.1614 	 21.9423 	 84.286
| 41> *
| 42>
| 43>                          ****END OF INPUT****

CARTESIAN COORDINATES (ANGSTROEM)
---------------------------------
  S    -44.316300   16.903900   83.847600
  C    -42.737000   16.228900   83.983400
  C    -41.888500   17.233400   84.425400
  C    -42.587400   18.389600   84.924100
  C    -43.935800   18.353700   84.744800
  H    -42.178400   19.282000   85.390100
  C    -40.355100   17.155300   84.516400
  H    -40.264500   16.076700   84.358800
  H    -39.987200   17.384700   85.514100
  C    -39.525100   17.937900   83.540900
  H    -39.653900   17.472500   82.600900
  H    -39.901000   19.014200   83.476400
  C    -38.035400   17.905600   83.760400
  H    -37.630700   18.340100   84.674600
  H    -37.771700   16.889800   83.695800
  H    -37.566600   18.363700   82.856200
  S    -45.505400   20.294900   83.669000
  C    -46.506200   21.223600   84.683000
  C    -46.503700   20.744200   86.026300
  C    -45.623400   19.673000   86.256200
  C    -44.942000   19.381100   85.006000
  H    -47.152000   21.084100   86.803500
  C    -45.410300   18.954900   87.579000
  H    -45.709200   17.920000   87.446800
  H    -46.042400   19.517600   88.292800
  C    -44.008300   19.086700   88.131100
  H    -43.715500   20.126700   88.124800
  H    -43.328900   18.473400   87.517500
  C    -43.924100   18.530900   89.615600
  H    -43.030800   18.833300   90.165900
  H    -43.981100   17.470300   89.722400
  H    -44.816900   18.937100   90.117500
  H    -42.356300   15.272400   83.641200
  H    -47.161400   21.942300   84.286000

 Total Charge           Charge          ....    0
 Multiplicity           Mult            ....    1
 Number of Electrons    NEL             ....  134
 Basis Dimension        Dim             ....  322

ORBITAL ENERGIES
----------------

  NO   OCC          E(Eh)            E(eV)
   0   2.0000     -88.973237     -2421.0849
   1   2.0000     -88.961444     -2420.7640
   2   2.0000     -10.324816      -280.9525
   3   2.0000     -10.323331      -280.9121
   4   2.0000     -10.314807      -280.6802
   5   2.0000     -10.314528      -280.6726
   6   2.0000     -10.306758      -280.4611
   7   2.0000     -10.301733      -280.3244
   8   2.0000     -10.294953      -280.1399
   9   2.0000     -10.293714      -280.1062
  10   2.0000     -10.289329      -279.9869
  11   2.0000     -10.288069      -279.9526
  12   2.0000     -10.285198      -279.8745
  13   2.0000     -10.282472      -279.8003
  14   2.0000     -10.276726      -279.6439
  15   2.0000     -10.275260      -279.6040
  16   2.0000      -8.088880      -220.1096
  17   2.0000      -8.076799      -219.7809
  18   2.0000      -6.046916      -164.5449
  19   2.0000      -6.043077      -164.4405
  20   2.0000      -6.040296      -164.3648
  21   2.0000      -6.035334      -164.2298
  22   2.0000      -6.031161      -164.1162
  23   2.0000      -6.027526      -164.0173
  24   2.0000      -1.009769       -27.4772
  25   2.0000      -0.988020       -26.8854
  26   2.0000      -0.914740       -24.8913
  27   2.0000      -0.911543       -24.8043
  28   2.0000      -0.870295       -23.6819
  29   2.0000      -0.852016       -23.1845
  30   2.0000      -0.846337       -23.0300
  31   2.0000      -0.812385       -22.1061
  32   2.0000      -0.783136       -21.3102
  33   2.0000      -0.769454       -20.9379
  34   2.0000      -0.706065       -19.2130
  35   2.0000      -0.694601       -18.9011
  36   2.0000      -0.688207       -18.7271
  37   2.0000      -0.663548       -18.0561
  38   2.0000      -0.644208       -17.5298
  39   2.0000      -0.614979       -16.7344
  40   2.0000      -0.597747       -16.2655
  41   2.0000      -0.576867       -15.6974
  42   2.0000      -0.573632       -15.6093
  43   2.0000      -0.560184       -15.2434
  44   2.0000      -0.523504       -14.2453
  45   2.0000      -0.520985       -14.1767
  46   2.0000      -0.518578       -14.1112
  47   2.0000      -0.509279       -13.8582
  48   2.0000      -0.505898       -13.7662
  49   2.0000      -0.503942       -13.7129
  50   2.0000      -0.494809       -13.4644
  51   2.0000      -0.479018       -13.0347
  52   2.0000      -0.472674       -12.8621
  53   2.0000      -0.461511       -12.5584
  54   2.0000      -0.459939       -12.5156
  55   2.0000      -0.447620       -12.1804
  56   2.0000      -0.444747       -12.1022
  57   2.0000      -0.441104       -12.0030
  58   2.0000      -0.432986       -11.7821
  59   2.0000      -0.428004       -11.6466
  60   2.0000      -0.420888       -11.4530
  61   2.0000      -0.413695       -11.2572
  62   2.0000      -0.409236       -11.1359
  63   2.0000      -0.340076        -9.2539
  64   2.0000      -0.330618        -8.9966
  65   2.0000      -0.321536        -8.7494
  66   2.0000      -0.299346        -8.1456
  67   0.0000       0.040559         1.1037
  68   0.0000       0.053395         1.4529
  69   0.0000       0.118106         3.2138
  70   0.0000       0.123950         3.3728
  71   0.0000       0.134424         3.6579

MULLIKEN ATOMIC CHARGES
-----------------------
   0 S :    0.108712
   1 C :   -0.103142
   2 C :   -0.120089
   3 C :    0.059211
   4 C :   -0.178549
   5 H :    0.014774
   6 C :    0.071796
   7 H :    0.003289
   8 H :    0.022398
   9 C :   -0.064132
  10 H :    0.011821
  11 H :    0.037559
  12 C :   -0.031874
  13 H :    0.038897
  14 H :    0.011944
  15 H :    0.038072
  16 S :    0.157628
  17 C :   -0.080755
  18 C :   -0.034370
  19 C :   -0.033308
  20 C :   -0.216036
  21 H :    0.006149
  22 C :    0.110040
  23 H :    0.046517
  24 H :    0.011374
  25 C :   -0.103464
  26 H :    0.032909
  27 H :    0.051491
  28 C :   -0.043907
  29 H :    0.037675
  30 H :    0.027597
  31 H :    0.018375
  32 H :    0.047747
  33 H :    0.043653
Sum of atomic charges:   -0.0000000

LOEWDIN ATOMIC CHARGES
----------------------
   0 S :    0.412236
   1 C :   -0.208961
   2 C :   -0.064334
   3 C :   -0.063834
   4 C :   -0.204702
   5 H :    0.032823
   6 C :   -0.035545
   7 H :    0.027041
   8 H :    0.026484
   9 C :   -0.044643
  10 H :    0.021042
  11 H :    0.028937
  12 C :   -0.061755
  13 H :    0.023385
  14 H :    0.018413
  15 H :    0.035813
  16 S :    0.471245
  17 C :   -0.203818
  18 C :   -0.068456
  19 C :   -0.045119
  20 C :   -0.229216
  21 H :    0.025929
  22 C :   -0.027605
  23 H :    0.037524
  24 H :    0.030870
  25 C :   -0.037009
  26 H :    0.023984
  27 H :    0.026719
  28 C :   -0.066805
  29 H :    0.026611
  30 H :    0.020598
  31 H :    0.022703
  32 H :    0.032523
  33 H :    0.016924

  Mayer bond orders larger than 0.100000
B(  0-S ,  1-C ) :   1.1413 B(  0-S ,  4-C ) :   1.1524 B(  1-C ,  2-C ) :   1.6106
B(  1-C , 32-H ) :   0.9658 B(  2-C ,  3-C ) :   1.2252 B(  2-C ,  6-C ) :   1.0194
B(  3-C ,  4-C ) :   1.5987 B(  3-C ,  5-H ) :   0.9929 B(  4-C , 20-C ) :   1.0170
B(  6-C ,  7-H ) :   0.9335 B(  6-C ,  8-H ) :   0.9461 B(  6-C ,  9-C ) :   1.0726
B(  9-C , 10-H ) :   0.9477 B(  9-C , 11-H ) :   0.9550 B(  9-C , 12-C ) :   1.0888
B( 12-C , 13-H ) :   0.9755 B( 12-C , 14-H ) :   0.9715 B( 12-C , 15-H ) :   0.9723
B( 16-S , 17-C ) :   1.1994 B( 16-S , 20-C ) :   1.2156 B( 17-C , 18-C ) :   1.5044
B( 17-C , 20-C ) :   0.1218 B( 17-C , 33-H ) :   0.9768 B( 18-C , 19-C ) :   1.3507
B( 18-C , 21-H ) :   0.9871 B( 19-C , 20-C ) :   1.4790 B( 19-C , 22-C ) :   1.0396
B( 22-C , 23-H ) :   0.9242 B( 22-C , 24-H ) :   0.9273 B( 22-C , 25-C ) :   1.0767
B( 25-C , 26-H ) :   0.9573 B( 25-C , 27-H ) :   0.9488 B( 25-C , 28-C ) :   1.0752
B( 28-C , 29-H ) :   0.9774 B( 28-C , 30-H ) :   0.9769 B( 28-C , 31-H ) :   0.9749

Dispersion correction           -0.014081243
FINAL SINGLE POINT ENERGY     -1339.874888724176

DIPOLE MOMENT
-------------
                                X             Y             Z
Electronic contribution:    -21.48315       2.45128     -15.63414
Nuclear contribution   :     21.78821      -2.40755      15.88107
                        -----------------------------------------
Total Dipole Moment    :      0.30506       0.04373       0.24693
                        -----------------------------------------
Magnitude (a.u.)       :      0.39490
Magnitude (Debye)      :      1.00376

Rotational constants in cm-1:     0.017733     0.008285     0.006948
Rotational constants in MHz :   531.627201   248.392562   208.300449

                             ****ORCA TERMINATED NORMALLY****
TOTAL RUN TIME: 0 days 0 hours 0 minutes 27 seconds 960 msec
