                         Program Version 4.2.1 -  RELEASE  -
|  1> ! wB97X-D3 SP def2-SVP
|  2> %pal
|  3> nprocs 16
|  4> end
|  5>
|  6> * xyz 0 1
|  7> S 	 26.8499 	 32.7187 	 57.8052
|  8> C 	 25.3407 	 31.9159 	 57.6205
|  9> C 	 24.5092 	 32.654 	 56.7759
| 10> C 	 25.2148 	 33.8465 	 56.3537
| 11> C 	 26.4473 	 33.9865 	 56.7872
| 12> H 	 24.9086 	 34.4754 	 55.6053
| 13> C 	 23.1913 	 32.2335 	 56.2727
| 14> H 	 23.1283 	 31.1898 	 56.3859
| 15> H 	 23.0606 	 32.4801 	 55.2142
| 16> C 	 22.0537 	 32.9659 	 56.9886
| 17> H 	 22.0783 	 32.7329 	 58.0481
| 18> H 	 22.1309 	 34.0753 	 56.8628
| 19> C 	 20.6393 	 32.5679 	 56.6188
| 20> H 	 20.344 	 31.5184 	 56.872
| 21> H 	 19.8362 	 33.1444 	 57.1688
| 22> H 	 20.5131 	 32.7151 	 55.4973
| 23> S 	 28.4 	 35.7719 	 57.643
| 24> C 	 29.4595 	 36.558 	 56.5026
| 25> C 	 28.8581 	 36.509 	 55.2582
| 26> C 	 27.7373 	 35.6313 	 55.2064
| 27> C 	 27.4475 	 34.9965 	 56.3956
| 28> H 	 29.2049 	 36.8747 	 54.3569
| 29> C 	 27.0859 	 35.5397 	 53.878
| 30> H 	 26.3103 	 34.8218 	 53.9009
| 31> H 	 27.7746 	 35.0219 	 53.2407
| 32> C 	 26.7167 	 36.8483 	 53.1418
| 33> H 	 26.3168 	 36.5294 	 52.2056
| 34> H 	 27.5561 	 37.5183 	 52.9146
| 35> C 	 25.6194 	 37.72 	 53.7316
| 36> H 	 25.9311 	 38.4136 	 54.53
| 37> H 	 24.8985 	 37.0164 	 54.1123
| 38> H 	 25.1514 	 38.2853 	 52.9412
| 39> H 	 25.0826 	 31.0352 	 58.1319
| 40> H 	 30.4346 	 36.9416 	 56.6829
| 41> *
| 42>
| 43>                          ****END OF INPUT****

CARTESIAN COORDINATES (ANGSTROEM)
---------------------------------
  S     26.849900   32.718700   57.805200
  C     25.340700   31.915900   57.620500
  C     24.509200   32.654000   56.775900
  C     25.214800   33.846500   56.353700
  C     26.447300   33.986500   56.787200
  H     24.908600   34.475400   55.605300
  C     23.191300   32.233500   56.272700
  H     23.128300   31.189800   56.385900
  H     23.060600   32.480100   55.214200
  C     22.053700   32.965900   56.988600
  H     22.078300   32.732900   58.048100
  H     22.130900   34.075300   56.862800
  C     20.639300   32.567900   56.618800
  H     20.344000   31.518400   56.872000
  H     19.836200   33.144400   57.168800
  H     20.513100   32.715100   55.497300
  S     28.400000   35.771900   57.643000
  C     29.459500   36.558000   56.502600
  C     28.858100   36.509000   55.258200
  C     27.737300   35.631300   55.206400
  C     27.447500   34.996500   56.395600
  H     29.204900   36.874700   54.356900
  C     27.085900   35.539700   53.878000
  H     26.310300   34.821800   53.900900
  H     27.774600   35.021900   53.240700
  C     26.716700   36.848300   53.141800
  H     26.316800   36.529400   52.205600
  H     27.556100   37.518300   52.914600
  C     25.619400   37.720000   53.731600
  H     25.931100   38.413600   54.530000
  H     24.898500   37.016400   54.112300
  H     25.151400   38.285300   52.941200
  H     25.082600   31.035200   58.131900
  H     30.434600   36.941600   56.682900

 Total Charge           Charge          ....    0
 Multiplicity           Mult            ....    1
 Number of Electrons    NEL             ....  134
 Basis Dimension        Dim             ....  322

ORBITAL ENERGIES
----------------

  NO   OCC          E(Eh)            E(eV)
   0   2.0000     -88.960812     -2420.7468
   1   2.0000     -88.960721     -2420.7443
   2   2.0000     -10.326525      -280.9990
   3   2.0000     -10.318070      -280.7690
   4   2.0000     -10.316690      -280.7314
   5   2.0000     -10.310599      -280.5657
   6   2.0000     -10.301786      -280.3258
   7   2.0000     -10.296554      -280.1835
   8   2.0000     -10.289028      -279.9787
   9   2.0000     -10.288013      -279.9511
  10   2.0000     -10.287897      -279.9479
  11   2.0000     -10.287414      -279.9348
  12   2.0000     -10.285656      -279.8869
  13   2.0000     -10.285127      -279.8725
  14   2.0000     -10.279416      -279.7171
  15   2.0000     -10.273637      -279.5599
  16   2.0000      -8.077803      -219.8082
  17   2.0000      -8.075866      -219.7555
  18   2.0000      -6.036134      -164.2516
  19   2.0000      -6.034462      -164.2060
  20   2.0000      -6.031888      -164.1360
  21   2.0000      -6.030361      -164.0945
  22   2.0000      -6.028660      -164.0482
  23   2.0000      -6.026476      -163.9887
  24   2.0000      -1.019393       -27.7391
  25   2.0000      -0.992754       -27.0142
  26   2.0000      -0.920303       -25.0427
  27   2.0000      -0.914177       -24.8760
  28   2.0000      -0.872835       -23.7510
  29   2.0000      -0.855888       -23.2899
  30   2.0000      -0.849130       -23.1060
  31   2.0000      -0.822926       -22.3929
  32   2.0000      -0.785791       -21.3825
  33   2.0000      -0.776848       -21.1391
  34   2.0000      -0.706086       -19.2136
  35   2.0000      -0.698919       -19.0186
  36   2.0000      -0.694147       -18.8887
  37   2.0000      -0.666421       -18.1342
  38   2.0000      -0.655878       -17.8473
  39   2.0000      -0.627276       -17.0690
  40   2.0000      -0.603712       -16.4278
  41   2.0000      -0.579667       -15.7735
  42   2.0000      -0.564679       -15.3657
  43   2.0000      -0.555724       -15.1220
  44   2.0000      -0.544553       -14.8180
  45   2.0000      -0.529421       -14.4063
  46   2.0000      -0.523753       -14.2520
  47   2.0000      -0.518440       -14.1075
  48   2.0000      -0.510123       -13.8812
  49   2.0000      -0.508020       -13.8239
  50   2.0000      -0.502321       -13.6689
  51   2.0000      -0.478485       -13.0202
  52   2.0000      -0.470492       -12.8027
  53   2.0000      -0.468678       -12.7534
  54   2.0000      -0.457861       -12.4590
  55   2.0000      -0.452529       -12.3139
  56   2.0000      -0.442462       -12.0400
  57   2.0000      -0.440635       -11.9903
  58   2.0000      -0.427802       -11.6411
  59   2.0000      -0.426875       -11.6159
  60   2.0000      -0.419938       -11.4271
  61   2.0000      -0.415320       -11.3014
  62   2.0000      -0.411253       -11.1908
  63   2.0000      -0.350120        -9.5272
  64   2.0000      -0.326951        -8.8968
  65   2.0000      -0.324513        -8.8305
  66   2.0000      -0.296617        -8.0714
  67   0.0000       0.031697         0.8625
  68   0.0000       0.079856         2.1730
  69   0.0000       0.108591         2.9549
  70   0.0000       0.121763         3.3133
  71   0.0000       0.135058         3.6751

MULLIKEN ATOMIC CHARGES
-----------------------
   0 S :    0.117568
   1 C :   -0.104082
   2 C :   -0.100439
   3 C :    0.046731
   4 C :   -0.119820
   5 H :   -0.044712
   6 C :    0.123728
   7 H :    0.007094
   8 H :    0.022764
   9 C :   -0.097066
  10 H :    0.025390
  11 H :    0.043153
  12 C :   -0.082005
  13 H :    0.032973
  14 H :    0.044603
  15 H :    0.032324
  16 S :    0.097120
  17 C :   -0.071776
  18 C :    0.005508
  19 C :   -0.048523
  20 C :   -0.133821
  21 H :   -0.015368
  22 C :    0.092970
  23 H :   -0.012799
  24 H :    0.022620
  25 C :   -0.078318
  26 H :    0.019236
  27 H :    0.032032
  28 C :   -0.035232
  29 H :    0.047896
  30 H :    0.016483
  31 H :    0.030072
  32 H :    0.030752
  33 H :    0.052945
Sum of atomic charges:   -0.0000000

LOEWDIN ATOMIC CHARGES
----------------------
   0 S :    0.448429
   1 C :   -0.195978
   2 C :   -0.052787
   3 C :   -0.061621
   4 C :   -0.215610
   5 H :    0.012476
   6 C :   -0.028418
   7 H :    0.025852
   8 H :    0.033614
   9 C :   -0.046665
  10 H :    0.023659
  11 H :    0.031407
  12 C :   -0.080309
  13 H :    0.024715
  14 H :    0.033353
  15 H :    0.025224
  16 S :    0.401126
  17 C :   -0.174960
  18 C :   -0.058719
  19 C :   -0.060432
  20 C :   -0.195596
  21 H :    0.016051
  22 C :   -0.033937
  23 H :    0.020712
  24 H :    0.037054
  25 C :   -0.036170
  26 H :    0.024746
  27 H :    0.023626
  28 C :   -0.063541
  29 H :    0.029422
  30 H :    0.021314
  31 H :    0.025918
  32 H :    0.018779
  33 H :    0.027265

  Mayer bond orders larger than 0.100000
B(  0-S ,  1-C ) :   1.1555 B(  0-S ,  4-C ) :   1.1689 B(  1-C ,  2-C ) :   1.5844
B(  1-C , 32-H ) :   0.9803 B(  2-C ,  3-C ) :   1.2250 B(  2-C ,  6-C ) :   1.0499
B(  3-C ,  4-C ) :   1.6041 B(  3-C ,  5-H ) :   1.0140 B(  4-C , 20-C ) :   0.9902
B(  6-C ,  7-H ) :   0.9332 B(  6-C ,  8-H ) :   0.9314 B(  6-C ,  9-C ) :   1.0599
B(  9-C , 10-H ) :   0.9538 B(  9-C , 11-H ) :   0.9565 B(  9-C , 12-C ) :   1.0868
B( 12-C , 13-H ) :   0.9740 B( 12-C , 14-H ) :   0.9727 B( 12-C , 15-H ) :   0.9715
B( 16-S , 17-C ) :   1.1553 B( 16-S , 20-C ) :   1.1377 B( 17-C , 18-C ) :   1.5697
B( 17-C , 20-C ) :   0.1020 B( 17-C , 33-H ) :   0.9759 B( 18-C , 19-C ) :   1.2576
B( 18-C , 21-H ) :   0.9986 B( 19-C , 20-C ) :   1.5983 B( 19-C , 22-C ) :   1.0509
B( 22-C , 23-H ) :   0.9269 B( 22-C , 24-H ) :   0.9169 B( 22-C , 25-C ) :   1.0859
B( 25-C , 26-H ) :   0.9500 B( 25-C , 27-H ) :   0.9516 B( 25-C , 28-C ) :   1.0785
B( 28-C , 29-H ) :   0.9749 B( 28-C , 30-H ) :   0.9745 B( 28-C , 31-H ) :   0.9737

Dispersion correction           -0.013845294
FINAL SINGLE POINT ENERGY     -1339.864720328125

DIPOLE MOMENT
-------------
                                X             Y             Z
Electronic contribution:     24.08349      -3.65899      16.46750
Nuclear contribution   :    -24.44150       3.62549     -17.13844
                        -----------------------------------------
Total Dipole Moment    :     -0.35800      -0.03350      -0.67094
                        -----------------------------------------
Magnitude (a.u.)       :      0.76122
Magnitude (Debye)      :      1.93487

Rotational constants in cm-1:     0.019206     0.008385     0.006362
Rotational constants in MHz :   575.787764   251.369324   190.726849

                             ****ORCA TERMINATED NORMALLY****
TOTAL RUN TIME: 0 days 0 hours 0 minutes 35 seconds 741 msec
