                         Program Version 4.2.1 -  RELEASE  -
|  1> ! wB97X-D3 SP def2-SVP
|  2> %pal
|  3> nprocs 16
|  4> end
|  5>
|  6> * xyz 0 1
|  7> S 	 -95.9831 	 60.912 	 130.211
|  8> C 	 -95.6047 	 60.3142 	 131.832
|  9> C 	 -94.7422 	 61.1755 	 132.499
| 10> C 	 -94.1783 	 62.1591 	 131.634
| 11> C 	 -94.7384 	 62.1701 	 130.317
| 12> H 	 -93.4273 	 62.8903 	 131.947
| 13> C 	 -94.458 	 61.1295 	 133.998
| 14> H 	 -95.2177 	 61.6228 	 134.561
| 15> H 	 -93.6726 	 61.8234 	 134.15
| 16> C 	 -93.993 	 59.7686 	 134.469
| 17> H 	 -94.7831 	 59.0334 	 134.064
| 18> H 	 -92.9563 	 59.5478 	 134.039
| 19> C 	 -94.1329 	 59.7337 	 136.007
| 20> H 	 -95.0784 	 60.0616 	 136.361
| 21> H 	 -93.802 	 58.7216 	 136.437
| 22> H 	 -93.4384 	 60.3868 	 136.405
| 23> S 	 -95.4692 	 63.7725 	 128.166
| 24> C 	 -94.2608 	 64.2153 	 126.933
| 25> C 	 -93.016 	 64.0264 	 127.438
| 26> C 	 -93.0271 	 63.0906 	 128.601
| 27> C 	 -94.3006 	 62.8752 	 129.105
| 28> H 	 -92.1482 	 64.3994 	 126.908
| 29> C 	 -91.7011 	 62.5069 	 129.247
| 30> H 	 -91.6085 	 62.8843 	 130.285
| 31> H 	 -90.8719 	 62.8915 	 128.643
| 32> C 	 -91.7235 	 61.0335 	 129.077
| 33> H 	 -91.6309 	 60.7327 	 128.003
| 34> H 	 -92.6064 	 60.5734 	 129.484
| 35> C 	 -90.5622 	 60.4278 	 129.843
| 36> H 	 -90.3885 	 59.5148 	 129.306
| 37> H 	 -90.6624 	 60.2651 	 130.929
| 38> H 	 -89.5844 	 60.9873 	 129.721
| 39> H 	 -96.2361 	 59.5257 	 132.37
| 40> H 	 -94.3281 	 64.8565 	 126.094
| 41> *
| 42>
| 43>                          ****END OF INPUT****

CARTESIAN COORDINATES (ANGSTROEM)
---------------------------------
  S    -95.983100   60.912000  130.211000
  C    -95.604700   60.314200  131.832000
  C    -94.742200   61.175500  132.499000
  C    -94.178300   62.159100  131.634000
  C    -94.738400   62.170100  130.317000
  H    -93.427300   62.890300  131.947000
  C    -94.458000   61.129500  133.998000
  H    -95.217700   61.622800  134.561000
  H    -93.672600   61.823400  134.150000
  C    -93.993000   59.768600  134.469000
  H    -94.783100   59.033400  134.064000
  H    -92.956300   59.547800  134.039000
  C    -94.132900   59.733700  136.007000
  H    -95.078400   60.061600  136.361000
  H    -93.802000   58.721600  136.437000
  H    -93.438400   60.386800  136.405000
  S    -95.469200   63.772500  128.166000
  C    -94.260800   64.215300  126.933000
  C    -93.016000   64.026400  127.438000
  C    -93.027100   63.090600  128.601000
  C    -94.300600   62.875200  129.105000
  H    -92.148200   64.399400  126.908000
  C    -91.701100   62.506900  129.247000
  H    -91.608500   62.884300  130.285000
  H    -90.871900   62.891500  128.643000
  C    -91.723500   61.033500  129.077000
  H    -91.630900   60.732700  128.003000
  H    -92.606400   60.573400  129.484000
  C    -90.562200   60.427800  129.843000
  H    -90.388500   59.514800  129.306000
  H    -90.662400   60.265100  130.929000
  H    -89.584400   60.987300  129.721000
  H    -96.236100   59.525700  132.370000
  H    -94.328100   64.856500  126.094000

 Total Charge           Charge          ....    0
 Multiplicity           Mult            ....    1
 Number of Electrons    NEL             ....  134
 Basis Dimension        Dim             ....  322

ORBITAL ENERGIES
----------------

  NO   OCC          E(Eh)            E(eV)
   0   2.0000     -88.969870     -2420.9932
   1   2.0000     -88.962069     -2420.7810
   2   2.0000     -10.339310      -281.3469
   3   2.0000     -10.327838      -281.0348
   4   2.0000     -10.323457      -280.9156
   5   2.0000     -10.314182      -280.6631
   6   2.0000     -10.307922      -280.4928
   7   2.0000     -10.304655      -280.4039
   8   2.0000     -10.304325      -280.3949
   9   2.0000     -10.301349      -280.3139
  10   2.0000     -10.296969      -280.1948
  11   2.0000     -10.293115      -280.0899
  12   2.0000     -10.287643      -279.9410
  13   2.0000     -10.278805      -279.7005
  14   2.0000     -10.277717      -279.6709
  15   2.0000     -10.272824      -279.5378
  16   2.0000      -8.083577      -219.9653
  17   2.0000      -8.076509      -219.7730
  18   2.0000      -6.042114      -164.4143
  19   2.0000      -6.038060      -164.3040
  20   2.0000      -6.035298      -164.2288
  21   2.0000      -6.034521      -164.2077
  22   2.0000      -6.031191      -164.1170
  23   2.0000      -6.026823      -163.9982
  24   2.0000      -0.999682       -27.2027
  25   2.0000      -0.978512       -26.6267
  26   2.0000      -0.917058       -24.9544
  27   2.0000      -0.910866       -24.7859
  28   2.0000      -0.869025       -23.6474
  29   2.0000      -0.848073       -23.0772
  30   2.0000      -0.837241       -22.7825
  31   2.0000      -0.813445       -22.1350
  32   2.0000      -0.782608       -21.2958
  33   2.0000      -0.766907       -20.8686
  34   2.0000      -0.708848       -19.2887
  35   2.0000      -0.699500       -19.0344
  36   2.0000      -0.684442       -18.6246
  37   2.0000      -0.658690       -17.9239
  38   2.0000      -0.634622       -17.2689
  39   2.0000      -0.616779       -16.7834
  40   2.0000      -0.584806       -15.9134
  41   2.0000      -0.574734       -15.6393
  42   2.0000      -0.570083       -15.5128
  43   2.0000      -0.563571       -15.3356
  44   2.0000      -0.526036       -14.3142
  45   2.0000      -0.524368       -14.2688
  46   2.0000      -0.517181       -14.0732
  47   2.0000      -0.507213       -13.8020
  48   2.0000      -0.503245       -13.6940
  49   2.0000      -0.493970       -13.4416
  50   2.0000      -0.492556       -13.4031
  51   2.0000      -0.482493       -13.1293
  52   2.0000      -0.474305       -12.9065
  53   2.0000      -0.462541       -12.5864
  54   2.0000      -0.459767       -12.5109
  55   2.0000      -0.450840       -12.2680
  56   2.0000      -0.442548       -12.0423
  57   2.0000      -0.438024       -11.9192
  58   2.0000      -0.429462       -11.6863
  59   2.0000      -0.422394       -11.4939
  60   2.0000      -0.415966       -11.3190
  61   2.0000      -0.414110       -11.2685
  62   2.0000      -0.399092       -10.8598
  63   2.0000      -0.344958        -9.3868
  64   2.0000      -0.334032        -9.0895
  65   2.0000      -0.323348        -8.7988
  66   2.0000      -0.294634        -8.0174
  67   0.0000       0.023102         0.6286
  68   0.0000       0.066348         1.8054
  69   0.0000       0.100744         2.7414
  70   0.0000       0.118627         3.2280
  71   0.0000       0.130092         3.5400

MULLIKEN ATOMIC CHARGES
-----------------------
   0 S :    0.118491
   1 C :   -0.159377
   2 C :   -0.103708
   3 C :    0.028073
   4 C :   -0.167571
   5 H :    0.023601
   6 C :    0.100261
   7 H :    0.032416
   8 H :   -0.007942
   9 C :   -0.126285
  10 H :    0.041390
  11 H :    0.056709
  12 C :   -0.009725
  13 H :    0.026730
  14 H :    0.042293
  15 H :    0.005769
  16 S :    0.091666
  17 C :   -0.061613
  18 C :   -0.039074
  19 C :   -0.094072
  20 C :   -0.123797
  21 H :    0.025513
  22 C :    0.083996
  23 H :    0.040758
  24 H :    0.013129
  25 C :   -0.081842
  26 H :    0.037587
  27 H :    0.046515
  28 C :   -0.052560
  29 H :    0.021958
  30 H :    0.042655
  31 H :    0.019253
  32 H :    0.083682
  33 H :    0.045122
Sum of atomic charges:    0.0000000

LOEWDIN ATOMIC CHARGES
----------------------
   0 S :    0.404473
   1 C :   -0.206215
   2 C :   -0.066081
   3 C :   -0.061084
   4 C :   -0.191106
   5 H :    0.033078
   6 C :   -0.033697
   7 H :    0.030911
   8 H :    0.022517
   9 C :   -0.041400
  10 H :    0.028021
  11 H :    0.038288
  12 C :   -0.062290
  13 H :    0.021753
  14 H :    0.034973
  15 H :    0.012858
  16 S :    0.384117
  17 C :   -0.173599
  18 C :   -0.067121
  19 C :   -0.051167
  20 C :   -0.208649
  21 H :    0.030892
  22 C :   -0.028028
  23 H :    0.030767
  24 H :    0.028695
  25 C :   -0.042858
  26 H :    0.033402
  27 H :    0.026634
  28 C :   -0.071917
  29 H :    0.023705
  30 H :    0.025793
  31 H :    0.024242
  32 H :    0.043062
  33 H :    0.027030

  Mayer bond orders larger than 0.100000
B(  0-S ,  1-C ) :   1.1490 B(  0-S ,  4-C ) :   1.1604 B(  1-C ,  2-C ) :   1.5862
B(  1-C ,  4-C ) :   0.1121 B(  1-C , 32-H ) :   0.9527 B(  2-C ,  3-C ) :   1.2788
B(  2-C ,  6-C ) :   1.0039 B(  3-C ,  4-C ) :   1.5345 B(  3-C ,  5-H ) :   0.9888
B(  4-C , 20-C ) :   1.0297 B(  6-C ,  7-H ) :   0.9393 B(  6-C ,  8-H ) :   0.9292
B(  6-C ,  9-C ) :   1.0515 B(  9-C , 10-H ) :   0.9620 B(  9-C , 11-H ) :   0.9547
B(  9-C , 12-C ) :   1.0700 B( 12-C , 13-H ) :   0.9754 B( 12-C , 14-H ) :   0.9729
B( 12-C , 15-H ) :   0.9707 B( 16-S , 17-C ) :   1.1230 B( 16-S , 20-C ) :   1.1225
B( 17-C , 18-C ) :   1.6711 B( 17-C , 33-H ) :   0.9650 B( 18-C , 19-C ) :   1.2101
B( 18-C , 21-H ) :   0.9815 B( 19-C , 20-C ) :   1.6286 B( 19-C , 22-C ) :   1.0234
B( 22-C , 23-H ) :   0.9460 B( 22-C , 24-H ) :   0.9281 B( 22-C , 25-C ) :   1.0744
B( 25-C , 26-H ) :   0.9539 B( 25-C , 27-H ) :   0.9557 B( 25-C , 28-C ) :   1.0794
B( 28-C , 29-H ) :   0.9742 B( 28-C , 30-H ) :   0.9760 B( 28-C , 31-H ) :   0.9693

Dispersion correction           -0.014461413
FINAL SINGLE POINT ENERGY     -1339.852997860858

DIPOLE MOMENT
-------------
                                X             Y             Z
Electronic contribution:    -19.48788      12.14001     -20.03970
Nuclear contribution   :     20.07388     -12.07310      20.52270
                        -----------------------------------------
Total Dipole Moment    :      0.58599       0.06691       0.48300
                        -----------------------------------------
Magnitude (a.u.)       :      0.76234
Magnitude (Debye)      :      1.93771

Rotational constants in cm-1:     0.021775     0.008036     0.006561
Rotational constants in MHz :   652.795873   240.911543   196.701705

                             ****ORCA TERMINATED NORMALLY****
TOTAL RUN TIME: 0 days 0 hours 0 minutes 35 seconds 303 msec
