                         Program Version 4.2.1 -  RELEASE  -
|  1> ! wB97X-D3 SP def2-SVP
|  2> %pal
|  3> nprocs 16
|  4> end
|  5>
|  6> * xyz 0 1
|  7> S 	 -74.0814 	 54.4117 	 138.6
|  8> C 	 -73.1882 	 53.6423 	 139.901
|  9> C 	 -72.7355 	 52.3561 	 139.576
| 10> C 	 -73.4165 	 51.898 	 138.35
| 11> C 	 -74.1519 	 52.876 	 137.664
| 12> H 	 -73.3456 	 50.9399 	 137.798
| 13> C 	 -71.9028 	 51.4085 	 140.438
| 14> H 	 -71.8855 	 51.6304 	 141.474
| 15> H 	 -70.8472 	 51.6321 	 140.12
| 16> C 	 -72.1204 	 49.853 	 140.263
| 17> H 	 -72.115 	 49.5687 	 139.234
| 18> H 	 -71.3256 	 49.2938 	 140.753
| 19> C 	 -73.4646 	 49.398 	 140.891
| 20> H 	 -73.4678 	 48.3058 	 141.064
| 21> H 	 -73.7743 	 49.9102 	 141.747
| 22> H 	 -74.2779 	 49.5698 	 140.274
| 23> S 	 -75.1479 	 51.1319 	 135.798
| 24> C 	 -76.0199 	 51.7621 	 134.386
| 25> C 	 -75.9741 	 53.1346 	 134.359
| 26> C 	 -75.3109 	 53.6731 	 135.502
| 27> C 	 -74.8166 	 52.726 	 136.392
| 28> H 	 -76.4778 	 53.6292 	 133.561
| 29> C 	 -75.1189 	 55.1896 	 135.643
| 30> H 	 -74.246 	 55.2871 	 136.316
| 31> H 	 -76.028 	 55.4967 	 136.145
| 32> C 	 -74.9756 	 55.9578 	 134.342
| 33> H 	 -75.9117 	 55.8584 	 133.784
| 34> H 	 -74.2474 	 55.5148 	 133.726
| 35> C 	 -74.6481 	 57.4227 	 134.563
| 36> H 	 -75.0678 	 58.128 	 133.797
| 37> H 	 -73.6109 	 57.3631 	 134.594
| 38> H 	 -74.8672 	 57.7679 	 135.558
| 39> H 	 -72.8203 	 54.077 	 140.76
| 40> H 	 -76.5754 	 51.1819 	 133.657
| 41> *
| 42>
| 43>                          ****END OF INPUT****

CARTESIAN COORDINATES (ANGSTROEM)
---------------------------------
  S    -74.081400   54.411700  138.600000
  C    -73.188200   53.642300  139.901000
  C    -72.735500   52.356100  139.576000
  C    -73.416500   51.898000  138.350000
  C    -74.151900   52.876000  137.664000
  H    -73.345600   50.939900  137.798000
  C    -71.902800   51.408500  140.438000
  H    -71.885500   51.630400  141.474000
  H    -70.847200   51.632100  140.120000
  C    -72.120400   49.853000  140.263000
  H    -72.115000   49.568700  139.234000
  H    -71.325600   49.293800  140.753000
  C    -73.464600   49.398000  140.891000
  H    -73.467800   48.305800  141.064000
  H    -73.774300   49.910200  141.747000
  H    -74.277900   49.569800  140.274000
  S    -75.147900   51.131900  135.798000
  C    -76.019900   51.762100  134.386000
  C    -75.974100   53.134600  134.359000
  C    -75.310900   53.673100  135.502000
  C    -74.816600   52.726000  136.392000
  H    -76.477800   53.629200  133.561000
  C    -75.118900   55.189600  135.643000
  H    -74.246000   55.287100  136.316000
  H    -76.028000   55.496700  136.145000
  C    -74.975600   55.957800  134.342000
  H    -75.911700   55.858400  133.784000
  H    -74.247400   55.514800  133.726000
  C    -74.648100   57.422700  134.563000
  H    -75.067800   58.128000  133.797000
  H    -73.610900   57.363100  134.594000
  H    -74.867200   57.767900  135.558000
  H    -72.820300   54.077000  140.760000
  H    -76.575400   51.181900  133.657000

 Total Charge           Charge          ....    0
 Multiplicity           Mult            ....    1
 Number of Electrons    NEL             ....  134
 Basis Dimension        Dim             ....  322

ORBITAL ENERGIES
----------------

  NO   OCC          E(Eh)            E(eV)
   0   2.0000     -88.970650     -2421.0145
   1   2.0000     -88.966823     -2420.9103
   2   2.0000     -10.337017      -281.2845
   3   2.0000     -10.327655      -281.0298
   4   2.0000     -10.320153      -280.8256
   5   2.0000     -10.313407      -280.6421
   6   2.0000     -10.311717      -280.5961
   7   2.0000     -10.302987      -280.3585
   8   2.0000     -10.301265      -280.3117
   9   2.0000     -10.299194      -280.2553
  10   2.0000     -10.292569      -280.0750
  11   2.0000     -10.290464      -280.0178
  12   2.0000     -10.290074      -280.0072
  13   2.0000     -10.279897      -279.7302
  14   2.0000     -10.271742      -279.5083
  15   2.0000     -10.264735      -279.3176
  16   2.0000      -8.083530      -219.9640
  17   2.0000      -8.081263      -219.9023
  18   2.0000      -6.042352      -164.4207
  19   2.0000      -6.039924      -164.3547
  20   2.0000      -6.038267      -164.3096
  21   2.0000      -6.035845      -164.2437
  22   2.0000      -6.034074      -164.1955
  23   2.0000      -6.031870      -164.1355
  24   2.0000      -1.005015       -27.3478
  25   2.0000      -0.977183       -26.5905
  26   2.0000      -0.914207       -24.8768
  27   2.0000      -0.904676       -24.6175
  28   2.0000      -0.874596       -23.7990
  29   2.0000      -0.853903       -23.2359
  30   2.0000      -0.839242       -22.8369
  31   2.0000      -0.816792       -22.2261
  32   2.0000      -0.783443       -21.3186
  33   2.0000      -0.772572       -21.0228
  34   2.0000      -0.713331       -19.4107
  35   2.0000      -0.708995       -19.2927
  36   2.0000      -0.696668       -18.9573
  37   2.0000      -0.665546       -18.1104
  38   2.0000      -0.629757       -17.1366
  39   2.0000      -0.618717       -16.8361
  40   2.0000      -0.593428       -16.1480
  41   2.0000      -0.576885       -15.6978
  42   2.0000      -0.571151       -15.5418
  43   2.0000      -0.544156       -14.8072
  44   2.0000      -0.537993       -14.6395
  45   2.0000      -0.527007       -14.3406
  46   2.0000      -0.518126       -14.0989
  47   2.0000      -0.514755       -14.0072
  48   2.0000      -0.513613       -13.9761
  49   2.0000      -0.495373       -13.4798
  50   2.0000      -0.488080       -13.2813
  51   2.0000      -0.483784       -13.1644
  52   2.0000      -0.473686       -12.8897
  53   2.0000      -0.464397       -12.6369
  54   2.0000      -0.462264       -12.5789
  55   2.0000      -0.451333       -12.2814
  56   2.0000      -0.442848       -12.0505
  57   2.0000      -0.435870       -11.8606
  58   2.0000      -0.433661       -11.8005
  59   2.0000      -0.425137       -11.5686
  60   2.0000      -0.423202       -11.5159
  61   2.0000      -0.411345       -11.1933
  62   2.0000      -0.409975       -11.1560
  63   2.0000      -0.365667        -9.9503
  64   2.0000      -0.331740        -9.0271
  65   2.0000      -0.326250        -8.8777
  66   2.0000      -0.279442        -7.6040
  67   0.0000       0.018427         0.5014
  68   0.0000       0.080807         2.1989
  69   0.0000       0.109186         2.9711
  70   0.0000       0.114890         3.1263
  71   0.0000       0.129824         3.5327

MULLIKEN ATOMIC CHARGES
-----------------------
   0 S :    0.093989
   1 C :   -0.068839
   2 C :   -0.076536
   3 C :   -0.044576
   4 C :   -0.115407
   5 H :    0.031377
   6 C :    0.041141
   7 H :    0.020824
   8 H :    0.044909
   9 C :   -0.059708
  10 H :    0.028153
  11 H :    0.032218
  12 C :   -0.020282
  13 H :    0.032853
  14 H :    0.013581
  15 H :    0.012206
  16 S :    0.082003
  17 C :   -0.081233
  18 C :   -0.028897
  19 C :   -0.090859
  20 C :   -0.103783
  21 H :    0.012974
  22 C :    0.039776
  23 H :    0.038651
  24 H :    0.043143
  25 C :   -0.078805
  26 H :    0.025406
  27 H :    0.022224
  28 C :   -0.005231
  29 H :    0.050378
  30 H :    0.015178
  31 H :    0.021150
  32 H :    0.016216
  33 H :    0.055805
Sum of atomic charges:   -0.0000000

LOEWDIN ATOMIC CHARGES
----------------------
   0 S :    0.398457
   1 C :   -0.191362
   2 C :   -0.049731
   3 C :   -0.078805
   4 C :   -0.169528
   5 H :    0.027655
   6 C :   -0.033104
   7 H :    0.024107
   8 H :    0.042579
   9 C :   -0.030770
  10 H :    0.020100
  11 H :    0.027249
  12 C :   -0.062376
  13 H :    0.030506
  14 H :    0.018164
  15 H :    0.017434
  16 S :    0.401928
  17 C :   -0.171616
  18 C :   -0.069453
  19 C :   -0.058567
  20 C :   -0.202589
  21 H :    0.030308
  22 C :   -0.037838
  23 H :    0.015606
  24 H :    0.035441
  25 C :   -0.038253
  26 H :    0.020650
  27 H :    0.018002
  28 C :   -0.061174
  29 H :    0.035632
  30 H :    0.022403
  31 H :    0.023903
  32 H :    0.013259
  33 H :    0.031782

  Mayer bond orders larger than 0.100000
B(  0-S ,  1-C ) :   1.1231 B(  0-S ,  4-C ) :   1.1115 B(  1-C ,  2-C ) :   1.6327
B(  1-C , 32-H ) :   0.9703 B(  2-C ,  3-C ) :   1.2152 B(  2-C ,  6-C ) :   1.0112
B(  3-C ,  4-C ) :   1.5915 B(  3-C ,  5-H ) :   0.9698 B(  4-C , 20-C ) :   1.1156
B(  6-C ,  7-H ) :   0.9531 B(  6-C ,  8-H ) :   0.9275 B(  6-C ,  9-C ) :   1.0854
B(  9-C , 10-H ) :   0.9517 B(  9-C , 11-H ) :   0.9581 B(  9-C , 12-C ) :   1.0702
B( 12-C , 13-H ) :   0.9759 B( 12-C , 14-H ) :   0.9763 B( 12-C , 15-H ) :   0.9725
B( 16-S , 17-C ) :   1.1446 B( 16-S , 20-C ) :   1.1208 B( 17-C , 18-C ) :   1.6205
B( 17-C , 33-H ) :   0.9641 B( 18-C , 19-C ) :   1.2380 B( 18-C , 21-H ) :   0.9960
B( 19-C , 20-C ) :   1.5764 B( 19-C , 22-C ) :   1.0131 B( 22-C , 23-H ) :   0.9315
B( 22-C , 24-H ) :   0.9203 B( 22-C , 25-C ) :   1.0903 B( 25-C , 26-H ) :   0.9426
B( 25-C , 27-H ) :   0.9670 B( 25-C , 28-C ) :   1.0654 B( 28-C , 29-H ) :   0.9749
B( 28-C , 30-H ) :   0.9745 B( 28-C , 31-H ) :   0.9732

Dispersion correction           -0.013793884
FINAL SINGLE POINT ENERGY     -1339.863638721545

DIPOLE MOMENT
-------------
                                X             Y             Z
Electronic contribution:     -5.01879      -2.54336      -3.06795
Nuclear contribution   :      5.13765       2.56855       2.96280
                        -----------------------------------------
Total Dipole Moment    :      0.11886       0.02519      -0.10516
                        -----------------------------------------
Magnitude (a.u.)       :      0.16069
Magnitude (Debye)      :      0.40844

Rotational constants in cm-1:     0.022257     0.008066     0.006175
Rotational constants in MHz :   667.241415   241.802913   185.113802

                             ****ORCA TERMINATED NORMALLY****
TOTAL RUN TIME: 0 days 0 hours 0 minutes 34 seconds 296 msec
