                         Program Version 4.2.1 -  RELEASE  -
|  1> ! wB97X-D3 SP def2-SVP
|  2> %pal
|  3> nprocs 16
|  4> end
|  5>
|  6> * xyz 0 1
|  7> S 	 -44.9273 	 25.546 	 84.537
|  8> C 	 -46.4091 	 25.318 	 85.4313
|  9> C 	 -46.2753 	 24.3102 	 86.3498
| 10> C 	 -45.1796 	 23.4896 	 86.1304
| 11> C 	 -44.3574 	 24.0042 	 85.1956
| 12> H 	 -44.8692 	 22.6035 	 86.6847
| 13> C 	 -47.2897 	 23.9445 	 87.5098
| 14> H 	 -47.7231 	 22.9239 	 87.3013
| 15> H 	 -48.2171 	 24.6559 	 87.3823
| 16> C 	 -46.7128 	 23.9484 	 88.933
| 17> H 	 -47.3501 	 23.3446 	 89.5308
| 18> H 	 -45.7686 	 23.4029 	 89.0411
| 19> C 	 -46.524 	 25.3285 	 89.4464
| 20> H 	 -45.7572 	 25.7875 	 88.8007
| 21> H 	 -47.4367 	 25.8527 	 89.3457
| 22> H 	 -46.0826 	 25.5231 	 90.4598
| 23> S 	 -42.6036 	 23.5602 	 83.1263
| 24> C 	 -40.9081 	 23.4525 	 83.5099
| 25> C 	 -40.7126 	 23.1745 	 84.802
| 26> C 	 -41.909 	 23.3005 	 85.6646
| 27> C 	 -43.0205 	 23.5949 	 84.8763
| 28> H 	 -39.7627 	 22.9279 	 85.1569
| 29> C 	 -41.8878 	 23.0984 	 87.1994
| 30> H 	 -41.9292 	 21.9949 	 87.0455
| 31> H 	 -42.7475 	 23.547 	 87.6487
| 32> C 	 -40.594 	 23.4955 	 87.9166
| 33> H 	 -40.4302 	 24.5737 	 87.7997
| 34> H 	 -39.8038 	 23.0014 	 87.4104
| 35> C 	 -40.54 	 23.3286 	 89.4161
| 36> H 	 -39.568 	 23.543 	 89.9416
| 37> H 	 -40.8577 	 22.3259 	 89.6961
| 38> H 	 -41.2989 	 23.9682 	 89.8947
| 39> H 	 -47.2269 	 26.0418 	 85.5724
| 40> H 	 -40.1682 	 23.2686 	 82.7667
| 41> *
| 42>
| 43>                          ****END OF INPUT****

CARTESIAN COORDINATES (ANGSTROEM)
---------------------------------
  S    -44.927300   25.546000   84.537000
  C    -46.409100   25.318000   85.431300
  C    -46.275300   24.310200   86.349800
  C    -45.179600   23.489600   86.130400
  C    -44.357400   24.004200   85.195600
  H    -44.869200   22.603500   86.684700
  C    -47.289700   23.944500   87.509800
  H    -47.723100   22.923900   87.301300
  H    -48.217100   24.655900   87.382300
  C    -46.712800   23.948400   88.933000
  H    -47.350100   23.344600   89.530800
  H    -45.768600   23.402900   89.041100
  C    -46.524000   25.328500   89.446400
  H    -45.757200   25.787500   88.800700
  H    -47.436700   25.852700   89.345700
  H    -46.082600   25.523100   90.459800
  S    -42.603600   23.560200   83.126300
  C    -40.908100   23.452500   83.509900
  C    -40.712600   23.174500   84.802000
  C    -41.909000   23.300500   85.664600
  C    -43.020500   23.594900   84.876300
  H    -39.762700   22.927900   85.156900
  C    -41.887800   23.098400   87.199400
  H    -41.929200   21.994900   87.045500
  H    -42.747500   23.547000   87.648700
  C    -40.594000   23.495500   87.916600
  H    -40.430200   24.573700   87.799700
  H    -39.803800   23.001400   87.410400
  C    -40.540000   23.328600   89.416100
  H    -39.568000   23.543000   89.941600
  H    -40.857700   22.325900   89.696100
  H    -41.298900   23.968200   89.894700
  H    -47.226900   26.041800   85.572400
  H    -40.168200   23.268600   82.766700

 Total Charge           Charge          ....    0
 Multiplicity           Mult            ....    1
 Number of Electrons    NEL             ....  134
 Basis Dimension        Dim             ....  322

ORBITAL ENERGIES
----------------

  NO   OCC          E(Eh)            E(eV)
   0   2.0000     -88.966096     -2420.8905
   1   2.0000     -88.958035     -2420.6712
   2   2.0000     -10.324389      -280.9409
   3   2.0000     -10.323100      -280.9058
   4   2.0000     -10.314563      -280.6735
   5   2.0000     -10.311151      -280.5807
   6   2.0000     -10.311012      -280.5769
   7   2.0000     -10.308891      -280.5192
   8   2.0000     -10.302312      -280.3402
   9   2.0000     -10.298178      -280.2277
  10   2.0000     -10.290751      -280.0256
  11   2.0000     -10.287605      -279.9400
  12   2.0000     -10.286957      -279.9223
  13   2.0000     -10.285083      -279.8713
  14   2.0000     -10.284988      -279.8688
  15   2.0000     -10.274061      -279.5714
  16   2.0000      -8.080556      -219.8831
  17   2.0000      -8.072788      -219.6717
  18   2.0000      -6.039033      -164.3304
  19   2.0000      -6.035356      -164.2304
  20   2.0000      -6.031440      -164.1238
  21   2.0000      -6.031068      -164.1137
  22   2.0000      -6.027488      -164.0163
  23   2.0000      -6.023189      -163.8993
  24   2.0000      -1.009332       -27.4653
  25   2.0000      -0.983456       -26.7612
  26   2.0000      -0.914239       -24.8777
  27   2.0000      -0.911666       -24.8077
  28   2.0000      -0.874879       -23.8067
  29   2.0000      -0.855250       -23.2725
  30   2.0000      -0.846429       -23.0325
  31   2.0000      -0.815658       -22.1952
  32   2.0000      -0.783550       -21.3215
  33   2.0000      -0.771698       -20.9990
  34   2.0000      -0.712281       -19.3821
  35   2.0000      -0.702304       -19.1107
  36   2.0000      -0.694231       -18.8910
  37   2.0000      -0.655413       -17.8347
  38   2.0000      -0.638914       -17.3857
  39   2.0000      -0.622571       -16.9410
  40   2.0000      -0.601102       -16.3568
  41   2.0000      -0.574309       -15.6277
  42   2.0000      -0.566439       -15.4136
  43   2.0000      -0.552879       -15.0446
  44   2.0000      -0.542409       -14.7597
  45   2.0000      -0.529241       -14.4014
  46   2.0000      -0.520374       -14.1601
  47   2.0000      -0.514216       -13.9925
  48   2.0000      -0.500314       -13.6142
  49   2.0000      -0.496246       -13.5035
  50   2.0000      -0.484787       -13.1917
  51   2.0000      -0.481294       -13.0967
  52   2.0000      -0.471202       -12.8221
  53   2.0000      -0.467901       -12.7322
  54   2.0000      -0.460402       -12.5282
  55   2.0000      -0.452083       -12.3018
  56   2.0000      -0.445610       -12.1257
  57   2.0000      -0.439753       -11.9663
  58   2.0000      -0.431793       -11.7497
  59   2.0000      -0.428670       -11.6647
  60   2.0000      -0.426765       -11.6129
  61   2.0000      -0.409180       -11.1344
  62   2.0000      -0.408135       -11.1059
  63   2.0000      -0.348366        -9.4795
  64   2.0000      -0.335619        -9.1326
  65   2.0000      -0.323778        -8.8105
  66   2.0000      -0.292036        -7.9467
  67   0.0000       0.030502         0.8300
  68   0.0000       0.072742         1.9794
  69   0.0000       0.106906         2.9090
  70   0.0000       0.113358         3.0846
  71   0.0000       0.129945         3.5360

MULLIKEN ATOMIC CHARGES
-----------------------
   0 S :    0.121006
   1 C :   -0.105410
   2 C :   -0.093552
   3 C :    0.017871
   4 C :   -0.122309
   5 H :    0.018466
   6 C :   -0.015533
   7 H :    0.046539
   8 H :    0.034370
   9 C :   -0.027709
  10 H :    0.015705
  11 H :    0.020473
  12 C :   -0.045711
  13 H :    0.032627
  14 H :    0.019249
  15 H :    0.039506
  16 S :    0.083235
  17 C :   -0.055110
  18 C :   -0.026276
  19 C :   -0.036334
  20 C :   -0.206076
  21 H :   -0.005487
  22 C :    0.061120
  23 H :    0.059316
  24 H :    0.032078
  25 C :   -0.068578
  26 H :    0.035513
  27 H :    0.022284
  28 C :   -0.045999
  29 H :    0.050634
  30 H :    0.017021
  31 H :    0.026500
  32 H :    0.050373
  33 H :    0.050197
Sum of atomic charges:   -0.0000000

LOEWDIN ATOMIC CHARGES
----------------------
   0 S :    0.403748
   1 C :   -0.206984
   2 C :   -0.068246
   3 C :   -0.066848
   4 C :   -0.181124
   5 H :    0.036623
   6 C :   -0.032716
   7 H :    0.036090
   8 H :    0.035473
   9 C :   -0.047089
  10 H :    0.019018
  11 H :    0.025150
  12 C :   -0.068720
  13 H :    0.030784
  14 H :    0.017624
  15 H :    0.031007
  16 S :    0.371478
  17 C :   -0.173506
  18 C :   -0.069377
  19 C :   -0.038497
  20 C :   -0.195639
  21 H :    0.018205
  22 C :   -0.028001
  23 H :    0.050378
  24 H :    0.026558
  25 C :   -0.045174
  26 H :    0.030664
  27 H :    0.017183
  28 C :   -0.069537
  29 H :    0.036372
  30 H :    0.019535
  31 H :    0.026540
  32 H :    0.032644
  33 H :    0.026388

  Mayer bond orders larger than 0.100000
B(  0-S ,  1-C ) :   1.1243 B(  0-S ,  4-C ) :   1.1478 B(  1-C ,  2-C ) :   1.6459
B(  1-C , 32-H ) :   0.9555 B(  2-C ,  3-C ) :   1.2166 B(  2-C ,  6-C ) :   1.0082
B(  3-C ,  4-C ) :   1.5908 B(  3-C ,  5-H ) :   1.0007 B(  4-C , 20-C ) :   1.0558
B(  6-C ,  7-H ) :   0.9466 B(  6-C ,  8-H ) :   0.9485 B(  6-C ,  9-C ) :   1.0629
B(  9-C , 10-H ) :   0.9510 B(  9-C , 11-H ) :   0.9521 B(  9-C , 12-C ) :   1.0711
B( 12-C , 13-H ) :   0.9747 B( 12-C , 14-H ) :   0.9745 B( 12-C , 15-H ) :   0.9723
B( 16-S , 17-C ) :   1.1286 B( 16-S , 20-C ) :   1.1192 B( 17-C , 18-C ) :   1.6679
B( 17-C , 33-H ) :   0.9628 B( 18-C , 19-C ) :   1.1880 B( 18-C , 21-H ) :   0.9931
B( 19-C , 20-C ) :   1.6297 B( 19-C , 22-C ) :   1.0049 B( 22-C , 23-H ) :   0.9299
B( 22-C , 24-H ) :   0.9380 B( 22-C , 25-C ) :   1.0696 B( 25-C , 26-H ) :   0.9578
B( 25-C , 27-H ) :   0.9472 B( 25-C , 28-C ) :   1.0903 B( 28-C , 29-H ) :   0.9735
B( 28-C , 30-H ) :   0.9728 B( 28-C , 31-H ) :   0.9716

Dispersion correction           -0.014259020
FINAL SINGLE POINT ENERGY     -1339.860315512461

DIPOLE MOMENT
-------------
                                X             Y             Z
Electronic contribution:     -0.10651       2.72494     -31.02393
Nuclear contribution   :      0.35931      -2.99207      31.84540
                        -----------------------------------------
Total Dipole Moment    :      0.25281      -0.26714       0.82148
                        -----------------------------------------
Magnitude (a.u.)       :      0.90005
Magnitude (Debye)      :      2.28776

Rotational constants in cm-1:     0.016151     0.010133     0.006749
Rotational constants in MHz :   484.193926   303.785823   202.315556

                             ****ORCA TERMINATED NORMALLY****
TOTAL RUN TIME: 0 days 0 hours 0 minutes 30 seconds 467 msec
