                         Program Version 4.2.1 -  RELEASE  -
|  1> ! wB97X-D3 SP def2-SVP
|  2> %pal
|  3> nprocs 16
|  4> end
|  5>
|  6> * xyz 0 1
|  7> S 	 33.493 	 12.3314 	 68.1283
|  8> C 	 32.0175 	 13.1626 	 68.5706
|  9> C 	 32.231 	 14.3477 	 69.1118
| 10> C 	 33.5925 	 14.6798 	 69.2567
| 11> C 	 34.4357 	 13.6316 	 68.7963
| 12> H 	 34.0585 	 15.5952 	 69.6198
| 13> C 	 31.2031 	 15.3584 	 69.55
| 14> H 	 31.4062 	 15.8589 	 70.5202
| 15> H 	 30.2402 	 14.785 	 69.6064
| 16> C 	 31.1573 	 16.5778 	 68.6348
| 17> H 	 32.1283 	 17.0463 	 68.5535
| 18> H 	 30.8189 	 16.4071 	 67.6546
| 19> C 	 30.3145 	 17.7621 	 69.1866
| 20> H 	 30.619 	 17.9547 	 70.2288
| 21> H 	 30.4584 	 18.6393 	 68.5737
| 22> H 	 29.2289 	 17.4755 	 69.2957
| 23> S 	 36.5543 	 14.9033 	 67.7458
| 24> C 	 38.0485 	 14.1526 	 67.6091
| 25> C 	 38.1614 	 12.9855 	 68.3574
| 26> C 	 36.8489 	 12.6057 	 68.8663
| 27> C 	 35.876 	 13.6093 	 68.7475
| 28> H 	 39.0238 	 12.3961 	 68.4474
| 29> C 	 36.6298 	 11.3187 	 69.5973
| 30> H 	 36.5112 	 10.5331 	 68.7824
| 31> H 	 35.6552 	 11.3277 	 70.0636
| 32> C 	 37.6947 	 10.8524 	 70.5996
| 33> H 	 37.853 	 11.7401 	 71.2887
| 34> H 	 38.5716 	 10.74 	 70.022
| 35> C 	 37.3011 	 9.57411 	 71.3085
| 36> H 	 36.7553 	 8.90925 	 70.6589
| 37> H 	 36.6825 	 9.77649 	 72.1629
| 38> H 	 38.0829 	 9.01672 	 71.7347
| 39> H 	 31.0581 	 12.7591 	 68.4459
| 40> H 	 38.8476 	 14.6576 	 67.1107
| 41> *
| 42>
| 43>                          ****END OF INPUT****

CARTESIAN COORDINATES (ANGSTROEM)
---------------------------------
  S     33.493000   12.331400   68.128300
  C     32.017500   13.162600   68.570600
  C     32.231000   14.347700   69.111800
  C     33.592500   14.679800   69.256700
  C     34.435700   13.631600   68.796300
  H     34.058500   15.595200   69.619800
  C     31.203100   15.358400   69.550000
  H     31.406200   15.858900   70.520200
  H     30.240200   14.785000   69.606400
  C     31.157300   16.577800   68.634800
  H     32.128300   17.046300   68.553500
  H     30.818900   16.407100   67.654600
  C     30.314500   17.762100   69.186600
  H     30.619000   17.954700   70.228800
  H     30.458400   18.639300   68.573700
  H     29.228900   17.475500   69.295700
  S     36.554300   14.903300   67.745800
  C     38.048500   14.152600   67.609100
  C     38.161400   12.985500   68.357400
  C     36.848900   12.605700   68.866300
  C     35.876000   13.609300   68.747500
  H     39.023800   12.396100   68.447400
  C     36.629800   11.318700   69.597300
  H     36.511200   10.533100   68.782400
  H     35.655200   11.327700   70.063600
  C     37.694700   10.852400   70.599600
  H     37.853000   11.740100   71.288700
  H     38.571600   10.740000   70.022000
  C     37.301100    9.574110   71.308500
  H     36.755300    8.909250   70.658900
  H     36.682500    9.776490   72.162900
  H     38.082900    9.016720   71.734700
  H     31.058100   12.759100   68.445900
  H     38.847600   14.657600   67.110700

 Total Charge           Charge          ....    0
 Multiplicity           Mult            ....    1
 Number of Electrons    NEL             ....  134
 Basis Dimension        Dim             ....  322

ORBITAL ENERGIES
----------------

  NO   OCC          E(Eh)            E(eV)
   0   2.0000     -88.965790     -2420.8822
   1   2.0000     -88.961823     -2420.7743
   2   2.0000     -10.329735      -281.0864
   3   2.0000     -10.323322      -280.9119
   4   2.0000     -10.315962      -280.7116
   5   2.0000     -10.308271      -280.5023
   6   2.0000     -10.302246      -280.3384
   7   2.0000     -10.295676      -280.1596
   8   2.0000     -10.294910      -280.1387
   9   2.0000     -10.291945      -280.0581
  10   2.0000     -10.291047      -280.0336
  11   2.0000     -10.289061      -279.9796
  12   2.0000     -10.286977      -279.9229
  13   2.0000     -10.280843      -279.7560
  14   2.0000     -10.279411      -279.7170
  15   2.0000     -10.270747      -279.4812
  16   2.0000      -8.080530      -219.8824
  17   2.0000      -8.078006      -219.8137
  18   2.0000      -6.039039      -164.3306
  19   2.0000      -6.036377      -164.2582
  20   2.0000      -6.035077      -164.2228
  21   2.0000      -6.032156      -164.1433
  22   2.0000      -6.031258      -164.1189
  23   2.0000      -6.028961      -164.0564
  24   2.0000      -1.009942       -27.4819
  25   2.0000      -0.989025       -26.9127
  26   2.0000      -0.913892       -24.8683
  27   2.0000      -0.912374       -24.8270
  28   2.0000      -0.873935       -23.7810
  29   2.0000      -0.854373       -23.2487
  30   2.0000      -0.846941       -23.0464
  31   2.0000      -0.811113       -22.0715
  32   2.0000      -0.783677       -21.3249
  33   2.0000      -0.772394       -21.0179
  34   2.0000      -0.712596       -19.3907
  35   2.0000      -0.701576       -19.0908
  36   2.0000      -0.693230       -18.8637
  37   2.0000      -0.662597       -18.0302
  38   2.0000      -0.640822       -17.4377
  39   2.0000      -0.615499       -16.7486
  40   2.0000      -0.602835       -16.4040
  41   2.0000      -0.579328       -15.7643
  42   2.0000      -0.567490       -15.4422
  43   2.0000      -0.558713       -15.2034
  44   2.0000      -0.528361       -14.3774
  45   2.0000      -0.523848       -14.2546
  46   2.0000      -0.523220       -14.2375
  47   2.0000      -0.509482       -13.8637
  48   2.0000      -0.506862       -13.7924
  49   2.0000      -0.504742       -13.7347
  50   2.0000      -0.486871       -13.2484
  51   2.0000      -0.480542       -13.0762
  52   2.0000      -0.471299       -12.8247
  53   2.0000      -0.464370       -12.6361
  54   2.0000      -0.459332       -12.4991
  55   2.0000      -0.455305       -12.3895
  56   2.0000      -0.444226       -12.0880
  57   2.0000      -0.440134       -11.9766
  58   2.0000      -0.428388       -11.6570
  59   2.0000      -0.424761       -11.5583
  60   2.0000      -0.424032       -11.5385
  61   2.0000      -0.414233       -11.2719
  62   2.0000      -0.413914       -11.2632
  63   2.0000      -0.346442        -9.4272
  64   2.0000      -0.331867        -9.0305
  65   2.0000      -0.326674        -8.8892
  66   2.0000      -0.291093        -7.9211
  67   0.0000       0.031744         0.8638
  68   0.0000       0.071911         1.9568
  69   0.0000       0.107957         2.9376
  70   0.0000       0.118339         3.2202
  71   0.0000       0.129300         3.5184

MULLIKEN ATOMIC CHARGES
-----------------------
   0 S :    0.118703
   1 C :   -0.121063
   2 C :   -0.018085
   3 C :   -0.005126
   4 C :   -0.143220
   5 H :    0.016446
   6 C :    0.075443
   7 H :    0.024489
   8 H :    0.024114
   9 C :   -0.070876
  10 H :    0.026412
  11 H :    0.019324
  12 C :   -0.069100
  13 H :    0.022328
  14 H :    0.043648
  15 H :    0.034246
  16 S :    0.104629
  17 C :   -0.071128
  18 C :   -0.007794
  19 C :   -0.081133
  20 C :   -0.133679
  21 H :    0.004196
  22 C :    0.017698
  23 H :    0.038432
  24 H :    0.019831
  25 C :   -0.073797
  26 H :    0.045144
  27 H :    0.019597
  28 C :    0.000866
  29 H :    0.023186
  30 H :    0.027030
  31 H :    0.018754
  32 H :    0.015849
  33 H :    0.054637
Sum of atomic charges:   -0.0000000

LOEWDIN ATOMIC CHARGES
----------------------
   0 S :    0.413712
   1 C :   -0.189713
   2 C :   -0.068516
   3 C :   -0.066165
   4 C :   -0.194762
   5 H :    0.031129
   6 C :   -0.028678
   7 H :    0.034511
   8 H :    0.032202
   9 C :   -0.037139
  10 H :    0.024720
  11 H :    0.015924
  12 C :   -0.067085
  13 H :    0.020797
  14 H :    0.025700
  15 H :    0.026611
  16 S :    0.434600
  17 C :   -0.189478
  18 C :   -0.070623
  19 C :   -0.045704
  20 C :   -0.210187
  21 H :    0.022296
  22 C :   -0.043060
  23 H :    0.037842
  24 H :    0.022240
  25 C :   -0.038167
  26 H :    0.034258
  27 H :    0.013792
  28 C :   -0.059253
  29 H :    0.025905
  30 H :    0.028474
  31 H :    0.021901
  32 H :    0.017936
  33 H :    0.023981

  Mayer bond orders larger than 0.100000
B(  0-S ,  1-C ) :   1.1191 B(  0-S ,  4-C ) :   1.1563 B(  1-C ,  2-C ) :   1.6481
B(  1-C , 32-H ) :   0.9699 B(  2-C ,  3-C ) :   1.2155 B(  2-C ,  6-C ) :   1.0316
B(  3-C ,  4-C ) :   1.5492 B(  3-C ,  5-H ) :   0.9991 B(  4-C , 20-C ) :   1.0525
B(  6-C ,  7-H ) :   0.9380 B(  6-C ,  8-H ) :   0.9380 B(  6-C ,  9-C ) :   1.0584
B(  9-C , 10-H ) :   0.9571 B(  9-C , 11-H ) :   0.9536 B(  9-C , 12-C ) :   1.0820
B( 12-C , 13-H ) :   0.9729 B( 12-C , 14-H ) :   0.9759 B( 12-C , 15-H ) :   0.9755
B( 16-S , 17-C ) :   1.2114 B( 16-S , 20-C ) :   1.1245 B( 17-C , 18-C ) :   1.5573
B( 17-C , 33-H ) :   0.9659 B( 18-C , 19-C ) :   1.2427 B( 18-C , 21-H ) :   1.0021
B( 19-C , 20-C ) :   1.5738 B( 19-C , 22-C ) :   1.0535 B( 22-C , 23-H ) :   0.9158
B( 22-C , 24-H ) :   0.9451 B( 22-C , 25-C ) :   1.0632 B( 25-C , 26-H ) :   0.9595
B( 25-C , 27-H ) :   0.9489 B( 25-C , 28-C ) :   1.0854 B( 28-C , 29-H ) :   0.9723
B( 28-C , 30-H ) :   0.9716 B( 28-C , 31-H ) :   0.9713

Dispersion correction           -0.013490694
FINAL SINGLE POINT ENERGY     -1339.878899498357

DIPOLE MOMENT
-------------
                                X             Y             Z
Electronic contribution:      7.02373      -0.50746     -12.10509
Nuclear contribution   :     -6.92614       0.46017      12.24668
                        -----------------------------------------
Total Dipole Moment    :      0.09759      -0.04729       0.14159
                        -----------------------------------------
Magnitude (a.u.)       :      0.17835
Magnitude (Debye)      :      0.45333

Rotational constants in cm-1:     0.022601     0.007197     0.006056
Rotational constants in MHz :   677.556349   215.746531   181.551202

                             ****ORCA TERMINATED NORMALLY****
TOTAL RUN TIME: 0 days 0 hours 0 minutes 29 seconds 635 msec
