                         Program Version 4.2.1 -  RELEASE  -
|  1> ! wB97X-D3 SP def2-SVP
|  2> %pal
|  3> nprocs 16
|  4> end
|  5>
|  6> * xyz 0 1
|  7> S 	 46.3616 	 10.5531 	 82.2852
|  8> C 	 46.9521 	 11.2735 	 83.7795
|  9> C 	 47.6296 	 12.4083 	 83.5486
| 10> C 	 47.581 	 12.808 	 82.147
| 11> C 	 46.8472 	 11.9171 	 81.3175
| 12> H 	 47.9429 	 13.7696 	 81.733
| 13> C 	 48.3725 	 13.2995 	 84.6091
| 14> H 	 48.1145 	 12.9143 	 85.5941
| 15> H 	 48.0254 	 14.3287 	 84.5208
| 16> C 	 49.8908 	 13.2688 	 84.4033
| 17> H 	 50.0234 	 13.9404 	 83.5419
| 18> H 	 50.2636 	 13.6963 	 85.3605
| 19> C 	 50.5107 	 11.8933 	 84.0913
| 20> H 	 50.1265 	 11.3977 	 83.2579
| 21> H 	 51.6227 	 11.9438 	 83.9582
| 22> H 	 50.4205 	 11.1282 	 84.8386
| 23> S 	 47.2935 	 10.8684 	 78.8329
| 24> C 	 46.3449 	 11.4517 	 77.4624
| 25> C 	 45.5256 	 12.5001 	 77.8357
| 26> C 	 45.6636 	 12.7886 	 79.256
| 27> C 	 46.5513 	 11.9592 	 79.9238
| 28> H 	 44.9185 	 13.1138 	 77.1937
| 29> C 	 44.9283 	 13.8878 	 79.9642
| 30> H 	 44.7097 	 13.6213 	 80.9884
| 31> H 	 43.9248 	 13.8756 	 79.4673
| 32> C 	 45.4474 	 15.3965 	 79.8116
| 33> H 	 46.4573 	 15.6284 	 80.2331
| 34> H 	 44.8798 	 16.0922 	 80.3694
| 35> C 	 45.3271 	 15.9832 	 78.3543
| 36> H 	 44.268 	 16.0294 	 78.1004
| 37> H 	 45.7605 	 15.3642 	 77.5702
| 38> H 	 45.7466 	 16.9918 	 78.366
| 39> H 	 46.8346 	 10.7859 	 84.7316
| 40> H 	 46.362 	 11.0203 	 76.4416
| 41> *
| 42>
| 43>                          ****END OF INPUT****

CARTESIAN COORDINATES (ANGSTROEM)
---------------------------------
  S     46.361600   10.553100   82.285200
  C     46.952100   11.273500   83.779500
  C     47.629600   12.408300   83.548600
  C     47.581000   12.808000   82.147000
  C     46.847200   11.917100   81.317500
  H     47.942900   13.769600   81.733000
  C     48.372500   13.299500   84.609100
  H     48.114500   12.914300   85.594100
  H     48.025400   14.328700   84.520800
  C     49.890800   13.268800   84.403300
  H     50.023400   13.940400   83.541900
  H     50.263600   13.696300   85.360500
  C     50.510700   11.893300   84.091300
  H     50.126500   11.397700   83.257900
  H     51.622700   11.943800   83.958200
  H     50.420500   11.128200   84.838600
  S     47.293500   10.868400   78.832900
  C     46.344900   11.451700   77.462400
  C     45.525600   12.500100   77.835700
  C     45.663600   12.788600   79.256000
  C     46.551300   11.959200   79.923800
  H     44.918500   13.113800   77.193700
  C     44.928300   13.887800   79.964200
  H     44.709700   13.621300   80.988400
  H     43.924800   13.875600   79.467300
  C     45.447400   15.396500   79.811600
  H     46.457300   15.628400   80.233100
  H     44.879800   16.092200   80.369400
  C     45.327100   15.983200   78.354300
  H     44.268000   16.029400   78.100400
  H     45.760500   15.364200   77.570200
  H     45.746600   16.991800   78.366000
  H     46.834600   10.785900   84.731600
  H     46.362000   11.020300   76.441600

 Total Charge           Charge          ....    0
 Multiplicity           Mult            ....    1
 Number of Electrons    NEL             ....  134
 Basis Dimension        Dim             ....  322

ORBITAL ENERGIES
----------------

  NO   OCC          E(Eh)            E(eV)
   0   2.0000     -88.966442     -2420.9000
   1   2.0000     -88.962490     -2420.7924
   2   2.0000     -10.331015      -281.1212
   3   2.0000     -10.324191      -280.9355
   4   2.0000     -10.319898      -280.8187
   5   2.0000     -10.312005      -280.6039
   6   2.0000     -10.302982      -280.3584
   7   2.0000     -10.302554      -280.3468
   8   2.0000     -10.301976      -280.3310
   9   2.0000     -10.298582      -280.2387
  10   2.0000     -10.295989      -280.1681
  11   2.0000     -10.294840      -280.1368
  12   2.0000     -10.292738      -280.0796
  13   2.0000     -10.292510      -280.0734
  14   2.0000     -10.279784      -279.7271
  15   2.0000     -10.271178      -279.4930
  16   2.0000      -8.081550      -219.9102
  17   2.0000      -8.077510      -219.8002
  18   2.0000      -6.040157      -164.3610
  19   2.0000      -6.036057      -164.2495
  20   2.0000      -6.035857      -164.2440
  21   2.0000      -6.032326      -164.1479
  22   2.0000      -6.031915      -164.1368
  23   2.0000      -6.028256      -164.0372
  24   2.0000      -1.008243       -27.4357
  25   2.0000      -0.983061       -26.7505
  26   2.0000      -0.909572       -24.7507
  27   2.0000      -0.897504       -24.4223
  28   2.0000      -0.873037       -23.7566
  29   2.0000      -0.846388       -23.0314
  30   2.0000      -0.836353       -22.7583
  31   2.0000      -0.813538       -22.1375
  32   2.0000      -0.788292       -21.4505
  33   2.0000      -0.770876       -20.9766
  34   2.0000      -0.711446       -19.3594
  35   2.0000      -0.697868       -18.9899
  36   2.0000      -0.691159       -18.8074
  37   2.0000      -0.665359       -18.1054
  38   2.0000      -0.640775       -17.4364
  39   2.0000      -0.615102       -16.7378
  40   2.0000      -0.588362       -16.0101
  41   2.0000      -0.567056       -15.4304
  42   2.0000      -0.554037       -15.0761
  43   2.0000      -0.546289       -14.8653
  44   2.0000      -0.541305       -14.7297
  45   2.0000      -0.537423       -14.6240
  46   2.0000      -0.519584       -14.1386
  47   2.0000      -0.507617       -13.8130
  48   2.0000      -0.507090       -13.7986
  49   2.0000      -0.494423       -13.4539
  50   2.0000      -0.485286       -13.2053
  51   2.0000      -0.477933       -13.0052
  52   2.0000      -0.470813       -12.8115
  53   2.0000      -0.463711       -12.6182
  54   2.0000      -0.461898       -12.5689
  55   2.0000      -0.445604       -12.1255
  56   2.0000      -0.441521       -12.0144
  57   2.0000      -0.437320       -11.9001
  58   2.0000      -0.434297       -11.8178
  59   2.0000      -0.424773       -11.5587
  60   2.0000      -0.419815       -11.4238
  61   2.0000      -0.412310       -11.2195
  62   2.0000      -0.410384       -11.1671
  63   2.0000      -0.339302        -9.2329
  64   2.0000      -0.331799        -9.0287
  65   2.0000      -0.323851        -8.8124
  66   2.0000      -0.304426        -8.2839
  67   0.0000       0.038085         1.0363
  68   0.0000       0.061347         1.6693
  69   0.0000       0.120058         3.2669
  70   0.0000       0.120969         3.2917
  71   0.0000       0.125138         3.4052

MULLIKEN ATOMIC CHARGES
-----------------------
   0 S :    0.106138
   1 C :   -0.130961
   2 C :   -0.098904
   3 C :    0.036137
   4 C :   -0.197583
   5 H :    0.023823
   6 C :    0.091090
   7 H :    0.012007
   8 H :    0.036667
   9 C :   -0.083083
  10 H :    0.037612
  11 H :    0.042404
  12 C :   -0.032456
  13 H :    0.031687
  14 H :    0.034853
  15 H :    0.012611
  16 S :    0.121641
  17 C :   -0.109707
  18 C :   -0.006718
  19 C :   -0.042077
  20 C :   -0.156671
  21 H :    0.016435
  22 C :    0.058454
  23 H :    0.038932
  24 H :    0.020405
  25 C :   -0.049898
  26 H :    0.027428
  27 H :    0.017190
  28 C :   -0.079336
  29 H :    0.024622
  30 H :    0.038926
  31 H :    0.040628
  32 H :    0.043926
  33 H :    0.073774
Sum of atomic charges:    0.0000000

LOEWDIN ATOMIC CHARGES
----------------------
   0 S :    0.402588
   1 C :   -0.189813
   2 C :   -0.066964
   3 C :   -0.062205
   4 C :   -0.198788
   5 H :    0.032921
   6 C :   -0.023038
   7 H :    0.022708
   8 H :    0.031877
   9 C :   -0.040460
  10 H :    0.026839
  11 H :    0.031665
  12 C :   -0.069498
  13 H :    0.020770
  14 H :    0.033675
  15 H :    0.021592
  16 S :    0.421016
  17 C :   -0.184625
  18 C :   -0.068120
  19 C :   -0.053780
  20 C :   -0.226439
  21 H :    0.029169
  22 C :   -0.034613
  23 H :    0.032186
  24 H :    0.035348
  25 C :   -0.036984
  26 H :    0.022925
  27 H :    0.019148
  28 C :   -0.067622
  29 H :    0.021913
  30 H :    0.020921
  31 H :    0.029418
  32 H :    0.027218
  33 H :    0.039054

  Mayer bond orders larger than 0.100000
B(  0-S ,  1-C ) :   1.1312 B(  0-S ,  4-C ) :   1.1556 B(  1-C ,  2-C ) :   1.6445
B(  1-C , 32-H ) :   0.9690 B(  2-C ,  3-C ) :   1.2113 B(  2-C ,  6-C ) :   1.0105
B(  3-C ,  4-C ) :   1.5825 B(  3-C ,  5-H ) :   0.9890 B(  4-C , 20-C ) :   1.0427
B(  6-C ,  7-H ) :   0.9428 B(  6-C ,  8-H ) :   0.9483 B(  6-C ,  9-C ) :   1.0623
B(  9-C , 10-H ) :   0.9573 B(  9-C , 11-H ) :   0.9591 B(  9-C , 12-C ) :   1.0788
B( 12-C , 13-H ) :   0.9672 B( 12-C , 14-H ) :   0.9736 B( 12-C , 15-H ) :   0.9743
B( 16-S , 17-C ) :   1.1578 B( 16-S , 20-C ) :   1.1446 B( 17-C , 18-C ) :   1.5917
B( 17-C , 33-H ) :   0.9638 B( 18-C , 19-C ) :   1.2512 B( 18-C , 21-H ) :   0.9870
B( 19-C , 20-C ) :   1.5923 B( 19-C , 22-C ) :   1.0565 B( 22-C , 23-H ) :   0.9304
B( 22-C , 24-H ) :   0.9347 B( 22-C , 25-C ) :   1.0537 B( 25-C , 26-H ) :   0.9605
B( 25-C , 27-H ) :   0.9550 B( 25-C , 28-C ) :   1.0696 B( 28-C , 29-H ) :   0.9772
B( 28-C , 30-H ) :   0.9774 B( 28-C , 31-H ) :   0.9734

Dispersion correction           -0.015109796
FINAL SINGLE POINT ENERGY     -1339.882956539567

DIPOLE MOMENT
-------------
                                X             Y             Z
Electronic contribution:     -4.96618     -20.50499      -6.94030
Nuclear contribution   :      4.92954      21.07071       7.09981
                        -----------------------------------------
Total Dipole Moment    :     -0.03664       0.56572       0.15951
                        -----------------------------------------
Magnitude (a.u.)       :      0.58892
Magnitude (Debye)      :      1.49692

Rotational constants in cm-1:     0.019996     0.008499     0.007158
Rotational constants in MHz :   599.475637   254.786082   214.586284

                             ****ORCA TERMINATED NORMALLY****
TOTAL RUN TIME: 0 days 0 hours 0 minutes 30 seconds 148 msec
