                         Program Version 4.2.1 -  RELEASE  -
|  1> ! wB97X-D3 SP def2-SVP
|  2> %pal
|  3> nprocs 16
|  4> end
|  5>
|  6> * xyz 0 1
|  7> S 	 35.9546 	 -3.37515 	 68.2061
|  8> C 	 36.1609 	 -1.69598 	 68.7369
|  9> C 	 35.0007 	 -1.08069 	 69.1068
| 10> C 	 33.8902 	 -1.98411 	 68.9517
| 11> C 	 34.3046 	 -3.23227 	 68.536
| 12> H 	 32.8816 	 -1.81329 	 69.0903
| 13> C 	 34.8266 	 0.382504 	 69.4774
| 14> H 	 33.7658 	 0.67312 	 69.6307
| 15> H 	 35.1167 	 0.96946 	 68.5762
| 16> C 	 35.665 	 0.873306 	 70.6912
| 17> H 	 36.7254 	 1.00574 	 70.5311
| 18> H 	 35.307 	 1.85005 	 71.0496
| 19> C 	 35.5309 	 -0.0416803 	 71.8659
| 20> H 	 36.118 	 -0.963953 	 71.7074
| 21> H 	 35.6999 	 0.377241 	 72.8541
| 22> H 	 34.5555 	 -0.397294 	 71.9309
| 23> S 	 32.5236 	 -4.21613 	 66.711
| 24> C 	 31.2448 	 -5.40973 	 67.2622
| 25> C 	 31.6541 	 -5.94445 	 68.4886
| 26> C 	 32.7471 	 -5.25469 	 69.0994
| 27> C 	 33.3613 	 -4.33553 	 68.2743
| 28> H 	 31.1167 	 -6.71166 	 68.952
| 29> C 	 33.1686 	 -5.57226 	 70.4609
| 30> H 	 34.2489 	 -5.48257 	 70.6176
| 31> H 	 33.0994 	 -6.62707 	 70.741
| 32> C 	 32.5798 	 -4.68247 	 71.599
| 33> H 	 31.4666 	 -4.64607 	 71.4492
| 34> H 	 32.9544 	 -3.68586 	 71.5756
| 35> C 	 32.9629 	 -5.24422 	 72.9928
| 36> H 	 32.8328 	 -4.64712 	 73.8848
| 37> H 	 33.9344 	 -5.70284 	 72.9805
| 38> H 	 32.3495 	 -6.12987 	 73.2054
| 39> H 	 37.051 	 -1.13948 	 68.6765
| 40> H 	 30.3247 	 -5.7895 	 66.8247
| 41> *
| 42>
| 43>                          ****END OF INPUT****

CARTESIAN COORDINATES (ANGSTROEM)
---------------------------------
  S     35.954600   -3.375150   68.206100
  C     36.160900   -1.695980   68.736900
  C     35.000700   -1.080690   69.106800
  C     33.890200   -1.984110   68.951700
  C     34.304600   -3.232270   68.536000
  H     32.881600   -1.813290   69.090300
  C     34.826600    0.382504   69.477400
  H     33.765800    0.673120   69.630700
  H     35.116700    0.969460   68.576200
  C     35.665000    0.873306   70.691200
  H     36.725400    1.005740   70.531100
  H     35.307000    1.850050   71.049600
  C     35.530900   -0.041680   71.865900
  H     36.118000   -0.963953   71.707400
  H     35.699900    0.377241   72.854100
  H     34.555500   -0.397294   71.930900
  S     32.523600   -4.216130   66.711000
  C     31.244800   -5.409730   67.262200
  C     31.654100   -5.944450   68.488600
  C     32.747100   -5.254690   69.099400
  C     33.361300   -4.335530   68.274300
  H     31.116700   -6.711660   68.952000
  C     33.168600   -5.572260   70.460900
  H     34.248900   -5.482570   70.617600
  H     33.099400   -6.627070   70.741000
  C     32.579800   -4.682470   71.599000
  H     31.466600   -4.646070   71.449200
  H     32.954400   -3.685860   71.575600
  C     32.962900   -5.244220   72.992800
  H     32.832800   -4.647120   73.884800
  H     33.934400   -5.702840   72.980500
  H     32.349500   -6.129870   73.205400
  H     37.051000   -1.139480   68.676500
  H     30.324700   -5.789500   66.824700

 Total Charge           Charge          ....    0
 Multiplicity           Mult            ....    1
 Number of Electrons    NEL             ....  134
 Basis Dimension        Dim             ....  322

ORBITAL ENERGIES
----------------

  NO   OCC          E(Eh)            E(eV)
   0   2.0000     -88.971329     -2421.0330
   1   2.0000     -88.965810     -2420.8828
   2   2.0000     -10.326177      -280.9896
   3   2.0000     -10.325982      -280.9843
   4   2.0000     -10.324343      -280.9397
   5   2.0000     -10.309079      -280.5243
   6   2.0000     -10.302863      -280.3552
   7   2.0000     -10.301502      -280.3181
   8   2.0000     -10.300381      -280.2876
   9   2.0000     -10.291727      -280.0521
  10   2.0000     -10.288687      -279.9694
  11   2.0000     -10.287664      -279.9416
  12   2.0000     -10.287044      -279.9247
  13   2.0000     -10.285738      -279.8891
  14   2.0000     -10.274454      -279.5821
  15   2.0000     -10.264275      -279.3051
  16   2.0000      -8.086590      -220.0473
  17   2.0000      -8.078699      -219.8326
  18   2.0000      -6.044936      -164.4911
  19   2.0000      -6.041126      -164.3874
  20   2.0000      -6.037517      -164.2892
  21   2.0000      -6.037391      -164.2857
  22   2.0000      -6.033450      -164.1785
  23   2.0000      -6.029225      -164.0635
  24   2.0000      -1.008803       -27.4509
  25   2.0000      -0.979293       -26.6479
  26   2.0000      -0.915067       -24.9002
  27   2.0000      -0.904524       -24.6133
  28   2.0000      -0.868354       -23.6291
  29   2.0000      -0.853378       -23.2216
  30   2.0000      -0.845489       -23.0069
  31   2.0000      -0.814072       -22.1520
  32   2.0000      -0.784922       -21.3588
  33   2.0000      -0.768688       -20.9171
  34   2.0000      -0.707713       -19.2578
  35   2.0000      -0.704108       -19.1597
  36   2.0000      -0.694351       -18.8942
  37   2.0000      -0.665891       -18.1198
  38   2.0000      -0.648560       -17.6482
  39   2.0000      -0.611220       -16.6321
  40   2.0000      -0.598260       -16.2795
  41   2.0000      -0.577834       -15.7237
  42   2.0000      -0.556985       -15.1563
  43   2.0000      -0.553744       -15.0681
  44   2.0000      -0.545773       -14.8512
  45   2.0000      -0.519010       -14.1230
  46   2.0000      -0.515727       -14.0337
  47   2.0000      -0.513719       -13.9790
  48   2.0000      -0.509816       -13.8728
  49   2.0000      -0.493631       -13.4324
  50   2.0000      -0.491270       -13.3681
  51   2.0000      -0.474185       -12.9032
  52   2.0000      -0.470832       -12.8120
  53   2.0000      -0.461799       -12.5662
  54   2.0000      -0.453234       -12.3331
  55   2.0000      -0.447581       -12.1793
  56   2.0000      -0.441768       -12.0211
  57   2.0000      -0.438081       -11.9208
  58   2.0000      -0.433987       -11.8094
  59   2.0000      -0.426053       -11.5935
  60   2.0000      -0.424747       -11.5580
  61   2.0000      -0.417664       -11.3652
  62   2.0000      -0.408526       -11.1165
  63   2.0000      -0.338762        -9.2182
  64   2.0000      -0.330788        -9.0012
  65   2.0000      -0.316665        -8.6169
  66   2.0000      -0.311319        -8.4714
  67   0.0000       0.042502         1.1565
  68   0.0000       0.049911         1.3582
  69   0.0000       0.105425         2.8688
  70   0.0000       0.111729         3.0403
  71   0.0000       0.125484         3.4146

MULLIKEN ATOMIC CHARGES
-----------------------
   0 S :    0.135011
   1 C :   -0.098795
   2 C :   -0.083941
   3 C :    0.076861
   4 C :   -0.179931
   5 H :   -0.016048
   6 C :    0.057857
   7 H :    0.032384
   8 H :    0.048040
   9 C :   -0.075705
  10 H :    0.029248
  11 H :    0.026530
  12 C :   -0.026804
  13 H :    0.035384
  14 H :    0.030816
  15 H :   -0.002712
  16 S :    0.096094
  17 C :   -0.093625
  18 C :   -0.008007
  19 C :    0.012229
  20 C :   -0.163909
  21 H :   -0.000593
  22 C :    0.016845
  23 H :    0.019058
  24 H :    0.019676
  25 C :   -0.061990
  26 H :    0.033596
  27 H :    0.032757
  28 C :   -0.044399
  29 H :    0.038388
  30 H :    0.019592
  31 H :    0.016278
  32 H :    0.020535
  33 H :    0.059277
Sum of atomic charges:   -0.0000000

LOEWDIN ATOMIC CHARGES
----------------------
   0 S :    0.432247
   1 C :   -0.186369
   2 C :   -0.056903
   3 C :   -0.046602
   4 C :   -0.218734
   5 H :    0.020019
   6 C :   -0.032661
   7 H :    0.035443
   8 H :    0.040910
   9 C :   -0.043817
  10 H :    0.020910
  11 H :    0.027312
  12 C :   -0.068295
  13 H :    0.029538
  14 H :    0.025846
  15 H :    0.013740
  16 S :    0.368861
  17 C :   -0.165299
  18 C :   -0.058612
  19 C :   -0.058353
  20 C :   -0.188516
  21 H :    0.021464
  22 C :   -0.042488
  23 H :    0.032421
  24 H :    0.031298
  25 C :   -0.031366
  26 H :    0.025267
  27 H :    0.019229
  28 C :   -0.072205
  29 H :    0.025913
  30 H :    0.022256
  31 H :    0.025368
  32 H :    0.016677
  33 H :    0.035502

  Mayer bond orders larger than 0.100000
B(  0-S ,  1-C ) :   1.1315 B(  0-S ,  4-C ) :   1.1739 B(  1-C ,  2-C ) :   1.6344
B(  1-C , 32-H ) :   0.9712 B(  2-C ,  3-C ) :   1.2160 B(  2-C ,  6-C ) :   1.0111
B(  3-C ,  4-C ) :   1.5849 B(  3-C ,  5-H ) :   1.0111 B(  4-C , 20-C ) :   0.9763
B(  6-C ,  7-H ) :   0.9465 B(  6-C ,  8-H ) :   0.9393 B(  6-C ,  9-C ) :   1.0694
B(  9-C , 10-H ) :   0.9583 B(  9-C , 11-H ) :   0.9578 B(  9-C , 12-C ) :   1.0866
B( 12-C , 13-H ) :   0.9639 B( 12-C , 14-H ) :   0.9731 B( 12-C , 15-H ) :   0.9707
B( 16-S , 17-C ) :   1.1321 B( 16-S , 20-C ) :   1.1231 B( 17-C , 18-C ) :   1.6278
B( 17-C , 33-H ) :   0.9651 B( 18-C , 19-C ) :   1.2269 B( 18-C , 21-H ) :   0.9919
B( 19-C , 20-C ) :   1.6353 B( 19-C , 22-C ) :   1.0574 B( 22-C , 23-H ) :   0.9256
B( 22-C , 24-H ) :   0.9442 B( 22-C , 25-C ) :   1.0458 B( 25-C , 26-H ) :   0.9621
B( 25-C , 27-H ) :   0.9568 B( 25-C , 28-C ) :   1.0696 B( 28-C , 29-H ) :   0.9765
B( 28-C , 30-H ) :   0.9713 B( 28-C , 31-H ) :   0.9729

Dispersion correction           -0.015021106
FINAL SINGLE POINT ENERGY     -1339.864390861782

DIPOLE MOMENT
-------------
                                X             Y             Z
Electronic contribution:      0.62368      -8.71285     -26.62947
Nuclear contribution   :     -0.83532       8.93441      27.12398
                        -----------------------------------------
Total Dipole Moment    :     -0.21164       0.22157       0.49451
                        -----------------------------------------
Magnitude (a.u.)       :      0.58174
Magnitude (Debye)      :      1.47867

Rotational constants in cm-1:     0.018014     0.009331     0.007272
Rotational constants in MHz :   540.054148   279.730247   218.008328

                             ****ORCA TERMINATED NORMALLY****
TOTAL RUN TIME: 0 days 0 hours 0 minutes 31 seconds 596 msec
