                         Program Version 4.2.1 -  RELEASE  -
|  1> ! wB97X-D3 SP def2-SVP
|  2> %pal
|  3> nprocs 16
|  4> end
|  5>
|  6> * xyz 0 1
|  7> S 	 59.5243 	 23.4477 	 75.0209
|  8> C 	 59.6998 	 24.6357 	 73.7121
|  9> C 	 60.8155 	 24.3737 	 72.9973
| 10> C 	 61.5921 	 23.2268 	 73.429
| 11> C 	 60.9567 	 22.6074 	 74.4774
| 12> H 	 62.5426 	 22.9261 	 73.0692
| 13> C 	 61.3596 	 25.2136 	 71.8404
| 14> H 	 61.6177 	 26.167 	 72.2802
| 15> H 	 60.4812 	 25.3738 	 71.1692
| 16> C 	 62.427 	 24.6356 	 70.9145
| 17> H 	 63.4157 	 24.4684 	 71.4306
| 18> H 	 62.1207 	 23.7549 	 70.366
| 19> C 	 62.8582 	 25.5701 	 69.8777
| 20> H 	 63.7414 	 25.2446 	 69.434
| 21> H 	 62.1504 	 25.6911 	 69.1459
| 22> H 	 62.9222 	 26.6022 	 70.2659
| 23> S 	 61.7846 	 22.2107 	 77.0804
| 24> C 	 62.6973 	 20.8228 	 77.4785
| 25> C 	 62.6659 	 19.9085 	 76.4125
| 26> C 	 62.082 	 20.3591 	 75.2199
| 27> C 	 61.5555 	 21.6487 	 75.3945
| 28> H 	 63.0868 	 18.9441 	 76.7283
| 29> C 	 62.0412 	 19.6256 	 73.8985
| 30> H 	 62.8991 	 19.977 	 73.3442
| 31> H 	 61.1186 	 20.0815 	 73.4491
| 32> C 	 62.1459 	 18.1024 	 73.8403
| 33> H 	 63.1514 	 17.807 	 74.1735
| 34> H 	 62.1845 	 17.9341 	 72.7561
| 35> C 	 60.9971 	 17.2926 	 74.5383
| 36> H 	 60.0499 	 17.6139 	 74.1488
| 37> H 	 60.8578 	 17.5152 	 75.6151
| 38> H 	 61.1849 	 16.2093 	 74.493
| 39> H 	 59.1148 	 25.5758 	 73.6659
| 40> H 	 63.1079 	 20.6261 	 78.4659
| 41> *
| 42>
| 43>                          ****END OF INPUT****

CARTESIAN COORDINATES (ANGSTROEM)
---------------------------------
  S     59.524300   23.447700   75.020900
  C     59.699800   24.635700   73.712100
  C     60.815500   24.373700   72.997300
  C     61.592100   23.226800   73.429000
  C     60.956700   22.607400   74.477400
  H     62.542600   22.926100   73.069200
  C     61.359600   25.213600   71.840400
  H     61.617700   26.167000   72.280200
  H     60.481200   25.373800   71.169200
  C     62.427000   24.635600   70.914500
  H     63.415700   24.468400   71.430600
  H     62.120700   23.754900   70.366000
  C     62.858200   25.570100   69.877700
  H     63.741400   25.244600   69.434000
  H     62.150400   25.691100   69.145900
  H     62.922200   26.602200   70.265900
  S     61.784600   22.210700   77.080400
  C     62.697300   20.822800   77.478500
  C     62.665900   19.908500   76.412500
  C     62.082000   20.359100   75.219900
  C     61.555500   21.648700   75.394500
  H     63.086800   18.944100   76.728300
  C     62.041200   19.625600   73.898500
  H     62.899100   19.977000   73.344200
  H     61.118600   20.081500   73.449100
  C     62.145900   18.102400   73.840300
  H     63.151400   17.807000   74.173500
  H     62.184500   17.934100   72.756100
  C     60.997100   17.292600   74.538300
  H     60.049900   17.613900   74.148800
  H     60.857800   17.515200   75.615100
  H     61.184900   16.209300   74.493000
  H     59.114800   25.575800   73.665900
  H     63.107900   20.626100   78.465900

 Total Charge           Charge          ....    0
 Multiplicity           Mult            ....    1
 Number of Electrons    NEL             ....  134
 Basis Dimension        Dim             ....  322

ORBITAL ENERGIES
----------------

  NO   OCC          E(Eh)            E(eV)
   0   2.0000     -88.962887     -2420.8032
   1   2.0000     -88.962432     -2420.7908
   2   2.0000     -10.326379      -280.9951
   3   2.0000     -10.323752      -280.9236
   4   2.0000     -10.312487      -280.6170
   5   2.0000     -10.312362      -280.6136
   6   2.0000     -10.302393      -280.3424
   7   2.0000     -10.300094      -280.2798
   8   2.0000     -10.294079      -280.1161
   9   2.0000     -10.292929      -280.0848
  10   2.0000     -10.292209      -280.0652
  11   2.0000     -10.291549      -280.0473
  12   2.0000     -10.290759      -280.0258
  13   2.0000     -10.286035      -279.8973
  14   2.0000     -10.280319      -279.7417
  15   2.0000     -10.262655      -279.2610
  16   2.0000      -8.077518      -219.8004
  17   2.0000      -8.077100      -219.7891
  18   2.0000      -6.036152      -164.2520
  19   2.0000      -6.035435      -164.2325
  20   2.0000      -6.032049      -164.1404
  21   2.0000      -6.031534      -164.1264
  22   2.0000      -6.028136      -164.0339
  23   2.0000      -6.028127      -164.0337
  24   2.0000      -1.004792       -27.3418
  25   2.0000      -0.981197       -26.6997
  26   2.0000      -0.920677       -25.0529
  27   2.0000      -0.906770       -24.6745
  28   2.0000      -0.873913       -23.7804
  29   2.0000      -0.851758       -23.1775
  30   2.0000      -0.842345       -22.9214
  31   2.0000      -0.812690       -22.1144
  32   2.0000      -0.786105       -21.3910
  33   2.0000      -0.773484       -21.0476
  34   2.0000      -0.711634       -19.3645
  35   2.0000      -0.700799       -19.0697
  36   2.0000      -0.689254       -18.7555
  37   2.0000      -0.647487       -17.6190
  38   2.0000      -0.637984       -17.3604
  39   2.0000      -0.620449       -16.8833
  40   2.0000      -0.590332       -16.0638
  41   2.0000      -0.581764       -15.8306
  42   2.0000      -0.564298       -15.3553
  43   2.0000      -0.555442       -15.1143
  44   2.0000      -0.535687       -14.5768
  45   2.0000      -0.525520       -14.3001
  46   2.0000      -0.521151       -14.1813
  47   2.0000      -0.514348       -13.9961
  48   2.0000      -0.509061       -13.8523
  49   2.0000      -0.498086       -13.5536
  50   2.0000      -0.491579       -13.3766
  51   2.0000      -0.478185       -13.0121
  52   2.0000      -0.470519       -12.8035
  53   2.0000      -0.465767       -12.6742
  54   2.0000      -0.457511       -12.4495
  55   2.0000      -0.450922       -12.2702
  56   2.0000      -0.438249       -11.9254
  57   2.0000      -0.434206       -11.8153
  58   2.0000      -0.430996       -11.7280
  59   2.0000      -0.426099       -11.5947
  60   2.0000      -0.420221       -11.4348
  61   2.0000      -0.412811       -11.2331
  62   2.0000      -0.409494       -11.1429
  63   2.0000      -0.341847        -9.3021
  64   2.0000      -0.329536        -8.9671
  65   2.0000      -0.326347        -8.8803
  66   2.0000      -0.289535        -7.8787
  67   0.0000       0.031025         0.8442
  68   0.0000       0.065415         1.7800
  69   0.0000       0.115406         3.1404
  70   0.0000       0.132922         3.6170
  71   0.0000       0.134387         3.6569

MULLIKEN ATOMIC CHARGES
-----------------------
   0 S :    0.090767
   1 C :   -0.149243
   2 C :   -0.070227
   3 C :    0.048469
   4 C :   -0.140949
   5 H :    0.005068
   6 C :    0.037451
   7 H :    0.038230
   8 H :    0.036029
   9 C :   -0.098802
  10 H :    0.036540
  11 H :    0.034556
  12 C :    0.026245
  13 H :    0.019375
  14 H :   -0.003821
  15 H :    0.015069
  16 S :    0.115674
  17 C :   -0.113955
  18 C :   -0.074145
  19 C :    0.004491
  20 C :   -0.183837
  21 H :    0.021679
  22 C :    0.039161
  23 H :    0.038842
  24 H :    0.045869
  25 C :   -0.057255
  26 H :    0.025711
  27 H :    0.031585
  28 C :   -0.049094
  29 H :    0.028718
  30 H :    0.034920
  31 H :    0.045290
  32 H :    0.061536
  33 H :    0.060050
Sum of atomic charges:    0.0000000

LOEWDIN ATOMIC CHARGES
----------------------
   0 S :    0.390473
   1 C :   -0.202060
   2 C :   -0.060692
   3 C :   -0.052236
   4 C :   -0.191405
   5 H :    0.027776
   6 C :   -0.035331
   7 H :    0.032634
   8 H :    0.038757
   9 C :   -0.048462
  10 H :    0.029518
  11 H :    0.028062
  12 C :   -0.052220
  13 H :    0.020541
  14 H :    0.010010
  15 H :    0.027783
  16 S :    0.411168
  17 C :   -0.204434
  18 C :   -0.084849
  19 C :   -0.058147
  20 C :   -0.195231
  21 H :    0.032968
  22 C :   -0.037186
  23 H :    0.036253
  24 H :    0.039690
  25 C :   -0.041522
  26 H :    0.023945
  27 H :    0.031212
  28 C :   -0.070136
  29 H :    0.024770
  30 H :    0.029954
  31 H :    0.030209
  32 H :    0.037716
  33 H :    0.030475

  Mayer bond orders larger than 0.100000
B(  0-S ,  1-C ) :   1.1028 B(  0-S ,  4-C ) :   1.1520 B(  1-C ,  2-C ) :   1.6615
B(  1-C , 32-H ) :   0.9699 B(  2-C ,  3-C ) :   1.2193 B(  2-C ,  6-C ) :   0.9928
B(  3-C ,  4-C ) :   1.5697 B(  3-C ,  5-H ) :   0.9981 B(  4-C , 20-C ) :   1.0310
B(  6-C ,  7-H ) :   0.9342 B(  6-C ,  8-H ) :   0.9472 B(  6-C ,  9-C ) :   1.0924
B(  9-C , 10-H ) :   0.9456 B(  9-C , 11-H ) :   0.9509 B(  9-C , 12-C ) :   1.0964
B( 12-C , 13-H ) :   0.9698 B( 12-C , 14-H ) :   0.9653 B( 12-C , 15-H ) :   0.9665
B( 16-S , 17-C ) :   1.1795 B( 16-S , 20-C ) :   1.1502 B( 17-C , 18-C ) :   1.5792
B( 17-C , 20-C ) :   0.1123 B( 17-C , 33-H ) :   0.9662 B( 18-C , 19-C ) :   1.2431
B( 18-C , 21-H ) :   0.9916 B( 19-C , 20-C ) :   1.5642 B( 19-C , 22-C ) :   1.0256
B( 22-C , 23-H ) :   0.9268 B( 22-C , 24-H ) :   0.9327 B( 22-C , 25-C ) :   1.0896
B( 25-C , 26-H ) :   0.9466 B( 25-C , 27-H ) :   0.9516 B( 25-C , 28-C ) :   1.0676
B( 28-C , 29-H ) :   0.9742 B( 28-C , 30-H ) :   0.9757 B( 28-C , 31-H ) :   0.9768

Dispersion correction           -0.013720581
FINAL SINGLE POINT ENERGY     -1339.865447136043

DIPOLE MOMENT
-------------
                                X             Y             Z
Electronic contribution:     -8.54328       6.64059      22.52564
Nuclear contribution   :      8.97092      -6.67540     -23.03290
                        -----------------------------------------
Total Dipole Moment    :      0.42763      -0.03481      -0.50726
                        -----------------------------------------
Magnitude (a.u.)       :      0.66438
Magnitude (Debye)      :      1.68872

Rotational constants in cm-1:     0.018548     0.007871     0.006557
Rotational constants in MHz :   556.057344   235.978015   196.583545

                             ****ORCA TERMINATED NORMALLY****
TOTAL RUN TIME: 0 days 0 hours 0 minutes 28 seconds 255 msec
