                         Program Version 4.2.1 -  RELEASE  -
|  1> ! wB97X-D3 SP def2-SVP
|  2> %pal
|  3> nprocs 16
|  4> end
|  5>
|  6> * xyz 0 1
|  7> S 	 -6.12661 	 53.3423 	 48.2868
|  8> C 	 -6.8643 	 54.3798 	 49.5072
|  9> C 	 -5.93443 	 55.1158 	 50.2046
| 10> C 	 -4.58381 	 54.7295 	 49.8423
| 11> C 	 -4.53261 	 53.9162 	 48.7346
| 12> H 	 -3.58655 	 54.941 	 50.3675
| 13> C 	 -6.19806 	 56.1805 	 51.2418
| 14> H 	 -5.64274 	 57.0771 	 50.9582
| 15> H 	 -5.66831 	 55.8662 	 52.0891
| 16> C 	 -7.66683 	 56.3937 	 51.5553
| 17> H 	 -8.21886 	 56.4746 	 50.5888
| 18> H 	 -8.11259 	 55.5922 	 52.1961
| 19> C 	 -7.60106 	 57.7802 	 52.258
| 20> H 	 -7.44384 	 58.617 	 51.5548
| 21> H 	 -8.54915 	 57.9775 	 52.7644
| 22> H 	 -6.82839 	 57.7742 	 52.9711
| 23> S 	 -3.07382 	 51.5694 	 47.9886
| 24> C 	 -1.79422 	 51.7763 	 46.8839
| 25> C 	 -1.31528 	 53.0717 	 46.7739
| 26> C 	 -2.20589 	 54.0172 	 47.4318
| 27> C 	 -3.29025 	 53.3673 	 48.0804
| 28> H 	 -0.472316 	 53.3077 	 46.0558
| 29> C 	 -2.0539 	 55.4447 	 47.4442
| 30> H 	 -1.04931 	 55.5614 	 46.9775
| 31> H 	 -1.96122 	 55.803 	 48.4854
| 32> C 	 -3.08094 	 56.2744 	 46.6472
| 33> H 	 -4.12898 	 55.8602 	 46.8936
| 34> H 	 -2.89073 	 56.1444 	 45.628
| 35> C 	 -3.11515 	 57.7222 	 47.1248
| 36> H 	 -2.13261 	 58.2518 	 47.0427
| 37> H 	 -3.50931 	 57.8181 	 48.1347
| 38> H 	 -3.85674 	 58.2397 	 46.4802
| 39> H 	 -7.93836 	 54.4621 	 49.6407
| 40> H 	 -1.17126 	 50.9085 	 46.5054
| 41> *
| 42>
| 43>                          ****END OF INPUT****

CARTESIAN COORDINATES (ANGSTROEM)
---------------------------------
  S     -6.126610   53.342300   48.286800
  C     -6.864300   54.379800   49.507200
  C     -5.934430   55.115800   50.204600
  C     -4.583810   54.729500   49.842300
  C     -4.532610   53.916200   48.734600
  H     -3.586550   54.941000   50.367500
  C     -6.198060   56.180500   51.241800
  H     -5.642740   57.077100   50.958200
  H     -5.668310   55.866200   52.089100
  C     -7.666830   56.393700   51.555300
  H     -8.218860   56.474600   50.588800
  H     -8.112590   55.592200   52.196100
  C     -7.601060   57.780200   52.258000
  H     -7.443840   58.617000   51.554800
  H     -8.549150   57.977500   52.764400
  H     -6.828390   57.774200   52.971100
  S     -3.073820   51.569400   47.988600
  C     -1.794220   51.776300   46.883900
  C     -1.315280   53.071700   46.773900
  C     -2.205890   54.017200   47.431800
  C     -3.290250   53.367300   48.080400
  H     -0.472316   53.307700   46.055800
  C     -2.053900   55.444700   47.444200
  H     -1.049310   55.561400   46.977500
  H     -1.961220   55.803000   48.485400
  C     -3.080940   56.274400   46.647200
  H     -4.128980   55.860200   46.893600
  H     -2.890730   56.144400   45.628000
  C     -3.115150   57.722200   47.124800
  H     -2.132610   58.251800   47.042700
  H     -3.509310   57.818100   48.134700
  H     -3.856740   58.239700   46.480200
  H     -7.938360   54.462100   49.640700
  H     -1.171260   50.908500   46.505400

 Total Charge           Charge          ....    0
 Multiplicity           Mult            ....    1
 Number of Electrons    NEL             ....  134
 Basis Dimension        Dim             ....  322

ORBITAL ENERGIES
----------------

  NO   OCC          E(Eh)            E(eV)
   0   2.0000     -88.964857     -2420.8568
   1   2.0000     -88.964055     -2420.8350
   2   2.0000     -10.331488      -281.1341
   3   2.0000     -10.330196      -281.0989
   4   2.0000     -10.318383      -280.7775
   5   2.0000     -10.313472      -280.6439
   6   2.0000     -10.304719      -280.4057
   7   2.0000     -10.301855      -280.3277
   8   2.0000     -10.300079      -280.2794
   9   2.0000     -10.299662      -280.2680
  10   2.0000     -10.295717      -280.1607
  11   2.0000     -10.288168      -279.9553
  12   2.0000     -10.285067      -279.8709
  13   2.0000     -10.283964      -279.8409
  14   2.0000     -10.279440      -279.7178
  15   2.0000     -10.279197      -279.7112
  16   2.0000      -8.079488      -219.8540
  17   2.0000      -8.078518      -219.8277
  18   2.0000      -6.037837      -164.2979
  19   2.0000      -6.037122      -164.2784
  20   2.0000      -6.034072      -164.1955
  21   2.0000      -6.033143      -164.1702
  22   2.0000      -6.030362      -164.0945
  23   2.0000      -6.029109      -164.0604
  24   2.0000      -0.999347       -27.1936
  25   2.0000      -0.980667       -26.6853
  26   2.0000      -0.919644       -25.0248
  27   2.0000      -0.912662       -24.8348
  28   2.0000      -0.860243       -23.4084
  29   2.0000      -0.852131       -23.1877
  30   2.0000      -0.844500       -22.9800
  31   2.0000      -0.809293       -22.0220
  32   2.0000      -0.779344       -21.2070
  33   2.0000      -0.765030       -20.8175
  34   2.0000      -0.716420       -19.4948
  35   2.0000      -0.701250       -19.0820
  36   2.0000      -0.677937       -18.4476
  37   2.0000      -0.652492       -17.7552
  38   2.0000      -0.638021       -17.3614
  39   2.0000      -0.607036       -16.5183
  40   2.0000      -0.590393       -16.0654
  41   2.0000      -0.577244       -15.7076
  42   2.0000      -0.566761       -15.4224
  43   2.0000      -0.558848       -15.2070
  44   2.0000      -0.525804       -14.3079
  45   2.0000      -0.520524       -14.1642
  46   2.0000      -0.516479       -14.0541
  47   2.0000      -0.505764       -13.7625
  48   2.0000      -0.500779       -13.6269
  49   2.0000      -0.494789       -13.4639
  50   2.0000      -0.488982       -13.3059
  51   2.0000      -0.480198       -13.0669
  52   2.0000      -0.471235       -12.8230
  53   2.0000      -0.460269       -12.5246
  54   2.0000      -0.457684       -12.4542
  55   2.0000      -0.455956       -12.4072
  56   2.0000      -0.440908       -11.9977
  57   2.0000      -0.438118       -11.9218
  58   2.0000      -0.435371       -11.8470
  59   2.0000      -0.429578       -11.6894
  60   2.0000      -0.426587       -11.6080
  61   2.0000      -0.411226       -11.1900
  62   2.0000      -0.406802       -11.0697
  63   2.0000      -0.337592        -9.1863
  64   2.0000      -0.329150        -8.9566
  65   2.0000      -0.323597        -8.8055
  66   2.0000      -0.294407        -8.0112
  67   0.0000       0.030509         0.8302
  68   0.0000       0.070060         1.9064
  69   0.0000       0.108257         2.9458
  70   0.0000       0.117796         3.2054
  71   0.0000       0.126366         3.4386

MULLIKEN ATOMIC CHARGES
-----------------------
   0 S :    0.110711
   1 C :   -0.142569
   2 C :   -0.089244
   3 C :   -0.006823
   4 C :   -0.160859
   5 H :    0.050020
   6 C :    0.079385
   7 H :    0.034029
   8 H :    0.018098
   9 C :   -0.108925
  10 H :    0.045126
  11 H :    0.053771
  12 C :   -0.026425
  13 H :    0.042264
  14 H :    0.023952
  15 H :    0.020727
  16 S :    0.111675
  17 C :   -0.111512
  18 C :   -0.055635
  19 C :   -0.037354
  20 C :   -0.179459
  21 H :    0.046122
  22 C :    0.050670
  23 H :    0.012330
  24 H :    0.031734
  25 C :   -0.066829
  26 H :    0.057242
  27 H :    0.022024
  28 C :   -0.057748
  29 H :    0.037254
  30 H :    0.033538
  31 H :    0.034240
  32 H :    0.050737
  33 H :    0.077730
Sum of atomic charges:    0.0000000

LOEWDIN ATOMIC CHARGES
----------------------
   0 S :    0.393082
   1 C :   -0.199545
   2 C :   -0.061517
   3 C :   -0.075867
   4 C :   -0.195897
   5 H :    0.047068
   6 C :   -0.033702
   7 H :    0.036441
   8 H :    0.028930
   9 C :   -0.041871
  10 H :    0.028162
  11 H :    0.033568
  12 C :   -0.056079
  13 H :    0.030547
  14 H :    0.021659
  15 H :    0.016245
  16 S :    0.399187
  17 C :   -0.206621
  18 C :   -0.089639
  19 C :   -0.050188
  20 C :   -0.189874
  21 H :    0.044175
  22 C :   -0.046562
  23 H :    0.033737
  24 H :    0.033832
  25 C :   -0.033315
  26 H :    0.038234
  27 H :    0.016360
  28 C :   -0.068952
  29 H :    0.026047
  30 H :    0.024280
  31 H :    0.029875
  32 H :    0.026778
  33 H :    0.041426

  Mayer bond orders larger than 0.100000
B(  0-S ,  1-C ) :   1.1139 B(  0-S ,  4-C ) :   1.1397 B(  1-C ,  2-C ) :   1.6569
B(  1-C , 32-H ) :   0.9606 B(  2-C ,  3-C ) :   1.2014 B(  2-C ,  6-C ) :   0.9999
B(  3-C ,  4-C ) :   1.6226 B(  3-C ,  5-H ) :   0.9759 B(  4-C , 20-C ) :   1.0253
B(  6-C ,  7-H ) :   0.9435 B(  6-C ,  8-H ) :   0.9160 B(  6-C ,  9-C ) :   1.0748
B(  9-C , 10-H ) :   0.9531 B(  9-C , 11-H ) :   0.9518 B(  9-C , 12-C ) :   1.0771
B( 12-C , 13-H ) :   0.9782 B( 12-C , 14-H ) :   0.9716 B( 12-C , 15-H ) :   0.9721
B( 16-S , 17-C ) :   1.1779 B( 16-S , 20-C ) :   1.1317 B( 17-C , 18-C ) :   1.6131
B( 17-C , 33-H ) :   0.9501 B( 18-C , 19-C ) :   1.2478 B( 18-C , 21-H ) :   0.9743
B( 19-C , 20-C ) :   1.5786 B( 19-C , 22-C ) :   1.0617 B( 22-C , 23-H ) :   0.9167
B( 22-C , 24-H ) :   0.9333 B( 22-C , 25-C ) :   1.0483 B( 25-C , 26-H ) :   0.9594
B( 25-C , 27-H ) :   0.9540 B( 25-C , 28-C ) :   1.0809 B( 28-C , 29-H ) :   0.9725
B( 28-C , 30-H ) :   0.9745 B( 28-C , 31-H ) :   0.9725

Dispersion correction           -0.014470051
FINAL SINGLE POINT ENERGY     -1339.870303573496

DIPOLE MOMENT
-------------
                                X             Y             Z
Electronic contribution:      3.82051     -28.37798      -8.23035
Nuclear contribution   :     -3.67409      28.97136       8.50008
                        -----------------------------------------
Total Dipole Moment    :      0.14641       0.59338       0.26974
                        -----------------------------------------
Magnitude (a.u.)       :      0.66805
Magnitude (Debye)      :      1.69805

Rotational constants in cm-1:     0.021699     0.008085     0.006513
Rotational constants in MHz :   650.527393   242.378546   195.267354

                             ****ORCA TERMINATED NORMALLY****
TOTAL RUN TIME: 0 days 0 hours 0 minutes 33 seconds 843 msec
