                         Program Version 4.2.1 -  RELEASE  -
|  1> ! wB97X-D3 SP def2-SVP
|  2> %pal
|  3> nprocs 16
|  4> end
|  5>
|  6> * xyz 0 1
|  7> S 	 53.6586 	 -3.70857 	 87.3679
|  8> C 	 52.6599 	 -3.93613 	 88.8043
|  9> C 	 52.9004 	 -2.90817 	 89.7504
| 10> C 	 53.7786 	 -1.88898 	 89.2591
| 11> C 	 54.2836 	 -2.21609 	 87.9719
| 12> H 	 54.0423 	 -0.999347 	 89.7825
| 13> C 	 52.2198 	 -2.67344 	 91.0998
| 14> H 	 51.7089 	 -1.7097 	 90.8555
| 15> H 	 53.0186 	 -2.65567 	 91.8053
| 16> C 	 51.0552 	 -3.63401 	 91.5682
| 17> H 	 50.3726 	 -3.95931 	 90.756
| 18> H 	 51.5168 	 -4.5605 	 91.8267
| 19> C 	 50.2145 	 -3.15366 	 92.838
| 20> H 	 50.8851 	 -2.68966 	 93.6427
| 21> H 	 49.4798 	 -2.46979 	 92.512
| 22> H 	 49.6985 	 -3.99823 	 93.3825
| 23> S 	 54.4456 	 -1.09065 	 85.4692
| 24> C 	 55.4811 	 0.284189 	 85.2637
| 25> C 	 56.4183 	 0.386108 	 86.275
| 26> C 	 56.1824 	 -0.563883 	 87.3156
| 27> C 	 55.071 	 -1.37079 	 87.0686
| 28> H 	 57.0644 	 1.30435 	 86.3636
| 29> C 	 56.9364 	 -0.58444 	 88.6081
| 30> H 	 58.0179 	 -0.596379 	 88.3539
| 31> H 	 56.7293 	 -1.48953 	 89.1702
| 32> C 	 56.6753 	 0.559636 	 89.5406
| 33> H 	 55.5918 	 0.651854 	 89.5216
| 34> H 	 56.906 	 1.53217 	 89.1391
| 35> C 	 57.3769 	 0.521779 	 90.9082
| 36> H 	 56.735 	 1.06918 	 91.6129
| 37> H 	 58.3842 	 1.04229 	 90.9176
| 38> H 	 57.4018 	 -0.545242 	 91.1865
| 39> H 	 51.8743 	 -4.6801 	 88.9142
| 40> H 	 55.4647 	 0.918989 	 84.3293
| 41> *
| 42>
| 43>                          ****END OF INPUT****

CARTESIAN COORDINATES (ANGSTROEM)
---------------------------------
  S     53.658600   -3.708570   87.367900
  C     52.659900   -3.936130   88.804300
  C     52.900400   -2.908170   89.750400
  C     53.778600   -1.888980   89.259100
  C     54.283600   -2.216090   87.971900
  H     54.042300   -0.999347   89.782500
  C     52.219800   -2.673440   91.099800
  H     51.708900   -1.709700   90.855500
  H     53.018600   -2.655670   91.805300
  C     51.055200   -3.634010   91.568200
  H     50.372600   -3.959310   90.756000
  H     51.516800   -4.560500   91.826700
  C     50.214500   -3.153660   92.838000
  H     50.885100   -2.689660   93.642700
  H     49.479800   -2.469790   92.512000
  H     49.698500   -3.998230   93.382500
  S     54.445600   -1.090650   85.469200
  C     55.481100    0.284189   85.263700
  C     56.418300    0.386108   86.275000
  C     56.182400   -0.563883   87.315600
  C     55.071000   -1.370790   87.068600
  H     57.064400    1.304350   86.363600
  C     56.936400   -0.584440   88.608100
  H     58.017900   -0.596379   88.353900
  H     56.729300   -1.489530   89.170200
  C     56.675300    0.559636   89.540600
  H     55.591800    0.651854   89.521600
  H     56.906000    1.532170   89.139100
  C     57.376900    0.521779   90.908200
  H     56.735000    1.069180   91.612900
  H     58.384200    1.042290   90.917600
  H     57.401800   -0.545242   91.186500
  H     51.874300   -4.680100   88.914200
  H     55.464700    0.918989   84.329300

 Total Charge           Charge          ....    0
 Multiplicity           Mult            ....    1
 Number of Electrons    NEL             ....  134
 Basis Dimension        Dim             ....  322

ORBITAL ENERGIES
----------------

  NO   OCC          E(Eh)            E(eV)
   0   2.0000     -88.968108     -2420.9453
   1   2.0000     -88.965282     -2420.8684
   2   2.0000     -10.333736      -281.1952
   3   2.0000     -10.324953      -280.9562
   4   2.0000     -10.322346      -280.8853
   5   2.0000     -10.316067      -280.7145
   6   2.0000     -10.307140      -280.4715
   7   2.0000     -10.303062      -280.3606
   8   2.0000     -10.300414      -280.2885
   9   2.0000     -10.299462      -280.2626
  10   2.0000     -10.296731      -280.1883
  11   2.0000     -10.295034      -280.1421
  12   2.0000     -10.291377      -280.0426
  13   2.0000     -10.287719      -279.9431
  14   2.0000     -10.287003      -279.9236
  15   2.0000     -10.280899      -279.7575
  16   2.0000      -8.082776      -219.9435
  17   2.0000      -8.080688      -219.8867
  18   2.0000      -6.041238      -164.3904
  19   2.0000      -6.039072      -164.3315
  20   2.0000      -6.037204      -164.2807
  21   2.0000      -6.035096      -164.2233
  22   2.0000      -6.033691      -164.1851
  23   2.0000      -6.031525      -164.1261
  24   2.0000      -1.007646       -27.4194
  25   2.0000      -0.981771       -26.7154
  26   2.0000      -0.915547       -24.9133
  27   2.0000      -0.903246       -24.5786
  28   2.0000      -0.862011       -23.4565
  29   2.0000      -0.852979       -23.2107
  30   2.0000      -0.846670       -23.0391
  31   2.0000      -0.808513       -22.0008
  32   2.0000      -0.781767       -21.2730
  33   2.0000      -0.768837       -20.9211
  34   2.0000      -0.711599       -19.3636
  35   2.0000      -0.700730       -19.0678
  36   2.0000      -0.689884       -18.7727
  37   2.0000      -0.659563       -17.9476
  38   2.0000      -0.635196       -17.2846
  39   2.0000      -0.613768       -16.7015
  40   2.0000      -0.598015       -16.2728
  41   2.0000      -0.572937       -15.5904
  42   2.0000      -0.563993       -15.3470
  43   2.0000      -0.557809       -15.1787
  44   2.0000      -0.525754       -14.3065
  45   2.0000      -0.519350       -14.1322
  46   2.0000      -0.514032       -13.9875
  47   2.0000      -0.510688       -13.8965
  48   2.0000      -0.510389       -13.8884
  49   2.0000      -0.495820       -13.4920
  50   2.0000      -0.493225       -13.4213
  51   2.0000      -0.478591       -13.0231
  52   2.0000      -0.472776       -12.8649
  53   2.0000      -0.465806       -12.6752
  54   2.0000      -0.458759       -12.4835
  55   2.0000      -0.450706       -12.2643
  56   2.0000      -0.446541       -12.1510
  57   2.0000      -0.437585       -11.9073
  58   2.0000      -0.435370       -11.8470
  59   2.0000      -0.427768       -11.6402
  60   2.0000      -0.423572       -11.5260
  61   2.0000      -0.412601       -11.2274
  62   2.0000      -0.405065       -11.0224
  63   2.0000      -0.344963        -9.3869
  64   2.0000      -0.331132        -9.0106
  65   2.0000      -0.329199        -8.9580
  66   2.0000      -0.288221        -7.8429
  67   0.0000       0.027458         0.7472
  68   0.0000       0.070262         1.9119
  69   0.0000       0.108914         2.9637
  70   0.0000       0.121426         3.3042
  71   0.0000       0.130473         3.5503

MULLIKEN ATOMIC CHARGES
-----------------------
   0 S :    0.112479
   1 C :   -0.131447
   2 C :   -0.103878
   3 C :    0.029003
   4 C :   -0.142651
   5 H :   -0.001532
   6 C :    0.051346
   7 H :    0.054237
   8 H :    0.044399
   9 C :   -0.089774
  10 H :    0.035054
  11 H :    0.021446
  12 C :   -0.080992
  13 H :    0.044292
  14 H :    0.039254
  15 H :    0.045399
  16 S :    0.114565
  17 C :   -0.129369
  18 C :   -0.038889
  19 C :   -0.053237
  20 C :   -0.140710
  21 H :    0.047480
  22 C :    0.075219
  23 H :    0.028361
  24 H :    0.024127
  25 C :   -0.092483
  26 H :    0.015672
  27 H :    0.007789
  28 C :   -0.040827
  29 H :    0.036112
  30 H :    0.054544
  31 H :    0.033797
  32 H :    0.050121
  33 H :    0.081093
Sum of atomic charges:    0.0000000

LOEWDIN ATOMIC CHARGES
----------------------
   0 S :    0.413924
   1 C :   -0.213530
   2 C :   -0.056693
   3 C :   -0.063011
   4 C :   -0.192546
   5 H :    0.025307
   6 C :   -0.030649
   7 H :    0.044880
   8 H :    0.031876
   9 C :   -0.047373
  10 H :    0.026380
  11 H :    0.017232
  12 C :   -0.070116
  13 H :    0.033753
  14 H :    0.017689
  15 H :    0.034496
  16 S :    0.416043
  17 C :   -0.195145
  18 C :   -0.081180
  19 C :   -0.054056
  20 C :   -0.209434
  21 H :    0.043524
  22 C :   -0.036249
  23 H :    0.034446
  24 H :    0.028776
  25 C :   -0.052736
  26 H :    0.019288
  27 H :    0.018827
  28 C :   -0.066003
  29 H :    0.030639
  30 H :    0.036461
  31 H :    0.026512
  32 H :    0.027077
  33 H :    0.041593

  Mayer bond orders larger than 0.100000
B(  0-S ,  1-C ) :   1.1270 B(  0-S ,  4-C ) :   1.1775 B(  1-C ,  2-C ) :   1.5959
B(  1-C , 32-H ) :   0.9659 B(  2-C ,  3-C ) :   1.2681 B(  2-C ,  6-C ) :   0.9924
B(  3-C ,  4-C ) :   1.5280 B(  3-C ,  5-H ) :   0.9957 B(  4-C , 20-C ) :   1.0323
B(  6-C ,  7-H ) :   0.9510 B(  6-C ,  8-H ) :   0.9392 B(  6-C ,  9-C ) :   1.0685
B(  9-C , 10-H ) :   0.9580 B(  9-C , 11-H ) :   0.9564 B(  9-C , 12-C ) :   1.0684
B( 12-C , 13-H ) :   0.9773 B( 12-C , 14-H ) :   0.9808 B( 12-C , 15-H ) :   0.9762
B( 16-S , 17-C ) :   1.1724 B( 16-S , 20-C ) :   1.1376 B( 17-C , 18-C ) :   1.6014
B( 17-C , 33-H ) :   0.9589 B( 18-C , 19-C ) :   1.2434 B( 18-C , 21-H ) :   0.9804
B( 19-C , 20-C ) :   1.5858 B( 19-C , 22-C ) :   1.0689 B( 22-C , 23-H ) :   0.9250
B( 22-C , 24-H ) :   0.9244 B( 22-C , 25-C ) :   1.0665 B( 25-C , 26-H ) :   0.9515
B( 25-C , 27-H ) :   0.9446 B( 25-C , 28-C ) :   1.0688 B( 28-C , 29-H ) :   0.9733
B( 28-C , 30-H ) :   0.9749 B( 28-C , 31-H ) :   0.9763

Dispersion correction           -0.013973350
FINAL SINGLE POINT ENERGY     -1339.870844154188

DIPOLE MOMENT
-------------
                                X             Y             Z
Electronic contribution:      1.88613      -6.36904     -29.70878
Nuclear contribution   :     -1.95075       6.82749      30.26652
                        -----------------------------------------
Total Dipole Moment    :     -0.06462       0.45845       0.55774
                        -----------------------------------------
Magnitude (a.u.)       :      0.72486
Magnitude (Debye)      :      1.84245

Rotational constants in cm-1:     0.018501     0.008062     0.006107
Rotational constants in MHz :   554.643668   241.677966   183.093029

                             ****ORCA TERMINATED NORMALLY****
TOTAL RUN TIME: 0 days 0 hours 0 minutes 29 seconds 982 msec
