                         Program Version 4.2.1 -  RELEASE  -
|  1> ! wB97X-D3 SP def2-SVP
|  2> %pal
|  3> nprocs 16
|  4> end
|  5>
|  6> * xyz 0 1
|  7> S 	 -98.295 	 40.4397 	 122.243
|  8> C 	 -99.4007 	 40.8393 	 123.517
|  9> C 	 -98.8988 	 41.5866 	 124.593
| 10> C 	 -97.4507 	 41.6628 	 124.342
| 11> C 	 -96.9913 	 41.2112 	 123.127
| 12> H 	 -96.7808 	 42.1853 	 124.977
| 13> C 	 -99.6243 	 41.8719 	 125.887
| 14> H 	 -100.66 	 41.4614 	 125.812
| 15> H 	 -99.8224 	 42.9117 	 125.979
| 16> C 	 -98.8595 	 41.6041 	 127.189
| 17> H 	 -97.7945 	 41.9475 	 127.152
| 18> H 	 -99.2892 	 42.2206 	 128.011
| 19> C 	 -99.1034 	 40.1856 	 127.688
| 20> H 	 -98.7761 	 39.3294 	 127.098
| 21> H 	 -98.5894 	 40.0332 	 128.655
| 22> H 	 -100.094 	 39.9559 	 127.999
| 23> S 	 -94.375 	 40.7994 	 123.371
| 24> C 	 -93.2531 	 41.6831 	 122.373
| 25> C 	 -93.946 	 42.5765 	 121.529
| 26> C 	 -95.3554 	 42.4838 	 121.654
| 27> C 	 -95.7004 	 41.5471 	 122.631
| 28> H 	 -93.427 	 43.0845 	 120.767
| 29> C 	 -96.2682 	 43.5196 	 120.913
| 30> H 	 -97.3288 	 43.3958 	 121.123
| 31> H 	 -96.1362 	 43.2963 	 119.872
| 32> C 	 -95.7687 	 44.9942 	 120.945
| 33> H 	 -96.4213 	 45.737 	 120.506
| 34> H 	 -94.6969 	 45.1127 	 120.415
| 35> C 	 -95.6906 	 45.5782 	 122.398
| 36> H 	 -95.2702 	 46.6071 	 122.383
| 37> H 	 -94.9669 	 44.9769 	 122.964
| 38> H 	 -96.6295 	 45.6802 	 122.916
| 39> H 	 -100.405 	 40.5729 	 123.363
| 40> H 	 -92.2328 	 41.3552 	 122.254
| 41> *
| 42>
| 43>                          ****END OF INPUT****

CARTESIAN COORDINATES (ANGSTROEM)
---------------------------------
  S    -98.295000   40.439700  122.243000
  C    -99.400700   40.839300  123.517000
  C    -98.898800   41.586600  124.593000
  C    -97.450700   41.662800  124.342000
  C    -96.991300   41.211200  123.127000
  H    -96.780800   42.185300  124.977000
  C    -99.624300   41.871900  125.887000
  H    -100.660000   41.461400  125.812000
  H    -99.822400   42.911700  125.979000
  C    -98.859500   41.604100  127.189000
  H    -97.794500   41.947500  127.152000
  H    -99.289200   42.220600  128.011000
  C    -99.103400   40.185600  127.688000
  H    -98.776100   39.329400  127.098000
  H    -98.589400   40.033200  128.655000
  H    -100.094000   39.955900  127.999000
  S    -94.375000   40.799400  123.371000
  C    -93.253100   41.683100  122.373000
  C    -93.946000   42.576500  121.529000
  C    -95.355400   42.483800  121.654000
  C    -95.700400   41.547100  122.631000
  H    -93.427000   43.084500  120.767000
  C    -96.268200   43.519600  120.913000
  H    -97.328800   43.395800  121.123000
  H    -96.136200   43.296300  119.872000
  C    -95.768700   44.994200  120.945000
  H    -96.421300   45.737000  120.506000
  H    -94.696900   45.112700  120.415000
  C    -95.690600   45.578200  122.398000
  H    -95.270200   46.607100  122.383000
  H    -94.966900   44.976900  122.964000
  H    -96.629500   45.680200  122.916000
  H    -100.405000   40.572900  123.363000
  H    -92.232800   41.355200  122.254000

 Total Charge           Charge          ....    0
 Multiplicity           Mult            ....    1
 Number of Electrons    NEL             ....  134
 Basis Dimension        Dim             ....  322

ORBITAL ENERGIES
----------------

  NO   OCC          E(Eh)            E(eV)
   0   2.0000     -88.966598     -2420.9042
   1   2.0000     -88.966005     -2420.8881
   2   2.0000     -10.320628      -280.8386
   3   2.0000     -10.319036      -280.7952
   4   2.0000     -10.315415      -280.6967
   5   2.0000     -10.311728      -280.5964
   6   2.0000     -10.307785      -280.4891
   7   2.0000     -10.304067      -280.3879
   8   2.0000     -10.299355      -280.2597
   9   2.0000     -10.296962      -280.1946
  10   2.0000     -10.295147      -280.1452
  11   2.0000     -10.294759      -280.1346
  12   2.0000     -10.292072      -280.0615
  13   2.0000     -10.291792      -280.0539
  14   2.0000     -10.272045      -279.5166
  15   2.0000     -10.271848      -279.5112
  16   2.0000      -8.081843      -219.9181
  17   2.0000      -8.081469      -219.9080
  18   2.0000      -6.040152      -164.3609
  19   2.0000      -6.039875      -164.3534
  20   2.0000      -6.036040      -164.2490
  21   2.0000      -6.036030      -164.2487
  22   2.0000      -6.032913      -164.1639
  23   2.0000      -6.032269      -164.1464
  24   2.0000      -1.010173       -27.4882
  25   2.0000      -0.982706       -26.7408
  26   2.0000      -0.912513       -24.8307
  27   2.0000      -0.899666       -24.4812
  28   2.0000      -0.872142       -23.7322
  29   2.0000      -0.847604       -23.0645
  30   2.0000      -0.842373       -22.9221
  31   2.0000      -0.810143       -22.0451
  32   2.0000      -0.785417       -21.3723
  33   2.0000      -0.773679       -21.0529
  34   2.0000      -0.709054       -19.2943
  35   2.0000      -0.694037       -18.8857
  36   2.0000      -0.685857       -18.6631
  37   2.0000      -0.664330       -18.0773
  38   2.0000      -0.644754       -17.5446
  39   2.0000      -0.619687       -16.8626
  40   2.0000      -0.595081       -16.1930
  41   2.0000      -0.564139       -15.3510
  42   2.0000      -0.548301       -14.9200
  43   2.0000      -0.544895       -14.8273
  44   2.0000      -0.540552       -14.7092
  45   2.0000      -0.537330       -14.6215
  46   2.0000      -0.518663       -14.1135
  47   2.0000      -0.514982       -14.0134
  48   2.0000      -0.500018       -13.6062
  49   2.0000      -0.492751       -13.4084
  50   2.0000      -0.487869       -13.2756
  51   2.0000      -0.475117       -12.9286
  52   2.0000      -0.469586       -12.7781
  53   2.0000      -0.463710       -12.6182
  54   2.0000      -0.456285       -12.4161
  55   2.0000      -0.444204       -12.0874
  56   2.0000      -0.440580       -11.9888
  57   2.0000      -0.438493       -11.9320
  58   2.0000      -0.429586       -11.6896
  59   2.0000      -0.425307       -11.5732
  60   2.0000      -0.424041       -11.5387
  61   2.0000      -0.413947       -11.2641
  62   2.0000      -0.407010       -11.0753
  63   2.0000      -0.338705        -9.2166
  64   2.0000      -0.334026        -9.0893
  65   2.0000      -0.321152        -8.7390
  66   2.0000      -0.294902        -8.0247
  67   0.0000       0.043398         1.1809
  68   0.0000       0.060440         1.6446
  69   0.0000       0.110815         3.0154
  70   0.0000       0.116274         3.1640
  71   0.0000       0.131753         3.5852

MULLIKEN ATOMIC CHARGES
-----------------------
   0 S :    0.120394
   1 C :   -0.126246
   2 C :   -0.055112
   3 C :    0.031225
   4 C :   -0.154946
   5 H :   -0.002497
   6 C :    0.088140
   7 H :    0.026014
   8 H :    0.020925
   9 C :   -0.088680
  10 H :    0.048909
  11 H :    0.031119
  12 C :   -0.043206
  13 H :    0.038700
  14 H :    0.018321
  15 H :    0.015876
  16 S :    0.130054
  17 C :   -0.109484
  18 C :   -0.032412
  19 C :   -0.020924
  20 C :   -0.209432
  21 H :    0.007290
  22 C :    0.128915
  23 H :    0.033722
  24 H :    0.026261
  25 C :   -0.134944
  26 H :    0.037272
  27 H :    0.046149
  28 C :   -0.069157
  29 H :    0.028588
  30 H :    0.040391
  31 H :    0.034245
  32 H :    0.031917
  33 H :    0.062614
Sum of atomic charges:    0.0000000

LOEWDIN ATOMIC CHARGES
----------------------
   0 S :    0.409896
   1 C :   -0.187127
   2 C :   -0.057954
   3 C :   -0.051576
   4 C :   -0.209472
   5 H :    0.018583
   6 C :   -0.036235
   7 H :    0.038594
   8 H :    0.030855
   9 C :   -0.041142
  10 H :    0.033593
  11 H :    0.032410
  12 C :   -0.073248
  13 H :    0.025968
  14 H :    0.027493
  15 H :    0.020135
  16 S :    0.447893
  17 C :   -0.197027
  18 C :   -0.061865
  19 C :   -0.055412
  20 C :   -0.220331
  21 H :    0.022758
  22 C :   -0.028378
  23 H :    0.030608
  24 H :    0.033517
  25 C :   -0.047810
  26 H :    0.025188
  27 H :    0.035207
  28 C :   -0.074460
  29 H :    0.026191
  30 H :    0.023865
  31 H :    0.021594
  32 H :    0.010867
  33 H :    0.026825

  Mayer bond orders larger than 0.100000
B(  0-S ,  1-C ) :   1.1619 B(  0-S ,  4-C ) :   1.1195 B(  1-C ,  2-C ) :   1.6021
B(  1-C , 32-H ) :   0.9682 B(  2-C ,  3-C ) :   1.2272 B(  2-C ,  6-C ) :   1.0344
B(  3-C ,  4-C ) :   1.6167 B(  3-C ,  5-H ) :   0.9828 B(  4-C , 20-C ) :   1.0228
B(  6-C ,  7-H ) :   0.9448 B(  6-C ,  8-H ) :   0.9202 B(  6-C ,  9-C ) :   1.0718
B(  9-C , 10-H ) :   0.9514 B(  9-C , 11-H ) :   0.9530 B(  9-C , 12-C ) :   1.0765
B( 12-C , 13-H ) :   0.9788 B( 12-C , 14-H ) :   0.9702 B( 12-C , 15-H ) :   0.9736
B( 16-S , 17-C ) :   1.1686 B( 16-S , 20-C ) :   1.1866 B( 17-C , 18-C ) :   1.5704
B( 17-C , 20-C ) :   0.1056 B( 17-C , 33-H ) :   0.9699 B( 18-C , 19-C ) :   1.2694
B( 18-C , 21-H ) :   0.9917 B( 19-C , 20-C ) :   1.5628 B( 19-C , 22-C ) :   1.0292
B( 22-C , 23-H ) :   0.9417 B( 22-C , 24-H ) :   0.9266 B( 22-C , 25-C ) :   1.0654
B( 25-C , 26-H ) :   0.9588 B( 25-C , 27-H ) :   0.9496 B( 25-C , 28-C ) :   1.0681
B( 28-C , 29-H ) :   0.9748 B( 28-C , 30-H ) :   0.9758 B( 28-C , 31-H ) :   0.9768

Dispersion correction           -0.014741785
FINAL SINGLE POINT ENERGY     -1339.860702680941

DIPOLE MOMENT
-------------
                                X             Y             Z
Electronic contribution:      6.92884     -14.99903     -11.08001
Nuclear contribution   :     -7.15808      15.39660      11.24715
                        -----------------------------------------
Total Dipole Moment    :     -0.22925       0.39757       0.16714
                        -----------------------------------------
Magnitude (a.u.)       :      0.48842
Magnitude (Debye)      :      1.24146

Rotational constants in cm-1:     0.019793     0.008123     0.007619
Rotational constants in MHz :   593.375204   243.529739   228.407573

                             ****ORCA TERMINATED NORMALLY****
TOTAL RUN TIME: 0 days 0 hours 0 minutes 31 seconds 981 msec
