                         Program Version 4.2.1 -  RELEASE  -
|  1> ! wB97X-D3 SP def2-SVP
|  2> %pal
|  3> nprocs 16
|  4> end
|  5>
|  6> * xyz 0 1
|  7> S 	 53.9469 	 16.2584 	 50.6371
|  8> C 	 53.2967 	 17.8845 	 50.4702
|  9> C 	 52.9361 	 18.4452 	 51.6449
| 10> C 	 53.1578 	 17.5568 	 52.7168
| 11> C 	 53.6749 	 16.3302 	 52.3537
| 12> H 	 52.8198 	 17.6407 	 53.7447
| 13> C 	 52.1731 	 19.6902 	 51.8192
| 14> H 	 52.1217 	 20.1037 	 50.845
| 15> H 	 52.785 	 20.4138 	 52.3541
| 16> C 	 50.7636 	 19.5352 	 52.3518
| 17> H 	 50.1413 	 18.9388 	 51.6886
| 18> H 	 50.6277 	 19.1401 	 53.3207
| 19> C 	 50.0776 	 20.9862 	 52.2883
| 20> H 	 50.6651 	 21.9092 	 52.5699
| 21> H 	 50.0243 	 21.2389 	 51.2448
| 22> H 	 49.0889 	 21.0427 	 52.6466
| 23> S 	 55.3415 	 14.4164 	 53.1381
| 24> C 	 55.0703 	 13.4389 	 54.5702
| 25> C 	 53.7477 	 13.5271 	 54.9371
| 26> C 	 53.072 	 14.6005 	 54.2544
| 27> C 	 53.7929 	 15.2082 	 53.2024
| 28> H 	 53.3381 	 12.9778 	 55.8017
| 29> C 	 51.7005 	 15.0792 	 54.6685
| 30> H 	 51.0803 	 14.7297 	 53.8365
| 31> H 	 51.6674 	 16.1453 	 54.6298
| 32> C 	 51.0504 	 14.5649 	 55.8891
| 33> H 	 51.7498 	 14.8479 	 56.6964
| 34> H 	 51.0177 	 13.4329 	 55.9929
| 35> C 	 49.6913 	 14.9334 	 56.1531
| 36> H 	 49.0724 	 14.631 	 55.3031
| 37> H 	 49.5477 	 15.9899 	 56.3461
| 38> H 	 49.3761 	 14.5104 	 57.0641
| 39> H 	 53.3066 	 18.3649 	 49.5038
| 40> H 	 55.8391 	 12.7804 	 54.9938
| 41> *
| 42>
| 43>                          ****END OF INPUT****

CARTESIAN COORDINATES (ANGSTROEM)
---------------------------------
  S     53.946900   16.258400   50.637100
  C     53.296700   17.884500   50.470200
  C     52.936100   18.445200   51.644900
  C     53.157800   17.556800   52.716800
  C     53.674900   16.330200   52.353700
  H     52.819800   17.640700   53.744700
  C     52.173100   19.690200   51.819200
  H     52.121700   20.103700   50.845000
  H     52.785000   20.413800   52.354100
  C     50.763600   19.535200   52.351800
  H     50.141300   18.938800   51.688600
  H     50.627700   19.140100   53.320700
  C     50.077600   20.986200   52.288300
  H     50.665100   21.909200   52.569900
  H     50.024300   21.238900   51.244800
  H     49.088900   21.042700   52.646600
  S     55.341500   14.416400   53.138100
  C     55.070300   13.438900   54.570200
  C     53.747700   13.527100   54.937100
  C     53.072000   14.600500   54.254400
  C     53.792900   15.208200   53.202400
  H     53.338100   12.977800   55.801700
  C     51.700500   15.079200   54.668500
  H     51.080300   14.729700   53.836500
  H     51.667400   16.145300   54.629800
  C     51.050400   14.564900   55.889100
  H     51.749800   14.847900   56.696400
  H     51.017700   13.432900   55.992900
  C     49.691300   14.933400   56.153100
  H     49.072400   14.631000   55.303100
  H     49.547700   15.989900   56.346100
  H     49.376100   14.510400   57.064100
  H     53.306600   18.364900   49.503800
  H     55.839100   12.780400   54.993800

 Total Charge           Charge          ....    0
 Multiplicity           Mult            ....    1
 Number of Electrons    NEL             ....  134
 Basis Dimension        Dim             ....  322

ORBITAL ENERGIES
----------------

  NO   OCC          E(Eh)            E(eV)
   0   2.0000     -88.964812     -2420.8556
   1   2.0000     -88.958688     -2420.6890
   2   2.0000     -10.324477      -280.9433
   3   2.0000     -10.322163      -280.8803
   4   2.0000     -10.320529      -280.8359
   5   2.0000     -10.310493      -280.5628
   6   2.0000     -10.308957      -280.5210
   7   2.0000     -10.297987      -280.2225
   8   2.0000     -10.293257      -280.0938
   9   2.0000     -10.292635      -280.0768
  10   2.0000     -10.287849      -279.9466
  11   2.0000     -10.287329      -279.9324
  12   2.0000     -10.284362      -279.8517
  13   2.0000     -10.282503      -279.8011
  14   2.0000     -10.279407      -279.7169
  15   2.0000     -10.270451      -279.4732
  16   2.0000      -8.079940      -219.8663
  17   2.0000      -8.074033      -219.7056
  18   2.0000      -6.038409      -164.3135
  19   2.0000      -6.034522      -164.2077
  20   2.0000      -6.032487      -164.1523
  21   2.0000      -6.030584      -164.1005
  22   2.0000      -6.028333      -164.0393
  23   2.0000      -6.024912      -163.9462
  24   2.0000      -1.011902       -27.5353
  25   2.0000      -0.986826       -26.8529
  26   2.0000      -0.927244       -25.2316
  27   2.0000      -0.918946       -25.0058
  28   2.0000      -0.875924       -23.8351
  29   2.0000      -0.858860       -23.3708
  30   2.0000      -0.847253       -23.0549
  31   2.0000      -0.817705       -22.2509
  32   2.0000      -0.784866       -21.3573
  33   2.0000      -0.774205       -21.0672
  34   2.0000      -0.719965       -19.5912
  35   2.0000      -0.703249       -19.1364
  36   2.0000      -0.699400       -19.0316
  37   2.0000      -0.654794       -17.8179
  38   2.0000      -0.642193       -17.4749
  39   2.0000      -0.624284       -16.9876
  40   2.0000      -0.602891       -16.4055
  41   2.0000      -0.582428       -15.8487
  42   2.0000      -0.571318       -15.5464
  43   2.0000      -0.562703       -15.3119
  44   2.0000      -0.538540       -14.6544
  45   2.0000      -0.532756       -14.4970
  46   2.0000      -0.519987       -14.1496
  47   2.0000      -0.513328       -13.9684
  48   2.0000      -0.506777       -13.7901
  49   2.0000      -0.503215       -13.6932
  50   2.0000      -0.495462       -13.4822
  51   2.0000      -0.486167       -13.2293
  52   2.0000      -0.480896       -13.0859
  53   2.0000      -0.464846       -12.6491
  54   2.0000      -0.457927       -12.4608
  55   2.0000      -0.452629       -12.3167
  56   2.0000      -0.450441       -12.2571
  57   2.0000      -0.442721       -12.0471
  58   2.0000      -0.424883       -11.5617
  59   2.0000      -0.422318       -11.4919
  60   2.0000      -0.420858       -11.4521
  61   2.0000      -0.412056       -11.2126
  62   2.0000      -0.407935       -11.1005
  63   2.0000      -0.351310        -9.5596
  64   2.0000      -0.333319        -9.0701
  65   2.0000      -0.323219        -8.7952
  66   2.0000      -0.287377        -7.8199
  67   0.0000       0.029507         0.8029
  68   0.0000       0.069746         1.8979
  69   0.0000       0.112580         3.0635
  70   0.0000       0.125451         3.4137
  71   0.0000       0.133339         3.6283

MULLIKEN ATOMIC CHARGES
-----------------------
   0 S :    0.112915
   1 C :   -0.137297
   2 C :   -0.055408
   3 C :    0.000103
   4 C :   -0.132303
   5 H :    0.008756
   6 C :    0.106367
   7 H :   -0.008368
   8 H :    0.033642
   9 C :   -0.041984
  10 H :    0.034779
  11 H :    0.028871
  12 C :   -0.061757
  13 H :    0.030745
  14 H :    0.009047
  15 H :    0.030515
  16 S :    0.083591
  17 C :   -0.097172
  18 C :   -0.028722
  19 C :   -0.076774
  20 C :   -0.135333
  21 H :    0.034363
  22 C :    0.101864
  23 H :    0.028538
  24 H :    0.009898
  25 C :   -0.133644
  26 H :    0.019592
  27 H :    0.031103
  28 C :    0.025648
  29 H :    0.031253
  30 H :    0.014454
  31 H :    0.017979
  32 H :    0.044817
  33 H :    0.069922
Sum of atomic charges:   -0.0000000

LOEWDIN ATOMIC CHARGES
----------------------
   0 S :    0.402240
   1 C :   -0.187294
   2 C :   -0.068081
   3 C :   -0.060494
   4 C :   -0.199082
   5 H :    0.028855
   6 C :   -0.029047
   7 H :    0.026655
   8 H :    0.035567
   9 C :   -0.021079
  10 H :    0.030725
  11 H :    0.015496
  12 C :   -0.073606
  13 H :    0.031861
  14 H :    0.021262
  15 H :    0.017475
  16 S :    0.407444
  17 C :   -0.179669
  18 C :   -0.080916
  19 C :   -0.048243
  20 C :   -0.208110
  21 H :    0.037789
  22 C :   -0.037954
  23 H :    0.039177
  24 H :    0.025116
  25 C :   -0.058675
  26 H :    0.022651
  27 H :    0.029970
  28 C :   -0.056221
  29 H :    0.029618
  30 H :    0.021701
  31 H :    0.025298
  32 H :    0.024732
  33 H :    0.034838

  Mayer bond orders larger than 0.100000
B(  0-S ,  1-C ) :   1.1274 B(  0-S ,  4-C ) :   1.1476 B(  1-C ,  2-C ) :   1.6253
B(  1-C , 32-H ) :   0.9658 B(  2-C ,  3-C ) :   1.2192 B(  2-C ,  6-C ) :   1.0350
B(  3-C ,  4-C ) :   1.5859 B(  3-C ,  5-H ) :   0.9968 B(  4-C , 20-C ) :   1.0534
B(  6-C ,  7-H ) :   0.9318 B(  6-C ,  8-H ) :   0.9245 B(  6-C ,  9-C ) :   1.0641
B(  9-C , 10-H ) :   0.9549 B(  9-C , 11-H ) :   0.9622 B(  9-C , 12-C ) :   1.0632
B( 12-C , 13-H ) :   0.9759 B( 12-C , 14-H ) :   0.9738 B( 12-C , 15-H ) :   0.9774
B( 16-S , 17-C ) :   1.1778 B( 16-S , 20-C ) :   1.1323 B( 17-C , 18-C ) :   1.5701
B( 17-C , 20-C ) :   0.1084 B( 17-C , 33-H ) :   0.9653 B( 18-C , 19-C ) :   1.2678
B( 18-C , 21-H ) :   0.9808 B( 19-C , 20-C ) :   1.5678 B( 19-C , 22-C ) :   1.0243
B( 22-C , 23-H ) :   0.9142 B( 22-C , 24-H ) :   0.9338 B( 22-C , 25-C ) :   1.0914
B( 25-C , 26-H ) :   0.9412 B( 25-C , 27-H ) :   0.9407 B( 25-C , 28-C ) :   1.1087
B( 28-C , 29-H ) :   0.9673 B( 28-C , 30-H ) :   0.9641 B( 28-C , 31-H ) :   0.9629

Dispersion correction           -0.013625363
FINAL SINGLE POINT ENERGY     -1339.858656485181

DIPOLE MOMENT
-------------
                                X             Y             Z
Electronic contribution:     26.13872     -14.47739     -12.85090
Nuclear contribution   :    -26.76703      14.75142      13.25707
                        -----------------------------------------
Total Dipole Moment    :     -0.62831       0.27403       0.40618
                        -----------------------------------------
Magnitude (a.u.)       :      0.79677
Magnitude (Debye)      :      2.02524

Rotational constants in cm-1:     0.016251     0.009473     0.006333
Rotational constants in MHz :   487.191472   283.982609   189.864502

                             ****ORCA TERMINATED NORMALLY****
TOTAL RUN TIME: 0 days 0 hours 0 minutes 30 seconds 393 msec
