                         Program Version 4.2.1 -  RELEASE  -
|  1> ! wB97X-D3 SP def2-SVP
|  2> %pal
|  3> nprocs 16
|  4> end
|  5>
|  6> * xyz 0 1
|  7> S 	 -2.78206 	 -12.8948 	 66.7945
|  8> C 	 -4.15007 	 -13.3426 	 67.8481
|  9> C 	 -3.78011 	 -13.8686 	 69.0173
| 10> C 	 -2.3498 	 -14.0658 	 69.0808
| 11> C 	 -1.63423 	 -13.6011 	 67.9625
| 12> H 	 -1.75878 	 -14.374 	 69.9253
| 13> C 	 -4.68498 	 -14.202 	 70.1875
| 14> H 	 -4.18273 	 -14.8621 	 70.8657
| 15> H 	 -5.48667 	 -14.6883 	 69.608
| 16> C 	 -5.26855 	 -12.9728 	 70.9469
| 17> H 	 -5.91755 	 -12.4431 	 70.2687
| 18> H 	 -5.92071 	 -13.3551 	 71.732
| 19> C 	 -4.15359 	 -12.0049 	 71.4975
| 20> H 	 -3.70085 	 -11.6076 	 70.5467
| 21> H 	 -4.592 	 -11.1367 	 72.0082
| 22> H 	 -3.38728 	 -12.4281 	 72.1283
| 23> S 	 0.692496 	 -12.1745 	 67.3329
| 24> C 	 2.20567 	 -13.0528 	 67.3184
| 25> C 	 2.05643 	 -14.3147 	 67.8256
| 26> C 	 0.70534 	 -14.6548 	 68.131
| 27> C 	 -0.186497 	 -13.5971 	 67.9223
| 28> H 	 2.89385 	 -14.9373 	 67.7794
| 29> C 	 0.228495 	 -16.139 	 68.3679
| 30> H 	 -0.189462 	 -16.5265 	 67.4017
| 31> H 	 -0.590264 	 -16.2152 	 69.0637
| 32> C 	 1.30493 	 -17.0401 	 68.9184
| 33> H 	 2.02768 	 -17.1056 	 68.1197
| 34> H 	 0.875108 	 -18.0184 	 69.0055
| 35> C 	 1.83486 	 -16.6487 	 70.2382
| 36> H 	 2.3917 	 -15.7157 	 70.206
| 37> H 	 2.62015 	 -17.384 	 70.4618
| 38> H 	 1.1473 	 -16.619 	 71.0807
| 39> H 	 -5.23396 	 -13.1924 	 67.5245
| 40> H 	 3.13611 	 -12.5796 	 67.0739
| 41> *
| 42>
| 43>                          ****END OF INPUT****

CARTESIAN COORDINATES (ANGSTROEM)
---------------------------------
  S     -2.782060  -12.894800   66.794500
  C     -4.150070  -13.342600   67.848100
  C     -3.780110  -13.868600   69.017300
  C     -2.349800  -14.065800   69.080800
  C     -1.634230  -13.601100   67.962500
  H     -1.758780  -14.374000   69.925300
  C     -4.684980  -14.202000   70.187500
  H     -4.182730  -14.862100   70.865700
  H     -5.486670  -14.688300   69.608000
  C     -5.268550  -12.972800   70.946900
  H     -5.917550  -12.443100   70.268700
  H     -5.920710  -13.355100   71.732000
  C     -4.153590  -12.004900   71.497500
  H     -3.700850  -11.607600   70.546700
  H     -4.592000  -11.136700   72.008200
  H     -3.387280  -12.428100   72.128300
  S      0.692496  -12.174500   67.332900
  C      2.205670  -13.052800   67.318400
  C      2.056430  -14.314700   67.825600
  C      0.705340  -14.654800   68.131000
  C     -0.186497  -13.597100   67.922300
  H      2.893850  -14.937300   67.779400
  C      0.228495  -16.139000   68.367900
  H     -0.189462  -16.526500   67.401700
  H     -0.590264  -16.215200   69.063700
  C      1.304930  -17.040100   68.918400
  H      2.027680  -17.105600   68.119700
  H      0.875108  -18.018400   69.005500
  C      1.834860  -16.648700   70.238200
  H      2.391700  -15.715700   70.206000
  H      2.620150  -17.384000   70.461800
  H      1.147300  -16.619000   71.080700
  H     -5.233960  -13.192400   67.524500
  H      3.136110  -12.579600   67.073900

 Total Charge           Charge          ....    0
 Multiplicity           Mult            ....    1
 Number of Electrons    NEL             ....  134
 Basis Dimension        Dim             ....  322

ORBITAL ENERGIES
----------------

  NO   OCC          E(Eh)            E(eV)
   0   2.0000     -88.968051     -2420.9437
   1   2.0000     -88.964021     -2420.8341
   2   2.0000     -10.332658      -281.1659
   3   2.0000     -10.328539      -281.0538
   4   2.0000     -10.317282      -280.7475
   5   2.0000     -10.316372      -280.7228
   6   2.0000     -10.307379      -280.4780
   7   2.0000     -10.298403      -280.2338
   8   2.0000     -10.293657      -280.1046
   9   2.0000     -10.293507      -280.1006
  10   2.0000     -10.291100      -280.0351
  11   2.0000     -10.290966      -280.0314
  12   2.0000     -10.290813      -280.0273
  13   2.0000     -10.280770      -279.7540
  14   2.0000     -10.277482      -279.6645
  15   2.0000     -10.273613      -279.5592
  16   2.0000      -8.081527      -219.9095
  17   2.0000      -8.078637      -219.8309
  18   2.0000      -6.040341      -164.3660
  19   2.0000      -6.037167      -164.2797
  20   2.0000      -6.036256      -164.2549
  21   2.0000      -6.033123      -164.1696
  22   2.0000      -6.031990      -164.1388
  23   2.0000      -6.029429      -164.0691
  24   2.0000      -1.001513       -27.2526
  25   2.0000      -0.981190       -26.6995
  26   2.0000      -0.915547       -24.9133
  27   2.0000      -0.908084       -24.7102
  28   2.0000      -0.869787       -23.6681
  29   2.0000      -0.847286       -23.0558
  30   2.0000      -0.838999       -22.8303
  31   2.0000      -0.812327       -22.1045
  32   2.0000      -0.785169       -21.3655
  33   2.0000      -0.775421       -21.1003
  34   2.0000      -0.706475       -19.2242
  35   2.0000      -0.703765       -19.1504
  36   2.0000      -0.693454       -18.8698
  37   2.0000      -0.656555       -17.8658
  38   2.0000      -0.634213       -17.2578
  39   2.0000      -0.612161       -16.6578
  40   2.0000      -0.598268       -16.2797
  41   2.0000      -0.577407       -15.7121
  42   2.0000      -0.555260       -15.1094
  43   2.0000      -0.547704       -14.9038
  44   2.0000      -0.542021       -14.7492
  45   2.0000      -0.536763       -14.6061
  46   2.0000      -0.516937       -14.0666
  47   2.0000      -0.514281       -13.9943
  48   2.0000      -0.497129       -13.5276
  49   2.0000      -0.496816       -13.5191
  50   2.0000      -0.490385       -13.3440
  51   2.0000      -0.480140       -13.0653
  52   2.0000      -0.474340       -12.9075
  53   2.0000      -0.464139       -12.6299
  54   2.0000      -0.459773       -12.5111
  55   2.0000      -0.441326       -12.0091
  56   2.0000      -0.439868       -11.9694
  57   2.0000      -0.438226       -11.9247
  58   2.0000      -0.434673       -11.8281
  59   2.0000      -0.429795       -11.6953
  60   2.0000      -0.416616       -11.3367
  61   2.0000      -0.413354       -11.2479
  62   2.0000      -0.408439       -11.1142
  63   2.0000      -0.352285        -9.5862
  64   2.0000      -0.332598        -9.0505
  65   2.0000      -0.329514        -8.9665
  66   2.0000      -0.287118        -7.8129
  67   0.0000       0.023655         0.6437
  68   0.0000       0.072700         1.9783
  69   0.0000       0.110514         3.0072
  70   0.0000       0.122059         3.3214
  71   0.0000       0.132968         3.6182

MULLIKEN ATOMIC CHARGES
-----------------------
   0 S :    0.107704
   1 C :   -0.175902
   2 C :   -0.067961
   3 C :    0.006518
   4 C :   -0.140691
   5 H :    0.015673
   6 C :    0.079962
   7 H :    0.020913
   8 H :    0.036449
   9 C :   -0.058231
  10 H :    0.021060
  11 H :    0.032915
  12 C :   -0.080272
  13 H :    0.054820
  14 H :    0.039467
  15 H :    0.039384
  16 S :    0.097527
  17 C :   -0.092981
  18 C :   -0.020047
  19 C :   -0.048734
  20 C :   -0.162072
  21 H :    0.003504
  22 C :    0.072753
  23 H :    0.049161
  24 H :    0.007654
  25 C :   -0.059539
  26 H :    0.020215
  27 H :    0.019897
  28 C :   -0.035382
  29 H :    0.028983
  30 H :    0.028052
  31 H :    0.033792
  32 H :    0.070068
  33 H :    0.055341
Sum of atomic charges:    0.0000000

LOEWDIN ATOMIC CHARGES
----------------------
   0 S :    0.375204
   1 C :   -0.197197
   2 C :   -0.071280
   3 C :   -0.057415
   4 C :   -0.183256
   5 H :    0.027456
   6 C :   -0.026446
   7 H :    0.025065
   8 H :    0.039301
   9 C :   -0.033497
  10 H :    0.020488
  11 H :    0.021701
  12 C :   -0.071300
  13 H :    0.037400
  14 H :    0.027668
  15 H :    0.021886
  16 S :    0.391863
  17 C :   -0.174512
  18 C :   -0.071723
  19 C :   -0.053169
  20 C :   -0.191985
  21 H :    0.023617
  22 C :   -0.027151
  23 H :    0.040562
  24 H :    0.020598
  25 C :   -0.047962
  26 H :    0.020838
  27 H :    0.025907
  28 C :   -0.065005
  29 H :    0.025128
  30 H :    0.031722
  31 H :    0.026434
  32 H :    0.042287
  33 H :    0.026776

  Mayer bond orders larger than 0.100000
B(  0-S ,  1-C ) :   1.1138 B(  0-S ,  4-C ) :   1.1251 B(  1-C ,  2-C ) :   1.6498
B(  1-C , 32-H ) :   0.9550 B(  2-C ,  3-C ) :   1.2140 B(  2-C ,  6-C ) :   0.9983
B(  3-C ,  4-C ) :   1.5825 B(  3-C ,  5-H ) :   0.9881 B(  4-C , 20-C ) :   1.0894
B(  6-C ,  7-H ) :   0.9459 B(  6-C ,  8-H ) :   0.9393 B(  6-C ,  9-C ) :   1.0744
B(  9-C , 10-H ) :   0.9568 B(  9-C , 11-H ) :   0.9597 B(  9-C , 12-C ) :   1.0634
B( 12-C , 13-H ) :   0.9724 B( 12-C , 14-H ) :   0.9759 B( 12-C , 15-H ) :   0.9802
B( 16-S , 17-C ) :   1.1555 B( 16-S , 20-C ) :   1.1318 B( 17-C , 18-C ) :   1.6134
B( 17-C , 33-H ) :   0.9661 B( 18-C , 19-C ) :   1.2398 B( 18-C , 21-H ) :   0.9959
B( 19-C , 20-C ) :   1.5929 B( 19-C , 22-C ) :   1.0174 B( 22-C , 23-H ) :   0.9350
B( 22-C , 24-H ) :   0.9343 B( 22-C , 25-C ) :   1.0914 B( 25-C , 26-H ) :   0.9427
B( 25-C , 27-H ) :   0.9473 B( 25-C , 28-C ) :   1.0923 B( 28-C , 29-H ) :   0.9691
B( 28-C , 30-H ) :   0.9682 B( 28-C , 31-H ) :   0.9720

Dispersion correction           -0.014674876
FINAL SINGLE POINT ENERGY     -1339.880476177755

DIPOLE MOMENT
-------------
                                X             Y             Z
Electronic contribution:      3.49361      12.84738     -19.79098
Nuclear contribution   :     -3.52777     -13.30908      20.19272
                        -----------------------------------------
Total Dipole Moment    :     -0.03417      -0.46170       0.40174
                        -----------------------------------------
Magnitude (a.u.)       :      0.61297
Magnitude (Debye)      :      1.55805

Rotational constants in cm-1:     0.019222     0.008443     0.006993
Rotational constants in MHz :   576.247761   253.109204   209.651385

                             ****ORCA TERMINATED NORMALLY****
TOTAL RUN TIME: 0 days 0 hours 0 minutes 35 seconds 154 msec
