                         Program Version 4.2.1 -  RELEASE  -
|  1> ! wB97X-D3 SP def2-SVP
|  2> %pal
|  3> nprocs 16
|  4> end
|  5>
|  6> * xyz 0 1
|  7> S 	 50.0461 	 6.03922 	 80.9341
|  8> C 	 50.4428 	 7.41788 	 82.0726
|  9> C 	 49.8561 	 7.14383 	 83.3012
| 10> C 	 49.2605 	 5.84736 	 83.3796
| 11> C 	 49.516 	 5.02583 	 82.2624
| 12> H 	 48.785 	 5.4322 	 84.1963
| 13> C 	 49.6527 	 8.1817 	 84.4153
| 14> H 	 48.5681 	 8.38398 	 84.5193
| 15> H 	 50.1656 	 9.11637 	 84.1722
| 16> C 	 50.0194 	 7.66837 	 85.8309
| 17> H 	 49.6539 	 8.37219 	 86.6086
| 18> H 	 49.4593 	 6.76987 	 85.9262
| 19> C 	 51.5685 	 7.45694 	 86.1181
| 20> H 	 52.0285 	 8.41662 	 86.2748
| 21> H 	 51.6735 	 6.95709 	 87.1173
| 22> H 	 52.1398 	 6.85714 	 85.3548
| 23> S 	 48.5823 	 3.08623 	 80.5015
| 24> C 	 48.5107 	 1.41611 	 81.1124
| 25> C 	 48.8141 	 1.30982 	 82.4661
| 26> C 	 49.1861 	 2.59799 	 83.0016
| 27> C 	 49.1625 	 3.63133 	 82.0953
| 28> H 	 48.7026 	 0.381913 	 82.9193
| 29> C 	 49.5292 	 2.69926 	 84.5356
| 30> H 	 48.5909 	 2.33326 	 85.0677
| 31> H 	 49.6385 	 3.75109 	 84.8814
| 32> C 	 50.727 	 1.7379 	 84.9139
| 33> H 	 51.6071 	 1.97174 	 84.2771
| 34> H 	 50.3538 	 0.7416 	 84.7022
| 35> C 	 50.9764 	 1.63514 	 86.4326
| 36> H 	 51.944 	 1.19925 	 86.5926
| 37> H 	 50.2573 	 1.01251 	 86.9743
| 38> H 	 51.001 	 2.64928 	 86.8919
| 39> H 	 50.8637 	 8.31114 	 81.7307
| 40> H 	 48.245 	 0.582704 	 80.4886
| 41> *
| 42>
| 43>                          ****END OF INPUT****

CARTESIAN COORDINATES (ANGSTROEM)
---------------------------------
  S     50.046100    6.039220   80.934100
  C     50.442800    7.417880   82.072600
  C     49.856100    7.143830   83.301200
  C     49.260500    5.847360   83.379600
  C     49.516000    5.025830   82.262400
  H     48.785000    5.432200   84.196300
  C     49.652700    8.181700   84.415300
  H     48.568100    8.383980   84.519300
  H     50.165600    9.116370   84.172200
  C     50.019400    7.668370   85.830900
  H     49.653900    8.372190   86.608600
  H     49.459300    6.769870   85.926200
  C     51.568500    7.456940   86.118100
  H     52.028500    8.416620   86.274800
  H     51.673500    6.957090   87.117300
  H     52.139800    6.857140   85.354800
  S     48.582300    3.086230   80.501500
  C     48.510700    1.416110   81.112400
  C     48.814100    1.309820   82.466100
  C     49.186100    2.597990   83.001600
  C     49.162500    3.631330   82.095300
  H     48.702600    0.381913   82.919300
  C     49.529200    2.699260   84.535600
  H     48.590900    2.333260   85.067700
  H     49.638500    3.751090   84.881400
  C     50.727000    1.737900   84.913900
  H     51.607100    1.971740   84.277100
  H     50.353800    0.741600   84.702200
  C     50.976400    1.635140   86.432600
  H     51.944000    1.199250   86.592600
  H     50.257300    1.012510   86.974300
  H     51.001000    2.649280   86.891900
  H     50.863700    8.311140   81.730700
  H     48.245000    0.582704   80.488600

 Total Charge           Charge          ....    0
 Multiplicity           Mult            ....    1
 Number of Electrons    NEL             ....  134
 Basis Dimension        Dim             ....  322

ORBITAL ENERGIES
----------------

  NO   OCC          E(Eh)            E(eV)
   0   2.0000     -88.967236     -2420.9216
   1   2.0000     -88.963711     -2420.8257
   2   2.0000     -10.334920      -281.2275
   3   2.0000     -10.330157      -281.0978
   4   2.0000     -10.323188      -280.9082
   5   2.0000     -10.317768      -280.7607
   6   2.0000     -10.310951      -280.5752
   7   2.0000     -10.307357      -280.4774
   8   2.0000     -10.305740      -280.4335
   9   2.0000     -10.297505      -280.2093
  10   2.0000     -10.296714      -280.1878
  11   2.0000     -10.293050      -280.0881
  12   2.0000     -10.291628      -280.0494
  13   2.0000     -10.291110      -280.0353
  14   2.0000     -10.284300      -279.8500
  15   2.0000     -10.280917      -279.7580
  16   2.0000      -8.081224      -219.9013
  17   2.0000      -8.077409      -219.7975
  18   2.0000      -6.039867      -164.3531
  19   2.0000      -6.036109      -164.2509
  20   2.0000      -6.036015      -164.2483
  21   2.0000      -6.032265      -164.1463
  22   2.0000      -6.031711      -164.1312
  23   2.0000      -6.027825      -164.0255
  24   2.0000      -1.000905       -27.2360
  25   2.0000      -0.975958       -26.5572
  26   2.0000      -0.905616       -24.6431
  27   2.0000      -0.898939       -24.4614
  28   2.0000      -0.867281       -23.5999
  29   2.0000      -0.849456       -23.1149
  30   2.0000      -0.835442       -22.7335
  31   2.0000      -0.813108       -22.1258
  32   2.0000      -0.781508       -21.2659
  33   2.0000      -0.772632       -21.0244
  34   2.0000      -0.709947       -19.3186
  35   2.0000      -0.696713       -18.9585
  36   2.0000      -0.693361       -18.8673
  37   2.0000      -0.662957       -18.0400
  38   2.0000      -0.643507       -17.5107
  39   2.0000      -0.624248       -16.9866
  40   2.0000      -0.591846       -16.1049
  41   2.0000      -0.568588       -15.4721
  42   2.0000      -0.562157       -15.2971
  43   2.0000      -0.544045       -14.8042
  44   2.0000      -0.539842       -14.6898
  45   2.0000      -0.524961       -14.2849
  46   2.0000      -0.516244       -14.0477
  47   2.0000      -0.510630       -13.8949
  48   2.0000      -0.505579       -13.7575
  49   2.0000      -0.498639       -13.5687
  50   2.0000      -0.488915       -13.3041
  51   2.0000      -0.482508       -13.1297
  52   2.0000      -0.463834       -12.6216
  53   2.0000      -0.461328       -12.5534
  54   2.0000      -0.460095       -12.5198
  55   2.0000      -0.455583       -12.3970
  56   2.0000      -0.442000       -12.0274
  57   2.0000      -0.433450       -11.7948
  58   2.0000      -0.429639       -11.6911
  59   2.0000      -0.425887       -11.5890
  60   2.0000      -0.420877       -11.4526
  61   2.0000      -0.417058       -11.3487
  62   2.0000      -0.411537       -11.1985
  63   2.0000      -0.353969        -9.6320
  64   2.0000      -0.333492        -9.0748
  65   2.0000      -0.326193        -8.8762
  66   2.0000      -0.284893        -7.7523
  67   0.0000       0.016456         0.4478
  68   0.0000       0.072569         1.9747
  69   0.0000       0.090017         2.4495
  70   0.0000       0.121620         3.3095
  71   0.0000       0.122385         3.3303

MULLIKEN ATOMIC CHARGES
-----------------------
   0 S :    0.076500
   1 C :   -0.109256
   2 C :   -0.051305
   3 C :    0.025596
   4 C :   -0.130436
   5 H :   -0.007797
   6 C :    0.067634
   7 H :    0.047338
   8 H :    0.018894
   9 C :   -0.093412
  10 H :    0.035797
  11 H :    0.018452
  12 C :   -0.076130
  13 H :    0.028978
  14 H :    0.035926
  15 H :    0.056902
  16 S :    0.093661
  17 C :   -0.091358
  18 C :   -0.009643
  19 C :   -0.038418
  20 C :   -0.130111
  21 H :    0.004466
  22 C :    0.024321
  23 H :    0.040455
  24 H :    0.028647
  25 C :   -0.095645
  26 H :    0.057353
  27 H :    0.026801
  28 C :   -0.040534
  29 H :    0.031483
  30 H :    0.035675
  31 H :    0.031882
  32 H :    0.031285
  33 H :    0.056003
Sum of atomic charges:   -0.0000000

LOEWDIN ATOMIC CHARGES
----------------------
   0 S :    0.365398
   1 C :   -0.164665
   2 C :   -0.055014
   3 C :   -0.062494
   4 C :   -0.173137
   5 H :    0.012549
   6 C :   -0.029424
   7 H :    0.041353
   8 H :    0.025810
   9 C :   -0.041293
  10 H :    0.028866
  11 H :    0.013377
  12 C :   -0.074815
  13 H :    0.020918
  14 H :    0.030458
  15 H :    0.032718
  16 S :    0.372761
  17 C :   -0.160532
  18 C :   -0.060694
  19 C :   -0.050017
  20 C :   -0.191303
  21 H :    0.023835
  22 C :   -0.035063
  23 H :    0.037714
  24 H :    0.024927
  25 C :   -0.041134
  26 H :    0.033278
  27 H :    0.023023
  28 C :   -0.067497
  29 H :    0.025688
  30 H :    0.026348
  31 H :    0.026055
  32 H :    0.016244
  33 H :    0.025762

  Mayer bond orders larger than 0.100000
B(  0-S ,  1-C ) :   1.1075 B(  0-S ,  4-C ) :   1.1503 B(  1-C ,  2-C ) :   1.6022
B(  1-C ,  4-C ) :   0.1044 B(  1-C , 32-H ) :   0.9838 B(  2-C ,  3-C ) :   1.2245
B(  2-C ,  6-C ) :   1.0249 B(  3-C ,  4-C ) :   1.5469 B(  3-C ,  5-H ) :   0.9968
B(  4-C , 20-C ) :   1.0895 B(  6-C ,  7-H ) :   0.9402 B(  6-C ,  8-H ) :   0.9473
B(  6-C ,  9-C ) :   1.0635 B(  9-C , 10-H ) :   0.9565 B(  9-C , 11-H ) :   0.9604
B(  9-C , 12-C ) :   1.0663 B( 12-C , 13-H ) :   0.9769 B( 12-C , 14-H ) :   0.9752
B( 12-C , 15-H ) :   0.9779 B( 16-S , 17-C ) :   1.1426 B( 16-S , 20-C ) :   1.1062
B( 17-C , 18-C ) :   1.6368 B( 17-C , 33-H ) :   0.9679 B( 18-C , 19-C ) :   1.1996
B( 18-C , 21-H ) :   1.0014 B( 19-C , 20-C ) :   1.6391 B( 19-C , 22-C ) :   1.0252
B( 22-C , 23-H ) :   0.9414 B( 22-C , 24-H ) :   0.9396 B( 22-C , 25-C ) :   1.0482
B( 25-C , 26-H ) :   0.9628 B( 25-C , 27-H ) :   0.9559 B( 25-C , 28-C ) :   1.0765
B( 28-C , 29-H ) :   0.9736 B( 28-C , 30-H ) :   0.9762 B( 28-C , 31-H ) :   0.9757

Dispersion correction           -0.013967047
FINAL SINGLE POINT ENERGY     -1339.870278347295

DIPOLE MOMENT
-------------
                                X             Y             Z
Electronic contribution:     -8.52676      -1.21751     -31.37507
Nuclear contribution   :      8.43843       1.05470      32.14490
                        -----------------------------------------
Total Dipole Moment    :     -0.08832      -0.16282       0.76982
                        -----------------------------------------
Magnitude (a.u.)       :      0.79180
Magnitude (Debye)      :      2.01258

Rotational constants in cm-1:     0.015834     0.010206     0.006641
Rotational constants in MHz :   474.681509   305.960337   199.102827

                             ****ORCA TERMINATED NORMALLY****
TOTAL RUN TIME: 0 days 0 hours 0 minutes 30 seconds 673 msec
