                         Program Version 4.2.1 -  RELEASE  -
|  1> ! wB97X-D3 SP def2-SVP
|  2> %pal
|  3> nprocs 16
|  4> end
|  5>
|  6> * xyz 0 1
|  7> S 	 12.3711 	 -10.2443 	 90.5003
|  8> C 	 12.5632 	 -9.01893 	 91.7802
|  9> C 	 11.4549 	 -8.15256 	 91.8606
| 10> C 	 10.5003 	 -8.43447 	 90.8424
| 11> C 	 10.7644 	 -9.60777 	 90.1236
| 12> H 	 9.58278 	 -7.94348 	 90.6841
| 13> C 	 11.3638 	 -6.93193 	 92.7527
| 14> H 	 11.8937 	 -6.1229 	 92.3063
| 15> H 	 11.8358 	 -7.05775 	 93.7165
| 16> C 	 9.93532 	 -6.49134 	 93.0383
| 17> H 	 9.52306 	 -5.99012 	 92.1382
| 18> H 	 9.23015 	 -7.3857 	 93.1661
| 19> C 	 9.82933 	 -5.56521 	 94.2443
| 20> H 	 8.87496 	 -5.05268 	 94.131
| 21> H 	 9.91588 	 -6.16082 	 95.1421
| 22> H 	 10.4925 	 -4.69103 	 94.1734
| 23> S 	 11.0346 	 -10.2823 	 87.4821
| 24> C 	 9.67685 	 -10.0514 	 86.322
| 25> C 	 8.53615 	 -10.017 	 87.0925
| 26> C 	 8.74129 	 -9.94468 	 88.4948
| 27> C 	 10.0929 	 -9.97284 	 88.8697
| 28> H 	 7.66181 	 -10.0032 	 86.4537
| 29> C 	 7.60619 	 -9.77972 	 89.4828
| 30> H 	 6.80414 	 -9.39008 	 88.8954
| 31> H 	 7.82474 	 -8.99404 	 90.1938
| 32> C 	 7.10762 	 -11.0598 	 90.1481
| 33> H 	 7.98297 	 -11.4883 	 90.6545
| 34> H 	 6.73842 	 -11.7589 	 89.3933
| 35> C 	 6.09324 	 -10.7735 	 91.3063
| 36> H 	 5.31809 	 -10.0411 	 91.0957
| 37> H 	 6.6101 	 -10.4233 	 92.1793
| 38> H 	 5.62684 	 -11.6745 	 91.6162
| 39> H 	 13.4498 	 -9.01933 	 92.4131
| 40> H 	 9.71284 	 -10.094 	 85.2168
| 41> *
| 42>
| 43>                          ****END OF INPUT****

CARTESIAN COORDINATES (ANGSTROEM)
---------------------------------
  S     12.371100  -10.244300   90.500300
  C     12.563200   -9.018930   91.780200
  C     11.454900   -8.152560   91.860600
  C     10.500300   -8.434470   90.842400
  C     10.764400   -9.607770   90.123600
  H      9.582780   -7.943480   90.684100
  C     11.363800   -6.931930   92.752700
  H     11.893700   -6.122900   92.306300
  H     11.835800   -7.057750   93.716500
  C      9.935320   -6.491340   93.038300
  H      9.523060   -5.990120   92.138200
  H      9.230150   -7.385700   93.166100
  C      9.829330   -5.565210   94.244300
  H      8.874960   -5.052680   94.131000
  H      9.915880   -6.160820   95.142100
  H     10.492500   -4.691030   94.173400
  S     11.034600  -10.282300   87.482100
  C      9.676850  -10.051400   86.322000
  C      8.536150  -10.017000   87.092500
  C      8.741290   -9.944680   88.494800
  C     10.092900   -9.972840   88.869700
  H      7.661810  -10.003200   86.453700
  C      7.606190   -9.779720   89.482800
  H      6.804140   -9.390080   88.895400
  H      7.824740   -8.994040   90.193800
  C      7.107620  -11.059800   90.148100
  H      7.982970  -11.488300   90.654500
  H      6.738420  -11.758900   89.393300
  C      6.093240  -10.773500   91.306300
  H      5.318090  -10.041100   91.095700
  H      6.610100  -10.423300   92.179300
  H      5.626840  -11.674500   91.616200
  H     13.449800   -9.019330   92.413100
  H      9.712840  -10.094000   85.216800

 Total Charge           Charge          ....    0
 Multiplicity           Mult            ....    1
 Number of Electrons    NEL             ....  134
 Basis Dimension        Dim             ....  322

ORBITAL ENERGIES
----------------

  NO   OCC          E(Eh)            E(eV)
   0   2.0000     -88.970068     -2420.9986
   1   2.0000     -88.960341     -2420.7340
   2   2.0000     -10.335467      -281.2424
   3   2.0000     -10.326572      -281.0003
   4   2.0000     -10.320983      -280.8482
   5   2.0000     -10.320354      -280.8311
   6   2.0000     -10.307746      -280.4880
   7   2.0000     -10.301312      -280.3130
   8   2.0000     -10.295689      -280.1599
   9   2.0000     -10.293741      -280.1069
  10   2.0000     -10.292596      -280.0758
  11   2.0000     -10.289372      -279.9880
  12   2.0000     -10.284913      -279.8667
  13   2.0000     -10.282971      -279.8139
  14   2.0000     -10.281209      -279.7659
  15   2.0000     -10.271933      -279.5135
  16   2.0000      -8.083814      -219.9718
  17   2.0000      -8.075262      -219.7391
  18   2.0000      -6.042285      -164.4189
  19   2.0000      -6.038504      -164.3160
  20   2.0000      -6.034648      -164.2111
  21   2.0000      -6.033860      -164.1897
  22   2.0000      -6.029636      -164.0747
  23   2.0000      -6.025982      -163.9753
  24   2.0000      -1.005583       -27.3633
  25   2.0000      -0.980017       -26.6676
  26   2.0000      -0.916200       -24.9311
  27   2.0000      -0.904820       -24.6214
  28   2.0000      -0.870898       -23.6983
  29   2.0000      -0.850633       -23.1469
  30   2.0000      -0.842484       -22.9251
  31   2.0000      -0.817661       -22.2497
  32   2.0000      -0.782417       -21.2906
  33   2.0000      -0.770461       -20.9653
  34   2.0000      -0.711546       -19.3621
  35   2.0000      -0.696377       -18.9494
  36   2.0000      -0.688098       -18.7241
  37   2.0000      -0.659548       -17.9472
  38   2.0000      -0.642250       -17.4765
  39   2.0000      -0.625493       -17.0205
  40   2.0000      -0.590320       -16.0634
  41   2.0000      -0.577304       -15.7092
  42   2.0000      -0.568923       -15.4812
  43   2.0000      -0.560977       -15.2650
  44   2.0000      -0.524597       -14.2750
  45   2.0000      -0.521515       -14.1911
  46   2.0000      -0.517557       -14.0834
  47   2.0000      -0.513431       -13.9712
  48   2.0000      -0.506417       -13.7803
  49   2.0000      -0.502051       -13.6615
  50   2.0000      -0.492592       -13.4041
  51   2.0000      -0.482156       -13.1201
  52   2.0000      -0.476266       -12.9599
  53   2.0000      -0.466633       -12.6977
  54   2.0000      -0.459569       -12.5055
  55   2.0000      -0.447563       -12.1788
  56   2.0000      -0.438468       -11.9313
  57   2.0000      -0.436774       -11.8852
  58   2.0000      -0.430818       -11.7232
  59   2.0000      -0.424478       -11.5506
  60   2.0000      -0.421845       -11.4790
  61   2.0000      -0.416751       -11.3404
  62   2.0000      -0.405426       -11.0322
  63   2.0000      -0.353469        -9.6184
  64   2.0000      -0.336100        -9.1458
  65   2.0000      -0.322802        -8.7839
  66   2.0000      -0.284294        -7.7360
  67   0.0000       0.020815         0.5664
  68   0.0000       0.070692         1.9236
  69   0.0000       0.099689         2.7127
  70   0.0000       0.120321         3.2741
  71   0.0000       0.131673         3.5830

MULLIKEN ATOMIC CHARGES
-----------------------
   0 S :    0.097876
   1 C :   -0.137394
   2 C :   -0.066764
   3 C :    0.015475
   4 C :   -0.116974
   5 H :    0.008276
   6 C :    0.113278
   7 H :    0.038187
   8 H :    0.015801
   9 C :   -0.180767
  10 H :    0.034793
  11 H :    0.044367
  12 C :   -0.012061
  13 H :    0.026042
  14 H :    0.049440
  15 H :    0.028604
  16 S :    0.083838
  17 C :   -0.131137
  18 C :   -0.031022
  19 C :   -0.065708
  20 C :   -0.113291
  21 H :    0.019385
  22 C :    0.095819
  23 H :    0.001291
  24 H :    0.004784
  25 C :   -0.069061
  26 H :    0.034991
  27 H :    0.033435
  28 C :   -0.024235
  29 H :    0.025904
  30 H :    0.024185
  31 H :    0.024005
  32 H :    0.056367
  33 H :    0.072273
Sum of atomic charges:   -0.0000000

LOEWDIN ATOMIC CHARGES
----------------------
   0 S :    0.389722
   1 C :   -0.186126
   2 C :   -0.056374
   3 C :   -0.050947
   4 C :   -0.182872
   5 H :    0.022210
   6 C :   -0.031875
   7 H :    0.034159
   8 H :    0.028854
   9 C :   -0.053244
  10 H :    0.021639
  11 H :    0.030243
  12 C :   -0.065185
  13 H :    0.030427
  14 H :    0.028087
  15 H :    0.027850
  16 S :    0.400111
  17 C :   -0.182184
  18 C :   -0.073965
  19 C :   -0.068009
  20 C :   -0.206238
  21 H :    0.034499
  22 C :   -0.033116
  23 H :    0.023996
  24 H :    0.024387
  25 C :   -0.033487
  26 H :    0.028677
  27 H :    0.024728
  28 C :   -0.062656
  29 H :    0.021754
  30 H :    0.024319
  31 H :    0.022342
  32 H :    0.028114
  33 H :    0.040162

  Mayer bond orders larger than 0.100000
B(  0-S ,  1-C ) :   1.1428 B(  0-S ,  4-C ) :   1.1496 B(  1-C ,  2-C ) :   1.5874
B(  1-C ,  4-C ) :   0.1017 B(  1-C , 32-H ) :   0.9711 B(  2-C ,  3-C ) :   1.2610
B(  2-C ,  6-C ) :   1.0237 B(  3-C ,  4-C ) :   1.5535 B(  3-C ,  5-H ) :   0.9845
B(  4-C , 20-C ) :   1.0414 B(  6-C ,  7-H ) :   0.9254 B(  6-C ,  8-H ) :   0.9446
B(  6-C ,  9-C ) :   1.0614 B(  9-C , 10-H ) :   0.9455 B(  9-C , 11-H ) :   0.9620
B(  9-C , 12-C ) :   1.0893 B( 12-C , 13-H ) :   0.9695 B( 12-C , 14-H ) :   0.9745
B( 12-C , 15-H ) :   0.9694 B( 16-S , 17-C ) :   1.1445 B( 16-S , 20-C ) :   1.1541
B( 17-C , 18-C ) :   1.6018 B( 17-C , 20-C ) :   0.1003 B( 17-C , 33-H ) :   0.9657
B( 18-C , 19-C ) :   1.2543 B( 18-C , 21-H ) :   0.9941 B( 19-C , 20-C ) :   1.5540
B( 19-C , 22-C ) :   1.0450 B( 22-C , 23-H ) :   0.9205 B( 22-C , 24-H ) :   0.9337
B( 22-C , 25-C ) :   1.0682 B( 25-C , 26-H ) :   0.9593 B( 25-C , 27-H ) :   0.9570
B( 25-C , 28-C ) :   1.0749 B( 28-C , 29-H ) :   0.9774 B( 28-C , 30-H ) :   0.9743
B( 28-C , 31-H ) :   0.9742

Dispersion correction           -0.013791214
FINAL SINGLE POINT ENERGY     -1339.871926192207

DIPOLE MOMENT
-------------
                                X             Y             Z
Electronic contribution:     20.57414     -12.40023     -19.52048
Nuclear contribution   :    -21.01830      12.93681      19.78880
                        -----------------------------------------
Total Dipole Moment    :     -0.44416       0.53658       0.26831
                        -----------------------------------------
Magnitude (a.u.)       :      0.74645
Magnitude (Debye)      :      1.89732

Rotational constants in cm-1:     0.016340     0.009180     0.006892
Rotational constants in MHz :   489.865828   275.195390   206.621640

                             ****ORCA TERMINATED NORMALLY****
TOTAL RUN TIME: 0 days 0 hours 0 minutes 31 seconds 819 msec
