                         Program Version 4.2.1 -  RELEASE  -
|  1> ! wB97X-D3 SP def2-SVP
|  2> %pal
|  3> nprocs 16
|  4> end
|  5>
|  6> * xyz 0 1
|  7> S 	 -63.892 	 42.4734 	 130.929
|  8> C 	 -64.8593 	 42.1002 	 132.316
|  9> C 	 -64.2448 	 41.0353 	 132.954
| 10> C 	 -63.082 	 40.5322 	 132.325
| 11> C 	 -62.7298 	 41.2259 	 131.193
| 12> H 	 -62.4139 	 39.7432 	 132.759
| 13> C 	 -64.6657 	 40.4933 	 134.325
| 14> H 	 -64.2911 	 41.3256 	 135.002
| 15> H 	 -64.1075 	 39.6643 	 134.673
| 16> C 	 -66.1091 	 40.2188 	 134.569
| 17> H 	 -66.7477 	 41.1584 	 134.484
| 18> H 	 -66.4843 	 39.5242 	 133.743
| 19> C 	 -66.3503 	 39.5525 	 135.965
| 20> H 	 -65.8384 	 39.907 	 136.846
| 21> H 	 -67.4539 	 39.6387 	 136.081
| 22> H 	 -66.174 	 38.4746 	 135.858
| 23> S 	 -62.2338 	 40.7412 	 128.54
| 24> C 	 -60.5679 	 40.3508 	 128.041
| 25> C 	 -59.7179 	 40.414 	 129.145
| 26> C 	 -60.3767 	 40.7341 	 130.389
| 27> C 	 -61.7268 	 40.9209 	 130.23
| 28> H 	 -58.5861 	 40.3127 	 128.942
| 29> C 	 -59.4378 	 40.8038 	 131.621
| 30> H 	 -58.5777 	 40.0886 	 131.412
| 31> H 	 -60.1133 	 40.4411 	 132.354
| 32> C 	 -58.8303 	 42.2291 	 132.035
| 33> H 	 -58.4043 	 42.5754 	 131.104
| 34> H 	 -58.044 	 42.2566 	 132.8
| 35> C 	 -59.959 	 43.1685 	 132.609
| 36> H 	 -59.6357 	 44.1049 	 133.142
| 37> H 	 -60.5772 	 42.5958 	 133.36
| 38> H 	 -60.6841 	 43.5075 	 131.895
| 39> H 	 -65.6583 	 42.6634 	 132.642
| 40> H 	 -60.1958 	 40.1998 	 127.003
| 41> *
| 42>
| 43>                          ****END OF INPUT****

CARTESIAN COORDINATES (ANGSTROEM)
---------------------------------
  S    -63.892000   42.473400  130.929000
  C    -64.859300   42.100200  132.316000
  C    -64.244800   41.035300  132.954000
  C    -63.082000   40.532200  132.325000
  C    -62.729800   41.225900  131.193000
  H    -62.413900   39.743200  132.759000
  C    -64.665700   40.493300  134.325000
  H    -64.291100   41.325600  135.002000
  H    -64.107500   39.664300  134.673000
  C    -66.109100   40.218800  134.569000
  H    -66.747700   41.158400  134.484000
  H    -66.484300   39.524200  133.743000
  C    -66.350300   39.552500  135.965000
  H    -65.838400   39.907000  136.846000
  H    -67.453900   39.638700  136.081000
  H    -66.174000   38.474600  135.858000
  S    -62.233800   40.741200  128.540000
  C    -60.567900   40.350800  128.041000
  C    -59.717900   40.414000  129.145000
  C    -60.376700   40.734100  130.389000
  C    -61.726800   40.920900  130.230000
  H    -58.586100   40.312700  128.942000
  C    -59.437800   40.803800  131.621000
  H    -58.577700   40.088600  131.412000
  H    -60.113300   40.441100  132.354000
  C    -58.830300   42.229100  132.035000
  H    -58.404300   42.575400  131.104000
  H    -58.044000   42.256600  132.800000
  C    -59.959000   43.168500  132.609000
  H    -59.635700   44.104900  133.142000
  H    -60.577200   42.595800  133.360000
  H    -60.684100   43.507500  131.895000
  H    -65.658300   42.663400  132.642000
  H    -60.195800   40.199800  127.003000

 Total Charge           Charge          ....    0
 Multiplicity           Mult            ....    1
 Number of Electrons    NEL             ....  134
 Basis Dimension        Dim             ....  322

ORBITAL ENERGIES
----------------

  NO   OCC          E(Eh)            E(eV)
   0   2.0000     -88.967676     -2420.9335
   1   2.0000     -88.964945     -2420.8592
   2   2.0000     -10.328940      -281.0647
   3   2.0000     -10.326151      -280.9888
   4   2.0000     -10.324036      -280.9313
   5   2.0000     -10.309663      -280.5402
   6   2.0000     -10.307316      -280.4763
   7   2.0000     -10.302127      -280.3351
   8   2.0000     -10.301823      -280.3269
   9   2.0000     -10.301653      -280.3222
  10   2.0000     -10.297049      -280.1970
  11   2.0000     -10.296129      -280.1719
  12   2.0000     -10.295141      -280.1450
  13   2.0000     -10.288881      -279.9747
  14   2.0000     -10.283504      -279.8284
  15   2.0000     -10.279039      -279.7069
  16   2.0000      -8.081468      -219.9079
  17   2.0000      -8.080332      -219.8770
  18   2.0000      -6.040186      -164.3618
  19   2.0000      -6.038728      -164.3222
  20   2.0000      -6.036134      -164.2516
  21   2.0000      -6.034524      -164.2077
  22   2.0000      -6.032004      -164.1392
  23   2.0000      -6.031365      -164.1218
  24   2.0000      -1.012593       -27.5540
  25   2.0000      -0.983165       -26.7533
  26   2.0000      -0.912447       -24.8289
  27   2.0000      -0.895153       -24.3583
  28   2.0000      -0.872797       -23.7500
  29   2.0000      -0.849152       -23.1066
  30   2.0000      -0.839880       -22.8543
  31   2.0000      -0.813078       -22.1250
  32   2.0000      -0.779186       -21.2027
  33   2.0000      -0.770138       -20.9565
  34   2.0000      -0.711005       -19.3474
  35   2.0000      -0.701314       -19.0837
  36   2.0000      -0.692538       -18.8449
  37   2.0000      -0.660299       -17.9677
  38   2.0000      -0.646121       -17.5818
  39   2.0000      -0.613713       -16.7000
  40   2.0000      -0.584745       -15.9117
  41   2.0000      -0.571649       -15.5554
  42   2.0000      -0.556817       -15.1518
  43   2.0000      -0.544156       -14.8072
  44   2.0000      -0.539773       -14.6880
  45   2.0000      -0.526662       -14.3312
  46   2.0000      -0.521906       -14.2018
  47   2.0000      -0.508475       -13.8363
  48   2.0000      -0.507188       -13.8013
  49   2.0000      -0.500712       -13.6251
  50   2.0000      -0.493443       -13.4273
  51   2.0000      -0.476943       -12.9783
  52   2.0000      -0.469739       -12.7823
  53   2.0000      -0.463523       -12.6131
  54   2.0000      -0.451209       -12.2780
  55   2.0000      -0.443860       -12.0780
  56   2.0000      -0.440083       -11.9753
  57   2.0000      -0.437080       -11.8935
  58   2.0000      -0.430718       -11.7204
  59   2.0000      -0.424967       -11.5639
  60   2.0000      -0.415066       -11.2945
  61   2.0000      -0.412729       -11.2309
  62   2.0000      -0.407196       -11.0804
  63   2.0000      -0.350251        -9.5308
  64   2.0000      -0.331392        -9.0176
  65   2.0000      -0.328467        -8.9380
  66   2.0000      -0.293881        -7.9969
  67   0.0000       0.028179         0.7668
  68   0.0000       0.067386         1.8337
  69   0.0000       0.111764         3.0413
  70   0.0000       0.116462         3.1691
  71   0.0000       0.130814         3.5596

MULLIKEN ATOMIC CHARGES
-----------------------
   0 S :    0.108036
   1 C :   -0.097674
   2 C :   -0.080342
   3 C :    0.019927
   4 C :   -0.176293
   5 H :    0.037223
   6 C :    0.069016
   7 H :    0.043545
   8 H :    0.003541
   9 C :   -0.128648
  10 H :    0.037023
  11 H :    0.046755
  12 C :   -0.056425
  13 H :    0.041918
  14 H :    0.036957
  15 H :    0.036645
  16 S :    0.110857
  17 C :   -0.113861
  18 C :   -0.070663
  19 C :   -0.046053
  20 C :   -0.145536
  21 H :    0.053081
  22 C :    0.070320
  23 H :    0.045286
  24 H :    0.005528
  25 C :   -0.029493
  26 H :    0.027022
  27 H :    0.041850
  28 C :   -0.094295
  29 H :    0.040177
  30 H :    0.031294
  31 H :    0.036009
  32 H :    0.024425
  33 H :    0.072847
Sum of atomic charges:    0.0000000

LOEWDIN ATOMIC CHARGES
----------------------
   0 S :    0.429681
   1 C :   -0.195387
   2 C :   -0.060657
   3 C :   -0.072568
   4 C :   -0.202720
   5 H :    0.040042
   6 C :   -0.042620
   7 H :    0.042441
   8 H :    0.020793
   9 C :   -0.049800
  10 H :    0.024036
  11 H :    0.034852
  12 C :   -0.070123
  13 H :    0.023897
  14 H :    0.033239
  15 H :    0.027788
  16 S :    0.387386
  17 C :   -0.187452
  18 C :   -0.082559
  19 C :   -0.058273
  20 C :   -0.193464
  21 H :    0.045865
  22 C :   -0.025100
  23 H :    0.040491
  24 H :    0.018917
  25 C :   -0.033175
  26 H :    0.021402
  27 H :    0.028166
  28 C :   -0.078315
  29 H :    0.029420
  30 H :    0.028673
  31 H :    0.019881
  32 H :    0.014968
  33 H :    0.040273

  Mayer bond orders larger than 0.100000
B(  0-S ,  1-C ) :   1.1418 B(  0-S ,  4-C ) :   1.1729 B(  1-C ,  2-C ) :   1.5607
B(  1-C ,  4-C ) :   0.1040 B(  1-C , 32-H ) :   0.9919 B(  2-C ,  3-C ) :   1.2856
B(  2-C ,  6-C ) :   1.0097 B(  3-C ,  4-C ) :   1.5389 B(  3-C ,  5-H ) :   0.9838
B(  4-C , 20-C ) :   1.0498 B(  6-C ,  7-H ) :   0.9303 B(  6-C ,  8-H ) :   0.9480
B(  6-C ,  9-C ) :   1.0671 B(  9-C , 10-H ) :   0.9548 B(  9-C , 11-H ) :   0.9566
B(  9-C , 12-C ) :   1.0713 B( 12-C , 13-H ) :   0.9782 B( 12-C , 14-H ) :   0.9761
B( 12-C , 15-H ) :   0.9749 B( 16-S , 17-C ) :   1.1342 B( 16-S , 20-C ) :   1.1267
B( 17-C , 18-C ) :   1.6439 B( 17-C , 33-H ) :   0.9611 B( 18-C , 19-C ) :   1.2231
B( 18-C , 21-H ) :   0.9705 B( 19-C , 20-C ) :   1.6234 B( 19-C , 22-C ) :   1.0118
B( 22-C , 23-H ) :   0.9417 B( 22-C , 24-H ) :   0.9350 B( 22-C , 25-C ) :   1.0550
B( 25-C , 26-H ) :   0.9582 B( 25-C , 27-H ) :   0.9630 B( 25-C , 28-C ) :   1.0572
B( 28-C , 29-H ) :   0.9775 B( 28-C , 30-H ) :   0.9767 B( 28-C , 31-H ) :   0.9768

Dispersion correction           -0.014767484
FINAL SINGLE POINT ENERGY     -1339.866433909531

DIPOLE MOMENT
-------------
                                X             Y             Z
Electronic contribution:     -1.17933       2.18836     -25.35406
Nuclear contribution   :      1.44877      -2.31581      25.87688
                        -----------------------------------------
Total Dipole Moment    :      0.26945      -0.12744       0.52282
                        -----------------------------------------
Magnitude (a.u.)       :      0.60182
Magnitude (Debye)      :      1.52970

Rotational constants in cm-1:     0.021695     0.007667     0.006700
Rotational constants in MHz :   650.405931   229.844458   200.851491

                             ****ORCA TERMINATED NORMALLY****
TOTAL RUN TIME: 0 days 0 hours 0 minutes 34 seconds 746 msec
