                         Program Version 4.2.1 -  RELEASE  -
|  1> ! wB97X-D3 SP def2-SVP
|  2> %pal
|  3> nprocs 16
|  4> end
|  5>
|  6> * xyz 0 1
|  7> S 	 -1.96304 	 -4.70127 	 75.0605
|  8> C 	 -2.25688 	 -5.83299 	 76.3523
|  9> C 	 -1.32467 	 -5.8826 	 77.3349
| 10> C 	 -0.280907 	 -4.99264 	 77.0258
| 11> C 	 -0.464249 	 -4.34741 	 75.8188
| 12> H 	 0.654991 	 -4.68071 	 77.5409
| 13> C 	 -1.43063 	 -6.73033 	 78.4993
| 14> H 	 -1.78076 	 -7.6549 	 78.1858
| 15> H 	 -2.20596 	 -6.29936 	 79.149
| 16> C 	 -0.177161 	 -7.06029 	 79.3435
| 17> H 	 -0.148277 	 -8.05566 	 79.7274
| 18> H 	 0.579888 	 -7.04691 	 78.6108
| 19> C 	 0.233532 	 -5.95469 	 80.3185
| 20> H 	 0.396492 	 -4.99888 	 79.7812
| 21> H 	 -0.513613 	 -5.79384 	 81.0433
| 22> H 	 1.21991 	 -6.13031 	 80.9372
| 23> S 	 1.71818 	 -3.73189 	 74.2209
| 24> C 	 2.20981 	 -2.11346 	 73.9347
| 25> C 	 1.32068 	 -1.19784 	 74.5402
| 26> C 	 0.26445 	 -1.85049 	 75.2937
| 27> C 	 0.3534 	 -3.28808 	 75.2446
| 28> H 	 1.43703 	 -0.159369 	 74.3674
| 29> C 	 -0.815887 	 -1.06455 	 76.0039
| 30> H 	 -0.220476 	 -0.2969 	 76.6141
| 31> H 	 -1.38137 	 -1.75252 	 76.6408
| 32> C 	 -1.72544 	 -0.226613 	 75.0981
| 33> H 	 -1.88303 	 -0.933313 	 74.2045
| 34> H 	 -1.31663 	 0.672681 	 74.7364
| 35> C 	 -2.95248 	 0.143021 	 75.9455
| 36> H 	 -3.74964 	 0.576828 	 75.3403
| 37> H 	 -2.66722 	 0.927123 	 76.6716
| 38> H 	 -3.37565 	 -0.748829 	 76.5699
| 39> H 	 -3.14239 	 -6.44301 	 76.3187
| 40> H 	 2.81888 	 -1.76638 	 73.1208
| 41> *
| 42>
| 43>                          ****END OF INPUT****

CARTESIAN COORDINATES (ANGSTROEM)
---------------------------------
  S     -1.963040   -4.701270   75.060500
  C     -2.256880   -5.832990   76.352300
  C     -1.324670   -5.882600   77.334900
  C     -0.280907   -4.992640   77.025800
  C     -0.464249   -4.347410   75.818800
  H      0.654991   -4.680710   77.540900
  C     -1.430630   -6.730330   78.499300
  H     -1.780760   -7.654900   78.185800
  H     -2.205960   -6.299360   79.149000
  C     -0.177161   -7.060290   79.343500
  H     -0.148277   -8.055660   79.727400
  H      0.579888   -7.046910   78.610800
  C      0.233532   -5.954690   80.318500
  H      0.396492   -4.998880   79.781200
  H     -0.513613   -5.793840   81.043300
  H      1.219910   -6.130310   80.937200
  S      1.718180   -3.731890   74.220900
  C      2.209810   -2.113460   73.934700
  C      1.320680   -1.197840   74.540200
  C      0.264450   -1.850490   75.293700
  C      0.353400   -3.288080   75.244600
  H      1.437030   -0.159369   74.367400
  C     -0.815887   -1.064550   76.003900
  H     -0.220476   -0.296900   76.614100
  H     -1.381370   -1.752520   76.640800
  C     -1.725440   -0.226613   75.098100
  H     -1.883030   -0.933313   74.204500
  H     -1.316630    0.672681   74.736400
  C     -2.952480    0.143021   75.945500
  H     -3.749640    0.576828   75.340300
  H     -2.667220    0.927123   76.671600
  H     -3.375650   -0.748829   76.569900
  H     -3.142390   -6.443010   76.318700
  H      2.818880   -1.766380   73.120800

 Total Charge           Charge          ....    0
 Multiplicity           Mult            ....    1
 Number of Electrons    NEL             ....  134
 Basis Dimension        Dim             ....  322

ORBITAL ENERGIES
----------------

  NO   OCC          E(Eh)            E(eV)
   0   2.0000     -88.967919     -2420.9402
   1   2.0000     -88.963656     -2420.8241
   2   2.0000     -10.326799      -281.0065
   3   2.0000     -10.322462      -280.8885
   4   2.0000     -10.314152      -280.6624
   5   2.0000     -10.308149      -280.4990
   6   2.0000     -10.307564      -280.4831
   7   2.0000     -10.296910      -280.1932
   8   2.0000     -10.295669      -280.1594
   9   2.0000     -10.293683      -280.1053
  10   2.0000     -10.293033      -280.0877
  11   2.0000     -10.287639      -279.9409
  12   2.0000     -10.285755      -279.8896
  13   2.0000     -10.284953      -279.8678
  14   2.0000     -10.283645      -279.8322
  15   2.0000     -10.282213      -279.7932
  16   2.0000      -8.083463      -219.9622
  17   2.0000      -8.078440      -219.8255
  18   2.0000      -6.041570      -164.3995
  19   2.0000      -6.038035      -164.3033
  20   2.0000      -6.036815      -164.2701
  21   2.0000      -6.034422      -164.2050
  22   2.0000      -6.032707      -164.1583
  23   2.0000      -6.029578      -164.0732
  24   2.0000      -1.011551       -27.5257
  25   2.0000      -0.982060       -26.7232
  26   2.0000      -0.922501       -25.1025
  27   2.0000      -0.908584       -24.7238
  28   2.0000      -0.869919       -23.6717
  29   2.0000      -0.850429       -23.1414
  30   2.0000      -0.844176       -22.9712
  31   2.0000      -0.816923       -22.2296
  32   2.0000      -0.784187       -21.3388
  33   2.0000      -0.762941       -20.7607
  34   2.0000      -0.713258       -19.4087
  35   2.0000      -0.697065       -18.9681
  36   2.0000      -0.689814       -18.7708
  37   2.0000      -0.656140       -17.8545
  38   2.0000      -0.646063       -17.5803
  39   2.0000      -0.624784       -17.0012
  40   2.0000      -0.592052       -16.1105
  41   2.0000      -0.570712       -15.5299
  42   2.0000      -0.565140       -15.3782
  43   2.0000      -0.555058       -15.1039
  44   2.0000      -0.539723       -14.6866
  45   2.0000      -0.526090       -14.3156
  46   2.0000      -0.516159       -14.0454
  47   2.0000      -0.512914       -13.9571
  48   2.0000      -0.497309       -13.5325
  49   2.0000      -0.495142       -13.4735
  50   2.0000      -0.490392       -13.3442
  51   2.0000      -0.482230       -13.1221
  52   2.0000      -0.468664       -12.7530
  53   2.0000      -0.463786       -12.6202
  54   2.0000      -0.458091       -12.4653
  55   2.0000      -0.448210       -12.1964
  56   2.0000      -0.444310       -12.0903
  57   2.0000      -0.442235       -12.0338
  58   2.0000      -0.434662       -11.8278
  59   2.0000      -0.430772       -11.7219
  60   2.0000      -0.416718       -11.3395
  61   2.0000      -0.413070       -11.2402
  62   2.0000      -0.408825       -11.1247
  63   2.0000      -0.338583        -9.2133
  64   2.0000      -0.325755        -8.8642
  65   2.0000      -0.318732        -8.6731
  66   2.0000      -0.304934        -8.2977
  67   0.0000       0.046444         1.2638
  68   0.0000       0.050045         1.3618
  69   0.0000       0.108461         2.9514
  70   0.0000       0.123812         3.3691
  71   0.0000       0.130998         3.5646

MULLIKEN ATOMIC CHARGES
-----------------------
   0 S :    0.135420
   1 C :   -0.137519
   2 C :   -0.035429
   3 C :    0.017391
   4 C :   -0.200872
   5 H :    0.031606
   6 C :    0.084467
   7 H :    0.011603
   8 H :    0.040425
   9 C :   -0.028875
  10 H :    0.028100
  11 H :    0.011447
  12 C :   -0.082809
  13 H :    0.034773
  14 H :    0.021291
  15 H :    0.047688
  16 S :    0.116332
  17 C :   -0.085242
  18 C :   -0.046446
  19 C :   -0.020630
  20 C :   -0.201285
  21 H :    0.009152
  22 C :    0.041984
  23 H :    0.037743
  24 H :    0.032189
  25 C :   -0.068972
  26 H :    0.044977
  27 H :    0.023326
  28 C :   -0.076505
  29 H :    0.038189
  30 H :    0.032843
  31 H :    0.047761
  32 H :    0.033086
  33 H :    0.062792
Sum of atomic charges:    0.0000000

LOEWDIN ATOMIC CHARGES
----------------------
   0 S :    0.430718
   1 C :   -0.189751
   2 C :   -0.064862
   3 C :   -0.062955
   4 C :   -0.215127
   5 H :    0.043186
   6 C :   -0.028033
   7 H :    0.028898
   8 H :    0.038987
   9 C :   -0.036201
  10 H :    0.024723
  11 H :    0.020487
  12 C :   -0.071268
  13 H :    0.026555
  14 H :    0.013025
  15 H :    0.038483
  16 S :    0.423710
  17 C :   -0.204812
  18 C :   -0.070098
  19 C :   -0.052465
  20 C :   -0.219449
  21 H :    0.023548
  22 C :   -0.038121
  23 H :    0.040323
  24 H :    0.029013
  25 C :   -0.043077
  26 H :    0.031688
  27 H :    0.016898
  28 C :   -0.071726
  29 H :    0.023589
  30 H :    0.027873
  31 H :    0.035532
  32 H :    0.019780
  33 H :    0.030928

  Mayer bond orders larger than 0.100000
B(  0-S ,  1-C ) :   1.1488 B(  0-S ,  4-C ) :   1.1712 B(  1-C ,  2-C ) :   1.6181
B(  1-C , 32-H ) :   0.9716 B(  2-C ,  3-C ) :   1.2144 B(  2-C ,  6-C ) :   1.0212
B(  3-C ,  4-C ) :   1.6034 B(  3-C ,  5-H ) :   0.9826 B(  4-C , 20-C ) :   1.0008
B(  6-C ,  7-H ) :   0.9255 B(  6-C ,  8-H ) :   0.9263 B(  6-C ,  9-C ) :   1.0757
B(  9-C , 10-H ) :   0.9594 B(  9-C , 11-H ) :   0.9524 B(  9-C , 12-C ) :   1.0662
B( 12-C , 13-H ) :   0.9748 B( 12-C , 14-H ) :   0.9768 B( 12-C , 15-H ) :   0.9729
B( 16-S , 17-C ) :   1.1825 B( 16-S , 20-C ) :   1.1588 B( 17-C , 18-C ) :   1.5769
B( 17-C , 20-C ) :   0.1069 B( 17-C , 33-H ) :   0.9632 B( 18-C , 19-C ) :   1.2634
B( 18-C , 21-H ) :   0.9935 B( 19-C , 20-C ) :   1.5456 B( 19-C , 22-C ) :   1.0568
B( 22-C , 23-H ) :   0.9264 B( 22-C , 24-H ) :   0.9432 B( 22-C , 25-C ) :   1.0516
B( 25-C , 26-H ) :   0.9603 B( 25-C , 27-H ) :   0.9490 B( 25-C , 28-C ) :   1.0782
B( 28-C , 29-H ) :   0.9746 B( 28-C , 30-H ) :   0.9706 B( 28-C , 31-H ) :   0.9766

Dispersion correction           -0.014383385
FINAL SINGLE POINT ENERGY     -1339.861433000147

DIPOLE MOMENT
-------------
                                X             Y             Z
Electronic contribution:      6.82537      -6.20178     -18.93932
Nuclear contribution   :     -7.07583       6.36133      19.25116
                        -----------------------------------------
Total Dipole Moment    :     -0.25045       0.15955       0.31184
                        -----------------------------------------
Magnitude (a.u.)       :      0.43061
Magnitude (Debye)      :      1.09453

Rotational constants in cm-1:     0.017748     0.008481     0.007360
Rotational constants in MHz :   532.072152   254.257448   220.641909

                             ****ORCA TERMINATED NORMALLY****
TOTAL RUN TIME: 0 days 0 hours 0 minutes 34 seconds 483 msec
