                         Program Version 4.2.1 -  RELEASE  -
|  1> ! wB97X-D3 SP def2-SVP
|  2> %pal
|  3> nprocs 16
|  4> end
|  5>
|  6> * xyz 0 1
|  7> S 	 -91.9842 	 39.9415 	 115.518
|  8> C 	 -90.556 	 38.8981 	 115.563
|  9> C 	 -89.4458 	 39.4769 	 115.031
| 10> C 	 -89.7664 	 40.7523 	 114.402
| 11> C 	 -91.0804 	 41.1347 	 114.595
| 12> H 	 -89.1514 	 41.4465 	 113.934
| 13> C 	 -88.122 	 38.8497 	 115.142
| 14> H 	 -88.0419 	 38.1275 	 115.927
| 15> H 	 -87.4695 	 39.719 	 115.496
| 16> C 	 -87.5048 	 38.2147 	 113.92
| 17> H 	 -87.2119 	 38.9917 	 113.222
| 18> H 	 -86.5854 	 37.6416 	 114.115
| 19> C 	 -88.4554 	 37.2957 	 113.125
| 20> H 	 -87.8795 	 36.7466 	 112.473
| 21> H 	 -89.0477 	 36.5642 	 113.793
| 22> H 	 -89.0392 	 38.0705 	 112.573
| 23> S 	 -91.6476 	 42.7516 	 112.456
| 24> C 	 -92.5542 	 44.2286 	 112.654
| 25> C 	 -92.6429 	 44.4823 	 114.015
| 26> C 	 -92.1881 	 43.4743 	 114.943
| 27> C 	 -91.638 	 42.4254 	 114.216
| 28> H 	 -93.1538 	 45.3982 	 114.229
| 29> C 	 -92.3615 	 43.5192 	 116.424
| 30> H 	 -93.2449 	 43.0767 	 116.798
| 31> H 	 -92.5081 	 44.592 	 116.608
| 32> C 	 -91.0956 	 43.1813 	 117.309
| 33> H 	 -90.2701 	 43.8276 	 117.021
| 34> H 	 -90.8241 	 42.1464 	 117.076
| 35> C 	 -91.2938 	 43.366 	 118.907
| 36> H 	 -91.2972 	 44.4482 	 119.069
| 37> H 	 -90.36 	 42.9027 	 119.339
| 38> H 	 -92.2384 	 42.986 	 119.233
| 39> H 	 -90.5938 	 37.973 	 116.235
| 40> H 	 -92.9809 	 44.9633 	 112.021
| 41> *
| 42>
| 43>                          ****END OF INPUT****

CARTESIAN COORDINATES (ANGSTROEM)
---------------------------------
  S    -91.984200   39.941500  115.518000
  C    -90.556000   38.898100  115.563000
  C    -89.445800   39.476900  115.031000
  C    -89.766400   40.752300  114.402000
  C    -91.080400   41.134700  114.595000
  H    -89.151400   41.446500  113.934000
  C    -88.122000   38.849700  115.142000
  H    -88.041900   38.127500  115.927000
  H    -87.469500   39.719000  115.496000
  C    -87.504800   38.214700  113.920000
  H    -87.211900   38.991700  113.222000
  H    -86.585400   37.641600  114.115000
  C    -88.455400   37.295700  113.125000
  H    -87.879500   36.746600  112.473000
  H    -89.047700   36.564200  113.793000
  H    -89.039200   38.070500  112.573000
  S    -91.647600   42.751600  112.456000
  C    -92.554200   44.228600  112.654000
  C    -92.642900   44.482300  114.015000
  C    -92.188100   43.474300  114.943000
  C    -91.638000   42.425400  114.216000
  H    -93.153800   45.398200  114.229000
  C    -92.361500   43.519200  116.424000
  H    -93.244900   43.076700  116.798000
  H    -92.508100   44.592000  116.608000
  C    -91.095600   43.181300  117.309000
  H    -90.270100   43.827600  117.021000
  H    -90.824100   42.146400  117.076000
  C    -91.293800   43.366000  118.907000
  H    -91.297200   44.448200  119.069000
  H    -90.360000   42.902700  119.339000
  H    -92.238400   42.986000  119.233000
  H    -90.593800   37.973000  116.235000
  H    -92.980900   44.963300  112.021000

 Total Charge           Charge          ....    0
 Multiplicity           Mult            ....    1
 Number of Electrons    NEL             ....  134
 Basis Dimension        Dim             ....  322

ORBITAL ENERGIES
----------------

  NO   OCC          E(Eh)            E(eV)
   0   2.0000     -88.966554     -2420.9030
   1   2.0000     -88.965732     -2420.8806
   2   2.0000     -10.330860      -281.1170
   3   2.0000     -10.329065      -281.0681
   4   2.0000     -10.318370      -280.7771
   5   2.0000     -10.314461      -280.6708
   6   2.0000     -10.307758      -280.4884
   7   2.0000     -10.304034      -280.3870
   8   2.0000     -10.295203      -280.1467
   9   2.0000     -10.291829      -280.0549
  10   2.0000     -10.291304      -280.0406
  11   2.0000     -10.289969      -280.0043
  12   2.0000     -10.287798      -279.9452
  13   2.0000     -10.284561      -279.8571
  14   2.0000     -10.282549      -279.8024
  15   2.0000     -10.275626      -279.6140
  16   2.0000      -8.080370      -219.8780
  17   2.0000      -8.079932      -219.8661
  18   2.0000      -6.039033      -164.3305
  19   2.0000      -6.038493      -164.3158
  20   2.0000      -6.034926      -164.2187
  21   2.0000      -6.034551      -164.2085
  22   2.0000      -6.031075      -164.1139
  23   2.0000      -6.030632      -164.1018
  24   2.0000      -1.004338       -27.3294
  25   2.0000      -0.981842       -26.7173
  26   2.0000      -0.917133       -24.9565
  27   2.0000      -0.899674       -24.4814
  28   2.0000      -0.869566       -23.6621
  29   2.0000      -0.848061       -23.0769
  30   2.0000      -0.842033       -22.9129
  31   2.0000      -0.814970       -22.1765
  32   2.0000      -0.784437       -21.3456
  33   2.0000      -0.772529       -21.0216
  34   2.0000      -0.711718       -19.3668
  35   2.0000      -0.693211       -18.8632
  36   2.0000      -0.686214       -18.6728
  37   2.0000      -0.660269       -17.9668
  38   2.0000      -0.642520       -17.4839
  39   2.0000      -0.619127       -16.8473
  40   2.0000      -0.591558       -16.0971
  41   2.0000      -0.568136       -15.4598
  42   2.0000      -0.559416       -15.2225
  43   2.0000      -0.553747       -15.0682
  44   2.0000      -0.548704       -14.9310
  45   2.0000      -0.524332       -14.2678
  46   2.0000      -0.516027       -14.0418
  47   2.0000      -0.510819       -13.9001
  48   2.0000      -0.504297       -13.7226
  49   2.0000      -0.494888       -13.4666
  50   2.0000      -0.489403       -13.3173
  51   2.0000      -0.479058       -13.0358
  52   2.0000      -0.473560       -12.8862
  53   2.0000      -0.467169       -12.7123
  54   2.0000      -0.457366       -12.4456
  55   2.0000      -0.444987       -12.1087
  56   2.0000      -0.441057       -12.0018
  57   2.0000      -0.438898       -11.9430
  58   2.0000      -0.429290       -11.6816
  59   2.0000      -0.419982       -11.4283
  60   2.0000      -0.414740       -11.2857
  61   2.0000      -0.409791       -11.1510
  62   2.0000      -0.404199       -10.9988
  63   2.0000      -0.342350        -9.3158
  64   2.0000      -0.331551        -9.0220
  65   2.0000      -0.328043        -8.9265
  66   2.0000      -0.298588        -8.1250
  67   0.0000       0.033157         0.9023
  68   0.0000       0.064211         1.7473
  69   0.0000       0.102731         2.7954
  70   0.0000       0.120020         3.2659
  71   0.0000       0.127058         3.4574

MULLIKEN ATOMIC CHARGES
-----------------------
   0 S :    0.103030
   1 C :   -0.158521
   2 C :   -0.061409
   3 C :    0.059214
   4 C :   -0.168236
   5 H :   -0.012008
   6 C :    0.071616
   7 H :    0.013665
   8 H :    0.039853
   9 C :   -0.094026
  10 H :    0.021528
  11 H :    0.029950
  12 C :   -0.046819
  13 H :    0.016194
  14 H :    0.042893
  15 H :    0.052197
  16 S :    0.111667
  17 C :   -0.063477
  18 C :   -0.068684
  19 C :    0.016419
  20 C :   -0.183321
  21 H :    0.005622
  22 C :    0.076092
  23 H :    0.034750
  24 H :    0.009716
  25 C :   -0.119459
  26 H :    0.032160
  27 H :    0.049224
  28 C :   -0.051619
  29 H :    0.032038
  30 H :    0.055407
  31 H :    0.034740
  32 H :    0.078083
  33 H :    0.041524
Sum of atomic charges:    0.0000000

LOEWDIN ATOMIC CHARGES
----------------------
   0 S :    0.389232
   1 C :   -0.195545
   2 C :   -0.063007
   3 C :   -0.052306
   4 C :   -0.189078
   5 H :    0.020353
   6 C :   -0.037460
   7 H :    0.026637
   8 H :    0.043929
   9 C :   -0.045273
  10 H :    0.020597
  11 H :    0.023254
  12 C :   -0.063493
  13 H :    0.011278
  14 H :    0.032461
  15 H :    0.036279
  16 S :    0.398626
  17 C :   -0.192059
  18 C :   -0.070259
  19 C :   -0.055707
  20 C :   -0.181470
  21 H :    0.023847
  22 C :   -0.037207
  23 H :    0.027213
  24 H :    0.033668
  25 C :   -0.035146
  26 H :    0.022963
  27 H :    0.016273
  28 C :   -0.062907
  29 H :    0.023795
  30 H :    0.038590
  31 H :    0.019000
  32 H :    0.041552
  33 H :    0.031368

  Mayer bond orders larger than 0.100000
B(  0-S ,  1-C ) :   1.1193 B(  0-S ,  4-C ) :   1.1365 B(  1-C ,  2-C ) :   1.6431
B(  1-C , 32-H ) :   0.9551 B(  2-C ,  3-C ) :   1.1815 B(  2-C ,  6-C ) :   1.0344
B(  3-C ,  4-C ) :   1.6080 B(  3-C ,  5-H ) :   1.0046 B(  4-C , 20-C ) :   1.0267
B(  6-C ,  7-H ) :   0.9403 B(  6-C ,  8-H ) :   0.9344 B(  6-C ,  9-C ) :   1.0713
B(  9-C , 10-H ) :   0.9578 B(  9-C , 11-H ) :   0.9595 B(  9-C , 12-C ) :   1.0702
B( 12-C , 13-H ) :   0.9743 B( 12-C , 14-H ) :   0.9768 B( 12-C , 15-H ) :   0.9740
B( 16-S , 17-C ) :   1.1317 B( 16-S , 20-C ) :   1.1415 B( 17-C , 18-C ) :   1.6495
B( 17-C , 33-H ) :   0.9667 B( 18-C , 19-C ) :   1.2198 B( 18-C , 21-H ) :   0.9843
B( 19-C , 20-C ) :   1.5803 B( 19-C , 22-C ) :   1.0406 B( 22-C , 23-H ) :   0.9335
B( 22-C , 24-H ) :   0.9277 B( 22-C , 25-C ) :   1.0505 B( 25-C , 26-H ) :   0.9612
B( 25-C , 27-H ) :   0.9600 B( 25-C , 28-C ) :   1.0676 B( 28-C , 29-H ) :   0.9798
B( 28-C , 30-H ) :   0.9761 B( 28-C , 31-H ) :   0.9791

Dispersion correction           -0.015010465
FINAL SINGLE POINT ENERGY     -1339.861559902788

DIPOLE MOMENT
-------------
                                X             Y             Z
Electronic contribution:    -12.98642       4.54195     -11.84811
Nuclear contribution   :     13.30481      -4.37932      12.20018
                        -----------------------------------------
Total Dipole Moment    :      0.31839       0.16263       0.35208
                        -----------------------------------------
Magnitude (a.u.)       :      0.50178
Magnitude (Debye)      :      1.27541

Rotational constants in cm-1:     0.018812     0.009067     0.007030
Rotational constants in MHz :   563.961857   271.824999   210.766026

                             ****ORCA TERMINATED NORMALLY****
TOTAL RUN TIME: 0 days 0 hours 0 minutes 32 seconds 303 msec
