                         Program Version 4.2.1 -  RELEASE  -
|  1> ! wB97X-D3 SP def2-SVP
|  2> %pal
|  3> nprocs 16
|  4> end
|  5>
|  6> * xyz 0 1
|  7> S 	 -89.7834 	 40.2007 	 115.249
|  8> C 	 -89.3461 	 40.6863 	 116.838
|  9> C 	 -90.3093 	 41.4238 	 117.439
| 10> C 	 -91.4854 	 41.458 	 116.689
| 11> C 	 -91.346 	 40.8725 	 115.425
| 12> H 	 -92.4631 	 41.9185 	 116.969
| 13> C 	 -90.2747 	 41.8951 	 118.886
| 14> H 	 -90.8789 	 42.8461 	 119.007
| 15> H 	 -89.3076 	 42.2258 	 119.215
| 16> C 	 -90.8129 	 40.9611 	 119.965
| 17> H 	 -89.9945 	 40.5401 	 120.567
| 18> H 	 -91.2791 	 41.5986 	 120.677
| 19> C 	 -91.8372 	 39.8464 	 119.525
| 20> H 	 -91.2211 	 39.2102 	 118.942
| 21> H 	 -92.1022 	 39.2743 	 120.353
| 22> H 	 -92.7209 	 40.2762 	 119.006
| 23> S 	 -92.2557 	 41.6725 	 112.896
| 24> C 	 -93.8291 	 41.0291 	 112.324
| 25> C 	 -94.382 	 40.2109 	 113.294
| 26> C 	 -93.683 	 40.1678 	 114.453
| 27> C 	 -92.4309 	 40.8313 	 114.449
| 28> H 	 -95.2274 	 39.5729 	 113.188
| 29> C 	 -94.2075 	 39.2699 	 115.551
| 30> H 	 -93.4125 	 39.2169 	 116.268
| 31> H 	 -94.3498 	 38.3062 	 115.113
| 32> C 	 -95.46 	 39.8254 	 116.153
| 33> H 	 -96.3021 	 39.746 	 115.403
| 34> H 	 -95.2841 	 40.8809 	 116.424
| 35> C 	 -95.8572 	 39.1745 	 117.52
| 36> H 	 -96.9166 	 39.4302 	 117.622
| 37> H 	 -95.4217 	 39.5142 	 118.446
| 38> H 	 -95.9747 	 38.0192 	 117.496
| 39> H 	 -88.3973 	 40.6159 	 117.266
| 40> H 	 -94.1933 	 40.9757 	 111.271
| 41> *
| 42>
| 43>                          ****END OF INPUT****

CARTESIAN COORDINATES (ANGSTROEM)
---------------------------------
  S    -89.783400   40.200700  115.249000
  C    -89.346100   40.686300  116.838000
  C    -90.309300   41.423800  117.439000
  C    -91.485400   41.458000  116.689000
  C    -91.346000   40.872500  115.425000
  H    -92.463100   41.918500  116.969000
  C    -90.274700   41.895100  118.886000
  H    -90.878900   42.846100  119.007000
  H    -89.307600   42.225800  119.215000
  C    -90.812900   40.961100  119.965000
  H    -89.994500   40.540100  120.567000
  H    -91.279100   41.598600  120.677000
  C    -91.837200   39.846400  119.525000
  H    -91.221100   39.210200  118.942000
  H    -92.102200   39.274300  120.353000
  H    -92.720900   40.276200  119.006000
  S    -92.255700   41.672500  112.896000
  C    -93.829100   41.029100  112.324000
  C    -94.382000   40.210900  113.294000
  C    -93.683000   40.167800  114.453000
  C    -92.430900   40.831300  114.449000
  H    -95.227400   39.572900  113.188000
  C    -94.207500   39.269900  115.551000
  H    -93.412500   39.216900  116.268000
  H    -94.349800   38.306200  115.113000
  C    -95.460000   39.825400  116.153000
  H    -96.302100   39.746000  115.403000
  H    -95.284100   40.880900  116.424000
  C    -95.857200   39.174500  117.520000
  H    -96.916600   39.430200  117.622000
  H    -95.421700   39.514200  118.446000
  H    -95.974700   38.019200  117.496000
  H    -88.397300   40.615900  117.266000
  H    -94.193300   40.975700  111.271000

 Total Charge           Charge          ....    0
 Multiplicity           Mult            ....    1
 Number of Electrons    NEL             ....  134
 Basis Dimension        Dim             ....  322

ORBITAL ENERGIES
----------------

  NO   OCC          E(Eh)            E(eV)
   0   2.0000     -88.971145     -2421.0279
   1   2.0000     -88.967016     -2420.9156
   2   2.0000     -10.328691      -281.0580
   3   2.0000     -10.326737      -281.0048
   4   2.0000     -10.321878      -280.8726
   5   2.0000     -10.306037      -280.4415
   6   2.0000     -10.294972      -280.1404
   7   2.0000     -10.294255      -280.1209
   8   2.0000     -10.294183      -280.1190
   9   2.0000     -10.292706      -280.0788
  10   2.0000     -10.292486      -280.0728
  11   2.0000     -10.284760      -279.8626
  12   2.0000     -10.283832      -279.8373
  13   2.0000     -10.283377      -279.8249
  14   2.0000     -10.278832      -279.7012
  15   2.0000     -10.273205      -279.5481
  16   2.0000      -8.086789      -220.0527
  17   2.0000      -8.080358      -219.8777
  18   2.0000      -6.045109      -164.4958
  19   2.0000      -6.041069      -164.3858
  20   2.0000      -6.038893      -164.3266
  21   2.0000      -6.037794      -164.2967
  22   2.0000      -6.034980      -164.2202
  23   2.0000      -6.031251      -164.1187
  24   2.0000      -1.013133       -27.5687
  25   2.0000      -0.988012       -26.8852
  26   2.0000      -0.912632       -24.8340
  27   2.0000      -0.909053       -24.7366
  28   2.0000      -0.869904       -23.6713
  29   2.0000      -0.849466       -23.1151
  30   2.0000      -0.846878       -23.0447
  31   2.0000      -0.812260       -22.1027
  32   2.0000      -0.789828       -21.4923
  33   2.0000      -0.772140       -21.0110
  34   2.0000      -0.705548       -19.1989
  35   2.0000      -0.699455       -19.0331
  36   2.0000      -0.693627       -18.8745
  37   2.0000      -0.664690       -18.0871
  38   2.0000      -0.642979       -17.4964
  39   2.0000      -0.613265       -16.6878
  40   2.0000      -0.590047       -16.0560
  41   2.0000      -0.571556       -15.5528
  42   2.0000      -0.568396       -15.4668
  43   2.0000      -0.555654       -15.1201
  44   2.0000      -0.546704       -14.8766
  45   2.0000      -0.522188       -14.2094
  46   2.0000      -0.511895       -13.9294
  47   2.0000      -0.507053       -13.7976
  48   2.0000      -0.505034       -13.7427
  49   2.0000      -0.498528       -13.5656
  50   2.0000      -0.489782       -13.3276
  51   2.0000      -0.485794       -13.2191
  52   2.0000      -0.473430       -12.8827
  53   2.0000      -0.469475       -12.7751
  54   2.0000      -0.459441       -12.5020
  55   2.0000      -0.444928       -12.1071
  56   2.0000      -0.444149       -12.0859
  57   2.0000      -0.439178       -11.9507
  58   2.0000      -0.429360       -11.6835
  59   2.0000      -0.426351       -11.6016
  60   2.0000      -0.422177       -11.4880
  61   2.0000      -0.409282       -11.1371
  62   2.0000      -0.404161       -10.9978
  63   2.0000      -0.341056        -9.2806
  64   2.0000      -0.336154        -9.1472
  65   2.0000      -0.329795        -8.9742
  66   2.0000      -0.295794        -8.0490
  67   0.0000       0.030025         0.8170
  68   0.0000       0.062791         1.7086
  69   0.0000       0.113026         3.0756
  70   0.0000       0.121833         3.3152
  71   0.0000       0.127140         3.4596

MULLIKEN ATOMIC CHARGES
-----------------------
   0 S :    0.143520
   1 C :   -0.093974
   2 C :   -0.066263
   3 C :    0.004799
   4 C :   -0.171913
   5 H :    0.028109
   6 C :    0.068888
   7 H :    0.028254
   8 H :    0.012119
   9 C :   -0.098822
  10 H :    0.022923
  11 H :    0.010923
  12 C :   -0.004922
  13 H :    0.031686
  14 H :    0.020049
  15 H :    0.044892
  16 S :    0.101038
  17 C :   -0.102214
  18 C :   -0.023575
  19 C :   -0.044698
  20 C :   -0.181887
  21 H :    0.006876
  22 C :    0.129085
  23 H :    0.009650
  24 H :    0.023908
  25 C :   -0.110176
  26 H :    0.039631
  27 H :    0.035880
  28 C :   -0.060976
  29 H :    0.020304
  30 H :    0.044340
  31 H :    0.035712
  32 H :    0.021722
  33 H :    0.075111
Sum of atomic charges:   -0.0000000

LOEWDIN ATOMIC CHARGES
----------------------
   0 S :    0.448525
   1 C :   -0.195846
   2 C :   -0.070406
   3 C :   -0.057855
   4 C :   -0.219666
   5 H :    0.037186
   6 C :   -0.035265
   7 H :    0.037112
   8 H :    0.026457
   9 C :   -0.040842
  10 H :    0.022992
  11 H :    0.016651
  12 C :   -0.055350
  13 H :    0.024665
  14 H :    0.018387
  15 H :    0.028664
  16 S :    0.388260
  17 C :   -0.183470
  18 C :   -0.071075
  19 C :   -0.056501
  20 C :   -0.198157
  21 H :    0.028792
  22 C :   -0.028250
  23 H :    0.025821
  24 H :    0.027992
  25 C :   -0.040898
  26 H :    0.029006
  27 H :    0.030061
  28 C :   -0.080243
  29 H :    0.027728
  30 H :    0.023055
  31 H :    0.032978
  32 H :    0.018546
  33 H :    0.040944

  Mayer bond orders larger than 0.100000
B(  0-S ,  1-C ) :   1.1554 B(  0-S ,  4-C ) :   1.1741 B(  1-C ,  2-C ) :   1.5901
B(  1-C , 32-H ) :   0.9713 B(  2-C ,  3-C ) :   1.2603 B(  2-C ,  6-C ) :   1.0452
B(  3-C ,  4-C ) :   1.5374 B(  3-C ,  5-H ) :   0.9909 B(  4-C , 20-C ) :   1.0395
B(  6-C ,  7-H ) :   0.9437 B(  6-C ,  8-H ) :   0.9399 B(  6-C ,  9-C ) :   1.0564
B(  9-C , 10-H ) :   0.9589 B(  9-C , 11-H ) :   0.9566 B(  9-C , 12-C ) :   1.0924
B( 12-C , 13-H ) :   0.9671 B( 12-C , 14-H ) :   0.9709 B( 12-C , 15-H ) :   0.9703
B( 16-S , 17-C ) :   1.1606 B( 16-S , 20-C ) :   1.1430 B( 17-C , 18-C ) :   1.5608
B( 17-C , 20-C ) :   0.1198 B( 17-C , 33-H ) :   0.9578 B( 18-C , 19-C ) :   1.3110
B( 18-C , 21-H ) :   0.9850 B( 19-C , 20-C ) :   1.5505 B( 19-C , 22-C ) :   1.0420
B( 22-C , 23-H ) :   0.9269 B( 22-C , 24-H ) :   0.9307 B( 22-C , 25-C ) :   1.0667
B( 25-C , 26-H ) :   0.9549 B( 25-C , 27-H ) :   0.9529 B( 25-C , 28-C ) :   1.0803
B( 28-C , 29-H ) :   0.9706 B( 28-C , 30-H ) :   0.9771 B( 28-C , 31-H ) :   0.9712

Dispersion correction           -0.015634042
FINAL SINGLE POINT ENERGY     -1339.860758445999

DIPOLE MOMENT
-------------
                                X             Y             Z
Electronic contribution:     15.06338       6.40333     -26.16430
Nuclear contribution   :    -15.34764      -6.63906      26.73992
                        -----------------------------------------
Total Dipole Moment    :     -0.28426      -0.23573       0.57562
                        -----------------------------------------
Magnitude (a.u.)       :      0.68389
Magnitude (Debye)      :      1.73831

Rotational constants in cm-1:     0.017245     0.010582     0.007209
Rotational constants in MHz :   516.978308   317.226434   216.120706

                             ****ORCA TERMINATED NORMALLY****
TOTAL RUN TIME: 0 days 0 hours 0 minutes 36 seconds 352 msec
