                         Program Version 4.2.1 -  RELEASE  -
|  1> ! wB97X-D3 SP def2-SVP
|  2> %pal
|  3> nprocs 16
|  4> end
|  5>
|  6> * xyz 0 1
|  7> S 	 -59.3112 	 53.0876 	 135.824
|  8> C 	 -59.0495 	 51.346 	 135.86
|  9> C 	 -60.0325 	 50.6029 	 135.189
| 10> C 	 -61.0698 	 51.4803 	 134.755
| 11> C 	 -60.8548 	 52.8357 	 135.036
| 12> H 	 -61.9765 	 51.161 	 134.292
| 13> C 	 -59.9716 	 49.1233 	 134.863
| 14> H 	 -58.9175 	 48.9318 	 134.499
| 15> H 	 -60.617 	 48.9844 	 134.005
| 16> C 	 -60.1842 	 48.1831 	 136.047
| 17> H 	 -61.1614 	 48.3597 	 136.476
| 18> H 	 -60.2684 	 47.1836 	 135.708
| 19> C 	 -59.0556 	 48.1951 	 137.043
| 20> H 	 -58.9288 	 49.1604 	 137.481
| 21> H 	 -59.0616 	 47.5374 	 137.862
| 22> H 	 -58.1356 	 48.016 	 136.446
| 23> S 	 -61.8464 	 54.3344 	 132.956
| 24> C 	 -63.1019 	 55.4417 	 133.217
| 25> C 	 -63.3729 	 55.5575 	 134.55
| 26> C 	 -62.6507 	 54.699 	 135.439
| 27> C 	 -61.7641 	 53.9617 	 134.682
| 28> H 	 -64.1324 	 56.2287 	 134.815
| 29> C 	 -62.9865 	 54.632 	 136.94
| 30> H 	 -62.383 	 53.8332 	 137.36
| 31> H 	 -63.9709 	 54.3121 	 137.135
| 32> C 	 -62.7026 	 55.8585 	 137.731
| 33> H 	 -63.4054 	 56.7041 	 137.592
| 34> H 	 -61.7437 	 56.2942 	 137.374
| 35> C 	 -62.6109 	 55.6176 	 139.236
| 36> H 	 -63.5068 	 55.1575 	 139.71
| 37> H 	 -62.5832 	 56.5636 	 139.692
| 38> H 	 -61.8216 	 54.9455 	 139.59
| 39> H 	 -58.1491 	 50.8583 	 136.244
| 40> H 	 -63.6592 	 56.0739 	 132.535
| 41> *
| 42>
| 43>                          ****END OF INPUT****

CARTESIAN COORDINATES (ANGSTROEM)
---------------------------------
  S    -59.311200   53.087600  135.824000
  C    -59.049500   51.346000  135.860000
  C    -60.032500   50.602900  135.189000
  C    -61.069800   51.480300  134.755000
  C    -60.854800   52.835700  135.036000
  H    -61.976500   51.161000  134.292000
  C    -59.971600   49.123300  134.863000
  H    -58.917500   48.931800  134.499000
  H    -60.617000   48.984400  134.005000
  C    -60.184200   48.183100  136.047000
  H    -61.161400   48.359700  136.476000
  H    -60.268400   47.183600  135.708000
  C    -59.055600   48.195100  137.043000
  H    -58.928800   49.160400  137.481000
  H    -59.061600   47.537400  137.862000
  H    -58.135600   48.016000  136.446000
  S    -61.846400   54.334400  132.956000
  C    -63.101900   55.441700  133.217000
  C    -63.372900   55.557500  134.550000
  C    -62.650700   54.699000  135.439000
  C    -61.764100   53.961700  134.682000
  H    -64.132400   56.228700  134.815000
  C    -62.986500   54.632000  136.940000
  H    -62.383000   53.833200  137.360000
  H    -63.970900   54.312100  137.135000
  C    -62.702600   55.858500  137.731000
  H    -63.405400   56.704100  137.592000
  H    -61.743700   56.294200  137.374000
  C    -62.610900   55.617600  139.236000
  H    -63.506800   55.157500  139.710000
  H    -62.583200   56.563600  139.692000
  H    -61.821600   54.945500  139.590000
  H    -58.149100   50.858300  136.244000
  H    -63.659200   56.073900  132.535000

 Total Charge           Charge          ....    0
 Multiplicity           Mult            ....    1
 Number of Electrons    NEL             ....  134
 Basis Dimension        Dim             ....  322

ORBITAL ENERGIES
----------------

  NO   OCC          E(Eh)            E(eV)
   0   2.0000     -88.969702     -2420.9887
   1   2.0000     -88.964026     -2420.8342
   2   2.0000     -10.328909      -281.0639
   3   2.0000     -10.326896      -281.0091
   4   2.0000     -10.314814      -280.6804
   5   2.0000     -10.308448      -280.5071
   6   2.0000     -10.303950      -280.3847
   7   2.0000     -10.301027      -280.3052
   8   2.0000     -10.297428      -280.2073
   9   2.0000     -10.292681      -280.0781
  10   2.0000     -10.286092      -279.8988
  11   2.0000     -10.285869      -279.8927
  12   2.0000     -10.281972      -279.7867
  13   2.0000     -10.281473      -279.7731
  14   2.0000     -10.274403      -279.5807
  15   2.0000     -10.272633      -279.5325
  16   2.0000      -8.083728      -219.9694
  17   2.0000      -8.079416      -219.8521
  18   2.0000      -6.042133      -164.4148
  19   2.0000      -6.038346      -164.3118
  20   2.0000      -6.037826      -164.2976
  21   2.0000      -6.034651      -164.2112
  22   2.0000      -6.033825      -164.1887
  23   2.0000      -6.030232      -164.0910
  24   2.0000      -1.004634       -27.3375
  25   2.0000      -0.982881       -26.7455
  26   2.0000      -0.916369       -24.9357
  27   2.0000      -0.913879       -24.8679
  28   2.0000      -0.863827       -23.5059
  29   2.0000      -0.851011       -23.1572
  30   2.0000      -0.850014       -23.1301
  31   2.0000      -0.808478       -21.9998
  32   2.0000      -0.788561       -21.4578
  33   2.0000      -0.777995       -21.1703
  34   2.0000      -0.708576       -19.2813
  35   2.0000      -0.699778       -19.0419
  36   2.0000      -0.693510       -18.8714
  37   2.0000      -0.656088       -17.8531
  38   2.0000      -0.637278       -17.3412
  39   2.0000      -0.617610       -16.8060
  40   2.0000      -0.600322       -16.3356
  41   2.0000      -0.573025       -15.5928
  42   2.0000      -0.565898       -15.3989
  43   2.0000      -0.558302       -15.1922
  44   2.0000      -0.542448       -14.7608
  45   2.0000      -0.526853       -14.3364
  46   2.0000      -0.513993       -13.9865
  47   2.0000      -0.510178       -13.8827
  48   2.0000      -0.498608       -13.5678
  49   2.0000      -0.495679       -13.4881
  50   2.0000      -0.483768       -13.1640
  51   2.0000      -0.475718       -12.9449
  52   2.0000      -0.472227       -12.8499
  53   2.0000      -0.469007       -12.7623
  54   2.0000      -0.457610       -12.4522
  55   2.0000      -0.450331       -12.2541
  56   2.0000      -0.447073       -12.1655
  57   2.0000      -0.442589       -12.0435
  58   2.0000      -0.434517       -11.8238
  59   2.0000      -0.427873       -11.6430
  60   2.0000      -0.422718       -11.5027
  61   2.0000      -0.416243       -11.3265
  62   2.0000      -0.409121       -11.1327
  63   2.0000      -0.337859        -9.1936
  64   2.0000      -0.328628        -8.9424
  65   2.0000      -0.324475        -8.8294
  66   2.0000      -0.304103        -8.2751
  67   0.0000       0.041773         1.1367
  68   0.0000       0.063157         1.7186
  69   0.0000       0.110121         2.9965
  70   0.0000       0.120223         3.2714
  71   0.0000       0.133232         3.6254

MULLIKEN ATOMIC CHARGES
-----------------------
   0 S :    0.129783
   1 C :   -0.133588
   2 C :   -0.096242
   3 C :    0.045185
   4 C :   -0.180218
   5 H :    0.001731
   6 C :    0.046101
   7 H :    0.035175
   8 H :    0.025859
   9 C :   -0.010831
  10 H :    0.020675
  11 H :    0.017293
  12 C :   -0.039933
  13 H :    0.024504
  14 H :    0.027162
  15 H :    0.019118
  16 S :    0.126223
  17 C :   -0.074298
  18 C :   -0.042355
  19 C :    0.009210
  20 C :   -0.213873
  21 H :   -0.009059
  22 C :    0.141227
  23 H :    0.012118
  24 H :    0.018127
  25 C :   -0.101833
  26 H :    0.029388
  27 H :    0.033010
  28 C :   -0.043317
  29 H :    0.019875
  30 H :    0.022718
  31 H :    0.039543
  32 H :    0.051238
  33 H :    0.050284
Sum of atomic charges:    0.0000000

LOEWDIN ATOMIC CHARGES
----------------------
   0 S :    0.410642
   1 C :   -0.200561
   2 C :   -0.063290
   3 C :   -0.056751
   4 C :   -0.206088
   5 H :    0.026622
   6 C :   -0.028419
   7 H :    0.037863
   8 H :    0.031422
   9 C :   -0.035936
  10 H :    0.022477
  11 H :    0.020756
  12 C :   -0.060743
  13 H :    0.020341
  14 H :    0.021169
  15 H :    0.027886
  16 S :    0.424772
  17 C :   -0.205527
  18 C :   -0.071893
  19 C :   -0.047400
  20 C :   -0.197847
  21 H :    0.018622
  22 C :   -0.025576
  23 H :    0.032156
  24 H :    0.027265
  25 C :   -0.044962
  26 H :    0.024904
  27 H :    0.029531
  28 C :   -0.066995
  29 H :    0.026531
  30 H :    0.021722
  31 H :    0.027208
  32 H :    0.025578
  33 H :    0.034522

  Mayer bond orders larger than 0.100000
B(  0-S ,  1-C ) :   1.1520 B(  0-S ,  4-C ) :   1.1555 B(  1-C ,  2-C ) :   1.5983
B(  1-C ,  4-C ) :   0.1001 B(  1-C , 32-H ) :   0.9561 B(  2-C ,  3-C ) :   1.2647
B(  2-C ,  6-C ) :   1.0067 B(  3-C ,  4-C ) :   1.5745 B(  3-C ,  5-H ) :   0.9959
B(  4-C , 20-C ) :   0.9911 B(  6-C ,  7-H ) :   0.9429 B(  6-C ,  8-H ) :   0.9427
B(  6-C ,  9-C ) :   1.0693 B(  9-C , 10-H ) :   0.9512 B(  9-C , 11-H ) :   0.9528
B(  9-C , 12-C ) :   1.0760 B( 12-C , 13-H ) :   0.9701 B( 12-C , 14-H ) :   0.9716
B( 12-C , 15-H ) :   0.9718 B( 16-S , 17-C ) :   1.1473 B( 16-S , 20-C ) :   1.1582
B( 17-C , 18-C ) :   1.6395 B( 17-C , 33-H ) :   0.9631 B( 18-C , 19-C ) :   1.2187
B( 18-C , 21-H ) :   0.9943 B( 19-C , 20-C ) :   1.6113 B( 19-C , 22-C ) :   1.0419
B( 22-C , 23-H ) :   0.9273 B( 22-C , 24-H ) :   0.9291 B( 22-C , 25-C ) :   1.0625
B( 25-C , 26-H ) :   0.9511 B( 25-C , 27-H ) :   0.9530 B( 25-C , 28-C ) :   1.0933
B( 28-C , 29-H ) :   0.9705 B( 28-C , 30-H ) :   0.9726 B( 28-C , 31-H ) :   0.9739

Dispersion correction           -0.013976079
FINAL SINGLE POINT ENERGY     -1339.883221699158

DIPOLE MOMENT
-------------
                                X             Y             Z
Electronic contribution:      2.74712      11.13808     -18.93921
Nuclear contribution   :     -3.06443     -11.42062      19.19974
                        -----------------------------------------
Total Dipole Moment    :     -0.31731      -0.28253       0.26054
                        -----------------------------------------
Magnitude (a.u.)       :      0.49839
Magnitude (Debye)      :      1.26680

Rotational constants in cm-1:     0.019348     0.007854     0.006380
Rotational constants in MHz :   580.043763   235.468000   191.282536

                             ****ORCA TERMINATED NORMALLY****
TOTAL RUN TIME: 0 days 0 hours 0 minutes 33 seconds 906 msec
