                         Program Version 4.2.1 -  RELEASE  -
|  1> ! wB97X-D3 SP def2-SVP
|  2> %pal
|  3> nprocs 16
|  4> end
|  5>
|  6> * xyz 0 1
|  7> S 	 0.722771 	 -26.9297 	 82.4175
|  8> C 	 0.202879 	 -27.9004 	 81.0233
|  9> C 	 -0.233637 	 -29.1612 	 81.4948
| 10> C 	 -0.516471 	 -29.1481 	 82.8879
| 11> C 	 -0.179209 	 -27.9632 	 83.5331
| 12> H 	 -0.986082 	 -30.0037 	 83.3817
| 13> C 	 -0.657328 	 -30.3494 	 80.6015
| 14> H 	 -0.392167 	 -29.9866 	 79.5917
| 15> H 	 -1.6692 	 -30.3199 	 80.6934
| 16> C 	 -0.0702212 	 -31.7474 	 80.8773
| 17> H 	 0.197302 	 -32.1079 	 79.9464
| 18> H 	 0.862345 	 -31.5681 	 81.4141
| 19> C 	 -0.98726 	 -32.6988 	 81.687
| 20> H 	 -1.21817 	 -32.4624 	 82.6877
| 21> H 	 -1.93754 	 -32.8045 	 81.1557
| 22> H 	 -0.571034 	 -33.6903 	 81.6159
| 23> S 	 1.08877 	 -27.4576 	 85.9593
| 24> C 	 0.225392 	 -26.8323 	 87.3168
| 25> C 	 -1.13594 	 -26.9608 	 87.1022
| 26> C 	 -1.45098 	 -27.198 	 85.7146
| 27> C 	 -0.344419 	 -27.5842 	 84.9505
| 28> H 	 -1.87067 	 -26.7929 	 87.8608
| 29> C 	 -2.87936 	 -27.2144 	 85.2644
| 30> H 	 -3.53337 	 -26.9773 	 86.1163
| 31> H 	 -3.06751 	 -28.2327 	 85.0255
| 32> C 	 -3.31266 	 -26.3587 	 84.0896
| 33> H 	 -4.41431 	 -26.4048 	 84.0365
| 34> H 	 -2.7567 	 -26.7727 	 83.2796
| 35> C 	 -2.9351 	 -24.9258 	 84.1259
| 36> H 	 -3.17923 	 -24.3766 	 83.2297
| 37> H 	 -1.87364 	 -24.8569 	 84.3529
| 38> H 	 -3.38439 	 -24.4144 	 84.9139
| 39> H 	 0.673032 	 -27.6639 	 80.0536
| 40> H 	 0.748532 	 -26.7758 	 88.2797
| 41> *
| 42>
| 43>                          ****END OF INPUT****

CARTESIAN COORDINATES (ANGSTROEM)
---------------------------------
  S      0.722771  -26.929700   82.417500
  C      0.202879  -27.900400   81.023300
  C     -0.233637  -29.161200   81.494800
  C     -0.516471  -29.148100   82.887900
  C     -0.179209  -27.963200   83.533100
  H     -0.986082  -30.003700   83.381700
  C     -0.657328  -30.349400   80.601500
  H     -0.392167  -29.986600   79.591700
  H     -1.669200  -30.319900   80.693400
  C     -0.070221  -31.747400   80.877300
  H      0.197302  -32.107900   79.946400
  H      0.862345  -31.568100   81.414100
  C     -0.987260  -32.698800   81.687000
  H     -1.218170  -32.462400   82.687700
  H     -1.937540  -32.804500   81.155700
  H     -0.571034  -33.690300   81.615900
  S      1.088770  -27.457600   85.959300
  C      0.225392  -26.832300   87.316800
  C     -1.135940  -26.960800   87.102200
  C     -1.450980  -27.198000   85.714600
  C     -0.344419  -27.584200   84.950500
  H     -1.870670  -26.792900   87.860800
  C     -2.879360  -27.214400   85.264400
  H     -3.533370  -26.977300   86.116300
  H     -3.067510  -28.232700   85.025500
  C     -3.312660  -26.358700   84.089600
  H     -4.414310  -26.404800   84.036500
  H     -2.756700  -26.772700   83.279600
  C     -2.935100  -24.925800   84.125900
  H     -3.179230  -24.376600   83.229700
  H     -1.873640  -24.856900   84.352900
  H     -3.384390  -24.414400   84.913900
  H      0.673032  -27.663900   80.053600
  H      0.748532  -26.775800   88.279700

 Total Charge           Charge          ....    0
 Multiplicity           Mult            ....    1
 Number of Electrons    NEL             ....  134
 Basis Dimension        Dim             ....  322

ORBITAL ENERGIES
----------------

  NO   OCC          E(Eh)            E(eV)
   0   2.0000     -88.964274     -2420.8410
   1   2.0000     -88.961811     -2420.7739
   2   2.0000     -10.336290      -281.2648
   3   2.0000     -10.328092      -281.0417
   4   2.0000     -10.321119      -280.8519
   5   2.0000     -10.318144      -280.7710
   6   2.0000     -10.307135      -280.4714
   7   2.0000     -10.304405      -280.3971
   8   2.0000     -10.298307      -280.2312
   9   2.0000     -10.294994      -280.1410
  10   2.0000     -10.287371      -279.9336
  11   2.0000     -10.286269      -279.9036
  12   2.0000     -10.281830      -279.7828
  13   2.0000     -10.279522      -279.7200
  14   2.0000     -10.272904      -279.5399
  15   2.0000     -10.256024      -279.0806
  16   2.0000      -8.078433      -219.8253
  17   2.0000      -8.077148      -219.7904
  18   2.0000      -6.036971      -164.2743
  19   2.0000      -6.035594      -164.2369
  20   2.0000      -6.033067      -164.1681
  21   2.0000      -6.031464      -164.1245
  22   2.0000      -6.029132      -164.0610
  23   2.0000      -6.028032      -164.0311
  24   2.0000      -1.003298       -27.3011
  25   2.0000      -0.982139       -26.7254
  26   2.0000      -0.914033       -24.8721
  27   2.0000      -0.911079       -24.7917
  28   2.0000      -0.866238       -23.5715
  29   2.0000      -0.850604       -23.1461
  30   2.0000      -0.845099       -22.9963
  31   2.0000      -0.814973       -22.1766
  32   2.0000      -0.786894       -21.4125
  33   2.0000      -0.774352       -21.0712
  34   2.0000      -0.714229       -19.4352
  35   2.0000      -0.701781       -19.0964
  36   2.0000      -0.682182       -18.5631
  37   2.0000      -0.663441       -18.0531
  38   2.0000      -0.639265       -17.3953
  39   2.0000      -0.620059       -16.8727
  40   2.0000      -0.591754       -16.1024
  41   2.0000      -0.568804       -15.4780
  42   2.0000      -0.561402       -15.2765
  43   2.0000      -0.553495       -15.0614
  44   2.0000      -0.551620       -15.0103
  45   2.0000      -0.536982       -14.6120
  46   2.0000      -0.519507       -14.1365
  47   2.0000      -0.507360       -13.8060
  48   2.0000      -0.502933       -13.6855
  49   2.0000      -0.494558       -13.4576
  50   2.0000      -0.489391       -13.3170
  51   2.0000      -0.482281       -13.1235
  52   2.0000      -0.475739       -12.9455
  53   2.0000      -0.470679       -12.8078
  54   2.0000      -0.457031       -12.4364
  55   2.0000      -0.450246       -12.2518
  56   2.0000      -0.442008       -12.0277
  57   2.0000      -0.440600       -11.9893
  58   2.0000      -0.433971       -11.8090
  59   2.0000      -0.424261       -11.5447
  60   2.0000      -0.414753       -11.2860
  61   2.0000      -0.411384       -11.1943
  62   2.0000      -0.404293       -11.0014
  63   2.0000      -0.335793        -9.1374
  64   2.0000      -0.327509        -8.9120
  65   2.0000      -0.326271        -8.8783
  66   2.0000      -0.301514        -8.2046
  67   0.0000       0.030712         0.8357
  68   0.0000       0.051185         1.3928
  69   0.0000       0.107189         2.9168
  70   0.0000       0.119613         3.2548
  71   0.0000       0.128473         3.4959

MULLIKEN ATOMIC CHARGES
-----------------------
   0 S :    0.105168
   1 C :   -0.134629
   2 C :   -0.125448
   3 C :    0.048538
   4 C :   -0.161086
   5 H :    0.014495
   6 C :    0.079210
   7 H :    0.015303
   8 H :    0.016929
   9 C :   -0.030964
  10 H :    0.014534
  11 H :    0.033746
  12 C :   -0.039659
  13 H :    0.035625
  14 H :    0.024829
  15 H :    0.031500
  16 S :    0.098835
  17 C :   -0.096510
  18 C :   -0.024738
  19 C :   -0.072416
  20 C :   -0.162640
  21 H :    0.018651
  22 C :    0.084805
  23 H :    0.006683
  24 H :    0.026771
  25 C :   -0.058318
  26 H :    0.030722
  27 H :    0.032858
  28 C :   -0.015258
  29 H :    0.032530
  30 H :    0.028207
  31 H :   -0.001892
  32 H :    0.069487
  33 H :    0.074131
Sum of atomic charges:   -0.0000000

LOEWDIN ATOMIC CHARGES
----------------------
   0 S :    0.391691
   1 C :   -0.201777
   2 C :   -0.056946
   3 C :   -0.064511
   4 C :   -0.189885
   5 H :    0.033811
   6 C :   -0.022600
   7 H :    0.032515
   8 H :    0.018091
   9 C :   -0.031279
  10 H :    0.019342
  11 H :    0.029245
  12 C :   -0.060099
  13 H :    0.018303
  14 H :    0.027005
  15 H :    0.029171
  16 S :    0.413680
  17 C :   -0.193369
  18 C :   -0.068562
  19 C :   -0.052694
  20 C :   -0.209545
  21 H :    0.027909
  22 C :   -0.032504
  23 H :    0.026827
  24 H :    0.031626
  25 C :   -0.037667
  26 H :    0.028782
  27 H :    0.024193
  28 C :   -0.060998
  29 H :    0.027074
  30 H :    0.026981
  31 H :    0.011716
  32 H :    0.030866
  33 H :    0.033609

  Mayer bond orders larger than 0.100000
B(  0-S ,  1-C ) :   1.1399 B(  0-S ,  4-C ) :   1.1572 B(  1-C ,  2-C ) :   1.5870
B(  1-C ,  4-C ) :   0.1120 B(  1-C , 32-H ) :   0.9602 B(  2-C ,  3-C ) :   1.2480
B(  2-C ,  6-C ) :   1.0194 B(  3-C ,  4-C ) :   1.5676 B(  3-C ,  5-H ) :   0.9929
B(  4-C , 20-C ) :   1.0257 B(  6-C ,  7-H ) :   0.9420 B(  6-C ,  8-H ) :   0.9480
B(  6-C ,  9-C ) :   1.0443 B(  9-C , 10-H ) :   0.9562 B(  9-C , 11-H ) :   0.9627
B(  9-C , 12-C ) :   1.0765 B( 12-C , 13-H ) :   0.9797 B( 12-C , 14-H ) :   0.9737
B( 12-C , 15-H ) :   0.9711 B( 16-S , 17-C ) :   1.1760 B( 16-S , 20-C ) :   1.1509
B( 17-C , 18-C ) :   1.5787 B( 17-C , 20-C ) :   0.1015 B( 17-C , 33-H ) :   0.9619
B( 18-C , 19-C ) :   1.2614 B( 18-C , 21-H ) :   0.9891 B( 19-C , 20-C ) :   1.5727
B( 19-C , 22-C ) :   1.0378 B( 22-C , 23-H ) :   0.9304 B( 22-C , 24-H ) :   0.9330
B( 22-C , 25-C ) :   1.0766 B( 25-C , 26-H ) :   0.9521 B( 25-C , 27-H ) :   0.9512
B( 25-C , 28-C ) :   1.1005 B( 28-C , 29-H ) :   0.9715 B( 28-C , 30-H ) :   0.9649
B( 28-C , 31-H ) :   0.9704

Dispersion correction           -0.015015949
FINAL SINGLE POINT ENERGY     -1339.860842146946

DIPOLE MOMENT
-------------
                                X             Y             Z
Electronic contribution:     16.72661      10.31227       8.91513
Nuclear contribution   :    -17.13004     -10.88735      -9.02321
                        -----------------------------------------
Total Dipole Moment    :     -0.40344      -0.57508      -0.10808
                        -----------------------------------------
Magnitude (a.u.)       :      0.71074
Magnitude (Debye)      :      1.80657

Rotational constants in cm-1:     0.019251     0.008224     0.007804
Rotational constants in MHz :   577.126373   246.561732   233.965779

                             ****ORCA TERMINATED NORMALLY****
TOTAL RUN TIME: 0 days 0 hours 0 minutes 34 seconds 252 msec
