                         Program Version 4.2.1 -  RELEASE  -
|  1> ! wB97X-D3 SP def2-SVP
|  2> %pal
|  3> nprocs 16
|  4> end
|  5>
|  6> * xyz 0 1
|  7> S 	 50.1249 	 21.708 	 84.1541
|  8> C 	 50.6891 	 23.1475 	 84.8451
|  9> C 	 50.5342 	 23.1479 	 86.2116
| 10> C 	 49.9913 	 21.9045 	 86.6353
| 11> C 	 49.6905 	 20.9865 	 85.6604
| 12> H 	 49.734 	 21.6681 	 87.6396
| 13> C 	 50.854 	 24.3459 	 87.1128
| 14> H 	 50.4571 	 24.1844 	 88.129
| 15> H 	 50.1997 	 25.1185 	 86.7159
| 16> C 	 52.2562 	 24.7656 	 87.2175
| 17> H 	 52.6535 	 24.9091 	 86.1927
| 18> H 	 52.2673 	 25.7659 	 87.7628
| 19> C 	 53.0688 	 23.6067 	 87.9746
| 20> H 	 54.1006 	 23.8149 	 88.3083
| 21> H 	 52.607 	 23.441 	 88.9826
| 22> H 	 53.0359 	 22.6639 	 87.4272
| 23> S 	 47.4935 	 19.6111 	 86.4772
| 24> C 	 47.464 	 17.8516 	 86.1955
| 25> C 	 48.6494 	 17.3527 	 85.6827
| 26> C 	 49.636 	 18.3788 	 85.4682
| 27> C 	 49.1394 	 19.6696 	 85.8134
| 28> H 	 48.6724 	 16.3086 	 85.4562
| 29> C 	 51.0834 	 18.1544 	 84.98
| 30> H 	 51.4719 	 17.5774 	 85.8108
| 31> H 	 51.6489 	 19.0403 	 85.0127
| 32> C 	 51.2505 	 17.4117 	 83.6393
| 33> H 	 52.2508 	 17.5908 	 83.375
| 34> H 	 50.6334 	 17.9607 	 82.8375
| 35> C 	 50.9833 	 15.912 	 83.6775
| 36> H 	 51.4654 	 15.4688 	 84.5702
| 37> H 	 51.2472 	 15.3605 	 82.7502
| 38> H 	 49.9327 	 15.7389 	 83.7992
| 39> H 	 51.1059 	 23.9016 	 84.2466
| 40> H 	 46.7662 	 17.2541 	 86.7334
| 41> *
| 42>
| 43>                          ****END OF INPUT****

CARTESIAN COORDINATES (ANGSTROEM)
---------------------------------
  S     50.124900   21.708000   84.154100
  C     50.689100   23.147500   84.845100
  C     50.534200   23.147900   86.211600
  C     49.991300   21.904500   86.635300
  C     49.690500   20.986500   85.660400
  H     49.734000   21.668100   87.639600
  C     50.854000   24.345900   87.112800
  H     50.457100   24.184400   88.129000
  H     50.199700   25.118500   86.715900
  C     52.256200   24.765600   87.217500
  H     52.653500   24.909100   86.192700
  H     52.267300   25.765900   87.762800
  C     53.068800   23.606700   87.974600
  H     54.100600   23.814900   88.308300
  H     52.607000   23.441000   88.982600
  H     53.035900   22.663900   87.427200
  S     47.493500   19.611100   86.477200
  C     47.464000   17.851600   86.195500
  C     48.649400   17.352700   85.682700
  C     49.636000   18.378800   85.468200
  C     49.139400   19.669600   85.813400
  H     48.672400   16.308600   85.456200
  C     51.083400   18.154400   84.980000
  H     51.471900   17.577400   85.810800
  H     51.648900   19.040300   85.012700
  C     51.250500   17.411700   83.639300
  H     52.250800   17.590800   83.375000
  H     50.633400   17.960700   82.837500
  C     50.983300   15.912000   83.677500
  H     51.465400   15.468800   84.570200
  H     51.247200   15.360500   82.750200
  H     49.932700   15.738900   83.799200
  H     51.105900   23.901600   84.246600
  H     46.766200   17.254100   86.733400

 Total Charge           Charge          ....    0
 Multiplicity           Mult            ....    1
 Number of Electrons    NEL             ....  134
 Basis Dimension        Dim             ....  322

ORBITAL ENERGIES
----------------

  NO   OCC          E(Eh)            E(eV)
   0   2.0000     -88.964495     -2420.8470
   1   2.0000     -88.962251     -2420.7859
   2   2.0000     -10.328392      -281.0498
   3   2.0000     -10.321065      -280.8504
   4   2.0000     -10.316961      -280.7388
   5   2.0000     -10.312349      -280.6133
   6   2.0000     -10.306643      -280.4580
   7   2.0000     -10.298631      -280.2400
   8   2.0000     -10.297807      -280.2176
   9   2.0000     -10.297047      -280.1969
  10   2.0000     -10.289317      -279.9865
  11   2.0000     -10.288992      -279.9777
  12   2.0000     -10.287917      -279.9484
  13   2.0000     -10.287298      -279.9316
  14   2.0000     -10.284359      -279.8516
  15   2.0000     -10.280657      -279.7509
  16   2.0000      -8.078444      -219.8256
  17   2.0000      -8.078413      -219.8248
  18   2.0000      -6.036868      -164.2715
  19   2.0000      -6.036661      -164.2659
  20   2.0000      -6.033142      -164.1701
  21   2.0000      -6.032516      -164.1531
  22   2.0000      -6.029569      -164.0729
  23   2.0000      -6.029262      -164.0646
  24   2.0000      -1.010898       -27.5079
  25   2.0000      -0.980309       -26.6756
  26   2.0000      -0.915495       -24.9119
  27   2.0000      -0.906746       -24.6738
  28   2.0000      -0.872303       -23.7366
  29   2.0000      -0.846115       -23.0240
  30   2.0000      -0.841179       -22.8897
  31   2.0000      -0.814782       -22.1713
  32   2.0000      -0.784936       -21.3592
  33   2.0000      -0.772650       -21.0249
  34   2.0000      -0.707964       -19.2647
  35   2.0000      -0.701926       -19.1004
  36   2.0000      -0.693445       -18.8696
  37   2.0000      -0.662261       -18.0210
  38   2.0000      -0.648012       -17.6333
  39   2.0000      -0.610814       -16.6211
  40   2.0000      -0.594296       -16.1716
  41   2.0000      -0.579141       -15.7592
  42   2.0000      -0.554378       -15.0854
  43   2.0000      -0.553410       -15.0591
  44   2.0000      -0.541931       -14.7467
  45   2.0000      -0.536910       -14.6101
  46   2.0000      -0.518493       -14.1089
  47   2.0000      -0.504695       -13.7335
  48   2.0000      -0.500701       -13.6248
  49   2.0000      -0.494580       -13.4582
  50   2.0000      -0.488356       -13.2888
  51   2.0000      -0.480900       -13.0860
  52   2.0000      -0.473523       -12.8852
  53   2.0000      -0.465177       -12.6581
  54   2.0000      -0.458341       -12.4721
  55   2.0000      -0.444486       -12.0951
  56   2.0000      -0.442651       -12.0451
  57   2.0000      -0.435828       -11.8595
  58   2.0000      -0.431978       -11.7547
  59   2.0000      -0.431412       -11.7393
  60   2.0000      -0.419066       -11.4034
  61   2.0000      -0.416398       -11.3308
  62   2.0000      -0.410542       -11.1714
  63   2.0000      -0.338589        -9.2135
  64   2.0000      -0.334195        -9.0939
  65   2.0000      -0.324945        -8.8422
  66   2.0000      -0.297529        -8.0962
  67   0.0000       0.032310         0.8792
  68   0.0000       0.066984         1.8227
  69   0.0000       0.108498         2.9524
  70   0.0000       0.117063         3.1854
  71   0.0000       0.131586         3.5807

MULLIKEN ATOMIC CHARGES
-----------------------
   0 S :    0.126785
   1 C :   -0.127387
   2 C :   -0.083867
   3 C :    0.037305
   4 C :   -0.169546
   5 H :   -0.009472
   6 C :    0.068422
   7 H :    0.017503
   8 H :    0.036827
   9 C :   -0.063597
  10 H :    0.034082
  11 H :    0.046200
  12 C :   -0.084553
  13 H :    0.036831
  14 H :    0.023211
  15 H :    0.054460
  16 S :    0.100591
  17 C :   -0.083753
  18 C :   -0.052177
  19 C :   -0.013486
  20 C :   -0.185088
  21 H :    0.022068
  22 C :    0.082420
  23 H :    0.029052
  24 H :    0.013055
  25 C :   -0.057408
  26 H :    0.019001
  27 H :    0.043946
  28 C :   -0.050777
  29 H :    0.031136
  30 H :    0.044529
  31 H :    0.023870
  32 H :    0.033706
  33 H :    0.056110
Sum of atomic charges:    0.0000000

LOEWDIN ATOMIC CHARGES
----------------------
   0 S :    0.444063
   1 C :   -0.202505
   2 C :   -0.067190
   3 C :   -0.061160
   4 C :   -0.219093
   5 H :    0.022711
   6 C :   -0.038774
   7 H :    0.029729
   8 H :    0.034575
   9 C :   -0.041825
  10 H :    0.023640
  11 H :    0.034987
  12 C :   -0.074561
  13 H :    0.025823
  14 H :    0.027306
  15 H :    0.029379
  16 S :    0.386250
  17 C :   -0.171162
  18 C :   -0.069631
  19 C :   -0.042261
  20 C :   -0.196172
  21 H :    0.030665
  22 C :   -0.026287
  23 H :    0.034629
  24 H :    0.023302
  25 C :   -0.039792
  26 H :    0.017897
  27 H :    0.035469
  28 C :   -0.069148
  29 H :    0.028212
  30 H :    0.033038
  31 H :    0.018631
  32 H :    0.017304
  33 H :    0.021952

  Mayer bond orders larger than 0.100000
B(  0-S ,  1-C ) :   1.1818 B(  0-S ,  4-C ) :   1.1570 B(  1-C ,  2-C ) :   1.5547
B(  1-C , 32-H ) :   0.9796 B(  2-C ,  3-C ) :   1.2782 B(  2-C ,  6-C ) :   1.0000
B(  3-C ,  4-C ) :   1.5492 B(  3-C ,  5-H ) :   1.0038 B(  4-C , 20-C ) :   1.0402
B(  6-C ,  7-H ) :   0.9422 B(  6-C ,  8-H ) :   0.9352 B(  6-C ,  9-C ) :   1.0812
B(  9-C , 10-H ) :   0.9572 B(  9-C , 11-H ) :   0.9526 B(  9-C , 12-C ) :   1.0501
B( 12-C , 13-H ) :   0.9785 B( 12-C , 14-H ) :   0.9747 B( 12-C , 15-H ) :   0.9771
B( 16-S , 17-C ) :   1.1490 B( 16-S , 20-C ) :   1.1447 B( 17-C , 18-C ) :   1.6290
B( 17-C , 20-C ) :   0.1081 B( 17-C , 33-H ) :   0.9618 B( 18-C , 19-C ) :   1.2240
B( 18-C , 21-H ) :   0.9880 B( 19-C , 20-C ) :   1.5783 B( 19-C , 22-C ) :   1.0305
B( 22-C , 23-H ) :   0.9335 B( 22-C , 24-H ) :   0.9292 B( 22-C , 25-C ) :   1.0676
B( 25-C , 26-H ) :   0.9549 B( 25-C , 27-H ) :   0.9542 B( 25-C , 28-C ) :   1.0724
B( 28-C , 29-H ) :   0.9739 B( 28-C , 30-H ) :   0.9695 B( 28-C , 31-H ) :   0.9728

Dispersion correction           -0.014616505
FINAL SINGLE POINT ENERGY     -1339.879710537534

DIPOLE MOMENT
-------------
                                X             Y             Z
Electronic contribution:    -18.16136       1.41100      -3.16112
Nuclear contribution   :     18.55636      -1.47527       3.35969
                        -----------------------------------------
Total Dipole Moment    :      0.39500      -0.06428       0.19857
                        -----------------------------------------
Magnitude (a.u.)       :      0.44675
Magnitude (Debye)      :      1.13554

Rotational constants in cm-1:     0.022026     0.007610     0.006642
Rotational constants in MHz :   660.313226   228.130221   199.110635

                             ****ORCA TERMINATED NORMALLY****
TOTAL RUN TIME: 0 days 0 hours 0 minutes 29 seconds 541 msec
