                         Program Version 4.2.1 -  RELEASE  -
|  1> ! wB97X-D3 SP def2-SVP
|  2> %pal
|  3> nprocs 16
|  4> end
|  5>
|  6> * xyz 0 1
|  7> S 	 -10.5949 	 33.6397 	 35.0305
|  8> C 	 -9.71413 	 33.8039 	 33.4715
|  9> C 	 -9.32538 	 35.0965 	 33.2322
| 10> C 	 -9.76182 	 35.9932 	 34.2706
| 11> C 	 -10.3428 	 35.3378 	 35.3104
| 12> H 	 -9.54258 	 36.9993 	 34.4139
| 13> C 	 -8.3968 	 35.6823 	 32.2199
| 14> H 	 -7.45135 	 35.3625 	 32.6264
| 15> H 	 -8.56415 	 36.7813 	 32.2752
| 16> C 	 -8.56571 	 35.2085 	 30.7546
| 17> H 	 -8.46211 	 34.1393 	 30.8637
| 18> H 	 -9.673 	 35.3016 	 30.4763
| 19> C 	 -7.64029 	 35.7928 	 29.7191
| 20> H 	 -6.65763 	 35.4257 	 29.7556
| 21> H 	 -7.99848 	 35.5178 	 28.7311
| 22> H 	 -7.55939 	 36.8834 	 29.7298
| 23> S 	 -10.11 	 36.6039 	 37.6797
| 24> C 	 -11.5964 	 37.3336 	 38.379
| 25> C 	 -12.7499 	 36.9119 	 37.7543
| 26> C 	 -12.4737 	 36.1381 	 36.5853
| 27> C 	 -11.1223 	 35.9194 	 36.3731
| 28> H 	 -13.6941 	 37.2784 	 38.0497
| 29> C 	 -13.4757 	 35.5586 	 35.6262
| 30> H 	 -14.2959 	 35.485 	 36.3615
| 31> H 	 -13.3718 	 34.4926 	 35.3401
| 32> C 	 -13.9326 	 36.45 	 34.5482
| 33> H 	 -13.0359 	 36.5081 	 33.8762
| 34> H 	 -14.1257 	 37.4201 	 34.853
| 35> C 	 -15.2243 	 35.9652 	 33.809
| 36> H 	 -15.1313 	 34.9362 	 33.3604
| 37> H 	 -15.4684 	 36.6627 	 32.9989
| 38> H 	 -16.1081 	 35.9588 	 34.4612
| 39> H 	 -9.38173 	 32.9709 	 32.898
| 40> H 	 -11.6774 	 37.9718 	 39.2068
| 41> *
| 42>
| 43>                          ****END OF INPUT****

CARTESIAN COORDINATES (ANGSTROEM)
---------------------------------
  S    -10.594900   33.639700   35.030500
  C     -9.714130   33.803900   33.471500
  C     -9.325380   35.096500   33.232200
  C     -9.761820   35.993200   34.270600
  C    -10.342800   35.337800   35.310400
  H     -9.542580   36.999300   34.413900
  C     -8.396800   35.682300   32.219900
  H     -7.451350   35.362500   32.626400
  H     -8.564150   36.781300   32.275200
  C     -8.565710   35.208500   30.754600
  H     -8.462110   34.139300   30.863700
  H     -9.673000   35.301600   30.476300
  C     -7.640290   35.792800   29.719100
  H     -6.657630   35.425700   29.755600
  H     -7.998480   35.517800   28.731100
  H     -7.559390   36.883400   29.729800
  S    -10.110000   36.603900   37.679700
  C    -11.596400   37.333600   38.379000
  C    -12.749900   36.911900   37.754300
  C    -12.473700   36.138100   36.585300
  C    -11.122300   35.919400   36.373100
  H    -13.694100   37.278400   38.049700
  C    -13.475700   35.558600   35.626200
  H    -14.295900   35.485000   36.361500
  H    -13.371800   34.492600   35.340100
  C    -13.932600   36.450000   34.548200
  H    -13.035900   36.508100   33.876200
  H    -14.125700   37.420100   34.853000
  C    -15.224300   35.965200   33.809000
  H    -15.131300   34.936200   33.360400
  H    -15.468400   36.662700   32.998900
  H    -16.108100   35.958800   34.461200
  H     -9.381730   32.970900   32.898000
  H    -11.677400   37.971800   39.206800

 Total Charge           Charge          ....    0
 Multiplicity           Mult            ....    1
 Number of Electrons    NEL             ....  134
 Basis Dimension        Dim             ....  322

ORBITAL ENERGIES
----------------

  NO   OCC          E(Eh)            E(eV)
   0   2.0000     -88.965245     -2420.8674
   1   2.0000     -88.963383     -2420.8167
   2   2.0000     -10.322612      -280.8926
   3   2.0000     -10.321623      -280.8656
   4   2.0000     -10.315609      -280.7020
   5   2.0000     -10.313935      -280.6564
   6   2.0000     -10.301718      -280.3240
   7   2.0000     -10.301519      -280.3186
   8   2.0000     -10.293661      -280.1047
   9   2.0000     -10.292898      -280.0840
  10   2.0000     -10.292003      -280.0596
  11   2.0000     -10.288064      -279.9524
  12   2.0000     -10.283359      -279.8244
  13   2.0000     -10.281747      -279.7806
  14   2.0000     -10.278378      -279.6889
  15   2.0000     -10.276707      -279.6434
  16   2.0000      -8.079390      -219.8514
  17   2.0000      -8.076901      -219.7836
  18   2.0000      -6.037956      -164.3011
  19   2.0000      -6.035474      -164.2336
  20   2.0000      -6.034044      -164.1947
  21   2.0000      -6.031663      -164.1299
  22   2.0000      -6.030053      -164.0861
  23   2.0000      -6.027591      -164.0191
  24   2.0000      -1.005571       -27.3630
  25   2.0000      -0.978278       -26.6203
  26   2.0000      -0.914711       -24.8905
  27   2.0000      -0.910348       -24.7718
  28   2.0000      -0.871347       -23.7105
  29   2.0000      -0.854100       -23.2412
  30   2.0000      -0.842743       -22.9322
  31   2.0000      -0.816971       -22.2309
  32   2.0000      -0.786098       -21.3908
  33   2.0000      -0.769004       -20.9257
  34   2.0000      -0.713929       -19.4270
  35   2.0000      -0.703491       -19.1430
  36   2.0000      -0.691472       -18.8159
  37   2.0000      -0.666766       -18.1436
  38   2.0000      -0.647282       -17.6134
  39   2.0000      -0.611467       -16.6388
  40   2.0000      -0.595989       -16.2177
  41   2.0000      -0.574047       -15.6206
  42   2.0000      -0.564000       -15.3472
  43   2.0000      -0.555074       -15.1043
  44   2.0000      -0.526064       -14.3149
  45   2.0000      -0.523250       -14.2384
  46   2.0000      -0.515581       -14.0297
  47   2.0000      -0.514219       -13.9926
  48   2.0000      -0.508447       -13.8356
  49   2.0000      -0.506532       -13.7834
  50   2.0000      -0.496630       -13.5140
  51   2.0000      -0.479957       -13.0603
  52   2.0000      -0.468942       -12.7606
  53   2.0000      -0.460467       -12.5299
  54   2.0000      -0.456843       -12.4313
  55   2.0000      -0.452005       -12.2997
  56   2.0000      -0.447239       -12.1700
  57   2.0000      -0.440916       -11.9979
  58   2.0000      -0.428315       -11.6550
  59   2.0000      -0.425824       -11.5873
  60   2.0000      -0.416585       -11.3359
  61   2.0000      -0.414796       -11.2872
  62   2.0000      -0.398026       -10.8308
  63   2.0000      -0.335812        -9.1379
  64   2.0000      -0.333030        -9.0622
  65   2.0000      -0.325600        -8.8600
  66   2.0000      -0.300978        -8.1900
  67   0.0000       0.036960         1.0057
  68   0.0000       0.060135         1.6364
  69   0.0000       0.103684         2.8214
  70   0.0000       0.111430         3.0322
  71   0.0000       0.124881         3.3982

MULLIKEN ATOMIC CHARGES
-----------------------
   0 S :    0.102114
   1 C :   -0.129909
   2 C :   -0.066068
   3 C :    0.061766
   4 C :   -0.148880
   5 H :   -0.006476
   6 C :    0.062780
   7 H :    0.045363
   8 H :    0.035823
   9 C :   -0.114832
  10 H :    0.018679
  11 H :    0.039869
  12 C :    0.008166
  13 H :    0.018953
  14 H :    0.027852
  15 H :    0.029942
  16 S :    0.089196
  17 C :   -0.061315
  18 C :   -0.020110
  19 C :   -0.014457
  20 C :   -0.189834
  21 H :    0.003363
  22 C :    0.041503
  23 H :    0.000679
  24 H :    0.040629
  25 C :   -0.018834
  26 H :    0.033140
  27 H :    0.004951
  28 C :   -0.071586
  29 H :    0.040784
  30 H :    0.036021
  31 H :    0.031717
  32 H :    0.036825
  33 H :    0.032186
Sum of atomic charges:    0.0000000

LOEWDIN ATOMIC CHARGES
----------------------
   0 S :    0.398755
   1 C :   -0.185267
   2 C :   -0.055755
   3 C :   -0.049085
   4 C :   -0.197926
   5 H :    0.024333
   6 C :   -0.031377
   7 H :    0.037914
   8 H :    0.033060
   9 C :   -0.048667
  10 H :    0.019992
  11 H :    0.033078
  12 C :   -0.062004
  13 H :    0.020301
  14 H :    0.030904
  15 H :    0.027785
  16 S :    0.367530
  17 C :   -0.159556
  18 C :   -0.062013
  19 C :   -0.053691
  20 C :   -0.186598
  21 H :    0.026548
  22 C :   -0.045870
  23 H :    0.028822
  24 H :    0.029882
  25 C :   -0.036697
  26 H :    0.031457
  27 H :    0.014599
  28 C :   -0.068447
  29 H :    0.029750
  30 H :    0.026999
  31 H :    0.023775
  32 H :    0.019249
  33 H :    0.018217

  Mayer bond orders larger than 0.100000
B(  0-S ,  1-C ) :   1.1151 B(  0-S ,  4-C ) :   1.1490 B(  1-C ,  2-C ) :   1.6370
B(  1-C , 32-H ) :   0.9733 B(  2-C ,  3-C ) :   1.2069 B(  2-C ,  6-C ) :   1.0052
B(  3-C ,  4-C ) :   1.6260 B(  3-C ,  5-H ) :   0.9948 B(  4-C , 20-C ) :   0.9829
B(  6-C ,  7-H ) :   0.9338 B(  6-C ,  8-H ) :   0.9429 B(  6-C ,  9-C ) :   1.0583
B(  9-C , 10-H ) :   0.9517 B(  9-C , 11-H ) :   0.9625 B(  9-C , 12-C ) :   1.0871
B( 12-C , 13-H ) :   0.9706 B( 12-C , 14-H ) :   0.9701 B( 12-C , 15-H ) :   0.9739
B( 16-S , 17-C ) :   1.1354 B( 16-S , 20-C ) :   1.1199 B( 17-C , 18-C ) :   1.6458
B( 17-C , 33-H ) :   0.9681 B( 18-C , 19-C ) :   1.2227 B( 18-C , 21-H ) :   0.9908
B( 19-C , 20-C ) :   1.6396 B( 19-C , 22-C ) :   1.0202 B( 22-C , 23-H ) :   0.9213
B( 22-C , 24-H ) :   0.9387 B( 22-C , 25-C ) :   1.0719 B( 25-C , 26-H ) :   0.9488
B( 25-C , 27-H ) :   0.9495 B( 25-C , 28-C ) :   1.0767 B( 28-C , 29-H ) :   0.9755
B( 28-C , 30-H ) :   0.9757 B( 28-C , 31-H ) :   0.9760

Dispersion correction           -0.014295840
FINAL SINGLE POINT ENERGY     -1339.860017980746

DIPOLE MOMENT
-------------
                                X             Y             Z
Electronic contribution:      6.15380      -4.19490      24.88743
Nuclear contribution   :     -6.22308       4.44418     -25.37456
                        -----------------------------------------
Total Dipole Moment    :     -0.06928       0.24928      -0.48713
                        -----------------------------------------
Magnitude (a.u.)       :      0.55158
Magnitude (Debye)      :      1.40199

Rotational constants in cm-1:     0.019078     0.007938     0.006691
Rotational constants in MHz :   571.957500   237.971336   200.583958

                             ****ORCA TERMINATED NORMALLY****
TOTAL RUN TIME: 0 days 0 hours 0 minutes 33 seconds 246 msec
