                         Program Version 4.2.1 -  RELEASE  -
|  1> ! wB97X-D3 SP def2-SVP
|  2> %pal
|  3> nprocs 16
|  4> end
|  5>
|  6> * xyz 0 1
|  7> S 	 -30.0804 	 67.0092 	 117.874
|  8> C 	 -31.4771 	 66.7607 	 118.842
|  9> C 	 -31.1932 	 66.347 	 120.076
| 10> C 	 -29.8048 	 66 	 120.283
| 11> C 	 -29.0715 	 66.0987 	 119.099
| 12> H 	 -29.3336 	 65.6178 	 121.171
| 13> C 	 -32.1919 	 66.34 	 121.21
| 14> H 	 -32.8185 	 67.1914 	 121.03
| 15> H 	 -31.7441 	 66.629 	 122.183
| 16> C 	 -33.0133 	 64.9644 	 121.416
| 17> H 	 -33.693 	 65.1179 	 122.179
| 18> H 	 -33.6755 	 64.6451 	 120.591
| 19> C 	 -32.1088 	 63.6714 	 121.645
| 20> H 	 -31.7461 	 63.2806 	 120.654
| 21> H 	 -31.3187 	 63.8061 	 122.382
| 22> H 	 -32.6526 	 62.905 	 122.024
| 23> S 	 -26.5049 	 67.1551 	 119.165
| 24> C 	 -25.1416 	 66.0797 	 118.827
| 25> C 	 -25.5601 	 64.7921 	 118.506
| 26> C 	 -26.978 	 64.6413 	 118.669
| 27> C 	 -27.6327 	 65.8048 	 118.839
| 28> H 	 -24.8125 	 64.0299 	 118.295
| 29> C 	 -27.6757 	 63.317 	 118.539
| 30> H 	 -27.7155 	 63.1379 	 117.468
| 31> H 	 -28.6495 	 63.4113 	 118.878
| 32> C 	 -26.9902 	 62.0765 	 119.192
| 33> H 	 -26.9934 	 62.0967 	 120.328
| 34> H 	 -25.952 	 61.8481 	 118.761
| 35> C 	 -27.7194 	 60.7752 	 118.874
| 36> H 	 -27.3375 	 60.376 	 117.938
| 37> H 	 -28.763 	 60.9273 	 118.872
| 38> H 	 -27.5728 	 60.0572 	 119.586
| 39> H 	 -32.4433 	 67.1924 	 118.585
| 40> H 	 -24.1824 	 66.3469 	 118.736
| 41> *
| 42>
| 43>                          ****END OF INPUT****

CARTESIAN COORDINATES (ANGSTROEM)
---------------------------------
  S    -30.080400   67.009200  117.874000
  C    -31.477100   66.760700  118.842000
  C    -31.193200   66.347000  120.076000
  C    -29.804800   66.000000  120.283000
  C    -29.071500   66.098700  119.099000
  H    -29.333600   65.617800  121.171000
  C    -32.191900   66.340000  121.210000
  H    -32.818500   67.191400  121.030000
  H    -31.744100   66.629000  122.183000
  C    -33.013300   64.964400  121.416000
  H    -33.693000   65.117900  122.179000
  H    -33.675500   64.645100  120.591000
  C    -32.108800   63.671400  121.645000
  H    -31.746100   63.280600  120.654000
  H    -31.318700   63.806100  122.382000
  H    -32.652600   62.905000  122.024000
  S    -26.504900   67.155100  119.165000
  C    -25.141600   66.079700  118.827000
  C    -25.560100   64.792100  118.506000
  C    -26.978000   64.641300  118.669000
  C    -27.632700   65.804800  118.839000
  H    -24.812500   64.029900  118.295000
  C    -27.675700   63.317000  118.539000
  H    -27.715500   63.137900  117.468000
  H    -28.649500   63.411300  118.878000
  C    -26.990200   62.076500  119.192000
  H    -26.993400   62.096700  120.328000
  H    -25.952000   61.848100  118.761000
  C    -27.719400   60.775200  118.874000
  H    -27.337500   60.376000  117.938000
  H    -28.763000   60.927300  118.872000
  H    -27.572800   60.057200  119.586000
  H    -32.443300   67.192400  118.585000
  H    -24.182400   66.346900  118.736000

 Total Charge           Charge          ....    0
 Multiplicity           Mult            ....    1
 Number of Electrons    NEL             ....  134
 Basis Dimension        Dim             ....  322

ORBITAL ENERGIES
----------------

  NO   OCC          E(Eh)            E(eV)
   0   2.0000     -88.961576     -2420.7676
   1   2.0000     -88.960648     -2420.7423
   2   2.0000     -10.335471      -281.2425
   3   2.0000     -10.322714      -280.8953
   4   2.0000     -10.311652      -280.5943
   5   2.0000     -10.306646      -280.4581
   6   2.0000     -10.300013      -280.2776
   7   2.0000     -10.298817      -280.2451
   8   2.0000     -10.296826      -280.1909
   9   2.0000     -10.296662      -280.1864
  10   2.0000     -10.295074      -280.1432
  11   2.0000     -10.294264      -280.1212
  12   2.0000     -10.291925      -280.0575
  13   2.0000     -10.285388      -279.8796
  14   2.0000     -10.276929      -279.6494
  15   2.0000     -10.264305      -279.3059
  16   2.0000      -8.075646      -219.7495
  17   2.0000      -8.075216      -219.7378
  18   2.0000      -6.034322      -164.2023
  19   2.0000      -6.033774      -164.1873
  20   2.0000      -6.030361      -164.0945
  21   2.0000      -6.029960      -164.0835
  22   2.0000      -6.026144      -163.9797
  23   2.0000      -6.025711      -163.9679
  24   2.0000      -1.000292       -27.2193
  25   2.0000      -0.982471       -26.7344
  26   2.0000      -0.907370       -24.6908
  27   2.0000      -0.896218       -24.3873
  28   2.0000      -0.866465       -23.5777
  29   2.0000      -0.853161       -23.2157
  30   2.0000      -0.842446       -22.9241
  31   2.0000      -0.817483       -22.2448
  32   2.0000      -0.783607       -21.3230
  33   2.0000      -0.772819       -21.0295
  34   2.0000      -0.708812       -19.2878
  35   2.0000      -0.701723       -19.0949
  36   2.0000      -0.697165       -18.9708
  37   2.0000      -0.658920       -17.9301
  38   2.0000      -0.642922       -17.4948
  39   2.0000      -0.610138       -16.6027
  40   2.0000      -0.596677       -16.2364
  41   2.0000      -0.572236       -15.5713
  42   2.0000      -0.568965       -15.4823
  43   2.0000      -0.542752       -14.7690
  44   2.0000      -0.537346       -14.6219
  45   2.0000      -0.528812       -14.3897
  46   2.0000      -0.516365       -14.0510
  47   2.0000      -0.511817       -13.9273
  48   2.0000      -0.509753       -13.8711
  49   2.0000      -0.496934       -13.5222
  50   2.0000      -0.481924       -13.1138
  51   2.0000      -0.478056       -13.0086
  52   2.0000      -0.470155       -12.7936
  53   2.0000      -0.463164       -12.6033
  54   2.0000      -0.456713       -12.4278
  55   2.0000      -0.452380       -12.3099
  56   2.0000      -0.442623       -12.0444
  57   2.0000      -0.435033       -11.8378
  58   2.0000      -0.425677       -11.5833
  59   2.0000      -0.425359       -11.5746
  60   2.0000      -0.422478       -11.4962
  61   2.0000      -0.418607       -11.3909
  62   2.0000      -0.415363       -11.3026
  63   2.0000      -0.335293        -9.1238
  64   2.0000      -0.325844        -8.8667
  65   2.0000      -0.321096        -8.7375
  66   2.0000      -0.309335        -8.4174
  67   0.0000       0.042644         1.1604
  68   0.0000       0.052905         1.4396
  69   0.0000       0.107934         2.9370
  70   0.0000       0.117338         3.1929
  71   0.0000       0.126417         3.4400

MULLIKEN ATOMIC CHARGES
-----------------------
   0 S :    0.092215
   1 C :   -0.099732
   2 C :   -0.091836
   3 C :    0.075106
   4 C :   -0.204186
   5 H :    0.015341
   6 C :    0.056972
   7 H :    0.015704
   8 H :    0.030491
   9 C :   -0.050306
  10 H :    0.014344
  11 H :    0.029934
  12 C :   -0.046543
  13 H :    0.047530
  14 H :    0.027802
  15 H :    0.007559
  16 S :    0.096313
  17 C :   -0.034009
  18 C :   -0.040712
  19 C :   -0.015505
  20 C :   -0.162702
  21 H :    0.025226
  22 C :    0.117317
  23 H :    0.036993
  24 H :    0.007743
  25 C :   -0.146277
  26 H :    0.044431
  27 H :    0.040220
  28 C :    0.006993
  29 H :    0.028167
  30 H :    0.014320
  31 H :    0.007500
  32 H :    0.047252
  33 H :    0.006335
Sum of atomic charges:   -0.0000000

LOEWDIN ATOMIC CHARGES
----------------------
   0 S :    0.377996
   1 C :   -0.197133
   2 C :   -0.075380
   3 C :   -0.045030
   4 C :   -0.172077
   5 H :    0.032716
   6 C :   -0.030019
   7 H :    0.026679
   8 H :    0.034682
   9 C :   -0.030057
  10 H :    0.010367
  11 H :    0.028190
  12 C :   -0.063607
  13 H :    0.034655
  14 H :    0.022315
  15 H :    0.011381
  16 S :    0.377302
  17 C :   -0.149848
  18 C :   -0.066694
  19 C :   -0.049588
  20 C :   -0.197442
  21 H :    0.033414
  22 C :   -0.023654
  23 H :    0.039806
  24 H :    0.020701
  25 C :   -0.044834
  26 H :    0.030425
  27 H :    0.030576
  28 C :   -0.056902
  29 H :    0.024980
  30 H :    0.018776
  31 H :    0.014371
  32 H :    0.030697
  33 H :    0.002236

  Mayer bond orders larger than 0.100000
B(  0-S ,  1-C ) :   1.1328 B(  0-S ,  4-C ) :   1.1317 B(  1-C ,  2-C ) :   1.6647
B(  1-C , 32-H ) :   0.9595 B(  2-C ,  3-C ) :   1.1969 B(  2-C ,  6-C ) :   1.0159
B(  3-C ,  4-C ) :   1.6070 B(  3-C ,  5-H ) :   1.0010 B(  4-C , 20-C ) :   0.9983
B(  6-C ,  7-H ) :   0.9430 B(  6-C ,  8-H ) :   0.9494 B(  6-C ,  9-C ) :   1.0552
B(  9-C , 10-H ) :   0.9626 B(  9-C , 11-H ) :   0.9611 B(  9-C , 12-C ) :   1.0705
B( 12-C , 13-H ) :   0.9761 B( 12-C , 14-H ) :   0.9779 B( 12-C , 15-H ) :   0.9721
B( 16-S , 17-C ) :   1.1467 B( 16-S , 20-C ) :   1.1145 B( 17-C , 18-C ) :   1.6492
B( 17-C , 33-H ) :   0.9763 B( 18-C , 19-C ) :   1.1891 B( 18-C , 21-H ) :   0.9869
B( 19-C , 20-C ) :   1.6698 B( 19-C , 22-C ) :   1.0473 B( 22-C , 23-H ) :   0.9318
B( 22-C , 24-H ) :   0.9230 B( 22-C , 25-C ) :   1.0653 B( 25-C , 26-H ) :   0.9614
B( 25-C , 27-H ) :   0.9558 B( 25-C , 28-C ) :   1.0819 B( 28-C , 29-H ) :   0.9783
B( 28-C , 30-H ) :   0.9701 B( 28-C , 31-H ) :   0.9723

Dispersion correction           -0.014254812
FINAL SINGLE POINT ENERGY     -1339.845437478896

DIPOLE MOMENT
-------------
                                X             Y             Z
Electronic contribution:     10.62702      25.25665     -10.59093
Nuclear contribution   :    -10.82395     -25.82399      10.99982
                        -----------------------------------------
Total Dipole Moment    :     -0.19693      -0.56734       0.40889
                        -----------------------------------------
Magnitude (a.u.)       :      0.72653
Magnitude (Debye)      :      1.84670

Rotational constants in cm-1:     0.016188     0.009412     0.006838
Rotational constants in MHz :   485.295699   282.161967   205.004172

                             ****ORCA TERMINATED NORMALLY****
TOTAL RUN TIME: 0 days 0 hours 0 minutes 27 seconds 557 msec
