                         Program Version 4.2.1 -  RELEASE  -
|  1> ! wB97X-D3 SP def2-SVP
|  2> %pal
|  3> nprocs 16
|  4> end
|  5>
|  6> * xyz 0 1
|  7> S 	 -12.9127 	 67.8819 	 55.9912
|  8> C 	 -12.9672 	 66.2802 	 56.6566
|  9> C 	 -12.3045 	 65.3894 	 55.8172
| 10> C 	 -11.4965 	 66.0501 	 54.8455
| 11> C 	 -11.6806 	 67.4449 	 54.8494
| 12> H 	 -10.9381 	 65.5425 	 54.0741
| 13> C 	 -12.3162 	 63.8619 	 56.1595
| 14> H 	 -13.0517 	 63.8097 	 56.9617
| 15> H 	 -11.4898 	 63.5867 	 56.7002
| 16> C 	 -12.7042 	 62.806 	 55.0996
| 17> H 	 -13.6073 	 63.119 	 54.6367
| 18> H 	 -11.965 	 62.657 	 54.2733
| 19> C 	 -13.0247 	 61.4855 	 55.828
| 20> H 	 -13.8802 	 61.5291 	 56.5311
| 21> H 	 -13.3028 	 60.7758 	 55.0801
| 22> H 	 -12.1453 	 61.043 	 56.344
| 23> S 	 -12.126 	 69.4151 	 52.998
| 24> C 	 -10.8494 	 70.4475 	 52.5147
| 25> C 	 -9.71779 	 70.1302 	 53.213
| 26> C 	 -9.82776 	 68.9293 	 53.9121
| 27> C 	 -11.0947 	 68.405 	 53.9587
| 28> H 	 -8.8448 	 70.8075 	 53.1145
| 29> C 	 -8.65373 	 68.2789 	 54.7171
| 30> H 	 -9.12322 	 67.9989 	 55.6696
| 31> H 	 -8.03551 	 69.132 	 54.982
| 32> C 	 -7.7833 	 67.085 	 54.0745
| 33> H 	 -7.36312 	 67.4094 	 53.1256
| 34> H 	 -8.52125 	 66.2413 	 53.8515
| 35> C 	 -6.53879 	 66.6785 	 54.9545
| 36> H 	 -5.80191 	 67.4681 	 55.0084
| 37> H 	 -6.12961 	 65.7624 	 54.557
| 38> H 	 -6.737 	 66.4395 	 56.0058
| 39> H 	 -13.6272 	 65.9561 	 57.4687
| 40> H 	 -10.8874 	 71.354 	 52.091
| 41> *
| 42>
| 43>                          ****END OF INPUT****

CARTESIAN COORDINATES (ANGSTROEM)
---------------------------------
  S    -12.912700   67.881900   55.991200
  C    -12.967200   66.280200   56.656600
  C    -12.304500   65.389400   55.817200
  C    -11.496500   66.050100   54.845500
  C    -11.680600   67.444900   54.849400
  H    -10.938100   65.542500   54.074100
  C    -12.316200   63.861900   56.159500
  H    -13.051700   63.809700   56.961700
  H    -11.489800   63.586700   56.700200
  C    -12.704200   62.806000   55.099600
  H    -13.607300   63.119000   54.636700
  H    -11.965000   62.657000   54.273300
  C    -13.024700   61.485500   55.828000
  H    -13.880200   61.529100   56.531100
  H    -13.302800   60.775800   55.080100
  H    -12.145300   61.043000   56.344000
  S    -12.126000   69.415100   52.998000
  C    -10.849400   70.447500   52.514700
  C     -9.717790   70.130200   53.213000
  C     -9.827760   68.929300   53.912100
  C    -11.094700   68.405000   53.958700
  H     -8.844800   70.807500   53.114500
  C     -8.653730   68.278900   54.717100
  H     -9.123220   67.998900   55.669600
  H     -8.035510   69.132000   54.982000
  C     -7.783300   67.085000   54.074500
  H     -7.363120   67.409400   53.125600
  H     -8.521250   66.241300   53.851500
  C     -6.538790   66.678500   54.954500
  H     -5.801910   67.468100   55.008400
  H     -6.129610   65.762400   54.557000
  H     -6.737000   66.439500   56.005800
  H    -13.627200   65.956100   57.468700
  H    -10.887400   71.354000   52.091000

 Total Charge           Charge          ....    0
 Multiplicity           Mult            ....    1
 Number of Electrons    NEL             ....  134
 Basis Dimension        Dim             ....  322

ORBITAL ENERGIES
----------------

  NO   OCC          E(Eh)            E(eV)
   0   2.0000     -88.968890     -2420.9666
   1   2.0000     -88.962916     -2420.8040
   2   2.0000     -10.330126      -281.0970
   3   2.0000     -10.319197      -280.7996
   4   2.0000     -10.314746      -280.6785
   5   2.0000     -10.303922      -280.3840
   6   2.0000     -10.301948      -280.3303
   7   2.0000     -10.299982      -280.2768
   8   2.0000     -10.298175      -280.2276
   9   2.0000     -10.296962      -280.1946
  10   2.0000     -10.291860      -280.0557
  11   2.0000     -10.290698      -280.0241
  12   2.0000     -10.289068      -279.9798
  13   2.0000     -10.287900      -279.9480
  14   2.0000     -10.281572      -279.7758
  15   2.0000     -10.279696      -279.7247
  16   2.0000      -8.083885      -219.9737
  17   2.0000      -8.078624      -219.8305
  18   2.0000      -6.042226      -164.4173
  19   2.0000      -6.038392      -164.3130
  20   2.0000      -6.036982      -164.2746
  21   2.0000      -6.034743      -164.2137
  22   2.0000      -6.032873      -164.1628
  23   2.0000      -6.029590      -164.0735
  24   2.0000      -1.014577       -27.6081
  25   2.0000      -0.989694       -26.9309
  26   2.0000      -0.909065       -24.7369
  27   2.0000      -0.890170       -24.2228
  28   2.0000      -0.874465       -23.7954
  29   2.0000      -0.848896       -23.0996
  30   2.0000      -0.845367       -23.0036
  31   2.0000      -0.817917       -22.2567
  32   2.0000      -0.780416       -21.2362
  33   2.0000      -0.769635       -20.9428
  34   2.0000      -0.714978       -19.4555
  35   2.0000      -0.699652       -19.0385
  36   2.0000      -0.696372       -18.9492
  37   2.0000      -0.660332       -17.9685
  38   2.0000      -0.643527       -17.5113
  39   2.0000      -0.620208       -16.8767
  40   2.0000      -0.585488       -15.9319
  41   2.0000      -0.574377       -15.6296
  42   2.0000      -0.561762       -15.2863
  43   2.0000      -0.551275       -15.0010
  44   2.0000      -0.525323       -14.2948
  45   2.0000      -0.519283       -14.1304
  46   2.0000      -0.515869       -14.0375
  47   2.0000      -0.510985       -13.9046
  48   2.0000      -0.503733       -13.7073
  49   2.0000      -0.502030       -13.6609
  50   2.0000      -0.494686       -13.4611
  51   2.0000      -0.475033       -12.9263
  52   2.0000      -0.472346       -12.8532
  53   2.0000      -0.466622       -12.6974
  54   2.0000      -0.460957       -12.5433
  55   2.0000      -0.450035       -12.2461
  56   2.0000      -0.441076       -12.0023
  57   2.0000      -0.439653       -11.9636
  58   2.0000      -0.431292       -11.7361
  59   2.0000      -0.426376       -11.6023
  60   2.0000      -0.419428       -11.4132
  61   2.0000      -0.416843       -11.3429
  62   2.0000      -0.411233       -11.1902
  63   2.0000      -0.342108        -9.3092
  64   2.0000      -0.332900        -9.0587
  65   2.0000      -0.329629        -8.9697
  66   2.0000      -0.296610        -8.0712
  67   0.0000       0.032372         0.8809
  68   0.0000       0.060631         1.6498
  69   0.0000       0.117056         3.1853
  70   0.0000       0.131509         3.5785
  71   0.0000       0.134750         3.6667

MULLIKEN ATOMIC CHARGES
-----------------------
   0 S :    0.132135
   1 C :   -0.133927
   2 C :   -0.080858
   3 C :    0.039495
   4 C :   -0.167268
   5 H :    0.019338
   6 C :    0.080937
   7 H :   -0.008881
   8 H :    0.014903
   9 C :   -0.054782
  10 H :    0.022958
  11 H :    0.042795
  12 C :   -0.075493
  13 H :    0.040440
  14 H :    0.026213
  15 H :    0.037252
  16 S :    0.105090
  17 C :   -0.024932
  18 C :   -0.082293
  19 C :   -0.033121
  20 C :   -0.159298
  21 H :    0.030644
  22 C :    0.056521
  23 H :    0.037970
  24 H :    0.007906
  25 C :   -0.062576
  26 H :    0.032225
  27 H :    0.038847
  28 C :   -0.048120
  29 H :    0.033414
  30 H :    0.033246
  31 H :    0.028808
  32 H :    0.060259
  33 H :    0.010152
Sum of atomic charges:   -0.0000000

LOEWDIN ATOMIC CHARGES
----------------------
   0 S :    0.428181
   1 C :   -0.208880
   2 C :   -0.060840
   3 C :   -0.058165
   4 C :   -0.200098
   5 H :    0.030252
   6 C :   -0.027805
   7 H :    0.028796
   8 H :    0.018479
   9 C :   -0.036737
  10 H :    0.021866
  11 H :    0.028624
  12 C :   -0.066826
  13 H :    0.028335
  14 H :    0.022739
  15 H :    0.027407
  16 S :    0.429656
  17 C :   -0.184960
  18 C :   -0.074730
  19 C :   -0.059131
  20 C :   -0.213025
  21 H :    0.038272
  22 C :   -0.033750
  23 H :    0.031893
  24 H :    0.023592
  25 C :   -0.035422
  26 H :    0.023638
  27 H :    0.028791
  28 C :   -0.066874
  29 H :    0.024512
  30 H :    0.026502
  31 H :    0.025382
  32 H :    0.032292
  33 H :    0.008032

  Mayer bond orders larger than 0.100000
B(  0-S ,  1-C ) :   1.1531 B(  0-S ,  4-C ) :   1.1661 B(  1-C ,  2-C ) :   1.5879
B(  1-C ,  4-C ) :   0.1041 B(  1-C , 32-H ) :   0.9624 B(  2-C ,  3-C ) :   1.2681
B(  2-C ,  6-C ) :   1.0104 B(  3-C ,  4-C ) :   1.5332 B(  3-C ,  5-H ) :   0.9942
B(  4-C , 20-C ) :   1.0587 B(  6-C ,  7-H ) :   0.9370 B(  6-C ,  8-H ) :   0.9445
B(  6-C ,  9-C ) :   1.0568 B(  9-C , 10-H ) :   0.9546 B(  9-C , 11-H ) :   0.9560
B(  9-C , 12-C ) :   1.0870 B( 12-C , 13-H ) :   0.9749 B( 12-C , 14-H ) :   0.9732
B( 12-C , 15-H ) :   0.9759 B( 16-S , 17-C ) :   1.1711 B( 16-S , 20-C ) :   1.1467
B( 17-C , 18-C ) :   1.5970 B( 17-C , 33-H ) :   0.9701 B( 18-C , 19-C ) :   1.2847
B( 18-C , 21-H ) :   0.9857 B( 19-C , 20-C ) :   1.5706 B( 19-C , 22-C ) :   1.0238
B( 22-C , 23-H ) :   0.9332 B( 22-C , 24-H ) :   0.9413 B( 22-C , 25-C ) :   1.0476
B( 25-C , 26-H ) :   0.9578 B( 25-C , 27-H ) :   0.9566 B( 25-C , 28-C ) :   1.0686
B( 28-C , 29-H ) :   0.9770 B( 28-C , 30-H ) :   0.9754 B( 28-C , 31-H ) :   0.9783

Dispersion correction           -0.013620181
FINAL SINGLE POINT ENERGY     -1339.862654339079

DIPOLE MOMENT
-------------
                                X             Y             Z
Electronic contribution:    -14.79189      25.07440      -5.19831
Nuclear contribution   :     15.10360     -25.46418       5.36498
                        -----------------------------------------
Total Dipole Moment    :      0.31171      -0.38978       0.16667
                        -----------------------------------------
Magnitude (a.u.)       :      0.52619
Magnitude (Debye)      :      1.33746

Rotational constants in cm-1:     0.017675     0.008141     0.006347
Rotational constants in MHz :   529.893859   244.066152   190.268515

                             ****ORCA TERMINATED NORMALLY****
TOTAL RUN TIME: 0 days 0 hours 0 minutes 30 seconds 403 msec
