                         Program Version 4.2.1 -  RELEASE  -
|  1> ! wB97X-D3 SP def2-SVP
|  2> %pal
|  3> nprocs 16
|  4> end
|  5>
|  6> * xyz 0 1
|  7> S 	 54.1125 	 18.8064 	 80.3854
|  8> C 	 55.2958 	 18.9431 	 81.5929
|  9> C 	 54.723 	 19.5894 	 82.7032
| 10> C 	 53.4825 	 20.1745 	 82.4408
| 11> C 	 53.0141 	 19.9938 	 81.1703
| 12> H 	 52.9457 	 20.7954 	 83.1394
| 13> C 	 55.4388 	 19.8726 	 83.995
| 14> H 	 54.7547 	 20.3375 	 84.7256
| 15> H 	 56.2949 	 20.5713 	 83.8503
| 16> C 	 56.0004 	 18.6019 	 84.6845
| 17> H 	 56.257 	 18.9348 	 85.7347
| 18> H 	 55.1809 	 17.8875 	 84.8929
| 19> C 	 57.2779 	 18.0172 	 84.1704
| 20> H 	 57.0324 	 17.1178 	 83.6293
| 21> H 	 57.8579 	 18.673 	 83.472
| 22> H 	 57.8632 	 17.7175 	 85.0406
| 23> S 	 50.9022 	 19.0132 	 79.7618
| 24> C 	 49.7545 	 20.1372 	 79.0548
| 25> C 	 49.9406 	 21.4415 	 79.4292
| 26> C 	 51.0094 	 21.5688 	 80.3523
| 27> C 	 51.7373 	 20.3697 	 80.5535
| 28> H 	 49.3361 	 22.2716 	 79.0845
| 29> C 	 51.4176 	 22.8436 	 80.9928
| 30> H 	 52.4012 	 22.8212 	 81.4526
| 31> H 	 50.6511 	 22.9708 	 81.6865
| 32> C 	 51.4109 	 24.0778 	 80.1062
| 33> H 	 50.3656 	 24.4552 	 80.1031
| 34> H 	 51.5273 	 23.7895 	 79.0586
| 35> C 	 52.3985 	 25.2466 	 80.4175
| 36> H 	 52.1948 	 25.6744 	 81.4088
| 37> H 	 52.3012 	 26.0593 	 79.678
| 38> H 	 53.4451 	 24.9012 	 80.4161
| 39> H 	 56.2177 	 18.4819 	 81.5429
| 40> H 	 49.0242 	 19.8253 	 78.3864
| 41> *
| 42>
| 43>                          ****END OF INPUT****

CARTESIAN COORDINATES (ANGSTROEM)
---------------------------------
  S     54.112500   18.806400   80.385400
  C     55.295800   18.943100   81.592900
  C     54.723000   19.589400   82.703200
  C     53.482500   20.174500   82.440800
  C     53.014100   19.993800   81.170300
  H     52.945700   20.795400   83.139400
  C     55.438800   19.872600   83.995000
  H     54.754700   20.337500   84.725600
  H     56.294900   20.571300   83.850300
  C     56.000400   18.601900   84.684500
  H     56.257000   18.934800   85.734700
  H     55.180900   17.887500   84.892900
  C     57.277900   18.017200   84.170400
  H     57.032400   17.117800   83.629300
  H     57.857900   18.673000   83.472000
  H     57.863200   17.717500   85.040600
  S     50.902200   19.013200   79.761800
  C     49.754500   20.137200   79.054800
  C     49.940600   21.441500   79.429200
  C     51.009400   21.568800   80.352300
  C     51.737300   20.369700   80.553500
  H     49.336100   22.271600   79.084500
  C     51.417600   22.843600   80.992800
  H     52.401200   22.821200   81.452600
  H     50.651100   22.970800   81.686500
  C     51.410900   24.077800   80.106200
  H     50.365600   24.455200   80.103100
  H     51.527300   23.789500   79.058600
  C     52.398500   25.246600   80.417500
  H     52.194800   25.674400   81.408800
  H     52.301200   26.059300   79.678000
  H     53.445100   24.901200   80.416100
  H     56.217700   18.481900   81.542900
  H     49.024200   19.825300   78.386400

 Total Charge           Charge          ....    0
 Multiplicity           Mult            ....    1
 Number of Electrons    NEL             ....  134
 Basis Dimension        Dim             ....  322

ORBITAL ENERGIES
----------------

  NO   OCC          E(Eh)            E(eV)
   0   2.0000     -88.963882     -2420.8303
   1   2.0000     -88.962981     -2420.8058
   2   2.0000     -10.330976      -281.1201
   3   2.0000     -10.329385      -281.0769
   4   2.0000     -10.312775      -280.6249
   5   2.0000     -10.308955      -280.5209
   6   2.0000     -10.305183      -280.4183
   7   2.0000     -10.296491      -280.1818
   8   2.0000     -10.294298      -280.1221
   9   2.0000     -10.292778      -280.0807
  10   2.0000     -10.289034      -279.9788
  11   2.0000     -10.286527      -279.9106
  12   2.0000     -10.286331      -279.9053
  13   2.0000     -10.285457      -279.8815
  14   2.0000     -10.281924      -279.7854
  15   2.0000     -10.279139      -279.7096
  16   2.0000      -8.078265      -219.8208
  17   2.0000      -8.078026      -219.8143
  18   2.0000      -6.036732      -164.2678
  19   2.0000      -6.036462      -164.2605
  20   2.0000      -6.032876      -164.1629
  21   2.0000      -6.032378      -164.1494
  22   2.0000      -6.029037      -164.0584
  23   2.0000      -6.028942      -164.0559
  24   2.0000      -1.006473       -27.3875
  25   2.0000      -0.985497       -26.8167
  26   2.0000      -0.912670       -24.8350
  27   2.0000      -0.908920       -24.7330
  28   2.0000      -0.869873       -23.6704
  29   2.0000      -0.855748       -23.2861
  30   2.0000      -0.846534       -23.0354
  31   2.0000      -0.817041       -22.2328
  32   2.0000      -0.783632       -21.3237
  33   2.0000      -0.771210       -20.9857
  34   2.0000      -0.705456       -19.1964
  35   2.0000      -0.701311       -19.0836
  36   2.0000      -0.690489       -18.7892
  37   2.0000      -0.657748       -17.8982
  38   2.0000      -0.648416       -17.6443
  39   2.0000      -0.620007       -16.8713
  40   2.0000      -0.602349       -16.3908
  41   2.0000      -0.572862       -15.5884
  42   2.0000      -0.569977       -15.5099
  43   2.0000      -0.545487       -14.8435
  44   2.0000      -0.542156       -14.7528
  45   2.0000      -0.523420       -14.2430
  46   2.0000      -0.521198       -14.1825
  47   2.0000      -0.514090       -13.9891
  48   2.0000      -0.504434       -13.7263
  49   2.0000      -0.502101       -13.6629
  50   2.0000      -0.488307       -13.2875
  51   2.0000      -0.483797       -13.1648
  52   2.0000      -0.478860       -13.0304
  53   2.0000      -0.470661       -12.8073
  54   2.0000      -0.461428       -12.5561
  55   2.0000      -0.451889       -12.2965
  56   2.0000      -0.444650       -12.0995
  57   2.0000      -0.437194       -11.8967
  58   2.0000      -0.426582       -11.6079
  59   2.0000      -0.424428       -11.5493
  60   2.0000      -0.422068       -11.4850
  61   2.0000      -0.407387       -11.0856
  62   2.0000      -0.398664       -10.8482
  63   2.0000      -0.353168        -9.6102
  64   2.0000      -0.332208        -9.0398
  65   2.0000      -0.325125        -8.8471
  66   2.0000      -0.283056        -7.7024
  67   0.0000       0.026032         0.7084
  68   0.0000       0.061996         1.6870
  69   0.0000       0.110307         3.0016
  70   0.0000       0.125664         3.4195
  71   0.0000       0.138835         3.7779

MULLIKEN ATOMIC CHARGES
-----------------------
   0 S :    0.106630
   1 C :   -0.088899
   2 C :   -0.062370
   3 C :    0.033536
   4 C :   -0.136934
   5 H :    0.009479
   6 C :    0.038752
   7 H :    0.022571
   8 H :    0.045644
   9 C :   -0.124256
  10 H :    0.022507
  11 H :    0.036706
  12 C :   -0.041092
  13 H :    0.032968
  14 H :    0.041556
  15 H :    0.038827
  16 S :    0.091307
  17 C :   -0.056874
  18 C :   -0.023682
  19 C :   -0.064767
  20 C :   -0.172132
  21 H :    0.021530
  22 C :    0.141378
  23 H :    0.024130
  24 H :    0.022967
  25 C :   -0.135165
  26 H :    0.022476
  27 H :    0.032927
  28 C :   -0.052900
  29 H :    0.033033
  30 H :    0.040833
  31 H :    0.042867
  32 H :    0.024098
  33 H :    0.032348
Sum of atomic charges:   -0.0000000

LOEWDIN ATOMIC CHARGES
----------------------
   0 S :    0.412828
   1 C :   -0.196407
   2 C :   -0.069295
   3 C :   -0.063517
   4 C :   -0.182052
   5 H :    0.031143
   6 C :   -0.034887
   7 H :    0.031472
   8 H :    0.035521
   9 C :   -0.053597
  10 H :    0.025148
  11 H :    0.027658
  12 C :   -0.073125
  13 H :    0.024317
  14 H :    0.029197
  15 H :    0.032233
  16 S :    0.389979
  17 C :   -0.164830
  18 C :   -0.071169
  19 C :   -0.048308
  20 C :   -0.189940
  21 H :    0.035737
  22 C :   -0.031294
  23 H :    0.031490
  24 H :    0.031079
  25 C :   -0.049322
  26 H :    0.022360
  27 H :    0.022392
  28 C :   -0.065691
  29 H :    0.024547
  30 H :    0.031156
  31 H :    0.027825
  32 H :    0.013510
  33 H :    0.013841

  Mayer bond orders larger than 0.100000
B(  0-S ,  1-C ) :   1.1677 B(  0-S ,  4-C ) :   1.1498 B(  1-C ,  2-C ) :   1.5349
B(  1-C ,  4-C ) :   0.1099 B(  1-C , 32-H ) :   0.9833 B(  2-C ,  3-C ) :   1.2892
B(  2-C ,  6-C ) :   1.0257 B(  3-C ,  4-C ) :   1.5381 B(  3-C ,  5-H ) :   0.9980
B(  4-C , 20-C ) :   1.0547 B(  6-C ,  7-H ) :   0.9427 B(  6-C ,  8-H ) :   0.9422
B(  6-C ,  9-C ) :   1.0798 B(  9-C , 10-H ) :   0.9659 B(  9-C , 11-H ) :   0.9564
B(  9-C , 12-C ) :   1.0612 B( 12-C , 13-H ) :   0.9735 B( 12-C , 14-H ) :   0.9738
B( 12-C , 15-H ) :   0.9741 B( 16-S , 17-C ) :   1.1560 B( 16-S , 20-C ) :   1.1318
B( 17-C , 18-C ) :   1.5979 B( 17-C , 33-H ) :   0.9731 B( 18-C , 19-C ) :   1.2457
B( 18-C , 21-H ) :   0.9918 B( 19-C , 20-C ) :   1.5877 B( 19-C , 22-C ) :   1.0445
B( 22-C , 23-H ) :   0.9415 B( 22-C , 24-H ) :   0.9142 B( 22-C , 25-C ) :   1.0522
B( 25-C , 26-H ) :   0.9474 B( 25-C , 27-H ) :   0.9669 B( 25-C , 28-C ) :   1.0890
B( 28-C , 29-H ) :   0.9757 B( 28-C , 30-H ) :   0.9746 B( 28-C , 31-H ) :   0.9742

Dispersion correction           -0.013593022
FINAL SINGLE POINT ENERGY     -1339.869619336352

DIPOLE MOMENT
-------------
                                X             Y             Z
Electronic contribution:    -11.50618     -15.76855     -14.27368
Nuclear contribution   :     11.56534      16.24877      14.66116
                        -----------------------------------------
Total Dipole Moment    :      0.05916       0.48022       0.38748
                        -----------------------------------------
Magnitude (a.u.)       :      0.61988
Magnitude (Debye)      :      1.57561

Rotational constants in cm-1:     0.020707     0.007593     0.006047
Rotational constants in MHz :   620.773221   227.629587   181.290816

                             ****ORCA TERMINATED NORMALLY****
TOTAL RUN TIME: 0 days 0 hours 0 minutes 29 seconds 67 msec
