                         Program Version 4.2.1 -  RELEASE  -
|  1> ! wB97X-D3 SP def2-SVP
|  2> %pal
|  3> nprocs 16
|  4> end
|  5>
|  6> * xyz 0 1
|  7> S 	 -6.07229 	 -5.73962 	 83.2388
|  8> C 	 -6.75667 	 -7.31387 	 82.7294
|  9> C 	 -5.8612 	 -8.36192 	 82.8654
| 10> C 	 -4.56954 	 -7.821 	 83.2034
| 11> C 	 -4.4616 	 -6.42618 	 83.4169
| 12> H 	 -3.69512 	 -8.36907 	 83.3531
| 13> C 	 -6.12496 	 -9.77294 	 82.5113
| 14> H 	 -6.473 	 -9.76522 	 81.4428
| 15> H 	 -6.97663 	 -10.0666 	 83.0223
| 16> C 	 -5.04861 	 -10.8153 	 82.7251
| 17> H 	 -5.39709 	 -11.7996 	 82.4584
| 18> H 	 -4.13416 	 -10.6794 	 82.0945
| 19> C 	 -4.6243 	 -10.9449 	 84.166
| 20> H 	 -5.48491 	 -11.2146 	 84.7246
| 21> H 	 -3.95225 	 -11.807 	 84.2399
| 22> H 	 -4.18029 	 -9.99135 	 84.5735
| 23> S 	 -2.83203 	 -4.19669 	 83.0011
| 24> C 	 -1.55016 	 -3.85133 	 84.1162
| 25> C 	 -1.64102 	 -4.70752 	 85.198
| 26> C 	 -2.62298 	 -5.72088 	 85.1025
| 27> C 	 -3.32073 	 -5.66191 	 83.8948
| 28> H 	 -0.840067 	 -4.66958 	 85.9325
| 29> C 	 -2.82725 	 -6.79335 	 86.1851
| 30> H 	 -1.81888 	 -7.16003 	 86.4278
| 31> H 	 -3.4964 	 -7.60291 	 85.8393
| 32> C 	 -3.57513 	 -6.27113 	 87.4237
| 33> H 	 -3.95854 	 -7.21185 	 87.9709
| 34> H 	 -4.44518 	 -5.68376 	 87.1484
| 35> C 	 -2.75082 	 -5.38393 	 88.3913
| 36> H 	 -3.27073 	 -5.19501 	 89.2991
| 37> H 	 -2.76078 	 -4.38815 	 88.0605
| 38> H 	 -1.69833 	 -5.67787 	 88.5787
| 39> H 	 -7.75232 	 -7.36651 	 82.3373
| 40> H 	 -0.618866 	 -3.26463 	 83.8991
| 41> *
| 42>
| 43>                          ****END OF INPUT****

CARTESIAN COORDINATES (ANGSTROEM)
---------------------------------
  S     -6.072290   -5.739620   83.238800
  C     -6.756670   -7.313870   82.729400
  C     -5.861200   -8.361920   82.865400
  C     -4.569540   -7.821000   83.203400
  C     -4.461600   -6.426180   83.416900
  H     -3.695120   -8.369070   83.353100
  C     -6.124960   -9.772940   82.511300
  H     -6.473000   -9.765220   81.442800
  H     -6.976630  -10.066600   83.022300
  C     -5.048610  -10.815300   82.725100
  H     -5.397090  -11.799600   82.458400
  H     -4.134160  -10.679400   82.094500
  C     -4.624300  -10.944900   84.166000
  H     -5.484910  -11.214600   84.724600
  H     -3.952250  -11.807000   84.239900
  H     -4.180290   -9.991350   84.573500
  S     -2.832030   -4.196690   83.001100
  C     -1.550160   -3.851330   84.116200
  C     -1.641020   -4.707520   85.198000
  C     -2.622980   -5.720880   85.102500
  C     -3.320730   -5.661910   83.894800
  H     -0.840067   -4.669580   85.932500
  C     -2.827250   -6.793350   86.185100
  H     -1.818880   -7.160030   86.427800
  H     -3.496400   -7.602910   85.839300
  C     -3.575130   -6.271130   87.423700
  H     -3.958540   -7.211850   87.970900
  H     -4.445180   -5.683760   87.148400
  C     -2.750820   -5.383930   88.391300
  H     -3.270730   -5.195010   89.299100
  H     -2.760780   -4.388150   88.060500
  H     -1.698330   -5.677870   88.578700
  H     -7.752320   -7.366510   82.337300
  H     -0.618866   -3.264630   83.899100

 Total Charge           Charge          ....    0
 Multiplicity           Mult            ....    1
 Number of Electrons    NEL             ....  134
 Basis Dimension        Dim             ....  322

ORBITAL ENERGIES
----------------

  NO   OCC          E(Eh)            E(eV)
   0   2.0000     -88.964344     -2420.8429
   1   2.0000     -88.964203     -2420.8390
   2   2.0000     -10.331488      -281.1341
   3   2.0000     -10.329921      -281.0914
   4   2.0000     -10.321918      -280.8737
   5   2.0000     -10.314523      -280.6724
   6   2.0000     -10.306824      -280.4629
   7   2.0000     -10.304514      -280.4001
   8   2.0000     -10.296264      -280.1756
   9   2.0000     -10.293909      -280.1115
  10   2.0000     -10.292540      -280.0743
  11   2.0000     -10.291913      -280.0572
  12   2.0000     -10.289972      -280.0044
  13   2.0000     -10.287671      -279.9418
  14   2.0000     -10.277240      -279.6579
  15   2.0000     -10.270092      -279.4634
  16   2.0000      -8.078971      -219.8400
  17   2.0000      -8.078052      -219.8150
  18   2.0000      -6.037472      -164.2880
  19   2.0000      -6.036646      -164.2655
  20   2.0000      -6.033398      -164.1771
  21   2.0000      -6.032633      -164.1563
  22   2.0000      -6.029821      -164.0798
  23   2.0000      -6.028831      -164.0528
  24   2.0000      -1.001781       -27.2598
  25   2.0000      -0.980172       -26.6718
  26   2.0000      -0.921189       -25.0668
  27   2.0000      -0.904819       -24.6214
  28   2.0000      -0.871488       -23.7144
  29   2.0000      -0.847006       -23.0482
  30   2.0000      -0.841248       -22.8915
  31   2.0000      -0.814788       -22.1715
  32   2.0000      -0.789879       -21.4937
  33   2.0000      -0.776042       -21.1172
  34   2.0000      -0.710047       -19.3214
  35   2.0000      -0.696401       -18.9500
  36   2.0000      -0.688164       -18.7259
  37   2.0000      -0.656516       -17.8647
  38   2.0000      -0.643719       -17.5165
  39   2.0000      -0.624391       -16.9905
  40   2.0000      -0.593000       -16.1364
  41   2.0000      -0.571149       -15.5418
  42   2.0000      -0.554351       -15.0847
  43   2.0000      -0.551259       -15.0005
  44   2.0000      -0.541302       -14.7296
  45   2.0000      -0.532768       -14.4973
  46   2.0000      -0.522172       -14.2090
  47   2.0000      -0.516955       -14.0671
  48   2.0000      -0.503920       -13.7124
  49   2.0000      -0.499474       -13.5914
  50   2.0000      -0.490452       -13.3459
  51   2.0000      -0.484775       -13.1914
  52   2.0000      -0.475585       -12.9413
  53   2.0000      -0.464377       -12.6364
  54   2.0000      -0.456832       -12.4310
  55   2.0000      -0.440553       -11.9880
  56   2.0000      -0.436894       -11.8885
  57   2.0000      -0.434853       -11.8330
  58   2.0000      -0.432521       -11.7695
  59   2.0000      -0.427383       -11.6297
  60   2.0000      -0.423087       -11.5128
  61   2.0000      -0.419270       -11.4089
  62   2.0000      -0.406836       -11.0706
  63   2.0000      -0.337281        -9.1779
  64   2.0000      -0.332895        -9.0585
  65   2.0000      -0.326824        -8.8933
  66   2.0000      -0.293388        -7.9835
  67   0.0000       0.028837         0.7847
  68   0.0000       0.056616         1.5406
  69   0.0000       0.113085         3.0772
  70   0.0000       0.122579         3.3355
  71   0.0000       0.129971         3.5367

MULLIKEN ATOMIC CHARGES
-----------------------
   0 S :    0.105064
   1 C :   -0.145071
   2 C :   -0.065943
   3 C :    0.021874
   4 C :   -0.138199
   5 H :   -0.012350
   6 C :    0.102042
   7 H :    0.047162
   8 H :    0.009236
   9 C :   -0.070895
  10 H :    0.018824
  11 H :    0.035831
  12 C :   -0.061585
  13 H :    0.018237
  14 H :    0.034395
  15 H :    0.049048
  16 S :    0.102310
  17 C :   -0.106524
  18 C :   -0.048608
  19 C :   -0.017155
  20 C :   -0.193553
  21 H :    0.019889
  22 C :    0.075384
  23 H :    0.034755
  24 H :    0.036346
  25 C :   -0.097823
  26 H :    0.042355
  27 H :    0.035447
  28 C :   -0.028363
  29 H :    0.018920
  30 H :    0.016337
  31 H :    0.034463
  32 H :    0.042664
  33 H :    0.085487
Sum of atomic charges:   -0.0000000

LOEWDIN ATOMIC CHARGES
----------------------
   0 S :    0.387189
   1 C :   -0.181358
   2 C :   -0.058258
   3 C :   -0.061242
   4 C :   -0.194883
   5 H :    0.015845
   6 C :   -0.034715
   7 H :    0.047076
   8 H :    0.025637
   9 C :   -0.045151
  10 H :    0.026417
  11 H :    0.027331
  12 C :   -0.064749
  13 H :    0.019013
  14 H :    0.028693
  15 H :    0.028690
  16 S :    0.399761
  17 C :   -0.197300
  18 C :   -0.078078
  19 C :   -0.049341
  20 C :   -0.197260
  21 H :    0.030201
  22 C :   -0.030013
  23 H :    0.032096
  24 H :    0.035965
  25 C :   -0.038220
  26 H :    0.030785
  27 H :    0.028526
  28 C :   -0.074498
  29 H :    0.025748
  30 H :    0.021024
  31 H :    0.025756
  32 H :    0.021836
  33 H :    0.047477

  Mayer bond orders larger than 0.100000
B(  0-S ,  1-C ) :   1.1438 B(  0-S ,  4-C ) :   1.1470 B(  1-C ,  2-C ) :   1.5933
B(  1-C ,  4-C ) :   0.1044 B(  1-C , 32-H ) :   0.9768 B(  2-C ,  3-C ) :   1.2405
B(  2-C ,  6-C ) :   1.0103 B(  3-C ,  4-C ) :   1.5658 B(  3-C ,  5-H ) :   0.9987
B(  4-C , 20-C ) :   1.0450 B(  6-C ,  7-H ) :   0.9299 B(  6-C ,  8-H ) :   0.9252
B(  6-C ,  9-C ) :   1.0961 B(  9-C , 10-H ) :   0.9478 B(  9-C , 11-H ) :   0.9478
B(  9-C , 12-C ) :   1.0826 B( 12-C , 13-H ) :   0.9708 B( 12-C , 14-H ) :   0.9711
B( 12-C , 15-H ) :   0.9732 B( 16-S , 17-C ) :   1.1663 B( 16-S , 20-C ) :   1.1371
B( 17-C , 18-C ) :   1.5995 B( 17-C , 20-C ) :   0.1070 B( 17-C , 33-H ) :   0.9566
B( 18-C , 19-C ) :   1.2575 B( 18-C , 21-H ) :   0.9820 B( 19-C , 20-C ) :   1.5756
B( 19-C , 22-C ) :   1.0322 B( 22-C , 23-H ) :   0.9396 B( 22-C , 24-H ) :   0.9320
B( 22-C , 25-C ) :   1.0684 B( 25-C , 26-H ) :   0.9627 B( 25-C , 27-H ) :   0.9510
B( 25-C , 28-C ) :   1.0816 B( 28-C , 29-H ) :   0.9663 B( 28-C , 30-H ) :   0.9668
B( 28-C , 31-H ) :   0.9767

Dispersion correction           -0.014867380
FINAL SINGLE POINT ENERGY     -1339.873559171601

DIPOLE MOMENT
-------------
                                X             Y             Z
Electronic contribution:     -2.52559      20.60078     -15.65899
Nuclear contribution   :      2.67155     -21.23433      15.94606
                        -----------------------------------------
Total Dipole Moment    :      0.14596      -0.63354       0.28707
                        -----------------------------------------
Magnitude (a.u.)       :      0.71070
Magnitude (Debye)      :      1.80645

Rotational constants in cm-1:     0.018428     0.008955     0.007341
Rotational constants in MHz :   552.443636   268.478325   220.078027

                             ****ORCA TERMINATED NORMALLY****
TOTAL RUN TIME: 0 days 0 hours 0 minutes 36 seconds 238 msec
