                         Program Version 4.2.1 -  RELEASE  -
|  1> ! wB97X-D3 SP def2-SVP
|  2> %pal
|  3> nprocs 16
|  4> end
|  5>
|  6> * xyz 0 1
|  7> S 	 -79.7049 	 45.1839 	 129.296
|  8> C 	 -81.3168 	 44.608 	 129.005
|  9> C 	 -82.1718 	 45.113 	 129.994
| 10> C 	 -81.5202 	 45.8769 	 131.034
| 11> C 	 -80.1468 	 45.9222 	 130.854
| 12> H 	 -82.0432 	 46.3067 	 131.962
| 13> C 	 -83.6866 	 44.9146 	 129.938
| 14> H 	 -84.0576 	 44.0865 	 130.616
| 15> H 	 -83.9588 	 44.4467 	 128.993
| 16> C 	 -84.5378 	 46.1926 	 130.048
| 17> H 	 -85.6361 	 45.9959 	 129.825
| 18> H 	 -84.6969 	 46.5497 	 131.095
| 19> C 	 -84.0315 	 47.3729 	 129.19
| 20> H 	 -83.5073 	 47.9838 	 129.885
| 21> H 	 -83.2905 	 47.0679 	 128.507
| 22> H 	 -84.816 	 47.9489 	 128.712
| 23> S 	 -78.234 	 47.8365 	 131.195
| 24> C 	 -77.6208 	 48.2243 	 132.778
| 25> C 	 -78.0854 	 47.3194 	 133.715
| 26> C 	 -79.0006 	 46.378 	 133.182
| 27> C 	 -79.1847 	 46.4838 	 131.794
| 28> H 	 -77.935 	 47.415 	 134.775
| 29> C 	 -79.6995 	 45.324 	 134.076
| 30> H 	 -80.0648 	 44.6332 	 133.402
| 31> H 	 -80.6624 	 45.8321 	 134.436
| 32> C 	 -78.9599 	 44.63 	 135.254
| 33> H 	 -78.3895 	 45.4289 	 135.915
| 34> H 	 -78.1512 	 43.972 	 134.934
| 35> C 	 -79.9471 	 43.9697 	 136.161
| 36> H 	 -79.6089 	 43.2971 	 136.932
| 37> H 	 -80.4912 	 43.3289 	 135.477
| 38> H 	 -80.7094 	 44.7346 	 136.579
| 39> H 	 -81.6512 	 43.9916 	 128.105
| 40> H 	 -77.0176 	 49.0512 	 133.138
| 41> *
| 42>
| 43>                          ****END OF INPUT****

CARTESIAN COORDINATES (ANGSTROEM)
---------------------------------
  S    -79.704900   45.183900  129.296000
  C    -81.316800   44.608000  129.005000
  C    -82.171800   45.113000  129.994000
  C    -81.520200   45.876900  131.034000
  C    -80.146800   45.922200  130.854000
  H    -82.043200   46.306700  131.962000
  C    -83.686600   44.914600  129.938000
  H    -84.057600   44.086500  130.616000
  H    -83.958800   44.446700  128.993000
  C    -84.537800   46.192600  130.048000
  H    -85.636100   45.995900  129.825000
  H    -84.696900   46.549700  131.095000
  C    -84.031500   47.372900  129.190000
  H    -83.507300   47.983800  129.885000
  H    -83.290500   47.067900  128.507000
  H    -84.816000   47.948900  128.712000
  S    -78.234000   47.836500  131.195000
  C    -77.620800   48.224300  132.778000
  C    -78.085400   47.319400  133.715000
  C    -79.000600   46.378000  133.182000
  C    -79.184700   46.483800  131.794000
  H    -77.935000   47.415000  134.775000
  C    -79.699500   45.324000  134.076000
  H    -80.064800   44.633200  133.402000
  H    -80.662400   45.832100  134.436000
  C    -78.959900   44.630000  135.254000
  H    -78.389500   45.428900  135.915000
  H    -78.151200   43.972000  134.934000
  C    -79.947100   43.969700  136.161000
  H    -79.608900   43.297100  136.932000
  H    -80.491200   43.328900  135.477000
  H    -80.709400   44.734600  136.579000
  H    -81.651200   43.991600  128.105000
  H    -77.017600   49.051200  133.138000

 Total Charge           Charge          ....    0
 Multiplicity           Mult            ....    1
 Number of Electrons    NEL             ....  134
 Basis Dimension        Dim             ....  322

ORBITAL ENERGIES
----------------

  NO   OCC          E(Eh)            E(eV)
   0   2.0000     -88.968852     -2420.9655
   1   2.0000     -88.966889     -2420.9121
   2   2.0000     -10.336396      -281.2676
   3   2.0000     -10.328737      -281.0592
   4   2.0000     -10.324579      -280.9461
   5   2.0000     -10.318860      -280.7905
   6   2.0000     -10.307824      -280.4902
   7   2.0000     -10.307464      -280.4803
   8   2.0000     -10.306337      -280.4497
   9   2.0000     -10.299122      -280.2534
  10   2.0000     -10.297103      -280.1984
  11   2.0000     -10.295567      -280.1566
  12   2.0000     -10.292323      -280.0683
  13   2.0000     -10.290153      -280.0093
  14   2.0000     -10.282654      -279.8052
  15   2.0000     -10.265188      -279.3300
  16   2.0000      -8.083259      -219.9567
  17   2.0000      -8.081496      -219.9087
  18   2.0000      -6.041833      -164.4066
  19   2.0000      -6.040042      -164.3579
  20   2.0000      -6.037745      -164.2954
  21   2.0000      -6.035869      -164.2443
  22   2.0000      -6.034020      -164.1940
  23   2.0000      -6.032366      -164.1490
  24   2.0000      -1.005038       -27.3485
  25   2.0000      -0.983186       -26.7539
  26   2.0000      -0.909085       -24.7375
  27   2.0000      -0.905368       -24.6363
  28   2.0000      -0.870273       -23.6813
  29   2.0000      -0.853384       -23.2218
  30   2.0000      -0.841167       -22.8893
  31   2.0000      -0.815650       -22.1950
  32   2.0000      -0.781138       -21.2559
  33   2.0000      -0.768543       -20.9131
  34   2.0000      -0.706625       -19.2282
  35   2.0000      -0.699438       -19.0327
  36   2.0000      -0.689562       -18.7639
  37   2.0000      -0.656099       -17.8533
  38   2.0000      -0.636305       -17.3147
  39   2.0000      -0.619015       -16.8443
  40   2.0000      -0.594343       -16.1729
  41   2.0000      -0.564521       -15.3614
  42   2.0000      -0.561367       -15.2756
  43   2.0000      -0.552094       -15.0232
  44   2.0000      -0.533479       -14.5167
  45   2.0000      -0.526783       -14.3345
  46   2.0000      -0.513920       -13.9845
  47   2.0000      -0.513305       -13.9677
  48   2.0000      -0.506685       -13.7876
  49   2.0000      -0.499683       -13.5971
  50   2.0000      -0.487467       -13.2646
  51   2.0000      -0.474483       -12.9114
  52   2.0000      -0.467297       -12.7158
  53   2.0000      -0.462783       -12.5930
  54   2.0000      -0.459291       -12.4979
  55   2.0000      -0.454474       -12.3669
  56   2.0000      -0.449255       -12.2249
  57   2.0000      -0.437776       -11.9125
  58   2.0000      -0.433952       -11.8084
  59   2.0000      -0.421767       -11.4769
  60   2.0000      -0.419202       -11.4071
  61   2.0000      -0.406886       -11.0719
  62   2.0000      -0.401005       -10.9119
  63   2.0000      -0.348772        -9.4906
  64   2.0000      -0.331289        -9.0148
  65   2.0000      -0.328918        -8.9503
  66   2.0000      -0.294306        -8.0085
  67   0.0000       0.030038         0.8174
  68   0.0000       0.061172         1.6646
  69   0.0000       0.113269         3.0822
  70   0.0000       0.122342         3.3291
  71   0.0000       0.130001         3.5375

MULLIKEN ATOMIC CHARGES
-----------------------
   0 S :    0.113839
   1 C :   -0.136182
   2 C :   -0.123378
   3 C :    0.024219
   4 C :   -0.159340
   5 H :    0.054194
   6 C :    0.070174
   7 H :    0.044706
   8 H :    0.009980
   9 C :   -0.138723
  10 H :    0.030890
  11 H :    0.026853
  12 C :   -0.003413
  13 H :    0.020931
  14 H :    0.028635
  15 H :    0.038003
  16 S :    0.109190
  17 C :   -0.074382
  18 C :   -0.042177
  19 C :   -0.047107
  20 C :   -0.158564
  21 H :    0.013879
  22 C :    0.062067
  23 H :    0.012456
  24 H :    0.040582
  25 C :   -0.083203
  26 H :    0.034016
  27 H :    0.044797
  28 C :   -0.055542
  29 H :    0.038080
  30 H :    0.019466
  31 H :    0.045267
  32 H :    0.082981
  33 H :    0.056807
Sum of atomic charges:    0.0000000

LOEWDIN ATOMIC CHARGES
----------------------
   0 S :    0.401145
   1 C :   -0.214176
   2 C :   -0.070686
   3 C :   -0.067329
   4 C :   -0.191680
   5 H :    0.050600
   6 C :   -0.042295
   7 H :    0.039114
   8 H :    0.027143
   9 C :   -0.054461
  10 H :    0.029211
  11 H :    0.020606
  12 C :   -0.061514
  13 H :    0.025857
  14 H :    0.021956
  15 H :    0.027898
  16 S :    0.414675
  17 C :   -0.187614
  18 C :   -0.075557
  19 C :   -0.050463
  20 C :   -0.206494
  21 H :    0.028520
  22 C :   -0.031413
  23 H :    0.019619
  24 H :    0.041022
  25 C :   -0.046480
  26 H :    0.026893
  27 H :    0.028348
  28 C :   -0.072076
  29 H :    0.024882
  30 H :    0.023290
  31 H :    0.036251
  32 H :    0.049334
  33 H :    0.035874

  Mayer bond orders larger than 0.100000
B(  0-S ,  1-C ) :   1.1380 B(  0-S ,  4-C ) :   1.1499 B(  1-C ,  2-C ) :   1.6064
B(  1-C , 32-H ) :   0.9573 B(  2-C ,  3-C ) :   1.2344 B(  2-C ,  6-C ) :   1.0262
B(  3-C ,  4-C ) :   1.5678 B(  3-C ,  5-H ) :   0.9817 B(  4-C , 20-C ) :   1.0257
B(  6-C ,  7-H ) :   0.9385 B(  6-C ,  8-H ) :   0.9425 B(  6-C ,  9-C ) :   1.0634
B(  9-C , 10-H ) :   0.9615 B(  9-C , 11-H ) :   0.9619 B(  9-C , 12-C ) :   1.0554
B( 12-C , 13-H ) :   0.9721 B( 12-C , 14-H ) :   0.9782 B( 12-C , 15-H ) :   0.9774
B( 16-S , 17-C ) :   1.1665 B( 16-S , 20-C ) :   1.1409 B( 17-C , 18-C ) :   1.5902
B( 17-C , 20-C ) :   0.1018 B( 17-C , 33-H ) :   0.9638 B( 18-C , 19-C ) :   1.2757
B( 18-C , 21-H ) :   0.9864 B( 19-C , 20-C ) :   1.5847 B( 19-C , 22-C ) :   1.0243
B( 22-C , 23-H ) :   0.9315 B( 22-C , 24-H ) :   0.9342 B( 22-C , 25-C ) :   1.0462
B( 25-C , 26-H ) :   0.9543 B( 25-C , 27-H ) :   0.9552 B( 25-C , 28-C ) :   1.0742
B( 28-C , 29-H ) :   0.9727 B( 28-C , 30-H ) :   0.9718 B( 28-C , 31-H ) :   0.9733

Dispersion correction           -0.014235650
FINAL SINGLE POINT ENERGY     -1339.865095353449

DIPOLE MOMENT
-------------
                                X             Y             Z
Electronic contribution:     19.23306       5.90590     -14.31711
Nuclear contribution   :    -19.73137      -6.04064      14.79437
                        -----------------------------------------
Total Dipole Moment    :     -0.49831      -0.13474       0.47726
                        -----------------------------------------
Magnitude (a.u.)       :      0.70302
Magnitude (Debye)      :      1.78694

Rotational constants in cm-1:     0.017112     0.008496     0.006982
Rotational constants in MHz :   513.004700   254.708356   209.312929

                             ****ORCA TERMINATED NORMALLY****
TOTAL RUN TIME: 0 days 0 hours 0 minutes 33 seconds 335 msec
