                         Program Version 4.2.1 -  RELEASE  -
|  1> ! wB97X-D3 SP def2-SVP
|  2> %pal
|  3> nprocs 16
|  4> end
|  5>
|  6> * xyz 0 1
|  7> S 	 1.71167 	 -28.2207 	 83.6705
|  8> C 	 0.452942 	 -29.5209 	 83.377
|  9> C 	 -0.294908 	 -29.6587 	 84.5352
| 10> C 	 0.00198244 	 -28.7077 	 85.5442
| 11> C 	 0.912496 	 -27.7967 	 85.1156
| 12> H 	 -0.366964 	 -28.7418 	 86.5343
| 13> C 	 -1.22624 	 -30.7975 	 84.6814
| 14> H 	 -2.05127 	 -30.6637 	 83.9952
| 15> H 	 -1.81272 	 -30.8005 	 85.6454
| 16> C 	 -0.58997 	 -32.1636 	 84.5214
| 17> H 	 -1.40265 	 -32.9206 	 84.5065
| 18> H 	 -0.163978 	 -32.1589 	 83.5185
| 19> C 	 0.300907 	 -32.4268 	 85.7314
| 20> H 	 1.19313 	 -31.7637 	 85.6933
| 21> H 	 -0.29059 	 -32.3482 	 86.6592
| 22> H 	 0.592603 	 -33.4568 	 85.7374
| 23> S 	 3.04575 	 -26.264 	 85.9484
| 24> C 	 2.76069 	 -25.0498 	 87.2069
| 25> C 	 1.51345 	 -25.201 	 87.8066
| 26> C 	 0.633459 	 -25.9937 	 87.009
| 27> C 	 1.31899 	 -26.7042 	 85.9675
| 28> H 	 1.25282 	 -24.5859 	 88.689
| 29> C 	 -0.909352 	 -26.0934 	 87.3231
| 30> H 	 -0.987279 	 -26.4197 	 88.3442
| 31> H 	 -1.48733 	 -26.7062 	 86.6224
| 32> C 	 -1.59981 	 -24.7214 	 87.1869
| 33> H 	 -1.73692 	 -24.6019 	 86.0985
| 34> H 	 -0.920316 	 -23.9911 	 87.6946
| 35> C 	 -2.9269 	 -24.6093 	 87.8655
| 36> H 	 -3.4929 	 -23.6986 	 87.6366
| 37> H 	 -2.89878 	 -24.6415 	 88.9593
| 38> H 	 -3.6379 	 -25.3431 	 87.3854
| 39> H 	 0.44938 	 -30.1102 	 82.5231
| 40> H 	 3.56498 	 -24.5266 	 87.7108
| 41> *
| 42>
| 43>                          ****END OF INPUT****

CARTESIAN COORDINATES (ANGSTROEM)
---------------------------------
  S      1.711670  -28.220700   83.670500
  C      0.452942  -29.520900   83.377000
  C     -0.294908  -29.658700   84.535200
  C      0.001982  -28.707700   85.544200
  C      0.912496  -27.796700   85.115600
  H     -0.366964  -28.741800   86.534300
  C     -1.226240  -30.797500   84.681400
  H     -2.051270  -30.663700   83.995200
  H     -1.812720  -30.800500   85.645400
  C     -0.589970  -32.163600   84.521400
  H     -1.402650  -32.920600   84.506500
  H     -0.163978  -32.158900   83.518500
  C      0.300907  -32.426800   85.731400
  H      1.193130  -31.763700   85.693300
  H     -0.290590  -32.348200   86.659200
  H      0.592603  -33.456800   85.737400
  S      3.045750  -26.264000   85.948400
  C      2.760690  -25.049800   87.206900
  C      1.513450  -25.201000   87.806600
  C      0.633459  -25.993700   87.009000
  C      1.318990  -26.704200   85.967500
  H      1.252820  -24.585900   88.689000
  C     -0.909352  -26.093400   87.323100
  H     -0.987279  -26.419700   88.344200
  H     -1.487330  -26.706200   86.622400
  C     -1.599810  -24.721400   87.186900
  H     -1.736920  -24.601900   86.098500
  H     -0.920316  -23.991100   87.694600
  C     -2.926900  -24.609300   87.865500
  H     -3.492900  -23.698600   87.636600
  H     -2.898780  -24.641500   88.959300
  H     -3.637900  -25.343100   87.385400
  H      0.449380  -30.110200   82.523100
  H      3.564980  -24.526600   87.710800

 Total Charge           Charge          ....    0
 Multiplicity           Mult            ....    1
 Number of Electrons    NEL             ....  134
 Basis Dimension        Dim             ....  322

ORBITAL ENERGIES
----------------

  NO   OCC          E(Eh)            E(eV)
   0   2.0000     -88.966737     -2420.9080
   1   2.0000     -88.966622     -2420.9049
   2   2.0000     -10.332496      -281.1615
   3   2.0000     -10.324772      -280.9513
   4   2.0000     -10.320465      -280.8341
   5   2.0000     -10.314213      -280.6640
   6   2.0000     -10.314048      -280.6595
   7   2.0000     -10.302057      -280.3332
   8   2.0000     -10.300084      -280.2795
   9   2.0000     -10.294985      -280.1408
  10   2.0000     -10.286609      -279.9129
  11   2.0000     -10.286452      -279.9086
  12   2.0000     -10.286351      -279.9058
  13   2.0000     -10.285534      -279.8836
  14   2.0000     -10.280926      -279.7582
  15   2.0000     -10.277237      -279.6578
  16   2.0000      -8.081125      -219.8986
  17   2.0000      -8.080745      -219.8882
  18   2.0000      -6.039630      -164.3467
  19   2.0000      -6.039223      -164.3356
  20   2.0000      -6.035953      -164.2466
  21   2.0000      -6.035487      -164.2340
  22   2.0000      -6.031617      -164.1286
  23   2.0000      -6.031451      -164.1241
  24   2.0000      -1.007588       -27.4179
  25   2.0000      -0.978606       -26.6292
  26   2.0000      -0.920759       -25.0551
  27   2.0000      -0.908823       -24.7303
  28   2.0000      -0.867548       -23.6072
  29   2.0000      -0.852837       -23.2069
  30   2.0000      -0.842779       -22.9332
  31   2.0000      -0.812871       -22.1193
  32   2.0000      -0.783342       -21.3158
  33   2.0000      -0.771176       -20.9848
  34   2.0000      -0.709966       -19.3192
  35   2.0000      -0.699433       -19.0325
  36   2.0000      -0.685610       -18.6564
  37   2.0000      -0.657318       -17.8865
  38   2.0000      -0.640952       -17.4412
  39   2.0000      -0.617749       -16.8098
  40   2.0000      -0.596001       -16.2180
  41   2.0000      -0.577345       -15.7104
  42   2.0000      -0.574237       -15.6258
  43   2.0000      -0.556029       -15.1303
  44   2.0000      -0.541627       -14.7384
  45   2.0000      -0.523325       -14.2404
  46   2.0000      -0.519482       -14.1358
  47   2.0000      -0.507891       -13.8204
  48   2.0000      -0.501423       -13.6444
  49   2.0000      -0.497802       -13.5459
  50   2.0000      -0.490789       -13.3551
  51   2.0000      -0.480897       -13.0859
  52   2.0000      -0.470488       -12.8026
  53   2.0000      -0.464002       -12.6261
  54   2.0000      -0.458760       -12.4835
  55   2.0000      -0.454951       -12.3798
  56   2.0000      -0.444709       -12.1011
  57   2.0000      -0.432846       -11.7783
  58   2.0000      -0.429187       -11.6788
  59   2.0000      -0.424862       -11.5611
  60   2.0000      -0.419155       -11.4058
  61   2.0000      -0.413837       -11.2611
  62   2.0000      -0.404603       -11.0098
  63   2.0000      -0.352587        -9.5944
  64   2.0000      -0.333964        -9.0876
  65   2.0000      -0.329409        -8.9637
  66   2.0000      -0.280737        -7.6392
  67   0.0000       0.015049         0.4095
  68   0.0000       0.075415         2.0522
  69   0.0000       0.084649         2.3034
  70   0.0000       0.119574         3.2538
  71   0.0000       0.134298         3.6544

MULLIKEN ATOMIC CHARGES
-----------------------
   0 S :    0.090974
   1 C :   -0.118890
   2 C :   -0.047650
   3 C :   -0.008471
   4 C :   -0.087211
   5 H :    0.012494
   6 C :    0.031107
   7 H :    0.030056
   8 H :    0.014279
   9 C :   -0.070221
  10 H :    0.024946
  11 H :    0.025296
  12 C :   -0.036532
  13 H :    0.059964
  14 H :    0.026777
  15 H :    0.025157
  16 S :    0.085371
  17 C :   -0.088546
  18 C :   -0.053501
  19 C :   -0.058243
  20 C :   -0.131580
  21 H :    0.042382
  22 C :    0.064635
  23 H :    0.024517
  24 H :    0.034409
  25 C :   -0.091292
  26 H :    0.042823
  27 H :    0.030057
  28 C :   -0.055150
  29 H :    0.030485
  30 H :    0.036990
  31 H :    0.024798
  32 H :    0.027052
  33 H :    0.062716
Sum of atomic charges:   -0.0000000

LOEWDIN ATOMIC CHARGES
----------------------
   0 S :    0.385904
   1 C :   -0.164729
   2 C :   -0.052177
   3 C :   -0.062265
   4 C :   -0.197426
   5 H :    0.029959
   6 C :   -0.043945
   7 H :    0.031335
   8 H :    0.029197
   9 C :   -0.039185
  10 H :    0.024915
  11 H :    0.020163
  12 C :   -0.063653
  13 H :    0.035148
  14 H :    0.028872
  15 H :    0.021718
  16 S :    0.379626
  17 C :   -0.180034
  18 C :   -0.071121
  19 C :   -0.052038
  20 C :   -0.181597
  21 H :    0.039123
  22 C :   -0.029339
  23 H :    0.025569
  24 H :    0.030239
  25 C :   -0.045807
  26 H :    0.031895
  27 H :    0.023810
  28 C :   -0.076859
  29 H :    0.028857
  30 H :    0.024859
  31 H :    0.028940
  32 H :    0.011723
  33 H :    0.028325

  Mayer bond orders larger than 0.100000
B(  0-S ,  1-C ) :   1.1001 B(  0-S ,  4-C ) :   1.1594 B(  1-C ,  2-C ) :   1.5890
B(  1-C , 32-H ) :   0.9891 B(  2-C ,  3-C ) :   1.2361 B(  2-C ,  6-C ) :   1.0210
B(  3-C ,  4-C ) :   1.5347 B(  3-C ,  5-H ) :   1.0066 B(  4-C , 20-C ) :   1.0801
B(  6-C ,  7-H ) :   0.9292 B(  6-C ,  8-H ) :   0.9450 B(  6-C ,  9-C ) :   1.0820
B(  9-C , 10-H ) :   0.9511 B(  9-C , 11-H ) :   0.9548 B(  9-C , 12-C ) :   1.0722
B( 12-C , 13-H ) :   0.9749 B( 12-C , 14-H ) :   0.9706 B( 12-C , 15-H ) :   0.9733
B( 16-S , 17-C ) :   1.1468 B( 16-S , 20-C ) :   1.1343 B( 17-C , 18-C ) :   1.6219
B( 17-C , 20-C ) :   0.1045 B( 17-C , 33-H ) :   0.9637 B( 18-C , 19-C ) :   1.2492
B( 18-C , 21-H ) :   0.9746 B( 19-C , 20-C ) :   1.5777 B( 19-C , 22-C ) :   1.0272
B( 22-C , 23-H ) :   0.9379 B( 22-C , 24-H ) :   0.9438 B( 22-C , 25-C ) :   1.0531
B( 25-C , 26-H ) :   0.9567 B( 25-C , 27-H ) :   0.9574 B( 25-C , 28-C ) :   1.0968
B( 28-C , 29-H ) :   0.9692 B( 28-C , 30-H ) :   0.9731 B( 28-C , 31-H ) :   0.9671

Dispersion correction           -0.013974126
FINAL SINGLE POINT ENERGY     -1339.861852149029

DIPOLE MOMENT
-------------
                                X             Y             Z
Electronic contribution:     22.46263       8.13158     -10.02294
Nuclear contribution   :    -23.02595      -8.39958      10.48508
                        -----------------------------------------
Total Dipole Moment    :     -0.56332      -0.26799       0.46214
                        -----------------------------------------
Magnitude (a.u.)       :      0.77635
Magnitude (Debye)      :      1.97334

Rotational constants in cm-1:     0.018084     0.008602     0.006678
Rotational constants in MHz :   542.132975   257.882985   200.194890

                             ****ORCA TERMINATED NORMALLY****
TOTAL RUN TIME: 0 days 0 hours 0 minutes 34 seconds 74 msec
