                         Program Version 4.2.1 -  RELEASE  -
|  1> ! wB97X-D3 SP def2-SVP
|  2> %pal
|  3> nprocs 16
|  4> end
|  5>
|  6> * xyz 0 1
|  7> S 	 -91.7656 	 60.7071 	 123.088
|  8> C 	 -92.1532 	 59.4875 	 121.932
|  9> C 	 -92.6304 	 58.3607 	 122.561
| 10> C 	 -92.7162 	 58.4344 	 123.973
| 11> C 	 -92.2628 	 59.6845 	 124.485
| 12> H 	 -93.1968 	 57.6745 	 124.646
| 13> C 	 -93.2406 	 57.2079 	 121.86
| 14> H 	 -94.3 	 57.1729 	 122.104
| 15> H 	 -92.8844 	 56.2921 	 122.316
| 16> C 	 -93.031 	 57.0825 	 120.412
| 17> H 	 -93.7723 	 57.6408 	 119.72
| 18> H 	 -92.0406 	 57.4267 	 120.118
| 19> C 	 -93.1335 	 55.6418 	 119.922
| 20> H 	 -92.7538 	 55.5958 	 118.903
| 21> H 	 -92.4363 	 54.9096 	 120.372
| 22> H 	 -94.0622 	 55.1255 	 119.937
| 23> S 	 -93.6414 	 61.5985 	 126.029
| 24> C 	 -93.5639 	 61.3363 	 127.871
| 25> C 	 -92.6781 	 60.3445 	 128.188
| 26> C 	 -92.0596 	 59.7224 	 127.09
| 27> C 	 -92.4969 	 60.21 	 125.842
| 28> H 	 -92.5506 	 60.1567 	 129.3
| 29> C 	 -91.0577 	 58.578 	 127.21
| 30> H 	 -91.4291 	 57.7946 	 126.495
| 31> H 	 -91.0917 	 58.1305 	 128.231
| 32> C 	 -89.6055 	 58.9702 	 126.731
| 33> H 	 -89.2535 	 59.8612 	 127.314
| 34> H 	 -89.7444 	 59.3325 	 125.703
| 35> C 	 -88.623 	 57.771 	 126.839
| 36> H 	 -88.8924 	 57.0318 	 126.062
| 37> H 	 -88.6276 	 57.3526 	 127.862
| 38> H 	 -87.5973 	 58.081 	 126.609
| 39> H 	 -92.0902 	 59.4533 	 120.843
| 40> H 	 -94.168 	 61.7038 	 128.634
| 41> *
| 42>
| 43>                          ****END OF INPUT****

CARTESIAN COORDINATES (ANGSTROEM)
---------------------------------
  S    -91.765600   60.707100  123.088000
  C    -92.153200   59.487500  121.932000
  C    -92.630400   58.360700  122.561000
  C    -92.716200   58.434400  123.973000
  C    -92.262800   59.684500  124.485000
  H    -93.196800   57.674500  124.646000
  C    -93.240600   57.207900  121.860000
  H    -94.300000   57.172900  122.104000
  H    -92.884400   56.292100  122.316000
  C    -93.031000   57.082500  120.412000
  H    -93.772300   57.640800  119.720000
  H    -92.040600   57.426700  120.118000
  C    -93.133500   55.641800  119.922000
  H    -92.753800   55.595800  118.903000
  H    -92.436300   54.909600  120.372000
  H    -94.062200   55.125500  119.937000
  S    -93.641400   61.598500  126.029000
  C    -93.563900   61.336300  127.871000
  C    -92.678100   60.344500  128.188000
  C    -92.059600   59.722400  127.090000
  C    -92.496900   60.210000  125.842000
  H    -92.550600   60.156700  129.300000
  C    -91.057700   58.578000  127.210000
  H    -91.429100   57.794600  126.495000
  H    -91.091700   58.130500  128.231000
  C    -89.605500   58.970200  126.731000
  H    -89.253500   59.861200  127.314000
  H    -89.744400   59.332500  125.703000
  C    -88.623000   57.771000  126.839000
  H    -88.892400   57.031800  126.062000
  H    -88.627600   57.352600  127.862000
  H    -87.597300   58.081000  126.609000
  H    -92.090200   59.453300  120.843000
  H    -94.168000   61.703800  128.634000

 Total Charge           Charge          ....    0
 Multiplicity           Mult            ....    1
 Number of Electrons    NEL             ....  134
 Basis Dimension        Dim             ....  322

ORBITAL ENERGIES
----------------

  NO   OCC          E(Eh)            E(eV)
   0   2.0000     -88.970197     -2421.0021
   1   2.0000     -88.968870     -2420.9660
   2   2.0000     -10.340534      -281.3802
   3   2.0000     -10.335767      -281.2505
   4   2.0000     -10.319715      -280.8137
   5   2.0000     -10.313406      -280.6420
   6   2.0000     -10.306799      -280.4622
   7   2.0000     -10.303648      -280.3765
   8   2.0000     -10.298470      -280.2356
   9   2.0000     -10.297414      -280.2069
  10   2.0000     -10.295900      -280.1657
  11   2.0000     -10.293529      -280.1012
  12   2.0000     -10.289452      -279.9902
  13   2.0000     -10.284642      -279.8593
  14   2.0000     -10.281318      -279.7689
  15   2.0000     -10.276616      -279.6409
  16   2.0000      -8.084016      -219.9773
  17   2.0000      -8.080841      -219.8909
  18   2.0000      -6.042675      -164.4296
  19   2.0000      -6.039614      -164.3463
  20   2.0000      -6.038522      -164.3165
  21   2.0000      -6.035913      -164.2455
  22   2.0000      -6.034778      -164.2146
  23   2.0000      -6.031282      -164.1195
  24   2.0000      -0.998861       -27.1804
  25   2.0000      -0.976623       -26.5753
  26   2.0000      -0.922342       -25.0982
  27   2.0000      -0.894700       -24.3460
  28   2.0000      -0.868861       -23.6429
  29   2.0000      -0.853351       -23.2209
  30   2.0000      -0.840584       -22.8734
  31   2.0000      -0.815474       -22.1902
  32   2.0000      -0.781077       -21.2542
  33   2.0000      -0.764218       -20.7954
  34   2.0000      -0.719594       -19.5812
  35   2.0000      -0.702438       -19.1143
  36   2.0000      -0.686608       -18.6835
  37   2.0000      -0.656457       -17.8631
  38   2.0000      -0.634141       -17.2559
  39   2.0000      -0.611305       -16.6345
  40   2.0000      -0.586651       -15.9636
  41   2.0000      -0.577672       -15.7193
  42   2.0000      -0.569270       -15.4906
  43   2.0000      -0.557976       -15.1833
  44   2.0000      -0.525670       -14.3042
  45   2.0000      -0.519016       -14.1231
  46   2.0000      -0.516630       -14.0582
  47   2.0000      -0.511840       -13.9279
  48   2.0000      -0.500913       -13.6305
  49   2.0000      -0.499606       -13.5950
  50   2.0000      -0.485881       -13.2215
  51   2.0000      -0.480152       -13.0656
  52   2.0000      -0.474125       -12.9016
  53   2.0000      -0.461468       -12.5572
  54   2.0000      -0.454683       -12.3726
  55   2.0000      -0.446627       -12.1533
  56   2.0000      -0.442466       -12.0401
  57   2.0000      -0.432429       -11.7670
  58   2.0000      -0.427433       -11.6310
  59   2.0000      -0.422282       -11.4909
  60   2.0000      -0.420842       -11.4517
  61   2.0000      -0.419217       -11.4075
  62   2.0000      -0.416396       -11.3307
  63   2.0000      -0.348132        -9.4731
  64   2.0000      -0.332183        -9.0392
  65   2.0000      -0.324730        -8.8363
  66   2.0000      -0.290368        -7.9013
  67   0.0000       0.023346         0.6353
  68   0.0000       0.055688         1.5154
  69   0.0000       0.099312         2.7024
  70   0.0000       0.122315         3.3284
  71   0.0000       0.128192         3.4883

MULLIKEN ATOMIC CHARGES
-----------------------
   0 S :    0.115716
   1 C :   -0.102969
   2 C :   -0.114130
   3 C :    0.020434
   4 C :   -0.178769
   5 H :    0.044690
   6 C :    0.109470
   7 H :    0.036578
   8 H :    0.015144
   9 C :   -0.106192
  10 H :    0.048257
  11 H :    0.028821
  12 C :   -0.061960
  13 H :    0.021721
  14 H :    0.022644
  15 H :    0.031531
  16 S :    0.094272
  17 C :   -0.069027
  18 C :   -0.069557
  19 C :   -0.010763
  20 C :   -0.157802
  21 H :    0.045813
  22 C :    0.047903
  23 H :    0.027055
  24 H :    0.025577
  25 C :   -0.098835
  26 H :    0.037491
  27 H :    0.041855
  28 C :   -0.043086
  29 H :    0.039078
  30 H :    0.038687
  31 H :    0.036063
  32 H :    0.051916
  33 H :    0.032374
Sum of atomic charges:   -0.0000000

LOEWDIN ATOMIC CHARGES
----------------------
   0 S :    0.402795
   1 C :   -0.213385
   2 C :   -0.072024
   3 C :   -0.057526
   4 C :   -0.187056
   5 H :    0.042980
   6 C :   -0.040257
   7 H :    0.039696
   8 H :    0.032523
   9 C :   -0.049444
  10 H :    0.037027
  11 H :    0.024023
  12 C :   -0.070514
  13 H :    0.027976
  14 H :    0.025035
  15 H :    0.019605
  16 S :    0.343539
  17 C :   -0.146724
  18 C :   -0.075541
  19 C :   -0.056033
  20 C :   -0.182061
  21 H :    0.047620
  22 C :   -0.037372
  23 H :    0.034274
  24 H :    0.028279
  25 C :   -0.041080
  26 H :    0.025971
  27 H :    0.026185
  28 C :   -0.069430
  29 H :    0.029804
  30 H :    0.027547
  31 H :    0.026959
  32 H :    0.036539
  33 H :    0.020072

  Mayer bond orders larger than 0.100000
B(  0-S ,  1-C ) :   1.1271 B(  0-S ,  4-C ) :   1.1433 B(  1-C ,  2-C ) :   1.6171
B(  1-C , 32-H ) :   0.9521 B(  2-C ,  3-C ) :   1.2656 B(  2-C ,  6-C ) :   1.0247
B(  3-C ,  4-C ) :   1.5462 B(  3-C ,  5-H ) :   0.9799 B(  4-C , 20-C ) :   1.0493
B(  6-C ,  7-H ) :   0.9213 B(  6-C ,  8-H ) :   0.9353 B(  6-C ,  9-C ) :   1.0779
B(  9-C , 10-H ) :   0.9433 B(  9-C , 11-H ) :   0.9515 B(  9-C , 12-C ) :   1.0931
B( 12-C , 13-H ) :   0.9711 B( 12-C , 14-H ) :   0.9698 B( 12-C , 15-H ) :   0.9772
B( 16-S , 17-C ) :   1.1147 B( 16-S , 20-C ) :   1.1161 B( 17-C , 18-C ) :   1.6675
B( 17-C , 20-C ) :   0.1038 B( 17-C , 33-H ) :   0.9658 B( 18-C , 19-C ) :   1.2334
B( 18-C , 21-H ) :   0.9727 B( 19-C , 20-C ) :   1.5953 B( 19-C , 22-C ) :   1.0362
B( 22-C , 23-H ) :   0.9299 B( 22-C , 24-H ) :   0.9412 B( 22-C , 25-C ) :   1.0483
B( 25-C , 26-H ) :   0.9586 B( 25-C , 27-H ) :   0.9551 B( 25-C , 28-C ) :   1.0767
B( 28-C , 29-H ) :   0.9747 B( 28-C , 30-H ) :   0.9750 B( 28-C , 31-H ) :   0.9753

Dispersion correction           -0.013876708
FINAL SINGLE POINT ENERGY     -1339.865203615892

DIPOLE MOMENT
-------------
                                X             Y             Z
Electronic contribution:     -8.63299      24.60751       6.93966
Nuclear contribution   :      8.53004     -25.35298      -6.87756
                        -----------------------------------------
Total Dipole Moment    :     -0.10295      -0.74547       0.06210
                        -----------------------------------------
Magnitude (a.u.)       :      0.75510
Magnitude (Debye)      :      1.91932

Rotational constants in cm-1:     0.019289     0.007709     0.006455
Rotational constants in MHz :   578.263080   231.107867   193.523888

                             ****ORCA TERMINATED NORMALLY****
TOTAL RUN TIME: 0 days 0 hours 0 minutes 35 seconds 567 msec
