                         Program Version 4.2.1 -  RELEASE  -
|  1> ! wB97X-D3 SP def2-SVP
|  2> %pal
|  3> nprocs 16
|  4> end
|  5>
|  6> * xyz 0 1
|  7> S 	 59.739 	 -4.87718 	 87.7381
|  8> C 	 58.4047 	 -4.31752 	 88.7867
|  9> C 	 58.8333 	 -3.54576 	 89.8332
| 10> C 	 60.2277 	 -3.49237 	 89.8157
| 11> C 	 60.8548 	 -4.1671 	 88.7856
| 12> H 	 60.8332 	 -2.96552 	 90.6
| 13> C 	 57.9711 	 -2.75959 	 90.7184
| 14> H 	 56.9954 	 -2.62209 	 90.1642
| 15> H 	 58.4619 	 -1.74993 	 90.7391
| 16> C 	 57.6663 	 -3.47369 	 92.1128
| 17> H 	 56.6802 	 -3.06109 	 92.4929
| 18> H 	 57.616 	 -4.60066 	 92.0279
| 19> C 	 58.7679 	 -3.21297 	 93.1456
| 20> H 	 58.8761 	 -2.11469 	 93.2036
| 21> H 	 58.5979 	 -3.63987 	 94.0926
| 22> H 	 59.7099 	 -3.60377 	 92.8262
| 23> S 	 63.2101 	 -5.64095 	 88.6186
| 24> C 	 64.6736 	 -4.84238 	 88.2878
| 25> C 	 64.5174 	 -3.47689 	 88.0816
| 26> C 	 63.1195 	 -3.10249 	 88.2625
| 27> C 	 62.3089 	 -4.15893 	 88.5725
| 28> H 	 65.4406 	 -2.88803 	 87.8491
| 29> C 	 62.7153 	 -1.66754 	 88.0773
| 30> H 	 61.6779 	 -1.42851 	 88.3139
| 31> H 	 62.8666 	 -1.48508 	 86.9765
| 32> C 	 63.7154 	 -0.57443 	 88.7136
| 33> H 	 64.6164 	 -0.577108 	 88.1433
| 34> H 	 63.9818 	 -0.719689 	 89.7881
| 35> C 	 63.0551 	 0.872159 	 88.6002
| 36> H 	 62.8642 	 1.3499 	 87.6482
| 37> H 	 63.576 	 1.61512 	 89.3063
| 38> H 	 62.0636 	 0.772289 	 89.0887
| 39> H 	 57.345 	 -4.2724 	 88.4009
| 40> H 	 65.6342 	 -5.40076 	 88.4994
| 41> *
| 42>
| 43>                          ****END OF INPUT****

CARTESIAN COORDINATES (ANGSTROEM)
---------------------------------
  S     59.739000   -4.877180   87.738100
  C     58.404700   -4.317520   88.786700
  C     58.833300   -3.545760   89.833200
  C     60.227700   -3.492370   89.815700
  C     60.854800   -4.167100   88.785600
  H     60.833200   -2.965520   90.600000
  C     57.971100   -2.759590   90.718400
  H     56.995400   -2.622090   90.164200
  H     58.461900   -1.749930   90.739100
  C     57.666300   -3.473690   92.112800
  H     56.680200   -3.061090   92.492900
  H     57.616000   -4.600660   92.027900
  C     58.767900   -3.212970   93.145600
  H     58.876100   -2.114690   93.203600
  H     58.597900   -3.639870   94.092600
  H     59.709900   -3.603770   92.826200
  S     63.210100   -5.640950   88.618600
  C     64.673600   -4.842380   88.287800
  C     64.517400   -3.476890   88.081600
  C     63.119500   -3.102490   88.262500
  C     62.308900   -4.158930   88.572500
  H     65.440600   -2.888030   87.849100
  C     62.715300   -1.667540   88.077300
  H     61.677900   -1.428510   88.313900
  H     62.866600   -1.485080   86.976500
  C     63.715400   -0.574430   88.713600
  H     64.616400   -0.577108   88.143300
  H     63.981800   -0.719689   89.788100
  C     63.055100    0.872159   88.600200
  H     62.864200    1.349900   87.648200
  H     63.576000    1.615120   89.306300
  H     62.063600    0.772289   89.088700
  H     57.345000   -4.272400   88.400900
  H     65.634200   -5.400760   88.499400

 Total Charge           Charge          ....    0
 Multiplicity           Mult            ....    1
 Number of Electrons    NEL             ....  134
 Basis Dimension        Dim             ....  322

ORBITAL ENERGIES
----------------

  NO   OCC          E(Eh)            E(eV)
   0   2.0000     -88.967488     -2420.9284
   1   2.0000     -88.961577     -2420.7676
   2   2.0000     -10.323603      -280.9195
   3   2.0000     -10.321151      -280.8528
   4   2.0000     -10.318492      -280.7804
   5   2.0000     -10.313637      -280.6483
   6   2.0000     -10.305666      -280.4314
   7   2.0000     -10.301988      -280.3313
   8   2.0000     -10.301161      -280.3088
   9   2.0000     -10.300282      -280.2849
  10   2.0000     -10.298182      -280.2278
  11   2.0000     -10.297693      -280.2145
  12   2.0000     -10.293483      -280.0999
  13   2.0000     -10.289616      -279.9947
  14   2.0000     -10.288286      -279.9585
  15   2.0000     -10.272708      -279.5346
  16   2.0000      -8.082744      -219.9426
  17   2.0000      -8.077911      -219.8111
  18   2.0000      -6.041130      -164.3875
  19   2.0000      -6.037189      -164.2803
  20   2.0000      -6.036272      -164.2553
  21   2.0000      -6.033597      -164.1825
  22   2.0000      -6.032164      -164.1435
  23   2.0000      -6.028769      -164.0511
  24   2.0000      -1.012861       -27.5614
  25   2.0000      -0.991045       -26.9677
  26   2.0000      -0.913140       -24.8478
  27   2.0000      -0.899113       -24.4661
  28   2.0000      -0.867343       -23.6016
  29   2.0000      -0.850117       -23.1329
  30   2.0000      -0.843185       -22.9442
  31   2.0000      -0.810919       -22.0662
  32   2.0000      -0.781717       -21.2716
  33   2.0000      -0.767660       -20.8891
  34   2.0000      -0.705023       -19.1846
  35   2.0000      -0.700071       -19.0499
  36   2.0000      -0.691762       -18.8238
  37   2.0000      -0.653985       -17.7958
  38   2.0000      -0.632930       -17.2229
  39   2.0000      -0.617956       -16.8154
  40   2.0000      -0.595158       -16.1951
  41   2.0000      -0.569959       -15.5094
  42   2.0000      -0.559975       -15.2377
  43   2.0000      -0.543223       -14.7819
  44   2.0000      -0.539141       -14.6708
  45   2.0000      -0.523871       -14.2552
  46   2.0000      -0.516623       -14.0580
  47   2.0000      -0.509766       -13.8714
  48   2.0000      -0.499038       -13.5795
  49   2.0000      -0.487631       -13.2691
  50   2.0000      -0.486667       -13.2429
  51   2.0000      -0.477199       -12.9853
  52   2.0000      -0.468820       -12.7572
  53   2.0000      -0.465281       -12.6609
  54   2.0000      -0.455213       -12.3870
  55   2.0000      -0.448797       -12.2124
  56   2.0000      -0.439591       -11.9619
  57   2.0000      -0.435440       -11.8489
  58   2.0000      -0.431855       -11.7514
  59   2.0000      -0.428100       -11.6492
  60   2.0000      -0.427077       -11.6214
  61   2.0000      -0.420103       -11.4316
  62   2.0000      -0.416947       -11.3457
  63   2.0000      -0.338145        -9.2014
  64   2.0000      -0.334986        -9.1154
  65   2.0000      -0.325540        -8.8584
  66   2.0000      -0.298558        -8.1242
  67   0.0000       0.044329         1.2063
  68   0.0000       0.062855         1.7104
  69   0.0000       0.109830         2.9886
  70   0.0000       0.119613         3.2548
  71   0.0000       0.131836         3.5874

MULLIKEN ATOMIC CHARGES
-----------------------
   0 S :    0.122941
   1 C :   -0.153018
   2 C :   -0.073541
   3 C :    0.003224
   4 C :   -0.160635
   5 H :    0.022687
   6 C :    0.026077
   7 H :    0.030705
   8 H :    0.046180
   9 C :   -0.087366
  10 H :    0.043116
  11 H :    0.051877
  12 C :   -0.025635
  13 H :    0.024049
  14 H :    0.029060
  15 H :    0.022834
  16 S :    0.112123
  17 C :   -0.125886
  18 C :   -0.059759
  19 C :    0.006544
  20 C :   -0.178975
  21 H :    0.044821
  22 C :    0.039450
  23 H :    0.029807
  24 H :    0.047070
  25 C :   -0.085551
  26 H :    0.032198
  27 H :    0.046556
  28 C :   -0.093779
  29 H :    0.043670
  30 H :    0.043074
  31 H :    0.026171
  32 H :    0.064977
  33 H :    0.084930
Sum of atomic charges:   -0.0000000

LOEWDIN ATOMIC CHARGES
----------------------
   0 S :    0.423439
   1 C :   -0.200363
   2 C :   -0.073881
   3 C :   -0.074025
   4 C :   -0.215467
   5 H :    0.035312
   6 C :   -0.036644
   7 H :    0.037247
   8 H :    0.040388
   9 C :   -0.037643
  10 H :    0.028342
  11 H :    0.034662
  12 C :   -0.063797
  13 H :    0.025350
  14 H :    0.019985
  15 H :    0.020458
  16 S :    0.425565
  17 C :   -0.206711
  18 C :   -0.082896
  19 C :   -0.053864
  20 C :   -0.214689
  21 H :    0.042905
  22 C :   -0.033831
  23 H :    0.025794
  24 H :    0.045287
  25 C :   -0.034226
  26 H :    0.015466
  27 H :    0.029649
  28 C :   -0.080352
  29 H :    0.022631
  30 H :    0.034085
  31 H :    0.025219
  32 H :    0.035484
  33 H :    0.041123

  Mayer bond orders larger than 0.100000
B(  0-S ,  1-C ) :   1.1357 B(  0-S ,  4-C ) :   1.1848 B(  1-C ,  2-C ) :   1.6050
B(  1-C , 32-H ) :   0.9532 B(  2-C ,  3-C ) :   1.2676 B(  2-C ,  6-C ) :   1.0168
B(  3-C ,  4-C ) :   1.5580 B(  3-C ,  5-H ) :   0.9873 B(  4-C , 20-C ) :   1.0029
B(  6-C ,  7-H ) :   0.9397 B(  6-C ,  8-H ) :   0.9467 B(  6-C ,  9-C ) :   1.0355
B(  9-C , 10-H ) :   0.9597 B(  9-C , 11-H ) :   0.9589 B(  9-C , 12-C ) :   1.0765
B( 12-C , 13-H ) :   0.9765 B( 12-C , 14-H ) :   0.9725 B( 12-C , 15-H ) :   0.9732
B( 16-S , 17-C ) :   1.1849 B( 16-S , 20-C ) :   1.1365 B( 17-C , 18-C ) :   1.6073
B( 17-C , 33-H ) :   0.9562 B( 18-C , 19-C ) :   1.2097 B( 18-C , 21-H ) :   0.9862
B( 19-C , 20-C ) :   1.6268 B( 19-C , 22-C ) :   1.0521 B( 22-C , 23-H ) :   0.9453
B( 22-C , 24-H ) :   0.9302 B( 22-C , 25-C ) :   1.0427 B( 25-C , 26-H ) :   0.9535
B( 25-C , 27-H ) :   0.9637 B( 25-C , 28-C ) :   1.0697 B( 28-C , 29-H ) :   0.9793
B( 28-C , 30-H ) :   0.9766 B( 28-C , 31-H ) :   0.9757

Dispersion correction           -0.014110902
FINAL SINGLE POINT ENERGY     -1339.872630660803

DIPOLE MOMENT
-------------
                                X             Y             Z
Electronic contribution:      4.52342     -23.62272     -14.46138
Nuclear contribution   :     -4.49953      24.25677      14.71957
                        -----------------------------------------
Total Dipole Moment    :      0.02389       0.63406       0.25820
                        -----------------------------------------
Magnitude (a.u.)       :      0.68503
Magnitude (Debye)      :      1.74121

Rotational constants in cm-1:     0.016212     0.008903     0.007099
Rotational constants in MHz :   486.029379   266.895283   212.820660

                             ****ORCA TERMINATED NORMALLY****
TOTAL RUN TIME: 0 days 0 hours 0 minutes 30 seconds 259 msec
