                         Program Version 4.2.1 -  RELEASE  -
|  1> ! wB97X-D3 SP def2-SVP
|  2> %pal
|  3> nprocs 16
|  4> end
|  5>
|  6> * xyz 0 1
|  7> S 	 -70.5945 	 48.1559 	 135.071
|  8> C 	 -70.7382 	 48.8557 	 133.476
|  9> C 	 -71.0733 	 48.0066 	 132.472
| 10> C 	 -71.1478 	 46.6846 	 132.978
| 11> C 	 -70.9127 	 46.5416 	 134.314
| 12> H 	 -71.3233 	 45.7544 	 132.402
| 13> C 	 -71.2708 	 48.3191 	 130.945
| 14> H 	 -71.9657 	 47.5781 	 130.555
| 15> H 	 -70.3242 	 47.9174 	 130.619
| 16> C 	 -71.6091 	 49.7795 	 130.477
| 17> H 	 -72.415 	 50.0887 	 131.19
| 18> H 	 -70.7487 	 50.4999 	 130.599
| 19> C 	 -72.3076 	 49.8568 	 129.168
| 20> H 	 -72.4253 	 50.8659 	 128.787
| 21> H 	 -71.7842 	 49.2917 	 128.406
| 22> H 	 -73.3046 	 49.439 	 129.233
| 23> S 	 -72.0231 	 45.0327 	 136.388
| 24> C 	 -71.5451 	 43.4307 	 136.702
| 25> C 	 -70.5639 	 43.0933 	 135.815
| 26> C 	 -70.3417 	 44.0588 	 134.789
| 27> C 	 -70.9975 	 45.2425 	 135.029
| 28> H 	 -70.2203 	 42.0956 	 135.768
| 29> C 	 -69.4215 	 43.7244 	 133.694
| 30> H 	 -68.5453 	 43.2044 	 134.108
| 31> H 	 -69.0945 	 44.6832 	 133.229
| 32> C 	 -69.9646 	 42.7953 	 132.501
| 33> H 	 -70.9222 	 43.1315 	 132.063
| 34> H 	 -70.193 	 41.7893 	 132.874
| 35> C 	 -68.8929 	 42.5223 	 131.398
| 36> H 	 -67.9372 	 42.1281 	 131.693
| 37> H 	 -68.5413 	 43.4194 	 130.903
| 38> H 	 -69.2997 	 41.9302 	 130.59
| 39> H 	 -70.5397 	 49.9401 	 133.358
| 40> H 	 -71.7546 	 42.9865 	 137.695
| 41> *
| 42>
| 43>                          ****END OF INPUT****

CARTESIAN COORDINATES (ANGSTROEM)
---------------------------------
  S    -70.594500   48.155900  135.071000
  C    -70.738200   48.855700  133.476000
  C    -71.073300   48.006600  132.472000
  C    -71.147800   46.684600  132.978000
  C    -70.912700   46.541600  134.314000
  H    -71.323300   45.754400  132.402000
  C    -71.270800   48.319100  130.945000
  H    -71.965700   47.578100  130.555000
  H    -70.324200   47.917400  130.619000
  C    -71.609100   49.779500  130.477000
  H    -72.415000   50.088700  131.190000
  H    -70.748700   50.499900  130.599000
  C    -72.307600   49.856800  129.168000
  H    -72.425300   50.865900  128.787000
  H    -71.784200   49.291700  128.406000
  H    -73.304600   49.439000  129.233000
  S    -72.023100   45.032700  136.388000
  C    -71.545100   43.430700  136.702000
  C    -70.563900   43.093300  135.815000
  C    -70.341700   44.058800  134.789000
  C    -70.997500   45.242500  135.029000
  H    -70.220300   42.095600  135.768000
  C    -69.421500   43.724400  133.694000
  H    -68.545300   43.204400  134.108000
  H    -69.094500   44.683200  133.229000
  C    -69.964600   42.795300  132.501000
  H    -70.922200   43.131500  132.063000
  H    -70.193000   41.789300  132.874000
  C    -68.892900   42.522300  131.398000
  H    -67.937200   42.128100  131.693000
  H    -68.541300   43.419400  130.903000
  H    -69.299700   41.930200  130.590000
  H    -70.539700   49.940100  133.358000
  H    -71.754600   42.986500  137.695000

 Total Charge           Charge          ....    0
 Multiplicity           Mult            ....    1
 Number of Electrons    NEL             ....  134
 Basis Dimension        Dim             ....  322

ORBITAL ENERGIES
----------------

  NO   OCC          E(Eh)            E(eV)
   0   2.0000     -88.966909     -2420.9127
   1   2.0000     -88.958630     -2420.6874
   2   2.0000     -10.332126      -281.1514
   3   2.0000     -10.323507      -280.9169
   4   2.0000     -10.313917      -280.6560
   5   2.0000     -10.312814      -280.6259
   6   2.0000     -10.303289      -280.3668
   7   2.0000     -10.301578      -280.3202
   8   2.0000     -10.298780      -280.2441
   9   2.0000     -10.297626      -280.2126
  10   2.0000     -10.295171      -280.1459
  11   2.0000     -10.295123      -280.1446
  12   2.0000     -10.293871      -280.1105
  13   2.0000     -10.285280      -279.8767
  14   2.0000     -10.277558      -279.6666
  15   2.0000     -10.276974      -279.6507
  16   2.0000      -8.080854      -219.8912
  17   2.0000      -8.075325      -219.7408
  18   2.0000      -6.039472      -164.3424
  19   2.0000      -6.035715      -164.2402
  20   2.0000      -6.033645      -164.1838
  21   2.0000      -6.031314      -164.1204
  22   2.0000      -6.029344      -164.0668
  23   2.0000      -6.026373      -163.9859
  24   2.0000      -1.011738       -27.5308
  25   2.0000      -0.988530       -26.8993
  26   2.0000      -0.908857       -24.7312
  27   2.0000      -0.902363       -24.5546
  28   2.0000      -0.870872       -23.6976
  29   2.0000      -0.855421       -23.2772
  30   2.0000      -0.850147       -23.1337
  31   2.0000      -0.815836       -22.2000
  32   2.0000      -0.782619       -21.2962
  33   2.0000      -0.771936       -21.0054
  34   2.0000      -0.709920       -19.3179
  35   2.0000      -0.706267       -19.2185
  36   2.0000      -0.688450       -18.7337
  37   2.0000      -0.664370       -18.0784
  38   2.0000      -0.638629       -17.3780
  39   2.0000      -0.612586       -16.6693
  40   2.0000      -0.594926       -16.1888
  41   2.0000      -0.571182       -15.5427
  42   2.0000      -0.564638       -15.3646
  43   2.0000      -0.555124       -15.1057
  44   2.0000      -0.527335       -14.3495
  45   2.0000      -0.523726       -14.2513
  46   2.0000      -0.516787       -14.0625
  47   2.0000      -0.513452       -13.9717
  48   2.0000      -0.507198       -13.8016
  49   2.0000      -0.498816       -13.5735
  50   2.0000      -0.489845       -13.3294
  51   2.0000      -0.480879       -13.0854
  52   2.0000      -0.476780       -12.9739
  53   2.0000      -0.464383       -12.6365
  54   2.0000      -0.456683       -12.4270
  55   2.0000      -0.451589       -12.2884
  56   2.0000      -0.445778       -12.1302
  57   2.0000      -0.438736       -11.9386
  58   2.0000      -0.433947       -11.8083
  59   2.0000      -0.431571       -11.7436
  60   2.0000      -0.417861       -11.3706
  61   2.0000      -0.415211       -11.2985
  62   2.0000      -0.412676       -11.2295
  63   2.0000      -0.348013        -9.4699
  64   2.0000      -0.331516        -9.0210
  65   2.0000      -0.325577        -8.8594
  66   2.0000      -0.297662        -8.0998
  67   0.0000       0.036155         0.9838
  68   0.0000       0.072833         1.9819
  69   0.0000       0.111553         3.0355
  70   0.0000       0.123847         3.3700
  71   0.0000       0.132367         3.6019

MULLIKEN ATOMIC CHARGES
-----------------------
   0 S :    0.111344
   1 C :   -0.165515
   2 C :   -0.057394
   3 C :   -0.004898
   4 C :   -0.144673
   5 H :    0.021555
   6 C :    0.078179
   7 H :    0.022889
   8 H :    0.033664
   9 C :   -0.089145
  10 H :    0.040350
  11 H :    0.049962
  12 C :   -0.034661
  13 H :    0.034504
  14 H :    0.025212
  15 H :    0.031739
  16 S :    0.099427
  17 C :   -0.105425
  18 C :   -0.016895
  19 C :   -0.032912
  20 C :   -0.154462
  21 H :    0.009918
  22 C :    0.026597
  23 H :    0.030861
  24 H :    0.031024
  25 C :   -0.072102
  26 H :    0.034773
  27 H :    0.025931
  28 C :   -0.039929
  29 H :    0.023138
  30 H :    0.012340
  31 H :    0.034379
  32 H :    0.059260
  33 H :    0.080967
Sum of atomic charges:    0.0000000

LOEWDIN ATOMIC CHARGES
----------------------
   0 S :    0.375571
   1 C :   -0.196985
   2 C :   -0.066830
   3 C :   -0.060421
   4 C :   -0.174968
   5 H :    0.037562
   6 C :   -0.028135
   7 H :    0.031380
   8 H :    0.034498
   9 C :   -0.050413
  10 H :    0.034103
  11 H :    0.031130
  12 C :   -0.064874
  13 H :    0.029351
  14 H :    0.021533
  15 H :    0.027230
  16 S :    0.435813
  17 C :   -0.206050
  18 C :   -0.069948
  19 C :   -0.067963
  20 C :   -0.209099
  21 H :    0.024310
  22 C :   -0.035928
  23 H :    0.035190
  24 H :    0.032003
  25 C :   -0.035954
  26 H :    0.023909
  27 H :    0.022693
  28 C :   -0.071199
  29 H :    0.023079
  30 H :    0.021075
  31 H :    0.027470
  32 H :    0.030955
  33 H :    0.039910

  Mayer bond orders larger than 0.100000
B(  0-S ,  1-C ) :   1.1294 B(  0-S ,  4-C ) :   1.1188 B(  1-C ,  2-C ) :   1.6556
B(  1-C , 32-H ) :   0.9566 B(  2-C ,  3-C ) :   1.2208 B(  2-C ,  6-C ) :   0.9861
B(  3-C ,  4-C ) :   1.6199 B(  3-C ,  5-H ) :   0.9872 B(  4-C , 20-C ) :   1.0295
B(  6-C ,  7-H ) :   0.9471 B(  6-C ,  8-H ) :   0.9302 B(  6-C ,  9-C ) :   1.0456
B(  9-C , 10-H ) :   0.9620 B(  9-C , 11-H ) :   0.9520 B(  9-C , 12-C ) :   1.0935
B( 12-C , 13-H ) :   0.9706 B( 12-C , 14-H ) :   0.9738 B( 12-C , 15-H ) :   0.9731
B( 16-S , 17-C ) :   1.1783 B( 16-S , 20-C ) :   1.1599 B( 17-C , 18-C ) :   1.5801
B( 17-C , 33-H ) :   0.9600 B( 18-C , 19-C ) :   1.2704 B( 18-C , 21-H ) :   0.9920
B( 19-C , 20-C ) :   1.5673 B( 19-C , 22-C ) :   1.0731 B( 22-C , 23-H ) :   0.9332
B( 22-C , 24-H ) :   0.9315 B( 22-C , 25-C ) :   1.0487 B( 25-C , 26-H ) :   0.9569
B( 25-C , 27-H ) :   0.9555 B( 25-C , 28-C ) :   1.0749 B( 28-C , 29-H ) :   0.9750
B( 28-C , 30-H ) :   0.9732 B( 28-C , 31-H ) :   0.9751

Dispersion correction           -0.013685488
FINAL SINGLE POINT ENERGY     -1339.877151427288

DIPOLE MOMENT
-------------
                                X             Y             Z
Electronic contribution:     -4.40021       2.65761      29.98224
Nuclear contribution   :      4.55292      -2.81026     -30.68497
                        -----------------------------------------
Total Dipole Moment    :      0.15271      -0.15265      -0.70273
                        -----------------------------------------
Magnitude (a.u.)       :      0.73515
Magnitude (Debye)      :      1.86861

Rotational constants in cm-1:     0.017963     0.007888     0.005984
Rotational constants in MHz :   538.508013   236.482036   179.404295

                             ****ORCA TERMINATED NORMALLY****
TOTAL RUN TIME: 0 days 0 hours 0 minutes 33 seconds 387 msec
