                         Program Version 4.2.1 -  RELEASE  -
|  1> ! wB97X-D3 SP def2-SVP
|  2> %pal
|  3> nprocs 16
|  4> end
|  5>
|  6> * xyz 0 1
|  7> S 	 -67.9709 	 38.7155 	 138.787
|  8> C 	 -66.5564 	 39.5047 	 139.403
|  9> C 	 -65.4671 	 39.4386 	 138.572
| 10> C 	 -65.7253 	 38.6303 	 137.424
| 11> C 	 -67.0701 	 38.1778 	 137.296
| 12> H 	 -65.0425 	 38.2788 	 136.681
| 13> C 	 -64.0233 	 39.8941 	 138.926
| 14> H 	 -64.0975 	 40.8047 	 139.516
| 15> H 	 -63.5383 	 40.3566 	 138.095
| 16> C 	 -63.1549 	 38.7642 	 139.365
| 17> H 	 -63.1526 	 37.955 	 138.573
| 18> H 	 -62.0999 	 39.1161 	 139.359
| 19> C 	 -63.5253 	 38.1827 	 140.755
| 20> H 	 -64.6374 	 38.1357 	 140.821
| 21> H 	 -63.1984 	 37.1718 	 140.827
| 22> H 	 -63.1284 	 38.8453 	 141.567
| 23> S 	 -69.0603 	 36.535 	 136.511
| 24> C 	 -69.2117 	 36.0813 	 134.868
| 25> C 	 -68.191 	 36.6052 	 134.135
| 26> C 	 -67.3055 	 37.4696 	 134.847
| 27> C 	 -67.7124 	 37.5715 	 136.162
| 28> H 	 -68.132 	 36.2722 	 133.067
| 29> C 	 -66.1321 	 38.2642 	 134.241
| 30> H 	 -65.8341 	 38.9966 	 134.941
| 31> H 	 -66.4804 	 38.7607 	 133.384
| 32> C 	 -64.9685 	 37.3965 	 133.808
| 33> H 	 -64.1544 	 38.0409 	 133.339
| 34> H 	 -65.374 	 36.6978 	 133.048
| 35> C 	 -64.2591 	 36.3575 	 134.841
| 36> H 	 -63.6146 	 36.8173 	 135.567
| 37> H 	 -63.6151 	 35.6196 	 134.293
| 38> H 	 -64.9596 	 35.7116 	 135.373
| 39> H 	 -66.5141 	 40.0568 	 140.297
| 40> H 	 -69.9674 	 35.4491 	 134.453
| 41> *
| 42>
| 43>                          ****END OF INPUT****

CARTESIAN COORDINATES (ANGSTROEM)
---------------------------------
  S    -67.970900   38.715500  138.787000
  C    -66.556400   39.504700  139.403000
  C    -65.467100   39.438600  138.572000
  C    -65.725300   38.630300  137.424000
  C    -67.070100   38.177800  137.296000
  H    -65.042500   38.278800  136.681000
  C    -64.023300   39.894100  138.926000
  H    -64.097500   40.804700  139.516000
  H    -63.538300   40.356600  138.095000
  C    -63.154900   38.764200  139.365000
  H    -63.152600   37.955000  138.573000
  H    -62.099900   39.116100  139.359000
  C    -63.525300   38.182700  140.755000
  H    -64.637400   38.135700  140.821000
  H    -63.198400   37.171800  140.827000
  H    -63.128400   38.845300  141.567000
  S    -69.060300   36.535000  136.511000
  C    -69.211700   36.081300  134.868000
  C    -68.191000   36.605200  134.135000
  C    -67.305500   37.469600  134.847000
  C    -67.712400   37.571500  136.162000
  H    -68.132000   36.272200  133.067000
  C    -66.132100   38.264200  134.241000
  H    -65.834100   38.996600  134.941000
  H    -66.480400   38.760700  133.384000
  C    -64.968500   37.396500  133.808000
  H    -64.154400   38.040900  133.339000
  H    -65.374000   36.697800  133.048000
  C    -64.259100   36.357500  134.841000
  H    -63.614600   36.817300  135.567000
  H    -63.615100   35.619600  134.293000
  H    -64.959600   35.711600  135.373000
  H    -66.514100   40.056800  140.297000
  H    -69.967400   35.449100  134.453000

 Total Charge           Charge          ....    0
 Multiplicity           Mult            ....    1
 Number of Electrons    NEL             ....  134
 Basis Dimension        Dim             ....  322

ORBITAL ENERGIES
----------------

  NO   OCC          E(Eh)            E(eV)
   0   2.0000     -88.966911     -2420.9127
   1   2.0000     -88.964438     -2420.8454
   2   2.0000     -10.335911      -281.2544
   3   2.0000     -10.325282      -280.9652
   4   2.0000     -10.312770      -280.6247
   5   2.0000     -10.311054      -280.5780
   6   2.0000     -10.305938      -280.4388
   7   2.0000     -10.301734      -280.3244
   8   2.0000     -10.301395      -280.3152
   9   2.0000     -10.296204      -280.1739
  10   2.0000     -10.295770      -280.1622
  11   2.0000     -10.292082      -280.0618
  12   2.0000     -10.290326      -280.0140
  13   2.0000     -10.288326      -279.9596
  14   2.0000     -10.285693      -279.8879
  15   2.0000     -10.276970      -279.6506
  16   2.0000      -8.080778      -219.8892
  17   2.0000      -8.080474      -219.8809
  18   2.0000      -6.039368      -164.3395
  19   2.0000      -6.038842      -164.3253
  20   2.0000      -6.035441      -164.2327
  21   2.0000      -6.034875      -164.2173
  22   2.0000      -6.031477      -164.1248
  23   2.0000      -6.031222      -164.1179
  24   2.0000      -1.011434       -27.5225
  25   2.0000      -0.982592       -26.7377
  26   2.0000      -0.911271       -24.7969
  27   2.0000      -0.908702       -24.7270
  28   2.0000      -0.872600       -23.7447
  29   2.0000      -0.845445       -23.0057
  30   2.0000      -0.838578       -22.8189
  31   2.0000      -0.812056       -22.0972
  32   2.0000      -0.790158       -21.5013
  33   2.0000      -0.780610       -21.2415
  34   2.0000      -0.712771       -19.3955
  35   2.0000      -0.698339       -19.0028
  36   2.0000      -0.690769       -18.7968
  37   2.0000      -0.659285       -17.9401
  38   2.0000      -0.639826       -17.4106
  39   2.0000      -0.622143       -16.9294
  40   2.0000      -0.599666       -16.3178
  41   2.0000      -0.570212       -15.5163
  42   2.0000      -0.553573       -15.0635
  43   2.0000      -0.544914       -14.8279
  44   2.0000      -0.541422       -14.7328
  45   2.0000      -0.535500       -14.5717
  46   2.0000      -0.520622       -14.1668
  47   2.0000      -0.513019       -13.9600
  48   2.0000      -0.504716       -13.7340
  49   2.0000      -0.493513       -13.4292
  50   2.0000      -0.489894       -13.3307
  51   2.0000      -0.480274       -13.0689
  52   2.0000      -0.476901       -12.9771
  53   2.0000      -0.464112       -12.6291
  54   2.0000      -0.456662       -12.4264
  55   2.0000      -0.445739       -12.1292
  56   2.0000      -0.444614       -12.0986
  57   2.0000      -0.442946       -12.0532
  58   2.0000      -0.434255       -11.8167
  59   2.0000      -0.422588       -11.4992
  60   2.0000      -0.416969       -11.3463
  61   2.0000      -0.411681       -11.2024
  62   2.0000      -0.410196       -11.1620
  63   2.0000      -0.362343        -9.8599
  64   2.0000      -0.335284        -9.1235
  65   2.0000      -0.331161        -9.0114
  66   2.0000      -0.282249        -7.6804
  67   0.0000       0.018715         0.5093
  68   0.0000       0.083579         2.2743
  69   0.0000       0.103031         2.8036
  70   0.0000       0.120817         3.2876
  71   0.0000       0.130688         3.5562

MULLIKEN ATOMIC CHARGES
-----------------------
   0 S :    0.097494
   1 C :   -0.085883
   2 C :   -0.092878
   3 C :    0.009439
   4 C :   -0.135264
   5 H :   -0.014444
   6 C :    0.092043
   7 H :    0.015344
   8 H :    0.007633
   9 C :   -0.093909
  10 H :    0.037710
  11 H :    0.033221
  12 C :   -0.043369
  13 H :    0.037505
  14 H :    0.029401
  15 H :    0.041370
  16 S :    0.102632
  17 C :   -0.073606
  18 C :   -0.065629
  19 C :   -0.081043
  20 C :   -0.119113
  21 H :    0.032903
  22 C :    0.154939
  23 H :    0.016019
  24 H :    0.019089
  25 C :   -0.125935
  26 H :    0.050220
  27 H :    0.035222
  28 C :   -0.083479
  29 H :    0.041256
  30 H :    0.036559
  31 H :    0.044521
  32 H :    0.031169
  33 H :    0.048865
Sum of atomic charges:   -0.0000000

LOEWDIN ATOMIC CHARGES
----------------------
   0 S :    0.379571
   1 C :   -0.191073
   2 C :   -0.064396
   3 C :   -0.059280
   4 C :   -0.168979
   5 H :    0.024583
   6 C :   -0.035737
   7 H :    0.029698
   8 H :    0.028627
   9 C :   -0.046148
  10 H :    0.029917
  11 H :    0.026809
  12 C :   -0.068324
  13 H :    0.029705
  14 H :    0.021903
  15 H :    0.030668
  16 S :    0.422604
  17 C :   -0.192628
  18 C :   -0.079980
  19 C :   -0.053486
  20 C :   -0.200426
  21 H :    0.038841
  22 C :   -0.023132
  23 H :    0.023972
  24 H :    0.030646
  25 C :   -0.042033
  26 H :    0.033088
  27 H :    0.026453
  28 C :   -0.077435
  29 H :    0.015403
  30 H :    0.033246
  31 H :    0.027992
  32 H :    0.020443
  33 H :    0.028887

  Mayer bond orders larger than 0.100000
B(  0-S ,  1-C ) :   1.1403 B(  0-S ,  4-C ) :   1.1227 B(  1-C ,  2-C ) :   1.6205
B(  1-C , 32-H ) :   0.9645 B(  2-C ,  3-C ) :   1.2376 B(  2-C ,  6-C ) :   1.0286
B(  3-C ,  4-C ) :   1.5702 B(  3-C ,  5-H ) :   0.9821 B(  4-C , 20-C ) :   1.0838
B(  6-C ,  7-H ) :   0.9401 B(  6-C ,  8-H ) :   0.9295 B(  6-C ,  9-C ) :   1.0709
B(  9-C , 10-H ) :   0.9543 B(  9-C , 11-H ) :   0.9531 B(  9-C , 12-C ) :   1.0677
B( 12-C , 13-H ) :   0.9760 B( 12-C , 14-H ) :   0.9741 B( 12-C , 15-H ) :   0.9752
B( 16-S , 17-C ) :   1.1538 B( 16-S , 20-C ) :   1.1435 B( 17-C , 18-C ) :   1.6213
B( 17-C , 33-H ) :   0.9706 B( 18-C , 19-C ) :   1.2347 B( 18-C , 21-H ) :   0.9837
B( 19-C , 20-C ) :   1.5846 B( 19-C , 22-C ) :   1.0256 B( 22-C , 23-H ) :   0.9305
B( 22-C , 24-H ) :   0.9253 B( 22-C , 25-C ) :   1.0692 B( 25-C , 26-H ) :   0.9575
B( 25-C , 27-H ) :   0.9605 B( 25-C , 28-C ) :   1.0624 B( 28-C , 29-H ) :   0.9710
B( 28-C , 30-H ) :   0.9744 B( 28-C , 31-H ) :   0.9747

Dispersion correction           -0.015478283
FINAL SINGLE POINT ENERGY     -1339.879040701995

DIPOLE MOMENT
-------------
                                X             Y             Z
Electronic contribution:    -27.64252      -0.54090       2.15687
Nuclear contribution   :     28.23141       0.56851      -2.56081
                        -----------------------------------------
Total Dipole Moment    :      0.58889       0.02761      -0.40395
                        -----------------------------------------
Magnitude (a.u.)       :      0.71465
Magnitude (Debye)      :      1.81649

Rotational constants in cm-1:     0.019805     0.009642     0.007283
Rotational constants in MHz :   593.728927   289.058651   218.330312

                             ****ORCA TERMINATED NORMALLY****
TOTAL RUN TIME: 0 days 0 hours 0 minutes 36 seconds 614 msec
