                         Program Version 4.2.1 -  RELEASE  -
|  1> ! wB97X-D3 SP def2-SVP
|  2> %pal
|  3> nprocs 16
|  4> end
|  5>
|  6> * xyz 0 1
|  7> S 	 -53.6512 	 39.6477 	 104.481
|  8> C 	 -53.5794 	 41.3508 	 104.145
|  9> C 	 -53.4673 	 42.033 	 105.307
| 10> C 	 -53.3933 	 41.1382 	 106.458
| 11> C 	 -53.4431 	 39.8451 	 106.201
| 12> H 	 -53.2217 	 41.5317 	 107.538
| 13> C 	 -53.4962 	 43.5651 	 105.422
| 14> H 	 -53.8719 	 43.8738 	 106.414
| 15> H 	 -54.2803 	 43.9912 	 104.757
| 16> C 	 -52.115 	 44.2129 	 105.127
| 17> H 	 -51.3757 	 43.6427 	 105.646
| 18> H 	 -51.9724 	 44.0619 	 104.063
| 19> C 	 -51.9511 	 45.632 	 105.57
| 20> H 	 -50.9878 	 46.0405 	 105.142
| 21> H 	 -52.7249 	 46.2182 	 105.109
| 22> H 	 -51.9298 	 45.6358 	 106.694
| 23> S 	 -54.4587 	 37.6012 	 107.331
| 24> C 	 -53.5242 	 36.535 	 108.377
| 25> C 	 -52.2606 	 37.0412 	 108.504
| 26> C 	 -52.0256 	 38.247 	 107.717
| 27> C 	 -53.2273 	 38.7138 	 107.089
| 28> H 	 -51.612 	 36.3641 	 109.049
| 29> C 	 -50.7312 	 38.9333 	 107.645
| 30> H 	 -50.9362 	 40.0024 	 107.798
| 31> H 	 -50.4287 	 38.8624 	 106.633
| 32> C 	 -49.6553 	 38.5478 	 108.624
| 33> H 	 -48.7094 	 38.9346 	 108.208
| 34> H 	 -49.646 	 37.4467 	 108.837
| 35> C 	 -49.8325 	 39.0826 	 110.049
| 36> H 	 -50.7525 	 38.6081 	 110.487
| 37> H 	 -50.077 	 40.0996 	 110.112
| 38> H 	 -49.0044 	 38.7942 	 110.756
| 39> H 	 -53.7066 	 41.8445 	 103.195
| 40> H 	 -53.9805 	 35.6294 	 108.833
| 41> *
| 42>
| 43>                          ****END OF INPUT****

CARTESIAN COORDINATES (ANGSTROEM)
---------------------------------
  S    -53.651200   39.647700  104.481000
  C    -53.579400   41.350800  104.145000
  C    -53.467300   42.033000  105.307000
  C    -53.393300   41.138200  106.458000
  C    -53.443100   39.845100  106.201000
  H    -53.221700   41.531700  107.538000
  C    -53.496200   43.565100  105.422000
  H    -53.871900   43.873800  106.414000
  H    -54.280300   43.991200  104.757000
  C    -52.115000   44.212900  105.127000
  H    -51.375700   43.642700  105.646000
  H    -51.972400   44.061900  104.063000
  C    -51.951100   45.632000  105.570000
  H    -50.987800   46.040500  105.142000
  H    -52.724900   46.218200  105.109000
  H    -51.929800   45.635800  106.694000
  S    -54.458700   37.601200  107.331000
  C    -53.524200   36.535000  108.377000
  C    -52.260600   37.041200  108.504000
  C    -52.025600   38.247000  107.717000
  C    -53.227300   38.713800  107.089000
  H    -51.612000   36.364100  109.049000
  C    -50.731200   38.933300  107.645000
  H    -50.936200   40.002400  107.798000
  H    -50.428700   38.862400  106.633000
  C    -49.655300   38.547800  108.624000
  H    -48.709400   38.934600  108.208000
  H    -49.646000   37.446700  108.837000
  C    -49.832500   39.082600  110.049000
  H    -50.752500   38.608100  110.487000
  H    -50.077000   40.099600  110.112000
  H    -49.004400   38.794200  110.756000
  H    -53.706600   41.844500  103.195000
  H    -53.980500   35.629400  108.833000

 Total Charge           Charge          ....    0
 Multiplicity           Mult            ....    1
 Number of Electrons    NEL             ....  134
 Basis Dimension        Dim             ....  322

ORBITAL ENERGIES
----------------

  NO   OCC          E(Eh)            E(eV)
   0   2.0000     -88.961351     -2420.7614
   1   2.0000     -88.960702     -2420.7438
   2   2.0000     -10.324811      -280.9524
   3   2.0000     -10.324499      -280.9439
   4   2.0000     -10.320262      -280.8286
   5   2.0000     -10.312299      -280.6119
   6   2.0000     -10.309659      -280.5401
   7   2.0000     -10.300832      -280.2999
   8   2.0000     -10.298050      -280.2242
   9   2.0000     -10.297618      -280.2124
  10   2.0000     -10.296832      -280.1910
  11   2.0000     -10.289530      -279.9923
  12   2.0000     -10.284149      -279.8459
  13   2.0000     -10.282557      -279.8026
  14   2.0000     -10.281178      -279.7651
  15   2.0000     -10.277371      -279.6615
  16   2.0000      -8.077426      -219.7979
  17   2.0000      -8.076216      -219.7650
  18   2.0000      -6.035774      -164.2418
  19   2.0000      -6.034904      -164.2181
  20   2.0000      -6.031415      -164.1231
  21   2.0000      -6.030582      -164.1005
  22   2.0000      -6.028601      -164.0466
  23   2.0000      -6.026720      -163.9954
  24   2.0000      -1.014189       -27.5975
  25   2.0000      -0.990471       -26.9521
  26   2.0000      -0.917052       -24.9543
  27   2.0000      -0.912145       -24.8207
  28   2.0000      -0.878341       -23.9009
  29   2.0000      -0.846630       -23.0380
  30   2.0000      -0.843690       -22.9580
  31   2.0000      -0.827131       -22.5074
  32   2.0000      -0.781291       -21.2600
  33   2.0000      -0.770403       -20.9637
  34   2.0000      -0.707394       -19.2492
  35   2.0000      -0.697640       -18.9837
  36   2.0000      -0.694822       -18.9071
  37   2.0000      -0.648868       -17.6566
  38   2.0000      -0.643536       -17.5115
  39   2.0000      -0.620221       -16.8771
  40   2.0000      -0.603873       -16.4322
  41   2.0000      -0.572424       -15.5764
  42   2.0000      -0.569604       -15.4997
  43   2.0000      -0.559036       -15.2121
  44   2.0000      -0.530959       -14.4481
  45   2.0000      -0.529062       -14.3965
  46   2.0000      -0.523670       -14.2498
  47   2.0000      -0.513071       -13.9614
  48   2.0000      -0.508480       -13.8364
  49   2.0000      -0.503368       -13.6973
  50   2.0000      -0.496045       -13.4981
  51   2.0000      -0.476915       -12.9775
  52   2.0000      -0.475778       -12.9466
  53   2.0000      -0.465016       -12.6537
  54   2.0000      -0.461185       -12.5495
  55   2.0000      -0.446815       -12.1585
  56   2.0000      -0.444455       -12.0942
  57   2.0000      -0.431711       -11.7475
  58   2.0000      -0.426463       -11.6047
  59   2.0000      -0.420727       -11.4486
  60   2.0000      -0.419068       -11.4034
  61   2.0000      -0.414643       -11.2830
  62   2.0000      -0.411287       -11.1917
  63   2.0000      -0.346704        -9.4343
  64   2.0000      -0.331682        -9.0255
  65   2.0000      -0.325120        -8.8470
  66   2.0000      -0.301076        -8.1927
  67   0.0000       0.041541         1.1304
  68   0.0000       0.066406         1.8070
  69   0.0000       0.121163         3.2970
  70   0.0000       0.125203         3.4069
  71   0.0000       0.133444         3.6312

MULLIKEN ATOMIC CHARGES
-----------------------
   0 S :    0.105276
   1 C :   -0.108923
   2 C :   -0.100615
   3 C :    0.011651
   4 C :   -0.139231
   5 H :    0.041471
   6 C :    0.034352
   7 H :    0.015133
   8 H :    0.031859
   9 C :   -0.065710
  10 H :    0.020905
  11 H :    0.021650
  12 C :   -0.041554
  13 H :    0.041436
  14 H :    0.027337
  15 H :    0.047005
  16 S :    0.105277
  17 C :   -0.127091
  18 C :   -0.040312
  19 C :   -0.059647
  20 C :   -0.160184
  21 H :    0.027258
  22 C :    0.111463
  23 H :    0.023009
  24 H :    0.032355
  25 C :   -0.065825
  26 H :    0.034993
  27 H :    0.034002
  28 C :   -0.070479
  29 H :    0.025918
  30 H :    0.015466
  31 H :    0.049374
  32 H :    0.045124
  33 H :    0.077260
Sum of atomic charges:    0.0000000

LOEWDIN ATOMIC CHARGES
----------------------
   0 S :    0.403163
   1 C :   -0.191135
   2 C :   -0.068892
   3 C :   -0.070526
   4 C :   -0.203366
   5 H :    0.045270
   6 C :   -0.034967
   7 H :    0.026034
   8 H :    0.031173
   9 C :   -0.043447
  10 H :    0.020077
  11 H :    0.020893
  12 C :   -0.066563
  13 H :    0.034748
  14 H :    0.020736
  15 H :    0.033355
  16 S :    0.436318
  17 C :   -0.188739
  18 C :   -0.083796
  19 C :   -0.045351
  20 C :   -0.233083
  21 H :    0.035245
  22 C :   -0.040724
  23 H :    0.037893
  24 H :    0.035797
  25 C :   -0.042996
  26 H :    0.029255
  27 H :    0.029340
  28 C :   -0.071762
  29 H :    0.028678
  30 H :    0.011505
  31 H :    0.034161
  32 H :    0.031950
  33 H :    0.039757

  Mayer bond orders larger than 0.100000
B(  0-S ,  1-C ) :   1.1311 B(  0-S ,  4-C ) :   1.1272 B(  1-C ,  2-C ) :   1.6462
B(  1-C , 32-H ) :   0.9695 B(  2-C ,  3-C ) :   1.2180 B(  2-C ,  6-C ) :   1.0184
B(  3-C ,  4-C ) :   1.6480 B(  3-C ,  5-H ) :   0.9784 B(  4-C , 20-C ) :   1.0087
B(  6-C ,  7-H ) :   0.9475 B(  6-C ,  8-H ) :   0.9438 B(  6-C ,  9-C ) :   1.0489
B(  9-C , 10-H ) :   0.9585 B(  9-C , 11-H ) :   0.9542 B(  9-C , 12-C ) :   1.0913
B( 12-C , 13-H ) :   0.9710 B( 12-C , 14-H ) :   0.9725 B( 12-C , 15-H ) :   0.9740
B( 16-S , 17-C ) :   1.1755 B( 16-S , 20-C ) :   1.1792 B( 17-C , 18-C ) :   1.5882
B( 17-C , 20-C ) :   0.1024 B( 17-C , 33-H ) :   0.9628 B( 18-C , 19-C ) :   1.2458
B( 18-C , 21-H ) :   0.9866 B( 19-C , 20-C ) :   1.5368 B( 19-C , 22-C ) :   1.0456
B( 22-C , 23-H ) :   0.9269 B( 22-C , 24-H ) :   0.9084 B( 22-C , 25-C ) :   1.0841
B( 25-C , 26-H ) :   0.9505 B( 25-C , 27-H ) :   0.9504 B( 25-C , 28-C ) :   1.0757
B( 28-C , 29-H ) :   0.9729 B( 28-C , 30-H ) :   0.9734 B( 28-C , 31-H ) :   0.9747

Dispersion correction           -0.013938423
FINAL SINGLE POINT ENERGY     -1339.875313267705

DIPOLE MOMENT
-------------
                                X             Y             Z
Electronic contribution:    -18.25961     -20.48053      -8.84779
Nuclear contribution   :     18.67308      20.85531       9.04946
                        -----------------------------------------
Total Dipole Moment    :      0.41347       0.37478       0.20168
                        -----------------------------------------
Magnitude (a.u.)       :      0.59337
Magnitude (Debye)      :      1.50823

Rotational constants in cm-1:     0.018983     0.008133     0.006250
Rotational constants in MHz :   569.087423   243.820168   187.363445

                             ****ORCA TERMINATED NORMALLY****
TOTAL RUN TIME: 0 days 0 hours 0 minutes 30 seconds 151 msec
