                         Program Version 4.2.1 -  RELEASE  -
|  1> ! wB97X-D3 SP def2-SVP
|  2> %pal
|  3> nprocs 16
|  4> end
|  5>
|  6> * xyz 0 1
|  7> S 	 -34.849 	 76.9474 	 155.125
|  8> C 	 -33.3179 	 77.7814 	 155.137
|  9> C 	 -32.4529 	 77.1658 	 154.246
| 10> C 	 -33.124 	 76.2161 	 153.408
| 11> C 	 -34.4717 	 76.0546 	 153.666
| 12> H 	 -32.5717 	 75.7528 	 152.637
| 13> C 	 -30.9953 	 77.5107 	 154.055
| 14> H 	 -30.6296 	 78.1082 	 154.84
| 15> H 	 -30.9404 	 78.1487 	 153.189
| 16> C 	 -30.0434 	 76.3736 	 154.276
| 17> H 	 -30.0673 	 76.1036 	 155.369
| 18> H 	 -30.4321 	 75.449 	 153.823
| 19> C 	 -28.6251 	 76.771 	 153.801
| 20> H 	 -28.3755 	 77.7657 	 154.196
| 21> H 	 -27.7463 	 76.3005 	 154.089
| 22> H 	 -28.5981 	 76.8286 	 152.715
| 23> S 	 -36.2801 	 75.9773 	 151.606
| 24> C 	 -37.4293 	 74.719 	 151.505
| 25> C 	 -37.2246 	 73.7238 	 152.5
| 26> C 	 -36.1613 	 74.0667 	 153.385
| 27> C 	 -35.5021 	 75.2427 	 152.995
| 28> H 	 -37.9071 	 72.8598 	 152.519
| 29> C 	 -35.6211 	 73.2826 	 154.587
| 30> H 	 -34.7547 	 73.7971 	 154.968
| 31> H 	 -35.2168 	 72.2724 	 154.167
| 32> C 	 -36.6334 	 73.0479 	 155.765
| 33> H 	 -36.0691 	 72.5336 	 156.58
| 34> H 	 -37.2925 	 72.3661 	 155.41
| 35> C 	 -37.5084 	 74.2713 	 156.209
| 36> H 	 -38.2528 	 73.8909 	 156.832
| 37> H 	 -37.951 	 74.7113 	 155.345
| 38> H 	 -36.8855 	 75.0101 	 156.704
| 39> H 	 -33.0264 	 78.6364 	 155.823
| 40> H 	 -38.1623 	 74.6757 	 150.689
| 41> *
| 42>
| 43>                          ****END OF INPUT****

CARTESIAN COORDINATES (ANGSTROEM)
---------------------------------
  S    -34.849000   76.947400  155.125000
  C    -33.317900   77.781400  155.137000
  C    -32.452900   77.165800  154.246000
  C    -33.124000   76.216100  153.408000
  C    -34.471700   76.054600  153.666000
  H    -32.571700   75.752800  152.637000
  C    -30.995300   77.510700  154.055000
  H    -30.629600   78.108200  154.840000
  H    -30.940400   78.148700  153.189000
  C    -30.043400   76.373600  154.276000
  H    -30.067300   76.103600  155.369000
  H    -30.432100   75.449000  153.823000
  C    -28.625100   76.771000  153.801000
  H    -28.375500   77.765700  154.196000
  H    -27.746300   76.300500  154.089000
  H    -28.598100   76.828600  152.715000
  S    -36.280100   75.977300  151.606000
  C    -37.429300   74.719000  151.505000
  C    -37.224600   73.723800  152.500000
  C    -36.161300   74.066700  153.385000
  C    -35.502100   75.242700  152.995000
  H    -37.907100   72.859800  152.519000
  C    -35.621100   73.282600  154.587000
  H    -34.754700   73.797100  154.968000
  H    -35.216800   72.272400  154.167000
  C    -36.633400   73.047900  155.765000
  H    -36.069100   72.533600  156.580000
  H    -37.292500   72.366100  155.410000
  C    -37.508400   74.271300  156.209000
  H    -38.252800   73.890900  156.832000
  H    -37.951000   74.711300  155.345000
  H    -36.885500   75.010100  156.704000
  H    -33.026400   78.636400  155.823000
  H    -38.162300   74.675700  150.689000

 Total Charge           Charge          ....    0
 Multiplicity           Mult            ....    1
 Number of Electrons    NEL             ....  134
 Basis Dimension        Dim             ....  322

ORBITAL ENERGIES
----------------

  NO   OCC          E(Eh)            E(eV)
   0   2.0000     -88.966382     -2420.8983
   1   2.0000     -88.963016     -2420.8067
   2   2.0000     -10.330675      -281.1119
   3   2.0000     -10.325121      -280.9608
   4   2.0000     -10.321201      -280.8542
   5   2.0000     -10.318433      -280.7788
   6   2.0000     -10.307967      -280.4941
   7   2.0000     -10.301331      -280.3135
   8   2.0000     -10.298397      -280.2336
   9   2.0000     -10.295374      -280.1514
  10   2.0000     -10.293793      -280.1083
  11   2.0000     -10.292191      -280.0648
  12   2.0000     -10.283584      -279.8306
  13   2.0000     -10.279472      -279.7187
  14   2.0000     -10.276788      -279.6456
  15   2.0000     -10.266111      -279.3551
  16   2.0000      -8.081728      -219.9150
  17   2.0000      -8.077652      -219.8041
  18   2.0000      -6.039962      -164.3557
  19   2.0000      -6.036177      -164.2527
  20   2.0000      -6.035947      -164.2465
  21   2.0000      -6.032951      -164.1650
  22   2.0000      -6.032152      -164.1432
  23   2.0000      -6.028407      -164.0413
  24   2.0000      -1.005313       -27.3559
  25   2.0000      -0.984673       -26.7943
  26   2.0000      -0.918884       -25.0041
  27   2.0000      -0.899634       -24.4803
  28   2.0000      -0.865296       -23.5459
  29   2.0000      -0.846355       -23.0305
  30   2.0000      -0.844692       -22.9852
  31   2.0000      -0.812319       -22.1043
  32   2.0000      -0.784897       -21.3581
  33   2.0000      -0.771947       -21.0058
  34   2.0000      -0.710477       -19.3331
  35   2.0000      -0.700669       -19.0662
  36   2.0000      -0.689141       -18.7525
  37   2.0000      -0.654252       -17.8031
  38   2.0000      -0.637441       -17.3457
  39   2.0000      -0.627950       -17.0874
  40   2.0000      -0.593247       -16.1431
  41   2.0000      -0.567827       -15.4513
  42   2.0000      -0.564503       -15.3609
  43   2.0000      -0.544389       -14.8136
  44   2.0000      -0.540154       -14.6983
  45   2.0000      -0.523073       -14.2336
  46   2.0000      -0.520867       -14.1735
  47   2.0000      -0.515131       -14.0174
  48   2.0000      -0.501813       -13.6550
  49   2.0000      -0.493339       -13.4244
  50   2.0000      -0.486259       -13.2318
  51   2.0000      -0.479092       -13.0367
  52   2.0000      -0.471437       -12.8285
  53   2.0000      -0.460691       -12.5360
  54   2.0000      -0.459787       -12.5114
  55   2.0000      -0.455358       -12.3909
  56   2.0000      -0.444616       -12.0986
  57   2.0000      -0.437959       -11.9175
  58   2.0000      -0.433100       -11.7853
  59   2.0000      -0.422192       -11.4884
  60   2.0000      -0.421436       -11.4678
  61   2.0000      -0.409470       -11.1423
  62   2.0000      -0.404587       -11.0094
  63   2.0000      -0.333788        -9.0828
  64   2.0000      -0.330858        -9.0031
  65   2.0000      -0.323604        -8.8057
  66   2.0000      -0.304760        -8.2929
  67   0.0000       0.044119         1.2005
  68   0.0000       0.050750         1.3810
  69   0.0000       0.106524         2.8987
  70   0.0000       0.128081         3.4853
  71   0.0000       0.132241         3.5985

MULLIKEN ATOMIC CHARGES
-----------------------
   0 S :    0.114903
   1 C :   -0.141902
   2 C :   -0.115218
   3 C :    0.067538
   4 C :   -0.162711
   5 H :   -0.005073
   6 C :    0.080530
   7 H :   -0.002406
   8 H :    0.043349
   9 C :   -0.087550
  10 H :    0.036298
  11 H :    0.026654
  12 C :   -0.014183
  13 H :    0.013157
  14 H :    0.016404
  15 H :    0.032672
  16 S :    0.130808
  17 C :   -0.114079
  18 C :   -0.053884
  19 C :   -0.018415
  20 C :   -0.183525
  21 H :    0.031174
  22 C :    0.040919
  23 H :    0.027512
  24 H :    0.049514
  25 C :   -0.068823
  26 H :    0.035637
  27 H :    0.002352
  28 C :   -0.019759
  29 H :    0.025280
  30 H :    0.036707
  31 H :    0.035244
  32 H :    0.072438
  33 H :    0.068439
Sum of atomic charges:    0.0000000

LOEWDIN ATOMIC CHARGES
----------------------
   0 S :    0.411046
   1 C :   -0.206903
   2 C :   -0.067787
   3 C :   -0.053848
   4 C :   -0.198366
   5 H :    0.024380
   6 C :   -0.037007
   7 H :    0.026655
   8 H :    0.033097
   9 C :   -0.037750
  10 H :    0.032315
  11 H :    0.017611
  12 C :   -0.064843
  13 H :    0.027536
  14 H :    0.016999
  15 H :    0.028571
  16 S :    0.437342
  17 C :   -0.199649
  18 C :   -0.080683
  19 C :   -0.052891
  20 C :   -0.214607
  21 H :    0.036074
  22 C :   -0.033473
  23 H :    0.022871
  24 H :    0.043868
  25 C :   -0.034786
  26 H :    0.029605
  27 H :    0.004950
  28 C :   -0.052711
  29 H :    0.020036
  30 H :    0.024744
  31 H :    0.021557
  32 H :    0.044477
  33 H :    0.031571

  Mayer bond orders larger than 0.100000
B(  0-S ,  1-C ) :   1.1462 B(  0-S ,  4-C ) :   1.1496 B(  1-C ,  2-C ) :   1.6055
B(  1-C , 32-H ) :   0.9600 B(  2-C ,  3-C ) :   1.2488 B(  2-C ,  6-C ) :   1.0232
B(  3-C ,  4-C ) :   1.5683 B(  3-C ,  5-H ) :   1.0043 B(  4-C , 20-C ) :   0.9987
B(  6-C ,  7-H ) :   0.9362 B(  6-C ,  8-H ) :   0.9497 B(  6-C ,  9-C ) :   1.0277
B(  9-C , 10-H ) :   0.9560 B(  9-C , 11-H ) :   0.9672 B(  9-C , 12-C ) :   1.0642
B( 12-C , 13-H ) :   0.9686 B( 12-C , 14-H ) :   0.9760 B( 12-C , 15-H ) :   0.9781
B( 16-S , 17-C ) :   1.1982 B( 16-S , 20-C ) :   1.1680 B( 17-C , 18-C ) :   1.5570
B( 17-C , 20-C ) :   0.1101 B( 17-C , 33-H ) :   0.9659 B( 18-C , 19-C ) :   1.2522
B( 18-C , 21-H ) :   0.9936 B( 19-C , 20-C ) :   1.5635 B( 19-C , 22-C ) :   1.0359
B( 22-C , 23-H ) :   0.9355 B( 22-C , 24-H ) :   0.9425 B( 22-C , 25-C ) :   1.0528
B( 25-C , 26-H ) :   0.9588 B( 25-C , 27-H ) :   0.9576 B( 25-C , 28-C ) :   1.0746
B( 28-C , 29-H ) :   0.9743 B( 28-C , 30-H ) :   0.9689 B( 28-C , 31-H ) :   0.9787

Dispersion correction           -0.014900908
FINAL SINGLE POINT ENERGY     -1339.865468912452

DIPOLE MOMENT
-------------
                                X             Y             Z
Electronic contribution:    -15.20845       6.71594      -9.96617
Nuclear contribution   :     15.54146      -6.87736      10.01833
                        -----------------------------------------
Total Dipole Moment    :      0.33302      -0.16141       0.05215
                        -----------------------------------------
Magnitude (a.u.)       :      0.37373
Magnitude (Debye)      :      0.94995

Rotational constants in cm-1:     0.021865     0.007607     0.006855
Rotational constants in MHz :   655.486699   228.045958   205.521431

                             ****ORCA TERMINATED NORMALLY****
TOTAL RUN TIME: 0 days 0 hours 0 minutes 31 seconds 919 msec
