                         Program Version 4.2.1 -  RELEASE  -
|  1> ! wB97X-D3 SP def2-SVP
|  2> %pal
|  3> nprocs 16
|  4> end
|  5>
|  6> * xyz 0 1
|  7> S 	 6.35855 	 -14.243 	 62.077
|  8> C 	 8.02902 	 -14.0228 	 61.8326
|  9> C 	 8.51867 	 -13.2374 	 62.8861
| 10> C 	 7.52228 	 -12.7828 	 63.8161
| 11> C 	 6.2991 	 -13.3847 	 63.6032
| 12> H 	 7.73921 	 -12.2427 	 64.7216
| 13> C 	 10.0358 	 -13.0433 	 63.0644
| 14> H 	 10.1372 	 -12.3409 	 63.9433
| 15> H 	 10.4099 	 -12.4922 	 62.1375
| 16> C 	 10.6753 	 -14.417 	 63.3646
| 17> H 	 10.5719 	 -15.0111 	 62.4299
| 18> H 	 11.745 	 -14.3738 	 63.3728
| 19> C 	 10.2031 	 -15.1876 	 64.5146
| 20> H 	 10.3473 	 -14.6469 	 65.4285
| 21> H 	 9.1896 	 -15.6409 	 64.3621
| 22> H 	 10.7979 	 -16.1255 	 64.5938
| 23> S 	 3.75766 	 -12.2835 	 63.3963
| 24> C 	 2.82454 	 -12.1263 	 64.8251
| 25> C 	 3.48925 	 -12.6286 	 65.9103
| 26> C 	 4.75935 	 -13.1866 	 65.6074
| 27> C 	 5.02655 	 -13.1245 	 64.2513
| 28> H 	 3.02328 	 -12.4838 	 66.8652
| 29> C 	 5.58577 	 -13.9789 	 66.6396
| 30> H 	 6.02899 	 -14.8304 	 66.1164
| 31> H 	 4.84533 	 -14.4223 	 67.3384
| 32> C 	 6.63993 	 -13.2813 	 67.4997
| 33> H 	 7.36717 	 -12.8311 	 66.8715
| 34> H 	 7.11384 	 -14.0261 	 68.2144
| 35> C 	 6.06639 	 -12.1477 	 68.3035
| 36> H 	 5.89821 	 -11.3049 	 67.7243
| 37> H 	 6.80332 	 -11.9246 	 69.1289
| 38> H 	 5.02802 	 -12.3306 	 68.5505
| 39> H 	 8.64569 	 -14.2643 	 60.9996
| 40> H 	 1.84916 	 -11.7308 	 64.8032
| 41> *
| 42>
| 43>                          ****END OF INPUT****

CARTESIAN COORDINATES (ANGSTROEM)
---------------------------------
  S      6.358550  -14.243000   62.077000
  C      8.029020  -14.022800   61.832600
  C      8.518670  -13.237400   62.886100
  C      7.522280  -12.782800   63.816100
  C      6.299100  -13.384700   63.603200
  H      7.739210  -12.242700   64.721600
  C     10.035800  -13.043300   63.064400
  H     10.137200  -12.340900   63.943300
  H     10.409900  -12.492200   62.137500
  C     10.675300  -14.417000   63.364600
  H     10.571900  -15.011100   62.429900
  H     11.745000  -14.373800   63.372800
  C     10.203100  -15.187600   64.514600
  H     10.347300  -14.646900   65.428500
  H      9.189600  -15.640900   64.362100
  H     10.797900  -16.125500   64.593800
  S      3.757660  -12.283500   63.396300
  C      2.824540  -12.126300   64.825100
  C      3.489250  -12.628600   65.910300
  C      4.759350  -13.186600   65.607400
  C      5.026550  -13.124500   64.251300
  H      3.023280  -12.483800   66.865200
  C      5.585770  -13.978900   66.639600
  H      6.028990  -14.830400   66.116400
  H      4.845330  -14.422300   67.338400
  C      6.639930  -13.281300   67.499700
  H      7.367170  -12.831100   66.871500
  H      7.113840  -14.026100   68.214400
  C      6.066390  -12.147700   68.303500
  H      5.898210  -11.304900   67.724300
  H      6.803320  -11.924600   69.128900
  H      5.028020  -12.330600   68.550500
  H      8.645690  -14.264300   60.999600
  H      1.849160  -11.730800   64.803200

 Total Charge           Charge          ....    0
 Multiplicity           Mult            ....    1
 Number of Electrons    NEL             ....  134
 Basis Dimension        Dim             ....  322

ORBITAL ENERGIES
----------------

  NO   OCC          E(Eh)            E(eV)
   0   2.0000     -88.964866     -2420.8571
   1   2.0000     -88.964473     -2420.8464
   2   2.0000     -10.328103      -281.0420
   3   2.0000     -10.323958      -280.9292
   4   2.0000     -10.311567      -280.5920
   5   2.0000     -10.309939      -280.5477
   6   2.0000     -10.304026      -280.3868
   7   2.0000     -10.301600      -280.3208
   8   2.0000     -10.299330      -280.2590
   9   2.0000     -10.295163      -280.1456
  10   2.0000     -10.292928      -280.0848
  11   2.0000     -10.290846      -280.0282
  12   2.0000     -10.284548      -279.8568
  13   2.0000     -10.282972      -279.8139
  14   2.0000     -10.275891      -279.6212
  15   2.0000     -10.270136      -279.4646
  16   2.0000      -8.080547      -219.8829
  17   2.0000      -8.079827      -219.8633
  18   2.0000      -6.038914      -164.3272
  19   2.0000      -6.038228      -164.3085
  20   2.0000      -6.034848      -164.2166
  21   2.0000      -6.033986      -164.1931
  22   2.0000      -6.031458      -164.1243
  23   2.0000      -6.030910      -164.1094
  24   2.0000      -1.011900       -27.5352
  25   2.0000      -0.989933       -26.9375
  26   2.0000      -0.913046       -24.8452
  27   2.0000      -0.912294       -24.8248
  28   2.0000      -0.873108       -23.7585
  29   2.0000      -0.853604       -23.2277
  30   2.0000      -0.846975       -23.0474
  31   2.0000      -0.818150       -22.2630
  32   2.0000      -0.784504       -21.3474
  33   2.0000      -0.770190       -20.9579
  34   2.0000      -0.707935       -19.2639
  35   2.0000      -0.698218       -18.9995
  36   2.0000      -0.691778       -18.8242
  37   2.0000      -0.664365       -18.0783
  38   2.0000      -0.640719       -17.4348
  39   2.0000      -0.611073       -16.6281
  40   2.0000      -0.593772       -16.1574
  41   2.0000      -0.572933       -15.5903
  42   2.0000      -0.560640       -15.2558
  43   2.0000      -0.554402       -15.0861
  44   2.0000      -0.552365       -15.0306
  45   2.0000      -0.547080       -14.8868
  46   2.0000      -0.515568       -14.0293
  47   2.0000      -0.512265       -13.9394
  48   2.0000      -0.509343       -13.8599
  49   2.0000      -0.498473       -13.5642
  50   2.0000      -0.490548       -13.3485
  51   2.0000      -0.479576       -13.0499
  52   2.0000      -0.471772       -12.8376
  53   2.0000      -0.468387       -12.7455
  54   2.0000      -0.457859       -12.4590
  55   2.0000      -0.447730       -12.1833
  56   2.0000      -0.440152       -11.9772
  57   2.0000      -0.435434       -11.8488
  58   2.0000      -0.426329       -11.6010
  59   2.0000      -0.425316       -11.5734
  60   2.0000      -0.418983       -11.4011
  61   2.0000      -0.412570       -11.2266
  62   2.0000      -0.401448       -10.9239
  63   2.0000      -0.347561        -9.4576
  64   2.0000      -0.332343        -9.0435
  65   2.0000      -0.325019        -8.8442
  66   2.0000      -0.297978        -8.1084
  67   0.0000       0.030679         0.8348
  68   0.0000       0.067690         1.8419
  69   0.0000       0.121741         3.3127
  70   0.0000       0.124594         3.3904
  71   0.0000       0.126909         3.4534

MULLIKEN ATOMIC CHARGES
-----------------------
   0 S :    0.113410
   1 C :   -0.094046
   2 C :   -0.153082
   3 C :    0.076807
   4 C :   -0.183658
   5 H :    0.007437
   6 C :    0.037402
   7 H :    0.025245
   8 H :    0.052354
   9 C :   -0.064896
  10 H :    0.012878
  11 H :    0.016414
  12 C :   -0.034006
  13 H :    0.031310
  14 H :    0.049828
  15 H :    0.028370
  16 S :    0.121210
  17 C :   -0.087516
  18 C :   -0.033365
  19 C :   -0.028093
  20 C :   -0.141618
  21 H :    0.014262
  22 C :    0.031178
  23 H :    0.037641
  24 H :    0.028910
  25 C :   -0.046439
  26 H :    0.010018
  27 H :    0.043695
  28 C :   -0.031079
  29 H :    0.013177
  30 H :    0.049048
  31 H :    0.008227
  32 H :    0.044929
  33 H :    0.044047
Sum of atomic charges:   -0.0000000

LOEWDIN ATOMIC CHARGES
----------------------
   0 S :    0.430767
   1 C :   -0.213948
   2 C :   -0.067406
   3 C :   -0.058770
   4 C :   -0.197510
   5 H :    0.028157
   6 C :   -0.038460
   7 H :    0.028080
   8 H :    0.040699
   9 C :   -0.051996
  10 H :    0.024940
  11 H :    0.019699
  12 C :   -0.067581
  13 H :    0.022321
  14 H :    0.035529
  15 H :    0.034316
  16 S :    0.426376
  17 C :   -0.185131
  18 C :   -0.074135
  19 C :   -0.056836
  20 C :   -0.207554
  21 H :    0.028803
  22 C :   -0.032111
  23 H :    0.034157
  24 H :    0.033782
  25 C :   -0.040268
  26 H :    0.014176
  27 H :    0.033674
  28 C :   -0.067323
  29 H :    0.016201
  30 H :    0.037440
  31 H :    0.020179
  32 H :    0.028196
  33 H :    0.021535

  Mayer bond orders larger than 0.100000
B(  0-S ,  1-C ) :   1.1599 B(  0-S ,  4-C ) :   1.1661 B(  1-C ,  2-C ) :   1.5638
B(  1-C ,  4-C ) :   0.1019 B(  1-C , 32-H ) :   0.9739 B(  2-C ,  3-C ) :   1.2835
B(  2-C ,  6-C ) :   1.0093 B(  3-C ,  4-C ) :   1.5437 B(  3-C ,  5-H ) :   0.9873
B(  4-C , 20-C ) :   1.0221 B(  6-C ,  7-H ) :   0.9488 B(  6-C ,  8-H ) :   0.9441
B(  6-C ,  9-C ) :   1.0608 B(  9-C , 10-H ) :   0.9460 B(  9-C , 11-H ) :   0.9529
B(  9-C , 12-C ) :   1.0968 B( 12-C , 13-H ) :   0.9733 B( 12-C , 14-H ) :   0.9662
B( 12-C , 15-H ) :   0.9638 B( 16-S , 17-C ) :   1.1710 B( 16-S , 20-C ) :   1.1571
B( 17-C , 18-C ) :   1.5956 B( 17-C , 33-H ) :   0.9735 B( 18-C , 19-C ) :   1.2459
B( 18-C , 21-H ) :   0.9960 B( 19-C , 20-C ) :   1.5923 B( 19-C , 22-C ) :   1.0184
B( 22-C , 23-H ) :   0.9396 B( 22-C , 24-H ) :   0.9438 B( 22-C , 25-C ) :   1.0822
B( 25-C , 26-H ) :   0.9492 B( 25-C , 27-H ) :   0.9562 B( 25-C , 28-C ) :   1.0770
B( 28-C , 29-H ) :   0.9661 B( 28-C , 30-H ) :   0.9728 B( 28-C , 31-H ) :   0.9724

Dispersion correction           -0.015663059
FINAL SINGLE POINT ENERGY     -1339.875103540834

DIPOLE MOMENT
-------------
                                X             Y             Z
Electronic contribution:    -20.00888       3.07086     -19.23693
Nuclear contribution   :     20.40277      -3.03187      19.63428
                        -----------------------------------------
Total Dipole Moment    :      0.39389       0.03899       0.39735
                        -----------------------------------------
Magnitude (a.u.)       :      0.56086
Magnitude (Debye)      :      1.42558

Rotational constants in cm-1:     0.019555     0.009931     0.007227
Rotational constants in MHz :   586.243469   297.715565   216.659307

                             ****ORCA TERMINATED NORMALLY****
TOTAL RUN TIME: 0 days 0 hours 0 minutes 37 seconds 438 msec
