                         Program Version 4.2.1 -  RELEASE  -
|  1> ! wB97X-D3 SP def2-SVP
|  2> %pal
|  3> nprocs 16
|  4> end
|  5>
|  6> * xyz 0 1
|  7> S 	 -66.7091 	 60.7221 	 123.547
|  8> C 	 -65.891 	 60.4876 	 122.033
|  9> C 	 -65.9078 	 59.1024 	 121.805
| 10> C 	 -66.3047 	 58.3015 	 122.903
| 11> C 	 -66.6321 	 59.0413 	 123.986
| 12> H 	 -66.4751 	 57.1938 	 122.837
| 13> C 	 -65.3759 	 58.444 	 120.48
| 14> H 	 -65.2098 	 59.187 	 119.729
| 15> H 	 -66.2405 	 57.8765 	 120.065
| 16> C 	 -64.1069 	 57.5908 	 120.612
| 17> H 	 -63.4069 	 58.3564 	 120.928
| 18> H 	 -64.0782 	 56.8241 	 121.432
| 19> C 	 -63.5871 	 57.0674 	 119.275
| 20> H 	 -63.6246 	 57.8011 	 118.535
| 21> H 	 -62.5733 	 56.7698 	 119.459
| 22> H 	 -64.1375 	 56.1842 	 118.908
| 23> S 	 -68.3179 	 59.5092 	 126.213
| 24> C 	 -68.2778 	 58.4521 	 127.566
| 25> C 	 -67.3506 	 57.4011 	 127.39
| 26> C 	 -66.7044 	 57.4928 	 126.093
| 27> C 	 -67.0612 	 58.6243 	 125.312
| 28> H 	 -67.1196 	 56.7346 	 128.195
| 29> C 	 -65.5076 	 56.5458 	 125.806
| 30> H 	 -64.7202 	 56.8901 	 126.426
| 31> H 	 -65.2849 	 56.6091 	 124.774
| 32> C 	 -65.7272 	 55.0359 	 126.205
| 33> H 	 -66.7152 	 54.704 	 125.761
| 34> H 	 -65.9494 	 55.0786 	 127.237
| 35> C 	 -64.5213 	 54.1953 	 125.85
| 36> H 	 -64.8194 	 53.161 	 126.094
| 37> H 	 -63.5805 	 54.4088 	 126.328
| 38> H 	 -64.2247 	 54.287 	 124.815
| 39> H 	 -65.6552 	 61.2685 	 121.32
| 40> H 	 -68.9243 	 58.5621 	 128.413
| 41> *
| 42>
| 43>                          ****END OF INPUT****

CARTESIAN COORDINATES (ANGSTROEM)
---------------------------------
  S    -66.709100   60.722100  123.547000
  C    -65.891000   60.487600  122.033000
  C    -65.907800   59.102400  121.805000
  C    -66.304700   58.301500  122.903000
  C    -66.632100   59.041300  123.986000
  H    -66.475100   57.193800  122.837000
  C    -65.375900   58.444000  120.480000
  H    -65.209800   59.187000  119.729000
  H    -66.240500   57.876500  120.065000
  C    -64.106900   57.590800  120.612000
  H    -63.406900   58.356400  120.928000
  H    -64.078200   56.824100  121.432000
  C    -63.587100   57.067400  119.275000
  H    -63.624600   57.801100  118.535000
  H    -62.573300   56.769800  119.459000
  H    -64.137500   56.184200  118.908000
  S    -68.317900   59.509200  126.213000
  C    -68.277800   58.452100  127.566000
  C    -67.350600   57.401100  127.390000
  C    -66.704400   57.492800  126.093000
  C    -67.061200   58.624300  125.312000
  H    -67.119600   56.734600  128.195000
  C    -65.507600   56.545800  125.806000
  H    -64.720200   56.890100  126.426000
  H    -65.284900   56.609100  124.774000
  C    -65.727200   55.035900  126.205000
  H    -66.715200   54.704000  125.761000
  H    -65.949400   55.078600  127.237000
  C    -64.521300   54.195300  125.850000
  H    -64.819400   53.161000  126.094000
  H    -63.580500   54.408800  126.328000
  H    -64.224700   54.287000  124.815000
  H    -65.655200   61.268500  121.320000
  H    -68.924300   58.562100  128.413000

 Total Charge           Charge          ....    0
 Multiplicity           Mult            ....    1
 Number of Electrons    NEL             ....  134
 Basis Dimension        Dim             ....  322

ORBITAL ENERGIES
----------------

  NO   OCC          E(Eh)            E(eV)
   0   2.0000     -88.968313     -2420.9509
   1   2.0000     -88.962746     -2420.7994
   2   2.0000     -10.333518      -281.1893
   3   2.0000     -10.330559      -281.1088
   4   2.0000     -10.320993      -280.8485
   5   2.0000     -10.316033      -280.7135
   6   2.0000     -10.311046      -280.5778
   7   2.0000     -10.304959      -280.4122
   8   2.0000     -10.298659      -280.2408
   9   2.0000     -10.294689      -280.1327
  10   2.0000     -10.293275      -280.0943
  11   2.0000     -10.288999      -279.9779
  12   2.0000     -10.287724      -279.9432
  13   2.0000     -10.285179      -279.8739
  14   2.0000     -10.279412      -279.7170
  15   2.0000     -10.273555      -279.5576
  16   2.0000      -8.082830      -219.9450
  17   2.0000      -8.078200      -219.8190
  18   2.0000      -6.041374      -164.3941
  19   2.0000      -6.037147      -164.2791
  20   2.0000      -6.036752      -164.2684
  21   2.0000      -6.033804      -164.1882
  22   2.0000      -6.032676      -164.1574
  23   2.0000      -6.028793      -164.0518
  24   2.0000      -1.009148       -27.4603
  25   2.0000      -0.982878       -26.7455
  26   2.0000      -0.908235       -24.7143
  27   2.0000      -0.906452       -24.6658
  28   2.0000      -0.871068       -23.7030
  29   2.0000      -0.852430       -23.1958
  30   2.0000      -0.844081       -22.9686
  31   2.0000      -0.815486       -22.1905
  32   2.0000      -0.782336       -21.2884
  33   2.0000      -0.770320       -20.9615
  34   2.0000      -0.708940       -19.2912
  35   2.0000      -0.701756       -19.0958
  36   2.0000      -0.694770       -18.9057
  37   2.0000      -0.656489       -17.8640
  38   2.0000      -0.641772       -17.4635
  39   2.0000      -0.623839       -16.9755
  40   2.0000      -0.594024       -16.1642
  41   2.0000      -0.567806       -15.4508
  42   2.0000      -0.565010       -15.3747
  43   2.0000      -0.559286       -15.2189
  44   2.0000      -0.530644       -14.4396
  45   2.0000      -0.529042       -14.3960
  46   2.0000      -0.517465       -14.0809
  47   2.0000      -0.515397       -14.0247
  48   2.0000      -0.503557       -13.7025
  49   2.0000      -0.501117       -13.6361
  50   2.0000      -0.493258       -13.4222
  51   2.0000      -0.489239       -13.3129
  52   2.0000      -0.479083       -13.0365
  53   2.0000      -0.469542       -12.7769
  54   2.0000      -0.457247       -12.4423
  55   2.0000      -0.453884       -12.3508
  56   2.0000      -0.443927       -12.0799
  57   2.0000      -0.442141       -12.0313
  58   2.0000      -0.427965       -11.6455
  59   2.0000      -0.422297       -11.4913
  60   2.0000      -0.417215       -11.3530
  61   2.0000      -0.411702       -11.2030
  62   2.0000      -0.404090       -10.9958
  63   2.0000      -0.359050        -9.7702
  64   2.0000      -0.331639        -9.0244
  65   2.0000      -0.326192        -8.8761
  66   2.0000      -0.283668        -7.7190
  67   0.0000       0.020852         0.5674
  68   0.0000       0.075257         2.0479
  69   0.0000       0.105982         2.8839
  70   0.0000       0.119292         3.2461
  71   0.0000       0.131227         3.5709

MULLIKEN ATOMIC CHARGES
-----------------------
   0 S :    0.094665
   1 C :   -0.113234
   2 C :   -0.107113
   3 C :   -0.007810
   4 C :   -0.128133
   5 H :    0.047727
   6 C :    0.059260
   7 H :    0.001955
   8 H :    0.031430
   9 C :   -0.097870
  10 H :    0.025262
  11 H :    0.038778
  12 C :   -0.006618
  13 H :    0.013617
  14 H :    0.028995
  15 H :    0.033562
  16 S :    0.107556
  17 C :   -0.087146
  18 C :   -0.043285
  19 C :   -0.058735
  20 C :   -0.116818
  21 H :    0.025557
  22 C :    0.080711
  23 H :    0.035500
  24 H :    0.000386
  25 C :   -0.102674
  26 H :    0.036521
  27 H :    0.016136
  28 C :   -0.015540
  29 H :    0.040866
  30 H :    0.025870
  31 H :    0.024374
  32 H :    0.057197
  33 H :    0.059051
Sum of atomic charges:   -0.0000000

LOEWDIN ATOMIC CHARGES
----------------------
   0 S :    0.410571
   1 C :   -0.206972
   2 C :   -0.058774
   3 C :   -0.078836
   4 C :   -0.184656
   5 H :    0.045484
   6 C :   -0.033621
   7 H :    0.021558
   8 H :    0.029905
   9 C :   -0.047154
  10 H :    0.026277
  11 H :    0.026543
  12 C :   -0.055684
  13 H :    0.015541
  14 H :    0.027060
  15 H :    0.027227
  16 S :    0.410984
  17 C :   -0.186468
  18 C :   -0.075895
  19 C :   -0.048580
  20 C :   -0.199614
  21 H :    0.029249
  22 C :   -0.022053
  23 H :    0.030025
  24 H :    0.015516
  25 C :   -0.040243
  26 H :    0.031127
  27 H :    0.013078
  28 C :   -0.065829
  29 H :    0.033488
  30 H :    0.025610
  31 H :    0.025180
  32 H :    0.032586
  33 H :    0.027368

  Mayer bond orders larger than 0.100000
B(  0-S ,  1-C ) :   1.1331 B(  0-S ,  4-C ) :   1.1600 B(  1-C ,  2-C ) :   1.5840
B(  1-C ,  4-C ) :   0.1036 B(  1-C , 32-H ) :   0.9751 B(  2-C ,  3-C ) :   1.2601
B(  2-C ,  6-C ) :   1.0241 B(  3-C ,  4-C ) :   1.5599 B(  3-C ,  5-H ) :   0.9799
B(  4-C , 20-C ) :   1.0695 B(  6-C ,  7-H ) :   0.9432 B(  6-C ,  8-H ) :   0.9405
B(  6-C ,  9-C ) :   1.0521 B(  9-C , 10-H ) :   0.9534 B(  9-C , 11-H ) :   0.9573
B(  9-C , 12-C ) :   1.0877 B( 12-C , 13-H ) :   0.9724 B( 12-C , 14-H ) :   0.9735
B( 12-C , 15-H ) :   0.9753 B( 16-S , 17-C ) :   1.1851 B( 16-S , 20-C ) :   1.1281
B( 17-C , 18-C ) :   1.5715 B( 17-C , 20-C ) :   0.1007 B( 17-C , 33-H ) :   0.9690
B( 18-C , 19-C ) :   1.2555 B( 18-C , 21-H ) :   0.9928 B( 19-C , 20-C ) :   1.5694
B( 19-C , 22-C ) :   1.0387 B( 22-C , 23-H ) :   0.9397 B( 22-C , 24-H ) :   0.9398
B( 22-C , 25-C ) :   1.0557 B( 25-C , 26-H ) :   0.9596 B( 25-C , 27-H ) :   0.9523
B( 25-C , 28-C ) :   1.0808 B( 28-C , 29-H ) :   0.9723 B( 28-C , 30-H ) :   0.9714
B( 28-C , 31-H ) :   0.9736

Dispersion correction           -0.013331126
FINAL SINGLE POINT ENERGY     -1339.871432901971

DIPOLE MOMENT
-------------
                                X             Y             Z
Electronic contribution:    -18.70792      24.51977      12.52006
Nuclear contribution   :     19.04995     -25.07414     -12.64284
                        -----------------------------------------
Total Dipole Moment    :      0.34203      -0.55437      -0.12278
                        -----------------------------------------
Magnitude (a.u.)       :      0.66286
Magnitude (Debye)      :      1.68487

Rotational constants in cm-1:     0.016129     0.009142     0.006009
Rotational constants in MHz :   483.531682   274.064455   180.141930

                             ****ORCA TERMINATED NORMALLY****
TOTAL RUN TIME: 0 days 0 hours 0 minutes 31 seconds 887 msec
