                         Program Version 4.2.1 -  RELEASE  -
|  1> ! wB97X-D3 SP def2-SVP
|  2> %pal
|  3> nprocs 16
|  4> end
|  5>
|  6> * xyz 0 1
|  7> S 	 -114.764 	 55.3559 	 109.829
|  8> C 	 -113.437 	 54.1946 	 110.163
|  9> C 	 -113.359 	 53.9758 	 111.508
| 10> C 	 -114.336 	 54.6539 	 112.277
| 11> C 	 -115.202 	 55.4553 	 111.53
| 12> H 	 -114.444 	 54.673 	 113.346
| 13> C 	 -112.31 	 53.1192 	 112.191
| 14> H 	 -112.331 	 52.0789 	 111.842
| 15> H 	 -112.504 	 52.9901 	 113.251
| 16> C 	 -110.829 	 53.6416 	 112.089
| 17> H 	 -110.338 	 53.0425 	 112.853
| 18> H 	 -110.374 	 53.4725 	 111.075
| 19> C 	 -110.75 	 55.1264 	 112.354
| 20> H 	 -111.194 	 55.4093 	 113.314
| 21> H 	 -109.686 	 55.4303 	 112.225
| 22> H 	 -111.343 	 55.6795 	 111.553
| 23> S 	 -117.203 	 57.3107 	 110.817
| 24> C 	 -118.243 	 57.9082 	 112.055
| 25> C 	 -118.069 	 57.286 	 113.267
| 26> C 	 -116.987 	 56.3183 	 113.228
| 27> C 	 -116.362 	 56.2743 	 111.962
| 28> H 	 -118.826 	 57.4845 	 113.973
| 29> C 	 -116.838 	 55.4307 	 114.446
| 30> H 	 -116.342 	 54.5642 	 114.247
| 31> H 	 -117.891 	 55.1038 	 114.822
| 32> C 	 -116.035 	 56.0073 	 115.639
| 33> H 	 -114.986 	 56.2197 	 115.385
| 34> H 	 -116.111 	 55.2887 	 116.454
| 35> C 	 -116.418 	 57.2971 	 116.386
| 36> H 	 -116.039 	 57.3224 	 117.462
| 37> H 	 -117.509 	 57.3247 	 116.437
| 38> H 	 -116.093 	 58.1893 	 115.833
| 39> H 	 -112.745 	 53.7343 	 109.427
| 40> H 	 -119.015 	 58.6072 	 111.773
| 41> *
| 42>
| 43>                          ****END OF INPUT****

CARTESIAN COORDINATES (ANGSTROEM)
---------------------------------
  S    -114.764000   55.355900  109.829000
  C    -113.437000   54.194600  110.163000
  C    -113.359000   53.975800  111.508000
  C    -114.336000   54.653900  112.277000
  C    -115.202000   55.455300  111.530000
  H    -114.444000   54.673000  113.346000
  C    -112.310000   53.119200  112.191000
  H    -112.331000   52.078900  111.842000
  H    -112.504000   52.990100  113.251000
  C    -110.829000   53.641600  112.089000
  H    -110.338000   53.042500  112.853000
  H    -110.374000   53.472500  111.075000
  C    -110.750000   55.126400  112.354000
  H    -111.194000   55.409300  113.314000
  H    -109.686000   55.430300  112.225000
  H    -111.343000   55.679500  111.553000
  S    -117.203000   57.310700  110.817000
  C    -118.243000   57.908200  112.055000
  C    -118.069000   57.286000  113.267000
  C    -116.987000   56.318300  113.228000
  C    -116.362000   56.274300  111.962000
  H    -118.826000   57.484500  113.973000
  C    -116.838000   55.430700  114.446000
  H    -116.342000   54.564200  114.247000
  H    -117.891000   55.103800  114.822000
  C    -116.035000   56.007300  115.639000
  H    -114.986000   56.219700  115.385000
  H    -116.111000   55.288700  116.454000
  C    -116.418000   57.297100  116.386000
  H    -116.039000   57.322400  117.462000
  H    -117.509000   57.324700  116.437000
  H    -116.093000   58.189300  115.833000
  H    -112.745000   53.734300  109.427000
  H    -119.015000   58.607200  111.773000

 Total Charge           Charge          ....    0
 Multiplicity           Mult            ....    1
 Number of Electrons    NEL             ....  134
 Basis Dimension        Dim             ....  322

ORBITAL ENERGIES
----------------

  NO   OCC          E(Eh)            E(eV)
   0   2.0000     -88.968880     -2420.9663
   1   2.0000     -88.966991     -2420.9149
   2   2.0000     -10.337850      -281.3072
   3   2.0000     -10.337236      -281.2905
   4   2.0000     -10.318096      -280.7697
   5   2.0000     -10.317681      -280.7584
   6   2.0000     -10.313210      -280.6367
   7   2.0000     -10.300060      -280.2789
   8   2.0000     -10.299787      -280.2714
   9   2.0000     -10.294910      -280.1387
  10   2.0000     -10.292872      -280.0833
  11   2.0000     -10.291322      -280.0411
  12   2.0000     -10.289319      -279.9866
  13   2.0000     -10.289271      -279.9853
  14   2.0000     -10.281891      -279.7845
  15   2.0000     -10.277999      -279.6786
  16   2.0000      -8.084089      -219.9792
  17   2.0000      -8.080793      -219.8896
  18   2.0000      -6.042543      -164.4259
  19   2.0000      -6.039464      -164.3422
  20   2.0000      -6.038597      -164.3186
  21   2.0000      -6.035437      -164.2326
  22   2.0000      -6.034827      -164.2160
  23   2.0000      -6.031432      -164.1236
  24   2.0000      -1.005368       -27.3575
  25   2.0000      -0.984072       -26.7780
  26   2.0000      -0.910222       -24.7684
  27   2.0000      -0.908598       -24.7242
  28   2.0000      -0.867047       -23.5935
  29   2.0000      -0.853007       -23.2115
  30   2.0000      -0.840951       -22.8834
  31   2.0000      -0.815260       -22.1844
  32   2.0000      -0.788197       -21.4479
  33   2.0000      -0.775387       -21.0993
  34   2.0000      -0.705980       -19.2107
  35   2.0000      -0.693895       -18.8818
  36   2.0000      -0.684300       -18.6208
  37   2.0000      -0.664976       -18.0949
  38   2.0000      -0.634316       -17.2606
  39   2.0000      -0.617677       -16.8078
  40   2.0000      -0.598655       -16.2902
  41   2.0000      -0.577020       -15.7015
  42   2.0000      -0.563252       -15.3269
  43   2.0000      -0.551991       -15.0204
  44   2.0000      -0.542555       -14.7637
  45   2.0000      -0.535244       -14.5647
  46   2.0000      -0.514474       -13.9996
  47   2.0000      -0.505628       -13.7588
  48   2.0000      -0.501875       -13.6567
  49   2.0000      -0.500766       -13.6265
  50   2.0000      -0.486001       -13.2248
  51   2.0000      -0.480193       -13.0667
  52   2.0000      -0.475585       -12.9413
  53   2.0000      -0.471402       -12.8275
  54   2.0000      -0.455452       -12.3935
  55   2.0000      -0.449975       -12.2444
  56   2.0000      -0.444618       -12.0987
  57   2.0000      -0.434767       -11.8306
  58   2.0000      -0.426370       -11.6021
  59   2.0000      -0.422660       -11.5012
  60   2.0000      -0.416610       -11.3365
  61   2.0000      -0.410868       -11.1803
  62   2.0000      -0.410250       -11.1635
  63   2.0000      -0.362783        -9.8718
  64   2.0000      -0.336606        -9.1595
  65   2.0000      -0.328898        -8.9498
  66   2.0000      -0.283007        -7.7010
  67   0.0000       0.015810         0.4302
  68   0.0000       0.084163         2.2902
  69   0.0000       0.092945         2.5292
  70   0.0000       0.115458         3.1418
  71   0.0000       0.131953         3.5906

MULLIKEN ATOMIC CHARGES
-----------------------
   0 S :    0.084251
   1 C :   -0.134481
   2 C :   -0.066533
   3 C :   -0.003326
   4 C :   -0.112522
   5 H :   -0.004090
   6 C :    0.051477
   7 H :    0.036596
   8 H :    0.014730
   9 C :   -0.089374
  10 H :    0.033614
  11 H :    0.036641
  12 C :   -0.070503
  13 H :    0.031260
  14 H :    0.042052
  15 H :    0.054397
  16 S :    0.105527
  17 C :   -0.096970
  18 C :   -0.011432
  19 C :   -0.058269
  20 C :   -0.100164
  21 H :    0.011959
  22 C :    0.083262
  23 H :   -0.002711
  24 H :    0.045885
  25 C :   -0.102460
  26 H :    0.039855
  27 H :    0.030181
  28 C :   -0.079405
  29 H :    0.049156
  30 H :    0.016760
  31 H :    0.043348
  32 H :    0.061511
  33 H :    0.059777
Sum of atomic charges:   -0.0000000

LOEWDIN ATOMIC CHARGES
----------------------
   0 S :    0.379296
   1 C :   -0.191437
   2 C :   -0.065898
   3 C :   -0.074487
   4 C :   -0.171932
   5 H :    0.026566
   6 C :   -0.035848
   7 H :    0.033881
   8 H :    0.026826
   9 C :   -0.042391
  10 H :    0.023806
  11 H :    0.025625
  12 C :   -0.074826
  13 H :    0.022356
  14 H :    0.029560
  15 H :    0.036260
  16 S :    0.409408
  17 C :   -0.181745
  18 C :   -0.066839
  19 C :   -0.051147
  20 C :   -0.195565
  21 H :    0.028797
  22 C :   -0.027413
  23 H :    0.014115
  24 H :    0.046387
  25 C :   -0.046219
  26 H :    0.025448
  27 H :    0.025889
  28 C :   -0.074684
  29 H :    0.036779
  30 H :    0.017395
  31 H :    0.024927
  32 H :    0.040072
  33 H :    0.027040

  Mayer bond orders larger than 0.100000
B(  0-S ,  1-C ) :   1.1134 B(  0-S ,  4-C ) :   1.1496 B(  1-C ,  2-C ) :   1.6160
B(  1-C , 32-H ) :   0.9678 B(  2-C ,  3-C ) :   1.2442 B(  2-C ,  6-C ) :   1.0215
B(  3-C ,  4-C ) :   1.5668 B(  3-C ,  5-H ) :   0.9888 B(  4-C , 20-C ) :   1.0752
B(  6-C ,  7-H ) :   0.9391 B(  6-C ,  8-H ) :   0.9459 B(  6-C ,  9-C ) :   1.0623
B(  9-C , 10-H ) :   0.9587 B(  9-C , 11-H ) :   0.9558 B(  9-C , 12-C ) :   1.0856
B( 12-C , 13-H ) :   0.9764 B( 12-C , 14-H ) :   0.9732 B( 12-C , 15-H ) :   0.9627
B( 16-S , 17-C ) :   1.1649 B( 16-S , 20-C ) :   1.1364 B( 17-C , 18-C ) :   1.6131
B( 17-C , 33-H ) :   0.9672 B( 18-C , 19-C ) :   1.2227 B( 18-C , 21-H ) :   0.9996
B( 19-C , 20-C ) :   1.5833 B( 19-C , 22-C ) :   1.0373 B( 22-C , 23-H ) :   0.9268
B( 22-C , 24-H ) :   0.9375 B( 22-C , 25-C ) :   1.0749 B( 25-C , 26-H ) :   0.9547
B( 25-C , 27-H ) :   0.9582 B( 25-C , 28-C ) :   1.0783 B( 28-C , 29-H ) :   0.9743
B( 28-C , 30-H ) :   0.9727 B( 28-C , 31-H ) :   0.9755

Dispersion correction           -0.014647776
FINAL SINGLE POINT ENERGY     -1339.876666443755

DIPOLE MOMENT
-------------
                                X             Y             Z
Electronic contribution:    -14.27380       5.21976     -23.24356
Nuclear contribution   :     14.27361      -5.46387      23.84707
                        -----------------------------------------
Total Dipole Moment    :     -0.00019      -0.24411       0.60352
                        -----------------------------------------
Magnitude (a.u.)       :      0.65102
Magnitude (Debye)      :      1.65475

Rotational constants in cm-1:     0.018933     0.009056     0.006674
Rotational constants in MHz :   567.602687   271.481522   200.078567

                             ****ORCA TERMINATED NORMALLY****
TOTAL RUN TIME: 0 days 0 hours 0 minutes 36 seconds 101 msec
