                         Program Version 4.2.1 -  RELEASE  -
|  1> ! wB97X-D3 SP def2-SVP
|  2> %pal
|  3> nprocs 16
|  4> end
|  5>
|  6> * xyz 0 1
|  7> S 	 -57.7746 	 45.9039 	 132.941
|  8> C 	 -56.3437 	 46.6495 	 133.743
|  9> C 	 -56.5986 	 47.9684 	 133.711
| 10> C 	 -57.9362 	 48.3952 	 133.318
| 11> C 	 -58.6921 	 47.3224 	 132.756
| 12> H 	 -58.3605 	 49.4199 	 133.325
| 13> C 	 -55.5849 	 49.0319 	 134.179
| 14> H 	 -55.557 	 49.7584 	 133.337
| 15> H 	 -54.6372 	 48.5703 	 134.231
| 16> C 	 -55.7196 	 49.7205 	 135.539
| 17> H 	 -56.6633 	 50.236 	 135.501
| 18> H 	 -55.8071 	 48.9043 	 136.21
| 19> C 	 -54.5542 	 50.5508 	 135.848
| 20> H 	 -54.7949 	 51.0852 	 136.789
| 21> H 	 -53.6465 	 50.0354 	 136.05
| 22> H 	 -54.3782 	 51.2206 	 134.981
| 23> S 	 -61.3216 	 46.3739 	 133.011
| 24> C 	 -62.4982 	 46.9741 	 131.956
| 25> C 	 -61.9283 	 47.8216 	 131.013
| 26> C 	 -60.4926 	 47.9733 	 131.132
| 27> C 	 -60.0283 	 47.3275 	 132.249
| 28> H 	 -62.5354 	 48.3845 	 130.346
| 29> C 	 -59.7898 	 48.8979 	 130.202
| 30> H 	 -60.2278 	 48.544 	 129.226
| 31> H 	 -58.6659 	 48.6685 	 130.243
| 32> C 	 -60.0993 	 50.3619 	 130.36
| 33> H 	 -59.7143 	 50.6812 	 131.352
| 34> H 	 -61.119 	 50.3798 	 130.341
| 35> C 	 -59.4931 	 51.1753 	 129.157
| 36> H 	 -58.3987 	 50.9789 	 128.987
| 37> H 	 -59.6723 	 52.266 	 129.398
| 38> H 	 -59.9961 	 50.8654 	 128.263
| 39> H 	 -55.4581 	 46.1432 	 134.037
| 40> H 	 -63.5452 	 46.8478 	 132.106
| 41> *
| 42>
| 43>                          ****END OF INPUT****

CARTESIAN COORDINATES (ANGSTROEM)
---------------------------------
  S    -57.774600   45.903900  132.941000
  C    -56.343700   46.649500  133.743000
  C    -56.598600   47.968400  133.711000
  C    -57.936200   48.395200  133.318000
  C    -58.692100   47.322400  132.756000
  H    -58.360500   49.419900  133.325000
  C    -55.584900   49.031900  134.179000
  H    -55.557000   49.758400  133.337000
  H    -54.637200   48.570300  134.231000
  C    -55.719600   49.720500  135.539000
  H    -56.663300   50.236000  135.501000
  H    -55.807100   48.904300  136.210000
  C    -54.554200   50.550800  135.848000
  H    -54.794900   51.085200  136.789000
  H    -53.646500   50.035400  136.050000
  H    -54.378200   51.220600  134.981000
  S    -61.321600   46.373900  133.011000
  C    -62.498200   46.974100  131.956000
  C    -61.928300   47.821600  131.013000
  C    -60.492600   47.973300  131.132000
  C    -60.028300   47.327500  132.249000
  H    -62.535400   48.384500  130.346000
  C    -59.789800   48.897900  130.202000
  H    -60.227800   48.544000  129.226000
  H    -58.665900   48.668500  130.243000
  C    -60.099300   50.361900  130.360000
  H    -59.714300   50.681200  131.352000
  H    -61.119000   50.379800  130.341000
  C    -59.493100   51.175300  129.157000
  H    -58.398700   50.978900  128.987000
  H    -59.672300   52.266000  129.398000
  H    -59.996100   50.865400  128.263000
  H    -55.458100   46.143200  134.037000
  H    -63.545200   46.847800  132.106000

 Total Charge           Charge          ....    0
 Multiplicity           Mult            ....    1
 Number of Electrons    NEL             ....  134
 Basis Dimension        Dim             ....  322

ORBITAL ENERGIES
----------------

  NO   OCC          E(Eh)            E(eV)
   0   2.0000     -88.965332     -2420.8698
   1   2.0000     -88.959238     -2420.7039
   2   2.0000     -10.330265      -281.1008
   3   2.0000     -10.324808      -280.9523
   4   2.0000     -10.316199      -280.7180
   5   2.0000     -10.314217      -280.6641
   6   2.0000     -10.302416      -280.3430
   7   2.0000     -10.302182      -280.3366
   8   2.0000     -10.300984      -280.3040
   9   2.0000     -10.295118      -280.1444
  10   2.0000     -10.292606      -280.0760
  11   2.0000     -10.289172      -279.9826
  12   2.0000     -10.285973      -279.8955
  13   2.0000     -10.284367      -279.8518
  14   2.0000     -10.276604      -279.6406
  15   2.0000     -10.275514      -279.6110
  16   2.0000      -8.080886      -219.8921
  17   2.0000      -8.074396      -219.7155
  18   2.0000      -6.039423      -164.3411
  19   2.0000      -6.035182      -164.2257
  20   2.0000      -6.032953      -164.1650
  21   2.0000      -6.031650      -164.1295
  22   2.0000      -6.028616      -164.0470
  23   2.0000      -6.025235      -163.9550
  24   2.0000      -1.009696       -27.4752
  25   2.0000      -0.986222       -26.8365
  26   2.0000      -0.919129       -25.0108
  27   2.0000      -0.918491       -24.9934
  28   2.0000      -0.879562       -23.9341
  29   2.0000      -0.852822       -23.2065
  30   2.0000      -0.838972       -22.8296
  31   2.0000      -0.811379       -22.0787
  32   2.0000      -0.781042       -21.2532
  33   2.0000      -0.773967       -21.0607
  34   2.0000      -0.712155       -19.3787
  35   2.0000      -0.701124       -19.0785
  36   2.0000      -0.697527       -18.9807
  37   2.0000      -0.663823       -18.0635
  38   2.0000      -0.642717       -17.4892
  39   2.0000      -0.614025       -16.7085
  40   2.0000      -0.598433       -16.2842
  41   2.0000      -0.576169       -15.6784
  42   2.0000      -0.572657       -15.5828
  43   2.0000      -0.566799       -15.4234
  44   2.0000      -0.529076       -14.3969
  45   2.0000      -0.524622       -14.2757
  46   2.0000      -0.523461       -14.2441
  47   2.0000      -0.514450       -13.9989
  48   2.0000      -0.512138       -13.9360
  49   2.0000      -0.502831       -13.6827
  50   2.0000      -0.500659       -13.6236
  51   2.0000      -0.479013       -13.0346
  52   2.0000      -0.473816       -12.8932
  53   2.0000      -0.470053       -12.7908
  54   2.0000      -0.458695       -12.4817
  55   2.0000      -0.446791       -12.1578
  56   2.0000      -0.442832       -12.0501
  57   2.0000      -0.438715       -11.9380
  58   2.0000      -0.428704       -11.6656
  59   2.0000      -0.426888       -11.6162
  60   2.0000      -0.422598       -11.4995
  61   2.0000      -0.414876       -11.2894
  62   2.0000      -0.400378       -10.8948
  63   2.0000      -0.342038        -9.3073
  64   2.0000      -0.329477        -8.9655
  65   2.0000      -0.323021        -8.7898
  66   2.0000      -0.302358        -8.2276
  67   0.0000       0.035552         0.9674
  68   0.0000       0.064421         1.7530
  69   0.0000       0.114268         3.1094
  70   0.0000       0.123820         3.3693
  71   0.0000       0.129400         3.5212

MULLIKEN ATOMIC CHARGES
-----------------------
   0 S :    0.089822
   1 C :   -0.115549
   2 C :   -0.074487
   3 C :    0.015045
   4 C :   -0.167959
   5 H :    0.027832
   6 C :    0.026271
   7 H :    0.029349
   8 H :   -0.008773
   9 C :   -0.022236
  10 H :    0.021637
  11 H :    0.014112
  12 C :   -0.030727
  13 H :    0.039935
  14 H :    0.024920
  15 H :    0.032258
  16 S :    0.125847
  17 C :   -0.075829
  18 C :   -0.044914
  19 C :   -0.000371
  20 C :   -0.173904
  21 H :    0.007989
  22 C :    0.003491
  23 H :    0.029871
  24 H :    0.047556
  25 C :   -0.018595
  26 H :    0.030646
  27 H :    0.000228
  28 C :   -0.057428
  29 H :    0.044430
  30 H :    0.051979
  31 H :    0.027791
  32 H :    0.044274
  33 H :    0.055489
Sum of atomic charges:    0.0000000

LOEWDIN ATOMIC CHARGES
----------------------
   0 S :    0.404813
   1 C :   -0.179398
   2 C :   -0.064213
   3 C :   -0.075765
   4 C :   -0.205082
   5 H :    0.033980
   6 C :   -0.032253
   7 H :    0.029345
   8 H :    0.016739
   9 C :   -0.039156
  10 H :    0.021331
  11 H :    0.021115
  12 C :   -0.062255
  13 H :    0.034870
  14 H :    0.021231
  15 H :    0.030185
  16 S :    0.421917
  17 C :   -0.192025
  18 C :   -0.073362
  19 C :   -0.047452
  20 C :   -0.205969
  21 H :    0.021422
  22 C :   -0.040972
  23 H :    0.037227
  24 H :    0.037632
  25 C :   -0.029811
  26 H :    0.025917
  27 H :    0.010141
  28 C :   -0.064680
  29 H :    0.032033
  30 H :    0.034425
  31 H :    0.021084
  32 H :    0.028953
  33 H :    0.028035

  Mayer bond orders larger than 0.100000
B(  0-S ,  1-C ) :   1.1068 B(  0-S ,  4-C ) :   1.1815 B(  1-C ,  2-C ) :   1.6152
B(  1-C , 32-H ) :   0.9830 B(  2-C ,  3-C ) :   1.2188 B(  2-C ,  6-C ) :   1.0259
B(  3-C ,  4-C ) :   1.5437 B(  3-C ,  5-H ) :   0.9892 B(  4-C , 20-C ) :   1.0529
B(  6-C ,  7-H ) :   0.9363 B(  6-C ,  8-H ) :   0.9436 B(  6-C ,  9-C ) :   1.0643
B(  9-C , 10-H ) :   0.9517 B(  9-C , 11-H ) :   0.9463 B(  9-C , 12-C ) :   1.0979
B( 12-C , 13-H ) :   0.9688 B( 12-C , 14-H ) :   0.9706 B( 12-C , 15-H ) :   0.9715
B( 16-S , 17-C ) :   1.1750 B( 16-S , 20-C ) :   1.1257 B( 17-C , 18-C ) :   1.5990
B( 17-C , 33-H ) :   0.9700 B( 18-C , 19-C ) :   1.2245 B( 18-C , 21-H ) :   0.9910
B( 19-C , 20-C ) :   1.6033 B( 19-C , 22-C ) :   1.0486 B( 22-C , 23-H ) :   0.9290
B( 22-C , 24-H ) :   0.9260 B( 22-C , 25-C ) :   1.0726 B( 25-C , 26-H ) :   0.9504
B( 25-C , 27-H ) :   0.9496 B( 25-C , 28-C ) :   1.0740 B( 28-C , 29-H ) :   0.9761
B( 28-C , 30-H ) :   0.9756 B( 28-C , 31-H ) :   0.9749

Dispersion correction           -0.013691512
FINAL SINGLE POINT ENERGY     -1339.866907479681

DIPOLE MOMENT
-------------
                                X             Y             Z
Electronic contribution:    -13.67322     -26.09026       2.35847
Nuclear contribution   :     13.73954      26.76587      -2.45141
                        -----------------------------------------
Total Dipole Moment    :      0.06632       0.67562      -0.09294
                        -----------------------------------------
Magnitude (a.u.)       :      0.68519
Magnitude (Debye)      :      1.74163

Rotational constants in cm-1:     0.017466     0.008217     0.006380
Rotational constants in MHz :   523.631769   246.345624   191.265932

                             ****ORCA TERMINATED NORMALLY****
TOTAL RUN TIME: 0 days 0 hours 0 minutes 33 seconds 878 msec
