                         Program Version 4.2.1 -  RELEASE  -
|  1> ! wB97X-D3 SP def2-SVP
|  2> %pal
|  3> nprocs 16
|  4> end
|  5>
|  6> * xyz 0 1
|  7> S 	 45.0762 	 10.4002 	 83.0472
|  8> C 	 45.0363 	 10.9435 	 81.4105
|  9> C 	 43.7842 	 11.386 	 81.0782
| 10> C 	 42.8816 	 11.3506 	 82.158
| 11> C 	 43.3772 	 10.7707 	 83.3169
| 12> H 	 41.8733 	 11.6307 	 82.0167
| 13> C 	 43.3493 	 12.0073 	 79.7433
| 14> H 	 42.2487 	 12.081 	 79.8142
| 15> H 	 43.6189 	 11.1989 	 78.9862
| 16> C 	 43.9894 	 13.2896 	 79.2437
| 17> H 	 43.7693 	 14.0982 	 79.8605
| 18> H 	 45.0411 	 13.0336 	 79.2921
| 19> C 	 43.5207 	 13.6273 	 77.8241
| 20> H 	 43.966 	 14.6227 	 77.5825
| 21> H 	 43.8796 	 12.9332 	 77.1293
| 22> H 	 42.4417 	 13.6546 	 77.7083
| 23> S 	 43.5756 	 10.3822 	 86.0353
| 24> C 	 42.1137 	 10.1088 	 86.9849
| 25> C 	 40.9636 	 10.1206 	 86.2123
| 26> C 	 41.295 	 10.2435 	 84.8202
| 27> C 	 42.6445 	 10.497 	 84.5966
| 28> H 	 40.0177 	 9.86209 	 86.6183
| 29> C 	 40.1645 	 10.213 	 83.807
| 30> H 	 39.4819 	 9.38545 	 84.0745
| 31> H 	 40.646 	 9.98477 	 82.8217
| 32> C 	 39.468 	 11.5825 	 83.6454
| 33> H 	 40.0318 	 12.4814 	 83.3368
| 34> H 	 39.0921 	 11.8101 	 84.6889
| 35> C 	 38.3103 	 11.5874 	 82.6112
| 36> H 	 37.7818 	 12.5276 	 82.6541
| 37> H 	 37.491 	 10.8632 	 82.7231
| 38> H 	 38.7783 	 11.4574 	 81.6314
| 39> H 	 45.8859 	 11.3315 	 80.8272
| 40> H 	 42.2207 	 9.9556 	 88.0297
| 41> *
| 42>
| 43>                          ****END OF INPUT****

CARTESIAN COORDINATES (ANGSTROEM)
---------------------------------
  S     45.076200   10.400200   83.047200
  C     45.036300   10.943500   81.410500
  C     43.784200   11.386000   81.078200
  C     42.881600   11.350600   82.158000
  C     43.377200   10.770700   83.316900
  H     41.873300   11.630700   82.016700
  C     43.349300   12.007300   79.743300
  H     42.248700   12.081000   79.814200
  H     43.618900   11.198900   78.986200
  C     43.989400   13.289600   79.243700
  H     43.769300   14.098200   79.860500
  H     45.041100   13.033600   79.292100
  C     43.520700   13.627300   77.824100
  H     43.966000   14.622700   77.582500
  H     43.879600   12.933200   77.129300
  H     42.441700   13.654600   77.708300
  S     43.575600   10.382200   86.035300
  C     42.113700   10.108800   86.984900
  C     40.963600   10.120600   86.212300
  C     41.295000   10.243500   84.820200
  C     42.644500   10.497000   84.596600
  H     40.017700    9.862090   86.618300
  C     40.164500   10.213000   83.807000
  H     39.481900    9.385450   84.074500
  H     40.646000    9.984770   82.821700
  C     39.468000   11.582500   83.645400
  H     40.031800   12.481400   83.336800
  H     39.092100   11.810100   84.688900
  C     38.310300   11.587400   82.611200
  H     37.781800   12.527600   82.654100
  H     37.491000   10.863200   82.723100
  H     38.778300   11.457400   81.631400
  H     45.885900   11.331500   80.827200
  H     42.220700    9.955600   88.029700

 Total Charge           Charge          ....    0
 Multiplicity           Mult            ....    1
 Number of Electrons    NEL             ....  134
 Basis Dimension        Dim             ....  322

ORBITAL ENERGIES
----------------

  NO   OCC          E(Eh)            E(eV)
   0   2.0000     -88.967018     -2420.9156
   1   2.0000     -88.966902     -2420.9125
   2   2.0000     -10.335392      -281.2403
   3   2.0000     -10.330472      -281.1064
   4   2.0000     -10.319924      -280.8194
   5   2.0000     -10.308631      -280.5121
   6   2.0000     -10.304995      -280.4132
   7   2.0000     -10.299028      -280.2508
   8   2.0000     -10.296890      -280.1926
   9   2.0000     -10.296777      -280.1895
  10   2.0000     -10.296072      -280.1704
  11   2.0000     -10.295041      -280.1423
  12   2.0000     -10.287254      -279.9304
  13   2.0000     -10.282739      -279.8076
  14   2.0000     -10.280771      -279.7540
  15   2.0000     -10.278320      -279.6873
  16   2.0000      -8.082360      -219.9322
  17   2.0000      -8.081653      -219.9129
  18   2.0000      -6.040794      -164.3784
  19   2.0000      -6.040260      -164.3638
  20   2.0000      -6.036840      -164.2708
  21   2.0000      -6.036073      -164.2499
  22   2.0000      -6.033124      -164.1696
  23   2.0000      -6.032393      -164.1498
  24   2.0000      -1.008681       -27.4476
  25   2.0000      -0.988683       -26.9034
  26   2.0000      -0.914262       -24.8783
  27   2.0000      -0.907279       -24.6883
  28   2.0000      -0.869408       -23.6578
  29   2.0000      -0.853874       -23.2351
  30   2.0000      -0.849633       -23.1197
  31   2.0000      -0.816076       -22.2066
  32   2.0000      -0.781134       -21.2557
  33   2.0000      -0.771709       -20.9993
  34   2.0000      -0.707930       -19.2638
  35   2.0000      -0.700968       -19.0743
  36   2.0000      -0.692184       -18.8353
  37   2.0000      -0.672021       -18.2866
  38   2.0000      -0.635046       -17.2805
  39   2.0000      -0.622810       -16.9475
  40   2.0000      -0.597166       -16.2497
  41   2.0000      -0.577333       -15.7100
  42   2.0000      -0.567617       -15.4456
  43   2.0000      -0.561052       -15.2670
  44   2.0000      -0.526996       -14.3403
  45   2.0000      -0.526292       -14.3211
  46   2.0000      -0.519075       -14.1247
  47   2.0000      -0.512702       -13.9513
  48   2.0000      -0.509686       -13.8693
  49   2.0000      -0.497765       -13.5449
  50   2.0000      -0.495306       -13.4780
  51   2.0000      -0.476597       -12.9689
  52   2.0000      -0.472353       -12.8534
  53   2.0000      -0.465701       -12.6724
  54   2.0000      -0.461363       -12.5543
  55   2.0000      -0.454598       -12.3702
  56   2.0000      -0.444140       -12.0857
  57   2.0000      -0.442042       -12.0286
  58   2.0000      -0.435895       -11.8613
  59   2.0000      -0.425581       -11.5807
  60   2.0000      -0.419062       -11.4033
  61   2.0000      -0.415464       -11.3053
  62   2.0000      -0.412942       -11.2367
  63   2.0000      -0.355729        -9.6799
  64   2.0000      -0.335878        -9.1397
  65   2.0000      -0.329198        -8.9579
  66   2.0000      -0.287361        -7.8195
  67   0.0000       0.021557         0.5866
  68   0.0000       0.081740         2.2243
  69   0.0000       0.100453         2.7335
  70   0.0000       0.122277         3.3273
  71   0.0000       0.126390         3.4393

MULLIKEN ATOMIC CHARGES
-----------------------
   0 S :    0.104743
   1 C :   -0.122703
   2 C :   -0.101630
   3 C :    0.018827
   4 C :   -0.098375
   5 H :   -0.028710
   6 C :    0.007854
   7 H :    0.017144
   8 H :    0.042389
   9 C :   -0.025729
  10 H :    0.021224
  11 H :    0.020183
  12 C :   -0.032913
  13 H :    0.039132
  14 H :    0.018049
  15 H :    0.032075
  16 S :    0.099572
  17 C :   -0.087171
  18 C :    0.001558
  19 C :   -0.075947
  20 C :   -0.120826
  21 H :    0.013956
  22 C :    0.055561
  23 H :    0.039493
  24 H :    0.027751
  25 C :   -0.108655
  26 H :    0.049666
  27 H :    0.026565
  28 C :   -0.039642
  29 H :    0.032407
  30 H :    0.030053
  31 H :    0.029417
  32 H :    0.064139
  33 H :    0.050542
Sum of atomic charges:    0.0000000

LOEWDIN ATOMIC CHARGES
----------------------
   0 S :    0.411565
   1 C :   -0.222555
   2 C :   -0.067495
   3 C :   -0.070054
   4 C :   -0.179985
   5 H :    0.019304
   6 C :   -0.036300
   7 H :    0.024807
   8 H :    0.040500
   9 C :   -0.033810
  10 H :    0.016685
  11 H :    0.023960
  12 C :   -0.056853
  13 H :    0.033362
  14 H :    0.016508
  15 H :    0.025730
  16 S :    0.411816
  17 C :   -0.165378
  18 C :   -0.063092
  19 C :   -0.055486
  20 C :   -0.205705
  21 H :    0.029146
  22 C :   -0.035360
  23 H :    0.037216
  24 H :    0.030533
  25 C :   -0.046904
  26 H :    0.031533
  27 H :    0.024982
  28 C :   -0.069082
  29 H :    0.026165
  30 H :    0.023277
  31 H :    0.024115
  32 H :    0.037315
  33 H :    0.019540

  Mayer bond orders larger than 0.100000
B(  0-S ,  1-C ) :   1.1424 B(  0-S ,  4-C ) :   1.1611 B(  1-C ,  2-C ) :   1.5979
B(  1-C , 32-H ) :   0.9558 B(  2-C ,  3-C ) :   1.3033 B(  2-C ,  6-C ) :   1.0075
B(  3-C ,  4-C ) :   1.5239 B(  3-C ,  5-H ) :   0.9965 B(  4-C , 20-C ) :   1.0416
B(  6-C ,  7-H ) :   0.9426 B(  6-C ,  8-H ) :   0.9411 B(  6-C ,  9-C ) :   1.0670
B(  9-C , 10-H ) :   0.9568 B(  9-C , 11-H ) :   0.9511 B(  9-C , 12-C ) :   1.0843
B( 12-C , 13-H ) :   0.9739 B( 12-C , 14-H ) :   0.9747 B( 12-C , 15-H ) :   0.9756
B( 16-S , 17-C ) :   1.1635 B( 16-S , 20-C ) :   1.1450 B( 17-C , 18-C ) :   1.5888
B( 17-C , 33-H ) :   0.9750 B( 18-C , 19-C ) :   1.2421 B( 18-C , 21-H ) :   0.9942
B( 19-C , 20-C ) :   1.5889 B( 19-C , 22-C ) :   1.0512 B( 22-C , 23-H ) :   0.9344
B( 22-C , 24-H ) :   0.9309 B( 22-C , 25-C ) :   1.0534 B( 25-C , 26-H ) :   0.9543
B( 25-C , 27-H ) :   0.9543 B( 25-C , 28-C ) :   1.0749 B( 28-C , 29-H ) :   0.9744
B( 28-C , 30-H ) :   0.9764 B( 28-C , 31-H ) :   0.9749

Dispersion correction           -0.013808369
FINAL SINGLE POINT ENERGY     -1339.880693823337

DIPOLE MOMENT
-------------
                                X             Y             Z
Electronic contribution:     18.64235     -12.34421      23.85192
Nuclear contribution   :    -19.22897      12.62953     -24.12828
                        -----------------------------------------
Total Dipole Moment    :     -0.58662       0.28532      -0.27636
                        -----------------------------------------
Magnitude (a.u.)       :      0.70845
Magnitude (Debye)      :      1.80073

Rotational constants in cm-1:     0.018287     0.008598     0.006097
Rotational constants in MHz :   548.242388   257.754980   182.773393

                             ****ORCA TERMINATED NORMALLY****
TOTAL RUN TIME: 0 days 0 hours 0 minutes 30 seconds 292 msec
