                         Program Version 4.2.1 -  RELEASE  -
|  1> ! wB97X-D3 SP def2-SVP
|  2> %pal
|  3> nprocs 16
|  4> end
|  5>
|  6> * xyz 0 1
|  7> S 	 -120.459 	 47.3021 	 132.991
|  8> C 	 -120.996 	 48.1613 	 134.491
|  9> C 	 -120.145 	 47.9548 	 135.547
| 10> C 	 -119.112 	 47.0503 	 135.231
| 11> C 	 -119.101 	 46.7167 	 133.911
| 12> H 	 -118.38 	 46.6419 	 135.831
| 13> C 	 -120.237 	 48.582 	 136.953
| 14> H 	 -120.196 	 47.8549 	 137.747
| 15> H 	 -121.26 	 48.991 	 137.079
| 16> C 	 -119.242 	 49.7791 	 137.201
| 17> H 	 -119.575 	 50.3188 	 138.147
| 18> H 	 -118.197 	 49.5602 	 137.198
| 19> C 	 -119.351 	 50.8497 	 136.093
| 20> H 	 -118.797 	 51.7668 	 136.337
| 21> H 	 -118.885 	 50.5399 	 135.124
| 22> H 	 -120.421 	 51.1919 	 135.948
| 23> S 	 -119.003 	 44.5656 	 132.144
| 24> C 	 -117.468 	 44.054 	 131.583
| 25> C 	 -116.513 	 44.4693 	 132.419
| 26> C 	 -116.868 	 45.4972 	 133.317
| 27> C 	 -118.221 	 45.7628 	 133.237
| 28> H 	 -115.504 	 44.0612 	 132.287
| 29> C 	 -115.817 	 46.2814 	 134.123
| 30> H 	 -114.947 	 45.7307 	 134.412
| 31> H 	 -116.251 	 46.6252 	 135.016
| 32> C 	 -115.359 	 47.6246 	 133.352
| 33> H 	 -114.753 	 47.319 	 132.53
| 34> H 	 -114.705 	 48.1817 	 133.972
| 35> C 	 -116.503 	 48.6498 	 132.988
| 36> H 	 -116.797 	 49.2346 	 133.855
| 37> H 	 -117.382 	 48.1342 	 132.514
| 38> H 	 -116.145 	 49.4296 	 132.232
| 39> H 	 -121.815 	 48.822 	 134.462
| 40> H 	 -117.371 	 43.3093 	 130.869
| 41> *
| 42>
| 43>                          ****END OF INPUT****

CARTESIAN COORDINATES (ANGSTROEM)
---------------------------------
  S    -120.459000   47.302100  132.991000
  C    -120.996000   48.161300  134.491000
  C    -120.145000   47.954800  135.547000
  C    -119.112000   47.050300  135.231000
  C    -119.101000   46.716700  133.911000
  H    -118.380000   46.641900  135.831000
  C    -120.237000   48.582000  136.953000
  H    -120.196000   47.854900  137.747000
  H    -121.260000   48.991000  137.079000
  C    -119.242000   49.779100  137.201000
  H    -119.575000   50.318800  138.147000
  H    -118.197000   49.560200  137.198000
  C    -119.351000   50.849700  136.093000
  H    -118.797000   51.766800  136.337000
  H    -118.885000   50.539900  135.124000
  H    -120.421000   51.191900  135.948000
  S    -119.003000   44.565600  132.144000
  C    -117.468000   44.054000  131.583000
  C    -116.513000   44.469300  132.419000
  C    -116.868000   45.497200  133.317000
  C    -118.221000   45.762800  133.237000
  H    -115.504000   44.061200  132.287000
  C    -115.817000   46.281400  134.123000
  H    -114.947000   45.730700  134.412000
  H    -116.251000   46.625200  135.016000
  C    -115.359000   47.624600  133.352000
  H    -114.753000   47.319000  132.530000
  H    -114.705000   48.181700  133.972000
  C    -116.503000   48.649800  132.988000
  H    -116.797000   49.234600  133.855000
  H    -117.382000   48.134200  132.514000
  H    -116.145000   49.429600  132.232000
  H    -121.815000   48.822000  134.462000
  H    -117.371000   43.309300  130.869000

 Total Charge           Charge          ....    0
 Multiplicity           Mult            ....    1
 Number of Electrons    NEL             ....  134
 Basis Dimension        Dim             ....  322

ORBITAL ENERGIES
----------------

  NO   OCC          E(Eh)            E(eV)
   0   2.0000     -88.967269     -2420.9225
   1   2.0000     -88.959550     -2420.7124
   2   2.0000     -10.327182      -281.0169
   3   2.0000     -10.326295      -280.9928
   4   2.0000     -10.313737      -280.6510
   5   2.0000     -10.303870      -280.3826
   6   2.0000     -10.303818      -280.3811
   7   2.0000     -10.303243      -280.3655
   8   2.0000     -10.300105      -280.2801
   9   2.0000     -10.295657      -280.1591
  10   2.0000     -10.294335      -280.1231
  11   2.0000     -10.286387      -279.9068
  12   2.0000     -10.286145      -279.9002
  13   2.0000     -10.285118      -279.8723
  14   2.0000     -10.281967      -279.7865
  15   2.0000     -10.281343      -279.7696
  16   2.0000      -8.081191      -219.9004
  17   2.0000      -8.074792      -219.7263
  18   2.0000      -6.039619      -164.3464
  19   2.0000      -6.036011      -164.2482
  20   2.0000      -6.033243      -164.1729
  21   2.0000      -6.031864      -164.1354
  22   2.0000      -6.029393      -164.0681
  23   2.0000      -6.025410      -163.9598
  24   2.0000      -1.009725       -27.4760
  25   2.0000      -0.986796       -26.8521
  26   2.0000      -0.906452       -24.6658
  27   2.0000      -0.898545       -24.4507
  28   2.0000      -0.866260       -23.5721
  29   2.0000      -0.849455       -23.1148
  30   2.0000      -0.839479       -22.8434
  31   2.0000      -0.813290       -22.1308
  32   2.0000      -0.783609       -21.3231
  33   2.0000      -0.775464       -21.1014
  34   2.0000      -0.705893       -19.2083
  35   2.0000      -0.697826       -18.9888
  36   2.0000      -0.693244       -18.8641
  37   2.0000      -0.659276       -17.9398
  38   2.0000      -0.647712       -17.6251
  39   2.0000      -0.623910       -16.9774
  40   2.0000      -0.601200       -16.3595
  41   2.0000      -0.564928       -15.3725
  42   2.0000      -0.553663       -15.0659
  43   2.0000      -0.548139       -14.9156
  44   2.0000      -0.544620       -14.8199
  45   2.0000      -0.534191       -14.5361
  46   2.0000      -0.519839       -14.1456
  47   2.0000      -0.502634       -13.6774
  48   2.0000      -0.497473       -13.5369
  49   2.0000      -0.494051       -13.4438
  50   2.0000      -0.484659       -13.1882
  51   2.0000      -0.478017       -13.0075
  52   2.0000      -0.465929       -12.6786
  53   2.0000      -0.462088       -12.5741
  54   2.0000      -0.455532       -12.3957
  55   2.0000      -0.449184       -12.2229
  56   2.0000      -0.440893       -11.9973
  57   2.0000      -0.437680       -11.9099
  58   2.0000      -0.432684       -11.7739
  59   2.0000      -0.424569       -11.5531
  60   2.0000      -0.420697       -11.4477
  61   2.0000      -0.415825       -11.3152
  62   2.0000      -0.415345       -11.3021
  63   2.0000      -0.349594        -9.5129
  64   2.0000      -0.337075        -9.1723
  65   2.0000      -0.327945        -8.9238
  66   2.0000      -0.289585        -7.8800
  67   0.0000       0.024304         0.6613
  68   0.0000       0.076189         2.0732
  69   0.0000       0.099191         2.6991
  70   0.0000       0.116705         3.1757
  71   0.0000       0.128847         3.5061

MULLIKEN ATOMIC CHARGES
-----------------------
   0 S :    0.099772
   1 C :   -0.113250
   2 C :   -0.056118
   3 C :    0.049724
   4 C :   -0.147260
   5 H :   -0.016407
   6 C :    0.082538
   7 H :    0.031895
   8 H :    0.017083
   9 C :   -0.070951
  10 H :    0.045412
  11 H :    0.034022
  12 C :   -0.108572
  13 H :    0.031951
  14 H :    0.054711
  15 H :    0.030812
  16 S :    0.087592
  17 C :   -0.051157
  18 C :   -0.046181
  19 C :   -0.027737
  20 C :   -0.167320
  21 H :    0.017373
  22 C :    0.122963
  23 H :    0.021920
  24 H :   -0.008962
  25 C :   -0.058822
  26 H :    0.024451
  27 H :    0.017583
  28 C :   -0.094854
  29 H :    0.036120
  30 H :    0.062732
  31 H :    0.040757
  32 H :    0.028335
  33 H :    0.029844
Sum of atomic charges:   -0.0000000

LOEWDIN ATOMIC CHARGES
----------------------
   0 S :    0.384976
   1 C :   -0.166050
   2 C :   -0.054856
   3 C :   -0.054881
   4 C :   -0.180980
   5 H :    0.019991
   6 C :   -0.028097
   7 H :    0.028562
   8 H :    0.032083
   9 C :   -0.040649
  10 H :    0.034801
  11 H :    0.019875
  12 C :   -0.078490
  13 H :    0.024603
  14 H :    0.028690
  15 H :    0.025316
  16 S :    0.387375
  17 C :   -0.178592
  18 C :   -0.073970
  19 C :   -0.057946
  20 C :   -0.181093
  21 H :    0.032640
  22 C :   -0.018185
  23 H :    0.029614
  24 H :    0.016883
  25 C :   -0.028309
  26 H :    0.017316
  27 H :    0.017148
  28 C :   -0.075381
  29 H :    0.021392
  30 H :    0.031383
  31 H :    0.034430
  32 H :    0.014776
  33 H :    0.015625

  Mayer bond orders larger than 0.100000
B(  0-S ,  1-C ) :   1.1142 B(  0-S ,  4-C ) :   1.1426 B(  1-C ,  2-C ) :   1.6348
B(  1-C , 32-H ) :   0.9749 B(  2-C ,  3-C ) :   1.1977 B(  2-C ,  6-C ) :   1.0202
B(  3-C ,  4-C ) :   1.6008 B(  3-C ,  5-H ) :   1.0056 B(  4-C , 20-C ) :   1.0386
B(  6-C ,  7-H ) :   0.9471 B(  6-C ,  8-H ) :   0.9407 B(  6-C ,  9-C ) :   1.0567
B(  9-C , 10-H ) :   0.9588 B(  9-C , 11-H ) :   0.9611 B(  9-C , 12-C ) :   1.0726
B( 12-C , 13-H ) :   0.9739 B( 12-C , 14-H ) :   0.9698 B( 12-C , 15-H ) :   0.9753
B( 16-S , 17-C ) :   1.1392 B( 16-S , 20-C ) :   1.1394 B( 17-C , 18-C ) :   1.6283
B( 17-C , 33-H ) :   0.9753 B( 18-C , 19-C ) :   1.2261 B( 18-C , 21-H ) :   0.9881
B( 19-C , 20-C ) :   1.6093 B( 19-C , 22-C ) :   1.0503 B( 22-C , 23-H ) :   0.9373
B( 22-C , 24-H ) :   0.9289 B( 22-C , 25-C ) :   1.0597 B( 25-C , 26-H ) :   0.9628
B( 25-C , 27-H ) :   0.9584 B( 25-C , 28-C ) :   1.0702 B( 28-C , 29-H ) :   0.9758
B( 28-C , 30-H ) :   0.9700 B( 28-C , 31-H ) :   0.9716

Dispersion correction           -0.016469969
FINAL SINGLE POINT ENERGY     -1339.871787425716

DIPOLE MOMENT
-------------
                                X             Y             Z
Electronic contribution:    -11.74866     -20.56151     -13.99698
Nuclear contribution   :     12.20657      20.78449      14.47011
                        -----------------------------------------
Total Dipole Moment    :      0.45791       0.22298       0.47313
                        -----------------------------------------
Magnitude (a.u.)       :      0.69517
Magnitude (Debye)      :      1.76697

Rotational constants in cm-1:     0.022010     0.009684     0.007795
Rotational constants in MHz :   659.847728   290.306991   233.689796

                             ****ORCA TERMINATED NORMALLY****
TOTAL RUN TIME: 0 days 0 hours 0 minutes 35 seconds 688 msec
