                         Program Version 4.2.1 -  RELEASE  -
|  1> ! wB97X-D3 SP def2-SVP
|  2> %pal
|  3> nprocs 16
|  4> end
|  5>
|  6> * xyz 0 1
|  7> S 	 -118.328 	 48.1097 	 133.301
|  8> C 	 -118.177 	 48.179 	 134.993
|  9> C 	 -117.378 	 47.2068 	 135.528
| 10> C 	 -116.773 	 46.4414 	 134.448
| 11> C 	 -117.018 	 46.8963 	 133.16
| 12> H 	 -116.029 	 45.6322 	 134.566
| 13> C 	 -116.95 	 47.0151 	 136.964
| 14> H 	 -117.73 	 46.4339 	 137.514
| 15> H 	 -117.113 	 48.0381 	 137.339
| 16> C 	 -115.55 	 46.3871 	 137.185
| 17> H 	 -115.291 	 46.3729 	 138.235
| 18> H 	 -115.358 	 45.4081 	 136.881
| 19> C 	 -114.545 	 47.3752 	 136.714
| 20> H 	 -113.56 	 46.9645 	 136.853
| 21> H 	 -114.795 	 47.7893 	 135.693
| 22> H 	 -114.677 	 48.2158 	 137.498
| 23> S 	 -117.926 	 46.163 	 130.731
| 24> C 	 -116.921 	 45.2139 	 129.647
| 25> C 	 -115.61 	 45.2433 	 130.055
| 26> C 	 -115.418 	 45.8498 	 131.314
| 27> C 	 -116.63 	 46.3948 	 131.829
| 28> H 	 -114.782 	 44.7798 	 129.439
| 29> C 	 -114.081 	 46.0122 	 131.914
| 30> H 	 -113.74 	 45.1401 	 132.57
| 31> H 	 -114.152 	 46.8632 	 132.588
| 32> C 	 -112.899 	 46.2979 	 130.981
| 33> H 	 -112.586 	 45.3603 	 130.541
| 34> H 	 -112.115 	 46.6692 	 131.676
| 35> C 	 -113.113 	 47.3471 	 129.922
| 36> H 	 -113.986 	 47.1179 	 129.35
| 37> H 	 -112.368 	 47.4741 	 129.082
| 38> H 	 -113.221 	 48.319 	 130.439
| 39> H 	 -118.816 	 48.8137 	 135.62
| 40> H 	 -117.13 	 44.7853 	 128.657
| 41> *
| 42>
| 43>                          ****END OF INPUT****

CARTESIAN COORDINATES (ANGSTROEM)
---------------------------------
  S    -118.328000   48.109700  133.301000
  C    -118.177000   48.179000  134.993000
  C    -117.378000   47.206800  135.528000
  C    -116.773000   46.441400  134.448000
  C    -117.018000   46.896300  133.160000
  H    -116.029000   45.632200  134.566000
  C    -116.950000   47.015100  136.964000
  H    -117.730000   46.433900  137.514000
  H    -117.113000   48.038100  137.339000
  C    -115.550000   46.387100  137.185000
  H    -115.291000   46.372900  138.235000
  H    -115.358000   45.408100  136.881000
  C    -114.545000   47.375200  136.714000
  H    -113.560000   46.964500  136.853000
  H    -114.795000   47.789300  135.693000
  H    -114.677000   48.215800  137.498000
  S    -117.926000   46.163000  130.731000
  C    -116.921000   45.213900  129.647000
  C    -115.610000   45.243300  130.055000
  C    -115.418000   45.849800  131.314000
  C    -116.630000   46.394800  131.829000
  H    -114.782000   44.779800  129.439000
  C    -114.081000   46.012200  131.914000
  H    -113.740000   45.140100  132.570000
  H    -114.152000   46.863200  132.588000
  C    -112.899000   46.297900  130.981000
  H    -112.586000   45.360300  130.541000
  H    -112.115000   46.669200  131.676000
  C    -113.113000   47.347100  129.922000
  H    -113.986000   47.117900  129.350000
  H    -112.368000   47.474100  129.082000
  H    -113.221000   48.319000  130.439000
  H    -118.816000   48.813700  135.620000
  H    -117.130000   44.785300  128.657000

 Total Charge           Charge          ....    0
 Multiplicity           Mult            ....    1
 Number of Electrons    NEL             ....  134
 Basis Dimension        Dim             ....  322

ORBITAL ENERGIES
----------------

  NO   OCC          E(Eh)            E(eV)
   0   2.0000     -88.969329     -2420.9785
   1   2.0000     -88.962581     -2420.7949
   2   2.0000     -10.334963      -281.2286
   3   2.0000     -10.330913      -281.1184
   4   2.0000     -10.318487      -280.7803
   5   2.0000     -10.312215      -280.6096
   6   2.0000     -10.302782      -280.3530
   7   2.0000     -10.302296      -280.3397
   8   2.0000     -10.300142      -280.2811
   9   2.0000     -10.298773      -280.2439
  10   2.0000     -10.296413      -280.1796
  11   2.0000     -10.292251      -280.0664
  12   2.0000     -10.286425      -279.9078
  13   2.0000     -10.282635      -279.8047
  14   2.0000     -10.280134      -279.7367
  15   2.0000     -10.274675      -279.5881
  16   2.0000      -8.084349      -219.9863
  17   2.0000      -8.077937      -219.8118
  18   2.0000      -6.042883      -164.4352
  19   2.0000      -6.038708      -164.3216
  20   2.0000      -6.036465      -164.2606
  21   2.0000      -6.035151      -164.2248
  22   2.0000      -6.032440      -164.1510
  23   2.0000      -6.028569      -164.0457
  24   2.0000      -1.009488       -27.4696
  25   2.0000      -0.988244       -26.8915
  26   2.0000      -0.920326       -25.0433
  27   2.0000      -0.914746       -24.8915
  28   2.0000      -0.874389       -23.7933
  29   2.0000      -0.850062       -23.1314
  30   2.0000      -0.845050       -22.9950
  31   2.0000      -0.819553       -22.3012
  32   2.0000      -0.781771       -21.2731
  33   2.0000      -0.768867       -20.9219
  34   2.0000      -0.710007       -19.3203
  35   2.0000      -0.695226       -18.9181
  36   2.0000      -0.691133       -18.8067
  37   2.0000      -0.655857       -17.8468
  38   2.0000      -0.639685       -17.4067
  39   2.0000      -0.622210       -16.9312
  40   2.0000      -0.595339       -16.2000
  41   2.0000      -0.567968       -15.4552
  42   2.0000      -0.560956       -15.2644
  43   2.0000      -0.558824       -15.2064
  44   2.0000      -0.540617       -14.7109
  45   2.0000      -0.534813       -14.5530
  46   2.0000      -0.522734       -14.2243
  47   2.0000      -0.508459       -13.8359
  48   2.0000      -0.503767       -13.7082
  49   2.0000      -0.496575       -13.5125
  50   2.0000      -0.491382       -13.3712
  51   2.0000      -0.482709       -13.1352
  52   2.0000      -0.469284       -12.7699
  53   2.0000      -0.463441       -12.6109
  54   2.0000      -0.449800       -12.2397
  55   2.0000      -0.447391       -12.1741
  56   2.0000      -0.444399       -12.0927
  57   2.0000      -0.439454       -11.9582
  58   2.0000      -0.430980       -11.7275
  59   2.0000      -0.428072       -11.6484
  60   2.0000      -0.418907       -11.3990
  61   2.0000      -0.412889       -11.2353
  62   2.0000      -0.407302       -11.0832
  63   2.0000      -0.356829        -9.7098
  64   2.0000      -0.332683        -9.0528
  65   2.0000      -0.322359        -8.7718
  66   2.0000      -0.286884        -7.8065
  67   0.0000       0.025044         0.6815
  68   0.0000       0.071375         1.9422
  69   0.0000       0.104472         2.8428
  70   0.0000       0.119594         3.2543
  71   0.0000       0.132205         3.5975

MULLIKEN ATOMIC CHARGES
-----------------------
   0 S :    0.089696
   1 C :   -0.108032
   2 C :   -0.127753
   3 C :    0.013860
   4 C :   -0.145857
   5 H :    0.022302
   6 C :    0.069733
   7 H :    0.045892
   8 H :    0.022906
   9 C :   -0.034378
  10 H :    0.020113
  11 H :    0.024004
  12 C :   -0.089876
  13 H :    0.031692
  14 H :    0.065287
  15 H :    0.029402
  16 S :    0.116521
  17 C :   -0.086637
  18 C :   -0.070357
  19 C :   -0.047710
  20 C :   -0.135612
  21 H :    0.044224
  22 C :    0.043799
  23 H :    0.051269
  24 H :    0.022935
  25 C :   -0.088352
  26 H :    0.025040
  27 H :    0.037659
  28 C :   -0.052637
  29 H :    0.024978
  30 H :    0.038647
  31 H :    0.036389
  32 H :    0.051415
  33 H :    0.059438
Sum of atomic charges:    0.0000000

LOEWDIN ATOMIC CHARGES
----------------------
   0 S :    0.396261
   1 C :   -0.209698
   2 C :   -0.071948
   3 C :   -0.063190
   4 C :   -0.182763
   5 H :    0.033672
   6 C :   -0.032930
   7 H :    0.037344
   8 H :    0.037119
   9 C :   -0.044678
  10 H :    0.031014
  11 H :    0.014414
  12 C :   -0.067345
  13 H :    0.020332
  14 H :    0.029768
  15 H :    0.032769
  16 S :    0.429104
  17 C :   -0.195202
  18 C :   -0.078564
  19 C :   -0.064780
  20 C :   -0.208714
  21 H :    0.043006
  22 C :   -0.041791
  23 H :    0.042820
  24 H :    0.029836
  25 C :   -0.044889
  26 H :    0.016738
  27 H :    0.033491
  28 C :   -0.075048
  29 H :    0.020589
  30 H :    0.033466
  31 H :    0.030605
  32 H :    0.031637
  33 H :    0.037556

  Mayer bond orders larger than 0.100000
B(  0-S ,  1-C ) :   1.1519 B(  0-S ,  4-C ) :   1.1303 B(  1-C ,  2-C ) :   1.6352
B(  1-C , 32-H ) :   0.9581 B(  2-C ,  3-C ) :   1.2279 B(  2-C ,  6-C ) :   1.0031
B(  3-C ,  4-C ) :   1.5937 B(  3-C ,  5-H ) :   0.9830 B(  4-C , 20-C ) :   1.0333
B(  6-C ,  7-H ) :   0.9268 B(  6-C ,  8-H ) :   0.9446 B(  6-C ,  9-C ) :   1.0776
B(  9-C , 10-H ) :   0.9523 B(  9-C , 11-H ) :   0.9529 B(  9-C , 12-C ) :   1.0581
B( 12-C , 13-H ) :   0.9733 B( 12-C , 14-H ) :   0.9736 B( 12-C , 15-H ) :   0.9795
B( 16-S , 17-C ) :   1.1578 B( 16-S , 20-C ) :   1.1623 B( 17-C , 18-C ) :   1.5969
B( 17-C , 20-C ) :   0.1012 B( 17-C , 33-H ) :   0.9601 B( 18-C , 19-C ) :   1.2795
B( 18-C , 21-H ) :   0.9706 B( 19-C , 20-C ) :   1.5487 B( 19-C , 22-C ) :   1.0520
B( 22-C , 23-H ) :   0.9227 B( 22-C , 24-H ) :   0.9363 B( 22-C , 25-C ) :   1.0773
B( 25-C , 26-H ) :   0.9476 B( 25-C , 27-H ) :   0.9559 B( 25-C , 28-C ) :   1.0852
B( 28-C , 29-H ) :   0.9673 B( 28-C , 30-H ) :   0.9722 B( 28-C , 31-H ) :   0.9734

Dispersion correction           -0.014679356
FINAL SINGLE POINT ENERGY     -1339.861778120621

DIPOLE MOMENT
-------------
                                X             Y             Z
Electronic contribution:    -24.29175       0.43962     -10.97636
Nuclear contribution   :     24.80631      -0.70737      11.33014
                        -----------------------------------------
Total Dipole Moment    :      0.51455      -0.26775       0.35378
                        -----------------------------------------
Magnitude (a.u.)       :      0.67942
Magnitude (Debye)      :      1.72695

Rotational constants in cm-1:     0.019077     0.009331     0.007036
Rotational constants in MHz :   571.927171   279.738289   210.943689

                             ****ORCA TERMINATED NORMALLY****
TOTAL RUN TIME: 0 days 0 hours 0 minutes 34 seconds 694 msec
