                         Program Version 4.2.1 -  RELEASE  -
|  1> ! wB97X-D3 SP def2-SVP
|  2> %pal
|  3> nprocs 16
|  4> end
|  5>
|  6> * xyz 0 1
|  7> S 	 70.6894 	 22.0376 	 76.208
|  8> C 	 71.17 	 20.4336 	 75.4989
|  9> C 	 70.3216 	 20.1334 	 74.4024
| 10> C 	 69.283 	 21.1098 	 74.2854
| 11> C 	 69.3265 	 22.1171 	 75.1875
| 12> H 	 68.4948 	 21.0925 	 73.5193
| 13> C 	 70.4597 	 18.9736 	 73.4295
| 14> H 	 70.0649 	 19.1444 	 72.3933
| 15> H 	 69.8268 	 18.1742 	 73.7599
| 16> C 	 71.85 	 18.4666 	 73.117
| 17> H 	 72.327 	 18.0529 	 74.0537
| 18> H 	 71.7296 	 17.6202 	 72.4195
| 19> C 	 72.8947 	 19.4254 	 72.5518
| 20> H 	 73.7879 	 18.9274 	 72.3249
| 21> H 	 72.6016 	 19.8434 	 71.5683
| 22> H 	 73.0838 	 20.2544 	 73.238
| 23> S 	 66.7154 	 22.5274 	 75.5502
| 24> C 	 66.1344 	 24.0705 	 76.26
| 25> C 	 67.1422 	 24.9702 	 76.3235
| 26> C 	 68.3549 	 24.4714 	 75.8917
| 27> C 	 68.3228 	 23.0986 	 75.5166
| 28> H 	 66.882 	 25.9057 	 76.7799
| 29> C 	 69.5863 	 25.3756 	 75.8916
| 30> H 	 69.2586 	 26.1437 	 75.1931
| 31> H 	 70.4448 	 24.9965 	 75.4048
| 32> C 	 69.8188 	 25.9719 	 77.2678
| 33> H 	 70.3093 	 25.2052 	 77.8923
| 34> H 	 68.9148 	 26.2936 	 77.7452
| 35> C 	 70.8184 	 27.076 	 77.1222
| 36> H 	 71.055 	 27.4577 	 78.0721
| 37> H 	 70.4457 	 27.9485 	 76.5124
| 38> H 	 71.8002 	 26.6527 	 76.7548
| 39> H 	 72.0775 	 19.8541 	 75.7614
| 40> H 	 65.0636 	 24.3668 	 76.4438
| 41> *
| 42>
| 43>                          ****END OF INPUT****

CARTESIAN COORDINATES (ANGSTROEM)
---------------------------------
  S     70.689400   22.037600   76.208000
  C     71.170000   20.433600   75.498900
  C     70.321600   20.133400   74.402400
  C     69.283000   21.109800   74.285400
  C     69.326500   22.117100   75.187500
  H     68.494800   21.092500   73.519300
  C     70.459700   18.973600   73.429500
  H     70.064900   19.144400   72.393300
  H     69.826800   18.174200   73.759900
  C     71.850000   18.466600   73.117000
  H     72.327000   18.052900   74.053700
  H     71.729600   17.620200   72.419500
  C     72.894700   19.425400   72.551800
  H     73.787900   18.927400   72.324900
  H     72.601600   19.843400   71.568300
  H     73.083800   20.254400   73.238000
  S     66.715400   22.527400   75.550200
  C     66.134400   24.070500   76.260000
  C     67.142200   24.970200   76.323500
  C     68.354900   24.471400   75.891700
  C     68.322800   23.098600   75.516600
  H     66.882000   25.905700   76.779900
  C     69.586300   25.375600   75.891600
  H     69.258600   26.143700   75.193100
  H     70.444800   24.996500   75.404800
  C     69.818800   25.971900   77.267800
  H     70.309300   25.205200   77.892300
  H     68.914800   26.293600   77.745200
  C     70.818400   27.076000   77.122200
  H     71.055000   27.457700   78.072100
  H     70.445700   27.948500   76.512400
  H     71.800200   26.652700   76.754800
  H     72.077500   19.854100   75.761400
  H     65.063600   24.366800   76.443800

 Total Charge           Charge          ....    0
 Multiplicity           Mult            ....    1
 Number of Electrons    NEL             ....  134
 Basis Dimension        Dim             ....  322

ORBITAL ENERGIES
----------------

  NO   OCC          E(Eh)            E(eV)
   0   2.0000     -88.966816     -2420.9101
   1   2.0000     -88.964061     -2420.8352
   2   2.0000     -10.324239      -280.9368
   3   2.0000     -10.323433      -280.9149
   4   2.0000     -10.323401      -280.9140
   5   2.0000     -10.317971      -280.7663
   6   2.0000     -10.309600      -280.5385
   7   2.0000     -10.300658      -280.2952
   8   2.0000     -10.295158      -280.1455
   9   2.0000     -10.291400      -280.0432
  10   2.0000     -10.290610      -280.0217
  11   2.0000     -10.286746      -279.9166
  12   2.0000     -10.283250      -279.8215
  13   2.0000     -10.280575      -279.7487
  14   2.0000     -10.275834      -279.6197
  15   2.0000     -10.272828      -279.5379
  16   2.0000      -8.081073      -219.8972
  17   2.0000      -8.078740      -219.8337
  18   2.0000      -6.039681      -164.3481
  19   2.0000      -6.037209      -164.2808
  20   2.0000      -6.035653      -164.2385
  21   2.0000      -6.033225      -164.1724
  22   2.0000      -6.031754      -164.1324
  23   2.0000      -6.029560      -164.0727
  24   2.0000      -1.011523       -27.5249
  25   2.0000      -0.984125       -26.7794
  26   2.0000      -0.917037       -24.9539
  27   2.0000      -0.914042       -24.8723
  28   2.0000      -0.872870       -23.7520
  29   2.0000      -0.854058       -23.2401
  30   2.0000      -0.841040       -22.8859
  31   2.0000      -0.814587       -22.1660
  32   2.0000      -0.790778       -21.5182
  33   2.0000      -0.766559       -20.8591
  34   2.0000      -0.703543       -19.1444
  35   2.0000      -0.699402       -19.0317
  36   2.0000      -0.696193       -18.9444
  37   2.0000      -0.659694       -17.9512
  38   2.0000      -0.632486       -17.2108
  39   2.0000      -0.613053       -16.6820
  40   2.0000      -0.599576       -16.3153
  41   2.0000      -0.580470       -15.7954
  42   2.0000      -0.565245       -15.3811
  43   2.0000      -0.556223       -15.1356
  44   2.0000      -0.544694       -14.8219
  45   2.0000      -0.526806       -14.3351
  46   2.0000      -0.518949       -14.1213
  47   2.0000      -0.511063       -13.9067
  48   2.0000      -0.503812       -13.7094
  49   2.0000      -0.494450       -13.4547
  50   2.0000      -0.490217       -13.3395
  51   2.0000      -0.472998       -12.8709
  52   2.0000      -0.469339       -12.7714
  53   2.0000      -0.465456       -12.6657
  54   2.0000      -0.462589       -12.5877
  55   2.0000      -0.451084       -12.2746
  56   2.0000      -0.446051       -12.1377
  57   2.0000      -0.438529       -11.9330
  58   2.0000      -0.434881       -11.8337
  59   2.0000      -0.424795       -11.5593
  60   2.0000      -0.421909       -11.4807
  61   2.0000      -0.408401       -11.1132
  62   2.0000      -0.405557       -11.0358
  63   2.0000      -0.351786        -9.5726
  64   2.0000      -0.332092        -9.0367
  65   2.0000      -0.327878        -8.9220
  66   2.0000      -0.285454        -7.7676
  67   0.0000       0.027880         0.7586
  68   0.0000       0.073977         2.0130
  69   0.0000       0.093822         2.5530
  70   0.0000       0.120577         3.2811
  71   0.0000       0.137248         3.7347

MULLIKEN ATOMIC CHARGES
-----------------------
   0 S :    0.104626
   1 C :   -0.149739
   2 C :   -0.068631
   3 C :   -0.012328
   4 C :   -0.119638
   5 H :    0.017743
   6 C :    0.070168
   7 H :    0.029503
   8 H :    0.041046
   9 C :   -0.119810
  10 H :    0.026059
  11 H :    0.030775
  12 C :   -0.020954
  13 H :    0.022305
  14 H :    0.019779
  15 H :    0.038171
  16 S :    0.103099
  17 C :   -0.116378
  18 C :   -0.044975
  19 C :   -0.018416
  20 C :   -0.136617
  21 H :    0.019303
  22 C :    0.079736
  23 H :    0.024193
  24 H :    0.007211
  25 C :   -0.069879
  26 H :    0.032559
  27 H :    0.027115
  28 C :   -0.036015
  29 H :    0.012409
  30 H :    0.038374
  31 H :    0.034502
  32 H :    0.064022
  33 H :    0.070680
Sum of atomic charges:   -0.0000000

LOEWDIN ATOMIC CHARGES
----------------------
   0 S :    0.408374
   1 C :   -0.193645
   2 C :   -0.051283
   3 C :   -0.077633
   4 C :   -0.202287
   5 H :    0.033358
   6 C :   -0.039095
   7 H :    0.038115
   8 H :    0.036557
   9 C :   -0.048366
  10 H :    0.022303
  11 H :    0.028094
  12 C :   -0.063281
  13 H :    0.020278
  14 H :    0.024806
  15 H :    0.026362
  16 S :    0.414760
  17 C :   -0.181093
  18 C :   -0.075507
  19 C :   -0.059148
  20 C :   -0.216269
  21 H :    0.034421
  22 C :   -0.031164
  23 H :    0.034487
  24 H :    0.019315
  25 C :   -0.037797
  26 H :    0.030404
  27 H :    0.019689
  28 C :   -0.065579
  29 H :    0.014666
  30 H :    0.028834
  31 H :    0.032688
  32 H :    0.033118
  33 H :    0.041519

  Mayer bond orders larger than 0.100000
B(  0-S ,  1-C ) :   1.1213 B(  0-S ,  4-C ) :   1.1558 B(  1-C ,  2-C ) :   1.6057
B(  1-C , 32-H ) :   0.9638 B(  2-C ,  3-C ) :   1.2360 B(  2-C ,  6-C ) :   1.0059
B(  3-C ,  4-C ) :   1.5747 B(  3-C ,  5-H ) :   0.9958 B(  4-C , 20-C ) :   1.0410
B(  6-C ,  7-H ) :   0.9493 B(  6-C ,  8-H ) :   0.9281 B(  6-C ,  9-C ) :   1.0834
B(  9-C , 10-H ) :   0.9490 B(  9-C , 11-H ) :   0.9533 B(  9-C , 12-C ) :   1.0873
B( 12-C , 13-H ) :   0.9714 B( 12-C , 14-H ) :   0.9712 B( 12-C , 15-H ) :   0.9720
B( 16-S , 17-C ) :   1.1493 B( 16-S , 20-C ) :   1.1574 B( 17-C , 18-C ) :   1.6154
B( 17-C , 20-C ) :   0.1020 B( 17-C , 33-H ) :   0.9569 B( 18-C , 19-C ) :   1.2607
B( 18-C , 21-H ) :   0.9909 B( 19-C , 20-C ) :   1.5339 B( 19-C , 22-C ) :   1.0269
B( 22-C , 23-H ) :   0.9341 B( 22-C , 24-H ) :   0.9382 B( 22-C , 25-C ) :   1.0591
B( 25-C , 26-H ) :   0.9468 B( 25-C , 27-H ) :   0.9571 B( 25-C , 28-C ) :   1.0990
B( 28-C , 29-H ) :   0.9700 B( 28-C , 30-H ) :   0.9737 B( 28-C , 31-H ) :   0.9686

Dispersion correction           -0.014037250
FINAL SINGLE POINT ENERGY     -1339.871620908060

DIPOLE MOMENT
-------------
                                X             Y             Z
Electronic contribution:    -16.31909      -2.82414       6.00410
Nuclear contribution   :     16.42219       2.94365      -6.19771
                        -----------------------------------------
Total Dipole Moment    :      0.10309       0.11952      -0.19361
                        -----------------------------------------
Magnitude (a.u.)       :      0.24979
Magnitude (Debye)      :      0.63492

Rotational constants in cm-1:     0.022811     0.007661     0.006137
Rotational constants in MHz :   683.847029   229.666219   183.981972

                             ****ORCA TERMINATED NORMALLY****
TOTAL RUN TIME: 0 days 0 hours 0 minutes 27 seconds 833 msec
