                         Program Version 4.2.1 -  RELEASE  -
|  1> ! wB97X-D3 SP def2-SVP
|  2> %pal
|  3> nprocs 16
|  4> end
|  5>
|  6> * xyz 0 1
|  7> S 	 -10.464 	 -11.6931 	 87.9367
|  8> C 	 -11.7295 	 -12.6131 	 88.7115
|  9> C 	 -12.8046 	 -12.849 	 87.8499
| 10> C 	 -12.6506 	 -12.08 	 86.6733
| 11> C 	 -11.4218 	 -11.4231 	 86.5091
| 12> H 	 -13.3472 	 -11.9831 	 85.8671
| 13> C 	 -14.1863 	 -13.4982 	 88.0707
| 14> H 	 -14.4251 	 -13.7891 	 86.9852
| 15> H 	 -14.9573 	 -12.8789 	 88.4464
| 16> C 	 -14.0619 	 -14.6842 	 89.0756
| 17> H 	 -13.0346 	 -15.0144 	 89.0955
| 18> H 	 -14.1607 	 -14.2886 	 90.098
| 19> C 	 -15.0668 	 -15.7471 	 88.7421
| 20> H 	 -16.0497 	 -15.3357 	 88.8348
| 21> H 	 -14.9522 	 -16.0355 	 87.766
| 22> H 	 -15.0106 	 -16.6414 	 89.3574
| 23> S 	 -9.28629 	 -10.8353 	 84.9235
| 24> C 	 -9.57092 	 -9.92169 	 83.5036
| 25> C 	 -10.8606 	 -9.60486 	 83.2699
| 26> C 	 -11.6656 	 -9.97652 	 84.3415
| 27> C 	 -10.9955 	 -10.6372 	 85.3657
| 28> H 	 -11.1017 	 -9.14012 	 82.3437
| 29> C 	 -13.1691 	 -9.63763 	 84.2915
| 30> H 	 -13.2125 	 -8.61301 	 83.9724
| 31> H 	 -13.5058 	 -9.62311 	 85.2675
| 32> C 	 -14.0714 	 -10.3197 	 83.1953
| 33> H 	 -14.2628 	 -11.2902 	 83.5781
| 34> H 	 -13.4766 	 -10.4531 	 82.2962
| 35> C 	 -15.3961 	 -9.6118 	 82.8962
| 36> H 	 -16.0124 	 -10.2675 	 82.231
| 37> H 	 -15.2499 	 -8.59699 	 82.4207
| 38> H 	 -16.0613 	 -9.49238 	 83.7201
| 39> H 	 -11.7044 	 -12.9396 	 89.7464
| 40> H 	 -8.83459 	 -9.61099 	 82.7516
| 41> *
| 42>
| 43>                          ****END OF INPUT****

CARTESIAN COORDINATES (ANGSTROEM)
---------------------------------
  S    -10.464000  -11.693100   87.936700
  C    -11.729500  -12.613100   88.711500
  C    -12.804600  -12.849000   87.849900
  C    -12.650600  -12.080000   86.673300
  C    -11.421800  -11.423100   86.509100
  H    -13.347200  -11.983100   85.867100
  C    -14.186300  -13.498200   88.070700
  H    -14.425100  -13.789100   86.985200
  H    -14.957300  -12.878900   88.446400
  C    -14.061900  -14.684200   89.075600
  H    -13.034600  -15.014400   89.095500
  H    -14.160700  -14.288600   90.098000
  C    -15.066800  -15.747100   88.742100
  H    -16.049700  -15.335700   88.834800
  H    -14.952200  -16.035500   87.766000
  H    -15.010600  -16.641400   89.357400
  S     -9.286290  -10.835300   84.923500
  C     -9.570920   -9.921690   83.503600
  C    -10.860600   -9.604860   83.269900
  C    -11.665600   -9.976520   84.341500
  C    -10.995500  -10.637200   85.365700
  H    -11.101700   -9.140120   82.343700
  C    -13.169100   -9.637630   84.291500
  H    -13.212500   -8.613010   83.972400
  H    -13.505800   -9.623110   85.267500
  C    -14.071400  -10.319700   83.195300
  H    -14.262800  -11.290200   83.578100
  H    -13.476600  -10.453100   82.296200
  C    -15.396100   -9.611800   82.896200
  H    -16.012400  -10.267500   82.231000
  H    -15.249900   -8.596990   82.420700
  H    -16.061300   -9.492380   83.720100
  H    -11.704400  -12.939600   89.746400
  H     -8.834590   -9.610990   82.751600

 Total Charge           Charge          ....    0
 Multiplicity           Mult            ....    1
 Number of Electrons    NEL             ....  134
 Basis Dimension        Dim             ....  322

ORBITAL ENERGIES
----------------

  NO   OCC          E(Eh)            E(eV)
   0   2.0000     -88.968707     -2420.9616
   1   2.0000     -88.965820     -2420.8830
   2   2.0000     -10.328886      -281.0633
   3   2.0000     -10.328062      -281.0409
   4   2.0000     -10.316864      -280.7361
   5   2.0000     -10.310698      -280.5684
   6   2.0000     -10.302707      -280.3509
   7   2.0000     -10.302457      -280.3441
   8   2.0000     -10.298464      -280.2355
   9   2.0000     -10.290174      -280.0099
  10   2.0000     -10.288388      -279.9613
  11   2.0000     -10.287175      -279.9283
  12   2.0000     -10.284933      -279.8672
  13   2.0000     -10.283583      -279.8305
  14   2.0000     -10.283372      -279.8248
  15   2.0000     -10.267228      -279.3855
  16   2.0000      -8.083316      -219.9582
  17   2.0000      -8.081028      -219.8959
  18   2.0000      -6.041845      -164.4070
  19   2.0000      -6.039464      -164.3422
  20   2.0000      -6.037751      -164.2956
  21   2.0000      -6.035600      -164.2370
  22   2.0000      -6.034165      -164.1980
  23   2.0000      -6.031712      -164.1312
  24   2.0000      -1.010311       -27.4920
  25   2.0000      -0.988023       -26.8855
  26   2.0000      -0.913190       -24.8492
  27   2.0000      -0.906476       -24.6665
  28   2.0000      -0.872448       -23.7405
  29   2.0000      -0.856283       -23.3006
  30   2.0000      -0.850570       -23.1452
  31   2.0000      -0.812437       -22.1075
  32   2.0000      -0.784453       -21.3461
  33   2.0000      -0.773546       -21.0493
  34   2.0000      -0.714796       -19.4506
  35   2.0000      -0.707524       -19.2527
  36   2.0000      -0.693098       -18.8602
  37   2.0000      -0.665783       -18.1169
  38   2.0000      -0.639285       -17.3958
  39   2.0000      -0.617324       -16.7982
  40   2.0000      -0.594497       -16.1771
  41   2.0000      -0.577607       -15.7175
  42   2.0000      -0.566587       -15.4176
  43   2.0000      -0.560986       -15.2652
  44   2.0000      -0.527063       -14.3421
  45   2.0000      -0.522273       -14.2118
  46   2.0000      -0.517675       -14.0867
  47   2.0000      -0.511159       -13.9094
  48   2.0000      -0.504062       -13.7162
  49   2.0000      -0.499502       -13.5921
  50   2.0000      -0.498017       -13.5517
  51   2.0000      -0.483350       -13.1526
  52   2.0000      -0.479454       -13.0466
  53   2.0000      -0.469489       -12.7755
  54   2.0000      -0.459103       -12.4928
  55   2.0000      -0.456349       -12.4179
  56   2.0000      -0.448041       -12.1918
  57   2.0000      -0.434531       -11.8242
  58   2.0000      -0.431697       -11.7471
  59   2.0000      -0.423388       -11.5210
  60   2.0000      -0.422569       -11.4987
  61   2.0000      -0.418178       -11.3792
  62   2.0000      -0.416182       -11.3249
  63   2.0000      -0.355927        -9.6853
  64   2.0000      -0.334630        -9.1058
  65   2.0000      -0.331002        -9.0070
  66   2.0000      -0.281163        -7.6508
  67   0.0000       0.024315         0.6616
  68   0.0000       0.078413         2.1337
  69   0.0000       0.104479         2.8430
  70   0.0000       0.120008         3.2656
  71   0.0000       0.132756         3.6125

MULLIKEN ATOMIC CHARGES
-----------------------
   0 S :    0.118214
   1 C :   -0.137540
   2 C :   -0.053636
   3 C :    0.001299
   4 C :   -0.138297
   5 H :   -0.012123
   6 C :    0.010335
   7 H :    0.044049
   8 H :    0.047017
   9 C :   -0.078985
  10 H :    0.023465
  11 H :    0.026493
  12 C :    0.013052
  13 H :    0.018430
  14 H :    0.010986
  15 H :    0.029907
  16 S :    0.100841
  17 C :   -0.075999
  18 C :   -0.042806
  19 C :   -0.048096
  20 C :   -0.121845
  21 H :    0.006953
  22 C :    0.084825
  23 H :    0.006863
  24 H :    0.006458
  25 C :   -0.033178
  26 H :    0.015840
  27 H :    0.027910
  28 C :   -0.070726
  29 H :    0.037920
  30 H :    0.046328
  31 H :    0.028255
  32 H :    0.055173
  33 H :    0.052618
Sum of atomic charges:    0.0000000

LOEWDIN ATOMIC CHARGES
----------------------
   0 S :    0.415352
   1 C :   -0.202545
   2 C :   -0.064605
   3 C :   -0.065880
   4 C :   -0.200982
   5 H :    0.022832
   6 C :   -0.024035
   7 H :    0.040016
   8 H :    0.028511
   9 C :   -0.042749
  10 H :    0.018508
  11 H :    0.024315
  12 C :   -0.052950
  13 H :    0.024051
  14 H :    0.014245
  15 H :    0.026635
  16 S :    0.407323
  17 C :   -0.189569
  18 C :   -0.075126
  19 C :   -0.051913
  20 C :   -0.189006
  21 H :    0.031106
  22 C :   -0.027261
  23 H :    0.028760
  24 H :    0.016548
  25 C :   -0.032723
  26 H :    0.015888
  27 H :    0.026145
  28 C :   -0.070287
  29 H :    0.034296
  30 H :    0.031672
  31 H :    0.021035
  32 H :    0.029059
  33 H :    0.033331

  Mayer bond orders larger than 0.100000
B(  0-S ,  1-C ) :   1.1493 B(  0-S ,  4-C ) :   1.1512 B(  1-C ,  2-C ) :   1.5747
B(  1-C ,  4-C ) :   0.1027 B(  1-C , 32-H ) :   0.9683 B(  2-C ,  3-C ) :   1.2698
B(  2-C ,  6-C ) :   1.0028 B(  3-C ,  4-C ) :   1.5598 B(  3-C ,  5-H ) :   0.9919
B(  4-C , 20-C ) :   1.0603 B(  6-C ,  7-H ) :   0.9520 B(  6-C ,  8-H ) :   0.9462
B(  6-C ,  9-C ) :   1.0461 B(  9-C , 10-H ) :   0.9645 B(  9-C , 11-H ) :   0.9502
B(  9-C , 12-C ) :   1.0822 B( 12-C , 13-H ) :   0.9707 B( 12-C , 14-H ) :   0.9778
B( 12-C , 15-H ) :   0.9713 B( 16-S , 17-C ) :   1.1613 B( 16-S , 20-C ) :   1.1234
B( 17-C , 18-C ) :   1.6296 B( 17-C , 33-H ) :   0.9565 B( 18-C , 19-C ) :   1.2364
B( 18-C , 21-H ) :   0.9989 B( 19-C , 20-C ) :   1.6031 B( 19-C , 22-C ) :   1.0340
B( 22-C , 23-H ) :   0.9322 B( 22-C , 24-H ) :   0.9376 B( 22-C , 25-C ) :   1.0482
B( 25-C , 26-H ) :   0.9534 B( 25-C , 27-H ) :   0.9531 B( 25-C , 28-C ) :   1.0862
B( 28-C , 29-H ) :   0.9722 B( 28-C , 30-H ) :   0.9733 B( 28-C , 31-H ) :   0.9756

Dispersion correction           -0.013420402
FINAL SINGLE POINT ENERGY     -1339.863920410185

DIPOLE MOMENT
-------------
                                X             Y             Z
Electronic contribution:     29.79954       7.53678       3.19600
Nuclear contribution   :    -30.52651      -7.56335      -3.46862
                        -----------------------------------------
Total Dipole Moment    :     -0.72697      -0.02658      -0.27262
                        -----------------------------------------
Magnitude (a.u.)       :      0.77686
Magnitude (Debye)      :      1.97462

Rotational constants in cm-1:     0.017223     0.008361     0.005968
Rotational constants in MHz :   516.326749   250.643716   178.901522

                             ****ORCA TERMINATED NORMALLY****
TOTAL RUN TIME: 0 days 0 hours 0 minutes 33 seconds 387 msec
