                         Program Version 4.2.1 -  RELEASE  -
|  1> ! wB97X-D3 SP def2-SVP
|  2> %pal
|  3> nprocs 16
|  4> end
|  5>
|  6> * xyz 0 1
|  7> S 	 -67.1521 	 37.0322 	 138.57
|  8> C 	 -66.7025 	 35.8042 	 139.729
|  9> C 	 -66.3291 	 34.623 	 139.038
| 10> C 	 -66.3843 	 34.7622 	 137.605
| 11> C 	 -66.7513 	 36.0378 	 137.175
| 12> H 	 -66.1355 	 34.0044 	 136.942
| 13> C 	 -65.921 	 33.3029 	 139.763
| 14> H 	 -66.015 	 33.5237 	 140.825
| 15> H 	 -64.8596 	 33.3143 	 139.487
| 16> C 	 -66.6206 	 32.0206 	 139.393
| 17> H 	 -66.5957 	 31.9309 	 138.277
| 18> H 	 -66.0598 	 31.161 	 139.806
| 19> C 	 -68.0601 	 32.0412 	 139.745
| 20> H 	 -68.1519 	 31.8982 	 140.814
| 21> H 	 -68.488 	 32.9701 	 139.47
| 22> H 	 -68.6705 	 31.2364 	 139.278
| 23> S 	 -65.9905 	 35.5417 	 134.606
| 24> C 	 -66.8619 	 36.1591 	 133.259
| 25> C 	 -67.8115 	 37.0614 	 133.713
| 26> C 	 -67.9034 	 37.273 	 135.125
| 27> C 	 -66.8981 	 36.517 	 135.804
| 28> H 	 -68.5062 	 37.4721 	 133.072
| 29> C 	 -69.0637 	 37.9819 	 135.816
| 30> H 	 -69.0303 	 38.3086 	 136.807
| 31> H 	 -69.8061 	 37.2222 	 135.821
| 32> C 	 -69.6174 	 39.1589 	 135.004
| 33> H 	 -70.5247 	 39.2845 	 135.521
| 34> H 	 -69.9224 	 38.6785 	 134.081
| 35> C 	 -68.6176 	 40.3229 	 134.773
| 36> H 	 -67.8876 	 40.4276 	 135.699
| 37> H 	 -69.0511 	 41.254 	 134.489
| 38> H 	 -67.9726 	 39.9505 	 133.969
| 39> H 	 -66.807 	 35.6966 	 140.818
| 40> H 	 -66.8039 	 35.6222 	 132.311
| 41> *
| 42>
| 43>                          ****END OF INPUT****

CARTESIAN COORDINATES (ANGSTROEM)
---------------------------------
  S    -67.152100   37.032200  138.570000
  C    -66.702500   35.804200  139.729000
  C    -66.329100   34.623000  139.038000
  C    -66.384300   34.762200  137.605000
  C    -66.751300   36.037800  137.175000
  H    -66.135500   34.004400  136.942000
  C    -65.921000   33.302900  139.763000
  H    -66.015000   33.523700  140.825000
  H    -64.859600   33.314300  139.487000
  C    -66.620600   32.020600  139.393000
  H    -66.595700   31.930900  138.277000
  H    -66.059800   31.161000  139.806000
  C    -68.060100   32.041200  139.745000
  H    -68.151900   31.898200  140.814000
  H    -68.488000   32.970100  139.470000
  H    -68.670500   31.236400  139.278000
  S    -65.990500   35.541700  134.606000
  C    -66.861900   36.159100  133.259000
  C    -67.811500   37.061400  133.713000
  C    -67.903400   37.273000  135.125000
  C    -66.898100   36.517000  135.804000
  H    -68.506200   37.472100  133.072000
  C    -69.063700   37.981900  135.816000
  H    -69.030300   38.308600  136.807000
  H    -69.806100   37.222200  135.821000
  C    -69.617400   39.158900  135.004000
  H    -70.524700   39.284500  135.521000
  H    -69.922400   38.678500  134.081000
  C    -68.617600   40.322900  134.773000
  H    -67.887600   40.427600  135.699000
  H    -69.051100   41.254000  134.489000
  H    -67.972600   39.950500  133.969000
  H    -66.807000   35.696600  140.818000
  H    -66.803900   35.622200  132.311000

 Total Charge           Charge          ....    0
 Multiplicity           Mult            ....    1
 Number of Electrons    NEL             ....  134
 Basis Dimension        Dim             ....  322

ORBITAL ENERGIES
----------------

  NO   OCC          E(Eh)            E(eV)
   0   2.0000     -88.969185     -2420.9746
   1   2.0000     -88.964857     -2420.8568
   2   2.0000     -10.335941      -281.2553
   3   2.0000     -10.334288      -281.2103
   4   2.0000     -10.322214      -280.8817
   5   2.0000     -10.316070      -280.7145
   6   2.0000     -10.315008      -280.6856
   7   2.0000     -10.305166      -280.4178
   8   2.0000     -10.294976      -280.1405
   9   2.0000     -10.293447      -280.0989
  10   2.0000     -10.291080      -280.0345
  11   2.0000     -10.287494      -279.9369
  12   2.0000     -10.287290      -279.9314
  13   2.0000     -10.287278      -279.9311
  14   2.0000     -10.282819      -279.8097
  15   2.0000     -10.269717      -279.4532
  16   2.0000      -8.082895      -219.9468
  17   2.0000      -8.079614      -219.8575
  18   2.0000      -6.041637      -164.4013
  19   2.0000      -6.038111      -164.3054
  20   2.0000      -6.037414      -164.2864
  21   2.0000      -6.033933      -164.1917
  22   2.0000      -6.033602      -164.1827
  23   2.0000      -6.030577      -164.1003
  24   2.0000      -1.002998       -27.2930
  25   2.0000      -0.980638       -26.6845
  26   2.0000      -0.917173       -24.9575
  27   2.0000      -0.916309       -24.9340
  28   2.0000      -0.870179       -23.6788
  29   2.0000      -0.849439       -23.1144
  30   2.0000      -0.841718       -22.9043
  31   2.0000      -0.811957       -22.0945
  32   2.0000      -0.790068       -21.4988
  33   2.0000      -0.774360       -21.0714
  34   2.0000      -0.711866       -19.3709
  35   2.0000      -0.702253       -19.1093
  36   2.0000      -0.686330       -18.6760
  37   2.0000      -0.662805       -18.0358
  38   2.0000      -0.632143       -17.2015
  39   2.0000      -0.621829       -16.9208
  40   2.0000      -0.612194       -16.6586
  41   2.0000      -0.567906       -15.4535
  42   2.0000      -0.560409       -15.2495
  43   2.0000      -0.557446       -15.1689
  44   2.0000      -0.547640       -14.9021
  45   2.0000      -0.539937       -14.6924
  46   2.0000      -0.516514       -14.0551
  47   2.0000      -0.511813       -13.9271
  48   2.0000      -0.499935       -13.6039
  49   2.0000      -0.497265       -13.5313
  50   2.0000      -0.485729       -13.2173
  51   2.0000      -0.481245       -13.0953
  52   2.0000      -0.475862       -12.9489
  53   2.0000      -0.470337       -12.7985
  54   2.0000      -0.462144       -12.5756
  55   2.0000      -0.447471       -12.1763
  56   2.0000      -0.443017       -12.0551
  57   2.0000      -0.440951       -11.9989
  58   2.0000      -0.439621       -11.9627
  59   2.0000      -0.421185       -11.4610
  60   2.0000      -0.414459       -11.2780
  61   2.0000      -0.412517       -11.2252
  62   2.0000      -0.404734       -11.0134
  63   2.0000      -0.356466        -9.6999
  64   2.0000      -0.331897        -9.0314
  65   2.0000      -0.327858        -8.9215
  66   2.0000      -0.281781        -7.6676
  67   0.0000       0.015222         0.4142
  68   0.0000       0.081027         2.2049
  69   0.0000       0.110492         3.0066
  70   0.0000       0.119711         3.2575
  71   0.0000       0.130575         3.5531

MULLIKEN ATOMIC CHARGES
-----------------------
   0 S :    0.108009
   1 C :   -0.106597
   2 C :   -0.161939
   3 C :    0.034658
   4 C :   -0.133632
   5 H :   -0.009016
   6 C :    0.065185
   7 H :    0.011023
   8 H :    0.048238
   9 C :   -0.063514
  10 H :    0.027991
  11 H :    0.038327
  12 C :   -0.035354
  13 H :    0.019222
  14 H :    0.032500
  15 H :    0.036649
  16 S :    0.073224
  17 C :   -0.091243
  18 C :   -0.016300
  19 C :   -0.048767
  20 C :   -0.116993
  21 H :   -0.008028
  22 C :    0.059993
  23 H :    0.020945
  24 H :    0.032651
  25 C :   -0.061126
  26 H :    0.009936
  27 H :    0.011315
  28 C :   -0.043177
  29 H :    0.052081
  30 H :    0.044380
  31 H :    0.037315
  32 H :    0.053819
  33 H :    0.078224
Sum of atomic charges:    0.0000000

LOEWDIN ATOMIC CHARGES
----------------------
   0 S :    0.413118
   1 C :   -0.223662
   2 C :   -0.057353
   3 C :   -0.072118
   4 C :   -0.185152
   5 H :    0.012074
   6 C :   -0.031761
   7 H :    0.024721
   8 H :    0.039664
   9 C :   -0.048483
  10 H :    0.027249
  11 H :    0.029712
  12 C :   -0.062759
  13 H :    0.022069
  14 H :    0.022989
  15 H :    0.030671
  16 S :    0.412030
  17 C :   -0.192804
  18 C :   -0.069808
  19 C :   -0.043914
  20 C :   -0.187669
  21 H :    0.015040
  22 C :   -0.026631
  23 H :    0.016196
  24 H :    0.037650
  25 C :   -0.039158
  26 H :    0.017947
  27 H :    0.017187
  28 C :   -0.067393
  29 H :    0.041994
  30 H :    0.022386
  31 H :    0.031345
  32 H :    0.037457
  33 H :    0.037171

  Mayer bond orders larger than 0.100000
B(  0-S ,  1-C ) :   1.1309 B(  0-S ,  4-C ) :   1.1492 B(  1-C ,  2-C ) :   1.6022
B(  1-C , 32-H ) :   0.9574 B(  2-C ,  3-C ) :   1.2602 B(  2-C ,  6-C ) :   1.0059
B(  3-C ,  4-C ) :   1.5455 B(  3-C ,  5-H ) :   0.9896 B(  4-C , 20-C ) :   1.0707
B(  6-C ,  7-H ) :   0.9428 B(  6-C ,  8-H ) :   0.9356 B(  6-C ,  9-C ) :   1.0745
B(  9-C , 10-H ) :   0.9521 B(  9-C , 11-H ) :   0.9519 B(  9-C , 12-C ) :   1.0763
B( 12-C , 13-H ) :   0.9727 B( 12-C , 14-H ) :   0.9745 B( 12-C , 15-H ) :   0.9727
B( 16-S , 17-C ) :   1.1790 B( 16-S , 20-C ) :   1.1467 B( 17-C , 18-C ) :   1.5558
B( 17-C , 33-H ) :   0.9669 B( 18-C , 19-C ) :   1.2889 B( 18-C , 21-H ) :   0.9955
B( 19-C , 20-C ) :   1.5227 B( 19-C , 22-C ) :   1.0190 B( 22-C , 23-H ) :   0.9442
B( 22-C , 24-H ) :   0.9237 B( 22-C , 25-C ) :   1.0894 B( 25-C , 26-H ) :   0.9546
B( 25-C , 27-H ) :   0.9519 B( 25-C , 28-C ) :   1.0488 B( 28-C , 29-H ) :   0.9767
B( 28-C , 30-H ) :   0.9782 B( 28-C , 31-H ) :   0.9681

Dispersion correction           -0.014288307
FINAL SINGLE POINT ENERGY     -1339.856853794162

DIPOLE MOMENT
-------------
                                X             Y             Z
Electronic contribution:     10.19657       3.63788      -4.84682
Nuclear contribution   :    -10.70539      -4.01950       4.75478
                        -----------------------------------------
Total Dipole Moment    :     -0.50882      -0.38162      -0.09204
                        -----------------------------------------
Magnitude (a.u.)       :      0.64265
Magnitude (Debye)      :      1.63350

Rotational constants in cm-1:     0.023217     0.007715     0.006548
Rotational constants in MHz :   696.016119   231.282258   196.307582

                             ****ORCA TERMINATED NORMALLY****
TOTAL RUN TIME: 0 days 0 hours 0 minutes 32 seconds 251 msec
