                         Program Version 4.2.1 -  RELEASE  -
|  1> ! wB97X-D3 SP def2-SVP
|  2> %pal
|  3> nprocs 16
|  4> end
|  5>
|  6> * xyz 0 1
|  7> S 	 16.5441 	 10.0307 	 88.6677
|  8> C 	 16.1892 	 9.72847 	 86.9975
|  9> C 	 15.3451 	 10.7078 	 86.503
| 10> C 	 14.8744 	 11.5377 	 87.5562
| 11> C 	 15.4685 	 11.3895 	 88.7932
| 12> H 	 14.2049 	 12.3716 	 87.3864
| 13> C 	 14.8472 	 10.7891 	 85.1006
| 14> H 	 14.3031 	 11.7197 	 84.9058
| 15> H 	 14.1867 	 10.0176 	 84.8377
| 16> C 	 16.0941 	 10.8013 	 84.1555
| 17> H 	 16.6855 	 9.83638 	 84.2205
| 18> H 	 15.7089 	 10.93 	 83.1158
| 19> C 	 16.9977 	 12.0264 	 84.4115
| 20> H 	 17.6571 	 12.2985 	 83.5262
| 21> H 	 16.4577 	 12.9519 	 84.7636
| 22> H 	 17.7216 	 11.6815 	 85.1506
| 23> S 	 15.8277 	 13.8568 	 90.0356
| 24> C 	 15.0214 	 14.1268 	 91.59
| 25> C 	 14.4643 	 12.9909 	 92.0722
| 26> C 	 14.5404 	 11.9086 	 91.1723
| 27> C 	 15.2376 	 12.2056 	 89.9963
| 28> H 	 13.9477 	 12.9293 	 93.0251
| 29> C 	 13.6956 	 10.5954 	 91.3964
| 30> H 	 13.9905 	 10.1702 	 92.3936
| 31> H 	 14.0915 	 9.92735 	 90.6913
| 32> C 	 12.158 	 10.6503 	 91.3221
| 33> H 	 11.7494 	 10.6192 	 90.2549
| 34> H 	 11.7965 	 11.6101 	 91.6228
| 35> C 	 11.378 	 9.54121 	 92.0797
| 36> H 	 10.3527 	 9.25272 	 91.605
| 37> H 	 11.1666 	 9.77727 	 93.1612
| 38> H 	 11.9138 	 8.63441 	 91.8607
| 39> H 	 16.5517 	 8.91718 	 86.412
| 40> H 	 15.102 	 15.1332 	 92.1021
| 41> *
| 42>
| 43>                          ****END OF INPUT****

CARTESIAN COORDINATES (ANGSTROEM)
---------------------------------
  S     16.544100   10.030700   88.667700
  C     16.189200    9.728470   86.997500
  C     15.345100   10.707800   86.503000
  C     14.874400   11.537700   87.556200
  C     15.468500   11.389500   88.793200
  H     14.204900   12.371600   87.386400
  C     14.847200   10.789100   85.100600
  H     14.303100   11.719700   84.905800
  H     14.186700   10.017600   84.837700
  C     16.094100   10.801300   84.155500
  H     16.685500    9.836380   84.220500
  H     15.708900   10.930000   83.115800
  C     16.997700   12.026400   84.411500
  H     17.657100   12.298500   83.526200
  H     16.457700   12.951900   84.763600
  H     17.721600   11.681500   85.150600
  S     15.827700   13.856800   90.035600
  C     15.021400   14.126800   91.590000
  C     14.464300   12.990900   92.072200
  C     14.540400   11.908600   91.172300
  C     15.237600   12.205600   89.996300
  H     13.947700   12.929300   93.025100
  C     13.695600   10.595400   91.396400
  H     13.990500   10.170200   92.393600
  H     14.091500    9.927350   90.691300
  C     12.158000   10.650300   91.322100
  H     11.749400   10.619200   90.254900
  H     11.796500   11.610100   91.622800
  C     11.378000    9.541210   92.079700
  H     10.352700    9.252720   91.605000
  H     11.166600    9.777270   93.161200
  H     11.913800    8.634410   91.860700
  H     16.551700    8.917180   86.412000
  H     15.102000   15.133200   92.102100

 Total Charge           Charge          ....    0
 Multiplicity           Mult            ....    1
 Number of Electrons    NEL             ....  134
 Basis Dimension        Dim             ....  322

ORBITAL ENERGIES
----------------

  NO   OCC          E(Eh)            E(eV)
   0   2.0000     -88.966778     -2420.9091
   1   2.0000     -88.966500     -2420.9015
   2   2.0000     -10.330298      -281.1017
   3   2.0000     -10.328143      -281.0431
   4   2.0000     -10.323769      -280.9240
   5   2.0000     -10.312275      -280.6113
   6   2.0000     -10.306292      -280.4485
   7   2.0000     -10.297448      -280.2078
   8   2.0000     -10.295210      -280.1469
   9   2.0000     -10.293732      -280.1067
  10   2.0000     -10.292473      -280.0724
  11   2.0000     -10.290003      -280.0052
  12   2.0000     -10.289636      -279.9952
  13   2.0000     -10.289219      -279.9839
  14   2.0000     -10.288254      -279.9576
  15   2.0000     -10.281677      -279.7786
  16   2.0000      -8.081248      -219.9019
  17   2.0000      -8.081223      -219.9013
  18   2.0000      -6.039714      -164.3490
  19   2.0000      -6.039665      -164.3476
  20   2.0000      -6.035812      -164.2428
  21   2.0000      -6.035492      -164.2341
  22   2.0000      -6.032282      -164.1467
  23   2.0000      -6.032043      -164.1402
  24   2.0000      -1.007467       -27.4146
  25   2.0000      -0.987968       -26.8840
  26   2.0000      -0.912945       -24.8425
  27   2.0000      -0.897801       -24.4304
  28   2.0000      -0.867672       -23.6105
  29   2.0000      -0.846369       -23.0309
  30   2.0000      -0.842096       -22.9146
  31   2.0000      -0.813751       -22.1433
  32   2.0000      -0.781156       -21.2563
  33   2.0000      -0.769589       -20.9416
  34   2.0000      -0.704082       -19.1590
  35   2.0000      -0.693898       -18.8819
  36   2.0000      -0.690635       -18.7931
  37   2.0000      -0.659142       -17.9362
  38   2.0000      -0.642175       -17.4745
  39   2.0000      -0.612370       -16.6634
  40   2.0000      -0.596387       -16.2285
  41   2.0000      -0.580009       -15.7828
  42   2.0000      -0.555990       -15.1292
  43   2.0000      -0.551692       -15.0123
  44   2.0000      -0.538370       -14.6498
  45   2.0000      -0.526875       -14.3370
  46   2.0000      -0.514884       -14.0107
  47   2.0000      -0.507247       -13.8029
  48   2.0000      -0.505010       -13.7420
  49   2.0000      -0.493707       -13.4345
  50   2.0000      -0.484211       -13.1760
  51   2.0000      -0.474732       -12.9181
  52   2.0000      -0.467025       -12.7084
  53   2.0000      -0.464859       -12.6494
  54   2.0000      -0.463075       -12.6009
  55   2.0000      -0.452965       -12.3258
  56   2.0000      -0.439226       -11.9519
  57   2.0000      -0.431772       -11.7491
  58   2.0000      -0.428267       -11.6537
  59   2.0000      -0.423204       -11.5160
  60   2.0000      -0.416709       -11.3392
  61   2.0000      -0.409126       -11.1329
  62   2.0000      -0.408399       -11.1131
  63   2.0000      -0.339006        -9.2248
  64   2.0000      -0.334247        -9.0953
  65   2.0000      -0.325355        -8.8534
  66   2.0000      -0.306487        -8.3399
  67   0.0000       0.037038         1.0079
  68   0.0000       0.061017         1.6603
  69   0.0000       0.114332         3.1111
  70   0.0000       0.122744         3.3400
  71   0.0000       0.130708         3.5567

MULLIKEN ATOMIC CHARGES
-----------------------
   0 S :    0.124289
   1 C :   -0.123307
   2 C :   -0.091433
   3 C :    0.039927
   4 C :   -0.172210
   5 H :    0.005337
   6 C :    0.103567
   7 H :    0.020143
   8 H :    0.033885
   9 C :   -0.130804
  10 H :    0.042102
  11 H :    0.034100
  12 C :   -0.078541
  13 H :    0.043476
  14 H :    0.046927
  15 H :    0.039607
  16 S :    0.110898
  17 C :   -0.122289
  18 C :   -0.010181
  19 C :   -0.040444
  20 C :   -0.179836
  21 H :    0.022391
  22 C :    0.098740
  23 H :    0.031893
  24 H :    0.009649
  25 C :   -0.060706
  26 H :    0.036818
  27 H :    0.014603
  28 C :   -0.100566
  29 H :    0.039858
  30 H :    0.055516
  31 H :    0.034353
  32 H :    0.039968
  33 H :    0.082271
Sum of atomic charges:    0.0000000

LOEWDIN ATOMIC CHARGES
----------------------
   0 S :    0.426130
   1 C :   -0.196224
   2 C :   -0.066029
   3 C :   -0.061579
   4 C :   -0.210228
   5 H :    0.027991
   6 C :   -0.026346
   7 H :    0.031370
   8 H :    0.026592
   9 C :   -0.044837
  10 H :    0.026420
  11 H :    0.022863
  12 C :   -0.079518
  13 H :    0.032019
  14 H :    0.031606
  15 H :    0.027150
  16 S :    0.399381
  17 C :   -0.179811
  18 C :   -0.075071
  19 C :   -0.050847
  20 C :   -0.202459
  21 H :    0.036066
  22 C :   -0.027739
  23 H :    0.035767
  24 H :    0.018609
  25 C :   -0.049731
  26 H :    0.035385
  27 H :    0.015555
  28 C :   -0.079860
  29 H :    0.037514
  30 H :    0.031110
  31 H :    0.023249
  32 H :    0.023508
  33 H :    0.041994

  Mayer bond orders larger than 0.100000
B(  0-S ,  1-C ) :   1.1630 B(  0-S ,  4-C ) :   1.1518 B(  1-C ,  2-C ) :   1.5606
B(  1-C ,  4-C ) :   0.1007 B(  1-C , 32-H ) :   0.9748 B(  2-C ,  3-C ) :   1.2804
B(  2-C ,  6-C ) :   1.0200 B(  3-C ,  4-C ) :   1.5650 B(  3-C ,  5-H ) :   0.9925
B(  4-C , 20-C ) :   1.0147 B(  6-C ,  7-H ) :   0.9426 B(  6-C ,  8-H ) :   0.9402
B(  6-C ,  9-C ) :   1.0694 B(  9-C , 10-H ) :   0.9585 B(  9-C , 11-H ) :   0.9625
B(  9-C , 12-C ) :   1.0587 B( 12-C , 13-H ) :   0.9765 B( 12-C , 14-H ) :   0.9765
B( 12-C , 15-H ) :   0.9724 B( 16-S , 17-C ) :   1.1524 B( 16-S , 20-C ) :   1.1500
B( 17-C , 18-C ) :   1.6004 B( 17-C , 33-H ) :   0.9594 B( 18-C , 19-C ) :   1.2542
B( 18-C , 21-H ) :   0.9910 B( 19-C , 20-C ) :   1.6011 B( 19-C , 22-C ) :   1.0369
B( 22-C , 23-H ) :   0.9428 B( 22-C , 24-H ) :   0.9218 B( 22-C , 25-C ) :   1.0480
B( 25-C , 26-H ) :   0.9550 B( 25-C , 27-H ) :   0.9634 B( 25-C , 28-C ) :   1.0677
B( 28-C , 29-H ) :   0.9756 B( 28-C , 30-H ) :   0.9758 B( 28-C , 31-H ) :   0.9767

Dispersion correction           -0.014371875
FINAL SINGLE POINT ENERGY     -1339.876751280755

DIPOLE MOMENT
-------------
                                X             Y             Z
Electronic contribution:     12.57089       7.43499       8.60940
Nuclear contribution   :    -13.00548      -7.47936      -8.77639
                        -----------------------------------------
Total Dipole Moment    :     -0.43459      -0.04437      -0.16700
                        -----------------------------------------
Magnitude (a.u.)       :      0.46768
Magnitude (Debye)      :      1.18874

Rotational constants in cm-1:     0.020176     0.007952     0.006584
Rotational constants in MHz :   604.868238   238.396985   197.375392

                             ****ORCA TERMINATED NORMALLY****
TOTAL RUN TIME: 0 days 0 hours 0 minutes 33 seconds 751 msec
