                         Program Version 4.2.1 -  RELEASE  -
|  1> ! wB97X-D3 SP def2-SVP
|  2> %pal
|  3> nprocs 16
|  4> end
|  5>
|  6> * xyz 0 1
|  7> S 	 -49.1029 	 49.9497 	 104.404
|  8> C 	 -48.3698 	 51.3872 	 105.064
|  9> C 	 -47.078 	 51.2343 	 105.475
| 10> C 	 -46.64 	 49.948 	 105.157
| 11> C 	 -47.6454 	 49.0704 	 104.737
| 12> H 	 -45.6982 	 49.4907 	 105.349
| 13> C 	 -46.2885 	 52.2558 	 106.298
| 14> H 	 -46.9978 	 52.8988 	 106.775
| 15> H 	 -45.6818 	 52.8895 	 105.628
| 16> C 	 -45.4246 	 51.5987 	 107.325
| 17> H 	 -46.0275 	 50.9734 	 108.007
| 18> H 	 -44.6347 	 51.0326 	 106.796
| 19> C 	 -44.7501 	 52.6279 	 108.31
| 20> H 	 -44.2246 	 53.3134 	 107.741
| 21> H 	 -45.4747 	 53.1134 	 108.989
| 22> H 	 -43.9632 	 52.1721 	 108.945
| 23> S 	 -48.096 	 46.791 	 103.308
| 24> C 	 -47.4527 	 45.2554 	 103.747
| 25> C 	 -46.6816 	 45.4372 	 104.898
| 26> C 	 -46.7496 	 46.7734 	 105.41
| 27> C 	 -47.5077 	 47.6362 	 104.665
| 28> H 	 -46.1722 	 44.5794 	 105.267
| 29> C 	 -46.278 	 47.1703 	 106.776
| 30> H 	 -46.7542 	 48.1391 	 106.963
| 31> H 	 -45.2159 	 47.5405 	 106.821
| 32> C 	 -46.5342 	 46.1854 	 107.97
| 33> H 	 -46.2103 	 45.222 	 107.679
| 34> H 	 -47.5857 	 46.1166 	 108.165
| 35> C 	 -45.863 	 46.5456 	 109.262
| 36> H 	 -46.361 	 45.9242 	 109.994
| 37> H 	 -46.0451 	 47.6434 	 109.505
| 38> H 	 -44.7797 	 46.2025 	 109.173
| 39> H 	 -48.8677 	 52.285 	 105.289
| 40> H 	 -47.6555 	 44.3773 	 103.158
| 41> *
| 42>
| 43>                          ****END OF INPUT****

CARTESIAN COORDINATES (ANGSTROEM)
---------------------------------
  S    -49.102900   49.949700  104.404000
  C    -48.369800   51.387200  105.064000
  C    -47.078000   51.234300  105.475000
  C    -46.640000   49.948000  105.157000
  C    -47.645400   49.070400  104.737000
  H    -45.698200   49.490700  105.349000
  C    -46.288500   52.255800  106.298000
  H    -46.997800   52.898800  106.775000
  H    -45.681800   52.889500  105.628000
  C    -45.424600   51.598700  107.325000
  H    -46.027500   50.973400  108.007000
  H    -44.634700   51.032600  106.796000
  C    -44.750100   52.627900  108.310000
  H    -44.224600   53.313400  107.741000
  H    -45.474700   53.113400  108.989000
  H    -43.963200   52.172100  108.945000
  S    -48.096000   46.791000  103.308000
  C    -47.452700   45.255400  103.747000
  C    -46.681600   45.437200  104.898000
  C    -46.749600   46.773400  105.410000
  C    -47.507700   47.636200  104.665000
  H    -46.172200   44.579400  105.267000
  C    -46.278000   47.170300  106.776000
  H    -46.754200   48.139100  106.963000
  H    -45.215900   47.540500  106.821000
  C    -46.534200   46.185400  107.970000
  H    -46.210300   45.222000  107.679000
  H    -47.585700   46.116600  108.165000
  C    -45.863000   46.545600  109.262000
  H    -46.361000   45.924200  109.994000
  H    -46.045100   47.643400  109.505000
  H    -44.779700   46.202500  109.173000
  H    -48.867700   52.285000  105.289000
  H    -47.655500   44.377300  103.158000

 Total Charge           Charge          ....    0
 Multiplicity           Mult            ....    1
 Number of Electrons    NEL             ....  134
 Basis Dimension        Dim             ....  322

ORBITAL ENERGIES
----------------

  NO   OCC          E(Eh)            E(eV)
   0   2.0000     -88.969913     -2420.9944
   1   2.0000     -88.958438     -2420.6822
   2   2.0000     -10.327467      -281.0247
   3   2.0000     -10.319179      -280.7991
   4   2.0000     -10.317758      -280.7605
   5   2.0000     -10.307412      -280.4789
   6   2.0000     -10.299605      -280.2665
   7   2.0000     -10.297539      -280.2103
   8   2.0000     -10.294739      -280.1341
   9   2.0000     -10.294674      -280.1323
  10   2.0000     -10.293139      -280.0905
  11   2.0000     -10.289730      -279.9978
  12   2.0000     -10.287829      -279.9461
  13   2.0000     -10.284141      -279.8457
  14   2.0000     -10.280136      -279.7367
  15   2.0000     -10.277115      -279.6545
  16   2.0000      -8.084846      -219.9998
  17   2.0000      -8.075027      -219.7327
  18   2.0000      -6.043237      -164.4448
  19   2.0000      -6.039424      -164.3411
  20   2.0000      -6.035630      -164.2378
  21   2.0000      -6.033412      -164.1775
  22   2.0000      -6.028996      -164.0573
  23   2.0000      -6.026088      -163.9782
  24   2.0000      -1.016214       -27.6526
  25   2.0000      -0.992888       -27.0179
  26   2.0000      -0.918195       -24.9854
  27   2.0000      -0.907046       -24.6820
  28   2.0000      -0.875735       -23.8299
  29   2.0000      -0.857197       -23.3255
  30   2.0000      -0.846505       -23.0346
  31   2.0000      -0.816913       -22.2293
  32   2.0000      -0.785492       -21.3743
  33   2.0000      -0.770588       -20.9688
  34   2.0000      -0.712720       -19.3941
  35   2.0000      -0.699523       -19.0350
  36   2.0000      -0.690483       -18.7890
  37   2.0000      -0.658797       -17.9268
  38   2.0000      -0.643358       -17.5067
  39   2.0000      -0.624281       -16.9876
  40   2.0000      -0.599013       -16.3000
  41   2.0000      -0.581308       -15.8182
  42   2.0000      -0.570689       -15.5292
  43   2.0000      -0.564117       -15.3504
  44   2.0000      -0.532188       -14.4816
  45   2.0000      -0.525573       -14.3016
  46   2.0000      -0.516715       -14.0605
  47   2.0000      -0.512031       -13.9331
  48   2.0000      -0.509685       -13.8692
  49   2.0000      -0.501502       -13.6466
  50   2.0000      -0.492864       -13.4115
  51   2.0000      -0.484244       -13.1769
  52   2.0000      -0.475262       -12.9325
  53   2.0000      -0.463473       -12.6117
  54   2.0000      -0.459039       -12.4911
  55   2.0000      -0.450504       -12.2588
  56   2.0000      -0.445253       -12.1160
  57   2.0000      -0.439186       -11.9509
  58   2.0000      -0.430870       -11.7246
  59   2.0000      -0.425909       -11.5896
  60   2.0000      -0.420751       -11.4492
  61   2.0000      -0.416433       -11.3317
  62   2.0000      -0.409902       -11.1540
  63   2.0000      -0.351469        -9.5640
  64   2.0000      -0.336477        -9.1560
  65   2.0000      -0.325131        -8.8473
  66   2.0000      -0.288719        -7.8564
  67   0.0000       0.025764         0.7011
  68   0.0000       0.079085         2.1520
  69   0.0000       0.116024         3.1572
  70   0.0000       0.122702         3.3389
  71   0.0000       0.129726         3.5300

MULLIKEN ATOMIC CHARGES
-----------------------
   0 S :    0.129398
   1 C :   -0.094475
   2 C :   -0.089122
   3 C :    0.020899
   4 C :   -0.161522
   5 H :   -0.001250
   6 C :    0.124675
   7 H :    0.007945
   8 H :    0.039407
   9 C :   -0.137068
  10 H :    0.044185
  11 H :    0.044954
  12 C :   -0.032051
  13 H :    0.009899
  14 H :    0.040517
  15 H :    0.034319
  16 S :    0.092625
  17 C :   -0.103616
  18 C :   -0.033670
  19 C :   -0.028131
  20 C :   -0.121545
  21 H :    0.012808
  22 C :    0.012018
  23 H :    0.030419
  24 H :    0.026387
  25 C :   -0.045768
  26 H :    0.011277
  27 H :    0.025789
  28 C :   -0.069173
  29 H :    0.032940
  30 H :    0.046907
  31 H :    0.046478
  32 H :    0.019980
  33 H :    0.063565
Sum of atomic charges:    0.0000000

LOEWDIN ATOMIC CHARGES
----------------------
   0 S :    0.419356
   1 C :   -0.189646
   2 C :   -0.062901
   3 C :   -0.054449
   4 C :   -0.198054
   5 H :    0.024493
   6 C :   -0.025545
   7 H :    0.025681
   8 H :    0.035596
   9 C :   -0.041905
  10 H :    0.028042
  11 H :    0.027186
  12 C :   -0.061902
  13 H :    0.011062
  14 H :    0.028315
  15 H :    0.030634
  16 S :    0.431255
  17 C :   -0.188684
  18 C :   -0.068993
  19 C :   -0.065528
  20 C :   -0.214931
  21 H :    0.027151
  22 C :   -0.045461
  23 H :    0.030659
  24 H :    0.029114
  25 C :   -0.038249
  26 H :    0.014175
  27 H :    0.022178
  28 C :   -0.068669
  29 H :    0.026368
  30 H :    0.032907
  31 H :    0.033779
  32 H :    0.017119
  33 H :    0.029848

  Mayer bond orders larger than 0.100000
B(  0-S ,  1-C ) :   1.1410 B(  0-S ,  4-C ) :   1.1579 B(  1-C ,  2-C ) :   1.6305
B(  1-C , 32-H ) :   0.9661 B(  2-C ,  3-C ) :   1.2509 B(  2-C ,  6-C ) :   1.0054
B(  3-C ,  4-C ) :   1.5532 B(  3-C ,  5-H ) :   0.9957 B(  4-C , 20-C ) :   1.0446
B(  6-C ,  7-H ) :   0.9413 B(  6-C ,  8-H ) :   0.9260 B(  6-C ,  9-C ) :   1.0794
B(  9-C , 10-H ) :   0.9608 B(  9-C , 11-H ) :   0.9459 B(  9-C , 12-C ) :   1.0829
B( 12-C , 13-H ) :   0.9737 B( 12-C , 14-H ) :   0.9769 B( 12-C , 15-H ) :   0.9752
B( 16-S , 17-C ) :   1.1848 B( 16-S , 20-C ) :   1.1533 B( 17-C , 18-C ) :   1.5506
B( 17-C , 20-C ) :   0.1018 B( 17-C , 33-H ) :   0.9758 B( 18-C , 19-C ) :   1.2479
B( 18-C , 21-H ) :   1.0057 B( 19-C , 20-C ) :   1.5717 B( 19-C , 22-C ) :   1.0438
B( 22-C , 23-H ) :   0.9321 B( 22-C , 24-H ) :   0.9278 B( 22-C , 25-C ) :   1.0540
B( 25-C , 26-H ) :   0.9521 B( 25-C , 27-H ) :   0.9568 B( 25-C , 28-C ) :   1.0928
B( 28-C , 29-H ) :   0.9731 B( 28-C , 30-H ) :   0.9735 B( 28-C , 31-H ) :   0.9737

Dispersion correction           -0.014202260
FINAL SINGLE POINT ENERGY     -1339.874662896842

DIPOLE MOMENT
-------------
                                X             Y             Z
Electronic contribution:    -18.12212      -6.66341     -27.24416
Nuclear contribution   :     18.52471       6.73569      27.84185
                        -----------------------------------------
Total Dipole Moment    :      0.40259       0.07228       0.59769
                        -----------------------------------------
Magnitude (a.u.)       :      0.72425
Magnitude (Debye)      :      1.84090

Rotational constants in cm-1:     0.016371     0.009972     0.006751
Rotational constants in MHz :   490.781209   298.963289   202.387920

                             ****ORCA TERMINATED NORMALLY****
TOTAL RUN TIME: 0 days 0 hours 0 minutes 31 seconds 558 msec
