                         Program Version 4.2.1 -  RELEASE  -
|  1> ! wB97X-D3 SP def2-SVP
|  2> %pal
|  3> nprocs 16
|  4> end
|  5>
|  6> * xyz 0 1
|  7> S 	 -116.336 	 50.9281 	 130.648
|  8> C 	 -117.529 	 50.9951 	 129.355
|  9> C 	 -118.735 	 51.4155 	 129.886
| 10> C 	 -118.636 	 51.9457 	 131.191
| 11> C 	 -117.304 	 51.889 	 131.654
| 12> H 	 -119.442 	 52.3091 	 131.839
| 13> C 	 -120.036 	 51.3854 	 129.082
| 14> H 	 -119.89 	 52.0451 	 128.186
| 15> H 	 -120.875 	 51.9625 	 129.558
| 16> C 	 -120.404 	 49.9659 	 128.646
| 17> H 	 -121.235 	 50.1249 	 127.994
| 18> H 	 -119.634 	 49.5412 	 128.032
| 19> C 	 -120.637 	 48.9914 	 129.859
| 20> H 	 -121.505 	 49.3446 	 130.415
| 21> H 	 -120.894 	 47.9942 	 129.551
| 22> H 	 -119.69 	 48.9455 	 130.484
| 23> S 	 -116.596 	 50.7697 	 134.049
| 24> C 	 -116.152 	 51.806 	 135.357
| 25> C 	 -116.211 	 53.151 	 134.996
| 26> C 	 -116.572 	 53.3158 	 133.68
| 27> C 	 -116.799 	 52.0967 	 132.982
| 28> H 	 -115.946 	 53.9352 	 135.707
| 29> C 	 -116.559 	 54.7394 	 133.086
| 30> H 	 -117.57 	 54.6474 	 132.793
| 31> H 	 -115.993 	 54.7134 	 132.171
| 32> C 	 -116.321 	 55.9437 	 133.963
| 33> H 	 -115.341 	 55.9931 	 134.368
| 34> H 	 -117.091 	 55.935 	 134.818
| 35> C 	 -116.469 	 57.2036 	 133.186
| 36> H 	 -116.498 	 58.1856 	 133.725
| 37> H 	 -117.371 	 57.1079 	 132.523
| 38> H 	 -115.762 	 57.3158 	 132.417
| 39> H 	 -117.471 	 50.6978 	 128.304
| 40> H 	 -115.717 	 51.4445 	 136.339
| 41> *
| 42>
| 43>                          ****END OF INPUT****

CARTESIAN COORDINATES (ANGSTROEM)
---------------------------------
  S    -116.336000   50.928100  130.648000
  C    -117.529000   50.995100  129.355000
  C    -118.735000   51.415500  129.886000
  C    -118.636000   51.945700  131.191000
  C    -117.304000   51.889000  131.654000
  H    -119.442000   52.309100  131.839000
  C    -120.036000   51.385400  129.082000
  H    -119.890000   52.045100  128.186000
  H    -120.875000   51.962500  129.558000
  C    -120.404000   49.965900  128.646000
  H    -121.235000   50.124900  127.994000
  H    -119.634000   49.541200  128.032000
  C    -120.637000   48.991400  129.859000
  H    -121.505000   49.344600  130.415000
  H    -120.894000   47.994200  129.551000
  H    -119.690000   48.945500  130.484000
  S    -116.596000   50.769700  134.049000
  C    -116.152000   51.806000  135.357000
  C    -116.211000   53.151000  134.996000
  C    -116.572000   53.315800  133.680000
  C    -116.799000   52.096700  132.982000
  H    -115.946000   53.935200  135.707000
  C    -116.559000   54.739400  133.086000
  H    -117.570000   54.647400  132.793000
  H    -115.993000   54.713400  132.171000
  C    -116.321000   55.943700  133.963000
  H    -115.341000   55.993100  134.368000
  H    -117.091000   55.935000  134.818000
  C    -116.469000   57.203600  133.186000
  H    -116.498000   58.185600  133.725000
  H    -117.371000   57.107900  132.523000
  H    -115.762000   57.315800  132.417000
  H    -117.471000   50.697800  128.304000
  H    -115.717000   51.444500  136.339000

 Total Charge           Charge          ....    0
 Multiplicity           Mult            ....    1
 Number of Electrons    NEL             ....  134
 Basis Dimension        Dim             ....  322

ORBITAL ENERGIES
----------------

  NO   OCC          E(Eh)            E(eV)
   0   2.0000     -88.967373     -2420.9253
   1   2.0000     -88.966934     -2420.9133
   2   2.0000     -10.324078      -280.9325
   3   2.0000     -10.317745      -280.7601
   4   2.0000     -10.316550      -280.7276
   5   2.0000     -10.312241      -280.6104
   6   2.0000     -10.298948      -280.2486
   7   2.0000     -10.298893      -280.2471
   8   2.0000     -10.296926      -280.1936
   9   2.0000     -10.296631      -280.1856
  10   2.0000     -10.289822      -280.0003
  11   2.0000     -10.285760      -279.8898
  12   2.0000     -10.284685      -279.8605
  13   2.0000     -10.283156      -279.8189
  14   2.0000     -10.279949      -279.7316
  15   2.0000     -10.275898      -279.6214
  16   2.0000      -8.082662      -219.9404
  17   2.0000      -8.082314      -219.9309
  18   2.0000      -6.040975      -164.3833
  19   2.0000      -6.040707      -164.3760
  20   2.0000      -6.036918      -164.2729
  21   2.0000      -6.036660      -164.2659
  22   2.0000      -6.033782      -164.1875
  23   2.0000      -6.033223      -164.1723
  24   2.0000      -1.013742       -27.5853
  25   2.0000      -0.988534       -26.8994
  26   2.0000      -0.917888       -24.9770
  27   2.0000      -0.910752       -24.7828
  28   2.0000      -0.866288       -23.5729
  29   2.0000      -0.856637       -23.3103
  30   2.0000      -0.843157       -22.9435
  31   2.0000      -0.808861       -22.0102
  32   2.0000      -0.783259       -21.3136
  33   2.0000      -0.768245       -20.9050
  34   2.0000      -0.708667       -19.2838
  35   2.0000      -0.703052       -19.1310
  36   2.0000      -0.696523       -18.9533
  37   2.0000      -0.649998       -17.6873
  38   2.0000      -0.635845       -17.3022
  39   2.0000      -0.611416       -16.6375
  40   2.0000      -0.594443       -16.1756
  41   2.0000      -0.575579       -15.6623
  42   2.0000      -0.574280       -15.6269
  43   2.0000      -0.547473       -14.8975
  44   2.0000      -0.540892       -14.7184
  45   2.0000      -0.528123       -14.3709
  46   2.0000      -0.513490       -13.9728
  47   2.0000      -0.509228       -13.8568
  48   2.0000      -0.504881       -13.7385
  49   2.0000      -0.493023       -13.4158
  50   2.0000      -0.486592       -13.2408
  51   2.0000      -0.479569       -13.0497
  52   2.0000      -0.470701       -12.8084
  53   2.0000      -0.466058       -12.6821
  54   2.0000      -0.458733       -12.4828
  55   2.0000      -0.446763       -12.1571
  56   2.0000      -0.443609       -12.0712
  57   2.0000      -0.442023       -12.0281
  58   2.0000      -0.432320       -11.7640
  59   2.0000      -0.422876       -11.5070
  60   2.0000      -0.419437       -11.4135
  61   2.0000      -0.415177       -11.2975
  62   2.0000      -0.410959       -11.1828
  63   2.0000      -0.339677        -9.2431
  64   2.0000      -0.329763        -8.9733
  65   2.0000      -0.323741        -8.8094
  66   2.0000      -0.290843        -7.9142
  67   0.0000       0.033456         0.9104
  68   0.0000       0.054830         1.4920
  69   0.0000       0.112138         3.0514
  70   0.0000       0.131337         3.5738
  71   0.0000       0.136269         3.7081

MULLIKEN ATOMIC CHARGES
-----------------------
   0 S :    0.119559
   1 C :   -0.114464
   2 C :   -0.097475
   3 C :    0.043405
   4 C :   -0.189023
   5 H :    0.023918
   6 C :    0.013606
   7 H :    0.039578
   8 H :    0.027800
   9 C :   -0.046674
  10 H :    0.020306
  11 H :    0.019805
  12 C :   -0.060534
  13 H :    0.030291
  14 H :    0.030112
  15 H :    0.063256
  16 S :    0.139810
  17 C :   -0.118566
  18 C :   -0.060105
  19 C :   -0.046721
  20 C :   -0.183072
  21 H :    0.025065
  22 C :    0.089427
  23 H :    0.016628
  24 H :    0.035944
  25 C :   -0.056122
  26 H :    0.030459
  27 H :    0.041917
  28 C :   -0.033276
  29 H :    0.046527
  30 H :    0.014387
  31 H :    0.009928
  32 H :    0.050163
  33 H :    0.074141
Sum of atomic charges:   -0.0000000

LOEWDIN ATOMIC CHARGES
----------------------
   0 S :    0.438833
   1 C :   -0.205544
   2 C :   -0.065645
   3 C :   -0.062093
   4 C :   -0.215190
   5 H :    0.036921
   6 C :   -0.041501
   7 H :    0.037873
   8 H :    0.031794
   9 C :   -0.037159
  10 H :    0.020030
  11 H :    0.018005
  12 C :   -0.065641
  13 H :    0.023977
  14 H :    0.021421
  15 H :    0.038817
  16 S :    0.444917
  17 C :   -0.208368
  18 C :   -0.083398
  19 C :   -0.048653
  20 C :   -0.244461
  21 H :    0.035539
  22 C :   -0.031749
  23 H :    0.034931
  24 H :    0.033314
  25 C :   -0.045590
  26 H :    0.020982
  27 H :    0.035672
  28 C :   -0.070001
  29 H :    0.033026
  30 H :    0.028820
  31 H :    0.016984
  32 H :    0.032620
  33 H :    0.040517

  Mayer bond orders larger than 0.100000
B(  0-S ,  1-C ) :   1.1443 B(  0-S ,  4-C ) :   1.1902 B(  1-C ,  2-C ) :   1.5759
B(  1-C ,  4-C ) :   0.1108 B(  1-C , 32-H ) :   0.9697 B(  2-C ,  3-C ) :   1.2711
B(  2-C ,  6-C ) :   1.0083 B(  3-C ,  4-C ) :   1.5195 B(  3-C ,  5-H ) :   0.9985
B(  4-C , 20-C ) :   1.0188 B(  6-C ,  7-H ) :   0.9410 B(  6-C ,  8-H ) :   0.9507
B(  6-C ,  9-C ) :   1.0681 B(  9-C , 10-H ) :   0.9561 B(  9-C , 11-H ) :   0.9576
B(  9-C , 12-C ) :   1.0635 B( 12-C , 13-H ) :   0.9779 B( 12-C , 14-H ) :   0.9766
B( 12-C , 15-H ) :   0.9721 B( 16-S , 17-C ) :   1.1955 B( 16-S , 20-C ) :   1.1693
B( 17-C , 18-C ) :   1.5271 B( 17-C , 20-C ) :   0.1191 B( 17-C , 33-H ) :   0.9551
B( 18-C , 19-C ) :   1.3395 B( 18-C , 21-H ) :   0.9841 B( 19-C , 20-C ) :   1.5365
B( 19-C , 22-C ) :   0.9775 B( 22-C , 23-H ) :   0.9114 B( 22-C , 24-H ) :   0.9389
B( 22-C , 25-C ) :   1.0943 B( 25-C , 26-H ) :   0.9450 B( 25-C , 27-H ) :   0.9430
B( 25-C , 28-C ) :   1.0884 B( 28-C , 29-H ) :   0.9718 B( 28-C , 30-H ) :   0.9676
B( 28-C , 31-H ) :   0.9684

Dispersion correction           -0.014047406
FINAL SINGLE POINT ENERGY     -1339.857127461463

DIPOLE MOMENT
-------------
                                X             Y             Z
Electronic contribution:     12.72443     -13.31496       6.41542
Nuclear contribution   :    -13.05050      13.64060      -6.55063
                        -----------------------------------------
Total Dipole Moment    :     -0.32607       0.32565      -0.13521
                        -----------------------------------------
Magnitude (a.u.)       :      0.48026
Magnitude (Debye)      :      1.22072

Rotational constants in cm-1:     0.021133     0.007661     0.006462
Rotational constants in MHz :   633.562583   229.659459   193.738956

                             ****ORCA TERMINATED NORMALLY****
TOTAL RUN TIME: 0 days 0 hours 0 minutes 33 seconds 205 msec
