                         Program Version 4.2.1 -  RELEASE  -
|  1> ! wB97X-D3 SP def2-SVP
|  2> %pal
|  3> nprocs 16
|  4> end
|  5>
|  6> * xyz 0 1
|  7> S 	 -5.72165 	 65.0831 	 52.4584
|  8> C 	 -4.47114 	 64.0971 	 51.6761
|  9> C 	 -3.20749 	 64.4422 	 52.1602
| 10> C 	 -3.29724 	 65.5067 	 53.1912
| 11> C 	 -4.56649 	 66.0559 	 53.3019
| 12> H 	 -2.50094 	 66.0031 	 53.7087
| 13> C 	 -1.82936 	 63.9018 	 51.8748
| 14> H 	 -1.14379 	 64.1232 	 52.7088
| 15> H 	 -1.44095 	 64.4662 	 51.0705
| 16> C 	 -1.74271 	 62.3735 	 51.7281
| 17> H 	 -2.28007 	 61.9107 	 50.8947
| 18> H 	 -0.735245 	 62.0774 	 51.567
| 19> C 	 -2.26316 	 61.7004 	 53.0557
| 20> H 	 -3.38816 	 61.8015 	 53.2042
| 21> H 	 -2.0421 	 60.6816 	 52.9289
| 22> H 	 -1.71974 	 62.0711 	 53.9173
| 23> S 	 -3.94809 	 68.7219 	 53.8546
| 24> C 	 -4.98944 	 69.6207 	 54.895
| 25> C 	 -5.99952 	 68.8757 	 55.4414
| 26> C 	 -5.93499 	 67.5243 	 54.9432
| 27> C 	 -4.8643 	 67.2665 	 54.1366
| 28> H 	 -6.7518 	 69.3352 	 56.1506
| 29> C 	 -7.19339 	 66.6064 	 55.2353
| 30> H 	 -6.7286 	 65.6936 	 55.6697
| 31> H 	 -7.56369 	 66.2236 	 54.2791
| 32> C 	 -8.32156 	 67.3279 	 56.0801
| 33> H 	 -8.64138 	 68.1408 	 55.512
| 34> H 	 -7.93729 	 67.6077 	 57.0633
| 35> C 	 -9.57161 	 66.468 	 56.2032
| 36> H 	 -10.1712 	 67.1079 	 56.8637
| 37> H 	 -9.4155 	 65.4882 	 56.7345
| 38> H 	 -10.0705 	 66.2979 	 55.1973
| 39> H 	 -4.62233 	 63.237 	 51.0894
| 40> H 	 -4.83641 	 70.7293 	 54.9763
| 41> *
| 42>
| 43>                          ****END OF INPUT****

CARTESIAN COORDINATES (ANGSTROEM)
---------------------------------
  S     -5.721650   65.083100   52.458400
  C     -4.471140   64.097100   51.676100
  C     -3.207490   64.442200   52.160200
  C     -3.297240   65.506700   53.191200
  C     -4.566490   66.055900   53.301900
  H     -2.500940   66.003100   53.708700
  C     -1.829360   63.901800   51.874800
  H     -1.143790   64.123200   52.708800
  H     -1.440950   64.466200   51.070500
  C     -1.742710   62.373500   51.728100
  H     -2.280070   61.910700   50.894700
  H     -0.735245   62.077400   51.567000
  C     -2.263160   61.700400   53.055700
  H     -3.388160   61.801500   53.204200
  H     -2.042100   60.681600   52.928900
  H     -1.719740   62.071100   53.917300
  S     -3.948090   68.721900   53.854600
  C     -4.989440   69.620700   54.895000
  C     -5.999520   68.875700   55.441400
  C     -5.934990   67.524300   54.943200
  C     -4.864300   67.266500   54.136600
  H     -6.751800   69.335200   56.150600
  C     -7.193390   66.606400   55.235300
  H     -6.728600   65.693600   55.669700
  H     -7.563690   66.223600   54.279100
  C     -8.321560   67.327900   56.080100
  H     -8.641380   68.140800   55.512000
  H     -7.937290   67.607700   57.063300
  C     -9.571610   66.468000   56.203200
  H    -10.171200   67.107900   56.863700
  H     -9.415500   65.488200   56.734500
  H    -10.070500   66.297900   55.197300
  H     -4.622330   63.237000   51.089400
  H     -4.836410   70.729300   54.976300

 Total Charge           Charge          ....    0
 Multiplicity           Mult            ....    1
 Number of Electrons    NEL             ....  134
 Basis Dimension        Dim             ....  322

ORBITAL ENERGIES
----------------

  NO   OCC          E(Eh)            E(eV)
   0   2.0000     -88.966479     -2420.9010
   1   2.0000     -88.964288     -2420.8413
   2   2.0000     -10.329957      -281.0924
   3   2.0000     -10.323633      -280.9203
   4   2.0000     -10.318576      -280.7827
   5   2.0000     -10.313819      -280.6533
   6   2.0000     -10.306730      -280.4604
   7   2.0000     -10.303194      -280.3642
   8   2.0000     -10.297656      -280.2135
   9   2.0000     -10.296917      -280.1934
  10   2.0000     -10.290559      -280.0204
  11   2.0000     -10.290013      -280.0055
  12   2.0000     -10.289426      -279.9895
  13   2.0000     -10.286784      -279.9176
  14   2.0000     -10.286780      -279.9175
  15   2.0000     -10.275489      -279.6103
  16   2.0000      -8.080508      -219.8818
  17   2.0000      -8.079749      -219.8612
  18   2.0000      -6.039186      -164.3346
  19   2.0000      -6.038200      -164.3078
  20   2.0000      -6.035122      -164.2240
  21   2.0000      -6.034187      -164.1986
  22   2.0000      -6.031146      -164.1158
  23   2.0000      -6.030499      -164.0982
  24   2.0000      -1.004772       -27.3412
  25   2.0000      -0.981306       -26.7027
  26   2.0000      -0.909918       -24.7601
  27   2.0000      -0.903984       -24.5987
  28   2.0000      -0.862999       -23.4834
  29   2.0000      -0.850595       -23.1459
  30   2.0000      -0.839891       -22.8546
  31   2.0000      -0.809613       -22.0307
  32   2.0000      -0.779821       -21.2200
  33   2.0000      -0.771005       -20.9801
  34   2.0000      -0.708527       -19.2800
  35   2.0000      -0.700819       -19.0702
  36   2.0000      -0.688043       -18.7226
  37   2.0000      -0.652119       -17.7451
  38   2.0000      -0.635156       -17.2835
  39   2.0000      -0.604459       -16.4482
  40   2.0000      -0.591524       -16.0962
  41   2.0000      -0.575452       -15.6589
  42   2.0000      -0.571343       -15.5470
  43   2.0000      -0.560446       -15.2505
  44   2.0000      -0.536078       -14.5874
  45   2.0000      -0.528489       -14.3809
  46   2.0000      -0.513159       -13.9638
  47   2.0000      -0.507632       -13.8134
  48   2.0000      -0.501923       -13.6580
  49   2.0000      -0.488810       -13.3012
  50   2.0000      -0.479069       -13.0361
  51   2.0000      -0.474617       -12.9150
  52   2.0000      -0.469217       -12.7680
  53   2.0000      -0.468639       -12.7523
  54   2.0000      -0.459055       -12.4915
  55   2.0000      -0.453476       -12.3397
  56   2.0000      -0.439958       -11.9719
  57   2.0000      -0.436006       -11.8643
  58   2.0000      -0.430458       -11.7134
  59   2.0000      -0.425191       -11.5700
  60   2.0000      -0.421084       -11.4583
  61   2.0000      -0.417510       -11.3610
  62   2.0000      -0.408160       -11.1066
  63   2.0000      -0.347253        -9.4492
  64   2.0000      -0.329785        -8.9739
  65   2.0000      -0.323758        -8.8099
  66   2.0000      -0.294505        -8.0139
  67   0.0000       0.035497         0.9659
  68   0.0000       0.074721         2.0333
  69   0.0000       0.107539         2.9263
  70   0.0000       0.119757         3.2588
  71   0.0000       0.128788         3.5045

MULLIKEN ATOMIC CHARGES
-----------------------
   0 S :    0.094641
   1 C :   -0.098591
   2 C :   -0.100091
   3 C :    0.000742
   4 C :   -0.128812
   5 H :    0.009603
   6 C :    0.089824
   7 H :    0.027174
   8 H :    0.036685
   9 C :   -0.080013
  10 H :    0.028073
  11 H :    0.019841
  12 C :   -0.064770
  13 H :    0.056728
  14 H :    0.022101
  15 H :    0.031078
  16 S :    0.109207
  17 C :   -0.111393
  18 C :   -0.060379
  19 C :   -0.075257
  20 C :   -0.140957
  21 H :    0.049681
  22 C :    0.044901
  23 H :    0.039413
  24 H :    0.028972
  25 C :   -0.082832
  26 H :    0.030282
  27 H :    0.044544
  28 C :   -0.055928
  29 H :    0.032958
  30 H :    0.043650
  31 H :    0.050597
  32 H :    0.033754
  33 H :    0.074575
Sum of atomic charges:   -0.0000000

LOEWDIN ATOMIC CHARGES
----------------------
   0 S :    0.404789
   1 C :   -0.195159
   2 C :   -0.046970
   3 C :   -0.070982
   4 C :   -0.192260
   5 H :    0.024136
   6 C :   -0.032494
   7 H :    0.035874
   8 H :    0.029992
   9 C :   -0.038133
  10 H :    0.021067
  11 H :    0.019747
  12 C :   -0.062930
  13 H :    0.035313
  14 H :    0.016658
  15 H :    0.022732
  16 S :    0.418921
  17 C :   -0.193204
  18 C :   -0.087598
  19 C :   -0.056903
  20 C :   -0.210457
  21 H :    0.046887
  22 C :   -0.036128
  23 H :    0.035663
  24 H :    0.021719
  25 C :   -0.037552
  26 H :    0.021175
  27 H :    0.026697
  28 C :   -0.068276
  29 H :    0.028182
  30 H :    0.028766
  31 H :    0.033701
  32 H :    0.020146
  33 H :    0.036879

  Mayer bond orders larger than 0.100000
B(  0-S ,  1-C ) :   1.1127 B(  0-S ,  4-C ) :   1.1463 B(  1-C ,  2-C ) :   1.6311
B(  1-C , 32-H ) :   0.9748 B(  2-C ,  3-C ) :   1.2143 B(  2-C ,  6-C ) :   1.0105
B(  3-C ,  4-C ) :   1.5905 B(  3-C ,  5-H ) :   0.9923 B(  4-C , 20-C ) :   1.0227
B(  6-C ,  7-H ) :   0.9477 B(  6-C ,  8-H ) :   0.9319 B(  6-C ,  9-C ) :   1.0722
B(  9-C , 10-H ) :   0.9563 B(  9-C , 11-H ) :   0.9572 B(  9-C , 12-C ) :   1.0721
B( 12-C , 13-H ) :   0.9733 B( 12-C , 14-H ) :   0.9753 B( 12-C , 15-H ) :   0.9780
B( 16-S , 17-C ) :   1.1743 B( 16-S , 20-C ) :   1.1340 B( 17-C , 18-C ) :   1.5955
B( 17-C , 33-H ) :   0.9553 B( 18-C , 19-C ) :   1.2472 B( 18-C , 21-H ) :   0.9757
B( 19-C , 20-C ) :   1.6329 B( 19-C , 22-C ) :   1.0000 B( 22-C , 23-H ) :   0.9321
B( 22-C , 24-H ) :   0.9401 B( 22-C , 25-C ) :   1.0813 B( 25-C , 26-H ) :   0.9451
B( 25-C , 27-H ) :   0.9503 B( 25-C , 28-C ) :   1.0825 B( 28-C , 29-H ) :   0.9729
B( 28-C , 30-H ) :   0.9747 B( 28-C , 31-H ) :   0.9731

Dispersion correction           -0.013920306
FINAL SINGLE POINT ENERGY     -1339.868726081789

DIPOLE MOMENT
-------------
                                X             Y             Z
Electronic contribution:      3.85704      15.12056      -6.51802
Nuclear contribution   :     -3.86369     -15.19888       6.69732
                        -----------------------------------------
Total Dipole Moment    :     -0.00664      -0.07832       0.17930
                        -----------------------------------------
Magnitude (a.u.)       :      0.19577
Magnitude (Debye)      :      0.49761

Rotational constants in cm-1:     0.022056     0.007387     0.006029
Rotational constants in MHz :   661.236189   221.452752   180.734943

                             ****ORCA TERMINATED NORMALLY****
TOTAL RUN TIME: 0 days 0 hours 0 minutes 32 seconds 572 msec
