                         Program Version 4.2.1 -  RELEASE  -
|  1> ! wB97X-D3 SP def2-SVP
|  2> %pal
|  3> nprocs 16
|  4> end
|  5>
|  6> * xyz 0 1
|  7> S 	 -2.30373 	 -11.7075 	 82.0955
|  8> C 	 -2.20936 	 -12.9609 	 83.29
|  9> C 	 -2.00692 	 -14.1922 	 82.7141
| 10> C 	 -1.86695 	 -14.0983 	 81.2722
| 11> C 	 -2.08857 	 -12.8004 	 80.7914
| 12> H 	 -1.64472 	 -14.9054 	 80.5893
| 13> C 	 -2.06148 	 -15.5109 	 83.5411
| 14> H 	 -2.94282 	 -15.4379 	 84.2312
| 15> H 	 -1.17676 	 -15.5221 	 84.0912
| 16> C 	 -2.10356 	 -16.8205 	 82.7526
| 17> H 	 -3.01986 	 -16.8008 	 82.1749
| 18> H 	 -1.31796 	 -16.9606 	 81.9274
| 19> C 	 -1.85295 	 -18.0833 	 83.6258
| 20> H 	 -0.897057 	 -18.1066 	 84.1677
| 21> H 	 -2.60037 	 -18.1614 	 84.4441
| 22> H 	 -1.95675 	 -19.0003 	 83.0134
| 23> S 	 -1.08917 	 -12.9948 	 78.2422
| 24> C 	 -1.92986 	 -12.3167 	 76.8712
| 25> C 	 -3.01026 	 -11.5336 	 77.2391
| 26> C 	 -3.18952 	 -11.6371 	 78.672
| 27> C 	 -2.32822 	 -12.4292 	 79.384
| 28> H 	 -3.5062 	 -10.9433 	 76.4329
| 29> C 	 -4.32839 	 -10.8691 	 79.3034
| 30> H 	 -4.638 	 -11.2733 	 80.2452
| 31> H 	 -5.2637 	 -10.7809 	 78.6763
| 32> C 	 -4.0322 	 -9.43299 	 79.7077
| 33> H 	 -3.63769 	 -8.83255 	 78.8807
| 34> H 	 -3.25672 	 -9.35319 	 80.4853
| 35> C 	 -5.30985 	 -8.74019 	 80.2313
| 36> H 	 -5.88665 	 -8.4281 	 79.3963
| 37> H 	 -5.0696 	 -7.82662 	 80.7881
| 38> H 	 -5.86165 	 -9.44109 	 80.8671
| 39> H 	 -2.37429 	 -12.7332 	 84.3732
| 40> H 	 -1.68629 	 -12.3171 	 75.8231
| 41> *
| 42>
| 43>                          ****END OF INPUT****

CARTESIAN COORDINATES (ANGSTROEM)
---------------------------------
  S     -2.303730  -11.707500   82.095500
  C     -2.209360  -12.960900   83.290000
  C     -2.006920  -14.192200   82.714100
  C     -1.866950  -14.098300   81.272200
  C     -2.088570  -12.800400   80.791400
  H     -1.644720  -14.905400   80.589300
  C     -2.061480  -15.510900   83.541100
  H     -2.942820  -15.437900   84.231200
  H     -1.176760  -15.522100   84.091200
  C     -2.103560  -16.820500   82.752600
  H     -3.019860  -16.800800   82.174900
  H     -1.317960  -16.960600   81.927400
  C     -1.852950  -18.083300   83.625800
  H     -0.897057  -18.106600   84.167700
  H     -2.600370  -18.161400   84.444100
  H     -1.956750  -19.000300   83.013400
  S     -1.089170  -12.994800   78.242200
  C     -1.929860  -12.316700   76.871200
  C     -3.010260  -11.533600   77.239100
  C     -3.189520  -11.637100   78.672000
  C     -2.328220  -12.429200   79.384000
  H     -3.506200  -10.943300   76.432900
  C     -4.328390  -10.869100   79.303400
  H     -4.638000  -11.273300   80.245200
  H     -5.263700  -10.780900   78.676300
  C     -4.032200   -9.432990   79.707700
  H     -3.637690   -8.832550   78.880700
  H     -3.256720   -9.353190   80.485300
  C     -5.309850   -8.740190   80.231300
  H     -5.886650   -8.428100   79.396300
  H     -5.069600   -7.826620   80.788100
  H     -5.861650   -9.441090   80.867100
  H     -2.374290  -12.733200   84.373200
  H     -1.686290  -12.317100   75.823100

 Total Charge           Charge          ....    0
 Multiplicity           Mult            ....    1
 Number of Electrons    NEL             ....  134
 Basis Dimension        Dim             ....  322

ORBITAL ENERGIES
----------------

  NO   OCC          E(Eh)            E(eV)
   0   2.0000     -88.969201     -2420.9750
   1   2.0000     -88.963657     -2420.8242
   2   2.0000     -10.334433      -281.2142
   3   2.0000     -10.331095      -281.1234
   4   2.0000     -10.316837      -280.7354
   5   2.0000     -10.316245      -280.7193
   6   2.0000     -10.308224      -280.5010
   7   2.0000     -10.306159      -280.4448
   8   2.0000     -10.300335      -280.2864
   9   2.0000     -10.298716      -280.2423
  10   2.0000     -10.296426      -280.1800
  11   2.0000     -10.295334      -280.1503
  12   2.0000     -10.287136      -279.9272
  13   2.0000     -10.285351      -279.8786
  14   2.0000     -10.279150      -279.7099
  15   2.0000     -10.272300      -279.5235
  16   2.0000      -8.084260      -219.9839
  17   2.0000      -8.078042      -219.8147
  18   2.0000      -6.042735      -164.4312
  19   2.0000      -6.038503      -164.3160
  20   2.0000      -6.036719      -164.2675
  21   2.0000      -6.035272      -164.2281
  22   2.0000      -6.032626      -164.1561
  23   2.0000      -6.028604      -164.0467
  24   2.0000      -1.008424       -27.4406
  25   2.0000      -0.985907       -26.8279
  26   2.0000      -0.909424       -24.7467
  27   2.0000      -0.907025       -24.6814
  28   2.0000      -0.871077       -23.7032
  29   2.0000      -0.848449       -23.0875
  30   2.0000      -0.842602       -22.9284
  31   2.0000      -0.816676       -22.2229
  32   2.0000      -0.781707       -21.2713
  33   2.0000      -0.768528       -20.9127
  34   2.0000      -0.711630       -19.3644
  35   2.0000      -0.691181       -18.8080
  36   2.0000      -0.684864       -18.6361
  37   2.0000      -0.665444       -18.1076
  38   2.0000      -0.639483       -17.4012
  39   2.0000      -0.616411       -16.7734
  40   2.0000      -0.597272       -16.2526
  41   2.0000      -0.572217       -15.5708
  42   2.0000      -0.567615       -15.4456
  43   2.0000      -0.562221       -15.2988
  44   2.0000      -0.525272       -14.2934
  45   2.0000      -0.517898       -14.0927
  46   2.0000      -0.516461       -14.0536
  47   2.0000      -0.508783       -13.8447
  48   2.0000      -0.504419       -13.7259
  49   2.0000      -0.497387       -13.5346
  50   2.0000      -0.493559       -13.4304
  51   2.0000      -0.481755       -13.1092
  52   2.0000      -0.472238       -12.8502
  53   2.0000      -0.462929       -12.5969
  54   2.0000      -0.460004       -12.5173
  55   2.0000      -0.453753       -12.3473
  56   2.0000      -0.441517       -12.0143
  57   2.0000      -0.436761       -11.8849
  58   2.0000      -0.432063       -11.7570
  59   2.0000      -0.425556       -11.5800
  60   2.0000      -0.414342       -11.2748
  61   2.0000      -0.410484       -11.1699
  62   2.0000      -0.407235       -11.0814
  63   2.0000      -0.351573        -9.5668
  64   2.0000      -0.332569        -9.0497
  65   2.0000      -0.327487        -8.9114
  66   2.0000      -0.293944        -7.9986
  67   0.0000       0.028481         0.7750
  68   0.0000       0.077079         2.0974
  69   0.0000       0.110900         3.0177
  70   0.0000       0.117702         3.2028
  71   0.0000       0.132951         3.6178

MULLIKEN ATOMIC CHARGES
-----------------------
   0 S :    0.116885
   1 C :   -0.154424
   2 C :   -0.083732
   3 C :    0.016200
   4 C :   -0.124420
   5 H :    0.016055
   6 C :    0.097001
   7 H :    0.049498
   8 H :    0.022167
   9 C :   -0.128773
  10 H :    0.035520
  11 H :    0.043719
  12 C :   -0.058595
  13 H :    0.039991
  14 H :    0.025695
  15 H :    0.043217
  16 S :    0.089470
  17 C :   -0.074786
  18 C :   -0.055565
  19 C :   -0.030711
  20 C :   -0.113539
  21 H :    0.044183
  22 C :    0.022710
  23 H :    0.010527
  24 H :    0.029118
  25 C :   -0.089671
  26 H :    0.018306
  27 H :    0.024410
  28 C :   -0.038205
  29 H :    0.025983
  30 H :    0.034497
  31 H :    0.031193
  32 H :    0.068200
  33 H :    0.047874
Sum of atomic charges:   -0.0000000

LOEWDIN ATOMIC CHARGES
----------------------
   0 S :    0.441745
   1 C :   -0.212076
   2 C :   -0.060243
   3 C :   -0.062873
   4 C :   -0.208403
   5 H :    0.028723
   6 C :   -0.027120
   7 H :    0.041205
   8 H :    0.024073
   9 C :   -0.052218
  10 H :    0.023648
  11 H :    0.032105
  12 C :   -0.069636
  13 H :    0.027948
  14 H :    0.022807
  15 H :    0.031423
  16 S :    0.394881
  17 C :   -0.182758
  18 C :   -0.076773
  19 C :   -0.057995
  20 C :   -0.184152
  21 H :    0.045698
  22 C :   -0.041148
  23 H :    0.018980
  24 H :    0.034716
  25 C :   -0.043334
  26 H :    0.017997
  27 H :    0.013313
  28 C :   -0.061403
  29 H :    0.019257
  30 H :    0.028619
  31 H :    0.024455
  32 H :    0.038528
  33 H :    0.030014

  Mayer bond orders larger than 0.100000
B(  0-S ,  1-C ) :   1.1476 B(  0-S ,  4-C ) :   1.1726 B(  1-C ,  2-C ) :   1.6062
B(  1-C , 32-H ) :   0.9682 B(  2-C ,  3-C ) :   1.2701 B(  2-C ,  6-C ) :   0.9904
B(  3-C ,  4-C ) :   1.5275 B(  3-C ,  5-H ) :   0.9921 B(  4-C , 20-C ) :   1.0164
B(  6-C ,  7-H ) :   0.9475 B(  6-C ,  8-H ) :   0.9357 B(  6-C ,  9-C ) :   1.0756
B(  9-C , 10-H ) :   0.9559 B(  9-C , 11-H ) :   0.9523 B(  9-C , 12-C ) :   1.0728
B( 12-C , 13-H ) :   0.9754 B( 12-C , 14-H ) :   0.9754 B( 12-C , 15-H ) :   0.9751
B( 16-S , 17-C ) :   1.1542 B( 16-S , 20-C ) :   1.1064 B( 17-C , 18-C ) :   1.6390
B( 17-C , 33-H ) :   0.9627 B( 18-C , 19-C ) :   1.2029 B( 18-C , 21-H ) :   0.9875
B( 19-C , 20-C ) :   1.6424 B( 19-C , 22-C ) :   1.0496 B( 22-C , 23-H ) :   0.9319
B( 22-C , 24-H ) :   0.9448 B( 22-C , 25-C ) :   1.0603 B( 25-C , 26-H ) :   0.9548
B( 25-C , 27-H ) :   0.9530 B( 25-C , 28-C ) :   1.0794 B( 28-C , 29-H ) :   0.9760
B( 28-C , 30-H ) :   0.9738 B( 28-C , 31-H ) :   0.9741

Dispersion correction           -0.013798161
FINAL SINGLE POINT ENERGY     -1339.879973477351

DIPOLE MOMENT
-------------
                                X             Y             Z
Electronic contribution:     10.77644       5.61462      -9.46467
Nuclear contribution   :    -11.04717      -5.75590       9.61567
                        -----------------------------------------
Total Dipole Moment    :     -0.27073      -0.14128       0.15100
                        -----------------------------------------
Magnitude (a.u.)       :      0.34067
Magnitude (Debye)      :      0.86590

Rotational constants in cm-1:     0.020327     0.007790     0.006159
Rotational constants in MHz :   609.397269   233.537635   184.653760

                             ****ORCA TERMINATED NORMALLY****
TOTAL RUN TIME: 0 days 0 hours 0 minutes 34 seconds 686 msec
