                         Program Version 4.2.1 -  RELEASE  -
|  1> ! wB97X-D3 SP def2-SVP
|  2> %pal
|  3> nprocs 16
|  4> end
|  5>
|  6> * xyz 0 1
|  7> S 	 -16.2516 	 36.0119 	 36.4126
|  8> C 	 -15.4248 	 35.4747 	 34.9422
|  9> C 	 -14.2929 	 34.7768 	 35.2186
| 10> C 	 -14.1489 	 34.561 	 36.6312
| 11> C 	 -15.073 	 35.2136 	 37.3693
| 12> H 	 -13.3672 	 34.0261 	 37.147
| 13> C 	 -13.4028 	 34.0616 	 34.266
| 14> H 	 -12.4638 	 33.876 	 34.7211
| 15> H 	 -13.109 	 34.6583 	 33.4628
| 16> C 	 -13.9029 	 32.6926 	 33.8187
| 17> H 	 -14.7532 	 32.7865 	 33.1762
| 18> H 	 -13.1469 	 32.1946 	 33.0993
| 19> C 	 -14.2155 	 31.6936 	 34.9571
| 20> H 	 -14.9812 	 32.0538 	 35.6268
| 21> H 	 -14.4515 	 30.7197 	 34.5878
| 22> H 	 -13.3183 	 31.5169 	 35.4655
| 23> S 	 -14.4547 	 36.6884 	 39.4887
| 24> C 	 -14.6675 	 36.1291 	 41.0728
| 25> C 	 -15.0566 	 34.7699 	 41.1165
| 26> C 	 -15.2358 	 34.2609 	 39.7892
| 27> C 	 -15.0975 	 35.2344 	 38.8016
| 28> H 	 -15.0119 	 34.2493 	 42.052
| 29> C 	 -15.6784 	 32.8387 	 39.5724
| 30> H 	 -15.723 	 32.2518 	 40.4822
| 31> H 	 -14.9218 	 32.4223 	 38.8801
| 32> C 	 -17.0444 	 32.5754 	 38.9788
| 33> H 	 -16.9484 	 32.9166 	 37.8945
| 34> H 	 -17.7874 	 33.2225 	 39.5088
| 35> C 	 -17.6702 	 31.2052 	 38.8468
| 36> H 	 -18.6429 	 31.3133 	 38.3777
| 37> H 	 -17.712 	 30.7437 	 39.8876
| 38> H 	 -17.01 	 30.5943 	 38.2658
| 39> H 	 -15.7372 	 35.6618 	 33.9159
| 40> H 	 -14.3226 	 36.7586 	 41.8777
| 41> *
| 42>
| 43>                          ****END OF INPUT****

CARTESIAN COORDINATES (ANGSTROEM)
---------------------------------
  S    -16.251600   36.011900   36.412600
  C    -15.424800   35.474700   34.942200
  C    -14.292900   34.776800   35.218600
  C    -14.148900   34.561000   36.631200
  C    -15.073000   35.213600   37.369300
  H    -13.367200   34.026100   37.147000
  C    -13.402800   34.061600   34.266000
  H    -12.463800   33.876000   34.721100
  H    -13.109000   34.658300   33.462800
  C    -13.902900   32.692600   33.818700
  H    -14.753200   32.786500   33.176200
  H    -13.146900   32.194600   33.099300
  C    -14.215500   31.693600   34.957100
  H    -14.981200   32.053800   35.626800
  H    -14.451500   30.719700   34.587800
  H    -13.318300   31.516900   35.465500
  S    -14.454700   36.688400   39.488700
  C    -14.667500   36.129100   41.072800
  C    -15.056600   34.769900   41.116500
  C    -15.235800   34.260900   39.789200
  C    -15.097500   35.234400   38.801600
  H    -15.011900   34.249300   42.052000
  C    -15.678400   32.838700   39.572400
  H    -15.723000   32.251800   40.482200
  H    -14.921800   32.422300   38.880100
  C    -17.044400   32.575400   38.978800
  H    -16.948400   32.916600   37.894500
  H    -17.787400   33.222500   39.508800
  C    -17.670200   31.205200   38.846800
  H    -18.642900   31.313300   38.377700
  H    -17.712000   30.743700   39.887600
  H    -17.010000   30.594300   38.265800
  H    -15.737200   35.661800   33.915900
  H    -14.322600   36.758600   41.877700

 Total Charge           Charge          ....    0
 Multiplicity           Mult            ....    1
 Number of Electrons    NEL             ....  134
 Basis Dimension        Dim             ....  322

ORBITAL ENERGIES
----------------

  NO   OCC          E(Eh)            E(eV)
   0   2.0000     -88.966446     -2420.9001
   1   2.0000     -88.962852     -2420.8023
   2   2.0000     -10.319636      -280.8116
   3   2.0000     -10.319297      -280.8023
   4   2.0000     -10.314750      -280.6786
   5   2.0000     -10.313239      -280.6375
   6   2.0000     -10.306381      -280.4509
   7   2.0000     -10.296695      -280.1873
   8   2.0000     -10.295723      -280.1609
   9   2.0000     -10.290534      -280.0197
  10   2.0000     -10.288475      -279.9636
  11   2.0000     -10.287575      -279.9392
  12   2.0000     -10.282813      -279.8096
  13   2.0000     -10.282034      -279.7884
  14   2.0000     -10.279222      -279.7119
  15   2.0000     -10.270005      -279.4610
  16   2.0000      -8.081461      -219.9077
  17   2.0000      -8.079261      -219.8479
  18   2.0000      -6.039994      -164.3566
  19   2.0000      -6.037465      -164.2878
  20   2.0000      -6.035954      -164.2467
  21   2.0000      -6.033380      -164.1766
  22   2.0000      -6.032139      -164.1429
  23   2.0000      -6.030404      -164.0956
  24   2.0000      -1.014975       -27.6189
  25   2.0000      -0.989618       -26.9289
  26   2.0000      -0.917596       -24.9691
  27   2.0000      -0.910709       -24.7817
  28   2.0000      -0.871311       -23.7096
  29   2.0000      -0.854936       -23.2640
  30   2.0000      -0.847038       -23.0491
  31   2.0000      -0.814334       -22.1592
  32   2.0000      -0.791431       -21.5359
  33   2.0000      -0.777759       -21.1639
  34   2.0000      -0.705972       -19.2105
  35   2.0000      -0.700809       -19.0700
  36   2.0000      -0.678046       -18.4506
  37   2.0000      -0.667366       -18.1600
  38   2.0000      -0.645004       -17.5514
  39   2.0000      -0.616369       -16.7722
  40   2.0000      -0.596764       -16.2388
  41   2.0000      -0.575984       -15.6733
  42   2.0000      -0.570297       -15.5186
  43   2.0000      -0.554248       -15.0819
  44   2.0000      -0.544579       -14.8187
  45   2.0000      -0.526317       -14.3218
  46   2.0000      -0.515875       -14.0377
  47   2.0000      -0.512015       -13.9326
  48   2.0000      -0.506496       -13.7824
  49   2.0000      -0.495783       -13.4909
  50   2.0000      -0.494928       -13.4677
  51   2.0000      -0.487706       -13.2711
  52   2.0000      -0.474282       -12.9059
  53   2.0000      -0.463340       -12.6081
  54   2.0000      -0.462704       -12.5908
  55   2.0000      -0.447771       -12.1845
  56   2.0000      -0.447503       -12.1772
  57   2.0000      -0.441788       -12.0217
  58   2.0000      -0.436901       -11.8887
  59   2.0000      -0.424013       -11.5380
  60   2.0000      -0.415415       -11.3040
  61   2.0000      -0.410752       -11.1771
  62   2.0000      -0.397123       -10.8063
  63   2.0000      -0.337251        -9.1771
  64   2.0000      -0.330368        -8.9898
  65   2.0000      -0.327650        -8.9158
  66   2.0000      -0.304534        -8.2868
  67   0.0000       0.042789         1.1643
  68   0.0000       0.060954         1.6586
  69   0.0000       0.113475         3.0878
  70   0.0000       0.119987         3.2650
  71   0.0000       0.126068         3.4305

MULLIKEN ATOMIC CHARGES
-----------------------
   0 S :    0.126676
   1 C :   -0.122618
   2 C :   -0.084426
   3 C :    0.032609
   4 C :   -0.178097
   5 H :    0.009750
   6 C :    0.142201
   7 H :    0.000196
   8 H :    0.007445
   9 C :   -0.099742
  10 H :    0.017171
  11 H :    0.032157
  12 C :   -0.020082
  13 H :    0.053232
  14 H :    0.022096
  15 H :    0.007384
  16 S :    0.122905
  17 C :   -0.100029
  18 C :   -0.038494
  19 C :   -0.020070
  20 C :   -0.173071
  21 H :    0.020625
  22 C :    0.111490
  23 H :    0.004614
  24 H :    0.023291
  25 C :   -0.151538
  26 H :    0.036610
  27 H :    0.034502
  28 C :   -0.021021
  29 H :    0.049537
  30 H :    0.030481
  31 H :    0.021299
  32 H :    0.042993
  33 H :    0.059923
Sum of atomic charges:    0.0000000

LOEWDIN ATOMIC CHARGES
----------------------
   0 S :    0.413971
   1 C :   -0.186861
   2 C :   -0.062326
   3 C :   -0.057892
   4 C :   -0.216246
   5 H :    0.031267
   6 C :   -0.030280
   7 H :    0.027167
   8 H :    0.025688
   9 C :   -0.035691
  10 H :    0.013868
  11 H :    0.031090
  12 C :   -0.059037
  13 H :    0.026647
  14 H :    0.025276
  15 H :    0.016597
  16 S :    0.450801
  17 C :   -0.199564
  18 C :   -0.072960
  19 C :   -0.048797
  20 C :   -0.213753
  21 H :    0.031094
  22 C :   -0.037320
  23 H :    0.025488
  24 H :    0.033637
  25 C :   -0.055982
  26 H :    0.026462
  27 H :    0.025376
  28 C :   -0.061546
  29 H :    0.033579
  30 H :    0.027161
  31 H :    0.018593
  32 H :    0.030102
  33 H :    0.024391

  Mayer bond orders larger than 0.100000
B(  0-S ,  1-C ) :   1.1238 B(  0-S ,  4-C ) :   1.1479 B(  1-C ,  2-C ) :   1.6464
B(  1-C , 32-H ) :   0.9679 B(  2-C ,  3-C ) :   1.1969 B(  2-C ,  6-C ) :   1.0383
B(  3-C ,  4-C ) :   1.6201 B(  3-C ,  5-H ) :   0.9983 B(  4-C , 20-C ) :   1.0060
B(  6-C ,  7-H ) :   0.9283 B(  6-C ,  8-H ) :   0.9258 B(  6-C ,  9-C ) :   1.0714
B(  9-C , 10-H ) :   0.9581 B(  9-C , 11-H ) :   0.9551 B(  9-C , 12-C ) :   1.0795
B( 12-C , 13-H ) :   0.9709 B( 12-C , 14-H ) :   0.9691 B( 12-C , 15-H ) :   0.9719
B( 16-S , 17-C ) :   1.2087 B( 16-S , 20-C ) :   1.1748 B( 17-C , 18-C ) :   1.5440
B( 17-C , 20-C ) :   0.1087 B( 17-C , 33-H ) :   0.9696 B( 18-C , 19-C ) :   1.2684
B( 18-C , 21-H ) :   0.9984 B( 19-C , 20-C ) :   1.5588 B( 19-C , 22-C ) :   1.0596
B( 22-C , 23-H ) :   0.9322 B( 22-C , 24-H ) :   0.9176 B( 22-C , 25-C ) :   1.0700
B( 25-C , 26-H ) :   0.9475 B( 25-C , 27-H ) :   0.9549 B( 25-C , 28-C ) :   1.0962
B( 28-C , 29-H ) :   0.9701 B( 28-C , 30-H ) :   0.9702 B( 28-C , 31-H ) :   0.9727

Dispersion correction           -0.015624685
FINAL SINGLE POINT ENERGY     -1339.876395776376

DIPOLE MOMENT
-------------
                                X             Y             Z
Electronic contribution:      1.00872      26.76175       7.87931
Nuclear contribution   :     -0.68895     -27.28776      -7.99552
                        -----------------------------------------
Total Dipole Moment    :      0.31977      -0.52601      -0.11621
                        -----------------------------------------
Magnitude (a.u.)       :      0.62645
Magnitude (Debye)      :      1.59232

Rotational constants in cm-1:     0.017487     0.010216     0.007867
Rotational constants in MHz :   524.249301   306.261159   235.855679

                             ****ORCA TERMINATED NORMALLY****
TOTAL RUN TIME: 0 days 0 hours 0 minutes 36 seconds 205 msec
