                         Program Version 4.2.1 -  RELEASE  -
|  1> ! wB97X-D3 SP def2-SVP
|  2> %pal
|  3> nprocs 16
|  4> end
|  5>
|  6> * xyz 0 1
|  7> S 	 -55.5493 	 39.8174 	 107.575
|  8> C 	 -54.6502 	 39.6304 	 106.105
|  9> C 	 -53.5446 	 38.8941 	 106.331
| 10> C 	 -53.464 	 38.4409 	 107.687
| 11> C 	 -54.5112 	 38.8739 	 108.539
| 12> H 	 -52.6767 	 37.8105 	 108.127
| 13> C 	 -52.4767 	 38.5224 	 105.323
| 14> H 	 -51.5796 	 38.9865 	 105.574
| 15> H 	 -52.6671 	 38.9956 	 104.35
| 16> C 	 -52.2481 	 37.1189 	 104.935
| 17> H 	 -51.7965 	 36.5745 	 105.802
| 18> H 	 -53.2281 	 36.7407 	 104.744
| 19> C 	 -51.3697 	 36.9153 	 103.606
| 20> H 	 -51.9895 	 37.1324 	 102.674
| 21> H 	 -50.4286 	 37.4741 	 103.418
| 22> H 	 -50.9893 	 35.9086 	 103.661
| 23> S 	 -53.7603 	 39.2904 	 111.136
| 24> C 	 -54.3286 	 38.2528 	 112.415
| 25> C 	 -55.3134 	 37.4037 	 111.944
| 26> C 	 -55.5553 	 37.5274 	 110.547
| 27> C 	 -54.7266 	 38.4452 	 109.913
| 28> H 	 -55.8523 	 36.7336 	 112.593
| 29> C 	 -56.2612 	 36.507 	 109.732
| 30> H 	 -55.6418 	 35.5564 	 109.732
| 31> H 	 -56.2907 	 36.8221 	 108.728
| 32> C 	 -57.7205 	 36.1187 	 110.067
| 33> H 	 -58.3774 	 37.0357 	 109.998
| 34> H 	 -57.729 	 35.9052 	 111.085
| 35> C 	 -58.3262 	 34.9864 	 109.158
| 36> H 	 -59.3117 	 34.7633 	 109.489
| 37> H 	 -57.725 	 34.0765 	 109.222
| 38> H 	 -58.2933 	 35.2875 	 108.165
| 39> H 	 -54.9884 	 40.0125 	 105.151
| 40> H 	 -53.9419 	 38.3252 	 113.423
| 41> *
| 42>
| 43>                          ****END OF INPUT****

CARTESIAN COORDINATES (ANGSTROEM)
---------------------------------
  S    -55.549300   39.817400  107.575000
  C    -54.650200   39.630400  106.105000
  C    -53.544600   38.894100  106.331000
  C    -53.464000   38.440900  107.687000
  C    -54.511200   38.873900  108.539000
  H    -52.676700   37.810500  108.127000
  C    -52.476700   38.522400  105.323000
  H    -51.579600   38.986500  105.574000
  H    -52.667100   38.995600  104.350000
  C    -52.248100   37.118900  104.935000
  H    -51.796500   36.574500  105.802000
  H    -53.228100   36.740700  104.744000
  C    -51.369700   36.915300  103.606000
  H    -51.989500   37.132400  102.674000
  H    -50.428600   37.474100  103.418000
  H    -50.989300   35.908600  103.661000
  S    -53.760300   39.290400  111.136000
  C    -54.328600   38.252800  112.415000
  C    -55.313400   37.403700  111.944000
  C    -55.555300   37.527400  110.547000
  C    -54.726600   38.445200  109.913000
  H    -55.852300   36.733600  112.593000
  C    -56.261200   36.507000  109.732000
  H    -55.641800   35.556400  109.732000
  H    -56.290700   36.822100  108.728000
  C    -57.720500   36.118700  110.067000
  H    -58.377400   37.035700  109.998000
  H    -57.729000   35.905200  111.085000
  C    -58.326200   34.986400  109.158000
  H    -59.311700   34.763300  109.489000
  H    -57.725000   34.076500  109.222000
  H    -58.293300   35.287500  108.165000
  H    -54.988400   40.012500  105.151000
  H    -53.941900   38.325200  113.423000

 Total Charge           Charge          ....    0
 Multiplicity           Mult            ....    1
 Number of Electrons    NEL             ....  134
 Basis Dimension        Dim             ....  322

ORBITAL ENERGIES
----------------

  NO   OCC          E(Eh)            E(eV)
   0   2.0000     -88.964818     -2420.8558
   1   2.0000     -88.962304     -2420.7874
   2   2.0000     -10.329840      -281.0892
   3   2.0000     -10.328272      -281.0466
   4   2.0000     -10.320202      -280.8270
   5   2.0000     -10.313386      -280.6415
   6   2.0000     -10.303044      -280.3601
   7   2.0000     -10.299817      -280.2723
   8   2.0000     -10.297013      -280.1960
   9   2.0000     -10.294961      -280.1401
  10   2.0000     -10.290701      -280.0242
  11   2.0000     -10.290175      -280.0099
  12   2.0000     -10.284862      -279.8653
  13   2.0000     -10.283860      -279.8381
  14   2.0000     -10.281025      -279.7609
  15   2.0000     -10.273497      -279.5561
  16   2.0000      -8.080564      -219.8833
  17   2.0000      -8.077146      -219.7903
  18   2.0000      -6.038946      -164.3281
  19   2.0000      -6.035635      -164.2380
  20   2.0000      -6.034654      -164.2113
  21   2.0000      -6.031643      -164.1294
  22   2.0000      -6.031474      -164.1248
  23   2.0000      -6.028082      -164.0324
  24   2.0000      -1.010777       -27.5047
  25   2.0000      -0.989054       -26.9135
  26   2.0000      -0.916806       -24.9476
  27   2.0000      -0.905109       -24.6293
  28   2.0000      -0.872752       -23.7488
  29   2.0000      -0.849392       -23.1131
  30   2.0000      -0.842929       -22.9373
  31   2.0000      -0.812717       -22.1152
  32   2.0000      -0.785049       -21.3623
  33   2.0000      -0.775309       -21.0972
  34   2.0000      -0.710096       -19.3227
  35   2.0000      -0.703308       -19.1380
  36   2.0000      -0.696585       -18.9550
  37   2.0000      -0.659659       -17.9502
  38   2.0000      -0.644772       -17.5451
  39   2.0000      -0.618364       -16.8265
  40   2.0000      -0.601766       -16.3749
  41   2.0000      -0.577047       -15.7022
  42   2.0000      -0.566275       -15.4091
  43   2.0000      -0.560036       -15.2393
  44   2.0000      -0.528978       -14.3942
  45   2.0000      -0.521023       -14.1778
  46   2.0000      -0.515173       -14.0186
  47   2.0000      -0.512423       -13.9437
  48   2.0000      -0.506773       -13.7900
  49   2.0000      -0.498159       -13.5556
  50   2.0000      -0.495797       -13.4913
  51   2.0000      -0.482046       -13.1171
  52   2.0000      -0.480366       -13.0714
  53   2.0000      -0.464592       -12.6422
  54   2.0000      -0.463890       -12.6231
  55   2.0000      -0.450756       -12.2657
  56   2.0000      -0.441605       -12.0167
  57   2.0000      -0.432814       -11.7775
  58   2.0000      -0.429483       -11.6868
  59   2.0000      -0.422555       -11.4983
  60   2.0000      -0.416531       -11.3344
  61   2.0000      -0.413875       -11.2621
  62   2.0000      -0.412485       -11.2243
  63   2.0000      -0.333262        -9.0685
  64   2.0000      -0.329771        -8.9735
  65   2.0000      -0.328335        -8.9344
  66   2.0000      -0.309967        -8.4346
  67   0.0000       0.038949         1.0599
  68   0.0000       0.059941         1.6311
  69   0.0000       0.115451         3.1416
  70   0.0000       0.122125         3.3232
  71   0.0000       0.133490         3.6324

MULLIKEN ATOMIC CHARGES
-----------------------
   0 S :    0.121490
   1 C :   -0.132435
   2 C :   -0.050335
   3 C :    0.020364
   4 C :   -0.170081
   5 H :    0.020493
   6 C :    0.101635
   7 H :    0.013752
   8 H :   -0.004052
   9 C :   -0.073284
  10 H :    0.036170
  11 H :    0.027819
  12 C :   -0.089381
  13 H :    0.048832
  14 H :    0.035416
  15 H :    0.036754
  16 S :    0.103319
  17 C :   -0.094856
  18 C :   -0.027488
  19 C :    0.029451
  20 C :   -0.191841
  21 H :    0.020085
  22 C :    0.027777
  23 H :    0.045212
  24 H :    0.011640
  25 C :   -0.094257
  26 H :    0.032160
  27 H :    0.005129
  28 C :   -0.000763
  29 H :    0.032550
  30 H :    0.024831
  31 H :    0.022393
  32 H :    0.048032
  33 H :    0.063469
Sum of atomic charges:    0.0000000

LOEWDIN ATOMIC CHARGES
----------------------
   0 S :    0.437901
   1 C :   -0.194777
   2 C :   -0.069060
   3 C :   -0.059141
   4 C :   -0.226776
   5 H :    0.032631
   6 C :   -0.037276
   7 H :    0.022888
   8 H :    0.029047
   9 C :   -0.035241
  10 H :    0.024743
  11 H :    0.024360
  12 C :   -0.077208
  13 H :    0.034163
  14 H :    0.027764
  15 H :    0.027030
  16 S :    0.403652
  17 C :   -0.179062
  18 C :   -0.071918
  19 C :   -0.055163
  20 C :   -0.192233
  21 H :    0.029972
  22 C :   -0.034795
  23 H :    0.040543
  24 H :    0.020329
  25 C :   -0.037760
  26 H :    0.029228
  27 H :    0.006610
  28 C :   -0.050583
  29 H :    0.024930
  30 H :    0.025899
  31 H :    0.017862
  32 H :    0.031151
  33 H :    0.030291

  Mayer bond orders larger than 0.100000
B(  0-S ,  1-C ) :   1.1575 B(  0-S ,  4-C ) :   1.1680 B(  1-C ,  2-C ) :   1.5889
B(  1-C , 32-H ) :   0.9709 B(  2-C ,  3-C ) :   1.2585 B(  2-C ,  6-C ) :   1.0226
B(  3-C ,  4-C ) :   1.5447 B(  3-C ,  5-H ) :   0.9922 B(  4-C , 20-C ) :   1.0202
B(  6-C ,  7-H ) :   0.9287 B(  6-C ,  8-H ) :   0.9364 B(  6-C ,  9-C ) :   1.0677
B(  9-C , 10-H ) :   0.9557 B(  9-C , 11-H ) :   0.9549 B(  9-C , 12-C ) :   1.0687
B( 12-C , 13-H ) :   0.9743 B( 12-C , 14-H ) :   0.9790 B( 12-C , 15-H ) :   0.9769
B( 16-S , 17-C ) :   1.1697 B( 16-S , 20-C ) :   1.1485 B( 17-C , 18-C ) :   1.5859
B( 17-C , 20-C ) :   0.1043 B( 17-C , 33-H ) :   0.9708 B( 18-C , 19-C ) :   1.2342
B( 18-C , 21-H ) :   0.9936 B( 19-C , 20-C ) :   1.5818 B( 19-C , 22-C ) :   1.0640
B( 22-C , 23-H ) :   0.9394 B( 22-C , 24-H ) :   0.9308 B( 22-C , 25-C ) :   1.0504
B( 25-C , 26-H ) :   0.9548 B( 25-C , 27-H ) :   0.9617 B( 25-C , 28-C ) :   1.0771
B( 28-C , 29-H ) :   0.9748 B( 28-C , 30-H ) :   0.9750 B( 28-C , 31-H ) :   0.9770

Dispersion correction           -0.013574332
FINAL SINGLE POINT ENERGY     -1339.871550318499

DIPOLE MOMENT
-------------
                                X             Y             Z
Electronic contribution:      0.41215      20.01536      16.15843
Nuclear contribution   :     -0.29826     -20.55031     -16.41130
                        -----------------------------------------
Total Dipole Moment    :      0.11389      -0.53494      -0.25287
                        -----------------------------------------
Magnitude (a.u.)       :      0.60256
Magnitude (Debye)      :      1.53159

Rotational constants in cm-1:     0.017276     0.007618     0.006533
Rotational constants in MHz :   517.912044   228.369967   195.842091

                             ****ORCA TERMINATED NORMALLY****
TOTAL RUN TIME: 0 days 0 hours 0 minutes 28 seconds 189 msec
