                         Program Version 4.2.1 -  RELEASE  -
|  1> ! wB97X-D3 SP def2-SVP
|  2> %pal
|  3> nprocs 16
|  4> end
|  5>
|  6> * xyz 0 1
|  7> S 	 40.2985 	 18.4875 	 48.3529
|  8> C 	 39.1218 	 17.4899 	 47.5278
|  9> C 	 38.9808 	 17.8311 	 46.2434
| 10> C 	 39.8998 	 18.7519 	 45.7947
| 11> C 	 40.7971 	 19.0707 	 46.7835
| 12> H 	 40.0411 	 19.1295 	 44.8049
| 13> C 	 37.9104 	 17.287 	 45.3261
| 14> H 	 36.9718 	 17.2393 	 45.83
| 15> H 	 38.0937 	 16.2709 	 45.1648
| 16> C 	 37.5556 	 18.0597 	 44.0716
| 17> H 	 38.4693 	 18.0763 	 43.4683
| 18> H 	 36.9054 	 17.3596 	 43.5122
| 19> C 	 36.9462 	 19.4525 	 44.3786
| 20> H 	 36.5107 	 19.4858 	 45.3521
| 21> H 	 37.7376 	 20.1474 	 44.4173
| 22> H 	 36.1412 	 19.6528 	 43.7071
| 23> S 	 43.5968 	 19.324 	 46.7927
| 24> C 	 44.2632 	 20.9506 	 46.4705
| 25> C 	 43.2964 	 21.9339 	 46.2817
| 26> C 	 41.9489 	 21.3597 	 46.3515
| 27> C 	 41.9097 	 19.9949 	 46.6531
| 28> H 	 43.6549 	 22.9309 	 46.0016
| 29> C 	 40.7305 	 22.1697 	 46.1736
| 30> H 	 40.6649 	 22.7427 	 47.1158
| 31> H 	 39.8026 	 21.5775 	 46.2486
| 32> C 	 40.816 	 23.1147 	 44.9249
| 33> H 	 41.7473 	 23.6021 	 44.8125
| 34> H 	 40.1669 	 23.9627 	 45.0878
| 35> C 	 40.5265 	 22.4258 	 43.5841
| 36> H 	 41.3188 	 21.8156 	 43.1082
| 37> H 	 40.5455 	 23.2838 	 42.8961
| 38> H 	 39.5723 	 21.8508 	 43.5765
| 39> H 	 38.587 	 16.7418 	 48.0444
| 40> H 	 45.3147 	 21.1786 	 46.5067
| 41> *
| 42>
| 43>                          ****END OF INPUT****

CARTESIAN COORDINATES (ANGSTROEM)
---------------------------------
  S     40.298500   18.487500   48.352900
  C     39.121800   17.489900   47.527800
  C     38.980800   17.831100   46.243400
  C     39.899800   18.751900   45.794700
  C     40.797100   19.070700   46.783500
  H     40.041100   19.129500   44.804900
  C     37.910400   17.287000   45.326100
  H     36.971800   17.239300   45.830000
  H     38.093700   16.270900   45.164800
  C     37.555600   18.059700   44.071600
  H     38.469300   18.076300   43.468300
  H     36.905400   17.359600   43.512200
  C     36.946200   19.452500   44.378600
  H     36.510700   19.485800   45.352100
  H     37.737600   20.147400   44.417300
  H     36.141200   19.652800   43.707100
  S     43.596800   19.324000   46.792700
  C     44.263200   20.950600   46.470500
  C     43.296400   21.933900   46.281700
  C     41.948900   21.359700   46.351500
  C     41.909700   19.994900   46.653100
  H     43.654900   22.930900   46.001600
  C     40.730500   22.169700   46.173600
  H     40.664900   22.742700   47.115800
  H     39.802600   21.577500   46.248600
  C     40.816000   23.114700   44.924900
  H     41.747300   23.602100   44.812500
  H     40.166900   23.962700   45.087800
  C     40.526500   22.425800   43.584100
  H     41.318800   21.815600   43.108200
  H     40.545500   23.283800   42.896100
  H     39.572300   21.850800   43.576500
  H     38.587000   16.741800   48.044400
  H     45.314700   21.178600   46.506700

 Total Charge           Charge          ....    0
 Multiplicity           Mult            ....    1
 Number of Electrons    NEL             ....  134
 Basis Dimension        Dim             ....  322

ORBITAL ENERGIES
----------------

  NO   OCC          E(Eh)            E(eV)
   0   2.0000     -88.963594     -2420.8225
   1   2.0000     -88.960392     -2420.7353
   2   2.0000     -10.324004      -280.9304
   3   2.0000     -10.322850      -280.8990
   4   2.0000     -10.320713      -280.8409
   5   2.0000     -10.306719      -280.4601
   6   2.0000     -10.302345      -280.3411
   7   2.0000     -10.299723      -280.2697
   8   2.0000     -10.289895      -280.0023
   9   2.0000     -10.288489      -279.9640
  10   2.0000     -10.288349      -279.9602
  11   2.0000     -10.287392      -279.9342
  12   2.0000     -10.285582      -279.8849
  13   2.0000     -10.283333      -279.8237
  14   2.0000     -10.277468      -279.6641
  15   2.0000     -10.273820      -279.5649
  16   2.0000      -8.078755      -219.8341
  17   2.0000      -8.073673      -219.6958
  18   2.0000      -6.037046      -164.2764
  19   2.0000      -6.033426      -164.1779
  20   2.0000      -6.032360      -164.1489
  21   2.0000      -6.029512      -164.0714
  22   2.0000      -6.028486      -164.0435
  23   2.0000      -6.024247      -163.9281
  24   2.0000      -1.008876       -27.4529
  25   2.0000      -0.974690       -26.5227
  26   2.0000      -0.916077       -24.9277
  27   2.0000      -0.904785       -24.6205
  28   2.0000      -0.868592       -23.6356
  29   2.0000      -0.849827       -23.1250
  30   2.0000      -0.843659       -22.9571
  31   2.0000      -0.816881       -22.2285
  32   2.0000      -0.788960       -21.4687
  33   2.0000      -0.769733       -20.9455
  34   2.0000      -0.713163       -19.4061
  35   2.0000      -0.702513       -19.1163
  36   2.0000      -0.693026       -18.8582
  37   2.0000      -0.650729       -17.7072
  38   2.0000      -0.645416       -17.5627
  39   2.0000      -0.629094       -17.1185
  40   2.0000      -0.595905       -16.2154
  41   2.0000      -0.566390       -15.4123
  42   2.0000      -0.557786       -15.1781
  43   2.0000      -0.551645       -15.0110
  44   2.0000      -0.542312       -14.7571
  45   2.0000      -0.530917       -14.4470
  46   2.0000      -0.525963       -14.3122
  47   2.0000      -0.515312       -14.0224
  48   2.0000      -0.495472       -13.4825
  49   2.0000      -0.493045       -13.4164
  50   2.0000      -0.489467       -13.3191
  51   2.0000      -0.481241       -13.0952
  52   2.0000      -0.469383       -12.7726
  53   2.0000      -0.464049       -12.6274
  54   2.0000      -0.460991       -12.5442
  55   2.0000      -0.452626       -12.3166
  56   2.0000      -0.443759       -12.0753
  57   2.0000      -0.438940       -11.9442
  58   2.0000      -0.433934       -11.8079
  59   2.0000      -0.423497       -11.5239
  60   2.0000      -0.422454       -11.4956
  61   2.0000      -0.416783       -11.3412
  62   2.0000      -0.406224       -11.0539
  63   2.0000      -0.337089        -9.1726
  64   2.0000      -0.326411        -8.8821
  65   2.0000      -0.321938        -8.7604
  66   2.0000      -0.299251        -8.1430
  67   0.0000       0.035664         0.9705
  68   0.0000       0.061160         1.6642
  69   0.0000       0.110746         3.0135
  70   0.0000       0.116668         3.1747
  71   0.0000       0.123237         3.3534

MULLIKEN ATOMIC CHARGES
-----------------------
   0 S :    0.117403
   1 C :   -0.127402
   2 C :   -0.024660
   3 C :    0.021488
   4 C :   -0.172413
   5 H :    0.004356
   6 C :    0.080127
   7 H :    0.007936
   8 H :    0.016803
   9 C :   -0.102195
  10 H :    0.029258
  11 H :    0.028766
  12 C :    0.008868
  13 H :    0.021177
  14 H :    0.022501
  15 H :    0.037174
  16 S :    0.086477
  17 C :   -0.090362
  18 C :   -0.044364
  19 C :   -0.007557
  20 C :   -0.177683
  21 H :    0.032915
  22 C :    0.052743
  23 H :    0.037074
  24 H :    0.030294
  25 C :   -0.049484
  26 H :    0.013259
  27 H :    0.022476
  28 C :   -0.073628
  29 H :    0.043768
  30 H :    0.028382
  31 H :    0.048842
  32 H :    0.022660
  33 H :    0.054998
Sum of atomic charges:    0.0000000

LOEWDIN ATOMIC CHARGES
----------------------
   0 S :    0.407727
   1 C :   -0.183178
   2 C :   -0.067403
   3 C :   -0.056433
   4 C :   -0.191621
   5 H :    0.031712
   6 C :   -0.031624
   7 H :    0.025628
   8 H :    0.025363
   9 C :   -0.041669
  10 H :    0.020179
  11 H :    0.029642
  12 C :   -0.053894
  13 H :    0.026167
  14 H :    0.020019
  15 H :    0.028432
  16 S :    0.353032
  17 C :   -0.162067
  18 C :   -0.077551
  19 C :   -0.045127
  20 C :   -0.192542
  21 H :    0.036349
  22 C :   -0.040300
  23 H :    0.040104
  24 H :    0.032996
  25 C :   -0.035021
  26 H :    0.019191
  27 H :    0.024313
  28 C :   -0.073848
  29 H :    0.030308
  30 H :    0.031149
  31 H :    0.026770
  32 H :    0.017191
  33 H :    0.026007

  Mayer bond orders larger than 0.100000
B(  0-S ,  1-C ) :   1.1306 B(  0-S ,  4-C ) :   1.1727 B(  1-C ,  2-C ) :   1.6180
B(  1-C ,  4-C ) :   0.1003 B(  1-C , 32-H ) :   0.9827 B(  2-C ,  3-C ) :   1.2442
B(  2-C ,  6-C ) :   0.9921 B(  3-C ,  4-C ) :   1.5622 B(  3-C ,  5-H ) :   1.0066
B(  4-C , 20-C ) :   1.0297 B(  6-C ,  7-H ) :   0.9364 B(  6-C ,  8-H ) :   0.9271
B(  6-C ,  9-C ) :   1.0965 B(  9-C , 10-H ) :   0.9514 B(  9-C , 11-H ) :   0.9533
B(  9-C , 12-C ) :   1.0545 B( 12-C , 13-H ) :   0.9748 B( 12-C , 14-H ) :   0.9730
B( 12-C , 15-H ) :   0.9758 B( 16-S , 17-C ) :   1.1469 B( 16-S , 20-C ) :   1.0983
B( 17-C , 18-C ) :   1.6585 B( 17-C , 33-H ) :   0.9636 B( 18-C , 19-C ) :   1.1766
B( 18-C , 21-H ) :   0.9847 B( 19-C , 20-C ) :   1.6323 B( 19-C , 22-C ) :   1.0501
B( 22-C , 23-H ) :   0.9245 B( 22-C , 24-H ) :   0.9388 B( 22-C , 25-C ) :   1.0615
B( 25-C , 26-H ) :   0.9555 B( 25-C , 27-H ) :   0.9560 B( 25-C , 28-C ) :   1.0706
B( 28-C , 29-H ) :   0.9736 B( 28-C , 30-H ) :   0.9690 B( 28-C , 31-H ) :   0.9747

Dispersion correction           -0.015767987
FINAL SINGLE POINT ENERGY     -1339.863861652140

DIPOLE MOMENT
-------------
                                X             Y             Z
Electronic contribution:     18.60603     -10.61656      19.63244
Nuclear contribution   :    -19.05129      11.00067     -20.06408
                        -----------------------------------------
Total Dipole Moment    :     -0.44526       0.38410      -0.43164
                        -----------------------------------------
Magnitude (a.u.)       :      0.72945
Magnitude (Debye)      :      1.85412

Rotational constants in cm-1:     0.017671     0.010573     0.007569
Rotational constants in MHz :   529.759743   316.964510   226.899224

                             ****ORCA TERMINATED NORMALLY****
TOTAL RUN TIME: 0 days 0 hours 0 minutes 36 seconds 960 msec
