                         Program Version 4.2.1 -  RELEASE  -
|  1> ! wB97X-D3 SP def2-SVP
|  2> %pal
|  3> nprocs 16
|  4> end
|  5>
|  6> * xyz 0 1
|  7> S 	 -14.5396 	 -8.24285 	 85.0668
|  8> C 	 -13.0665 	 -9.0981 	 84.5044
|  9> C 	 -12.4265 	 -9.62131 	 85.5535
| 10> C 	 -13.1452 	 -9.50122 	 86.8116
| 11> C 	 -14.3013 	 -8.76344 	 86.7647
| 12> H 	 -12.8303 	 -9.93771 	 87.7739
| 13> C 	 -11.0543 	 -10.3062 	 85.5994
| 14> H 	 -10.7222 	 -10.2261 	 86.6128
| 15> H 	 -10.3461 	 -9.76386 	 84.978
| 16> C 	 -10.9797 	 -11.8145 	 85.1233
| 17> H 	 -11.7307 	 -12.3437 	 85.7862
| 18> H 	 -11.2484 	 -11.9302 	 84.0432
| 19> C 	 -9.55338 	 -12.4244 	 85.2622
| 20> H 	 -9.28984 	 -12.4626 	 86.3316
| 21> H 	 -9.53598 	 -13.4438 	 84.9009
| 22> H 	 -8.74781 	 -11.915 	 84.7028
| 23> S 	 -16.7197 	 -9.44658 	 88.0095
| 24> C 	 -16.9713 	 -8.92606 	 89.6566
| 25> C 	 -16.0686 	 -7.91243 	 89.9854
| 26> C 	 -15.0501 	 -7.72043 	 89.015
| 27> C 	 -15.2213 	 -8.47206 	 87.8756
| 28> H 	 -16.1916 	 -7.43955 	 90.8956
| 29> C 	 -14.1302 	 -6.49071 	 89.0889
| 30> H 	 -13.2913 	 -6.638 	 88.4384
| 31> H 	 -13.761 	 -6.34352 	 90.089
| 32> C 	 -14.8069 	 -5.15377 	 88.6604
| 33> H 	 -15.6702 	 -4.98028 	 89.2436
| 34> H 	 -15.2002 	 -5.33862 	 87.6584
| 35> C 	 -13.9287 	 -3.96408 	 88.8435
| 36> H 	 -13.0263 	 -4.09128 	 88.2846
| 37> H 	 -13.601 	 -3.93507 	 89.833
| 38> H 	 -14.4537 	 -3.06882 	 88.5454
| 39> H 	 -12.7865 	 -9.06812 	 83.4689
| 40> H 	 -17.83 	 -8.9746 	 90.3475
| 41> *
| 42>
| 43>                          ****END OF INPUT****

CARTESIAN COORDINATES (ANGSTROEM)
---------------------------------
  S    -14.539600   -8.242850   85.066800
  C    -13.066500   -9.098100   84.504400
  C    -12.426500   -9.621310   85.553500
  C    -13.145200   -9.501220   86.811600
  C    -14.301300   -8.763440   86.764700
  H    -12.830300   -9.937710   87.773900
  C    -11.054300  -10.306200   85.599400
  H    -10.722200  -10.226100   86.612800
  H    -10.346100   -9.763860   84.978000
  C    -10.979700  -11.814500   85.123300
  H    -11.730700  -12.343700   85.786200
  H    -11.248400  -11.930200   84.043200
  C     -9.553380  -12.424400   85.262200
  H     -9.289840  -12.462600   86.331600
  H     -9.535980  -13.443800   84.900900
  H     -8.747810  -11.915000   84.702800
  S    -16.719700   -9.446580   88.009500
  C    -16.971300   -8.926060   89.656600
  C    -16.068600   -7.912430   89.985400
  C    -15.050100   -7.720430   89.015000
  C    -15.221300   -8.472060   87.875600
  H    -16.191600   -7.439550   90.895600
  C    -14.130200   -6.490710   89.088900
  H    -13.291300   -6.638000   88.438400
  H    -13.761000   -6.343520   90.089000
  C    -14.806900   -5.153770   88.660400
  H    -15.670200   -4.980280   89.243600
  H    -15.200200   -5.338620   87.658400
  C    -13.928700   -3.964080   88.843500
  H    -13.026300   -4.091280   88.284600
  H    -13.601000   -3.935070   89.833000
  H    -14.453700   -3.068820   88.545400
  H    -12.786500   -9.068120   83.468900
  H    -17.830000   -8.974600   90.347500

 Total Charge           Charge          ....    0
 Multiplicity           Mult            ....    1
 Number of Electrons    NEL             ....  134
 Basis Dimension        Dim             ....  322

ORBITAL ENERGIES
----------------

  NO   OCC          E(Eh)            E(eV)
   0   2.0000     -88.967821     -2420.9375
   1   2.0000     -88.960726     -2420.7444
   2   2.0000     -10.333960      -281.2013
   3   2.0000     -10.330596      -281.1098
   4   2.0000     -10.320848      -280.8446
   5   2.0000     -10.316554      -280.7277
   6   2.0000     -10.304860      -280.4095
   7   2.0000     -10.301893      -280.3288
   8   2.0000     -10.299243      -280.2566
   9   2.0000     -10.297815      -280.2178
  10   2.0000     -10.293120      -280.0900
  11   2.0000     -10.288487      -279.9640
  12   2.0000     -10.287317      -279.9321
  13   2.0000     -10.282749      -279.8078
  14   2.0000     -10.276019      -279.6247
  15   2.0000     -10.266321      -279.3608
  16   2.0000      -8.081758      -219.9158
  17   2.0000      -8.074612      -219.7214
  18   2.0000      -6.040379      -164.3671
  19   2.0000      -6.036347      -164.2574
  20   2.0000      -6.033354      -164.1759
  21   2.0000      -6.032440      -164.1511
  22   2.0000      -6.029248      -164.0642
  23   2.0000      -6.025157      -163.9528
  24   2.0000      -1.001200       -27.2440
  25   2.0000      -0.981309       -26.7028
  26   2.0000      -0.910154       -24.7665
  27   2.0000      -0.901085       -24.5198
  28   2.0000      -0.869428       -23.6583
  29   2.0000      -0.853369       -23.2213
  30   2.0000      -0.840458       -22.8700
  31   2.0000      -0.816644       -22.2220
  32   2.0000      -0.780451       -21.2372
  33   2.0000      -0.772839       -21.0300
  34   2.0000      -0.706692       -19.2301
  35   2.0000      -0.697951       -18.9922
  36   2.0000      -0.694934       -18.9101
  37   2.0000      -0.661549       -18.0017
  38   2.0000      -0.645407       -17.5624
  39   2.0000      -0.616791       -16.7837
  40   2.0000      -0.591164       -16.0864
  41   2.0000      -0.571159       -15.5420
  42   2.0000      -0.565092       -15.3769
  43   2.0000      -0.559054       -15.2126
  44   2.0000      -0.529196       -14.4001
  45   2.0000      -0.520774       -14.1710
  46   2.0000      -0.518525       -14.1098
  47   2.0000      -0.509845       -13.8736
  48   2.0000      -0.508445       -13.8355
  49   2.0000      -0.502372       -13.6702
  50   2.0000      -0.494174       -13.4472
  51   2.0000      -0.474956       -12.9242
  52   2.0000      -0.473325       -12.8798
  53   2.0000      -0.463875       -12.6227
  54   2.0000      -0.461552       -12.5595
  55   2.0000      -0.446129       -12.1398
  56   2.0000      -0.442925       -12.0526
  57   2.0000      -0.431778       -11.7493
  58   2.0000      -0.430137       -11.7046
  59   2.0000      -0.426060       -11.5937
  60   2.0000      -0.419737       -11.4216
  61   2.0000      -0.416722       -11.3396
  62   2.0000      -0.411485       -11.1971
  63   2.0000      -0.336368        -9.1530
  64   2.0000      -0.330041        -8.9809
  65   2.0000      -0.325866        -8.8673
  66   2.0000      -0.310740        -8.4557
  67   0.0000       0.036035         0.9806
  68   0.0000       0.054557         1.4846
  69   0.0000       0.110358         3.0030
  70   0.0000       0.114471         3.1149
  71   0.0000       0.133330         3.6281

MULLIKEN ATOMIC CHARGES
-----------------------
   0 S :    0.072946
   1 C :   -0.131154
   2 C :   -0.049391
   3 C :    0.032177
   4 C :   -0.153211
   5 H :    0.025299
   6 C :    0.072725
   7 H :    0.014343
   8 H :    0.022367
   9 C :   -0.102403
  10 H :    0.043386
  11 H :    0.040427
  12 C :   -0.058525
  13 H :    0.032453
  14 H :    0.035833
  15 H :    0.037748
  16 S :    0.115252
  17 C :   -0.084367
  18 C :   -0.043237
  19 C :    0.001608
  20 C :   -0.173823
  21 H :   -0.005666
  22 C :    0.057047
  23 H :    0.022442
  24 H :    0.008399
  25 C :   -0.064684
  26 H :    0.006993
  27 H :    0.023581
  28 C :    0.022770
  29 H :    0.016171
  30 H :    0.008253
  31 H :    0.038767
  32 H :    0.049148
  33 H :    0.066331
Sum of atomic charges:   -0.0000000

LOEWDIN ATOMIC CHARGES
----------------------
   0 S :    0.356353
   1 C :   -0.166731
   2 C :   -0.068041
   3 C :   -0.057384
   4 C :   -0.184877
   5 H :    0.036740
   6 C :   -0.028598
   7 H :    0.024979
   8 H :    0.027427
   9 C :   -0.041734
  10 H :    0.030670
  11 H :    0.026654
  12 C :   -0.072763
  13 H :    0.025765
  14 H :    0.026440
  15 H :    0.027370
  16 S :    0.400223
  17 C :   -0.192074
  18 C :   -0.064977
  19 C :   -0.049578
  20 C :   -0.192347
  21 H :    0.018341
  22 C :   -0.022253
  23 H :    0.025409
  24 H :    0.021410
  25 C :   -0.034110
  26 H :    0.014922
  27 H :    0.023769
  28 C :   -0.052851
  29 H :    0.022615
  30 H :    0.018155
  31 H :    0.030570
  32 H :    0.028902
  33 H :    0.041602

  Mayer bond orders larger than 0.100000
B(  0-S ,  1-C ) :   1.1133 B(  0-S ,  4-C ) :   1.1218 B(  1-C ,  2-C ) :   1.6517
B(  1-C , 32-H ) :   0.9790 B(  2-C ,  3-C ) :   1.1991 B(  2-C ,  6-C ) :   1.0144
B(  3-C ,  4-C ) :   1.6314 B(  3-C ,  5-H ) :   0.9888 B(  4-C , 20-C ) :   1.0100
B(  6-C ,  7-H ) :   0.9434 B(  6-C ,  8-H ) :   0.9425 B(  6-C ,  9-C ) :   1.0571
B(  9-C , 10-H ) :   0.9572 B(  9-C , 11-H ) :   0.9594 B(  9-C , 12-C ) :   1.0761
B( 12-C , 13-H ) :   0.9762 B( 12-C , 14-H ) :   0.9746 B( 12-C , 15-H ) :   0.9749
B( 16-S , 17-C ) :   1.1595 B( 16-S , 20-C ) :   1.1282 B( 17-C , 18-C ) :   1.6171
B( 17-C , 20-C ) :   0.1014 B( 17-C , 33-H ) :   0.9564 B( 18-C , 19-C ) :   1.2327
B( 18-C , 21-H ) :   0.9973 B( 19-C , 20-C ) :   1.6057 B( 19-C , 22-C ) :   1.0596
B( 22-C , 23-H ) :   0.9367 B( 22-C , 24-H ) :   0.9333 B( 22-C , 25-C ) :   1.0610
B( 25-C , 26-H ) :   0.9533 B( 25-C , 27-H ) :   0.9522 B( 25-C , 28-C ) :   1.0876
B( 28-C , 29-H ) :   0.9721 B( 28-C , 30-H ) :   0.9681 B( 28-C , 31-H ) :   0.9700

Dispersion correction           -0.013698965
FINAL SINGLE POINT ENERGY     -1339.875528694181

DIPOLE MOMENT
-------------
                                X             Y             Z
Electronic contribution:    -21.25384      -3.28520      -3.03662
Nuclear contribution   :     21.76237       3.40553       3.35217
                        -----------------------------------------
Total Dipole Moment    :      0.50853       0.12032       0.31555
                        -----------------------------------------
Magnitude (a.u.)       :      0.61045
Magnitude (Debye)      :      1.55165

Rotational constants in cm-1:     0.019248     0.007116     0.006364
Rotational constants in MHz :   577.028638   213.325446   190.794978

                             ****ORCA TERMINATED NORMALLY****
TOTAL RUN TIME: 0 days 0 hours 0 minutes 32 seconds 47 msec
