                         Program Version 4.2.1 -  RELEASE  -
|  1> ! wB97X-D3 SP def2-SVP
|  2> %pal
|  3> nprocs 16
|  4> end
|  5>
|  6> * xyz 0 1
|  7> S 	 -41.1602 	 51.3301 	 105.169
|  8> C 	 -39.8763 	 52.2538 	 104.647
|  9> C 	 -38.6741 	 51.5101 	 104.628
| 10> C 	 -38.8676 	 50.0599 	 104.899
| 11> C 	 -40.2216 	 49.8512 	 105.142
| 12> H 	 -38.1965 	 49.2467 	 105.074
| 13> C 	 -37.3119 	 52.1393 	 104.519
| 14> H 	 -37.5326 	 53.0774 	 103.929
| 15> H 	 -36.6655 	 51.6338 	 103.842
| 16> C 	 -36.5196 	 52.2 	 105.775
| 17> H 	 -36.5229 	 51.2064 	 106.366
| 18> H 	 -35.5315 	 52.5177 	 105.503
| 19> C 	 -37.0738 	 53.3416 	 106.734
| 20> H 	 -37.0685 	 54.2524 	 106.115
| 21> H 	 -38.0144 	 53.0442 	 107.108
| 22> H 	 -36.4815 	 53.3566 	 107.593
| 23> S 	 -41.7979 	 48.4764 	 106.973
| 24> C 	 -41.9752 	 46.7923 	 106.77
| 25> C 	 -41.3356 	 46.3257 	 105.61
| 26> C 	 -40.7387 	 47.4089 	 104.902
| 27> C 	 -40.8921 	 48.616 	 105.503
| 28> H 	 -41.3506 	 45.2502 	 105.345
| 29> C 	 -40.1212 	 47.1406 	 103.54
| 30> H 	 -39.9387 	 48.0376 	 103.007
| 31> H 	 -40.8718 	 46.6186 	 102.864
| 32> C 	 -38.843 	 46.2406 	 103.523
| 33> H 	 -38.9424 	 45.2927 	 104.1
| 34> H 	 -38.0398 	 46.8201 	 104.071
| 35> C 	 -38.4504 	 45.8832 	 102.116
| 36> H 	 -37.8843 	 46.6978 	 101.597
| 37> H 	 -39.3877 	 45.7705 	 101.606
| 38> H 	 -37.7871 	 45.093 	 101.948
| 39> H 	 -39.8323 	 53.3297 	 104.767
| 40> H 	 -42.6252 	 46.1846 	 107.358
| 41> *
| 42>
| 43>                          ****END OF INPUT****

CARTESIAN COORDINATES (ANGSTROEM)
---------------------------------
  S    -41.160200   51.330100  105.169000
  C    -39.876300   52.253800  104.647000
  C    -38.674100   51.510100  104.628000
  C    -38.867600   50.059900  104.899000
  C    -40.221600   49.851200  105.142000
  H    -38.196500   49.246700  105.074000
  C    -37.311900   52.139300  104.519000
  H    -37.532600   53.077400  103.929000
  H    -36.665500   51.633800  103.842000
  C    -36.519600   52.200000  105.775000
  H    -36.522900   51.206400  106.366000
  H    -35.531500   52.517700  105.503000
  C    -37.073800   53.341600  106.734000
  H    -37.068500   54.252400  106.115000
  H    -38.014400   53.044200  107.108000
  H    -36.481500   53.356600  107.593000
  S    -41.797900   48.476400  106.973000
  C    -41.975200   46.792300  106.770000
  C    -41.335600   46.325700  105.610000
  C    -40.738700   47.408900  104.902000
  C    -40.892100   48.616000  105.503000
  H    -41.350600   45.250200  105.345000
  C    -40.121200   47.140600  103.540000
  H    -39.938700   48.037600  103.007000
  H    -40.871800   46.618600  102.864000
  C    -38.843000   46.240600  103.523000
  H    -38.942400   45.292700  104.100000
  H    -38.039800   46.820100  104.071000
  C    -38.450400   45.883200  102.116000
  H    -37.884300   46.697800  101.597000
  H    -39.387700   45.770500  101.606000
  H    -37.787100   45.093000  101.948000
  H    -39.832300   53.329700  104.767000
  H    -42.625200   46.184600  107.358000

 Total Charge           Charge          ....    0
 Multiplicity           Mult            ....    1
 Number of Electrons    NEL             ....  134
 Basis Dimension        Dim             ....  322

ORBITAL ENERGIES
----------------

  NO   OCC          E(Eh)            E(eV)
   0   2.0000     -88.966998     -2420.9151
   1   2.0000     -88.964396     -2420.8443
   2   2.0000     -10.328557      -281.0543
   3   2.0000     -10.319354      -280.8039
   4   2.0000     -10.315955      -280.7114
   5   2.0000     -10.309309      -280.5305
   6   2.0000     -10.308333      -280.5040
   7   2.0000     -10.301168      -280.3090
   8   2.0000     -10.299076      -280.2521
   9   2.0000     -10.297092      -280.1981
  10   2.0000     -10.292929      -280.0848
  11   2.0000     -10.292651      -280.0773
  12   2.0000     -10.290898      -280.0296
  13   2.0000     -10.286240      -279.9028
  14   2.0000     -10.272215      -279.5212
  15   2.0000     -10.269241      -279.4403
  16   2.0000      -8.082929      -219.9477
  17   2.0000      -8.080834      -219.8907
  18   2.0000      -6.041326      -164.3928
  19   2.0000      -6.039178      -164.3344
  20   2.0000      -6.037221      -164.2811
  21   2.0000      -6.035113      -164.2238
  22   2.0000      -6.033778      -164.1875
  23   2.0000      -6.031659      -164.1298
  24   2.0000      -1.013736       -27.5851
  25   2.0000      -0.989704       -26.9312
  26   2.0000      -0.914396       -24.8820
  27   2.0000      -0.909305       -24.7434
  28   2.0000      -0.873190       -23.7607
  29   2.0000      -0.855679       -23.2842
  30   2.0000      -0.844816       -22.9886
  31   2.0000      -0.813717       -22.1424
  32   2.0000      -0.782927       -21.3045
  33   2.0000      -0.772801       -21.0290
  34   2.0000      -0.706166       -19.2157
  35   2.0000      -0.697420       -18.9778
  36   2.0000      -0.689135       -18.7523
  37   2.0000      -0.661661       -18.0047
  38   2.0000      -0.644998       -17.5513
  39   2.0000      -0.616745       -16.7825
  40   2.0000      -0.601954       -16.3800
  41   2.0000      -0.570732       -15.5304
  42   2.0000      -0.561416       -15.2769
  43   2.0000      -0.550097       -14.9689
  44   2.0000      -0.544793       -14.8246
  45   2.0000      -0.528367       -14.3776
  46   2.0000      -0.521266       -14.1844
  47   2.0000      -0.514802       -14.0085
  48   2.0000      -0.510953       -13.9037
  49   2.0000      -0.498821       -13.5736
  50   2.0000      -0.485828       -13.2201
  51   2.0000      -0.480187       -13.0665
  52   2.0000      -0.466599       -12.6968
  53   2.0000      -0.462889       -12.5958
  54   2.0000      -0.460444       -12.5293
  55   2.0000      -0.450906       -12.2698
  56   2.0000      -0.446739       -12.1564
  57   2.0000      -0.443329       -12.0636
  58   2.0000      -0.433054       -11.7840
  59   2.0000      -0.427478       -11.6323
  60   2.0000      -0.417760       -11.3678
  61   2.0000      -0.411940       -11.2095
  62   2.0000      -0.403836       -10.9889
  63   2.0000      -0.349824        -9.5192
  64   2.0000      -0.332313        -9.0427
  65   2.0000      -0.325091        -8.8462
  66   2.0000      -0.293604        -7.9894
  67   0.0000       0.032108         0.8737
  68   0.0000       0.073004         1.9865
  69   0.0000       0.111504         3.0342
  70   0.0000       0.121166         3.2971
  71   0.0000       0.125677         3.4198

MULLIKEN ATOMIC CHARGES
-----------------------
   0 S :    0.113269
   1 C :   -0.079430
   2 C :   -0.148504
   3 C :    0.054936
   4 C :   -0.193732
   5 H :    0.017083
   6 C :    0.059065
   7 H :    0.027889
   8 H :    0.012450
   9 C :   -0.092096
  10 H :    0.050287
  11 H :    0.027553
  12 C :   -0.022823
  13 H :    0.033853
  14 H :    0.026355
  15 H :    0.018782
  16 S :    0.123620
  17 C :   -0.089092
  18 C :   -0.049430
  19 C :   -0.009699
  20 C :   -0.130379
  21 H :    0.035481
  22 C :    0.027822
  23 H :    0.022607
  24 H :    0.035518
  25 C :   -0.101372
  26 H :    0.035307
  27 H :    0.028789
  28 C :   -0.012466
  29 H :    0.027735
  30 H :    0.020289
  31 H :    0.023002
  32 H :    0.057401
  33 H :    0.049931
Sum of atomic charges:    0.0000000

LOEWDIN ATOMIC CHARGES
----------------------
   0 S :    0.437105
   1 C :   -0.236949
   2 C :   -0.052580
   3 C :   -0.055502
   4 C :   -0.186136
   5 H :    0.031964
   6 C :   -0.049352
   7 H :    0.037611
   8 H :    0.025664
   9 C :   -0.036598
  10 H :    0.036372
  11 H :    0.020260
  12 C :   -0.056380
  13 H :    0.026969
  14 H :    0.018502
  15 H :    0.016271
  16 S :    0.431410
  17 C :   -0.192825
  18 C :   -0.069968
  19 C :   -0.059412
  20 C :   -0.218288
  21 H :    0.038353
  22 C :   -0.030491
  23 H :    0.024010
  24 H :    0.035759
  25 C :   -0.045248
  26 H :    0.025306
  27 H :    0.023784
  28 C :   -0.067011
  29 H :    0.031678
  30 H :    0.023459
  31 H :    0.018546
  32 H :    0.030009
  33 H :    0.023705

  Mayer bond orders larger than 0.100000
B(  0-S ,  1-C ) :   1.1538 B(  0-S ,  4-C ) :   1.1713 B(  1-C ,  2-C ) :   1.6079
B(  1-C , 32-H ) :   0.9582 B(  2-C ,  3-C ) :   1.2110 B(  2-C ,  6-C ) :   1.0356
B(  3-C ,  4-C ) :   1.5747 B(  3-C ,  5-H ) :   0.9951 B(  4-C , 20-C ) :   1.0186
B(  6-C ,  7-H ) :   0.9406 B(  6-C ,  8-H ) :   0.9311 B(  6-C ,  9-C ) :   1.0700
B(  9-C , 10-H ) :   0.9526 B(  9-C , 11-H ) :   0.9552 B(  9-C , 12-C ) :   1.0720
B( 12-C , 13-H ) :   0.9774 B( 12-C , 14-H ) :   0.9778 B( 12-C , 15-H ) :   0.9741
B( 16-S , 17-C ) :   1.1784 B( 16-S , 20-C ) :   1.1353 B( 17-C , 18-C ) :   1.5849
B( 17-C , 33-H ) :   0.9701 B( 18-C , 19-C ) :   1.2438 B( 18-C , 21-H ) :   0.9896
B( 19-C , 20-C ) :   1.6059 B( 19-C , 22-C ) :   1.0447 B( 22-C , 23-H ) :   0.9368
B( 22-C , 24-H ) :   0.9385 B( 22-C , 25-C ) :   1.0505 B( 25-C , 26-H ) :   0.9587
B( 25-C , 27-H ) :   0.9521 B( 25-C , 28-C ) :   1.0770 B( 28-C , 29-H ) :   0.9712
B( 28-C , 30-H ) :   0.9717 B( 28-C , 31-H ) :   0.9741

Dispersion correction           -0.014531569
FINAL SINGLE POINT ENERGY     -1339.866223306466

DIPOLE MOMENT
-------------
                                X             Y             Z
Electronic contribution:    -22.41359       1.99173      10.03511
Nuclear contribution   :     22.90060      -2.25574     -10.10683
                        -----------------------------------------
Total Dipole Moment    :      0.48701      -0.26400      -0.07172
                        -----------------------------------------
Magnitude (a.u.)       :      0.55859
Magnitude (Debye)      :      1.41982

Rotational constants in cm-1:     0.017987     0.008910     0.006919
Rotational constants in MHz :   539.234734   267.119211   207.418693

                             ****ORCA TERMINATED NORMALLY****
TOTAL RUN TIME: 0 days 0 hours 0 minutes 30 seconds 420 msec
