                         Program Version 4.2.1 -  RELEASE  -
|  1> ! wB97X-D3 SP def2-SVP
|  2> %pal
|  3> nprocs 16
|  4> end
|  5>
|  6> * xyz 0 1
|  7> S 	 -27.2505 	 55.4146 	 111.542
|  8> C 	 -27.9394 	 55.0339 	 113.103
|  9> C 	 -28.4877 	 56.1307 	 113.719
| 10> C 	 -28.3584 	 57.2745 	 112.852
| 11> C 	 -27.7698 	 57.0547 	 111.649
| 12> H 	 -28.6714 	 58.2278 	 113.108
| 13> C 	 -29.0439 	 56.2647 	 115.162
| 14> H 	 -29.6456 	 57.205 	 115.142
| 15> H 	 -28.2208 	 56.4068 	 115.896
| 16> C 	 -29.9025 	 55.117 	 115.654
| 17> H 	 -29.3567 	 54.0854 	 115.605
| 18> H 	 -30.0973 	 55.257 	 116.775
| 19> C 	 -31.2685 	 55.1264 	 114.853
| 20> H 	 -31.338 	 56.1192 	 114.476
| 21> H 	 -31.3716 	 54.349 	 114.08
| 22> H 	 -32.1736 	 54.8475 	 115.375
| 23> S 	 -25.8884 	 58.5009 	 110.43
| 24> C 	 -26.3519 	 59.3776 	 108.995
| 25> C 	 -27.6936 	 59.4108 	 108.694
| 26> C 	 -28.4319 	 58.5782 	 109.645
| 27> C 	 -27.5563 	 57.9816 	 110.57
| 28> H 	 -27.9747 	 59.9036 	 107.792
| 29> C 	 -29.8685 	 58.1763 	 109.514
| 30> H 	 -30.175 	 57.5424 	 110.4
| 31> H 	 -29.7349 	 57.5278 	 108.659
| 32> C 	 -30.921 	 59.2914 	 109.153
| 33> H 	 -31.9292 	 58.8439 	 108.96
| 34> H 	 -30.625 	 59.8059 	 108.26
| 35> C 	 -30.9641 	 60.3135 	 110.301
| 36> H 	 -31.7968 	 61.0424 	 110.16
| 37> H 	 -30.0195 	 60.855 	 110.322
| 38> H 	 -30.9936 	 59.7867 	 111.252
| 39> H 	 -28.1169 	 54.0535 	 113.498
| 40> H 	 -25.5787 	 59.9888 	 108.403
| 41> *
| 42>
| 43>                          ****END OF INPUT****

CARTESIAN COORDINATES (ANGSTROEM)
---------------------------------
  S    -27.250500   55.414600  111.542000
  C    -27.939400   55.033900  113.103000
  C    -28.487700   56.130700  113.719000
  C    -28.358400   57.274500  112.852000
  C    -27.769800   57.054700  111.649000
  H    -28.671400   58.227800  113.108000
  C    -29.043900   56.264700  115.162000
  H    -29.645600   57.205000  115.142000
  H    -28.220800   56.406800  115.896000
  C    -29.902500   55.117000  115.654000
  H    -29.356700   54.085400  115.605000
  H    -30.097300   55.257000  116.775000
  C    -31.268500   55.126400  114.853000
  H    -31.338000   56.119200  114.476000
  H    -31.371600   54.349000  114.080000
  H    -32.173600   54.847500  115.375000
  S    -25.888400   58.500900  110.430000
  C    -26.351900   59.377600  108.995000
  C    -27.693600   59.410800  108.694000
  C    -28.431900   58.578200  109.645000
  C    -27.556300   57.981600  110.570000
  H    -27.974700   59.903600  107.792000
  C    -29.868500   58.176300  109.514000
  H    -30.175000   57.542400  110.400000
  H    -29.734900   57.527800  108.659000
  C    -30.921000   59.291400  109.153000
  H    -31.929200   58.843900  108.960000
  H    -30.625000   59.805900  108.260000
  C    -30.964100   60.313500  110.301000
  H    -31.796800   61.042400  110.160000
  H    -30.019500   60.855000  110.322000
  H    -30.993600   59.786700  111.252000
  H    -28.116900   54.053500  113.498000
  H    -25.578700   59.988800  108.403000

 Total Charge           Charge          ....    0
 Multiplicity           Mult            ....    1
 Number of Electrons    NEL             ....  134
 Basis Dimension        Dim             ....  322

ORBITAL ENERGIES
----------------

  NO   OCC          E(Eh)            E(eV)
   0   2.0000     -88.964718     -2420.8531
   1   2.0000     -88.963220     -2420.8123
   2   2.0000     -10.321599      -280.8650
   3   2.0000     -10.321024      -280.8493
   4   2.0000     -10.319163      -280.7987
   5   2.0000     -10.312380      -280.6141
   6   2.0000     -10.309549      -280.5371
   7   2.0000     -10.305037      -280.4143
   8   2.0000     -10.302419      -280.3431
   9   2.0000     -10.300093      -280.2798
  10   2.0000     -10.297050      -280.1970
  11   2.0000     -10.294549      -280.1289
  12   2.0000     -10.291864      -280.0559
  13   2.0000     -10.283878      -279.8386
  14   2.0000     -10.277424      -279.6629
  15   2.0000     -10.276667      -279.6423
  16   2.0000      -8.079813      -219.8629
  17   2.0000      -8.078566      -219.8289
  18   2.0000      -6.038158      -164.3066
  19   2.0000      -6.037052      -164.2765
  20   2.0000      -6.034481      -164.2066
  21   2.0000      -6.032961      -164.1652
  22   2.0000      -6.030516      -164.0987
  23   2.0000      -6.029337      -164.0666
  24   2.0000      -1.008779       -27.4503
  25   2.0000      -0.982859       -26.7449
  26   2.0000      -0.909625       -24.7522
  27   2.0000      -0.906626       -24.6706
  28   2.0000      -0.868393       -23.6302
  29   2.0000      -0.848770       -23.0962
  30   2.0000      -0.842969       -22.9383
  31   2.0000      -0.812827       -22.1181
  32   2.0000      -0.783090       -21.3090
  33   2.0000      -0.768249       -20.9051
  34   2.0000      -0.707234       -19.2448
  35   2.0000      -0.702257       -19.1094
  36   2.0000      -0.687748       -18.7146
  37   2.0000      -0.654253       -17.8031
  38   2.0000      -0.641803       -17.4643
  39   2.0000      -0.611272       -16.6335
  40   2.0000      -0.589431       -16.0392
  41   2.0000      -0.571703       -15.5568
  42   2.0000      -0.565960       -15.4006
  43   2.0000      -0.553272       -15.0553
  44   2.0000      -0.544111       -14.8060
  45   2.0000      -0.528923       -14.3927
  46   2.0000      -0.515025       -14.0146
  47   2.0000      -0.505063       -13.7435
  48   2.0000      -0.496340       -13.5061
  49   2.0000      -0.491526       -13.3751
  50   2.0000      -0.483590       -13.1591
  51   2.0000      -0.470681       -12.8079
  52   2.0000      -0.469998       -12.7893
  53   2.0000      -0.464329       -12.6350
  54   2.0000      -0.458340       -12.4721
  55   2.0000      -0.450052       -12.2465
  56   2.0000      -0.439924       -11.9709
  57   2.0000      -0.434444       -11.8218
  58   2.0000      -0.432267       -11.7626
  59   2.0000      -0.429948       -11.6995
  60   2.0000      -0.427746       -11.6396
  61   2.0000      -0.423198       -11.5158
  62   2.0000      -0.409052       -11.1309
  63   2.0000      -0.337411        -9.1814
  64   2.0000      -0.328555        -8.9404
  65   2.0000      -0.325064        -8.8454
  66   2.0000      -0.300509        -8.1773
  67   0.0000       0.045766         1.2454
  68   0.0000       0.059718         1.6250
  69   0.0000       0.113795         3.0965
  70   0.0000       0.120641         3.2828
  71   0.0000       0.126076         3.4307

MULLIKEN ATOMIC CHARGES
-----------------------
   0 S :    0.120406
   1 C :   -0.116422
   2 C :   -0.084793
   3 C :    0.072175
   4 C :   -0.179927
   5 H :   -0.028569
   6 C :    0.044959
   7 H :    0.033494
   8 H :    0.056160
   9 C :   -0.134493
  10 H :    0.048483
  11 H :    0.046812
  12 C :   -0.033217
  13 H :    0.026077
  14 H :    0.033249
  15 H :    0.026014
  16 S :    0.118248
  17 C :   -0.115784
  18 C :   -0.035124
  19 C :   -0.001979
  20 C :   -0.195781
  21 H :    0.017103
  22 C :    0.016570
  23 H :    0.054049
  24 H :    0.045099
  25 C :   -0.062551
  26 H :    0.041579
  27 H :    0.022586
  28 C :   -0.059117
  29 H :    0.044014
  30 H :    0.037942
  31 H :    0.027461
  32 H :    0.038697
  33 H :    0.076580
Sum of atomic charges:    0.0000000

LOEWDIN ATOMIC CHARGES
----------------------
   0 S :    0.417369
   1 C :   -0.194282
   2 C :   -0.065043
   3 C :   -0.055055
   4 C :   -0.214865
   5 H :    0.016210
   6 C :   -0.035537
   7 H :    0.032078
   8 H :    0.039514
   9 C :   -0.054381
  10 H :    0.031182
  11 H :    0.032827
  12 C :   -0.070912
  13 H :    0.020769
  14 H :    0.030838
  15 H :    0.025570
  16 S :    0.405728
  17 C :   -0.188011
  18 C :   -0.077682
  19 C :   -0.041644
  20 C :   -0.211118
  21 H :    0.031276
  22 C :   -0.038356
  23 H :    0.040594
  24 H :    0.039259
  25 C :   -0.038349
  26 H :    0.029987
  27 H :    0.018022
  28 C :   -0.068188
  29 H :    0.029067
  30 H :    0.026737
  31 H :    0.022968
  32 H :    0.023707
  33 H :    0.039719

  Mayer bond orders larger than 0.100000
B(  0-S ,  1-C ) :   1.1419 B(  0-S ,  4-C ) :   1.1493 B(  1-C ,  2-C ) :   1.6318
B(  1-C , 32-H ) :   0.9649 B(  2-C ,  3-C ) :   1.2313 B(  2-C ,  6-C ) :   0.9925
B(  3-C ,  4-C ) :   1.6019 B(  3-C ,  5-H ) :   1.0099 B(  4-C , 20-C ) :   1.0079
B(  6-C ,  7-H ) :   0.9475 B(  6-C ,  8-H ) :   0.9384 B(  6-C ,  9-C ) :   1.0841
B(  9-C , 10-H ) :   0.9551 B(  9-C , 11-H ) :   0.9570 B(  9-C , 12-C ) :   1.0440
B( 12-C , 13-H ) :   0.9828 B( 12-C , 14-H ) :   0.9740 B( 12-C , 15-H ) :   0.9771
B( 16-S , 17-C ) :   1.1507 B( 16-S , 20-C ) :   1.1446 B( 17-C , 18-C ) :   1.6596
B( 17-C , 33-H ) :   0.9523 B( 18-C , 19-C ) :   1.1736 B( 18-C , 21-H ) :   0.9955
B( 19-C , 20-C ) :   1.6223 B( 19-C , 22-C ) :   1.0271 B( 22-C , 23-H ) :   0.9384
B( 22-C , 24-H ) :   0.9331 B( 22-C , 25-C ) :   1.0675 B( 25-C , 26-H ) :   0.9589
B( 25-C , 27-H ) :   0.9542 B( 25-C , 28-C ) :   1.0708 B( 28-C , 29-H ) :   0.9753
B( 28-C , 30-H ) :   0.9723 B( 28-C , 31-H ) :   0.9767

Dispersion correction           -0.014680661
FINAL SINGLE POINT ENERGY     -1339.871239961550

DIPOLE MOMENT
-------------
                                X             Y             Z
Electronic contribution:     25.01411      -2.83278      -9.58119
Nuclear contribution   :    -25.54841       2.99992       9.64952
                        -----------------------------------------
Total Dipole Moment    :     -0.53430       0.16714       0.06833
                        -----------------------------------------
Magnitude (a.u.)       :      0.56399
Magnitude (Debye)      :      1.43354

Rotational constants in cm-1:     0.019760     0.008624     0.006757
Rotational constants in MHz :   592.402330   258.544475   202.579497

                             ****ORCA TERMINATED NORMALLY****
TOTAL RUN TIME: 0 days 0 hours 0 minutes 29 seconds 866 msec
