                         Program Version 4.2.1 -  RELEASE  -
|  1> ! wB97X-D3 SP def2-SVP
|  2> %pal
|  3> nprocs 16
|  4> end
|  5>
|  6> * xyz 0 1
|  7> S 	 -64.3454 	 35.2988 	 118.724
|  8> C 	 -64.4725 	 34.9338 	 120.448
|  9> C 	 -65.3157 	 35.748 	 121.139
| 10> C 	 -65.8318 	 36.7789 	 120.265
| 11> C 	 -65.4231 	 36.6005 	 118.933
| 12> H 	 -66.4232 	 37.6266 	 120.532
| 13> C 	 -65.6835 	 35.5887 	 122.604
| 14> H 	 -64.8047 	 35.4949 	 123.185
| 15> H 	 -66.2349 	 34.6662 	 122.636
| 16> C 	 -66.5517 	 36.6923 	 123.231
| 17> H 	 -66.5816 	 36.6587 	 124.357
| 18> H 	 -66.1942 	 37.7094 	 122.922
| 19> C 	 -68.0136 	 36.5624 	 122.755
| 20> H 	 -68.6224 	 37.2414 	 123.207
| 21> H 	 -68.0632 	 36.665 	 121.672
| 22> H 	 -68.3994 	 35.5787 	 122.87
| 23> S 	 -64.5931 	 37.9583 	 116.571
| 24> C 	 -65.7438 	 38.6225 	 115.484
| 25> C 	 -67.0279 	 38.5035 	 116.028
| 26> C 	 -67.0307 	 37.9016 	 117.352
| 27> C 	 -65.8228 	 37.421 	 117.76
| 28> H 	 -67.94 	 38.7743 	 115.482
| 29> C 	 -68.3186 	 37.737 	 118.019
| 30> H 	 -68.8448 	 38.6493 	 117.759
| 31> H 	 -68.127 	 37.7899 	 119.128
| 32> C 	 -69.2612 	 36.5453 	 117.681
| 33> H 	 -69.9208 	 36.276 	 118.523
| 34> H 	 -68.7251 	 35.6282 	 117.607
| 35> C 	 -70.1839 	 36.7405 	 116.494
| 36> H 	 -70.6628 	 37.711 	 116.588
| 37> H 	 -71.0331 	 36.1203 	 116.614
| 38> H 	 -69.8397 	 36.4877 	 115.5
| 39> H 	 -63.9459 	 34.2217 	 121.07
| 40> H 	 -65.4148 	 39.1521 	 114.614
| 41> *
| 42>
| 43>                          ****END OF INPUT****

CARTESIAN COORDINATES (ANGSTROEM)
---------------------------------
  S    -64.345400   35.298800  118.724000
  C    -64.472500   34.933800  120.448000
  C    -65.315700   35.748000  121.139000
  C    -65.831800   36.778900  120.265000
  C    -65.423100   36.600500  118.933000
  H    -66.423200   37.626600  120.532000
  C    -65.683500   35.588700  122.604000
  H    -64.804700   35.494900  123.185000
  H    -66.234900   34.666200  122.636000
  C    -66.551700   36.692300  123.231000
  H    -66.581600   36.658700  124.357000
  H    -66.194200   37.709400  122.922000
  C    -68.013600   36.562400  122.755000
  H    -68.622400   37.241400  123.207000
  H    -68.063200   36.665000  121.672000
  H    -68.399400   35.578700  122.870000
  S    -64.593100   37.958300  116.571000
  C    -65.743800   38.622500  115.484000
  C    -67.027900   38.503500  116.028000
  C    -67.030700   37.901600  117.352000
  C    -65.822800   37.421000  117.760000
  H    -67.940000   38.774300  115.482000
  C    -68.318600   37.737000  118.019000
  H    -68.844800   38.649300  117.759000
  H    -68.127000   37.789900  119.128000
  C    -69.261200   36.545300  117.681000
  H    -69.920800   36.276000  118.523000
  H    -68.725100   35.628200  117.607000
  C    -70.183900   36.740500  116.494000
  H    -70.662800   37.711000  116.588000
  H    -71.033100   36.120300  116.614000
  H    -69.839700   36.487700  115.500000
  H    -63.945900   34.221700  121.070000
  H    -65.414800   39.152100  114.614000

 Total Charge           Charge          ....    0
 Multiplicity           Mult            ....    1
 Number of Electrons    NEL             ....  134
 Basis Dimension        Dim             ....  322

ORBITAL ENERGIES
----------------

  NO   OCC          E(Eh)            E(eV)
   0   2.0000     -88.971695     -2421.0429
   1   2.0000     -88.960559     -2420.7399
   2   2.0000     -10.331497      -281.1343
   3   2.0000     -10.327762      -281.0327
   4   2.0000     -10.318423      -280.7786
   5   2.0000     -10.308198      -280.5003
   6   2.0000     -10.301122      -280.3078
   7   2.0000     -10.298210      -280.2285
   8   2.0000     -10.297320      -280.2043
   9   2.0000     -10.297134      -280.1993
  10   2.0000     -10.294789      -280.1354
  11   2.0000     -10.291543      -280.0471
  12   2.0000     -10.288629      -279.9678
  13   2.0000     -10.284372      -279.8520
  14   2.0000     -10.271638      -279.5055
  15   2.0000     -10.267423      -279.3908
  16   2.0000      -8.086488      -220.0445
  17   2.0000      -8.075584      -219.7478
  18   2.0000      -6.045009      -164.4931
  19   2.0000      -6.041016      -164.3844
  20   2.0000      -6.037193      -164.2804
  21   2.0000      -6.034124      -164.1969
  22   2.0000      -6.029907      -164.0821
  23   2.0000      -6.026432      -163.9876
  24   2.0000      -1.006716       -27.3941
  25   2.0000      -0.985083       -26.8055
  26   2.0000      -0.916826       -24.9481
  27   2.0000      -0.910060       -24.7640
  28   2.0000      -0.869368       -23.6567
  29   2.0000      -0.856513       -23.3069
  30   2.0000      -0.841150       -22.8889
  31   2.0000      -0.814418       -22.1614
  32   2.0000      -0.788111       -21.4456
  33   2.0000      -0.777528       -21.1576
  34   2.0000      -0.713194       -19.4070
  35   2.0000      -0.702927       -19.1276
  36   2.0000      -0.690201       -18.7813
  37   2.0000      -0.664977       -18.0949
  38   2.0000      -0.636466       -17.3191
  39   2.0000      -0.623014       -16.9531
  40   2.0000      -0.593301       -16.1445
  41   2.0000      -0.570524       -15.5247
  42   2.0000      -0.559902       -15.2357
  43   2.0000      -0.552488       -15.0340
  44   2.0000      -0.544490       -14.8163
  45   2.0000      -0.536542       -14.6000
  46   2.0000      -0.524188       -14.2639
  47   2.0000      -0.515624       -14.0308
  48   2.0000      -0.502110       -13.6631
  49   2.0000      -0.494723       -13.4621
  50   2.0000      -0.488640       -13.2966
  51   2.0000      -0.485376       -13.2078
  52   2.0000      -0.476407       -12.9637
  53   2.0000      -0.464619       -12.6429
  54   2.0000      -0.460699       -12.5363
  55   2.0000      -0.447627       -12.1805
  56   2.0000      -0.440835       -11.9957
  57   2.0000      -0.437206       -11.8970
  58   2.0000      -0.433279       -11.7901
  59   2.0000      -0.431790       -11.7496
  60   2.0000      -0.422890       -11.5074
  61   2.0000      -0.418164       -11.3788
  62   2.0000      -0.408984       -11.1290
  63   2.0000      -0.347896        -9.4667
  64   2.0000      -0.333124        -9.0648
  65   2.0000      -0.324556        -8.8316
  66   2.0000      -0.290869        -7.9149
  67   0.0000       0.030003         0.8164
  68   0.0000       0.074976         2.0402
  69   0.0000       0.111346         3.0299
  70   0.0000       0.113271         3.0823
  71   0.0000       0.133432         3.6309

MULLIKEN ATOMIC CHARGES
-----------------------
   0 S :    0.137022
   1 C :   -0.110852
   2 C :   -0.110558
   3 C :    0.010360
   4 C :   -0.144207
   5 H :    0.012497
   6 C :    0.108561
   7 H :    0.028830
   8 H :    0.035725
   9 C :   -0.114706
  10 H :    0.043335
  11 H :    0.039546
  12 C :   -0.007523
  13 H :    0.017766
  14 H :    0.014208
  15 H :    0.013053
  16 S :    0.086979
  17 C :   -0.088020
  18 C :   -0.040361
  19 C :   -0.044613
  20 C :   -0.143774
  21 H :    0.030793
  22 C :    0.054403
  23 H :    0.015001
  24 H :    0.018147
  25 C :   -0.038356
  26 H :    0.023106
  27 H :    0.020609
  28 C :   -0.025471
  29 H :    0.017161
  30 H :    0.009138
  31 H :    0.042116
  32 H :    0.028030
  33 H :    0.062059
Sum of atomic charges:    0.0000000

LOEWDIN ATOMIC CHARGES
----------------------
   0 S :    0.429764
   1 C :   -0.203698
   2 C :   -0.055050
   3 C :   -0.068551
   4 C :   -0.201084
   5 H :    0.023861
   6 C :   -0.027251
   7 H :    0.029004
   8 H :    0.035456
   9 C :   -0.040994
  10 H :    0.032204
  11 H :    0.027293
  12 C :   -0.057527
  13 H :    0.011998
  14 H :    0.023310
  15 H :    0.020775
  16 S :    0.393079
  17 C :   -0.186763
  18 C :   -0.074209
  19 C :   -0.061991
  20 C :   -0.189366
  21 H :    0.034042
  22 C :   -0.039260
  23 H :    0.030662
  24 H :    0.034491
  25 C :   -0.037412
  26 H :    0.031322
  27 H :    0.023338
  28 C :   -0.068683
  29 H :    0.025436
  30 H :    0.024402
  31 H :    0.025228
  32 H :    0.028390
  33 H :    0.027785

  Mayer bond orders larger than 0.100000
B(  0-S ,  1-C ) :   1.1186 B(  0-S ,  4-C ) :   1.1716 B(  1-C ,  2-C ) :   1.6675
B(  1-C , 32-H ) :   0.9638 B(  2-C ,  3-C ) :   1.2342 B(  2-C ,  6-C ) :   0.9943
B(  3-C ,  4-C ) :   1.5632 B(  3-C ,  5-H ) :   0.9860 B(  4-C , 20-C ) :   1.0268
B(  6-C ,  7-H ) :   0.9333 B(  6-C ,  8-H ) :   0.9381 B(  6-C ,  9-C ) :   1.0829
B(  9-C , 10-H ) :   0.9565 B(  9-C , 11-H ) :   0.9536 B(  9-C , 12-C ) :   1.0741
B( 12-C , 13-H ) :   0.9726 B( 12-C , 14-H ) :   0.9742 B( 12-C , 15-H ) :   0.9685
B( 16-S , 17-C ) :   1.1725 B( 16-S , 20-C ) :   1.1198 B( 17-C , 18-C ) :   1.5738
B( 17-C , 33-H ) :   0.9734 B( 18-C , 19-C ) :   1.2391 B( 18-C , 21-H ) :   0.9883
B( 19-C , 20-C ) :   1.6100 B( 19-C , 22-C ) :   1.0654 B( 22-C , 23-H ) :   0.9278
B( 22-C , 24-H ) :   0.9269 B( 22-C , 25-C ) :   1.0616 B( 25-C , 26-H ) :   0.9548
B( 25-C , 27-H ) :   0.9531 B( 25-C , 28-C ) :   1.0904 B( 28-C , 29-H ) :   0.9689
B( 28-C , 30-H ) :   0.9668 B( 28-C , 31-H ) :   0.9747

Dispersion correction           -0.014735201
FINAL SINGLE POINT ENERGY     -1339.871132117092

DIPOLE MOMENT
-------------
                                X             Y             Z
Electronic contribution:     25.09706       0.15451     -14.42004
Nuclear contribution   :    -25.72369      -0.15579      14.81302
                        -----------------------------------------
Total Dipole Moment    :     -0.62663      -0.00128       0.39298
                        -----------------------------------------
Magnitude (a.u.)       :      0.73966
Magnitude (Debye)      :      1.88007

Rotational constants in cm-1:     0.017676     0.009635     0.007169
Rotational constants in MHz :   529.901848   288.835082   214.930632

                             ****ORCA TERMINATED NORMALLY****
TOTAL RUN TIME: 0 days 0 hours 0 minutes 31 seconds 208 msec
