                         Program Version 4.2.1 -  RELEASE  -
|  1> ! wB97X-D3 SP def2-SVP
|  2> %pal
|  3> nprocs 16
|  4> end
|  5>
|  6> * xyz 0 1
|  7> S 	 -1.67757 	 -29.2161 	 84.0348
|  8> C 	 -1.01123 	 -30.445 	 82.935
|  9> C 	 0.225439 	 -30.1086 	 82.4128
| 10> C 	 0.603088 	 -28.794 	 82.8096
| 11> C 	 -0.426963 	 -28.1365 	 83.5354
| 12> H 	 1.61435 	 -28.4189 	 82.6473
| 13> C 	 1.11304 	 -30.9782 	 81.6263
| 14> H 	 1.04008 	 -31.9689 	 81.9579
| 15> H 	 2.11501 	 -30.5964 	 81.8044
| 16> C 	 0.819281 	 -30.8055 	 80.1217
| 17> H 	 -0.230061 	 -31.0715 	 79.8821
| 18> H 	 0.893926 	 -29.6848 	 79.8968
| 19> C 	 1.7854 	 -31.6461 	 79.269
| 20> H 	 1.43563 	 -32.6596 	 79.3991
| 21> H 	 1.8388 	 -31.5046 	 78.1353
| 22> H 	 2.81453 	 -31.6174 	 79.6808
| 23> S 	 0.227044 	 -26.7761 	 85.7974
| 24> C 	 0.174392 	 -24.9973 	 85.7897
| 25> C 	 -0.0100361 	 -24.481 	 84.5085
| 26> C 	 -0.313463 	 -25.5529 	 83.5727
| 27> C 	 -0.294958 	 -26.8266 	 84.1544
| 28> H 	 -0.0370249 	 -23.3806 	 84.3552
| 29> C 	 -0.687532 	 -25.2886 	 82.1102
| 30> H 	 -1.11345 	 -24.3104 	 81.9091
| 31> H 	 -1.44544 	 -26.029 	 81.9884
| 32> C 	 0.475707 	 -25.5338 	 81.0806
| 33> H 	 0.14863 	 -25.3813 	 80.0391
| 34> H 	 0.753512 	 -26.5903 	 81.1844
| 35> C 	 1.7514 	 -24.6896 	 81.3282
| 36> H 	 1.98928 	 -24.66 	 82.3855
| 37> H 	 1.59742 	 -23.6816 	 81.002
| 38> H 	 2.54788 	 -25.0691 	 80.8034
| 39> H 	 -1.34718 	 -31.4275 	 82.6222
| 40> H 	 0.311969 	 -24.4381 	 86.7084
| 41> *
| 42>
| 43>                          ****END OF INPUT****

CARTESIAN COORDINATES (ANGSTROEM)
---------------------------------
  S     -1.677570  -29.216100   84.034800
  C     -1.011230  -30.445000   82.935000
  C      0.225439  -30.108600   82.412800
  C      0.603088  -28.794000   82.809600
  C     -0.426963  -28.136500   83.535400
  H      1.614350  -28.418900   82.647300
  C      1.113040  -30.978200   81.626300
  H      1.040080  -31.968900   81.957900
  H      2.115010  -30.596400   81.804400
  C      0.819281  -30.805500   80.121700
  H     -0.230061  -31.071500   79.882100
  H      0.893926  -29.684800   79.896800
  C      1.785400  -31.646100   79.269000
  H      1.435630  -32.659600   79.399100
  H      1.838800  -31.504600   78.135300
  H      2.814530  -31.617400   79.680800
  S      0.227044  -26.776100   85.797400
  C      0.174392  -24.997300   85.789700
  C     -0.010036  -24.481000   84.508500
  C     -0.313463  -25.552900   83.572700
  C     -0.294958  -26.826600   84.154400
  H     -0.037025  -23.380600   84.355200
  C     -0.687532  -25.288600   82.110200
  H     -1.113450  -24.310400   81.909100
  H     -1.445440  -26.029000   81.988400
  C      0.475707  -25.533800   81.080600
  H      0.148630  -25.381300   80.039100
  H      0.753512  -26.590300   81.184400
  C      1.751400  -24.689600   81.328200
  H      1.989280  -24.660000   82.385500
  H      1.597420  -23.681600   81.002000
  H      2.547880  -25.069100   80.803400
  H     -1.347180  -31.427500   82.622200
  H      0.311969  -24.438100   86.708400

 Total Charge           Charge          ....    0
 Multiplicity           Mult            ....    1
 Number of Electrons    NEL             ....  134
 Basis Dimension        Dim             ....  322

ORBITAL ENERGIES
----------------

  NO   OCC          E(Eh)            E(eV)
   0   2.0000     -88.975722     -2421.1525
   1   2.0000     -88.963805     -2420.8282
   2   2.0000     -10.330826      -281.1161
   3   2.0000     -10.321834      -280.8714
   4   2.0000     -10.319988      -280.8212
   5   2.0000     -10.314062      -280.6599
   6   2.0000     -10.306606      -280.4570
   7   2.0000     -10.301570      -280.3200
   8   2.0000     -10.299258      -280.2570
   9   2.0000     -10.297398      -280.2064
  10   2.0000     -10.295843      -280.1641
  11   2.0000     -10.289495      -279.9914
  12   2.0000     -10.286618      -279.9131
  13   2.0000     -10.286013      -279.8966
  14   2.0000     -10.284058      -279.8434
  15   2.0000     -10.262885      -279.2673
  16   2.0000      -8.089682      -220.1314
  17   2.0000      -8.078703      -219.8327
  18   2.0000      -6.048213      -164.5803
  19   2.0000      -6.044422      -164.4771
  20   2.0000      -6.040339      -164.3660
  21   2.0000      -6.037158      -164.2794
  22   2.0000      -6.033254      -164.1732
  23   2.0000      -6.029453      -164.0698
  24   2.0000      -1.005910       -27.3722
  25   2.0000      -0.980742       -26.6873
  26   2.0000      -0.920524       -25.0487
  27   2.0000      -0.898218       -24.4418
  28   2.0000      -0.866905       -23.5897
  29   2.0000      -0.849503       -23.1162
  30   2.0000      -0.841990       -22.9117
  31   2.0000      -0.810855       -22.0645
  32   2.0000      -0.784115       -21.3369
  33   2.0000      -0.770795       -20.9744
  34   2.0000      -0.706391       -19.2219
  35   2.0000      -0.700717       -19.0675
  36   2.0000      -0.687421       -18.7057
  37   2.0000      -0.660311       -17.9680
  38   2.0000      -0.634678       -17.2705
  39   2.0000      -0.619787       -16.8653
  40   2.0000      -0.585810       -15.9407
  41   2.0000      -0.573134       -15.5958
  42   2.0000      -0.561616       -15.2824
  43   2.0000      -0.550756       -14.9868
  44   2.0000      -0.543605       -14.7923
  45   2.0000      -0.523251       -14.2384
  46   2.0000      -0.519324       -14.1315
  47   2.0000      -0.507494       -13.8096
  48   2.0000      -0.503579       -13.7031
  49   2.0000      -0.494464       -13.4550
  50   2.0000      -0.486094       -13.2273
  51   2.0000      -0.475122       -12.9287
  52   2.0000      -0.470609       -12.8059
  53   2.0000      -0.462406       -12.5827
  54   2.0000      -0.460615       -12.5340
  55   2.0000      -0.451156       -12.2766
  56   2.0000      -0.441692       -12.0191
  57   2.0000      -0.436147       -11.8682
  58   2.0000      -0.434747       -11.8301
  59   2.0000      -0.432360       -11.7651
  60   2.0000      -0.420907       -11.4535
  61   2.0000      -0.416708       -11.3392
  62   2.0000      -0.413014       -11.2387
  63   2.0000      -0.339065        -9.2264
  64   2.0000      -0.330694        -8.9986
  65   2.0000      -0.318306        -8.6615
  66   2.0000      -0.301440        -8.2026
  67   0.0000       0.032100         0.8735
  68   0.0000       0.056333         1.5329
  69   0.0000       0.101221         2.7544
  70   0.0000       0.118006         3.2111
  71   0.0000       0.128772         3.5041

MULLIKEN ATOMIC CHARGES
-----------------------
   0 S :    0.141293
   1 C :   -0.090911
   2 C :   -0.138960
   3 C :    0.051233
   4 C :   -0.187176
   5 H :    0.029502
   6 C :    0.108751
   7 H :    0.014598
   8 H :    0.017451
   9 C :   -0.108667
  10 H :    0.033600
  11 H :    0.041148
  12 C :   -0.046094
  13 H :    0.022452
  14 H :    0.053276
  15 H :    0.031674
  16 S :    0.110639
  17 C :   -0.112691
  18 C :   -0.031216
  19 C :   -0.061465
  20 C :   -0.166496
  21 H :    0.040452
  22 C :    0.098809
  23 H :    0.021327
  24 H :    0.029390
  25 C :   -0.091947
  26 H :    0.031777
  27 H :    0.019978
  28 C :   -0.014523
  29 H :    0.033737
  30 H :    0.017082
  31 H :    0.014734
  32 H :    0.026662
  33 H :    0.060583
Sum of atomic charges:   -0.0000000

LOEWDIN ATOMIC CHARGES
----------------------
   0 S :    0.425254
   1 C :   -0.198399
   2 C :   -0.061695
   3 C :   -0.051806
   4 C :   -0.211672
   5 H :    0.033170
   6 C :   -0.024678
   7 H :    0.022507
   8 H :    0.033508
   9 C :   -0.040652
  10 H :    0.024553
  11 H :    0.029763
  12 C :   -0.078666
  13 H :    0.023184
  14 H :    0.035488
  15 H :    0.026043
  16 S :    0.403570
  17 C :   -0.175742
  18 C :   -0.074689
  19 C :   -0.051005
  20 C :   -0.222135
  21 H :    0.041524
  22 C :   -0.027352
  23 H :    0.026261
  24 H :    0.031539
  25 C :   -0.036762
  26 H :    0.023601
  27 H :    0.019362
  28 C :   -0.058366
  29 H :    0.026237
  30 H :    0.019984
  31 H :    0.014429
  32 H :    0.027432
  33 H :    0.026209

  Mayer bond orders larger than 0.100000
B(  0-S ,  1-C ) :   1.1309 B(  0-S ,  4-C ) :   1.1690 B(  1-C ,  2-C ) :   1.6181
B(  1-C ,  4-C ) :   0.1016 B(  1-C , 32-H ) :   0.9586 B(  2-C ,  3-C ) :   1.2703
B(  2-C ,  6-C ) :   1.0309 B(  3-C ,  4-C ) :   1.5396 B(  3-C ,  5-H ) :   0.9796
B(  4-C , 20-C ) :   1.0125 B(  6-C ,  7-H ) :   0.9362 B(  6-C ,  8-H ) :   0.9318
B(  6-C ,  9-C ) :   1.0510 B(  9-C , 10-H ) :   0.9616 B(  9-C , 11-H ) :   0.9578
B(  9-C , 12-C ) :   1.0624 B( 12-C , 13-H ) :   0.9730 B( 12-C , 14-H ) :   0.9758
B( 12-C , 15-H ) :   0.9735 B( 16-S , 17-C ) :   1.1531 B( 16-S , 20-C ) :   1.1539
B( 17-C , 18-C ) :   1.6090 B( 17-C , 33-H ) :   0.9692 B( 18-C , 19-C ) :   1.2247
B( 18-C , 21-H ) :   0.9865 B( 19-C , 20-C ) :   1.6107 B( 19-C , 22-C ) :   1.0281
B( 22-C , 23-H ) :   0.9478 B( 22-C , 24-H ) :   0.9310 B( 22-C , 25-C ) :   1.0665
B( 25-C , 26-H ) :   0.9579 B( 25-C , 27-H ) :   0.9544 B( 25-C , 28-C ) :   1.0764
B( 28-C , 29-H ) :   0.9741 B( 28-C , 30-H ) :   0.9747 B( 28-C , 31-H ) :   0.9736

Dispersion correction           -0.015087769
FINAL SINGLE POINT ENERGY     -1339.873210100451

DIPOLE MOMENT
-------------
                                X             Y             Z
Electronic contribution:    -12.43876       1.62236      26.53425
Nuclear contribution   :     12.76789      -1.70246     -26.94523
                        -----------------------------------------
Total Dipole Moment    :      0.32912      -0.08010      -0.41099
                        -----------------------------------------
Magnitude (a.u.)       :      0.53259
Magnitude (Debye)      :      1.35373

Rotational constants in cm-1:     0.019608     0.008906     0.006926
Rotational constants in MHz :   587.827724   266.985975   207.642066

                             ****ORCA TERMINATED NORMALLY****
TOTAL RUN TIME: 0 days 0 hours 0 minutes 35 seconds 310 msec
