                         Program Version 4.2.1 -  RELEASE  -
|  1> ! wB97X-D3 SP def2-SVP
|  2> %pal
|  3> nprocs 16
|  4> end
|  5>
|  6> * xyz 0 1
|  7> S 	 -56.4947 	 40.5438 	 114.694
|  8> C 	 -55.3557 	 40.8367 	 113.428
|  9> C 	 -55.9745 	 41.6385 	 112.468
| 10> C 	 -57.3497 	 41.8504 	 112.675
| 11> C 	 -57.8034 	 41.3073 	 113.846
| 12> H 	 -58.0128 	 42.479 	 112.115
| 13> C 	 -55.2612 	 42.1384 	 111.267
| 14> H 	 -55.6163 	 41.5609 	 110.452
| 15> H 	 -54.1703 	 41.9065 	 111.351
| 16> C 	 -55.4083 	 43.6723 	 110.937
| 17> H 	 -55.1005 	 43.7796 	 109.867
| 18> H 	 -56.3691 	 44.0925 	 110.853
| 19> C 	 -54.4171 	 44.4832 	 111.741
| 20> H 	 -54.7719 	 44.6617 	 112.766
| 21> H 	 -53.4493 	 44.0238 	 111.824
| 22> H 	 -54.2636 	 45.4999 	 111.286
| 23> S 	 -60.166 	 39.7372 	 113.969
| 24> C 	 -61.4572 	 40.3769 	 114.948
| 25> C 	 -61.258 	 41.6336 	 115.325
| 26> C 	 -59.9512 	 42.1221 	 114.967
| 27> C 	 -59.177 	 41.2161 	 114.283
| 28> H 	 -62.0338 	 42.1221 	 115.808
| 29> C 	 -59.4588 	 43.437 	 115.454
| 30> H 	 -58.347 	 43.4667 	 115.526
| 31> H 	 -59.7936 	 43.389 	 116.521
| 32> C 	 -59.8866 	 44.6251 	 114.555
| 33> H 	 -60.9275 	 44.6554 	 114.608
| 34> H 	 -59.6549 	 44.3625 	 113.5
| 35> C 	 -59.2283 	 45.9094 	 115.086
| 36> H 	 -59.5936 	 46.8558 	 114.654
| 37> H 	 -58.1266 	 45.9745 	 114.812
| 38> H 	 -59.252 	 45.972 	 116.151
| 39> H 	 -54.3914 	 40.3644 	 113.381
| 40> H 	 -62.401 	 39.8944 	 115.185
| 41> *
| 42>
| 43>                          ****END OF INPUT****

CARTESIAN COORDINATES (ANGSTROEM)
---------------------------------
  S    -56.494700   40.543800  114.694000
  C    -55.355700   40.836700  113.428000
  C    -55.974500   41.638500  112.468000
  C    -57.349700   41.850400  112.675000
  C    -57.803400   41.307300  113.846000
  H    -58.012800   42.479000  112.115000
  C    -55.261200   42.138400  111.267000
  H    -55.616300   41.560900  110.452000
  H    -54.170300   41.906500  111.351000
  C    -55.408300   43.672300  110.937000
  H    -55.100500   43.779600  109.867000
  H    -56.369100   44.092500  110.853000
  C    -54.417100   44.483200  111.741000
  H    -54.771900   44.661700  112.766000
  H    -53.449300   44.023800  111.824000
  H    -54.263600   45.499900  111.286000
  S    -60.166000   39.737200  113.969000
  C    -61.457200   40.376900  114.948000
  C    -61.258000   41.633600  115.325000
  C    -59.951200   42.122100  114.967000
  C    -59.177000   41.216100  114.283000
  H    -62.033800   42.122100  115.808000
  C    -59.458800   43.437000  115.454000
  H    -58.347000   43.466700  115.526000
  H    -59.793600   43.389000  116.521000
  C    -59.886600   44.625100  114.555000
  H    -60.927500   44.655400  114.608000
  H    -59.654900   44.362500  113.500000
  C    -59.228300   45.909400  115.086000
  H    -59.593600   46.855800  114.654000
  H    -58.126600   45.974500  114.812000
  H    -59.252000   45.972000  116.151000
  H    -54.391400   40.364400  113.381000
  H    -62.401000   39.894400  115.185000

 Total Charge           Charge          ....    0
 Multiplicity           Mult            ....    1
 Number of Electrons    NEL             ....  134
 Basis Dimension        Dim             ....  322

ORBITAL ENERGIES
----------------

  NO   OCC          E(Eh)            E(eV)
   0   2.0000     -88.962025     -2420.7798
   1   2.0000     -88.959719     -2420.7170
   2   2.0000     -10.323289      -280.9110
   3   2.0000     -10.322786      -280.8973
   4   2.0000     -10.312412      -280.6150
   5   2.0000     -10.311453      -280.5889
   6   2.0000     -10.299105      -280.2529
   7   2.0000     -10.296763      -280.1892
   8   2.0000     -10.289851      -280.0011
   9   2.0000     -10.289844      -280.0009
  10   2.0000     -10.288945      -279.9764
  11   2.0000     -10.288098      -279.9534
  12   2.0000     -10.287572      -279.9391
  13   2.0000     -10.282003      -279.7875
  14   2.0000     -10.281854      -279.7835
  15   2.0000     -10.276934      -279.6496
  16   2.0000      -8.077466      -219.7990
  17   2.0000      -8.074114      -219.7078
  18   2.0000      -6.035811      -164.2428
  19   2.0000      -6.032760      -164.1598
  20   2.0000      -6.031729      -164.1317
  21   2.0000      -6.028812      -164.0523
  22   2.0000      -6.028488      -164.0435
  23   2.0000      -6.024601      -163.9377
  24   2.0000      -1.008599       -27.4454
  25   2.0000      -0.987378       -26.8679
  26   2.0000      -0.911079       -24.7917
  27   2.0000      -0.908370       -24.7180
  28   2.0000      -0.873547       -23.7704
  29   2.0000      -0.850029       -23.1305
  30   2.0000      -0.846644       -23.0384
  31   2.0000      -0.821387       -22.3511
  32   2.0000      -0.779097       -21.2003
  33   2.0000      -0.765114       -20.8198
  34   2.0000      -0.714936       -19.4544
  35   2.0000      -0.704783       -19.1781
  36   2.0000      -0.694418       -18.8961
  37   2.0000      -0.658218       -17.9110
  38   2.0000      -0.647265       -17.6130
  39   2.0000      -0.621614       -16.9150
  40   2.0000      -0.594744       -16.1838
  41   2.0000      -0.573805       -15.6140
  42   2.0000      -0.559167       -15.2157
  43   2.0000      -0.555497       -15.1158
  44   2.0000      -0.533346       -14.5131
  45   2.0000      -0.526043       -14.3144
  46   2.0000      -0.520342       -14.1592
  47   2.0000      -0.516731       -14.0610
  48   2.0000      -0.506269       -13.7763
  49   2.0000      -0.501532       -13.6474
  50   2.0000      -0.484859       -13.1937
  51   2.0000      -0.477448       -12.9920
  52   2.0000      -0.472709       -12.8631
  53   2.0000      -0.462012       -12.5720
  54   2.0000      -0.456117       -12.4116
  55   2.0000      -0.448298       -12.1988
  56   2.0000      -0.444983       -12.1086
  57   2.0000      -0.442384       -12.0379
  58   2.0000      -0.435874       -11.8607
  59   2.0000      -0.429603       -11.6901
  60   2.0000      -0.424579       -11.5534
  61   2.0000      -0.406428       -11.0595
  62   2.0000      -0.403985       -10.9930
  63   2.0000      -0.336156        -9.1473
  64   2.0000      -0.326816        -8.8931
  65   2.0000      -0.319128        -8.6839
  66   2.0000      -0.310928        -8.4608
  67   0.0000       0.040670         1.1067
  68   0.0000       0.060873         1.6564
  69   0.0000       0.116078         3.1586
  70   0.0000       0.125667         3.4196
  71   0.0000       0.130838         3.5603

MULLIKEN ATOMIC CHARGES
-----------------------
   0 S :    0.120407
   1 C :   -0.133948
   2 C :   -0.067328
   3 C :    0.055645
   4 C :   -0.190351
   5 H :    0.005576
   6 C :    0.062153
   7 H :    0.031141
   8 H :    0.018784
   9 C :   -0.068752
  10 H :    0.020943
  11 H :    0.020597
  12 C :   -0.048701
  13 H :    0.037364
  14 H :    0.023570
  15 H :    0.035182
  16 S :    0.100616
  17 C :   -0.074886
  18 C :   -0.007267
  19 C :   -0.019910
  20 C :   -0.166148
  21 H :   -0.011310
  22 C :    0.012913
  23 H :    0.028882
  24 H :    0.038308
  25 C :   -0.027376
  26 H :    0.011807
  27 H :    0.034364
  28 C :   -0.045489
  29 H :    0.033313
  30 H :    0.035862
  31 H :    0.028987
  32 H :    0.053332
  33 H :    0.051722
Sum of atomic charges:   -0.0000000

LOEWDIN ATOMIC CHARGES
----------------------
   0 S :    0.424991
   1 C :   -0.204591
   2 C :   -0.068592
   3 C :   -0.055664
   4 C :   -0.200918
   5 H :    0.030011
   6 C :   -0.028728
   7 H :    0.028485
   8 H :    0.032888
   9 C :   -0.042213
  10 H :    0.029761
  11 H :    0.017031
  12 C :   -0.066715
  13 H :    0.026339
  14 H :    0.021088
  15 H :    0.030357
  16 S :    0.373328
  17 C :   -0.171932
  18 C :   -0.073840
  19 C :   -0.048477
  20 C :   -0.190981
  21 H :    0.022114
  22 C :   -0.039025
  23 H :    0.030506
  24 H :    0.037545
  25 C :   -0.031255
  26 H :    0.014042
  27 H :    0.030130
  28 C :   -0.070097
  29 H :    0.026028
  30 H :    0.033586
  31 H :    0.022067
  32 H :    0.029182
  33 H :    0.033549

  Mayer bond orders larger than 0.100000
B(  0-S ,  1-C ) :   1.1550 B(  0-S ,  4-C ) :   1.1680 B(  1-C ,  2-C ) :   1.5626
B(  1-C ,  4-C ) :   0.1003 B(  1-C , 32-H ) :   0.9758 B(  2-C ,  3-C ) :   1.2533
B(  2-C ,  6-C ) :   1.0323 B(  3-C ,  4-C ) :   1.5698 B(  3-C ,  5-H ) :   0.9981
B(  4-C , 20-C ) :   1.0317 B(  6-C ,  7-H ) :   0.9329 B(  6-C ,  8-H ) :   0.9458
B(  6-C ,  9-C ) :   1.0707 B(  9-C , 10-H ) :   0.9527 B(  9-C , 11-H ) :   0.9592
B(  9-C , 12-C ) :   1.0732 B( 12-C , 13-H ) :   0.9773 B( 12-C , 14-H ) :   0.9743
B( 12-C , 15-H ) :   0.9740 B( 16-S , 17-C ) :   1.1417 B( 16-S , 20-C ) :   1.1003
B( 17-C , 18-C ) :   1.6696 B( 17-C , 33-H ) :   0.9578 B( 18-C , 19-C ) :   1.1917
B( 18-C , 21-H ) :   1.0025 B( 19-C , 20-C ) :   1.6457 B( 19-C , 22-C ) :   1.0445
B( 22-C , 23-H ) :   0.9366 B( 22-C , 24-H ) :   0.9365 B( 22-C , 25-C ) :   1.0438
B( 25-C , 26-H ) :   0.9572 B( 25-C , 27-H ) :   0.9546 B( 25-C , 28-C ) :   1.0766
B( 28-C , 29-H ) :   0.9749 B( 28-C , 30-H ) :   0.9739 B( 28-C , 31-H ) :   0.9732

Dispersion correction           -0.014580465
FINAL SINGLE POINT ENERGY     -1339.877150258662

DIPOLE MOMENT
-------------
                                X             Y             Z
Electronic contribution:     -8.19396     -27.01004       7.07503
Nuclear contribution   :      8.15610      27.56623      -7.26628
                        -----------------------------------------
Total Dipole Moment    :     -0.03787       0.55619      -0.19125
                        -----------------------------------------
Magnitude (a.u.)       :      0.58937
Magnitude (Debye)      :      1.49805

Rotational constants in cm-1:     0.017735     0.009426     0.007125
Rotational constants in MHz :   531.693677   282.593820   213.594649

                             ****ORCA TERMINATED NORMALLY****
TOTAL RUN TIME: 0 days 0 hours 0 minutes 30 seconds 869 msec
