                         Program Version 4.2.1 -  RELEASE  -
|  1> ! wB97X-D3 SP def2-SVP
|  2> %pal
|  3> nprocs 16
|  4> end
|  5>
|  6> * xyz 0 1
|  7> S 	 -54.8378 	 32.1062 	 89.6368
|  8> C 	 -56.4207 	 31.4502 	 90.0701
|  9> C 	 -57.0095 	 32.2667 	 91.0396
| 10> C 	 -56.1506 	 33.3664 	 91.4119
| 11> C 	 -54.8859 	 33.4745 	 90.7693
| 12> H 	 -56.4289 	 34.0845 	 92.1954
| 13> C 	 -58.4597 	 32.2052 	 91.4324
| 14> H 	 -58.7988 	 31.252 	 91.0704
| 15> H 	 -58.908 	 33.0974 	 90.9183
| 16> C 	 -58.8374 	 32.1536 	 92.9754
| 17> H 	 -58.5645 	 33.0608 	 93.5723
| 18> H 	 -59.893 	 32.0614 	 93.2425
| 19> C 	 -58.061 	 31.0074 	 93.5812
| 20> H 	 -58.4458 	 30.8329 	 94.5925
| 21> H 	 -58.2198 	 30.0864 	 93.1216
| 22> H 	 -57.0208 	 31.0266 	 93.6758
| 23> S 	 -52.4486 	 33.6321 	 91.917
| 24> C 	 -51.5925 	 35.2197 	 92.1103
| 25> C 	 -52.3857 	 36.1719 	 91.4804
| 26> C 	 -53.6363 	 35.7063 	 90.9709
| 27> C 	 -53.7621 	 34.303 	 91.073
| 28> H 	 -52.1927 	 37.2825 	 91.6003
| 29> C 	 -54.628 	 36.7281 	 90.3788
| 30> H 	 -55.2438 	 36.2571 	 89.5367
| 31> H 	 -54.003 	 37.5446 	 89.902
| 32> C 	 -55.4355 	 37.4394 	 91.4895
| 33> H 	 -54.7971 	 38.0387 	 92.1034
| 34> H 	 -55.9247 	 36.7036 	 92.1706
| 35> C 	 -56.511 	 38.4159 	 90.9296
| 36> H 	 -56.9928 	 39.0007 	 91.6939
| 37> H 	 -57.1843 	 37.8201 	 90.4072
| 38> H 	 -56.0919 	 39.1749 	 90.3044
| 39> H 	 -56.9618 	 30.6045 	 89.6235
| 40> H 	 -50.5582 	 35.3641 	 92.4456
| 41> *
| 42>
| 43>                          ****END OF INPUT****

CARTESIAN COORDINATES (ANGSTROEM)
---------------------------------
  S    -54.837800   32.106200   89.636800
  C    -56.420700   31.450200   90.070100
  C    -57.009500   32.266700   91.039600
  C    -56.150600   33.366400   91.411900
  C    -54.885900   33.474500   90.769300
  H    -56.428900   34.084500   92.195400
  C    -58.459700   32.205200   91.432400
  H    -58.798800   31.252000   91.070400
  H    -58.908000   33.097400   90.918300
  C    -58.837400   32.153600   92.975400
  H    -58.564500   33.060800   93.572300
  H    -59.893000   32.061400   93.242500
  C    -58.061000   31.007400   93.581200
  H    -58.445800   30.832900   94.592500
  H    -58.219800   30.086400   93.121600
  H    -57.020800   31.026600   93.675800
  S    -52.448600   33.632100   91.917000
  C    -51.592500   35.219700   92.110300
  C    -52.385700   36.171900   91.480400
  C    -53.636300   35.706300   90.970900
  C    -53.762100   34.303000   91.073000
  H    -52.192700   37.282500   91.600300
  C    -54.628000   36.728100   90.378800
  H    -55.243800   36.257100   89.536700
  H    -54.003000   37.544600   89.902000
  C    -55.435500   37.439400   91.489500
  H    -54.797100   38.038700   92.103400
  H    -55.924700   36.703600   92.170600
  C    -56.511000   38.415900   90.929600
  H    -56.992800   39.000700   91.693900
  H    -57.184300   37.820100   90.407200
  H    -56.091900   39.174900   90.304400
  H    -56.961800   30.604500   89.623500
  H    -50.558200   35.364100   92.445600

 Total Charge           Charge          ....    0
 Multiplicity           Mult            ....    1
 Number of Electrons    NEL             ....  134
 Basis Dimension        Dim             ....  322

ORBITAL ENERGIES
----------------

  NO   OCC          E(Eh)            E(eV)
   0   2.0000     -88.967345     -2420.9245
   1   2.0000     -88.966236     -2420.8944
   2   2.0000     -10.335966      -281.2559
   3   2.0000     -10.328232      -281.0455
   4   2.0000     -10.327135      -281.0156
   5   2.0000     -10.322354      -280.8855
   6   2.0000     -10.307229      -280.4740
   7   2.0000     -10.304871      -280.4098
   8   2.0000     -10.304675      -280.4045
   9   2.0000     -10.301517      -280.3185
  10   2.0000     -10.301414      -280.3157
  11   2.0000     -10.300212      -280.2830
  12   2.0000     -10.294717      -280.1335
  13   2.0000     -10.289463      -279.9905
  14   2.0000     -10.270141      -279.4647
  15   2.0000     -10.262637      -279.2606
  16   2.0000      -8.081915      -219.9201
  17   2.0000      -8.079993      -219.8678
  18   2.0000      -6.040504      -164.3705
  19   2.0000      -6.038641      -164.3198
  20   2.0000      -6.036241      -164.2545
  21   2.0000      -6.034354      -164.2031
  22   2.0000      -6.032747      -164.1594
  23   2.0000      -6.030913      -164.1095
  24   2.0000      -1.004121       -27.3235
  25   2.0000      -0.978550       -26.6277
  26   2.0000      -0.910589       -24.7784
  27   2.0000      -0.903624       -24.5888
  28   2.0000      -0.872879       -23.7522
  29   2.0000      -0.847133       -23.0517
  30   2.0000      -0.843054       -22.9407
  31   2.0000      -0.812725       -22.1154
  32   2.0000      -0.779419       -21.2091
  33   2.0000      -0.769307       -20.9339
  34   2.0000      -0.714888       -19.4531
  35   2.0000      -0.701648       -19.0928
  36   2.0000      -0.694103       -18.8875
  37   2.0000      -0.659827       -17.9548
  38   2.0000      -0.635730       -17.2991
  39   2.0000      -0.616005       -16.7624
  40   2.0000      -0.591361       -16.0918
  41   2.0000      -0.564800       -15.3690
  42   2.0000      -0.562480       -15.3058
  43   2.0000      -0.556249       -15.1363
  44   2.0000      -0.540455       -14.7065
  45   2.0000      -0.524911       -14.2836
  46   2.0000      -0.518986       -14.1223
  47   2.0000      -0.512669       -13.9504
  48   2.0000      -0.508570       -13.8389
  49   2.0000      -0.500696       -13.6246
  50   2.0000      -0.488765       -13.3000
  51   2.0000      -0.474555       -12.9133
  52   2.0000      -0.471468       -12.8293
  53   2.0000      -0.467118       -12.7109
  54   2.0000      -0.456240       -12.4149
  55   2.0000      -0.449109       -12.2209
  56   2.0000      -0.443340       -12.0639
  57   2.0000      -0.436210       -11.8699
  58   2.0000      -0.425353       -11.5744
  59   2.0000      -0.420260       -11.4359
  60   2.0000      -0.418916       -11.3993
  61   2.0000      -0.415093       -11.2953
  62   2.0000      -0.413899       -11.2628
  63   2.0000      -0.343607        -9.3500
  64   2.0000      -0.324862        -8.8399
  65   2.0000      -0.324406        -8.8275
  66   2.0000      -0.302473        -8.2307
  67   0.0000       0.029083         0.7914
  68   0.0000       0.056143         1.5277
  69   0.0000       0.110563         3.0086
  70   0.0000       0.119626         3.2552
  71   0.0000       0.122012         3.3201

MULLIKEN ATOMIC CHARGES
-----------------------
   0 S :    0.104593
   1 C :   -0.117450
   2 C :   -0.119228
   3 C :    0.043762
   4 C :   -0.179086
   5 H :    0.018949
   6 C :    0.058612
   7 H :    0.013893
   8 H :    0.062255
   9 C :   -0.068668
  10 H :    0.031120
  11 H :    0.036504
  12 C :   -0.032040
  13 H :    0.018314
  14 H :    0.000585
  15 H :    0.032246
  16 S :    0.115320
  17 C :   -0.118266
  18 C :   -0.038274
  19 C :   -0.033468
  20 C :   -0.149787
  21 H :    0.045665
  22 C :    0.017990
  23 H :    0.053677
  24 H :    0.033533
  25 C :   -0.087498
  26 H :    0.018247
  27 H :    0.035515
  28 C :   -0.001521
  29 H :    0.027895
  30 H :    0.021240
  31 H :    0.017876
  32 H :    0.060537
  33 H :    0.076959
Sum of atomic charges:   -0.0000000

LOEWDIN ATOMIC CHARGES
----------------------
   0 S :    0.395255
   1 C :   -0.195681
   2 C :   -0.072936
   3 C :   -0.057111
   4 C :   -0.197922
   5 H :    0.029718
   6 C :   -0.028721
   7 H :    0.026034
   8 H :    0.042505
   9 C :   -0.043618
  10 H :    0.026072
  11 H :    0.028908
  12 C :   -0.065348
  13 H :    0.028203
  14 H :    0.014484
  15 H :    0.021577
  16 S :    0.418942
  17 C :   -0.179613
  18 C :   -0.076636
  19 C :   -0.056485
  20 C :   -0.226509
  21 H :    0.041122
  22 C :   -0.037702
  23 H :    0.039864
  24 H :    0.036766
  25 C :   -0.037292
  26 H :    0.017431
  27 H :    0.024649
  28 C :   -0.055637
  29 H :    0.025735
  30 H :    0.016312
  31 H :    0.021190
  32 H :    0.037628
  33 H :    0.038816

  Mayer bond orders larger than 0.100000
B(  0-S ,  1-C ) :   1.1497 B(  0-S ,  4-C ) :   1.1397 B(  1-C ,  2-C ) :   1.5886
B(  1-C ,  4-C ) :   0.1053 B(  1-C , 32-H ) :   0.9610 B(  2-C ,  3-C ) :   1.2546
B(  2-C ,  6-C ) :   1.0228 B(  3-C ,  4-C ) :   1.5589 B(  3-C ,  5-H ) :   0.9880
B(  4-C , 20-C ) :   1.0467 B(  6-C ,  7-H ) :   0.9433 B(  6-C ,  8-H ) :   0.9447
B(  6-C ,  9-C ) :   1.0538 B(  9-C , 10-H ) :   0.9557 B(  9-C , 11-H ) :   0.9620
B(  9-C , 12-C ) :   1.0728 B( 12-C , 13-H ) :   0.9693 B( 12-C , 14-H ) :   0.9742
B( 12-C , 15-H ) :   0.9728 B( 16-S , 17-C ) :   1.1481 B( 16-S , 20-C ) :   1.1688
B( 17-C , 18-C ) :   1.5909 B( 17-C , 20-C ) :   0.1075 B( 17-C , 33-H ) :   0.9663
B( 18-C , 19-C ) :   1.2853 B( 18-C , 21-H ) :   0.9669 B( 19-C , 20-C ) :   1.5523
B( 19-C , 22-C ) :   1.0412 B( 22-C , 23-H ) :   0.9428 B( 22-C , 24-H ) :   0.9373
B( 22-C , 25-C ) :   1.0520 B( 25-C , 26-H ) :   0.9550 B( 25-C , 27-H ) :   0.9580
B( 25-C , 28-C ) :   1.0829 B( 28-C , 29-H ) :   0.9739 B( 28-C , 30-H ) :   0.9781
B( 28-C , 31-H ) :   0.9727

Dispersion correction           -0.014293786
FINAL SINGLE POINT ENERGY     -1339.862749353365

DIPOLE MOMENT
-------------
                                X             Y             Z
Electronic contribution:     21.99474     -11.16414      -8.43232
Nuclear contribution   :    -22.47996      11.61337       8.70289
                        -----------------------------------------
Total Dipole Moment    :     -0.48522       0.44923       0.27056
                        -----------------------------------------
Magnitude (a.u.)       :      0.71446
Magnitude (Debye)      :      1.81600

Rotational constants in cm-1:     0.016734     0.008890     0.007156
Rotational constants in MHz :   501.664895   266.511175   214.541411

                             ****ORCA TERMINATED NORMALLY****
TOTAL RUN TIME: 0 days 0 hours 0 minutes 29 seconds 378 msec
