                         Program Version 4.2.1 -  RELEASE  -
|  1> ! wB97X-D3 SP def2-SVP
|  2> %pal
|  3> nprocs 16
|  4> end
|  5>
|  6> * xyz 0 1
|  7> S 	 -43.8687 	 57.4112 	 100.251
|  8> C 	 -44.6792 	 56.2341 	 101.322
|  9> C 	 -45.8097 	 55.7134 	 100.659
| 10> C 	 -45.8279 	 56.1584 	 99.3352
| 11> C 	 -44.9243 	 57.0489 	 98.9085
| 12> H 	 -46.6201 	 55.8954 	 98.6147
| 13> C 	 -46.8876 	 54.8271 	 101.333
| 14> H 	 -47.7701 	 55.4449 	 101.526
| 15> H 	 -46.4925 	 54.4857 	 102.264
| 16> C 	 -47.2262 	 53.5533 	 100.435
| 17> H 	 -47.9203 	 53.8943 	 99.6025
| 18> H 	 -46.3507 	 53.2284 	 99.9453
| 19> C 	 -47.9689 	 52.377 	 101.138
| 20> H 	 -47.4221 	 52.052 	 102.025
| 21> H 	 -49.0082 	 52.6361 	 101.418
| 22> H 	 -48.1568 	 51.6451 	 100.34
| 23> S 	 -44.416 	 59.4961 	 97.8635
| 24> C 	 -44.3618 	 59.7112 	 96.1288
| 25> C 	 -44.6815 	 58.5381 	 95.4515
| 26> C 	 -45.0859 	 57.4706 	 96.3462
| 27> C 	 -44.9711 	 57.8455 	 97.6896
| 28> H 	 -44.537 	 58.4774 	 94.4066
| 29> C 	 -45.4006 	 56.1306 	 95.8054
| 30> H 	 -45.9981 	 56.2453 	 94.9261
| 31> H 	 -46.0216 	 55.7075 	 96.518
| 32> C 	 -44.1664 	 55.3389 	 95.3833
| 33> H 	 -43.6292 	 55.9371 	 94.6509
| 34> H 	 -44.5995 	 54.4591 	 94.8636
| 35> C 	 -43.1622 	 54.7973 	 96.4273
| 36> H 	 -43.7522 	 54.2659 	 97.2341
| 37> H 	 -42.5352 	 55.5384 	 96.9166
| 38> H 	 -42.4801 	 54.0909 	 95.9013
| 39> H 	 -44.4126 	 56.109 	 102.375
| 40> H 	 -43.9051 	 60.6035 	 95.6221
| 41> *
| 42>
| 43>                          ****END OF INPUT****

CARTESIAN COORDINATES (ANGSTROEM)
---------------------------------
  S    -43.868700   57.411200  100.251000
  C    -44.679200   56.234100  101.322000
  C    -45.809700   55.713400  100.659000
  C    -45.827900   56.158400   99.335200
  C    -44.924300   57.048900   98.908500
  H    -46.620100   55.895400   98.614700
  C    -46.887600   54.827100  101.333000
  H    -47.770100   55.444900  101.526000
  H    -46.492500   54.485700  102.264000
  C    -47.226200   53.553300  100.435000
  H    -47.920300   53.894300   99.602500
  H    -46.350700   53.228400   99.945300
  C    -47.968900   52.377000  101.138000
  H    -47.422100   52.052000  102.025000
  H    -49.008200   52.636100  101.418000
  H    -48.156800   51.645100  100.340000
  S    -44.416000   59.496100   97.863500
  C    -44.361800   59.711200   96.128800
  C    -44.681500   58.538100   95.451500
  C    -45.085900   57.470600   96.346200
  C    -44.971100   57.845500   97.689600
  H    -44.537000   58.477400   94.406600
  C    -45.400600   56.130600   95.805400
  H    -45.998100   56.245300   94.926100
  H    -46.021600   55.707500   96.518000
  C    -44.166400   55.338900   95.383300
  H    -43.629200   55.937100   94.650900
  H    -44.599500   54.459100   94.863600
  C    -43.162200   54.797300   96.427300
  H    -43.752200   54.265900   97.234100
  H    -42.535200   55.538400   96.916600
  H    -42.480100   54.090900   95.901300
  H    -44.412600   56.109000  102.375000
  H    -43.905100   60.603500   95.622100

 Total Charge           Charge          ....    0
 Multiplicity           Mult            ....    1
 Number of Electrons    NEL             ....  134
 Basis Dimension        Dim             ....  322

ORBITAL ENERGIES
----------------

  NO   OCC          E(Eh)            E(eV)
   0   2.0000     -88.965984     -2420.8875
   1   2.0000     -88.964428     -2420.8452
   2   2.0000     -10.328129      -281.0427
   3   2.0000     -10.325263      -280.9647
   4   2.0000     -10.320878      -280.8454
   5   2.0000     -10.319770      -280.8152
   6   2.0000     -10.304933      -280.4115
   7   2.0000     -10.303223      -280.3649
   8   2.0000     -10.299143      -280.2539
   9   2.0000     -10.293998      -280.1139
  10   2.0000     -10.293556      -280.1019
  11   2.0000     -10.288264      -279.9579
  12   2.0000     -10.285806      -279.8910
  13   2.0000     -10.285778      -279.8902
  14   2.0000     -10.281443      -279.7723
  15   2.0000     -10.279941      -279.7314
  16   2.0000      -8.080745      -219.8883
  17   2.0000      -8.078632      -219.8308
  18   2.0000      -6.039308      -164.3379
  19   2.0000      -6.037242      -164.2817
  20   2.0000      -6.035244      -164.2273
  21   2.0000      -6.033148      -164.1703
  22   2.0000      -6.031450      -164.1241
  23   2.0000      -6.029360      -164.0672
  24   2.0000      -1.008663       -27.4471
  25   2.0000      -0.982593       -26.7377
  26   2.0000      -0.913564       -24.8593
  27   2.0000      -0.902387       -24.5552
  28   2.0000      -0.867504       -23.6060
  29   2.0000      -0.848083       -23.0775
  30   2.0000      -0.840914       -22.8824
  31   2.0000      -0.816263       -22.2117
  32   2.0000      -0.785309       -21.3693
  33   2.0000      -0.772281       -21.0148
  34   2.0000      -0.708135       -19.2693
  35   2.0000      -0.696352       -18.9487
  36   2.0000      -0.690837       -18.7986
  37   2.0000      -0.660051       -17.9609
  38   2.0000      -0.642566       -17.4851
  39   2.0000      -0.620800       -16.8928
  40   2.0000      -0.596637       -16.2353
  41   2.0000      -0.566374       -15.4118
  42   2.0000      -0.561271       -15.2730
  43   2.0000      -0.548144       -14.9157
  44   2.0000      -0.540861       -14.7176
  45   2.0000      -0.525150       -14.2901
  46   2.0000      -0.515734       -14.0338
  47   2.0000      -0.510661       -13.8958
  48   2.0000      -0.503645       -13.7049
  49   2.0000      -0.500263       -13.6128
  50   2.0000      -0.491802       -13.3826
  51   2.0000      -0.484389       -13.1809
  52   2.0000      -0.469196       -12.7675
  53   2.0000      -0.465226       -12.6594
  54   2.0000      -0.459739       -12.5101
  55   2.0000      -0.446371       -12.1464
  56   2.0000      -0.442459       -12.0399
  57   2.0000      -0.439847       -11.9688
  58   2.0000      -0.429653       -11.6914
  59   2.0000      -0.422743       -11.5034
  60   2.0000      -0.419614       -11.4183
  61   2.0000      -0.415228       -11.2989
  62   2.0000      -0.411237       -11.1903
  63   2.0000      -0.354273        -9.6403
  64   2.0000      -0.331650        -9.0247
  65   2.0000      -0.329021        -8.9531
  66   2.0000      -0.285133        -7.7589
  67   0.0000       0.025315         0.6889
  68   0.0000       0.071551         1.9470
  69   0.0000       0.112569         3.0632
  70   0.0000       0.118739         3.2310
  71   0.0000       0.132293         3.5999

MULLIKEN ATOMIC CHARGES
-----------------------
   0 S :    0.087214
   1 C :   -0.143920
   2 C :   -0.092001
   3 C :   -0.017752
   4 C :   -0.098735
   5 H :    0.016514
   6 C :    0.113281
   7 H :    0.050566
   8 H :    0.007370
   9 C :   -0.128729
  10 H :    0.036450
  11 H :    0.032879
  12 C :   -0.043383
  13 H :    0.045100
  14 H :    0.029186
  15 H :    0.039187
  16 S :    0.097025
  17 C :   -0.114443
  18 C :   -0.026256
  19 C :   -0.079889
  20 C :   -0.144435
  21 H :    0.010273
  22 C :    0.156369
  23 H :    0.014049
  24 H :   -0.019924
  25 C :   -0.081198
  26 H :    0.022204
  27 H :    0.031704
  28 C :   -0.061751
  29 H :    0.041101
  30 H :    0.045130
  31 H :    0.039961
  32 H :    0.059040
  33 H :    0.077811
Sum of atomic charges:   -0.0000000

LOEWDIN ATOMIC CHARGES
----------------------
   0 S :    0.388167
   1 C :   -0.191626
   2 C :   -0.060735
   3 C :   -0.080137
   4 C :   -0.193074
   5 H :    0.030435
   6 C :   -0.020784
   7 H :    0.036631
   8 H :    0.022349
   9 C :   -0.042262
  10 H :    0.028515
  11 H :    0.017158
  12 C :   -0.068799
  13 H :    0.025268
  14 H :    0.027008
  15 H :    0.032612
  16 S :    0.405543
  17 C :   -0.195744
  18 C :   -0.065541
  19 C :   -0.050052
  20 C :   -0.195394
  21 H :    0.025114
  22 C :   -0.029765
  23 H :    0.034528
  24 H :    0.016761
  25 C :   -0.035952
  26 H :    0.021485
  27 H :    0.028064
  28 C :   -0.069809
  29 H :    0.031939
  30 H :    0.025104
  31 H :    0.031294
  32 H :    0.030905
  33 H :    0.040793

  Mayer bond orders larger than 0.100000
B(  0-S ,  1-C ) :   1.1397 B(  0-S ,  4-C ) :   1.1311 B(  1-C ,  2-C ) :   1.5804
B(  1-C , 32-H ) :   0.9691 B(  2-C ,  3-C ) :   1.2685 B(  2-C ,  6-C ) :   1.0208
B(  3-C ,  4-C ) :   1.5815 B(  3-C ,  5-H ) :   0.9850 B(  4-C , 20-C ) :   1.0577
B(  6-C ,  7-H ) :   0.9393 B(  6-C ,  8-H ) :   0.9420 B(  6-C ,  9-C ) :   1.0500
B(  9-C , 10-H ) :   0.9508 B(  9-C , 11-H ) :   0.9667 B(  9-C , 12-C ) :   1.0870
B( 12-C , 13-H ) :   0.9763 B( 12-C , 14-H ) :   0.9741 B( 12-C , 15-H ) :   0.9728
B( 16-S , 17-C ) :   1.1520 B( 16-S , 20-C ) :   1.1331 B( 17-C , 18-C ) :   1.6121
B( 17-C , 33-H ) :   0.9595 B( 18-C , 19-C ) :   1.2368 B( 18-C , 21-H ) :   0.9948
B( 19-C , 20-C ) :   1.5788 B( 19-C , 22-C ) :   1.0504 B( 22-C , 23-H ) :   0.9163
B( 22-C , 24-H ) :   0.9220 B( 22-C , 25-C ) :   1.0756 B( 25-C , 26-H ) :   0.9532
B( 25-C , 27-H ) :   0.9549 B( 25-C , 28-C ) :   1.0754 B( 28-C , 29-H ) :   0.9748
B( 28-C , 30-H ) :   0.9752 B( 28-C , 31-H ) :   0.9725

Dispersion correction           -0.014755761
FINAL SINGLE POINT ENERGY     -1339.877803542740

DIPOLE MOMENT
-------------
                                X             Y             Z
Electronic contribution:      9.39052      26.65793       3.39667
Nuclear contribution   :     -9.69265     -27.16791      -3.65616
                        -----------------------------------------
Total Dipole Moment    :     -0.30212      -0.50997      -0.25949
                        -----------------------------------------
Magnitude (a.u.)       :      0.64706
Magnitude (Debye)      :      1.64470

Rotational constants in cm-1:     0.019957     0.008648     0.007024
Rotational constants in MHz :   598.304716   259.264145   210.576772

                             ****ORCA TERMINATED NORMALLY****
TOTAL RUN TIME: 0 days 0 hours 0 minutes 29 seconds 377 msec
