                         Program Version 4.2.1 -  RELEASE  -
|  1> ! wB97X-D3 SP def2-SVP
|  2> %pal
|  3> nprocs 16
|  4> end
|  5>
|  6> * xyz 0 1
|  7> S 	 -29.2045 	 29.8098 	 46.0839
|  8> C 	 -28.0244 	 29.3129 	 47.339
|  9> C 	 -28.42 	 29.5287 	 48.6668
| 10> C 	 -29.6623 	 30.2913 	 48.6797
| 11> C 	 -30.2362 	 30.4163 	 47.3882
| 12> H 	 -30.1568 	 30.6822 	 49.5606
| 13> C 	 -27.6618 	 29.1369 	 49.8907
| 14> H 	 -26.6036 	 29.3212 	 49.6319
| 15> H 	 -27.7735 	 28.0536 	 49.9983
| 16> C 	 -27.9635 	 29.7576 	 51.2623
| 17> H 	 -28.9479 	 29.5058 	 51.7313
| 18> H 	 -27.2213 	 29.2564 	 51.955
| 19> C 	 -27.7298 	 31.2783 	 51.2223
| 20> H 	 -26.7763 	 31.4497 	 50.7581
| 21> H 	 -28.4134 	 31.8203 	 50.5503
| 22> H 	 -27.7753 	 31.6675 	 52.2497
| 23> S 	 -31.9005 	 31.9222 	 45.6586
| 24> C 	 -33.4516 	 32.3969 	 46.2588
| 25> C 	 -33.8624 	 31.7544 	 47.3972
| 26> C 	 -32.7882 	 30.989 	 47.8858
| 27> C 	 -31.5969 	 30.9768 	 47.1418
| 28> H 	 -34.8988 	 31.7269 	 47.7093
| 29> C 	 -33.1039 	 30.1309 	 49.0983
| 30> H 	 -33.7141 	 30.8642 	 49.6965
| 31> H 	 -32.1652 	 29.8977 	 49.5296
| 32> C 	 -33.8409 	 28.8477 	 48.8118
| 33> H 	 -33.5173 	 28.1887 	 48.0036
| 34> H 	 -34.7219 	 29.1432 	 48.3922
| 35> C 	 -33.922 	 27.8887 	 49.9824
| 36> H 	 -32.9639 	 27.5497 	 50.2848
| 37> H 	 -34.6277 	 27.0827 	 49.8364
| 38> H 	 -34.4456 	 28.4596 	 50.7579
| 39> H 	 -27.1032 	 28.648 	 47.3177
| 40> H 	 -34.1561 	 32.991 	 45.6838
| 41> *
| 42>
| 43>                          ****END OF INPUT****

CARTESIAN COORDINATES (ANGSTROEM)
---------------------------------
  S    -29.204500   29.809800   46.083900
  C    -28.024400   29.312900   47.339000
  C    -28.420000   29.528700   48.666800
  C    -29.662300   30.291300   48.679700
  C    -30.236200   30.416300   47.388200
  H    -30.156800   30.682200   49.560600
  C    -27.661800   29.136900   49.890700
  H    -26.603600   29.321200   49.631900
  H    -27.773500   28.053600   49.998300
  C    -27.963500   29.757600   51.262300
  H    -28.947900   29.505800   51.731300
  H    -27.221300   29.256400   51.955000
  C    -27.729800   31.278300   51.222300
  H    -26.776300   31.449700   50.758100
  H    -28.413400   31.820300   50.550300
  H    -27.775300   31.667500   52.249700
  S    -31.900500   31.922200   45.658600
  C    -33.451600   32.396900   46.258800
  C    -33.862400   31.754400   47.397200
  C    -32.788200   30.989000   47.885800
  C    -31.596900   30.976800   47.141800
  H    -34.898800   31.726900   47.709300
  C    -33.103900   30.130900   49.098300
  H    -33.714100   30.864200   49.696500
  H    -32.165200   29.897700   49.529600
  C    -33.840900   28.847700   48.811800
  H    -33.517300   28.188700   48.003600
  H    -34.721900   29.143200   48.392200
  C    -33.922000   27.888700   49.982400
  H    -32.963900   27.549700   50.284800
  H    -34.627700   27.082700   49.836400
  H    -34.445600   28.459600   50.757900
  H    -27.103200   28.648000   47.317700
  H    -34.156100   32.991000   45.683800

 Total Charge           Charge          ....    0
 Multiplicity           Mult            ....    1
 Number of Electrons    NEL             ....  134
 Basis Dimension        Dim             ....  322

ORBITAL ENERGIES
----------------

  NO   OCC          E(Eh)            E(eV)
   0   2.0000     -88.977334     -2421.1964
   1   2.0000     -88.966278     -2420.8955
   2   2.0000     -10.340292      -281.3737
   3   2.0000     -10.331947      -281.1466
   4   2.0000     -10.319342      -280.8036
   5   2.0000     -10.317002      -280.7399
   6   2.0000     -10.305452      -280.4256
   7   2.0000     -10.301237      -280.3109
   8   2.0000     -10.299760      -280.2707
   9   2.0000     -10.299226      -280.2562
  10   2.0000     -10.297431      -280.2074
  11   2.0000     -10.290996      -280.0322
  12   2.0000     -10.286300      -279.9045
  13   2.0000     -10.278450      -279.6908
  14   2.0000     -10.272187      -279.5204
  15   2.0000     -10.272088      -279.5177
  16   2.0000      -8.090224      -220.1462
  17   2.0000      -8.080964      -219.8942
  18   2.0000      -6.048961      -164.6006
  19   2.0000      -6.045219      -164.4988
  20   2.0000      -6.040621      -164.3737
  21   2.0000      -6.039401      -164.3405
  22   2.0000      -6.035571      -164.2362
  23   2.0000      -6.031735      -164.1319
  24   2.0000      -1.001262       -27.2457
  25   2.0000      -0.978243       -26.6193
  26   2.0000      -0.915698       -24.9174
  27   2.0000      -0.913644       -24.8615
  28   2.0000      -0.864988       -23.5375
  29   2.0000      -0.855301       -23.2739
  30   2.0000      -0.844162       -22.9708
  31   2.0000      -0.812935       -22.1211
  32   2.0000      -0.784393       -21.3444
  33   2.0000      -0.769753       -20.9460
  34   2.0000      -0.711013       -19.3476
  35   2.0000      -0.700814       -19.0701
  36   2.0000      -0.691466       -18.8157
  37   2.0000      -0.663084       -18.0434
  38   2.0000      -0.627151       -17.0657
  39   2.0000      -0.619909       -16.8686
  40   2.0000      -0.594769       -16.1845
  41   2.0000      -0.571351       -15.5472
  42   2.0000      -0.566268       -15.4089
  43   2.0000      -0.556019       -15.1301
  44   2.0000      -0.534292       -14.5388
  45   2.0000      -0.525222       -14.2920
  46   2.0000      -0.518899       -14.1200
  47   2.0000      -0.513615       -13.9762
  48   2.0000      -0.502941       -13.6857
  49   2.0000      -0.496938       -13.5224
  50   2.0000      -0.484941       -13.1959
  51   2.0000      -0.478985       -13.0338
  52   2.0000      -0.475777       -12.9466
  53   2.0000      -0.463288       -12.6067
  54   2.0000      -0.458442       -12.4748
  55   2.0000      -0.456098       -12.4110
  56   2.0000      -0.446383       -12.1467
  57   2.0000      -0.441675       -12.0186
  58   2.0000      -0.429402       -11.6846
  59   2.0000      -0.427664       -11.6373
  60   2.0000      -0.419678       -11.4200
  61   2.0000      -0.418347       -11.3838
  62   2.0000      -0.398596       -10.8464
  63   2.0000      -0.350782        -9.5453
  64   2.0000      -0.334790        -9.1101
  65   2.0000      -0.329448        -8.9647
  66   2.0000      -0.279706        -7.6112
  67   0.0000       0.020454         0.5566
  68   0.0000       0.070872         1.9285
  69   0.0000       0.092658         2.5213
  70   0.0000       0.116300         3.1647
  71   0.0000       0.133478         3.6321

MULLIKEN ATOMIC CHARGES
-----------------------
   0 S :    0.125594
   1 C :   -0.123398
   2 C :   -0.121132
   3 C :   -0.001906
   4 C :   -0.119549
   5 H :    0.035723
   6 C :    0.034225
   7 H :    0.037621
   8 H :    0.047631
   9 C :   -0.096819
  10 H :    0.039605
  11 H :    0.040082
  12 C :   -0.047169
  13 H :    0.021843
  14 H :    0.041054
  15 H :    0.043944
  16 S :    0.093797
  17 C :   -0.078143
  18 C :   -0.042469
  19 C :   -0.087832
  20 C :   -0.134777
  21 H :    0.032567
  22 C :    0.085404
  23 H :    0.036093
  24 H :   -0.013554
  25 C :   -0.021312
  26 H :    0.024388
  27 H :   -0.022574
  28 C :   -0.016487
  29 H :    0.036787
  30 H :    0.027101
  31 H :    0.013489
  32 H :    0.057276
  33 H :    0.052896
Sum of atomic charges:   -0.0000000

LOEWDIN ATOMIC CHARGES
----------------------
   0 S :    0.389328
   1 C :   -0.214861
   2 C :   -0.058090
   3 C :   -0.067033
   4 C :   -0.179316
   5 H :    0.029371
   6 C :   -0.043616
   7 H :    0.038101
   8 H :    0.039375
   9 C :   -0.048106
  10 H :    0.025954
  11 H :    0.035657
  12 C :   -0.067146
  13 H :    0.023768
  14 H :    0.028621
  15 H :    0.029376
  16 S :    0.395488
  17 C :   -0.177049
  18 C :   -0.079882
  19 C :   -0.052663
  20 C :   -0.196147
  21 H :    0.038215
  22 C :   -0.026020
  23 H :    0.038498
  24 H :    0.016375
  25 C :   -0.042439
  26 H :    0.030921
  27 H :    0.007393
  28 C :   -0.056189
  29 H :    0.021717
  30 H :    0.027157
  31 H :    0.023994
  32 H :    0.042447
  33 H :    0.026803

  Mayer bond orders larger than 0.100000
B(  0-S ,  1-C ) :   1.1050 B(  0-S ,  4-C ) :   1.1411 B(  1-C ,  2-C ) :   1.6629
B(  1-C , 32-H ) :   0.9520 B(  2-C ,  3-C ) :   1.2267 B(  2-C ,  6-C ) :   1.0093
B(  3-C ,  4-C ) :   1.5814 B(  3-C ,  5-H ) :   0.9695 B(  4-C , 20-C ) :   1.0524
B(  6-C ,  7-H ) :   0.9405 B(  6-C ,  8-H ) :   0.9267 B(  6-C ,  9-C ) :   1.0903
B(  9-C , 10-H ) :   0.9505 B(  9-C , 11-H ) :   0.9499 B(  9-C , 12-C ) :   1.0698
B( 12-C , 13-H ) :   0.9720 B( 12-C , 14-H ) :   0.9748 B( 12-C , 15-H ) :   0.9744
B( 16-S , 17-C ) :   1.1837 B( 16-S , 20-C ) :   1.1098 B( 17-C , 18-C ) :   1.5928
B( 17-C , 33-H ) :   0.9591 B( 18-C , 19-C ) :   1.2595 B( 18-C , 21-H ) :   0.9896
B( 19-C , 20-C ) :   1.5931 B( 19-C , 22-C ) :   1.0313 B( 22-C , 23-H ) :   0.9319
B( 22-C , 24-H ) :   0.9293 B( 22-C , 25-C ) :   1.0655 B( 25-C , 26-H ) :   0.9512
B( 25-C , 27-H ) :   0.9425 B( 25-C , 28-C ) :   1.0884 B( 28-C , 29-H ) :   0.9766
B( 28-C , 30-H ) :   0.9712 B( 28-C , 31-H ) :   0.9723

Dispersion correction           -0.014112968
FINAL SINGLE POINT ENERGY     -1339.850090341308

DIPOLE MOMENT
-------------
                                X             Y             Z
Electronic contribution:      1.36823       8.87708     -27.17528
Nuclear contribution   :     -1.59901      -9.17977      27.81712
                        -----------------------------------------
Total Dipole Moment    :     -0.23078      -0.30269       0.64184
                        -----------------------------------------
Magnitude (a.u.)       :      0.74622
Magnitude (Debye)      :      1.89673

Rotational constants in cm-1:     0.016311     0.009408     0.007319
Rotational constants in MHz :   488.995154   282.036925   219.411464

                             ****ORCA TERMINATED NORMALLY****
TOTAL RUN TIME: 0 days 0 hours 0 minutes 35 seconds 179 msec
