                         Program Version 4.2.1 -  RELEASE  -
|  1> ! wB97X-D3 SP def2-SVP
|  2> %pal
|  3> nprocs 16
|  4> end
|  5>
|  6> * xyz 0 1
|  7> S 	 11.0174 	 -15.5592 	 90.8015
|  8> C 	 12.7512 	 -15.8759 	 90.4701
|  9> C 	 13.3893 	 -14.6972 	 90.1546
| 10> C 	 12.5756 	 -13.5755 	 90.4927
| 11> C 	 11.2845 	 -13.834 	 90.7587
| 12> H 	 12.9427 	 -12.5169 	 90.621
| 13> C 	 14.8508 	 -14.5386 	 89.8055
| 14> H 	 15.5799 	 -15.2316 	 90.2947
| 15> H 	 15.2585 	 -13.5555 	 90.1543
| 16> C 	 15.1226 	 -14.5187 	 88.2994
| 17> H 	 14.736 	 -15.4451 	 87.9474
| 18> H 	 14.5469 	 -13.7511 	 87.7665
| 19> C 	 16.6089 	 -14.4723 	 87.9969
| 20> H 	 16.8712 	 -14.264 	 86.9174
| 21> H 	 17.1164 	 -13.7114 	 88.5757
| 22> H 	 17.0633 	 -15.5003 	 88.2459
| 23> S 	 10.1618 	 -13.0724 	 93.1657
| 24> C 	 9.00244 	 -11.7239 	 93.0893
| 25> C 	 8.84868 	 -11.1906 	 91.8402
| 26> C 	 9.61468 	 -11.8643 	 90.8415
| 27> C 	 10.3717 	 -12.9061 	 91.3651
| 28> H 	 8.2221 	 -10.3185 	 91.7208
| 29> C 	 9.52644 	 -11.3352 	 89.4276
| 30> H 	 8.48499 	 -11.3961 	 89.0517
| 31> H 	 10.0503 	 -12.0355 	 88.8443
| 32> C 	 10.0956 	 -9.85392 	 89.2335
| 33> H 	 11.0981 	 -9.68095 	 89.6112
| 34> H 	 9.56155 	 -9.14851 	 89.8729
| 35> C 	 9.91126 	 -9.39309 	 87.8128
| 36> H 	 8.96778 	 -9.31986 	 87.389
| 37> H 	 10.4887 	 -10.0385 	 87.1466
| 38> H 	 10.346 	 -8.39878 	 87.8198
| 39> H 	 13.1782 	 -16.8995 	 90.4646
| 40> H 	 8.43525 	 -11.3258 	 93.9435
| 41> *
| 42>
| 43>                          ****END OF INPUT****

CARTESIAN COORDINATES (ANGSTROEM)
---------------------------------
  S     11.017400  -15.559200   90.801500
  C     12.751200  -15.875900   90.470100
  C     13.389300  -14.697200   90.154600
  C     12.575600  -13.575500   90.492700
  C     11.284500  -13.834000   90.758700
  H     12.942700  -12.516900   90.621000
  C     14.850800  -14.538600   89.805500
  H     15.579900  -15.231600   90.294700
  H     15.258500  -13.555500   90.154300
  C     15.122600  -14.518700   88.299400
  H     14.736000  -15.445100   87.947400
  H     14.546900  -13.751100   87.766500
  C     16.608900  -14.472300   87.996900
  H     16.871200  -14.264000   86.917400
  H     17.116400  -13.711400   88.575700
  H     17.063300  -15.500300   88.245900
  S     10.161800  -13.072400   93.165700
  C      9.002440  -11.723900   93.089300
  C      8.848680  -11.190600   91.840200
  C      9.614680  -11.864300   90.841500
  C     10.371700  -12.906100   91.365100
  H      8.222100  -10.318500   91.720800
  C      9.526440  -11.335200   89.427600
  H      8.484990  -11.396100   89.051700
  H     10.050300  -12.035500   88.844300
  C     10.095600   -9.853920   89.233500
  H     11.098100   -9.680950   89.611200
  H      9.561550   -9.148510   89.872900
  C      9.911260   -9.393090   87.812800
  H      8.967780   -9.319860   87.389000
  H     10.488700  -10.038500   87.146600
  H     10.346000   -8.398780   87.819800
  H     13.178200  -16.899500   90.464600
  H      8.435250  -11.325800   93.943500

 Total Charge           Charge          ....    0
 Multiplicity           Mult            ....    1
 Number of Electrons    NEL             ....  134
 Basis Dimension        Dim             ....  322

ORBITAL ENERGIES
----------------

  NO   OCC          E(Eh)            E(eV)
   0   2.0000     -88.964043     -2420.8347
   1   2.0000     -88.962674     -2420.7974
   2   2.0000     -10.327614      -281.0287
   3   2.0000     -10.322970      -280.9023
   4   2.0000     -10.319508      -280.8081
   5   2.0000     -10.317240      -280.7464
   6   2.0000     -10.303911      -280.3837
   7   2.0000     -10.303555      -280.3740
   8   2.0000     -10.297036      -280.1966
   9   2.0000     -10.294208      -280.1196
  10   2.0000     -10.292129      -280.0631
  11   2.0000     -10.290895      -280.0295
  12   2.0000     -10.287841      -279.9464
  13   2.0000     -10.286913      -279.9211
  14   2.0000     -10.281749      -279.7806
  15   2.0000     -10.271403      -279.4991
  16   2.0000      -8.077361      -219.7962
  17   2.0000      -8.077177      -219.7912
  18   2.0000      -6.035979      -164.2473
  19   2.0000      -6.035769      -164.2416
  20   2.0000      -6.032266      -164.1463
  21   2.0000      -6.031789      -164.1333
  22   2.0000      -6.027881      -164.0270
  23   2.0000      -6.027756      -164.0236
  24   2.0000      -1.004788       -27.3417
  25   2.0000      -0.977341       -26.5948
  26   2.0000      -0.914031       -24.8721
  27   2.0000      -0.904378       -24.6094
  28   2.0000      -0.870592       -23.6900
  29   2.0000      -0.853225       -23.2174
  30   2.0000      -0.844161       -22.9708
  31   2.0000      -0.812105       -22.0985
  32   2.0000      -0.779934       -21.2231
  33   2.0000      -0.768020       -20.8989
  34   2.0000      -0.709657       -19.3107
  35   2.0000      -0.698030       -18.9944
  36   2.0000      -0.697853       -18.9896
  37   2.0000      -0.655750       -17.8439
  38   2.0000      -0.645411       -17.5625
  39   2.0000      -0.615515       -16.7490
  40   2.0000      -0.593042       -16.1375
  41   2.0000      -0.569583       -15.4991
  42   2.0000      -0.560698       -15.2574
  43   2.0000      -0.555262       -15.1094
  44   2.0000      -0.531239       -14.4558
  45   2.0000      -0.524807       -14.2807
  46   2.0000      -0.515698       -14.0329
  47   2.0000      -0.511499       -13.9186
  48   2.0000      -0.506247       -13.7757
  49   2.0000      -0.500693       -13.6245
  50   2.0000      -0.490098       -13.3363
  51   2.0000      -0.474972       -12.9246
  52   2.0000      -0.463612       -12.6155
  53   2.0000      -0.459596       -12.5062
  54   2.0000      -0.456992       -12.4354
  55   2.0000      -0.450725       -12.2648
  56   2.0000      -0.448643       -12.2082
  57   2.0000      -0.437544       -11.9062
  58   2.0000      -0.434024       -11.8104
  59   2.0000      -0.422451       -11.4955
  60   2.0000      -0.420516       -11.4428
  61   2.0000      -0.414425       -11.2771
  62   2.0000      -0.411640       -11.2013
  63   2.0000      -0.338644        -9.2150
  64   2.0000      -0.327944        -8.9238
  65   2.0000      -0.324357        -8.8262
  66   2.0000      -0.305140        -8.3033
  67   0.0000       0.035728         0.9722
  68   0.0000       0.060426         1.6443
  69   0.0000       0.108599         2.9551
  70   0.0000       0.118265         3.2182
  71   0.0000       0.126889         3.4528

MULLIKEN ATOMIC CHARGES
-----------------------
   0 S :    0.094304
   1 C :   -0.148952
   2 C :   -0.020884
   3 C :    0.010585
   4 C :   -0.162504
   5 H :    0.037680
   6 C :    0.003706
   7 H :    0.032937
   8 H :    0.019030
   9 C :   -0.046149
  10 H :    0.013522
  11 H :    0.031539
  12 C :   -0.074856
  13 H :    0.045347
  14 H :    0.028066
  15 H :    0.041216
  16 S :    0.102930
  17 C :   -0.092934
  18 C :   -0.036311
  19 C :   -0.007175
  20 C :   -0.181868
  21 H :    0.018831
  22 C :    0.092704
  23 H :    0.036978
  24 H :    0.007184
  25 C :   -0.086444
  26 H :    0.029910
  27 H :    0.018252
  28 C :   -0.010134
  29 H :    0.021603
  30 H :    0.025760
  31 H :    0.027996
  32 H :    0.068693
  33 H :    0.059438
Sum of atomic charges:   -0.0000000

LOEWDIN ATOMIC CHARGES
----------------------
   0 S :    0.383286
   1 C :   -0.173624
   2 C :   -0.068507
   3 C :   -0.055994
   4 C :   -0.212052
   5 H :    0.043108
   6 C :   -0.037293
   7 H :    0.033420
   8 H :    0.029410
   9 C :   -0.043744
  10 H :    0.017409
  11 H :    0.025209
  12 C :   -0.073277
  13 H :    0.032643
  14 H :    0.019354
  15 H :    0.033948
  16 S :    0.362394
  17 C :   -0.171439
  18 C :   -0.074593
  19 C :   -0.048303
  20 C :   -0.180800
  21 H :    0.031941
  22 C :   -0.026435
  23 H :    0.038523
  24 H :    0.020451
  25 C :   -0.034622
  26 H :    0.026737
  27 H :    0.020845
  28 C :   -0.059653
  29 H :    0.015907
  30 H :    0.025828
  31 H :    0.030502
  32 H :    0.036677
  33 H :    0.032742

  Mayer bond orders larger than 0.100000
B(  0-S ,  1-C ) :   1.1345 B(  0-S ,  4-C ) :   1.1276 B(  1-C ,  2-C ) :   1.6137
B(  1-C , 32-H ) :   0.9690 B(  2-C ,  3-C ) :   1.2192 B(  2-C ,  6-C ) :   1.0174
B(  3-C ,  4-C ) :   1.6289 B(  3-C ,  5-H ) :   0.9792 B(  4-C , 20-C ) :   1.0305
B(  6-C ,  7-H ) :   0.9531 B(  6-C ,  8-H ) :   0.9446 B(  6-C ,  9-C ) :   1.0487
B(  9-C , 10-H ) :   0.9566 B(  9-C , 11-H ) :   0.9552 B(  9-C , 12-C ) :   1.0785
B( 12-C , 13-H ) :   0.9739 B( 12-C , 14-H ) :   0.9743 B( 12-C , 15-H ) :   0.9734
B( 16-S , 17-C ) :   1.1311 B( 16-S , 20-C ) :   1.1119 B( 17-C , 18-C ) :   1.6670
B( 17-C , 33-H ) :   0.9591 B( 18-C , 19-C ) :   1.1924 B( 18-C , 21-H ) :   0.9886
B( 19-C , 20-C ) :   1.6411 B( 19-C , 22-C ) :   1.0535 B( 22-C , 23-H ) :   0.9372
B( 22-C , 24-H ) :   0.9267 B( 22-C , 25-C ) :   1.0460 B( 25-C , 26-H ) :   0.9558
B( 25-C , 27-H ) :   0.9547 B( 25-C , 28-C ) :   1.0897 B( 28-C , 29-H ) :   0.9755
B( 28-C , 30-H ) :   0.9735 B( 28-C , 31-H ) :   0.9705

Dispersion correction           -0.013407291
FINAL SINGLE POINT ENERGY     -1339.872912630545

DIPOLE MOMENT
-------------
                                X             Y             Z
Electronic contribution:    -15.17976     -13.43354      21.46586
Nuclear contribution   :     15.47313      13.93066     -21.79322
                        -----------------------------------------
Total Dipole Moment    :      0.29337       0.49711      -0.32735
                        -----------------------------------------
Magnitude (a.u.)       :      0.66359
Magnitude (Debye)      :      1.68670

Rotational constants in cm-1:     0.016912     0.008271     0.006196
Rotational constants in MHz :   507.005424   247.964241   185.747510

                             ****ORCA TERMINATED NORMALLY****
TOTAL RUN TIME: 0 days 0 hours 0 minutes 31 seconds 324 msec
