                         Program Version 4.2.1 -  RELEASE  -
|  1> ! wB97X-D3 SP def2-SVP
|  2> %pal
|  3> nprocs 16
|  4> end
|  5>
|  6> * xyz 0 1
|  7> S 	 -32.7998 	 59.969 	 109.954
|  8> C 	 -32.7806 	 58.2423 	 109.526
|  9> C 	 -31.7111 	 57.5826 	 110.205
| 10> C 	 -30.7677 	 58.5221 	 110.767
| 11> C 	 -31.1608 	 59.8207 	 110.622
| 12> H 	 -29.8117 	 58.2581 	 111.19
| 13> C 	 -31.2605 	 56.1845 	 110.048
| 14> H 	 -31.9801 	 55.4968 	 110.603
| 15> H 	 -30.3004 	 56.1713 	 110.501
| 16> C 	 -31.0462 	 55.6522 	 108.694
| 17> H 	 -31.8833 	 55.7121 	 108.067
| 18> H 	 -30.271 	 56.401 	 108.363
| 19> C 	 -30.631 	 54.1904 	 108.696
| 20> H 	 -29.6053 	 54.0458 	 108.819
| 21> H 	 -31.1834 	 53.692 	 109.464
| 22> H 	 -30.9477 	 53.688 	 107.767
| 23> S 	 -31.4741 	 62.2561 	 111.866
| 24> C 	 -30.1933 	 63.4197 	 111.924
| 25> C 	 -28.9817 	 62.8042 	 111.61
| 26> C 	 -29.125 	 61.5161 	 111.028
| 27> C 	 -30.4854 	 61.0647 	 111.103
| 28> H 	 -28.0824 	 63.3929 	 111.62
| 29> C 	 -27.9829 	 60.7406 	 110.338
| 30> H 	 -27.4154 	 61.4865 	 109.79
| 31> H 	 -28.3158 	 60.0465 	 109.589
| 32> C 	 -27.0733 	 60.0026 	 111.263
| 33> H 	 -27.5491 	 59.4182 	 112.064
| 34> H 	 -26.3626 	 60.6079 	 111.759
| 35> C 	 -26.1843 	 58.9951 	 110.521
| 36> H 	 -25.3677 	 59.4069 	 109.836
| 37> H 	 -26.7558 	 58.2548 	 109.983
| 38> H 	 -25.6543 	 58.4736 	 111.293
| 39> H 	 -33.4871 	 57.8594 	 108.855
| 40> H 	 -30.3095 	 64.5512 	 112.071
| 41> *
| 42>
| 43>                          ****END OF INPUT****

CARTESIAN COORDINATES (ANGSTROEM)
---------------------------------
  S    -32.799800   59.969000  109.954000
  C    -32.780600   58.242300  109.526000
  C    -31.711100   57.582600  110.205000
  C    -30.767700   58.522100  110.767000
  C    -31.160800   59.820700  110.622000
  H    -29.811700   58.258100  111.190000
  C    -31.260500   56.184500  110.048000
  H    -31.980100   55.496800  110.603000
  H    -30.300400   56.171300  110.501000
  C    -31.046200   55.652200  108.694000
  H    -31.883300   55.712100  108.067000
  H    -30.271000   56.401000  108.363000
  C    -30.631000   54.190400  108.696000
  H    -29.605300   54.045800  108.819000
  H    -31.183400   53.692000  109.464000
  H    -30.947700   53.688000  107.767000
  S    -31.474100   62.256100  111.866000
  C    -30.193300   63.419700  111.924000
  C    -28.981700   62.804200  111.610000
  C    -29.125000   61.516100  111.028000
  C    -30.485400   61.064700  111.103000
  H    -28.082400   63.392900  111.620000
  C    -27.982900   60.740600  110.338000
  H    -27.415400   61.486500  109.790000
  H    -28.315800   60.046500  109.589000
  C    -27.073300   60.002600  111.263000
  H    -27.549100   59.418200  112.064000
  H    -26.362600   60.607900  111.759000
  C    -26.184300   58.995100  110.521000
  H    -25.367700   59.406900  109.836000
  H    -26.755800   58.254800  109.983000
  H    -25.654300   58.473600  111.293000
  H    -33.487100   57.859400  108.855000
  H    -30.309500   64.551200  112.071000

 Total Charge           Charge          ....    0
 Multiplicity           Mult            ....    1
 Number of Electrons    NEL             ....  134
 Basis Dimension        Dim             ....  322

ORBITAL ENERGIES
----------------

  NO   OCC          E(Eh)            E(eV)
   0   2.0000     -88.966568     -2420.9034
   1   2.0000     -88.965969     -2420.8871
   2   2.0000     -10.333601      -281.1916
   3   2.0000     -10.329401      -281.0773
   4   2.0000     -10.321020      -280.8492
   5   2.0000     -10.320357      -280.8312
   6   2.0000     -10.307899      -280.4922
   7   2.0000     -10.306857      -280.4638
   8   2.0000     -10.296429      -280.1801
   9   2.0000     -10.294215      -280.1198
  10   2.0000     -10.289960      -280.0040
  11   2.0000     -10.285409      -279.8802
  12   2.0000     -10.282266      -279.7947
  13   2.0000     -10.280363      -279.7429
  14   2.0000     -10.279332      -279.7148
  15   2.0000     -10.273269      -279.5499
  16   2.0000      -8.081195      -219.9005
  17   2.0000      -8.080591      -219.8840
  18   2.0000      -6.039620      -164.3464
  19   2.0000      -6.039146      -164.3335
  20   2.0000      -6.035453      -164.2330
  21   2.0000      -6.035304      -164.2290
  22   2.0000      -6.032216      -164.1450
  23   2.0000      -6.031233      -164.1182
  24   2.0000      -1.003180       -27.2979
  25   2.0000      -0.981250       -26.7012
  26   2.0000      -0.925705       -25.1897
  27   2.0000      -0.915124       -24.9018
  28   2.0000      -0.864967       -23.5369
  29   2.0000      -0.853720       -23.2309
  30   2.0000      -0.849289       -23.1103
  31   2.0000      -0.814473       -22.1629
  32   2.0000      -0.783258       -21.3135
  33   2.0000      -0.769850       -20.9487
  34   2.0000      -0.708823       -19.2881
  35   2.0000      -0.700780       -19.0692
  36   2.0000      -0.688791       -18.7429
  37   2.0000      -0.660020       -17.9600
  38   2.0000      -0.643651       -17.5146
  39   2.0000      -0.620799       -16.8928
  40   2.0000      -0.597174       -16.2499
  41   2.0000      -0.586342       -15.9552
  42   2.0000      -0.570464       -15.5231
  43   2.0000      -0.561634       -15.2828
  44   2.0000      -0.527371       -14.3505
  45   2.0000      -0.523383       -14.2420
  46   2.0000      -0.520490       -14.1632
  47   2.0000      -0.514074       -13.9887
  48   2.0000      -0.505991       -13.7687
  49   2.0000      -0.500197       -13.6110
  50   2.0000      -0.493503       -13.4289
  51   2.0000      -0.480780       -13.0827
  52   2.0000      -0.477127       -12.9833
  53   2.0000      -0.460761       -12.5379
  54   2.0000      -0.459936       -12.5155
  55   2.0000      -0.449147       -12.2219
  56   2.0000      -0.446324       -12.1451
  57   2.0000      -0.440101       -11.9757
  58   2.0000      -0.432633       -11.7725
  59   2.0000      -0.423697       -11.5294
  60   2.0000      -0.421116       -11.4592
  61   2.0000      -0.418316       -11.3830
  62   2.0000      -0.412440       -11.2231
  63   2.0000      -0.347028        -9.4431
  64   2.0000      -0.332303        -9.0424
  65   2.0000      -0.328271        -8.9327
  66   2.0000      -0.284536        -7.7426
  67   0.0000       0.021837         0.5942
  68   0.0000       0.064698         1.7605
  69   0.0000       0.102615         2.7923
  70   0.0000       0.119983         3.2649
  71   0.0000       0.122649         3.3374

MULLIKEN ATOMIC CHARGES
-----------------------
   0 S :    0.098339
   1 C :   -0.112285
   2 C :   -0.059442
   3 C :    0.010822
   4 C :   -0.116769
   5 H :    0.009782
   6 C :    0.047474
   7 H :    0.037172
   8 H :    0.006427
   9 C :   -0.068128
  10 H :    0.012699
  11 H :    0.031259
  12 C :   -0.007990
  13 H :    0.026627
  14 H :    0.016807
  15 H :    0.030469
  16 S :    0.111057
  17 C :   -0.140662
  18 C :   -0.023378
  19 C :   -0.044593
  20 C :   -0.153527
  21 H :    0.014886
  22 C :    0.102661
  23 H :    0.019728
  24 H :    0.018479
  25 C :   -0.064425
  26 H :    0.032327
  27 H :    0.015613
  28 C :   -0.071641
  29 H :    0.042324
  30 H :    0.024038
  31 H :    0.022888
  32 H :    0.039277
  33 H :    0.091686
Sum of atomic charges:   -0.0000000

LOEWDIN ATOMIC CHARGES
----------------------
   0 S :    0.382686
   1 C :   -0.173447
   2 C :   -0.054210
   3 C :   -0.062150
   4 C :   -0.176572
   5 H :    0.031542
   6 C :   -0.041973
   7 H :    0.033757
   8 H :    0.025011
   9 C :   -0.040815
  10 H :    0.013499
  11 H :    0.033049
  12 C :   -0.054582
  13 H :    0.018307
  14 H :    0.023289
  15 H :    0.031751
  16 S :    0.424342
  17 C :   -0.212359
  18 C :   -0.072757
  19 C :   -0.055881
  20 C :   -0.208722
  21 H :    0.028755
  22 C :   -0.029065
  23 H :    0.033538
  24 H :    0.028350
  25 C :   -0.040780
  26 H :    0.026495
  27 H :    0.020046
  28 C :   -0.067523
  29 H :    0.031237
  30 H :    0.016363
  31 H :    0.023086
  32 H :    0.015367
  33 H :    0.050366

  Mayer bond orders larger than 0.100000
B(  0-S ,  1-C ) :   1.1364 B(  0-S ,  4-C ) :   1.1423 B(  1-C ,  2-C ) :   1.5753
B(  1-C ,  4-C ) :   0.1003 B(  1-C , 32-H ) :   0.9860 B(  2-C ,  3-C ) :   1.2195
B(  2-C ,  6-C ) :   1.0467 B(  3-C ,  4-C ) :   1.5928 B(  3-C ,  5-H ) :   0.9936
B(  4-C , 20-C ) :   1.0278 B(  6-C ,  7-H ) :   0.9123 B(  6-C ,  8-H ) :   0.9498
B(  6-C ,  9-C ) :   1.0770 B(  9-C , 10-H ) :   0.9540 B(  9-C , 11-H ) :   0.9555
B(  9-C , 12-C ) :   1.0764 B( 12-C , 13-H ) :   0.9763 B( 12-C , 14-H ) :   0.9709
B( 12-C , 15-H ) :   0.9749 B( 16-S , 17-C ) :   1.1680 B( 16-S , 20-C ) :   1.1678
B( 17-C , 18-C ) :   1.5754 B( 17-C , 20-C ) :   0.1047 B( 17-C , 33-H ) :   0.9581
B( 18-C , 19-C ) :   1.2841 B( 18-C , 21-H ) :   0.9875 B( 19-C , 20-C ) :   1.5446
B( 19-C , 22-C ) :   1.0406 B( 22-C , 23-H ) :   0.9258 B( 22-C , 24-H ) :   0.9429
B( 22-C , 25-C ) :   1.0669 B( 25-C , 26-H ) :   0.9566 B( 25-C , 27-H ) :   0.9478
B( 25-C , 28-C ) :   1.0882 B( 28-C , 29-H ) :   0.9744 B( 28-C , 30-H ) :   0.9747
B( 28-C , 31-H ) :   0.9742

Dispersion correction           -0.013848817
FINAL SINGLE POINT ENERGY     -1339.856661340114

DIPOLE MOMENT
-------------
                                X             Y             Z
Electronic contribution:    -21.08699      24.16363       7.43959
Nuclear contribution   :     21.64533     -24.52430      -7.67340
                        -----------------------------------------
Total Dipole Moment    :      0.55835      -0.36067      -0.23381
                        -----------------------------------------
Magnitude (a.u.)       :      0.70463
Magnitude (Debye)      :      1.79102

Rotational constants in cm-1:     0.018144     0.008930     0.006232
Rotational constants in MHz :   543.949033   267.717457   186.820954

                             ****ORCA TERMINATED NORMALLY****
TOTAL RUN TIME: 0 days 0 hours 0 minutes 30 seconds 30 msec
