                         Program Version 4.2.1 -  RELEASE  -
|  1> ! wB97X-D3 SP def2-SVP
|  2> %pal
|  3> nprocs 16
|  4> end
|  5>
|  6> * xyz 0 1
|  7> S 	 3.6414 	 8.34101 	 80.4188
|  8> C 	 4.2258 	 6.77022 	 79.9552
|  9> C 	 5.25277 	 6.34788 	 80.7291
| 10> C 	 5.66617 	 7.32932 	 81.6718
| 11> C 	 4.95357 	 8.4682 	 81.6696
| 12> H 	 6.45516 	 7.16673 	 82.3279
| 13> C 	 5.98905 	 5.1014 	 80.4694
| 14> H 	 5.3921 	 4.56578 	 79.7325
| 15> H 	 5.9348 	 4.53847 	 81.3939
| 16> C 	 7.46417 	 5.15554 	 80.0526
| 17> H 	 7.50849 	 5.6964 	 79.0889
| 18> H 	 7.85392 	 5.82543 	 80.8601
| 19> C 	 8.28069 	 3.87742 	 80.1401
| 20> H 	 8.18191 	 3.21269 	 79.2666
| 21> H 	 9.35997 	 4.14592 	 80.2333
| 22> H 	 8.09961 	 3.21997 	 80.9965
| 23> S 	 5.27735 	 11.1798 	 81.6805
| 24> C 	 5.38019 	 12.079 	 83.1907
| 25> C 	 5.38083 	 11.2269 	 84.2727
| 26> C 	 5.26097 	 9.85782 	 83.9083
| 27> C 	 5.19527 	 9.65859 	 82.537
| 28> H 	 5.43541 	 11.6688 	 85.2907
| 29> C 	 5.03376 	 8.82065 	 84.9245
| 30> H 	 5.07806 	 7.85592 	 84.3447
| 31> H 	 4.08105 	 8.96246 	 85.3924
| 32> C 	 6.16582 	 8.65153 	 85.9265
| 33> H 	 5.85522 	 7.98102 	 86.7742
| 34> H 	 6.24917 	 9.61784 	 86.365
| 35> C 	 7.47316 	 8.16893 	 85.2626
| 36> H 	 7.55934 	 7.1305 	 85.119
| 37> H 	 8.41932 	 8.3738 	 85.8124
| 38> H 	 7.63673 	 8.6412 	 84.3127
| 39> H 	 3.96822 	 6.33668 	 79.0619
| 40> H 	 5.39657 	 13.1514 	 83.187
| 41> *
| 42>
| 43>                          ****END OF INPUT****

CARTESIAN COORDINATES (ANGSTROEM)
---------------------------------
  S      3.641400    8.341010   80.418800
  C      4.225800    6.770220   79.955200
  C      5.252770    6.347880   80.729100
  C      5.666170    7.329320   81.671800
  C      4.953570    8.468200   81.669600
  H      6.455160    7.166730   82.327900
  C      5.989050    5.101400   80.469400
  H      5.392100    4.565780   79.732500
  H      5.934800    4.538470   81.393900
  C      7.464170    5.155540   80.052600
  H      7.508490    5.696400   79.088900
  H      7.853920    5.825430   80.860100
  C      8.280690    3.877420   80.140100
  H      8.181910    3.212690   79.266600
  H      9.359970    4.145920   80.233300
  H      8.099610    3.219970   80.996500
  S      5.277350   11.179800   81.680500
  C      5.380190   12.079000   83.190700
  C      5.380830   11.226900   84.272700
  C      5.260970    9.857820   83.908300
  C      5.195270    9.658590   82.537000
  H      5.435410   11.668800   85.290700
  C      5.033760    8.820650   84.924500
  H      5.078060    7.855920   84.344700
  H      4.081050    8.962460   85.392400
  C      6.165820    8.651530   85.926500
  H      5.855220    7.981020   86.774200
  H      6.249170    9.617840   86.365000
  C      7.473160    8.168930   85.262600
  H      7.559340    7.130500   85.119000
  H      8.419320    8.373800   85.812400
  H      7.636730    8.641200   84.312700
  H      3.968220    6.336680   79.061900
  H      5.396570   13.151400   83.187000

 Total Charge           Charge          ....    0
 Multiplicity           Mult            ....    1
 Number of Electrons    NEL             ....  134
 Basis Dimension        Dim             ....  322

ORBITAL ENERGIES
----------------

  NO   OCC          E(Eh)            E(eV)
   0   2.0000     -88.963139     -2420.8101
   1   2.0000     -88.962892     -2420.8034
   2   2.0000     -10.333118      -281.1784
   3   2.0000     -10.329119      -281.0696
   4   2.0000     -10.319341      -280.8035
   5   2.0000     -10.304280      -280.3937
   6   2.0000     -10.301875      -280.3283
   7   2.0000     -10.297605      -280.2121
   8   2.0000     -10.292749      -280.0799
   9   2.0000     -10.291990      -280.0593
  10   2.0000     -10.288023      -279.9513
  11   2.0000     -10.285701      -279.8882
  12   2.0000     -10.285432      -279.8808
  13   2.0000     -10.285116      -279.8722
  14   2.0000     -10.285052      -279.8705
  15   2.0000     -10.274617      -279.5865
  16   2.0000      -8.078150      -219.8176
  17   2.0000      -8.077075      -219.7884
  18   2.0000      -6.036612      -164.2646
  19   2.0000      -6.035703      -164.2398
  20   2.0000      -6.032575      -164.1547
  21   2.0000      -6.031748      -164.1322
  22   2.0000      -6.028974      -164.0567
  23   2.0000      -6.027650      -164.0207
  24   2.0000      -1.006651       -27.3924
  25   2.0000      -0.988090       -26.8873
  26   2.0000      -0.916040       -24.9267
  27   2.0000      -0.912860       -24.8402
  28   2.0000      -0.871618       -23.7179
  29   2.0000      -0.850926       -23.1549
  30   2.0000      -0.845952       -23.0195
  31   2.0000      -0.823199       -22.4004
  32   2.0000      -0.783304       -21.3148
  33   2.0000      -0.773507       -21.0482
  34   2.0000      -0.712591       -19.3906
  35   2.0000      -0.701390       -19.0858
  36   2.0000      -0.696676       -18.9575
  37   2.0000      -0.659564       -17.9476
  38   2.0000      -0.647553       -17.6208
  39   2.0000      -0.627147       -17.0655
  40   2.0000      -0.599090       -16.3021
  41   2.0000      -0.572253       -15.5718
  42   2.0000      -0.566832       -15.4243
  43   2.0000      -0.557478       -15.1697
  44   2.0000      -0.540383       -14.7046
  45   2.0000      -0.526306       -14.3215
  46   2.0000      -0.516653       -14.0589
  47   2.0000      -0.513799       -13.9812
  48   2.0000      -0.509316       -13.8592
  49   2.0000      -0.499271       -13.5859
  50   2.0000      -0.488916       -13.3041
  51   2.0000      -0.481827       -13.1112
  52   2.0000      -0.469437       -12.7740
  53   2.0000      -0.464037       -12.6271
  54   2.0000      -0.460972       -12.5437
  55   2.0000      -0.455605       -12.3976
  56   2.0000      -0.445591       -12.1251
  57   2.0000      -0.443439       -12.0666
  58   2.0000      -0.432086       -11.7576
  59   2.0000      -0.424364       -11.5475
  60   2.0000      -0.419824       -11.4240
  61   2.0000      -0.411141       -11.1877
  62   2.0000      -0.407377       -11.0853
  63   2.0000      -0.347890        -9.4666
  64   2.0000      -0.332430        -9.0459
  65   2.0000      -0.327941        -8.9237
  66   2.0000      -0.299028        -8.1370
  67   0.0000       0.031065         0.8453
  68   0.0000       0.071877         1.9559
  69   0.0000       0.113071         3.0768
  70   0.0000       0.122766         3.3406
  71   0.0000       0.127003         3.4559

MULLIKEN ATOMIC CHARGES
-----------------------
   0 S :    0.096227
   1 C :   -0.095514
   2 C :   -0.077424
   3 C :    0.052763
   4 C :   -0.118261
   5 H :   -0.022910
   6 C :    0.082630
   7 H :    0.007480
   8 H :    0.017872
   9 C :   -0.080583
  10 H :    0.040929
  11 H :    0.025102
  12 C :   -0.051604
  13 H :    0.037656
  14 H :    0.041543
  15 H :    0.028687
  16 S :    0.094940
  17 C :   -0.092840
  18 C :   -0.046818
  19 C :   -0.039393
  20 C :   -0.171065
  21 H :    0.038722
  22 C :    0.067834
  23 H :    0.019665
  24 H :    0.041069
  25 C :   -0.054299
  26 H :    0.037957
  27 H :    0.012225
  28 C :   -0.057399
  29 H :    0.022163
  30 H :    0.030398
  31 H :    0.039747
  32 H :    0.017552
  33 H :    0.054949
Sum of atomic charges:   -0.0000000

LOEWDIN ATOMIC CHARGES
----------------------
   0 S :    0.372397
   1 C :   -0.177589
   2 C :   -0.065734
   3 C :   -0.053415
   4 C :   -0.167365
   5 H :    0.018676
   6 C :   -0.036254
   7 H :    0.024806
   8 H :    0.030602
   9 C :   -0.045062
  10 H :    0.030662
  11 H :    0.028129
  12 C :   -0.072834
  13 H :    0.026583
  14 H :    0.034944
  15 H :    0.027030
  16 S :    0.402778
  17 C :   -0.170516
  18 C :   -0.076478
  19 C :   -0.061350
  20 C :   -0.195479
  21 H :    0.040170
  22 C :   -0.033130
  23 H :    0.034975
  24 H :    0.032903
  25 C :   -0.037468
  26 H :    0.031088
  27 H :    0.013626
  28 C :   -0.069925
  29 H :    0.018469
  30 H :    0.033408
  31 H :    0.024522
  32 H :    0.011855
  33 H :    0.024974

  Mayer bond orders larger than 0.100000
B(  0-S ,  1-C ) :   1.1276 B(  0-S ,  4-C ) :   1.1182 B(  1-C ,  2-C ) :   1.6356
B(  1-C , 32-H ) :   0.9698 B(  2-C ,  3-C ) :   1.2121 B(  2-C ,  6-C ) :   1.0479
B(  3-C ,  4-C ) :   1.6103 B(  3-C ,  5-H ) :   1.0034 B(  4-C , 20-C ) :   1.0178
B(  6-C ,  7-H ) :   0.9350 B(  6-C ,  8-H ) :   0.9198 B(  6-C ,  9-C ) :   1.0619
B(  9-C , 10-H ) :   0.9549 B(  9-C , 11-H ) :   0.9545 B(  9-C , 12-C ) :   1.0789
B( 12-C , 13-H ) :   0.9759 B( 12-C , 14-H ) :   0.9743 B( 12-C , 15-H ) :   0.9714
B( 16-S , 17-C ) :   1.1605 B( 16-S , 20-C ) :   1.1485 B( 17-C , 18-C ) :   1.6064
B( 17-C , 33-H ) :   0.9720 B( 18-C , 19-C ) :   1.2228 B( 18-C , 21-H ) :   0.9859
B( 19-C , 20-C ) :   1.5925 B( 19-C , 22-C ) :   1.0481 B( 22-C , 23-H ) :   0.9308
B( 22-C , 24-H ) :   0.9358 B( 22-C , 25-C ) :   1.0663 B( 25-C , 26-H ) :   0.9566
B( 25-C , 27-H ) :   0.9595 B( 25-C , 28-C ) :   1.0651 B( 28-C , 29-H ) :   0.9734
B( 28-C , 30-H ) :   0.9708 B( 28-C , 31-H ) :   0.9738

Dispersion correction           -0.014478048
FINAL SINGLE POINT ENERGY     -1339.881552455103

DIPOLE MOMENT
-------------
                                X             Y             Z
Electronic contribution:    -17.30073      20.83627     -10.16522
Nuclear contribution   :     17.67576     -21.14275      10.53670
                        -----------------------------------------
Total Dipole Moment    :      0.37503      -0.30648       0.37147
                        -----------------------------------------
Magnitude (a.u.)       :      0.61039
Magnitude (Debye)      :      1.55148

Rotational constants in cm-1:     0.018393     0.008764     0.006817
Rotational constants in MHz :   551.400689   262.739774   204.373170

                             ****ORCA TERMINATED NORMALLY****
TOTAL RUN TIME: 0 days 0 hours 0 minutes 35 seconds 557 msec
