                         Program Version 4.2.1 -  RELEASE  -
|  1> ! wB97X-D3 SP def2-SVP
|  2> %pal
|  3> nprocs 16
|  4> end
|  5>
|  6> * xyz 0 1
|  7> S 	 29.4524 	 -6.34603 	 81.5574
|  8> C 	 30.5539 	 -6.19607 	 80.2771
|  9> C 	 30.1789 	 -5.21675 	 79.3749
| 10> C 	 28.9744 	 -4.61322 	 79.7572
| 11> C 	 28.352 	 -5.09354 	 80.9013
| 12> H 	 28.4537 	 -3.91815 	 79.172
| 13> C 	 30.8158 	 -4.89518 	 78.0135
| 14> H 	 30.255 	 -4.05215 	 77.611
| 15> H 	 30.67 	 -5.70674 	 77.3429
| 16> C 	 32.2877 	 -4.50883 	 77.9225
| 17> H 	 32.8496 	 -5.25591 	 78.4918
| 18> H 	 32.5271 	 -4.50028 	 76.8924
| 19> C 	 32.581 	 -3.133 	 78.512
| 20> H 	 33.6775 	 -2.82777 	 78.6474
| 21> H 	 32.2054 	 -2.35393 	 77.9058
| 22> H 	 32.2067 	 -2.9579 	 79.5462
| 23> S 	 25.7052 	 -5.08134 	 80.1016
| 24> C 	 24.6306 	 -4.31362 	 81.272
| 25> C 	 25.1972 	 -3.8953 	 82.4314
| 26> C 	 26.5762 	 -4.21107 	 82.4972
| 27> C 	 27.0067 	 -4.83181 	 81.3019
| 28> H 	 24.595 	 -3.42497 	 83.1565
| 29> C 	 27.4576 	 -3.73873 	 83.6652
| 30> H 	 26.8325 	 -2.90613 	 84.0524
| 31> H 	 28.3918 	 -3.21432 	 83.2724
| 32> C 	 27.6057 	 -4.93109 	 84.6367
| 33> H 	 28.1065 	 -4.60537 	 85.5279
| 34> H 	 28.2976 	 -5.66324 	 84.2832
| 35> C 	 26.3023 	 -5.6233 	 85.0371
| 36> H 	 26.4735 	 -6.41104 	 85.7145
| 37> H 	 26.0557 	 -6.18309 	 84.1201
| 38> H 	 25.5346 	 -4.91933 	 85.3088
| 39> H 	 31.5136 	 -6.82069 	 80.1114
| 40> H 	 23.6159 	 -4.25132 	 80.9729
| 41> *
| 42>
| 43>                          ****END OF INPUT****

CARTESIAN COORDINATES (ANGSTROEM)
---------------------------------
  S     29.452400   -6.346030   81.557400
  C     30.553900   -6.196070   80.277100
  C     30.178900   -5.216750   79.374900
  C     28.974400   -4.613220   79.757200
  C     28.352000   -5.093540   80.901300
  H     28.453700   -3.918150   79.172000
  C     30.815800   -4.895180   78.013500
  H     30.255000   -4.052150   77.611000
  H     30.670000   -5.706740   77.342900
  C     32.287700   -4.508830   77.922500
  H     32.849600   -5.255910   78.491800
  H     32.527100   -4.500280   76.892400
  C     32.581000   -3.133000   78.512000
  H     33.677500   -2.827770   78.647400
  H     32.205400   -2.353930   77.905800
  H     32.206700   -2.957900   79.546200
  S     25.705200   -5.081340   80.101600
  C     24.630600   -4.313620   81.272000
  C     25.197200   -3.895300   82.431400
  C     26.576200   -4.211070   82.497200
  C     27.006700   -4.831810   81.301900
  H     24.595000   -3.424970   83.156500
  C     27.457600   -3.738730   83.665200
  H     26.832500   -2.906130   84.052400
  H     28.391800   -3.214320   83.272400
  C     27.605700   -4.931090   84.636700
  H     28.106500   -4.605370   85.527900
  H     28.297600   -5.663240   84.283200
  C     26.302300   -5.623300   85.037100
  H     26.473500   -6.411040   85.714500
  H     26.055700   -6.183090   84.120100
  H     25.534600   -4.919330   85.308800
  H     31.513600   -6.820690   80.111400
  H     23.615900   -4.251320   80.972900

 Total Charge           Charge          ....    0
 Multiplicity           Mult            ....    1
 Number of Electrons    NEL             ....  134
 Basis Dimension        Dim             ....  322

ORBITAL ENERGIES
----------------

  NO   OCC          E(Eh)            E(eV)
   0   2.0000     -88.967895     -2420.9395
   1   2.0000     -88.965786     -2420.8821
   2   2.0000     -10.325205      -280.9631
   3   2.0000     -10.323391      -280.9138
   4   2.0000     -10.316277      -280.7202
   5   2.0000     -10.314108      -280.6611
   6   2.0000     -10.304854      -280.4093
   7   2.0000     -10.301346      -280.3139
   8   2.0000     -10.294944      -280.1397
   9   2.0000     -10.289904      -280.0025
  10   2.0000     -10.287588      -279.9395
  11   2.0000     -10.284092      -279.8444
  12   2.0000     -10.283793      -279.8362
  13   2.0000     -10.279916      -279.7307
  14   2.0000     -10.276418      -279.6356
  15   2.0000     -10.269771      -279.4547
  16   2.0000      -8.081974      -219.9217
  17   2.0000      -8.080256      -219.8749
  18   2.0000      -6.040324      -164.3656
  19   2.0000      -6.038662      -164.3203
  20   2.0000      -6.036788      -164.2694
  21   2.0000      -6.034636      -164.2108
  22   2.0000      -6.032731      -164.1590
  23   2.0000      -6.031313      -164.1204
  24   2.0000      -1.004379       -27.3305
  25   2.0000      -0.983598       -26.7651
  26   2.0000      -0.910870       -24.7860
  27   2.0000      -0.908276       -24.7155
  28   2.0000      -0.872145       -23.7323
  29   2.0000      -0.849761       -23.1232
  30   2.0000      -0.846983       -23.0476
  31   2.0000      -0.809463       -22.0266
  32   2.0000      -0.784433       -21.3455
  33   2.0000      -0.769956       -20.9516
  34   2.0000      -0.709271       -19.3003
  35   2.0000      -0.702167       -19.1069
  36   2.0000      -0.689292       -18.7566
  37   2.0000      -0.664208       -18.0740
  38   2.0000      -0.638394       -17.3716
  39   2.0000      -0.608372       -16.5546
  40   2.0000      -0.592894       -16.1335
  41   2.0000      -0.578558       -15.7434
  42   2.0000      -0.558249       -15.1907
  43   2.0000      -0.550023       -14.9669
  44   2.0000      -0.547486       -14.8979
  45   2.0000      -0.540118       -14.6974
  46   2.0000      -0.521316       -14.1857
  47   2.0000      -0.501554       -13.6480
  48   2.0000      -0.494566       -13.4578
  49   2.0000      -0.484968       -13.1967
  50   2.0000      -0.482373       -13.1260
  51   2.0000      -0.476403       -12.9636
  52   2.0000      -0.469625       -12.7792
  53   2.0000      -0.464690       -12.6449
  54   2.0000      -0.463771       -12.6199
  55   2.0000      -0.450992       -12.2721
  56   2.0000      -0.445949       -12.1349
  57   2.0000      -0.439244       -11.9524
  58   2.0000      -0.435690       -11.8557
  59   2.0000      -0.425075       -11.5669
  60   2.0000      -0.418508       -11.3882
  61   2.0000      -0.413251       -11.2451
  62   2.0000      -0.403870       -10.9899
  63   2.0000      -0.339824        -9.2471
  64   2.0000      -0.339141        -9.2285
  65   2.0000      -0.327290        -8.9060
  66   2.0000      -0.289764        -7.8849
  67   0.0000       0.031836         0.8663
  68   0.0000       0.059417         1.6168
  69   0.0000       0.102053         2.7770
  70   0.0000       0.117222         3.1898
  71   0.0000       0.133307         3.6275

MULLIKEN ATOMIC CHARGES
-----------------------
   0 S :    0.112283
   1 C :   -0.155202
   2 C :   -0.080022
   3 C :    0.024815
   4 C :   -0.158527
   5 H :   -0.013533
   6 C :    0.072593
   7 H :    0.010132
   8 H :    0.033527
   9 C :   -0.023409
  10 H :    0.025717
  11 H :    0.025356
  12 C :   -0.090133
  13 H :    0.034835
  14 H :    0.018343
  15 H :    0.039828
  16 S :    0.111076
  17 C :   -0.089228
  18 C :    0.003702
  19 C :   -0.067596
  20 C :   -0.168308
  21 H :    0.003807
  22 C :    0.072807
  23 H :    0.024296
  24 H :    0.058902
  25 C :   -0.059791
  26 H :    0.015995
  27 H :    0.020747
  28 C :   -0.027731
  29 H :    0.025855
  30 H :    0.042465
  31 H :    0.034243
  32 H :    0.080122
  33 H :    0.042031
Sum of atomic charges:   -0.0000000

LOEWDIN ATOMIC CHARGES
----------------------
   0 S :    0.418470
   1 C :   -0.226376
   2 C :   -0.076518
   3 C :   -0.057144
   4 C :   -0.194234
   5 H :    0.018491
   6 C :   -0.024682
   7 H :    0.028309
   8 H :    0.029620
   9 C :   -0.034621
  10 H :    0.023173
  11 H :    0.023301
  12 C :   -0.077512
  13 H :    0.032478
  14 H :    0.015827
  15 H :    0.030092
  16 S :    0.388606
  17 C :   -0.161301
  18 C :   -0.068390
  19 C :   -0.042401
  20 C :   -0.196832
  21 H :    0.027206
  22 C :   -0.032082
  23 H :    0.032283
  24 H :    0.044843
  25 C :   -0.039837
  26 H :    0.016925
  27 H :    0.016717
  28 C :   -0.058812
  29 H :    0.022851
  30 H :    0.034103
  31 H :    0.022042
  32 H :    0.049189
  33 H :    0.016216

  Mayer bond orders larger than 0.100000
B(  0-S ,  1-C ) :   1.1753 B(  0-S ,  4-C ) :   1.1347 B(  1-C ,  2-C ) :   1.5718
B(  1-C , 32-H ) :   0.9514 B(  2-C ,  3-C ) :   1.2863 B(  2-C ,  6-C ) :   1.0057
B(  3-C ,  4-C ) :   1.5466 B(  3-C ,  5-H ) :   1.0044 B(  4-C , 20-C ) :   1.0789
B(  6-C ,  7-H ) :   0.9418 B(  6-C ,  8-H ) :   0.9393 B(  6-C ,  9-C ) :   1.0801
B(  9-C , 10-H ) :   0.9567 B(  9-C , 11-H ) :   0.9526 B(  9-C , 12-C ) :   1.0759
B( 12-C , 13-H ) :   0.9749 B( 12-C , 14-H ) :   0.9745 B( 12-C , 15-H ) :   0.9767
B( 16-S , 17-C ) :   1.1525 B( 16-S , 20-C ) :   1.1306 B( 17-C , 18-C ) :   1.6179
B( 17-C , 33-H ) :   0.9710 B( 18-C , 19-C ) :   1.2335 B( 18-C , 21-H ) :   0.9967
B( 19-C , 20-C ) :   1.5742 B( 19-C , 22-C ) :   1.0133 B( 22-C , 23-H ) :   0.9416
B( 22-C , 24-H ) :   0.9391 B( 22-C , 25-C ) :   1.0506 B( 25-C , 26-H ) :   0.9556
B( 25-C , 27-H ) :   0.9542 B( 25-C , 28-C ) :   1.0829 B( 28-C , 29-H ) :   0.9691
B( 28-C , 30-H ) :   0.9647 B( 28-C , 31-H ) :   0.9767

Dispersion correction           -0.015139650
FINAL SINGLE POINT ENERGY     -1339.870265112557

DIPOLE MOMENT
-------------
                                X             Y             Z
Electronic contribution:    -12.46689      -7.71992      -3.12329
Nuclear contribution   :     12.47209       7.97181       3.04762
                        -----------------------------------------
Total Dipole Moment    :      0.00520       0.25189      -0.07567
                        -----------------------------------------
Magnitude (a.u.)       :      0.26306
Magnitude (Debye)      :      0.66865

Rotational constants in cm-1:     0.023648     0.007769     0.006778
Rotational constants in MHz :   708.957854   232.920058   203.189602

                             ****ORCA TERMINATED NORMALLY****
TOTAL RUN TIME: 0 days 0 hours 0 minutes 28 seconds 565 msec
