                         Program Version 4.2.1 -  RELEASE  -
|  1> ! wB97X-D3 SP def2-SVP
|  2> %pal
|  3> nprocs 16
|  4> end
|  5>
|  6> * xyz 0 1
|  7> S 	 -4.09994 	 9.09628 	 82.4669
|  8> C 	 -3.7042 	 7.58262 	 83.2926
|  9> C 	 -3.22554 	 6.65931 	 82.4041
| 10> C 	 -3.29494 	 7.12576 	 81.0416
| 11> C 	 -3.67858 	 8.41751 	 80.8925
| 12> H 	 -2.99793 	 6.5407 	 80.1989
| 13> C 	 -2.80299 	 5.22023 	 82.7882
| 14> H 	 -3.54831 	 5.07435 	 83.6036
| 15> H 	 -1.77924 	 5.24554 	 83.2993
| 16> C 	 -2.81875 	 4.14466 	 81.7693
| 17> H 	 -3.76333 	 4.05586 	 81.2389
| 18> H 	 -2.09703 	 4.36688 	 80.9892
| 19> C 	 -2.32735 	 2.77316 	 82.3315
| 20> H 	 -2.98904 	 2.54127 	 83.1862
| 21> H 	 -2.24932 	 2.01816 	 81.5535
| 22> H 	 -1.35273 	 3.00165 	 82.7358
| 23> S 	 -5.95709 	 9.09742 	 79.4128
| 24> C 	 -5.76869 	 9.76022 	 77.8323
| 25> C 	 -4.48043 	 9.68685 	 77.3748
| 26> C 	 -3.56629 	 9.36158 	 78.449
| 27> C 	 -4.18436 	 8.99755 	 79.637
| 28> H 	 -4.16597 	 10.0863 	 76.4332
| 29> C 	 -2.08458 	 9.13978 	 78.2492
| 30> H 	 -1.86461 	 9.06208 	 77.1635
| 31> H 	 -1.80888 	 8.10133 	 78.5839
| 32> C 	 -1.12785 	 10.1783 	 78.8723
| 33> H 	 -1.41984 	 10.3994 	 79.8955
| 34> H 	 -1.32368 	 11.1572 	 78.413
| 35> C 	 0.395147 	 9.85938 	 78.8343
| 36> H 	 1.09876 	 10.6082 	 78.9844
| 37> H 	 0.611804 	 9.374 	 77.9083
| 38> H 	 0.625711 	 9.09641 	 79.5073
| 39> H 	 -3.56312 	 7.56878 	 84.3579
| 40> H 	 -6.55249 	 10.1319 	 77.2108
| 41> *
| 42>
| 43>                          ****END OF INPUT****

CARTESIAN COORDINATES (ANGSTROEM)
---------------------------------
  S     -4.099940    9.096280   82.466900
  C     -3.704200    7.582620   83.292600
  C     -3.225540    6.659310   82.404100
  C     -3.294940    7.125760   81.041600
  C     -3.678580    8.417510   80.892500
  H     -2.997930    6.540700   80.198900
  C     -2.802990    5.220230   82.788200
  H     -3.548310    5.074350   83.603600
  H     -1.779240    5.245540   83.299300
  C     -2.818750    4.144660   81.769300
  H     -3.763330    4.055860   81.238900
  H     -2.097030    4.366880   80.989200
  C     -2.327350    2.773160   82.331500
  H     -2.989040    2.541270   83.186200
  H     -2.249320    2.018160   81.553500
  H     -1.352730    3.001650   82.735800
  S     -5.957090    9.097420   79.412800
  C     -5.768690    9.760220   77.832300
  C     -4.480430    9.686850   77.374800
  C     -3.566290    9.361580   78.449000
  C     -4.184360    8.997550   79.637000
  H     -4.165970   10.086300   76.433200
  C     -2.084580    9.139780   78.249200
  H     -1.864610    9.062080   77.163500
  H     -1.808880    8.101330   78.583900
  C     -1.127850   10.178300   78.872300
  H     -1.419840   10.399400   79.895500
  H     -1.323680   11.157200   78.413000
  C      0.395147    9.859380   78.834300
  H      1.098760   10.608200   78.984400
  H      0.611804    9.374000   77.908300
  H      0.625711    9.096410   79.507300
  H     -3.563120    7.568780   84.357900
  H     -6.552490   10.131900   77.210800

 Total Charge           Charge          ....    0
 Multiplicity           Mult            ....    1
 Number of Electrons    NEL             ....  134
 Basis Dimension        Dim             ....  322

ORBITAL ENERGIES
----------------

  NO   OCC          E(Eh)            E(eV)
   0   2.0000     -88.964197     -2420.8389
   1   2.0000     -88.963457     -2420.8187
   2   2.0000     -10.329542      -281.0811
   3   2.0000     -10.327883      -281.0360
   4   2.0000     -10.316165      -280.7171
   5   2.0000     -10.313868      -280.6546
   6   2.0000     -10.305890      -280.4375
   7   2.0000     -10.303725      -280.3786
   8   2.0000     -10.302022      -280.3323
   9   2.0000     -10.295446      -280.1533
  10   2.0000     -10.293671      -280.1050
  11   2.0000     -10.292034      -280.0605
  12   2.0000     -10.287345      -279.9329
  13   2.0000     -10.284189      -279.8470
  14   2.0000     -10.283815      -279.8368
  15   2.0000     -10.264285      -279.3054
  16   2.0000      -8.078622      -219.8305
  17   2.0000      -8.078179      -219.8184
  18   2.0000      -6.037255      -164.2821
  19   2.0000      -6.036717      -164.2674
  20   2.0000      -6.033101      -164.1690
  21   2.0000      -6.032714      -164.1585
  22   2.0000      -6.029336      -164.0666
  23   2.0000      -6.028865      -164.0538
  24   2.0000      -1.005084       -27.3497
  25   2.0000      -0.983680       -26.7673
  26   2.0000      -0.915805       -24.9203
  27   2.0000      -0.901540       -24.5322
  28   2.0000      -0.872360       -23.7381
  29   2.0000      -0.849172       -23.1072
  30   2.0000      -0.844293       -22.9744
  31   2.0000      -0.818595       -22.2751
  32   2.0000      -0.782526       -21.2936
  33   2.0000      -0.772345       -21.0166
  34   2.0000      -0.714142       -19.4328
  35   2.0000      -0.700004       -19.0481
  36   2.0000      -0.689299       -18.7568
  37   2.0000      -0.660556       -17.9746
  38   2.0000      -0.645437       -17.5632
  39   2.0000      -0.620623       -16.8880
  40   2.0000      -0.595380       -16.2011
  41   2.0000      -0.576462       -15.6863
  42   2.0000      -0.567846       -15.4519
  43   2.0000      -0.550215       -14.9721
  44   2.0000      -0.531374       -14.4594
  45   2.0000      -0.526117       -14.3164
  46   2.0000      -0.513271       -13.9668
  47   2.0000      -0.509240       -13.8571
  48   2.0000      -0.505692       -13.7606
  49   2.0000      -0.500278       -13.6133
  50   2.0000      -0.493888       -13.4394
  51   2.0000      -0.479696       -13.0532
  52   2.0000      -0.470527       -12.8037
  53   2.0000      -0.464947       -12.6519
  54   2.0000      -0.457518       -12.4497
  55   2.0000      -0.451445       -12.2845
  56   2.0000      -0.443926       -12.0798
  57   2.0000      -0.441623       -12.0172
  58   2.0000      -0.436164       -11.8686
  59   2.0000      -0.426200       -11.5975
  60   2.0000      -0.422401       -11.4941
  61   2.0000      -0.410576       -11.1723
  62   2.0000      -0.404980       -11.0201
  63   2.0000      -0.344004        -9.3608
  64   2.0000      -0.329571        -8.9681
  65   2.0000      -0.325023        -8.8443
  66   2.0000      -0.304446        -8.2844
  67   0.0000       0.032769         0.8917
  68   0.0000       0.060120         1.6360
  69   0.0000       0.111547         3.0353
  70   0.0000       0.121533         3.3071
  71   0.0000       0.128989         3.5100

MULLIKEN ATOMIC CHARGES
-----------------------
   0 S :    0.095399
   1 C :   -0.131199
   2 C :   -0.078874
   3 C :    0.036844
   4 C :   -0.137492
   5 H :    0.010659
   6 C :    0.027752
   7 H :    0.035747
   8 H :    0.046681
   9 C :   -0.092622
  10 H :    0.034422
  11 H :    0.027060
  12 C :   -0.026364
  13 H :    0.036392
  14 H :    0.044883
  15 H :    0.020872
  16 S :    0.112501
  17 C :   -0.078343
  18 C :   -0.013348
  19 C :   -0.048525
  20 C :   -0.152039
  21 H :    0.015409
  22 C :    0.029476
  23 H :    0.017562
  24 H :    0.025836
  25 C :   -0.068356
  26 H :    0.027172
  27 H :    0.020079
  28 C :    0.015072
  29 H :    0.025090
  30 H :    0.005255
  31 H :    0.010987
  32 H :    0.055498
  33 H :    0.050515
Sum of atomic charges:   -0.0000000

LOEWDIN ATOMIC CHARGES
----------------------
   0 S :    0.390006
   1 C :   -0.185805
   2 C :   -0.062236
   3 C :   -0.052296
   4 C :   -0.194689
   5 H :    0.027642
   6 C :   -0.041985
   7 H :    0.036951
   8 H :    0.040332
   9 C :   -0.050091
  10 H :    0.024105
  11 H :    0.022389
  12 C :   -0.054111
  13 H :    0.027930
  14 H :    0.027918
  15 H :    0.021944
  16 S :    0.402419
  17 C :   -0.182016
  18 C :   -0.072217
  19 C :   -0.056394
  20 C :   -0.186876
  21 H :    0.028754
  22 C :   -0.037817
  23 H :    0.029297
  24 H :    0.030997
  25 C :   -0.039642
  26 H :    0.021972
  27 H :    0.023669
  28 C :   -0.056960
  29 H :    0.020407
  30 H :    0.021719
  31 H :    0.020010
  32 H :    0.027442
  33 H :    0.027234

  Mayer bond orders larger than 0.100000
B(  0-S ,  1-C ) :   1.1380 B(  0-S ,  4-C ) :   1.1423 B(  1-C ,  2-C ) :   1.6322
B(  1-C , 32-H ) :   0.9676 B(  2-C ,  3-C ) :   1.2427 B(  2-C ,  6-C ) :   0.9847
B(  3-C ,  4-C ) :   1.5896 B(  3-C ,  5-H ) :   0.9899 B(  4-C , 20-C ) :   1.0060
B(  6-C ,  7-H ) :   0.9469 B(  6-C ,  8-H ) :   0.9313 B(  6-C ,  9-C ) :   1.0919
B(  9-C , 10-H ) :   0.9532 B(  9-C , 11-H ) :   0.9423 B(  9-C , 12-C ) :   1.0766
B( 12-C , 13-H ) :   0.9780 B( 12-C , 14-H ) :   0.9741 B( 12-C , 15-H ) :   0.9745
B( 16-S , 17-C ) :   1.1644 B( 16-S , 20-C ) :   1.1258 B( 17-C , 18-C ) :   1.6154
B( 17-C , 33-H ) :   0.9660 B( 18-C , 19-C ) :   1.2482 B( 18-C , 21-H ) :   0.9860
B( 19-C , 20-C ) :   1.6250 B( 19-C , 22-C ) :   1.0404 B( 22-C , 23-H ) :   0.9347
B( 22-C , 24-H ) :   0.9418 B( 22-C , 25-C ) :   1.0507 B( 25-C , 26-H ) :   0.9623
B( 25-C , 27-H ) :   0.9537 B( 25-C , 28-C ) :   1.0718 B( 28-C , 29-H ) :   0.9766
B( 28-C , 30-H ) :   0.9720 B( 28-C , 31-H ) :   0.9718

Dispersion correction           -0.013815785
FINAL SINGLE POINT ENERGY     -1339.875262343924

DIPOLE MOMENT
-------------
                                X             Y             Z
Electronic contribution:    -21.88678      15.36015       2.39424
Nuclear contribution   :     22.33431     -15.84594      -2.56520
                        -----------------------------------------
Total Dipole Moment    :      0.44753      -0.48579      -0.17096
                        -----------------------------------------
Magnitude (a.u.)       :      0.68227
Magnitude (Debye)      :      1.73420

Rotational constants in cm-1:     0.016353     0.008296     0.007190
Rotational constants in MHz :   490.252542   248.718203   215.545220

                             ****ORCA TERMINATED NORMALLY****
TOTAL RUN TIME: 0 days 0 hours 0 minutes 34 seconds 203 msec
