                         Program Version 4.2.1 -  RELEASE  -
|  1> ! wB97X-D3 SP def2-SVP
|  2> %pal
|  3> nprocs 16
|  4> end
|  5>
|  6> * xyz 0 1
|  7> S 	 -45.8509 	 37.422 	 82.5056
|  8> C 	 -45.0571 	 38.8438 	 81.9129
|  9> C 	 -44.0725 	 38.5022 	 80.9937
| 10> C 	 -43.9827 	 37.0942 	 80.751
| 11> C 	 -44.8905 	 36.3818 	 81.438
| 12> H 	 -43.4598 	 36.557 	 80.0463
| 13> C 	 -43.1213 	 39.4593 	 80.3099
| 14> H 	 -43.662 	 40.3348 	 80.0005
| 15> H 	 -42.8688 	 38.8624 	 79.3756
| 16> C 	 -42.0187 	 39.8735 	 81.2388
| 17> H 	 -42.3869 	 40.4871 	 82.0083
| 18> H 	 -41.6226 	 39.1449 	 81.8737
| 19> C 	 -40.9011 	 40.5696 	 80.4779
| 20> H 	 -40.1815 	 40.8993 	 81.226
| 21> H 	 -40.4858 	 39.8788 	 79.8213
| 22> H 	 -41.2363 	 41.3566 	 79.9157
| 23> S 	 -46.9039 	 34.6486 	 80.9435
| 24> C 	 -46.5816 	 32.9916 	 80.7154
| 25> C 	 -45.2187 	 32.7645 	 80.6513
| 26> C 	 -44.4624 	 33.9008 	 81.1311
| 27> C 	 -45.2348 	 34.9969 	 81.1913
| 28> H 	 -44.8273 	 31.7657 	 80.5874
| 29> C 	 -42.9837 	 33.9024 	 81.2913
| 30> H 	 -42.7593 	 33.0875 	 82.012
| 31> H 	 -42.6132 	 34.7377 	 81.848
| 32> C 	 -42.1932 	 33.8633 	 80.011
| 33> H 	 -42.6895 	 34.3436 	 79.2234
| 34> H 	 -42.2154 	 32.9381 	 79.5716
| 35> C 	 -40.7445 	 34.337 	 80.3108
| 36> H 	 -40.0941 	 33.5288 	 80.72
| 37> H 	 -40.6675 	 35.218 	 80.9916
| 38> H 	 -40.188 	 34.5295 	 79.3086
| 39> H 	 -45.2612 	 39.817 	 82.3327
| 40> H 	 -47.3473 	 32.2471 	 80.5677
| 41> *
| 42>
| 43>                          ****END OF INPUT****

CARTESIAN COORDINATES (ANGSTROEM)
---------------------------------
  S    -45.850900   37.422000   82.505600
  C    -45.057100   38.843800   81.912900
  C    -44.072500   38.502200   80.993700
  C    -43.982700   37.094200   80.751000
  C    -44.890500   36.381800   81.438000
  H    -43.459800   36.557000   80.046300
  C    -43.121300   39.459300   80.309900
  H    -43.662000   40.334800   80.000500
  H    -42.868800   38.862400   79.375600
  C    -42.018700   39.873500   81.238800
  H    -42.386900   40.487100   82.008300
  H    -41.622600   39.144900   81.873700
  C    -40.901100   40.569600   80.477900
  H    -40.181500   40.899300   81.226000
  H    -40.485800   39.878800   79.821300
  H    -41.236300   41.356600   79.915700
  S    -46.903900   34.648600   80.943500
  C    -46.581600   32.991600   80.715400
  C    -45.218700   32.764500   80.651300
  C    -44.462400   33.900800   81.131100
  C    -45.234800   34.996900   81.191300
  H    -44.827300   31.765700   80.587400
  C    -42.983700   33.902400   81.291300
  H    -42.759300   33.087500   82.012000
  H    -42.613200   34.737700   81.848000
  C    -42.193200   33.863300   80.011000
  H    -42.689500   34.343600   79.223400
  H    -42.215400   32.938100   79.571600
  C    -40.744500   34.337000   80.310800
  H    -40.094100   33.528800   80.720000
  H    -40.667500   35.218000   80.991600
  H    -40.188000   34.529500   79.308600
  H    -45.261200   39.817000   82.332700
  H    -47.347300   32.247100   80.567700

 Total Charge           Charge          ....    0
 Multiplicity           Mult            ....    1
 Number of Electrons    NEL             ....  134
 Basis Dimension        Dim             ....  322

ORBITAL ENERGIES
----------------

  NO   OCC          E(Eh)            E(eV)
   0   2.0000     -88.961055     -2420.7534
   1   2.0000     -88.960157     -2420.7289
   2   2.0000     -10.321418      -280.8601
   3   2.0000     -10.314478      -280.6712
   4   2.0000     -10.313652      -280.6487
   5   2.0000     -10.311799      -280.5983
   6   2.0000     -10.299311      -280.2585
   7   2.0000     -10.294509      -280.1278
   8   2.0000     -10.293700      -280.1058
   9   2.0000     -10.291729      -280.0522
  10   2.0000     -10.290209      -280.0108
  11   2.0000     -10.284627      -279.8589
  12   2.0000     -10.282922      -279.8125
  13   2.0000     -10.277914      -279.6763
  14   2.0000     -10.272422      -279.5268
  15   2.0000     -10.262945      -279.2689
  16   2.0000      -8.076704      -219.7783
  17   2.0000      -8.075991      -219.7589
  18   2.0000      -6.035076      -164.2228
  19   2.0000      -6.034505      -164.2072
  20   2.0000      -6.030961      -164.1108
  21   2.0000      -6.030423      -164.0961
  22   2.0000      -6.027471      -164.0158
  23   2.0000      -6.026787      -163.9972
  24   2.0000      -1.015253       -27.6265
  25   2.0000      -0.988560       -26.9001
  26   2.0000      -0.918504       -24.9938
  27   2.0000      -0.918366       -24.9900
  28   2.0000      -0.873693       -23.7744
  29   2.0000      -0.855267       -23.2730
  30   2.0000      -0.848646       -23.0928
  31   2.0000      -0.818340       -22.2682
  32   2.0000      -0.778853       -21.1937
  33   2.0000      -0.768559       -20.9136
  34   2.0000      -0.718940       -19.5633
  35   2.0000      -0.714024       -19.4296
  36   2.0000      -0.696603       -18.9555
  37   2.0000      -0.668486       -18.1904
  38   2.0000      -0.650141       -17.6912
  39   2.0000      -0.621915       -16.9232
  40   2.0000      -0.605289       -16.4708
  41   2.0000      -0.564702       -15.3663
  42   2.0000      -0.563128       -15.3235
  43   2.0000      -0.557607       -15.1733
  44   2.0000      -0.535532       -14.5726
  45   2.0000      -0.526075       -14.3152
  46   2.0000      -0.522482       -14.2175
  47   2.0000      -0.518102       -14.0983
  48   2.0000      -0.509695       -13.8695
  49   2.0000      -0.497401       -13.5350
  50   2.0000      -0.489636       -13.3237
  51   2.0000      -0.483266       -13.1503
  52   2.0000      -0.471069       -12.8184
  53   2.0000      -0.466731       -12.7004
  54   2.0000      -0.465120       -12.6566
  55   2.0000      -0.455726       -12.4009
  56   2.0000      -0.448065       -12.1925
  57   2.0000      -0.445087       -12.1114
  58   2.0000      -0.439182       -11.9508
  59   2.0000      -0.421987       -11.4829
  60   2.0000      -0.417583       -11.3630
  61   2.0000      -0.410446       -11.1688
  62   2.0000      -0.408531       -11.1167
  63   2.0000      -0.352119        -9.5817
  64   2.0000      -0.329677        -8.9710
  65   2.0000      -0.325751        -8.8641
  66   2.0000      -0.293294        -7.9809
  67   0.0000       0.036108         0.9825
  68   0.0000       0.077634         2.1125
  69   0.0000       0.117923         3.2088
  70   0.0000       0.129531         3.5247
  71   0.0000       0.132422         3.6034

MULLIKEN ATOMIC CHARGES
-----------------------
   0 S :    0.099638
   1 C :   -0.125588
   2 C :   -0.088220
   3 C :    0.059176
   4 C :   -0.140657
   5 H :   -0.033217
   6 C :    0.070154
   7 H :    0.021831
   8 H :    0.033366
   9 C :   -0.040980
  10 H :    0.000722
  11 H :    0.006992
  12 C :    0.030247
  13 H :    0.029607
  14 H :    0.013366
  15 H :    0.005847
  16 S :    0.117238
  17 C :   -0.092694
  18 C :   -0.020009
  19 C :   -0.077685
  20 C :   -0.141831
  21 H :    0.015970
  22 C :    0.061393
  23 H :    0.028509
  24 H :    0.010365
  25 C :    0.013082
  26 H :    0.013160
  27 H :   -0.004441
  28 C :   -0.106029
  29 H :    0.042538
  30 H :    0.050653
  31 H :    0.041690
  32 H :    0.047882
  33 H :    0.057924
Sum of atomic charges:   -0.0000000

LOEWDIN ATOMIC CHARGES
----------------------
   0 S :    0.391762
   1 C :   -0.201431
   2 C :   -0.057816
   3 C :   -0.056358
   4 C :   -0.177938
   5 H :    0.020112
   6 C :   -0.030256
   7 H :    0.028982
   8 H :    0.037392
   9 C :   -0.036746
  10 H :    0.019594
  11 H :    0.018676
  12 C :   -0.044685
  13 H :    0.029366
  14 H :    0.017303
  15 H :    0.012038
  16 S :    0.430005
  17 C :   -0.191273
  18 C :   -0.072498
  19 C :   -0.060168
  20 C :   -0.205313
  21 H :    0.026659
  22 C :   -0.034383
  23 H :    0.036695
  24 H :    0.025220
  25 C :   -0.036485
  26 H :    0.019556
  27 H :    0.017759
  28 C :   -0.074848
  29 H :    0.030479
  30 H :    0.028543
  31 H :    0.035177
  32 H :    0.026473
  33 H :    0.028406

  Mayer bond orders larger than 0.100000
B(  0-S ,  1-C ) :   1.1333 B(  0-S ,  4-C ) :   1.1399 B(  1-C ,  2-C ) :   1.6045
B(  1-C , 32-H ) :   0.9757 B(  2-C ,  3-C ) :   1.2171 B(  2-C ,  6-C ) :   1.0181
B(  3-C ,  4-C ) :   1.5968 B(  3-C ,  5-H ) :   1.0064 B(  4-C , 20-C ) :   1.0279
B(  6-C ,  7-H ) :   0.9313 B(  6-C ,  8-H ) :   0.9493 B(  6-C ,  9-C ) :   1.0622
B(  9-C , 10-H ) :   0.9428 B(  9-C , 11-H ) :   0.9536 B(  9-C , 12-C ) :   1.0873
B( 12-C , 13-H ) :   0.9717 B( 12-C , 14-H ) :   0.9766 B( 12-C , 15-H ) :   0.9703
B( 16-S , 17-C ) :   1.1684 B( 16-S , 20-C ) :   1.1353 B( 17-C , 18-C ) :   1.6082
B( 17-C , 33-H ) :   0.9706 B( 18-C , 19-C ) :   1.2242 B( 18-C , 21-H ) :   0.9848
B( 19-C , 20-C ) :   1.6299 B( 19-C , 22-C ) :   1.0711 B( 22-C , 23-H ) :   0.9170
B( 22-C , 24-H ) :   0.9369 B( 22-C , 25-C ) :   1.0461 B( 25-C , 26-H ) :   0.9543
B( 25-C , 27-H ) :   0.9348 B( 25-C , 28-C ) :   1.0709 B( 28-C , 29-H ) :   0.9756
B( 28-C , 30-H ) :   0.9773 B( 28-C , 31-H ) :   0.9742

Dispersion correction           -0.014478530
FINAL SINGLE POINT ENERGY     -1339.859985714403

DIPOLE MOMENT
-------------
                                X             Y             Z
Electronic contribution:    -30.01699      -7.29582       7.39476
Nuclear contribution   :     30.59891       7.24966      -7.61074
                        -----------------------------------------
Total Dipole Moment    :      0.58191      -0.04616      -0.21598
                        -----------------------------------------
Magnitude (a.u.)       :      0.62242
Magnitude (Debye)      :      1.58206

Rotational constants in cm-1:     0.018826     0.009358     0.006648
Rotational constants in MHz :   564.380355   280.542612   199.308731

                             ****ORCA TERMINATED NORMALLY****
TOTAL RUN TIME: 0 days 0 hours 0 minutes 30 seconds 878 msec
