                         Program Version 4.2.1 -  RELEASE  -
|  1> ! wB97X-D3 SP def2-SVP
|  2> %pal
|  3> nprocs 16
|  4> end
|  5>
|  6> * xyz 0 1
|  7> S 	 -9.44036 	 47.6285 	 42.1105
|  8> C 	 -9.80782 	 48.7853 	 43.3601
|  9> C 	 -8.61799 	 49.3061 	 43.8727
| 10> C 	 -7.4617 	 49.0531 	 43.091
| 11> C 	 -7.75114 	 48.1165 	 42.0832
| 12> H 	 -6.45692 	 49.4496 	 43.1701
| 13> C 	 -8.53239 	 50.2138 	 45.1044
| 14> H 	 -7.80794 	 49.7134 	 45.8228
| 15> H 	 -9.48873 	 50.3432 	 45.6507
| 16> C 	 -7.8756 	 51.6116 	 44.821
| 17> H 	 -7.56738 	 52.1451 	 45.7336
| 18> H 	 -7.0613 	 51.3757 	 44.1618
| 19> C 	 -8.86005 	 52.5118 	 44.0592
| 20> H 	 -8.40022 	 53.444 	 43.8359
| 21> H 	 -9.17118 	 52.1425 	 43.0868
| 22> H 	 -9.74852 	 52.7841 	 44.6621
| 23> S 	 -6.40953 	 45.7162 	 41.5875
| 24> C 	 -5.25067 	 45.7086 	 40.266
| 25> C 	 -5.06839 	 46.9213 	 39.6411
| 26> C 	 -6.00252 	 47.8872 	 40.1851
| 27> C 	 -6.7858 	 47.4177 	 41.2677
| 28> H 	 -4.34662 	 47.0873 	 38.8539
| 29> C 	 -5.94586 	 49.3578 	 39.7864
| 30> H 	 -6.70722 	 49.9759 	 40.3221
| 31> H 	 -6.1982 	 49.4286 	 38.7341
| 32> C 	 -4.599 	 50.0065 	 40.0501
| 33> H 	 -3.93796 	 49.3773 	 39.4735
| 34> H 	 -4.35326 	 49.9743 	 41.094
| 35> C 	 -4.37323 	 51.3378 	 39.3987
| 36> H 	 -3.43708 	 51.6998 	 39.8604
| 37> H 	 -5.17253 	 52.1155 	 39.6256
| 38> H 	 -4.3475 	 51.2819 	 38.3037
| 39> H 	 -10.7583 	 49.0731 	 43.7585
| 40> H 	 -4.64157 	 44.8773 	 39.9999
| 41> *
| 42>
| 43>                          ****END OF INPUT****

CARTESIAN COORDINATES (ANGSTROEM)
---------------------------------
  S     -9.440360   47.628500   42.110500
  C     -9.807820   48.785300   43.360100
  C     -8.617990   49.306100   43.872700
  C     -7.461700   49.053100   43.091000
  C     -7.751140   48.116500   42.083200
  H     -6.456920   49.449600   43.170100
  C     -8.532390   50.213800   45.104400
  H     -7.807940   49.713400   45.822800
  H     -9.488730   50.343200   45.650700
  C     -7.875600   51.611600   44.821000
  H     -7.567380   52.145100   45.733600
  H     -7.061300   51.375700   44.161800
  C     -8.860050   52.511800   44.059200
  H     -8.400220   53.444000   43.835900
  H     -9.171180   52.142500   43.086800
  H     -9.748520   52.784100   44.662100
  S     -6.409530   45.716200   41.587500
  C     -5.250670   45.708600   40.266000
  C     -5.068390   46.921300   39.641100
  C     -6.002520   47.887200   40.185100
  C     -6.785800   47.417700   41.267700
  H     -4.346620   47.087300   38.853900
  C     -5.945860   49.357800   39.786400
  H     -6.707220   49.975900   40.322100
  H     -6.198200   49.428600   38.734100
  C     -4.599000   50.006500   40.050100
  H     -3.937960   49.377300   39.473500
  H     -4.353260   49.974300   41.094000
  C     -4.373230   51.337800   39.398700
  H     -3.437080   51.699800   39.860400
  H     -5.172530   52.115500   39.625600
  H     -4.347500   51.281900   38.303700
  H    -10.758300   49.073100   43.758500
  H     -4.641570   44.877300   39.999900

 Total Charge           Charge          ....    0
 Multiplicity           Mult            ....    1
 Number of Electrons    NEL             ....  134
 Basis Dimension        Dim             ....  322

ORBITAL ENERGIES
----------------

  NO   OCC          E(Eh)            E(eV)
   0   2.0000     -88.969141     -2420.9734
   1   2.0000     -88.967299     -2420.9233
   2   2.0000     -10.331263      -281.1280
   3   2.0000     -10.327200      -281.0174
   4   2.0000     -10.317230      -280.7461
   5   2.0000     -10.315366      -280.6954
   6   2.0000     -10.306822      -280.4629
   7   2.0000     -10.304780      -280.4073
   8   2.0000     -10.299485      -280.2632
   9   2.0000     -10.298506      -280.2366
  10   2.0000     -10.297305      -280.2039
  11   2.0000     -10.289075      -279.9800
  12   2.0000     -10.287053      -279.9249
  13   2.0000     -10.283765      -279.8355
  14   2.0000     -10.279684      -279.7244
  15   2.0000     -10.271844      -279.5111
  16   2.0000      -8.083602      -219.9660
  17   2.0000      -8.081502      -219.9089
  18   2.0000      -6.042071      -164.4131
  19   2.0000      -6.040047      -164.3580
  20   2.0000      -6.038096      -164.3050
  21   2.0000      -6.036104      -164.2508
  22   2.0000      -6.034458      -164.2059
  23   2.0000      -6.032238      -164.1455
  24   2.0000      -1.003563       -27.3083
  25   2.0000      -0.980487       -26.6804
  26   2.0000      -0.913684       -24.8626
  27   2.0000      -0.906664       -24.6716
  28   2.0000      -0.869665       -23.6648
  29   2.0000      -0.850049       -23.1310
  30   2.0000      -0.845928       -23.0189
  31   2.0000      -0.813940       -22.1484
  32   2.0000      -0.780108       -21.2278
  33   2.0000      -0.767199       -20.8765
  34   2.0000      -0.708209       -19.2714
  35   2.0000      -0.692621       -18.8472
  36   2.0000      -0.691717       -18.8226
  37   2.0000      -0.657568       -17.8933
  38   2.0000      -0.642136       -17.4734
  39   2.0000      -0.621542       -16.9130
  40   2.0000      -0.595745       -16.2110
  41   2.0000      -0.574979       -15.6460
  42   2.0000      -0.569034       -15.4842
  43   2.0000      -0.544819       -14.8253
  44   2.0000      -0.539491       -14.6803
  45   2.0000      -0.526607       -14.3297
  46   2.0000      -0.516563       -14.0564
  47   2.0000      -0.516162       -14.0455
  48   2.0000      -0.503225       -13.6934
  49   2.0000      -0.498232       -13.5576
  50   2.0000      -0.490130       -13.3371
  51   2.0000      -0.475333       -12.9345
  52   2.0000      -0.469269       -12.7695
  53   2.0000      -0.460457       -12.5297
  54   2.0000      -0.460114       -12.5203
  55   2.0000      -0.453384       -12.3372
  56   2.0000      -0.447954       -12.1895
  57   2.0000      -0.439353       -11.9554
  58   2.0000      -0.432329       -11.7643
  59   2.0000      -0.422135       -11.4869
  60   2.0000      -0.420104       -11.4316
  61   2.0000      -0.416010       -11.3202
  62   2.0000      -0.406101       -11.0506
  63   2.0000      -0.341433        -9.2909
  64   2.0000      -0.329825        -8.9750
  65   2.0000      -0.326553        -8.8860
  66   2.0000      -0.295863        -8.0508
  67   0.0000       0.036128         0.9831
  68   0.0000       0.055786         1.5180
  69   0.0000       0.113547         3.0898
  70   0.0000       0.116429         3.1682
  71   0.0000       0.125752         3.4219

MULLIKEN ATOMIC CHARGES
-----------------------
   0 S :    0.126509
   1 C :   -0.097161
   2 C :   -0.083620
   3 C :    0.033231
   4 C :   -0.178203
   5 H :    0.026852
   6 C :    0.028405
   7 H :    0.046625
   8 H :    0.024276
   9 C :   -0.069349
  10 H :    0.040105
  11 H :    0.022535
  12 C :   -0.048059
  13 H :    0.017265
  14 H :    0.034227
  15 H :    0.027045
  16 S :    0.117097
  17 C :   -0.077510
  18 C :   -0.032653
  19 C :   -0.026604
  20 C :   -0.173734
  21 H :    0.028152
  22 C :    0.053856
  23 H :    0.029427
  24 H :    0.019067
  25 C :   -0.068495
  26 H :    0.012797
  27 H :    0.029949
  28 C :   -0.055887
  29 H :    0.040710
  30 H :    0.030531
  31 H :    0.036943
  32 H :    0.040255
  33 H :    0.045417
Sum of atomic charges:    0.0000000

LOEWDIN ATOMIC CHARGES
----------------------
   0 S :    0.416773
   1 C :   -0.200661
   2 C :   -0.062010
   3 C :   -0.056926
   4 C :   -0.192804
   5 H :    0.035062
   6 C :   -0.036723
   7 H :    0.038946
   8 H :    0.026373
   9 C :   -0.037151
  10 H :    0.028117
  11 H :    0.018969
  12 C :   -0.068189
  13 H :    0.019077
  14 H :    0.024821
  15 H :    0.025359
  16 S :    0.395977
  17 C :   -0.172723
  18 C :   -0.070412
  19 C :   -0.046869
  20 C :   -0.207663
  21 H :    0.033848
  22 C :   -0.036625
  23 H :    0.029273
  24 H :    0.027790
  25 C :   -0.043254
  26 H :    0.022646
  27 H :    0.021495
  28 C :   -0.067646
  29 H :    0.032671
  30 H :    0.025485
  31 H :    0.026177
  32 H :    0.027592
  33 H :    0.023203

  Mayer bond orders larger than 0.100000
B(  0-S ,  1-C ) :   1.1379 B(  0-S ,  4-C ) :   1.1659 B(  1-C ,  2-C ) :   1.5911
B(  1-C ,  4-C ) :   0.1048 B(  1-C , 32-H ) :   0.9733 B(  2-C ,  3-C ) :   1.2374
B(  2-C ,  6-C ) :   1.0273 B(  3-C ,  4-C ) :   1.5523 B(  3-C ,  5-H ) :   0.9898
B(  4-C , 20-C ) :   1.0506 B(  6-C ,  7-H ) :   0.9388 B(  6-C ,  8-H ) :   0.9508
B(  6-C ,  9-C ) :   1.0598 B(  9-C , 10-H ) :   0.9564 B(  9-C , 11-H ) :   0.9552
B(  9-C , 12-C ) :   1.0821 B( 12-C , 13-H ) :   0.9724 B( 12-C , 14-H ) :   0.9752
B( 12-C , 15-H ) :   0.9748 B( 16-S , 17-C ) :   1.1551 B( 16-S , 20-C ) :   1.1246
B( 17-C , 18-C ) :   1.6274 B( 17-C , 33-H ) :   0.9654 B( 18-C , 19-C ) :   1.2216
B( 18-C , 21-H ) :   0.9868 B( 19-C , 20-C ) :   1.6065 B( 19-C , 22-C ) :   1.0521
B( 22-C , 23-H ) :   0.9333 B( 22-C , 24-H ) :   0.9297 B( 22-C , 25-C ) :   1.0667
B( 25-C , 26-H ) :   0.9491 B( 25-C , 27-H ) :   0.9583 B( 25-C , 28-C ) :   1.0829
B( 28-C , 29-H ) :   0.9723 B( 28-C , 30-H ) :   0.9735 B( 28-C , 31-H ) :   0.9740

Dispersion correction           -0.014421312
FINAL SINGLE POINT ENERGY     -1339.882149211066

DIPOLE MOMENT
-------------
                                X             Y             Z
Electronic contribution:     -8.34636     -28.98012      -1.56407
Nuclear contribution   :      8.74600      29.50246       1.60749
                        -----------------------------------------
Total Dipole Moment    :      0.39964       0.52234       0.04341
                        -----------------------------------------
Magnitude (a.u.)       :      0.65912
Magnitude (Debye)      :      1.67535

Rotational constants in cm-1:     0.016872     0.009622     0.006875
Rotational constants in MHz :   505.820455   288.446338   206.108966

                             ****ORCA TERMINATED NORMALLY****
TOTAL RUN TIME: 0 days 0 hours 0 minutes 34 seconds 430 msec
