                         Program Version 4.2.1 -  RELEASE  -
|  1> ! wB97X-D3 SP def2-SVP
|  2> %pal
|  3> nprocs 16
|  4> end
|  5>
|  6> * xyz 0 1
|  7> S 	 47.6742 	 10.559 	 81.3699
|  8> C 	 45.8978 	 10.1415 	 81.7039
|  9> C 	 45.0856 	 11.1337 	 81.1655
| 10> C 	 45.8006 	 11.8527 	 80.199
| 11> C 	 47.2055 	 11.661 	 80.157
| 12> H 	 45.3959 	 12.4783 	 79.4375
| 13> C 	 43.5941 	 11.143 	 81.2343
| 14> H 	 43.3439 	 10.0588 	 81.1553
| 15> H 	 43.3478 	 11.5862 	 80.3173
| 16> C 	 42.919 	 11.7788 	 82.4516
| 17> H 	 43.0436 	 11.1087 	 83.2912
| 18> H 	 43.4775 	 12.6802 	 82.7082
| 19> C 	 41.48 	 12.2127 	 82.1722
| 20> H 	 41.0437 	 12.6104 	 83.0874
| 21> H 	 41.3011 	 13.0348 	 81.4331
| 22> H 	 40.9037 	 11.4038 	 81.7023
| 23> S 	 48.5608 	 10.9438 	 77.9061
| 24> C 	 49.356 	 12.1543 	 76.8763
| 25> C 	 49.1852 	 13.4364 	 77.4965
| 26> C 	 48.4102 	 13.4655 	 78.6731
| 27> C 	 48.0779 	 12.1358 	 79.0862
| 28> H 	 49.5822 	 14.3227 	 77.0277
| 29> C 	 48.0305 	 14.735 	 79.4329
| 30> H 	 48.966 	 15.0823 	 79.8634
| 31> H 	 47.215 	 14.5488 	 80.2324
| 32> C 	 47.3696 	 15.9879 	 78.6935
| 33> H 	 46.4793 	 15.6673 	 78.1589
| 34> H 	 48.0004 	 16.3637 	 77.8902
| 35> C 	 46.8644 	 17.1694 	 79.4849
| 36> H 	 46.3733 	 16.8011 	 80.4254
| 37> H 	 46.1582 	 17.7819 	 78.9545
| 38> H 	 47.6791 	 17.8047 	 79.8211
| 39> H 	 45.5084 	 9.40354 	 82.3326
| 40> H 	 49.7842 	 12.0753 	 75.8403
| 41> *
| 42>
| 43>                          ****END OF INPUT****

CARTESIAN COORDINATES (ANGSTROEM)
---------------------------------
  S     47.674200   10.559000   81.369900
  C     45.897800   10.141500   81.703900
  C     45.085600   11.133700   81.165500
  C     45.800600   11.852700   80.199000
  C     47.205500   11.661000   80.157000
  H     45.395900   12.478300   79.437500
  C     43.594100   11.143000   81.234300
  H     43.343900   10.058800   81.155300
  H     43.347800   11.586200   80.317300
  C     42.919000   11.778800   82.451600
  H     43.043600   11.108700   83.291200
  H     43.477500   12.680200   82.708200
  C     41.480000   12.212700   82.172200
  H     41.043700   12.610400   83.087400
  H     41.301100   13.034800   81.433100
  H     40.903700   11.403800   81.702300
  S     48.560800   10.943800   77.906100
  C     49.356000   12.154300   76.876300
  C     49.185200   13.436400   77.496500
  C     48.410200   13.465500   78.673100
  C     48.077900   12.135800   79.086200
  H     49.582200   14.322700   77.027700
  C     48.030500   14.735000   79.432900
  H     48.966000   15.082300   79.863400
  H     47.215000   14.548800   80.232400
  C     47.369600   15.987900   78.693500
  H     46.479300   15.667300   78.158900
  H     48.000400   16.363700   77.890200
  C     46.864400   17.169400   79.484900
  H     46.373300   16.801100   80.425400
  H     46.158200   17.781900   78.954500
  H     47.679100   17.804700   79.821100
  H     45.508400    9.403540   82.332600
  H     49.784200   12.075300   75.840300

 Total Charge           Charge          ....    0
 Multiplicity           Mult            ....    1
 Number of Electrons    NEL             ....  134
 Basis Dimension        Dim             ....  322

ORBITAL ENERGIES
----------------

  NO   OCC          E(Eh)            E(eV)
   0   2.0000     -88.971584     -2421.0399
   1   2.0000     -88.967751     -2420.9356
   2   2.0000     -10.330545      -281.1084
   3   2.0000     -10.328821      -281.0615
   4   2.0000     -10.326657      -281.0026
   5   2.0000     -10.316363      -280.7225
   6   2.0000     -10.310986      -280.5762
   7   2.0000     -10.304664      -280.4042
   8   2.0000     -10.299295      -280.2581
   9   2.0000     -10.297598      -280.2119
  10   2.0000     -10.289962      -280.0041
  11   2.0000     -10.289886      -280.0020
  12   2.0000     -10.289033      -279.9788
  13   2.0000     -10.287869      -279.9471
  14   2.0000     -10.284522      -279.8561
  15   2.0000     -10.280483      -279.7462
  16   2.0000      -8.085231      -220.0103
  17   2.0000      -8.081520      -219.9094
  18   2.0000      -6.043750      -164.4588
  19   2.0000      -6.039997      -164.3567
  20   2.0000      -6.039651      -164.3473
  21   2.0000      -6.036252      -164.2548
  22   2.0000      -6.036251      -164.2547
  23   2.0000      -6.032255      -164.1460
  24   2.0000      -1.001460       -27.2511
  25   2.0000      -0.977441       -26.5975
  26   2.0000      -0.917003       -24.9529
  27   2.0000      -0.900803       -24.5121
  28   2.0000      -0.868547       -23.6344
  29   2.0000      -0.854314       -23.2471
  30   2.0000      -0.843634       -22.9565
  31   2.0000      -0.806571       -21.9479
  32   2.0000      -0.784544       -21.3485
  33   2.0000      -0.770823       -20.9752
  34   2.0000      -0.710868       -19.3437
  35   2.0000      -0.703835       -19.1523
  36   2.0000      -0.693641       -18.8749
  37   2.0000      -0.655307       -17.8318
  38   2.0000      -0.639994       -17.4151
  39   2.0000      -0.613210       -16.6863
  40   2.0000      -0.590525       -16.0690
  41   2.0000      -0.568676       -15.4745
  42   2.0000      -0.563766       -15.3409
  43   2.0000      -0.560351       -15.2479
  44   2.0000      -0.529811       -14.4169
  45   2.0000      -0.527249       -14.3472
  46   2.0000      -0.522331       -14.2133
  47   2.0000      -0.513521       -13.9736
  48   2.0000      -0.505145       -13.7457
  49   2.0000      -0.498158       -13.5556
  50   2.0000      -0.490472       -13.3464
  51   2.0000      -0.473222       -12.8770
  52   2.0000      -0.471852       -12.8397
  53   2.0000      -0.462043       -12.5728
  54   2.0000      -0.459374       -12.5002
  55   2.0000      -0.455803       -12.4030
  56   2.0000      -0.446755       -12.1568
  57   2.0000      -0.440522       -11.9872
  58   2.0000      -0.430644       -11.7184
  59   2.0000      -0.419456       -11.4140
  60   2.0000      -0.417161       -11.3515
  61   2.0000      -0.414088       -11.2679
  62   2.0000      -0.412360       -11.2209
  63   2.0000      -0.337885        -9.1943
  64   2.0000      -0.332281        -9.0418
  65   2.0000      -0.320936        -8.7331
  66   2.0000      -0.292882        -7.9697
  67   0.0000       0.026091         0.7100
  68   0.0000       0.053746         1.4625
  69   0.0000       0.105005         2.8573
  70   0.0000       0.119154         3.2423
  71   0.0000       0.123026         3.3477

MULLIKEN ATOMIC CHARGES
-----------------------
   0 S :    0.110804
   1 C :   -0.114595
   2 C :   -0.069416
   3 C :    0.032835
   4 C :   -0.173321
   5 H :    0.001874
   6 C :    0.064154
   7 H :    0.037146
   8 H :    0.000371
   9 C :   -0.033073
  10 H :    0.029198
  11 H :    0.030379
  12 C :   -0.066789
  13 H :    0.039008
  14 H :    0.033972
  15 H :    0.032576
  16 S :    0.132771
  17 C :   -0.125004
  18 C :   -0.046052
  19 C :    0.005141
  20 C :   -0.175455
  21 H :    0.016168
  22 C :    0.040616
  23 H :    0.043266
  24 H :    0.046742
  25 C :   -0.091784
  26 H :    0.021747
  27 H :    0.021350
  28 C :   -0.050683
  29 H :    0.027744
  30 H :    0.038910
  31 H :    0.029410
  32 H :    0.025536
  33 H :    0.084457
Sum of atomic charges:   -0.0000000

LOEWDIN ATOMIC CHARGES
----------------------
   0 S :    0.393101
   1 C :   -0.160138
   2 C :   -0.059749
   3 C :   -0.061029
   4 C :   -0.219299
   5 H :    0.023862
   6 C :   -0.029975
   7 H :    0.040044
   8 H :    0.022256
   9 C :   -0.036966
  10 H :    0.025271
  11 H :    0.027521
  12 C :   -0.071782
  13 H :    0.028115
  14 H :    0.030451
  15 H :    0.025643
  16 S :    0.424272
  17 C :   -0.202740
  18 C :   -0.070006
  19 C :   -0.055209
  20 C :   -0.208055
  21 H :    0.027313
  22 C :   -0.034589
  23 H :    0.033949
  24 H :    0.042130
  25 C :   -0.050129
  26 H :    0.023088
  27 H :    0.017762
  28 C :   -0.064939
  29 H :    0.028800
  30 H :    0.027664
  31 H :    0.022408
  32 H :    0.013912
  33 H :    0.047045

  Mayer bond orders larger than 0.100000
B(  0-S ,  1-C ) :   1.1317 B(  0-S ,  4-C ) :   1.1611 B(  1-C ,  2-C ) :   1.5836
B(  1-C ,  4-C ) :   0.1037 B(  1-C , 32-H ) :   0.9761 B(  2-C ,  3-C ) :   1.2480
B(  2-C ,  6-C ) :   1.0187 B(  3-C ,  4-C ) :   1.5560 B(  3-C ,  5-H ) :   0.9923
B(  4-C , 20-C ) :   1.0265 B(  6-C ,  7-H ) :   0.9385 B(  6-C ,  8-H ) :   0.9449
B(  6-C ,  9-C ) :   1.0483 B(  9-C , 10-H ) :   0.9535 B(  9-C , 11-H ) :   0.9582
B(  9-C , 12-C ) :   1.0807 B( 12-C , 13-H ) :   0.9741 B( 12-C , 14-H ) :   0.9750
B( 12-C , 15-H ) :   0.9743 B( 16-S , 17-C ) :   1.1656 B( 16-S , 20-C ) :   1.1731
B( 17-C , 18-C ) :   1.5596 B( 17-C , 20-C ) :   0.1191 B( 17-C , 33-H ) :   0.9621
B( 18-C , 19-C ) :   1.2940 B( 18-C , 21-H ) :   0.9851 B( 19-C , 20-C ) :   1.5285
B( 19-C , 22-C ) :   1.0417 B( 22-C , 23-H ) :   0.9352 B( 22-C , 24-H ) :   0.9371
B( 22-C , 25-C ) :   1.0482 B( 25-C , 26-H ) :   0.9587 B( 25-C , 27-H ) :   0.9518
B( 25-C , 28-C ) :   1.0928 B( 28-C , 29-H ) :   0.9711 B( 28-C , 30-H ) :   0.9744
B( 28-C , 31-H ) :   0.9744

Dispersion correction           -0.013359270
FINAL SINGLE POINT ENERGY     -1339.847700506996

DIPOLE MOMENT
-------------
                                X             Y             Z
Electronic contribution:     21.97549     -21.15105      -5.87793
Nuclear contribution   :    -22.55599      21.64676       5.72995
                        -----------------------------------------
Total Dipole Moment    :     -0.58051       0.49571      -0.14798
                        -----------------------------------------
Magnitude (a.u.)       :      0.77757
Magnitude (Debye)      :      1.97642

Rotational constants in cm-1:     0.015939     0.008403     0.006180
Rotational constants in MHz :   477.843433   251.926742   185.279920

                             ****ORCA TERMINATED NORMALLY****
TOTAL RUN TIME: 0 days 0 hours 0 minutes 28 seconds 125 msec
