                         Program Version 4.2.1 -  RELEASE  -
|  1> ! wB97X-D3 SP def2-SVP
|  2> %pal
|  3> nprocs 16
|  4> end
|  5>
|  6> * xyz 0 1
|  7> S 	 -48.8736 	 9.5351 	 79.7064
|  8> C 	 -47.6819 	 9.93844 	 80.9719
|  9> C 	 -48.2707 	 10.2543 	 82.1861
| 10> C 	 -49.668 	 10.1834 	 82.0659
| 11> C 	 -50.1787 	 9.92023 	 80.8006
| 12> H 	 -50.4519 	 10.2793 	 82.8351
| 13> C 	 -47.5959 	 10.4648 	 83.5079
| 14> H 	 -47.4029 	 11.4886 	 83.6251
| 15> H 	 -46.7212 	 9.82441 	 83.4974
| 16> C 	 -48.3133 	 10.0561 	 84.7278
| 17> H 	 -47.6809 	 10.2763 	 85.5669
| 18> H 	 -49.2086 	 10.6685 	 84.9106
| 19> C 	 -48.7367 	 8.61068 	 84.8256
| 20> H 	 -49.2954 	 8.47338 	 85.7206
| 21> H 	 -49.418 	 8.28112 	 84.0276
| 22> H 	 -47.9478 	 7.89164 	 84.9467
| 23> S 	 -51.9577 	 9.14934 	 78.702
| 24> C 	 -53.6051 	 8.86925 	 79.057
| 25> C 	 -53.8881 	 9.30865 	 80.3302
| 26> C 	 -52.734 	 9.55659 	 81.1397
| 27> C 	 -51.5816 	 9.62465 	 80.3874
| 28> H 	 -54.9069 	 9.1689 	 80.667
| 29> C 	 -53.0663 	 9.73419 	 82.5902
| 30> H 	 -54.0547 	 10.0973 	 82.6477
| 31> H 	 -52.4111 	 10.4556 	 83.0363
| 32> C 	 -52.9193 	 8.42226 	 83.3971
| 33> H 	 -53.0576 	 8.70242 	 84.4533
| 34> H 	 -51.8351 	 8.08869 	 83.1482
| 35> C 	 -53.8893 	 7.36612 	 82.9432
| 36> H 	 -53.7779 	 6.49883 	 83.5313
| 37> H 	 -53.621 	 6.99127 	 81.9666
| 38> H 	 -54.9774 	 7.71339 	 82.7833
| 39> H 	 -46.6221 	 9.87667 	 80.6429
| 40> H 	 -54.3772 	 8.63059 	 78.3314
| 41> *
| 42>
| 43>                          ****END OF INPUT****

CARTESIAN COORDINATES (ANGSTROEM)
---------------------------------
  S    -48.873600    9.535100   79.706400
  C    -47.681900    9.938440   80.971900
  C    -48.270700   10.254300   82.186100
  C    -49.668000   10.183400   82.065900
  C    -50.178700    9.920230   80.800600
  H    -50.451900   10.279300   82.835100
  C    -47.595900   10.464800   83.507900
  H    -47.402900   11.488600   83.625100
  H    -46.721200    9.824410   83.497400
  C    -48.313300   10.056100   84.727800
  H    -47.680900   10.276300   85.566900
  H    -49.208600   10.668500   84.910600
  C    -48.736700    8.610680   84.825600
  H    -49.295400    8.473380   85.720600
  H    -49.418000    8.281120   84.027600
  H    -47.947800    7.891640   84.946700
  S    -51.957700    9.149340   78.702000
  C    -53.605100    8.869250   79.057000
  C    -53.888100    9.308650   80.330200
  C    -52.734000    9.556590   81.139700
  C    -51.581600    9.624650   80.387400
  H    -54.906900    9.168900   80.667000
  C    -53.066300    9.734190   82.590200
  H    -54.054700   10.097300   82.647700
  H    -52.411100   10.455600   83.036300
  C    -52.919300    8.422260   83.397100
  H    -53.057600    8.702420   84.453300
  H    -51.835100    8.088690   83.148200
  C    -53.889300    7.366120   82.943200
  H    -53.777900    6.498830   83.531300
  H    -53.621000    6.991270   81.966600
  H    -54.977400    7.713390   82.783300
  H    -46.622100    9.876670   80.642900
  H    -54.377200    8.630590   78.331400

 Total Charge           Charge          ....    0
 Multiplicity           Mult            ....    1
 Number of Electrons    NEL             ....  134
 Basis Dimension        Dim             ....  322

ORBITAL ENERGIES
----------------

  NO   OCC          E(Eh)            E(eV)
   0   2.0000     -88.965479     -2420.8737
   1   2.0000     -88.963487     -2420.8196
   2   2.0000     -10.334241      -281.2090
   3   2.0000     -10.332048      -281.1493
   4   2.0000     -10.319903      -280.8188
   5   2.0000     -10.315111      -280.6884
   6   2.0000     -10.302975      -280.3582
   7   2.0000     -10.300876      -280.3011
   8   2.0000     -10.296115      -280.1715
   9   2.0000     -10.293209      -280.0925
  10   2.0000     -10.289382      -279.9883
  11   2.0000     -10.287305      -279.9318
  12   2.0000     -10.283947      -279.8404
  13   2.0000     -10.282388      -279.7980
  14   2.0000     -10.276339      -279.6334
  15   2.0000     -10.270153      -279.4651
  16   2.0000      -8.080357      -219.8777
  17   2.0000      -8.078111      -219.8166
  18   2.0000      -6.038971      -164.3288
  19   2.0000      -6.036619      -164.2648
  20   2.0000      -6.034854      -164.2167
  21   2.0000      -6.032711      -164.1584
  22   2.0000      -6.030994      -164.1117
  23   2.0000      -6.028810      -164.0523
  24   2.0000      -1.006790       -27.3961
  25   2.0000      -0.986898       -26.8549
  26   2.0000      -0.925561       -25.1858
  27   2.0000      -0.917483       -24.9660
  28   2.0000      -0.868735       -23.6395
  29   2.0000      -0.852874       -23.2079
  30   2.0000      -0.841280       -22.8924
  31   2.0000      -0.815753       -22.1978
  32   2.0000      -0.792722       -21.5711
  33   2.0000      -0.782205       -21.2849
  34   2.0000      -0.709593       -19.3090
  35   2.0000      -0.699939       -19.0463
  36   2.0000      -0.684814       -18.6347
  37   2.0000      -0.662382       -18.0243
  38   2.0000      -0.638383       -17.3713
  39   2.0000      -0.625669       -17.0253
  40   2.0000      -0.595956       -16.2168
  41   2.0000      -0.575155       -15.6508
  42   2.0000      -0.565561       -15.3897
  43   2.0000      -0.561640       -15.2830
  44   2.0000      -0.548995       -14.9389
  45   2.0000      -0.538582       -14.6556
  46   2.0000      -0.525857       -14.3093
  47   2.0000      -0.505703       -13.7609
  48   2.0000      -0.500088       -13.6081
  49   2.0000      -0.497527       -13.5384
  50   2.0000      -0.493094       -13.4178
  51   2.0000      -0.478408       -13.0182
  52   2.0000      -0.476435       -12.9645
  53   2.0000      -0.468805       -12.7568
  54   2.0000      -0.459837       -12.5128
  55   2.0000      -0.446898       -12.1607
  56   2.0000      -0.444044       -12.0831
  57   2.0000      -0.437180       -11.8963
  58   2.0000      -0.430287       -11.7087
  59   2.0000      -0.424413       -11.5489
  60   2.0000      -0.421890       -11.4802
  61   2.0000      -0.413886       -11.2624
  62   2.0000      -0.411973       -11.2103
  63   2.0000      -0.360155        -9.8003
  64   2.0000      -0.335968        -9.1422
  65   2.0000      -0.327499        -8.9117
  66   2.0000      -0.281581        -7.6622
  67   0.0000       0.019970         0.5434
  68   0.0000       0.087635         2.3847
  69   0.0000       0.092998         2.5306
  70   0.0000       0.114838         3.1249
  71   0.0000       0.132618         3.6087

MULLIKEN ATOMIC CHARGES
-----------------------
   0 S :    0.078652
   1 C :   -0.168983
   2 C :   -0.057581
   3 C :   -0.033346
   4 C :   -0.097952
   5 H :   -0.011626
   6 C :    0.168556
   7 H :    0.030639
   8 H :    0.019943
   9 C :   -0.101994
  10 H :    0.022963
  11 H :    0.021906
  12 C :   -0.036677
  13 H :    0.015650
  14 H :    0.040403
  15 H :    0.022079
  16 S :    0.097305
  17 C :   -0.093060
  18 C :   -0.036050
  19 C :   -0.106637
  20 C :   -0.096234
  21 H :    0.017797
  22 C :    0.080763
  23 H :    0.011579
  24 H :    0.021599
  25 C :   -0.091986
  26 H :    0.041802
  27 H :    0.053328
  28 C :   -0.038026
  29 H :    0.026750
  30 H :    0.031742
  31 H :    0.036490
  32 H :    0.065475
  33 H :    0.064734
Sum of atomic charges:    0.0000000

LOEWDIN ATOMIC CHARGES
----------------------
   0 S :    0.386641
   1 C :   -0.184552
   2 C :   -0.062505
   3 C :   -0.076289
   4 C :   -0.182608
   5 H :    0.029049
   6 C :   -0.024462
   7 H :    0.032925
   8 H :    0.035150
   9 C :   -0.044452
  10 H :    0.028184
  11 H :    0.022908
  12 C :   -0.065765
  13 H :    0.024319
  14 H :    0.027151
  15 H :    0.022120
  16 S :    0.398501
  17 C :   -0.196273
  18 C :   -0.073350
  19 C :   -0.058894
  20 C :   -0.185081
  21 H :    0.027781
  22 C :   -0.025731
  23 H :    0.024149
  24 H :    0.020902
  25 C :   -0.038309
  26 H :    0.025331
  27 H :    0.038039
  28 C :   -0.072979
  29 H :    0.021816
  30 H :    0.027840
  31 H :    0.031946
  32 H :    0.031835
  33 H :    0.034664

  Mayer bond orders larger than 0.100000
B(  0-S ,  1-C ) :   1.1443 B(  0-S ,  4-C ) :   1.1527 B(  1-C ,  2-C ) :   1.5859
B(  1-C ,  4-C ) :   0.1024 B(  1-C , 32-H ) :   0.9705 B(  2-C ,  3-C ) :   1.2515
B(  2-C ,  6-C ) :   1.0049 B(  3-C ,  4-C ) :   1.5780 B(  3-C ,  5-H ) :   0.9765
B(  4-C , 20-C ) :   1.0612 B(  6-C ,  7-H ) :   0.9149 B(  6-C ,  8-H ) :   0.9375
B(  6-C ,  9-C ) :   1.1133 B(  9-C , 10-H ) :   0.9454 B(  9-C , 11-H ) :   0.9375
B(  9-C , 12-C ) :   1.0942 B( 12-C , 13-H ) :   0.9678 B( 12-C , 14-H ) :   0.9699
B( 12-C , 15-H ) :   0.9693 B( 16-S , 17-C ) :   1.1621 B( 16-S , 20-C ) :   1.1209
B( 17-C , 18-C ) :   1.6218 B( 17-C , 33-H ) :   0.9622 B( 18-C , 19-C ) :   1.2453
B( 18-C , 21-H ) :   0.9796 B( 19-C , 20-C ) :   1.6156 B( 19-C , 22-C ) :   1.0343
B( 22-C , 23-H ) :   0.9304 B( 22-C , 24-H ) :   0.9303 B( 22-C , 25-C ) :   1.0699
B( 25-C , 26-H ) :   0.9586 B( 25-C , 27-H ) :   0.9446 B( 25-C , 28-C ) :   1.0882
B( 28-C , 29-H ) :   0.9678 B( 28-C , 30-H ) :   0.9620 B( 28-C , 31-H ) :   0.9712

Dispersion correction           -0.015761419
FINAL SINGLE POINT ENERGY     -1339.871897398141

DIPOLE MOMENT
-------------
                                X             Y             Z
Electronic contribution:      3.67176       5.24471     -28.41076
Nuclear contribution   :     -3.86004      -5.36301      29.16116
                        -----------------------------------------
Total Dipole Moment    :     -0.18828      -0.11829       0.75040
                        -----------------------------------------
Magnitude (a.u.)       :      0.78265
Magnitude (Debye)      :      1.98934

Rotational constants in cm-1:     0.018744     0.010639     0.007308
Rotational constants in MHz :   561.922326   318.952937   219.081264

                             ****ORCA TERMINATED NORMALLY****
TOTAL RUN TIME: 0 days 0 hours 0 minutes 33 seconds 529 msec
