                         Program Version 4.2.1 -  RELEASE  -
|  1> ! wB97X-D3 SP def2-SVP
|  2> %pal
|  3> nprocs 16
|  4> end
|  5>
|  6> * xyz 0 1
|  7> S 	 57.6006 	 14.9898 	 57.4843
|  8> C 	 58.2359 	 16.2583 	 58.5783
|  9> C 	 58.2479 	 15.7061 	 59.8844
| 10> C 	 57.6081 	 14.4382 	 60.091
| 11> C 	 57.1838 	 13.9706 	 58.8726
| 12> H 	 57.4257 	 13.9196 	 61.116
| 13> C 	 58.951 	 16.4043 	 61.0581
| 14> H 	 59.7428 	 17.0352 	 60.5588
| 15> H 	 59.4797 	 15.7693 	 61.7441
| 16> C 	 58.0246 	 17.3333 	 61.8939
| 17> H 	 58.6472 	 18.0608 	 62.4273
| 18> H 	 57.3876 	 17.9534 	 61.3303
| 19> C 	 57.2573 	 16.5356 	 62.9403
| 20> H 	 56.7694 	 15.6135 	 62.3895
| 21> H 	 57.9277 	 15.9632 	 63.6348
| 22> H 	 56.5018 	 17.0995 	 63.4748
| 23> S 	 55.099 	 12.5608 	 57.7209
| 24> C 	 55.2564 	 10.8021 	 57.6376
| 25> C 	 56.2759 	 10.3829 	 58.4403
| 26> C 	 57.0338 	 11.4358 	 59.0181
| 27> C 	 56.6022 	 12.6894 	 58.638
| 28> H 	 56.4474 	 9.26315 	 58.5547
| 29> C 	 58.1686 	 11.1172 	 59.9074
| 30> H 	 57.7012 	 10.4978 	 60.6418
| 31> H 	 58.5962 	 11.9537 	 60.3903
| 32> C 	 59.3721 	 10.3294 	 59.3343
| 33> H 	 58.9696 	 9.43132 	 58.9046
| 34> H 	 59.948 	 10.0874 	 60.1844
| 35> C 	 60.1551 	 11.0764 	 58.248
| 36> H 	 61.0909 	 10.6683 	 58.1343
| 37> H 	 60.2631 	 12.1656 	 58.2898
| 38> H 	 59.6606 	 10.8404 	 57.2787
| 39> H 	 58.6157 	 17.2601 	 58.3075
| 40> H 	 54.4226 	 10.2345 	 57.2872
| 41> *
| 42>
| 43>                          ****END OF INPUT****

CARTESIAN COORDINATES (ANGSTROEM)
---------------------------------
  S     57.600600   14.989800   57.484300
  C     58.235900   16.258300   58.578300
  C     58.247900   15.706100   59.884400
  C     57.608100   14.438200   60.091000
  C     57.183800   13.970600   58.872600
  H     57.425700   13.919600   61.116000
  C     58.951000   16.404300   61.058100
  H     59.742800   17.035200   60.558800
  H     59.479700   15.769300   61.744100
  C     58.024600   17.333300   61.893900
  H     58.647200   18.060800   62.427300
  H     57.387600   17.953400   61.330300
  C     57.257300   16.535600   62.940300
  H     56.769400   15.613500   62.389500
  H     57.927700   15.963200   63.634800
  H     56.501800   17.099500   63.474800
  S     55.099000   12.560800   57.720900
  C     55.256400   10.802100   57.637600
  C     56.275900   10.382900   58.440300
  C     57.033800   11.435800   59.018100
  C     56.602200   12.689400   58.638000
  H     56.447400    9.263150   58.554700
  C     58.168600   11.117200   59.907400
  H     57.701200   10.497800   60.641800
  H     58.596200   11.953700   60.390300
  C     59.372100   10.329400   59.334300
  H     58.969600    9.431320   58.904600
  H     59.948000   10.087400   60.184400
  C     60.155100   11.076400   58.248000
  H     61.090900   10.668300   58.134300
  H     60.263100   12.165600   58.289800
  H     59.660600   10.840400   57.278700
  H     58.615700   17.260100   58.307500
  H     54.422600   10.234500   57.287200

 Total Charge           Charge          ....    0
 Multiplicity           Mult            ....    1
 Number of Electrons    NEL             ....  134
 Basis Dimension        Dim             ....  322

ORBITAL ENERGIES
----------------

  NO   OCC          E(Eh)            E(eV)
   0   2.0000     -88.969380     -2420.9799
   1   2.0000     -88.960018     -2420.7252
   2   2.0000     -10.329543      -281.0811
   3   2.0000     -10.323202      -280.9086
   4   2.0000     -10.321290      -280.8566
   5   2.0000     -10.316170      -280.7173
   6   2.0000     -10.307703      -280.4869
   7   2.0000     -10.303477      -280.3719
   8   2.0000     -10.299945      -280.2757
   9   2.0000     -10.298336      -280.2320
  10   2.0000     -10.294085      -280.1163
  11   2.0000     -10.286464      -279.9089
  12   2.0000     -10.282585      -279.8034
  13   2.0000     -10.280909      -279.7578
  14   2.0000     -10.280162      -279.7374
  15   2.0000     -10.267879      -279.4032
  16   2.0000      -8.082803      -219.9443
  17   2.0000      -8.074771      -219.7257
  18   2.0000      -6.041461      -164.3965
  19   2.0000      -6.037553      -164.2902
  20   2.0000      -6.033397      -164.1771
  21   2.0000      -6.033273      -164.1737
  22   2.0000      -6.029329      -164.0664
  23   2.0000      -6.025474      -163.9615
  24   2.0000      -1.006335       -27.3838
  25   2.0000      -0.979549       -26.6549
  26   2.0000      -0.911771       -24.8106
  27   2.0000      -0.907491       -24.6941
  28   2.0000      -0.869714       -23.6661
  29   2.0000      -0.849991       -23.1294
  30   2.0000      -0.841912       -22.9096
  31   2.0000      -0.813347       -22.1323
  32   2.0000      -0.784696       -21.3527
  33   2.0000      -0.766337       -20.8531
  34   2.0000      -0.708638       -19.2830
  35   2.0000      -0.701314       -19.0837
  36   2.0000      -0.696556       -18.9543
  37   2.0000      -0.657357       -17.8876
  38   2.0000      -0.636128       -17.3099
  39   2.0000      -0.616439       -16.7742
  40   2.0000      -0.601808       -16.3760
  41   2.0000      -0.567694       -15.4477
  42   2.0000      -0.555616       -15.1191
  43   2.0000      -0.548293       -14.9198
  44   2.0000      -0.539946       -14.6927
  45   2.0000      -0.531795       -14.4709
  46   2.0000      -0.516320       -14.0498
  47   2.0000      -0.514030       -13.9875
  48   2.0000      -0.502532       -13.6746
  49   2.0000      -0.496341       -13.5061
  50   2.0000      -0.487067       -13.2538
  51   2.0000      -0.481021       -13.0893
  52   2.0000      -0.467041       -12.7088
  53   2.0000      -0.466139       -12.6843
  54   2.0000      -0.460721       -12.5369
  55   2.0000      -0.443600       -12.0710
  56   2.0000      -0.438666       -11.9367
  57   2.0000      -0.436278       -11.8717
  58   2.0000      -0.432473       -11.7682
  59   2.0000      -0.426657       -11.6099
  60   2.0000      -0.421934       -11.4814
  61   2.0000      -0.414514       -11.2795
  62   2.0000      -0.402497       -10.9525
  63   2.0000      -0.345923        -9.4130
  64   2.0000      -0.329942        -8.9782
  65   2.0000      -0.327528        -8.9125
  66   2.0000      -0.291352        -7.9281
  67   0.0000       0.026281         0.7151
  68   0.0000       0.067510         1.8370
  69   0.0000       0.103071         2.8047
  70   0.0000       0.111513         3.0344
  71   0.0000       0.133177         3.6239

MULLIKEN ATOMIC CHARGES
-----------------------
   0 S :    0.115204
   1 C :   -0.127428
   2 C :   -0.099643
   3 C :    0.004750
   4 C :   -0.141399
   5 H :    0.074952
   6 C :    0.022118
   7 H :    0.026446
   8 H :    0.023452
   9 C :   -0.014795
  10 H :    0.022210
  11 H :    0.015050
  12 C :   -0.089707
  13 H :    0.026658
  14 H :    0.027748
  15 H :    0.046108
  16 S :    0.090748
  17 C :   -0.089722
  18 C :   -0.068315
  19 C :    0.001654
  20 C :   -0.184901
  21 H :    0.049063
  22 C :    0.075570
  23 H :    0.022203
  24 H :    0.003087
  25 C :   -0.045576
  26 H :    0.015379
  27 H :    0.021326
  28 C :   -0.031358
  29 H :    0.011655
  30 H :    0.042485
  31 H :    0.033146
  32 H :    0.063225
  33 H :    0.058605
Sum of atomic charges:   -0.0000000

LOEWDIN ATOMIC CHARGES
----------------------
   0 S :    0.390544
   1 C :   -0.202837
   2 C :   -0.055854
   3 C :   -0.078222
   4 C :   -0.179806
   5 H :    0.056126
   6 C :   -0.032278
   7 H :    0.034017
   8 H :    0.025391
   9 C :   -0.038413
  10 H :    0.022819
  11 H :    0.017292
  12 C :   -0.076260
  13 H :    0.032015
  14 H :    0.024750
  15 H :    0.024279
  16 S :    0.383361
  17 C :   -0.171852
  18 C :   -0.078119
  19 C :   -0.052605
  20 C :   -0.201462
  21 H :    0.044678
  22 C :   -0.028612
  23 H :    0.033376
  24 H :    0.020330
  25 C :   -0.025976
  26 H :    0.018841
  27 H :    0.017964
  28 C :   -0.064858
  29 H :    0.014494
  30 H :    0.029366
  31 H :    0.034937
  32 H :    0.037518
  33 H :    0.025054

  Mayer bond orders larger than 0.100000
B(  0-S ,  1-C ) :   1.1096 B(  0-S ,  4-C ) :   1.1561 B(  1-C ,  2-C ) :   1.6151
B(  1-C ,  4-C ) :   0.1015 B(  1-C , 32-H ) :   0.9675 B(  2-C ,  3-C ) :   1.2246
B(  2-C ,  6-C ) :   1.0232 B(  3-C ,  4-C ) :   1.5786 B(  3-C ,  5-H ) :   0.9650
B(  4-C , 20-C ) :   1.0579 B(  6-C ,  7-H ) :   0.9440 B(  6-C ,  8-H ) :   0.9519
B(  6-C ,  9-C ) :   1.0623 B(  9-C , 10-H ) :   0.9535 B(  9-C , 11-H ) :   0.9560
B(  9-C , 12-C ) :   1.0739 B( 12-C , 13-H ) :   0.9703 B( 12-C , 14-H ) :   0.9738
B( 12-C , 15-H ) :   0.9734 B( 16-S , 17-C ) :   1.1472 B( 16-S , 20-C ) :   1.1331
B( 17-C , 18-C ) :   1.6170 B( 17-C , 33-H ) :   0.9688 B( 18-C , 19-C ) :   1.2279
B( 18-C , 21-H ) :   0.9768 B( 19-C , 20-C ) :   1.5812 B( 19-C , 22-C ) :   1.0513
B( 22-C , 23-H ) :   0.9222 B( 22-C , 24-H ) :   0.9291 B( 22-C , 25-C ) :   1.0884
B( 25-C , 26-H ) :   0.9552 B( 25-C , 27-H ) :   0.9570 B( 25-C , 28-C ) :   1.0674
B( 28-C , 29-H ) :   0.9723 B( 28-C , 30-H ) :   0.9796 B( 28-C , 31-H ) :   0.9734

Dispersion correction           -0.015040230
FINAL SINGLE POINT ENERGY     -1339.864858829539

DIPOLE MOMENT
-------------
                                X             Y             Z
Electronic contribution:    -14.63870      -0.16759     -18.37724
Nuclear contribution   :     15.00647      -0.07124      18.92160
                        -----------------------------------------
Total Dipole Moment    :      0.36777      -0.23883       0.54436
                        -----------------------------------------
Magnitude (a.u.)       :      0.69901
Magnitude (Debye)      :      1.77674

Rotational constants in cm-1:     0.019373     0.008637     0.007775
Rotational constants in MHz :   580.797015   258.944817   233.094731

                             ****ORCA TERMINATED NORMALLY****
TOTAL RUN TIME: 0 days 0 hours 0 minutes 31 seconds 700 msec
