                         Program Version 4.2.1 -  RELEASE  -
|  1> ! wB97X-D3 SP def2-SVP
|  2> %pal
|  3> nprocs 16
|  4> end
|  5>
|  6> * xyz 0 1
|  7> S 	 -73.9817 	 38.8736 	 119.688
|  8> C 	 -73.068 	 37.8013 	 120.684
|  9> C 	 -72.2246 	 38.5095 	 121.54
| 10> C 	 -72.2829 	 39.922 	 121.32
| 11> C 	 -73.0013 	 40.2317 	 120.177
| 12> H 	 -71.7376 	 40.6747 	 121.91
| 13> C 	 -71.4457 	 37.9188 	 122.667
| 14> H 	 -72.1424 	 37.1121 	 123.088
| 15> H 	 -71.3365 	 38.6215 	 123.457
| 16> C 	 -70.0568 	 37.3885 	 122.212
| 17> H 	 -69.7355 	 36.5816 	 122.953
| 18> H 	 -70.1797 	 36.8209 	 121.276
| 19> C 	 -68.9015 	 38.436 	 122.051
| 20> H 	 -69.0728 	 39.1989 	 121.277
| 21> H 	 -68.8042 	 38.7928 	 123.134
| 22> H 	 -67.923 	 37.997 	 121.816
| 23> S 	 -74.9901 	 42.0243 	 119.603
| 24> C 	 -74.6146 	 43.6486 	 119.29
| 25> C 	 -73.3158 	 43.8845 	 119.497
| 26> C 	 -72.4827 	 42.7228 	 119.684
| 27> C 	 -73.3089 	 41.5867 	 119.644
| 28> H 	 -72.9051 	 44.8537 	 119.467
| 29> C 	 -70.9545 	 42.8347 	 120.035
| 30> H 	 -70.7035 	 41.783 	 120.291
| 31> H 	 -70.8171 	 43.2927 	 120.959
| 32> C 	 -70.098 	 43.5321 	 119.009
| 33> H 	 -70.6155 	 44.4668 	 118.97
| 34> H 	 -70.2413 	 43.1065 	 118.06
| 35> C 	 -68.6488 	 43.8323 	 119.39
| 36> H 	 -68.2964 	 44.6571 	 118.818
| 37> H 	 -68.1468 	 42.8923 	 119.263
| 38> H 	 -68.6001 	 44.1477 	 120.473
| 39> H 	 -73.2892 	 36.7611 	 120.705
| 40> H 	 -75.3513 	 44.4308 	 119.088
| 41> *
| 42>
| 43>                          ****END OF INPUT****

CARTESIAN COORDINATES (ANGSTROEM)
---------------------------------
  S    -73.981700   38.873600  119.688000
  C    -73.068000   37.801300  120.684000
  C    -72.224600   38.509500  121.540000
  C    -72.282900   39.922000  121.320000
  C    -73.001300   40.231700  120.177000
  H    -71.737600   40.674700  121.910000
  C    -71.445700   37.918800  122.667000
  H    -72.142400   37.112100  123.088000
  H    -71.336500   38.621500  123.457000
  C    -70.056800   37.388500  122.212000
  H    -69.735500   36.581600  122.953000
  H    -70.179700   36.820900  121.276000
  C    -68.901500   38.436000  122.051000
  H    -69.072800   39.198900  121.277000
  H    -68.804200   38.792800  123.134000
  H    -67.923000   37.997000  121.816000
  S    -74.990100   42.024300  119.603000
  C    -74.614600   43.648600  119.290000
  C    -73.315800   43.884500  119.497000
  C    -72.482700   42.722800  119.684000
  C    -73.308900   41.586700  119.644000
  H    -72.905100   44.853700  119.467000
  C    -70.954500   42.834700  120.035000
  H    -70.703500   41.783000  120.291000
  H    -70.817100   43.292700  120.959000
  C    -70.098000   43.532100  119.009000
  H    -70.615500   44.466800  118.970000
  H    -70.241300   43.106500  118.060000
  C    -68.648800   43.832300  119.390000
  H    -68.296400   44.657100  118.818000
  H    -68.146800   42.892300  119.263000
  H    -68.600100   44.147700  120.473000
  H    -73.289200   36.761100  120.705000
  H    -75.351300   44.430800  119.088000

 Total Charge           Charge          ....    0
 Multiplicity           Mult            ....    1
 Number of Electrons    NEL             ....  134
 Basis Dimension        Dim             ....  322

ORBITAL ENERGIES
----------------

  NO   OCC          E(Eh)            E(eV)
   0   2.0000     -88.963639     -2420.8237
   1   2.0000     -88.962728     -2420.7989
   2   2.0000     -10.328304      -281.0474
   3   2.0000     -10.326578      -281.0005
   4   2.0000     -10.310202      -280.5549
   5   2.0000     -10.309204      -280.5277
   6   2.0000     -10.306085      -280.4428
   7   2.0000     -10.299331      -280.2591
   8   2.0000     -10.295841      -280.1641
   9   2.0000     -10.295490      -280.1545
  10   2.0000     -10.294619      -280.1308
  11   2.0000     -10.291152      -280.0365
  12   2.0000     -10.289731      -279.9978
  13   2.0000     -10.283874      -279.8384
  14   2.0000     -10.280482      -279.7461
  15   2.0000     -10.276568      -279.6396
  16   2.0000      -8.079108      -219.8437
  17   2.0000      -8.078972      -219.8400
  18   2.0000      -6.037540      -164.2898
  19   2.0000      -6.037441      -164.2871
  20   2.0000      -6.033547      -164.1812
  21   2.0000      -6.033395      -164.1770
  22   2.0000      -6.029895      -164.0818
  23   2.0000      -6.029546      -164.0723
  24   2.0000      -1.011441       -27.5227
  25   2.0000      -0.989702       -26.9311
  26   2.0000      -0.914174       -24.8759
  27   2.0000      -0.907355       -24.6904
  28   2.0000      -0.866700       -23.5841
  29   2.0000      -0.852772       -23.2051
  30   2.0000      -0.843064       -22.9409
  31   2.0000      -0.814481       -22.1631
  32   2.0000      -0.786339       -21.3974
  33   2.0000      -0.771430       -20.9917
  34   2.0000      -0.705819       -19.2063
  35   2.0000      -0.698344       -19.0029
  36   2.0000      -0.692612       -18.8469
  37   2.0000      -0.659042       -17.9335
  38   2.0000      -0.640672       -17.4336
  39   2.0000      -0.615952       -16.7609
  40   2.0000      -0.600256       -16.3338
  41   2.0000      -0.572264       -15.5721
  42   2.0000      -0.571380       -15.5480
  43   2.0000      -0.543838       -14.7986
  44   2.0000      -0.536915       -14.6102
  45   2.0000      -0.534498       -14.5444
  46   2.0000      -0.514020       -13.9872
  47   2.0000      -0.510672       -13.8961
  48   2.0000      -0.502095       -13.6627
  49   2.0000      -0.498304       -13.5595
  50   2.0000      -0.492559       -13.4032
  51   2.0000      -0.482014       -13.1163
  52   2.0000      -0.472039       -12.8448
  53   2.0000      -0.463769       -12.6198
  54   2.0000      -0.458381       -12.4732
  55   2.0000      -0.452096       -12.3022
  56   2.0000      -0.443120       -12.0579
  57   2.0000      -0.440532       -11.9875
  58   2.0000      -0.439354       -11.9554
  59   2.0000      -0.426451       -11.6043
  60   2.0000      -0.415918       -11.3177
  61   2.0000      -0.414582       -11.2814
  62   2.0000      -0.405631       -11.0378
  63   2.0000      -0.350966        -9.5503
  64   2.0000      -0.329407        -8.9636
  65   2.0000      -0.326607        -8.8874
  66   2.0000      -0.289723        -7.8838
  67   0.0000       0.027572         0.7503
  68   0.0000       0.075607         2.0574
  69   0.0000       0.103444         2.8149
  70   0.0000       0.121169         3.2972
  71   0.0000       0.132265         3.5991

MULLIKEN ATOMIC CHARGES
-----------------------
   0 S :    0.101994
   1 C :   -0.101008
   2 C :   -0.109186
   3 C :    0.026073
   4 C :   -0.168528
   5 H :    0.028723
   6 C :    0.064519
   7 H :    0.041153
   8 H :    0.011963
   9 C :   -0.091147
  10 H :    0.036539
  11 H :    0.028620
  12 C :   -0.073275
  13 H :    0.053810
  14 H :    0.038075
  15 H :    0.039378
  16 S :    0.103536
  17 C :   -0.077000
  18 C :   -0.024657
  19 C :   -0.085412
  20 C :   -0.115520
  21 H :   -0.000686
  22 C :    0.098041
  23 H :    0.011237
  24 H :    0.007896
  25 C :   -0.067995
  26 H :    0.007460
  27 H :    0.024022
  28 C :   -0.014468
  29 H :    0.038082
  30 H :    0.040108
  31 H :    0.028272
  32 H :    0.039358
  33 H :    0.060023
Sum of atomic charges:   -0.0000000

LOEWDIN ATOMIC CHARGES
----------------------
   0 S :    0.416000
   1 C :   -0.200412
   2 C :   -0.064388
   3 C :   -0.064605
   4 C :   -0.194660
   5 H :    0.035414
   6 C :   -0.035806
   7 H :    0.043064
   8 H :    0.022477
   9 C :   -0.046903
  10 H :    0.029394
  11 H :    0.021007
  12 C :   -0.074320
  13 H :    0.027619
  14 H :    0.033828
  15 H :    0.028528
  16 S :    0.427226
  17 C :   -0.201092
  18 C :   -0.070968
  19 C :   -0.050725
  20 C :   -0.204342
  21 H :    0.020105
  22 C :   -0.027146
  23 H :    0.025648
  24 H :    0.020362
  25 C :   -0.039929
  26 H :    0.019953
  27 H :    0.020526
  28 C :   -0.055465
  29 H :    0.025722
  30 H :    0.026244
  31 H :    0.031351
  32 H :    0.020841
  33 H :    0.035453

  Mayer bond orders larger than 0.100000
B(  0-S ,  1-C ) :   1.1494 B(  0-S ,  4-C ) :   1.1754 B(  1-C ,  2-C ) :   1.5810
B(  1-C , 32-H ) :   0.9768 B(  2-C ,  3-C ) :   1.2675 B(  2-C ,  6-C ) :   1.0260
B(  3-C ,  4-C ) :   1.5339 B(  3-C ,  5-H ) :   0.9832 B(  4-C , 20-C ) :   1.0135
B(  6-C ,  7-H ) :   0.9417 B(  6-C ,  8-H ) :   0.9455 B(  6-C ,  9-C ) :   1.0514
B(  9-C , 10-H ) :   0.9582 B(  9-C , 11-H ) :   0.9593 B(  9-C , 12-C ) :   1.0652
B( 12-C , 13-H ) :   0.9756 B( 12-C , 14-H ) :   0.9765 B( 12-C , 15-H ) :   0.9741
B( 16-S , 17-C ) :   1.1506 B( 16-S , 20-C ) :   1.1653 B( 17-C , 18-C ) :   1.6135
B( 17-C , 33-H ) :   0.9661 B( 18-C , 19-C ) :   1.2487 B( 18-C , 21-H ) :   0.9958
B( 19-C , 20-C ) :   1.5983 B( 19-C , 22-C ) :   1.0257 B( 22-C , 23-H ) :   0.9271
B( 22-C , 24-H ) :   0.9316 B( 22-C , 25-C ) :   1.0555 B( 25-C , 26-H ) :   0.9532
B( 25-C , 27-H ) :   0.9567 B( 25-C , 28-C ) :   1.0819 B( 28-C , 29-H ) :   0.9742
B( 28-C , 30-H ) :   0.9778 B( 28-C , 31-H ) :   0.9711

Dispersion correction           -0.013970887
FINAL SINGLE POINT ENERGY     -1339.863938667653

DIPOLE MOMENT
-------------
                                X             Y             Z
Electronic contribution:    -30.18022      -2.00174      -8.33758
Nuclear contribution   :     30.67356       2.24503       8.79718
                        -----------------------------------------
Total Dipole Moment    :      0.49334       0.24329       0.45960
                        -----------------------------------------
Magnitude (a.u.)       :      0.71680
Magnitude (Debye)      :      1.82197

Rotational constants in cm-1:     0.015745     0.010067     0.006548
Rotational constants in MHz :   472.017019   301.805387   196.311568

                             ****ORCA TERMINATED NORMALLY****
TOTAL RUN TIME: 0 days 0 hours 0 minutes 34 seconds 193 msec
