                         Program Version 4.2.1 -  RELEASE  -
|  1> ! wB97X-D3 SP def2-SVP
|  2> %pal
|  3> nprocs 16
|  4> end
|  5>
|  6> * xyz 0 1
|  7> S 	 -5.29044 	 67.762 	 51.4019
|  8> C 	 -4.36325 	 66.4471 	 50.8132
|  9> C 	 -4.15092 	 65.5098 	 51.843
| 10> C 	 -4.37822 	 66.089 	 53.1245
| 11> C 	 -5.04483 	 67.3099 	 53.0743
| 12> H 	 -4.11237 	 65.6533 	 54.0793
| 13> C 	 -3.4787 	 64.0987 	 51.707
| 14> H 	 -3.7283 	 63.4143 	 52.5448
| 15> H 	 -2.3834 	 64.0925 	 51.6958
| 16> C 	 -3.96067 	 63.4205 	 50.4342
| 17> H 	 -3.57242 	 64.0269 	 49.5906
| 18> H 	 -3.39307 	 62.4803 	 50.3518
| 19> C 	 -5.44108 	 63.15 	 50.3691
| 20> H 	 -6.08693 	 64.0435 	 50.5096
| 21> H 	 -5.65171 	 62.6102 	 49.4112
| 22> H 	 -5.74067 	 62.5035 	 51.2079
| 23> S 	 -4.68826 	 69.8869 	 54.0012
| 24> C 	 -5.05885 	 70.1783 	 55.6497
| 25> C 	 -5.67984 	 69.0994 	 56.2861
| 26> C 	 -5.85546 	 68.0041 	 55.4294
| 27> C 	 -5.33538 	 68.2518 	 54.1803
| 28> H 	 -5.93796 	 69.1476 	 57.3348
| 29> C 	 -6.53635 	 66.726 	 55.9257
| 30> H 	 -6.48685 	 66.6365 	 56.9991
| 31> H 	 -5.91286 	 65.9182 	 55.5571
| 32> C 	 -8.01128 	 66.5423 	 55.473
| 33> H 	 -8.04012 	 66.6787 	 54.4717
| 34> H 	 -8.68954 	 67.317 	 55.8296
| 35> C 	 -8.49625 	 65.2132 	 55.8067
| 36> H 	 -8.16122 	 64.3874 	 55.1744
| 37> H 	 -9.51793 	 65.1101 	 55.7247
| 38> H 	 -8.15661 	 64.9718 	 56.8189
| 39> H 	 -3.94946 	 66.4175 	 49.8099
| 40> H 	 -4.90578 	 71.1155 	 56.1801
| 41> *
| 42>
| 43>                          ****END OF INPUT****

CARTESIAN COORDINATES (ANGSTROEM)
---------------------------------
  S     -5.290440   67.762000   51.401900
  C     -4.363250   66.447100   50.813200
  C     -4.150920   65.509800   51.843000
  C     -4.378220   66.089000   53.124500
  C     -5.044830   67.309900   53.074300
  H     -4.112370   65.653300   54.079300
  C     -3.478700   64.098700   51.707000
  H     -3.728300   63.414300   52.544800
  H     -2.383400   64.092500   51.695800
  C     -3.960670   63.420500   50.434200
  H     -3.572420   64.026900   49.590600
  H     -3.393070   62.480300   50.351800
  C     -5.441080   63.150000   50.369100
  H     -6.086930   64.043500   50.509600
  H     -5.651710   62.610200   49.411200
  H     -5.740670   62.503500   51.207900
  S     -4.688260   69.886900   54.001200
  C     -5.058850   70.178300   55.649700
  C     -5.679840   69.099400   56.286100
  C     -5.855460   68.004100   55.429400
  C     -5.335380   68.251800   54.180300
  H     -5.937960   69.147600   57.334800
  C     -6.536350   66.726000   55.925700
  H     -6.486850   66.636500   56.999100
  H     -5.912860   65.918200   55.557100
  C     -8.011280   66.542300   55.473000
  H     -8.040120   66.678700   54.471700
  H     -8.689540   67.317000   55.829600
  C     -8.496250   65.213200   55.806700
  H     -8.161220   64.387400   55.174400
  H     -9.517930   65.110100   55.724700
  H     -8.156610   64.971800   56.818900
  H     -3.949460   66.417500   49.809900
  H     -4.905780   71.115500   56.180100

 Total Charge           Charge          ....    0
 Multiplicity           Mult            ....    1
 Number of Electrons    NEL             ....  134
 Basis Dimension        Dim             ....  322

ORBITAL ENERGIES
----------------

  NO   OCC          E(Eh)            E(eV)
   0   2.0000     -88.969295     -2420.9776
   1   2.0000     -88.964741     -2420.8537
   2   2.0000     -10.327973      -281.0384
   3   2.0000     -10.325433      -280.9693
   4   2.0000     -10.315779      -280.7066
   5   2.0000     -10.314806      -280.6801
   6   2.0000     -10.306420      -280.4519
   7   2.0000     -10.300359      -280.2870
   8   2.0000     -10.295350      -280.1507
   9   2.0000     -10.293563      -280.1021
  10   2.0000     -10.291121      -280.0356
  11   2.0000     -10.290205      -280.0107
  12   2.0000     -10.283886      -279.8388
  13   2.0000     -10.277638      -279.6687
  14   2.0000     -10.270728      -279.4807
  15   2.0000     -10.264270      -279.3050
  16   2.0000      -8.084206      -219.9824
  17   2.0000      -8.080079      -219.8701
  18   2.0000      -6.042514      -164.4252
  19   2.0000      -6.038751      -164.3228
  20   2.0000      -6.038475      -164.3152
  21   2.0000      -6.035098      -164.2234
  22   2.0000      -6.034414      -164.2048
  23   2.0000      -6.031034      -164.1128
  24   2.0000      -1.007689       -27.4206
  25   2.0000      -0.986793       -26.8520
  26   2.0000      -0.916381       -24.9360
  27   2.0000      -0.909846       -24.7582
  28   2.0000      -0.863591       -23.4995
  29   2.0000      -0.861069       -23.4309
  30   2.0000      -0.845006       -22.9938
  31   2.0000      -0.806667       -21.9505
  32   2.0000      -0.783911       -21.3313
  33   2.0000      -0.772410       -21.0184
  34   2.0000      -0.709292       -19.3008
  35   2.0000      -0.696419       -18.9505
  36   2.0000      -0.686818       -18.6893
  37   2.0000      -0.664278       -18.0759
  38   2.0000      -0.641484       -17.4557
  39   2.0000      -0.611522       -16.6403
  40   2.0000      -0.598351       -16.2820
  41   2.0000      -0.574524       -15.6336
  42   2.0000      -0.565811       -15.3965
  43   2.0000      -0.550658       -14.9842
  44   2.0000      -0.537153       -14.6167
  45   2.0000      -0.532147       -14.4805
  46   2.0000      -0.513951       -13.9853
  47   2.0000      -0.506968       -13.7953
  48   2.0000      -0.506092       -13.7715
  49   2.0000      -0.498317       -13.5599
  50   2.0000      -0.488891       -13.3034
  51   2.0000      -0.481540       -13.1034
  52   2.0000      -0.477784       -13.0012
  53   2.0000      -0.464849       -12.6492
  54   2.0000      -0.461245       -12.5511
  55   2.0000      -0.445914       -12.1339
  56   2.0000      -0.440641       -11.9904
  57   2.0000      -0.435963       -11.8632
  58   2.0000      -0.431586       -11.7441
  59   2.0000      -0.428600       -11.6628
  60   2.0000      -0.418864       -11.3979
  61   2.0000      -0.414775       -11.2866
  62   2.0000      -0.410726       -11.1764
  63   2.0000      -0.342304        -9.3146
  64   2.0000      -0.336769        -9.1639
  65   2.0000      -0.326946        -8.8967
  66   2.0000      -0.288512        -7.8508
  67   0.0000       0.026671         0.7257
  68   0.0000       0.069876         1.9014
  69   0.0000       0.108073         2.9408
  70   0.0000       0.119501         3.2518
  71   0.0000       0.133806         3.6410

MULLIKEN ATOMIC CHARGES
-----------------------
   0 S :    0.109765
   1 C :   -0.148290
   2 C :   -0.084395
   3 C :    0.032260
   4 C :   -0.163371
   5 H :    0.018307
   6 C :    0.048846
   7 H :    0.022381
   8 H :    0.043073
   9 C :   -0.093593
  10 H :    0.023180
  11 H :    0.023504
  12 C :   -0.055371
  13 H :    0.051742
  14 H :    0.044196
  15 H :    0.023448
  16 S :    0.131829
  17 C :   -0.091874
  18 C :   -0.050142
  19 C :   -0.029581
  20 C :   -0.158637
  21 H :    0.015778
  22 C :    0.079281
  23 H :    0.012017
  24 H :    0.008057
  25 C :   -0.000878
  26 H :   -0.001338
  27 H :    0.023284
  28 C :   -0.005234
  29 H :    0.024419
  30 H :    0.009883
  31 H :    0.015242
  32 H :    0.066685
  33 H :    0.055526
Sum of atomic charges:   -0.0000000

LOEWDIN ATOMIC CHARGES
----------------------
   0 S :    0.417308
   1 C :   -0.210304
   2 C :   -0.061607
   3 C :   -0.062489
   4 C :   -0.198803
   5 H :    0.030317
   6 C :   -0.033926
   7 H :    0.029051
   8 H :    0.033065
   9 C :   -0.052383
  10 H :    0.020724
  11 H :    0.024958
  12 C :   -0.072653
  13 H :    0.030668
  14 H :    0.032883
  15 H :    0.025130
  16 S :    0.424412
  17 C :   -0.194889
  18 C :   -0.072611
  19 C :   -0.052424
  20 C :   -0.201846
  21 H :    0.031370
  22 C :   -0.020223
  23 H :    0.024691
  24 H :    0.028742
  25 C :   -0.031267
  26 H :    0.012857
  27 H :    0.028478
  28 C :   -0.058600
  29 H :    0.028276
  30 H :    0.016692
  31 H :    0.024047
  32 H :    0.030857
  33 H :    0.029499

  Mayer bond orders larger than 0.100000
B(  0-S ,  1-C ) :   1.1641 B(  0-S ,  4-C ) :   1.1550 B(  1-C ,  2-C ) :   1.5539
B(  1-C ,  4-C ) :   0.1003 B(  1-C , 32-H ) :   0.9726 B(  2-C ,  3-C ) :   1.2704
B(  2-C ,  6-C ) :   1.0063 B(  3-C ,  4-C ) :   1.5649 B(  3-C ,  5-H ) :   0.9888
B(  4-C , 20-C ) :   1.0221 B(  6-C ,  7-H ) :   0.9484 B(  6-C ,  8-H ) :   0.9418
B(  6-C ,  9-C ) :   1.0878 B(  9-C , 10-H ) :   0.9489 B(  9-C , 11-H ) :   0.9521
B(  9-C , 12-C ) :   1.0787 B( 12-C , 13-H ) :   0.9715 B( 12-C , 14-H ) :   0.9729
B( 12-C , 15-H ) :   0.9710 B( 16-S , 17-C ) :   1.1742 B( 16-S , 20-C ) :   1.1455
B( 17-C , 18-C ) :   1.5853 B( 17-C , 33-H ) :   0.9646 B( 18-C , 19-C ) :   1.2691
B( 18-C , 21-H ) :   0.9924 B( 19-C , 20-C ) :   1.5873 B( 19-C , 22-C ) :   1.0336
B( 22-C , 23-H ) :   0.9322 B( 22-C , 24-H ) :   0.9275 B( 22-C , 25-C ) :   1.0670
B( 25-C , 26-H ) :   0.9459 B( 25-C , 27-H ) :   0.9486 B( 25-C , 28-C ) :   1.1015
B( 28-C , 29-H ) :   0.9686 B( 28-C , 30-H ) :   0.9666 B( 28-C , 31-H ) :   0.9703

Dispersion correction           -0.014239668
FINAL SINGLE POINT ENERGY     -1339.875739702050

DIPOLE MOMENT
-------------
                                X             Y             Z
Electronic contribution:      8.00334      26.75532      -2.51964
Nuclear contribution   :     -7.92990     -27.19851       2.83945
                        -----------------------------------------
Total Dipole Moment    :      0.07344      -0.44319       0.31981
                        -----------------------------------------
Magnitude (a.u.)       :      0.55144
Magnitude (Debye)      :      1.40165

Rotational constants in cm-1:     0.019079     0.008895     0.006814
Rotational constants in MHz :   571.977895   266.675444   204.283327

                             ****ORCA TERMINATED NORMALLY****
TOTAL RUN TIME: 0 days 0 hours 0 minutes 33 seconds 741 msec
