                         Program Version 4.2.1 -  RELEASE  -
|  1> ! wB97X-D3 SP def2-SVP
|  2> %pal
|  3> nprocs 16
|  4> end
|  5>
|  6> * xyz 0 1
|  7> S 	 37.2399 	 18.3202 	 76.53
|  8> C 	 36.0345 	 17.2853 	 77.3022
|  9> C 	 36.7112 	 16.3727 	 78.1494
| 10> C 	 38.1207 	 16.634 	 78.2178
| 11> C 	 38.5356 	 17.6167 	 77.3816
| 12> H 	 38.789 	 15.9776 	 78.6978
| 13> C 	 36.0857 	 15.2101 	 78.9894
| 14> H 	 35.1221 	 15.6415 	 79.2861
| 15> H 	 36.6406 	 15.0344 	 79.89
| 16> C 	 35.8226 	 14.0405 	 78.1204
| 17> H 	 35.2294 	 14.2213 	 77.1827
| 18> H 	 36.7738 	 13.5805 	 77.7152
| 19> C 	 35.0048 	 13.0906 	 78.9692
| 20> H 	 35.5556 	 12.8222 	 79.8806
| 21> H 	 34.0082 	 13.5442 	 79.203
| 22> H 	 34.8866 	 12.0957 	 78.4079
| 23> S 	 40.6023 	 18.0439 	 75.582
| 24> C 	 42.1979 	 18.387 	 76.1778
| 25> C 	 42.2014 	 18.361 	 77.5661
| 26> C 	 40.9187 	 18.1975 	 78.1294
| 27> C 	 39.9139 	 18.0131 	 77.1809
| 28> H 	 43.1004 	 18.5097 	 78.1578
| 29> C 	 40.7194 	 18.2976 	 79.6364
| 30> H 	 41.3053 	 17.5035 	 80.1287
| 31> H 	 39.6494 	 18.1317 	 79.7912
| 32> C 	 40.9002 	 19.6593 	 80.2842
| 33> H 	 40.2916 	 20.3606 	 79.7123
| 34> H 	 41.9435 	 19.9638 	 80.0556
| 35> C 	 40.6766 	 19.6836 	 81.8076
| 36> H 	 39.6788 	 19.4491 	 82.1548
| 37> H 	 40.8682 	 20.7141 	 82.1865
| 38> H 	 41.3733 	 19.0549 	 82.4417
| 39> H 	 34.9834 	 17.2819 	 77.1737
| 40> H 	 43.1077 	 18.5442 	 75.6495
| 41> *
| 42>
| 43>                          ****END OF INPUT****

CARTESIAN COORDINATES (ANGSTROEM)
---------------------------------
  S     37.239900   18.320200   76.530000
  C     36.034500   17.285300   77.302200
  C     36.711200   16.372700   78.149400
  C     38.120700   16.634000   78.217800
  C     38.535600   17.616700   77.381600
  H     38.789000   15.977600   78.697800
  C     36.085700   15.210100   78.989400
  H     35.122100   15.641500   79.286100
  H     36.640600   15.034400   79.890000
  C     35.822600   14.040500   78.120400
  H     35.229400   14.221300   77.182700
  H     36.773800   13.580500   77.715200
  C     35.004800   13.090600   78.969200
  H     35.555600   12.822200   79.880600
  H     34.008200   13.544200   79.203000
  H     34.886600   12.095700   78.407900
  S     40.602300   18.043900   75.582000
  C     42.197900   18.387000   76.177800
  C     42.201400   18.361000   77.566100
  C     40.918700   18.197500   78.129400
  C     39.913900   18.013100   77.180900
  H     43.100400   18.509700   78.157800
  C     40.719400   18.297600   79.636400
  H     41.305300   17.503500   80.128700
  H     39.649400   18.131700   79.791200
  C     40.900200   19.659300   80.284200
  H     40.291600   20.360600   79.712300
  H     41.943500   19.963800   80.055600
  C     40.676600   19.683600   81.807600
  H     39.678800   19.449100   82.154800
  H     40.868200   20.714100   82.186500
  H     41.373300   19.054900   82.441700
  H     34.983400   17.281900   77.173700
  H     43.107700   18.544200   75.649500

 Total Charge           Charge          ....    0
 Multiplicity           Mult            ....    1
 Number of Electrons    NEL             ....  134
 Basis Dimension        Dim             ....  322

ORBITAL ENERGIES
----------------

  NO   OCC          E(Eh)            E(eV)
   0   2.0000     -88.968185     -2420.9474
   1   2.0000     -88.967904     -2420.9397
   2   2.0000     -10.325272      -280.9649
   3   2.0000     -10.323579      -280.9189
   4   2.0000     -10.315666      -280.7035
   5   2.0000     -10.315364      -280.6953
   6   2.0000     -10.304421      -280.3976
   7   2.0000     -10.298780      -280.2441
   8   2.0000     -10.292936      -280.0850
   9   2.0000     -10.290681      -280.0237
  10   2.0000     -10.289277      -279.9855
  11   2.0000     -10.287279      -279.9311
  12   2.0000     -10.285718      -279.8886
  13   2.0000     -10.285399      -279.8799
  14   2.0000     -10.285058      -279.8706
  15   2.0000     -10.285026      -279.8698
  16   2.0000      -8.082966      -219.9487
  17   2.0000      -8.082935      -219.9478
  18   2.0000      -6.041519      -164.3981
  19   2.0000      -6.041462      -164.3965
  20   2.0000      -6.037365      -164.2851
  21   2.0000      -6.037258      -164.2821
  22   2.0000      -6.033818      -164.1885
  23   2.0000      -6.033771      -164.1873
  24   2.0000      -1.011387       -27.5213
  25   2.0000      -0.986135       -26.8341
  26   2.0000      -0.920845       -25.0575
  27   2.0000      -0.907174       -24.6854
  28   2.0000      -0.870379       -23.6842
  29   2.0000      -0.851561       -23.1722
  30   2.0000      -0.844514       -22.9804
  31   2.0000      -0.812795       -22.1173
  32   2.0000      -0.779250       -21.2045
  33   2.0000      -0.769570       -20.9411
  34   2.0000      -0.705036       -19.1850
  35   2.0000      -0.696619       -18.9560
  36   2.0000      -0.693697       -18.8765
  37   2.0000      -0.660320       -17.9682
  38   2.0000      -0.643856       -17.5202
  39   2.0000      -0.622984       -16.9522
  40   2.0000      -0.593947       -16.1621
  41   2.0000      -0.574935       -15.6448
  42   2.0000      -0.565024       -15.3751
  43   2.0000      -0.561634       -15.2828
  44   2.0000      -0.528806       -14.3895
  45   2.0000      -0.522382       -14.2147
  46   2.0000      -0.513994       -13.9865
  47   2.0000      -0.510980       -13.9045
  48   2.0000      -0.505077       -13.7438
  49   2.0000      -0.502866       -13.6837
  50   2.0000      -0.497607       -13.5406
  51   2.0000      -0.477709       -12.9991
  52   2.0000      -0.472715       -12.8632
  53   2.0000      -0.464202       -12.6316
  54   2.0000      -0.460728       -12.5370
  55   2.0000      -0.448125       -12.1941
  56   2.0000      -0.445587       -12.1250
  57   2.0000      -0.440815       -11.9952
  58   2.0000      -0.430360       -11.7107
  59   2.0000      -0.422472       -11.4960
  60   2.0000      -0.417075       -11.3492
  61   2.0000      -0.408690       -11.1210
  62   2.0000      -0.406656       -11.0657
  63   2.0000      -0.348086        -9.4719
  64   2.0000      -0.332256        -9.0411
  65   2.0000      -0.330202        -8.9852
  66   2.0000      -0.290866        -7.9149
  67   0.0000       0.030680         0.8349
  68   0.0000       0.074260         2.0207
  69   0.0000       0.116874         3.1803
  70   0.0000       0.121426         3.3042
  71   0.0000       0.137242         3.7346

MULLIKEN ATOMIC CHARGES
-----------------------
   0 S :    0.117436
   1 C :   -0.106302
   2 C :   -0.121104
   3 C :    0.043221
   4 C :   -0.146781
   5 H :   -0.000755
   6 C :    0.077094
   7 H :    0.018234
   8 H :    0.027871
   9 C :   -0.096855
  10 H :    0.041388
  11 H :    0.036809
  12 C :   -0.059785
  13 H :    0.029339
  14 H :    0.043296
  15 H :    0.040113
  16 S :    0.118040
  17 C :   -0.075808
  18 C :   -0.042976
  19 C :   -0.051819
  20 C :   -0.134620
  21 H :    0.019985
  22 C :    0.053374
  23 H :    0.031909
  24 H :    0.019969
  25 C :   -0.055304
  26 H :    0.033389
  27 H :    0.017115
  28 C :   -0.058868
  29 H :    0.031844
  30 H :    0.035350
  31 H :    0.035366
  32 H :    0.032913
  33 H :    0.046923
Sum of atomic charges:   -0.0000000

LOEWDIN ATOMIC CHARGES
----------------------
   0 S :    0.425948
   1 C :   -0.201532
   2 C :   -0.048510
   3 C :   -0.066195
   4 C :   -0.208714
   5 H :    0.025034
   6 C :   -0.027674
   7 H :    0.032024
   8 H :    0.029159
   9 C :   -0.053585
  10 H :    0.032123
  11 H :    0.029307
  12 C :   -0.071750
  13 H :    0.022658
  14 H :    0.029415
  15 H :    0.031090
  16 S :    0.421604
  17 C :   -0.188801
  18 C :   -0.070468
  19 C :   -0.059927
  20 C :   -0.204828
  21 H :    0.031547
  22 C :   -0.038985
  23 H :    0.030255
  24 H :    0.029624
  25 C :   -0.040943
  26 H :    0.028921
  27 H :    0.020582
  28 C :   -0.072476
  29 H :    0.021930
  30 H :    0.032162
  31 H :    0.031413
  32 H :    0.021807
  33 H :    0.027784

  Mayer bond orders larger than 0.100000
B(  0-S ,  1-C ) :   1.1318 B(  0-S ,  4-C ) :   1.1697 B(  1-C ,  2-C ) :   1.5925
B(  1-C , 32-H ) :   0.9775 B(  2-C ,  3-C ) :   1.2695 B(  2-C ,  6-C ) :   1.0033
B(  3-C ,  4-C ) :   1.5513 B(  3-C ,  5-H ) :   1.0006 B(  4-C , 20-C ) :   1.0190
B(  6-C ,  7-H ) :   0.9397 B(  6-C ,  8-H ) :   0.9483 B(  6-C ,  9-C ) :   1.0622
B(  9-C , 10-H ) :   0.9560 B(  9-C , 11-H ) :   0.9506 B(  9-C , 12-C ) :   1.0809
B( 12-C , 13-H ) :   0.9705 B( 12-C , 14-H ) :   0.9734 B( 12-C , 15-H ) :   0.9720
B( 16-S , 17-C ) :   1.1621 B( 16-S , 20-C ) :   1.1494 B( 17-C , 18-C ) :   1.5795
B( 17-C , 20-C ) :   0.1038 B( 17-C , 33-H ) :   0.9714 B( 18-C , 19-C ) :   1.2762
B( 18-C , 21-H ) :   0.9885 B( 19-C , 20-C ) :   1.5738 B( 19-C , 22-C ) :   1.0451
B( 22-C , 23-H ) :   0.9329 B( 22-C , 24-H ) :   0.9311 B( 22-C , 25-C ) :   1.0667
B( 25-C , 26-H ) :   0.9521 B( 25-C , 27-H ) :   0.9539 B( 25-C , 28-C ) :   1.0780
B( 28-C , 29-H ) :   0.9768 B( 28-C , 30-H ) :   0.9732 B( 28-C , 31-H ) :   0.9737

Dispersion correction           -0.013631174
FINAL SINGLE POINT ENERGY     -1339.884336864529

DIPOLE MOMENT
-------------
                                X             Y             Z
Electronic contribution:      5.52607      10.23769     -23.81086
Nuclear contribution   :     -5.48125     -10.56846      24.35954
                        -----------------------------------------
Total Dipole Moment    :      0.04482      -0.33077       0.54868
                        -----------------------------------------
Magnitude (a.u.)       :      0.64223
Magnitude (Debye)      :      1.63243

Rotational constants in cm-1:     0.017972     0.007890     0.006514
Rotational constants in MHz :   538.800151   236.542977   195.278368

                             ****ORCA TERMINATED NORMALLY****
TOTAL RUN TIME: 0 days 0 hours 0 minutes 27 seconds 924 msec
