                         Program Version 4.2.1 -  RELEASE  -
|  1> ! wB97X-D3 SP def2-SVP
|  2> %pal
|  3> nprocs 16
|  4> end
|  5>
|  6> * xyz 0 1
|  7> S 	 -47.1715 	 61.6767 	 135.777
|  8> C 	 -46.4511 	 60.0902 	 135.586
|  9> C 	 -47.0428 	 59.4251 	 134.517
| 10> C 	 -48.1985 	 60.0902 	 134.073
| 11> C 	 -48.536 	 61.1674 	 134.845
| 12> H 	 -48.87 	 59.7892 	 133.246
| 13> C 	 -46.3158 	 58.2633 	 133.864
| 14> H 	 -45.3777 	 58.7164 	 133.512
| 15> H 	 -46.9355 	 58.0297 	 133.039
| 16> C 	 -45.9805 	 56.9949 	 134.69
| 17> H 	 -45.1602 	 57.384 	 135.343
| 18> H 	 -46.7815 	 56.5965 	 135.351
| 19> C 	 -45.2656 	 55.9729 	 133.848
| 20> H 	 -46.0143 	 55.5671 	 133.111
| 21> H 	 -44.4141 	 56.2945 	 133.27
| 22> H 	 -44.9789 	 55.0917 	 134.401
| 23> S 	 -50.0295 	 62.8576 	 133.064
| 24> C 	 -51.3942 	 63.7446 	 133.825
| 25> C 	 -51.5954 	 63.3112 	 135.093
| 26> C 	 -50.7108 	 62.3018 	 135.599
| 27> C 	 -49.7451 	 62.0041 	 134.629
| 28> H 	 -52.4348 	 63.7189 	 135.619
| 29> C 	 -50.7291 	 61.79 	 136.997
| 30> H 	 -49.8713 	 61.0874 	 137.231
| 31> H 	 -51.6433 	 61.1276 	 137.069
| 32> C 	 -50.7171 	 62.839 	 138.095
| 33> H 	 -51.7085 	 63.3118 	 138.117
| 34> H 	 -50.1293 	 63.6785 	 137.897
| 35> C 	 -50.5493 	 62.2954 	 139.508
| 36> H 	 -50.5655 	 63.1999 	 140.147
| 37> H 	 -49.5688 	 61.8195 	 139.625
| 38> H 	 -51.4376 	 61.678 	 139.778
| 39> H 	 -45.439 	 59.8174 	 135.926
| 40> H 	 -52.1305 	 64.3637 	 133.286
| 41> *
| 42>
| 43>                          ****END OF INPUT****

CARTESIAN COORDINATES (ANGSTROEM)
---------------------------------
  S    -47.171500   61.676700  135.777000
  C    -46.451100   60.090200  135.586000
  C    -47.042800   59.425100  134.517000
  C    -48.198500   60.090200  134.073000
  C    -48.536000   61.167400  134.845000
  H    -48.870000   59.789200  133.246000
  C    -46.315800   58.263300  133.864000
  H    -45.377700   58.716400  133.512000
  H    -46.935500   58.029700  133.039000
  C    -45.980500   56.994900  134.690000
  H    -45.160200   57.384000  135.343000
  H    -46.781500   56.596500  135.351000
  C    -45.265600   55.972900  133.848000
  H    -46.014300   55.567100  133.111000
  H    -44.414100   56.294500  133.270000
  H    -44.978900   55.091700  134.401000
  S    -50.029500   62.857600  133.064000
  C    -51.394200   63.744600  133.825000
  C    -51.595400   63.311200  135.093000
  C    -50.710800   62.301800  135.599000
  C    -49.745100   62.004100  134.629000
  H    -52.434800   63.718900  135.619000
  C    -50.729100   61.790000  136.997000
  H    -49.871300   61.087400  137.231000
  H    -51.643300   61.127600  137.069000
  C    -50.717100   62.839000  138.095000
  H    -51.708500   63.311800  138.117000
  H    -50.129300   63.678500  137.897000
  C    -50.549300   62.295400  139.508000
  H    -50.565500   63.199900  140.147000
  H    -49.568800   61.819500  139.625000
  H    -51.437600   61.678000  139.778000
  H    -45.439000   59.817400  135.926000
  H    -52.130500   64.363700  133.286000

 Total Charge           Charge          ....    0
 Multiplicity           Mult            ....    1
 Number of Electrons    NEL             ....  134
 Basis Dimension        Dim             ....  322

ORBITAL ENERGIES
----------------

  NO   OCC          E(Eh)            E(eV)
   0   2.0000     -88.966359     -2420.8977
   1   2.0000     -88.965392     -2420.8714
   2   2.0000     -10.330015      -281.0940
   3   2.0000     -10.323861      -280.9265
   4   2.0000     -10.319727      -280.8141
   5   2.0000     -10.310009      -280.5496
   6   2.0000     -10.304333      -280.3952
   7   2.0000     -10.297287      -280.2034
   8   2.0000     -10.294551      -280.1290
   9   2.0000     -10.293794      -280.1084
  10   2.0000     -10.291645      -280.0499
  11   2.0000     -10.290902      -280.0297
  12   2.0000     -10.290364      -280.0150
  13   2.0000     -10.280938      -279.7585
  14   2.0000     -10.279079      -279.7079
  15   2.0000     -10.277250      -279.6582
  16   2.0000      -8.081017      -219.8956
  17   2.0000      -8.078475      -219.8265
  18   2.0000      -6.039388      -164.3401
  19   2.0000      -6.037170      -164.2797
  20   2.0000      -6.035832      -164.2433
  21   2.0000      -6.033343      -164.1756
  22   2.0000      -6.031627      -164.1289
  23   2.0000      -6.029013      -164.0578
  24   2.0000      -1.005261       -27.3546
  25   2.0000      -0.979836       -26.6627
  26   2.0000      -0.912464       -24.8294
  27   2.0000      -0.909274       -24.7426
  28   2.0000      -0.866502       -23.5787
  29   2.0000      -0.850770       -23.1506
  30   2.0000      -0.848078       -23.0774
  31   2.0000      -0.815051       -22.1787
  32   2.0000      -0.781104       -21.2549
  33   2.0000      -0.765819       -20.8390
  34   2.0000      -0.703465       -19.1423
  35   2.0000      -0.698290       -19.0014
  36   2.0000      -0.694407       -18.8958
  37   2.0000      -0.653957       -17.7951
  38   2.0000      -0.632986       -17.2244
  39   2.0000      -0.611990       -16.6531
  40   2.0000      -0.597159       -16.2495
  41   2.0000      -0.569420       -15.4947
  42   2.0000      -0.564596       -15.3634
  43   2.0000      -0.562714       -15.3122
  44   2.0000      -0.525696       -14.3049
  45   2.0000      -0.524691       -14.2776
  46   2.0000      -0.515248       -14.0206
  47   2.0000      -0.512326       -13.9411
  48   2.0000      -0.501894       -13.6572
  49   2.0000      -0.498937       -13.5768
  50   2.0000      -0.490879       -13.3575
  51   2.0000      -0.470064       -12.7911
  52   2.0000      -0.466866       -12.7041
  53   2.0000      -0.463784       -12.6202
  54   2.0000      -0.460638       -12.5346
  55   2.0000      -0.449150       -12.2220
  56   2.0000      -0.447295       -12.1715
  57   2.0000      -0.439221       -11.9518
  58   2.0000      -0.435550       -11.8519
  59   2.0000      -0.426502       -11.6057
  60   2.0000      -0.423590       -11.5265
  61   2.0000      -0.405241       -11.0272
  62   2.0000      -0.404477       -11.0064
  63   2.0000      -0.335762        -9.1366
  64   2.0000      -0.331951        -9.0328
  65   2.0000      -0.322919        -8.7871
  66   2.0000      -0.299185        -8.1412
  67   0.0000       0.030672         0.8346
  68   0.0000       0.059644         1.6230
  69   0.0000       0.098444         2.6788
  70   0.0000       0.115884         3.1534
  71   0.0000       0.130295         3.5455

MULLIKEN ATOMIC CHARGES
-----------------------
   0 S :    0.122484
   1 C :   -0.126615
   2 C :   -0.097345
   3 C :    0.008819
   4 C :   -0.165714
   5 H :    0.025213
   6 C :    0.066046
   7 H :    0.041961
   8 H :    0.003929
   9 C :   -0.077824
  10 H :    0.024814
  11 H :    0.051595
  12 C :   -0.045365
  13 H :    0.025453
  14 H :    0.031483
  15 H :    0.032313
  16 S :    0.093652
  17 C :   -0.101178
  18 C :   -0.028294
  19 C :    0.002593
  20 C :   -0.172763
  21 H :    0.011568
  22 C :    0.046724
  23 H :    0.038223
  24 H :    0.041066
  25 C :   -0.080060
  26 H :    0.013628
  27 H :    0.020515
  28 C :   -0.052900
  29 H :    0.034345
  30 H :    0.045241
  31 H :    0.042562
  32 H :    0.055793
  33 H :    0.068037
Sum of atomic charges:   -0.0000000

LOEWDIN ATOMIC CHARGES
----------------------
   0 S :    0.419004
   1 C :   -0.205200
   2 C :   -0.066089
   3 C :   -0.067616
   4 C :   -0.200019
   5 H :    0.037220
   6 C :   -0.027987
   7 H :    0.038484
   8 H :    0.018813
   9 C :   -0.044067
  10 H :    0.025994
  11 H :    0.033557
  12 C :   -0.069078
  13 H :    0.027490
  14 H :    0.024908
  15 H :    0.025772
  16 S :    0.355886
  17 C :   -0.173731
  18 C :   -0.069018
  19 C :   -0.051196
  20 C :   -0.181525
  21 H :    0.028093
  22 C :   -0.042194
  23 H :    0.034973
  24 H :    0.041373
  25 C :   -0.046098
  26 H :    0.023365
  27 H :    0.017160
  28 C :   -0.063487
  29 H :    0.031556
  30 H :    0.026025
  31 H :    0.031127
  32 H :    0.028580
  33 H :    0.037924

  Mayer bond orders larger than 0.100000
B(  0-S ,  1-C ) :   1.1432 B(  0-S ,  4-C ) :   1.1680 B(  1-C ,  2-C ) :   1.5803
B(  1-C ,  4-C ) :   0.1005 B(  1-C , 32-H ) :   0.9661 B(  2-C ,  3-C ) :   1.2733
B(  2-C ,  6-C ) :   1.0078 B(  3-C ,  4-C ) :   1.5405 B(  3-C ,  5-H ) :   0.9975
B(  4-C , 20-C ) :   1.0360 B(  6-C ,  7-H ) :   0.9382 B(  6-C ,  8-H ) :   0.9449
B(  6-C ,  9-C ) :   1.0571 B(  9-C , 10-H ) :   0.9496 B(  9-C , 11-H ) :   0.9598
B(  9-C , 12-C ) :   1.0882 B( 12-C , 13-H ) :   0.9725 B( 12-C , 14-H ) :   0.9726
B( 12-C , 15-H ) :   0.9722 B( 16-S , 17-C ) :   1.1184 B( 16-S , 20-C ) :   1.1191
B( 17-C , 18-C ) :   1.6641 B( 17-C , 33-H ) :   0.9596 B( 18-C , 19-C ) :   1.2040
B( 18-C , 21-H ) :   0.9872 B( 19-C , 20-C ) :   1.6055 B( 19-C , 22-C ) :   1.0584
B( 22-C , 23-H ) :   0.9347 B( 22-C , 24-H ) :   0.9219 B( 22-C , 25-C ) :   1.0548
B( 25-C , 26-H ) :   0.9419 B( 25-C , 27-H ) :   0.9608 B( 25-C , 28-C ) :   1.0952
B( 28-C , 29-H ) :   0.9729 B( 28-C , 30-H ) :   0.9746 B( 28-C , 31-H ) :   0.9737

Dispersion correction           -0.013759649
FINAL SINGLE POINT ENERGY     -1339.867215750043

DIPOLE MOMENT
-------------
                                X             Y             Z
Electronic contribution:     -3.52001      16.84054     -12.12637
Nuclear contribution   :      3.45328     -17.09991      12.25741
                        -----------------------------------------
Total Dipole Moment    :     -0.06672      -0.25937       0.13104
                        -----------------------------------------
Magnitude (a.u.)       :      0.29815
Magnitude (Debye)      :      0.75784

Rotational constants in cm-1:     0.020598     0.007279     0.005973
Rotational constants in MHz :   617.499083   218.232206   179.069486

                             ****ORCA TERMINATED NORMALLY****
TOTAL RUN TIME: 0 days 0 hours 0 minutes 31 seconds 830 msec
