                         Program Version 4.2.1 -  RELEASE  -
|  1> ! wB97X-D3 SP def2-SVP
|  2> %pal
|  3> nprocs 16
|  4> end
|  5>
|  6> * xyz 0 1
|  7> S 	 53.7182 	 24.312 	 38.8458
|  8> C 	 54.8531 	 25.6469 	 38.9416
|  9> C 	 54.7875 	 26.2913 	 40.1474
| 10> C 	 53.7785 	 25.7715 	 41.016
| 11> C 	 53.086 	 24.7155 	 40.4452
| 12> H 	 53.5021 	 25.8988 	 42.0294
| 13> C 	 55.5851 	 27.4798 	 40.6677
| 14> H 	 56.5873 	 27.4268 	 40.2238
| 15> H 	 55.8998 	 27.2319 	 41.7014
| 16> C 	 55.0287 	 28.8594 	 40.5017
| 17> H 	 54.8953 	 29.0105 	 39.448
| 18> H 	 54.0285 	 28.7769 	 40.9134
| 19> C 	 55.9419 	 29.9018 	 41.1307
| 20> H 	 56.0283 	 29.8575 	 42.2504
| 21> H 	 56.9571 	 29.7959 	 40.7259
| 22> H 	 55.5536 	 30.9296 	 41.0616
| 23> S 	 52.6919 	 22.2101 	 41.5021
| 24> C 	 51.3802 	 21.8837 	 42.6028
| 25> C 	 50.5815 	 22.9704 	 42.7191
| 26> C 	 51.0523 	 24.1284 	 42.0489
| 27> C 	 52.1305 	 23.8743 	 41.1902
| 28> H 	 49.6885 	 23.0284 	 43.2669
| 29> C 	 50.4487 	 25.5411 	 42.1154
| 30> H 	 51.2333 	 26.2078 	 42.2532
| 31> H 	 49.8398 	 25.4973 	 43.0591
| 32> C 	 49.6485 	 26.0328 	 40.878
| 33> H 	 48.9971 	 25.2019 	 40.6292
| 34> H 	 50.3113 	 26.2117 	 40.0224
| 35> C 	 48.7908 	 27.294 	 40.9145
| 36> H 	 49.4667 	 28.1354 	 41.0104
| 37> H 	 48.1432 	 27.1713 	 41.824
| 38> H 	 48.2318 	 27.3491 	 39.9498
| 39> H 	 55.6405 	 25.7781 	 38.2534
| 40> H 	 51.1513 	 20.8872 	 42.9725
| 41> *
| 42>
| 43>                          ****END OF INPUT****

CARTESIAN COORDINATES (ANGSTROEM)
---------------------------------
  S     53.718200   24.312000   38.845800
  C     54.853100   25.646900   38.941600
  C     54.787500   26.291300   40.147400
  C     53.778500   25.771500   41.016000
  C     53.086000   24.715500   40.445200
  H     53.502100   25.898800   42.029400
  C     55.585100   27.479800   40.667700
  H     56.587300   27.426800   40.223800
  H     55.899800   27.231900   41.701400
  C     55.028700   28.859400   40.501700
  H     54.895300   29.010500   39.448000
  H     54.028500   28.776900   40.913400
  C     55.941900   29.901800   41.130700
  H     56.028300   29.857500   42.250400
  H     56.957100   29.795900   40.725900
  H     55.553600   30.929600   41.061600
  S     52.691900   22.210100   41.502100
  C     51.380200   21.883700   42.602800
  C     50.581500   22.970400   42.719100
  C     51.052300   24.128400   42.048900
  C     52.130500   23.874300   41.190200
  H     49.688500   23.028400   43.266900
  C     50.448700   25.541100   42.115400
  H     51.233300   26.207800   42.253200
  H     49.839800   25.497300   43.059100
  C     49.648500   26.032800   40.878000
  H     48.997100   25.201900   40.629200
  H     50.311300   26.211700   40.022400
  C     48.790800   27.294000   40.914500
  H     49.466700   28.135400   41.010400
  H     48.143200   27.171300   41.824000
  H     48.231800   27.349100   39.949800
  H     55.640500   25.778100   38.253400
  H     51.151300   20.887200   42.972500

 Total Charge           Charge          ....    0
 Multiplicity           Mult            ....    1
 Number of Electrons    NEL             ....  134
 Basis Dimension        Dim             ....  322

ORBITAL ENERGIES
----------------

  NO   OCC          E(Eh)            E(eV)
   0   2.0000     -88.969189     -2420.9747
   1   2.0000     -88.961256     -2420.7588
   2   2.0000     -10.331600      -281.1371
   3   2.0000     -10.329050      -281.0677
   4   2.0000     -10.317472      -280.7527
   5   2.0000     -10.314382      -280.6686
   6   2.0000     -10.305280      -280.4209
   7   2.0000     -10.304307      -280.3945
   8   2.0000     -10.292623      -280.0765
   9   2.0000     -10.291563      -280.0477
  10   2.0000     -10.290036      -280.0061
  11   2.0000     -10.289679      -279.9964
  12   2.0000     -10.286332      -279.9053
  13   2.0000     -10.284575      -279.8575
  14   2.0000     -10.282458      -279.7999
  15   2.0000     -10.280886      -279.7571
  16   2.0000      -8.083506      -219.9634
  17   2.0000      -8.075974      -219.7584
  18   2.0000      -6.042019      -164.4117
  19   2.0000      -6.038054      -164.3038
  20   2.0000      -6.034477      -164.2065
  21   2.0000      -6.034309      -164.2019
  22   2.0000      -6.030381      -164.0950
  23   2.0000      -6.026821      -163.9981
  24   2.0000      -1.005749       -27.3678
  25   2.0000      -0.985237       -26.8097
  26   2.0000      -0.916708       -24.9449
  27   2.0000      -0.904168       -24.6037
  28   2.0000      -0.872577       -23.7440
  29   2.0000      -0.853537       -23.2259
  30   2.0000      -0.848335       -23.0844
  31   2.0000      -0.816129       -22.2080
  32   2.0000      -0.781905       -21.2767
  33   2.0000      -0.772391       -21.0178
  34   2.0000      -0.707274       -19.2459
  35   2.0000      -0.703518       -19.1437
  36   2.0000      -0.685934       -18.6652
  37   2.0000      -0.666075       -18.1248
  38   2.0000      -0.652271       -17.7492
  39   2.0000      -0.616755       -16.7828
  40   2.0000      -0.597684       -16.2638
  41   2.0000      -0.570182       -15.5155
  42   2.0000      -0.566744       -15.4219
  43   2.0000      -0.561596       -15.2818
  44   2.0000      -0.527453       -14.3527
  45   2.0000      -0.523712       -14.2509
  46   2.0000      -0.521650       -14.1948
  47   2.0000      -0.512797       -13.9539
  48   2.0000      -0.508761       -13.8441
  49   2.0000      -0.498164       -13.5557
  50   2.0000      -0.495014       -13.4700
  51   2.0000      -0.486061       -13.2264
  52   2.0000      -0.470276       -12.7969
  53   2.0000      -0.462359       -12.5814
  54   2.0000      -0.458145       -12.4668
  55   2.0000      -0.452074       -12.3015
  56   2.0000      -0.446464       -12.1489
  57   2.0000      -0.436917       -11.8891
  58   2.0000      -0.427121       -11.6226
  59   2.0000      -0.425579       -11.5806
  60   2.0000      -0.417787       -11.3686
  61   2.0000      -0.412552       -11.2261
  62   2.0000      -0.406461       -11.0604
  63   2.0000      -0.347075        -9.4444
  64   2.0000      -0.333188        -9.0665
  65   2.0000      -0.329150        -8.9566
  66   2.0000      -0.298426        -8.1206
  67   0.0000       0.027998         0.7619
  68   0.0000       0.066868         1.8196
  69   0.0000       0.115206         3.1349
  70   0.0000       0.122354         3.3294
  71   0.0000       0.126207         3.4343

MULLIKEN ATOMIC CHARGES
-----------------------
   0 S :    0.108829
   1 C :   -0.095992
   2 C :   -0.070348
   3 C :    0.040220
   4 C :   -0.168453
   5 H :    0.013917
   6 C :    0.022819
   7 H :    0.001262
   8 H :    0.022655
   9 C :    0.004119
  10 H :    0.023778
  11 H :    0.017635
  12 C :   -0.059071
  13 H :    0.031575
  14 H :    0.038650
  15 H :    0.037897
  16 S :    0.087593
  17 C :   -0.079212
  18 C :    0.002236
  19 C :   -0.096845
  20 C :   -0.140697
  21 H :   -0.004258
  22 C :    0.114508
  23 H :   -0.003039
  24 H :    0.018216
  25 C :   -0.096658
  26 H :    0.024205
  27 H :    0.035960
  28 C :   -0.049761
  29 H :    0.031880
  30 H :    0.036126
  31 H :    0.052089
  32 H :    0.034292
  33 H :    0.063874
Sum of atomic charges:    0.0000000

LOEWDIN ATOMIC CHARGES
----------------------
   0 S :    0.397843
   1 C :   -0.186115
   2 C :   -0.059747
   3 C :   -0.056614
   4 C :   -0.191305
   5 H :    0.029974
   6 C :   -0.040286
   7 H :    0.023186
   8 H :    0.032061
   9 C :   -0.038651
  10 H :    0.025740
  11 H :    0.023972
  12 C :   -0.070588
  13 H :    0.030955
  14 H :    0.028829
  15 H :    0.029655
  16 S :    0.394888
  17 C :   -0.181209
  18 C :   -0.071174
  19 C :   -0.055526
  20 C :   -0.187180
  21 H :    0.024233
  22 C :   -0.027842
  23 H :    0.016033
  24 H :    0.031971
  25 C :   -0.046705
  26 H :    0.020461
  27 H :    0.026949
  28 C :   -0.064509
  29 H :    0.021329
  30 H :    0.027694
  31 H :    0.036844
  32 H :    0.021601
  33 H :    0.033233

  Mayer bond orders larger than 0.100000
B(  0-S ,  1-C ) :   1.1278 B(  0-S ,  4-C ) :   1.1450 B(  1-C ,  2-C ) :   1.6372
B(  1-C , 32-H ) :   0.9726 B(  2-C ,  3-C ) :   1.2068 B(  2-C ,  6-C ) :   1.0206
B(  3-C ,  4-C ) :   1.5948 B(  3-C ,  5-H ) :   0.9917 B(  4-C , 20-C ) :   1.0184
B(  6-C ,  7-H ) :   0.9310 B(  6-C ,  8-H ) :   0.9410 B(  6-C ,  9-C ) :   1.0614
B(  9-C , 10-H ) :   0.9488 B(  9-C , 11-H ) :   0.9516 B(  9-C , 12-C ) :   1.0768
B( 12-C , 13-H ) :   0.9736 B( 12-C , 14-H ) :   0.9733 B( 12-C , 15-H ) :   0.9729
B( 16-S , 17-C ) :   1.1641 B( 16-S , 20-C ) :   1.1424 B( 17-C , 18-C ) :   1.5820
B( 17-C , 20-C ) :   0.1005 B( 17-C , 33-H ) :   0.9653 B( 18-C , 19-C ) :   1.2708
B( 18-C , 21-H ) :   0.9957 B( 19-C , 20-C ) :   1.5837 B( 19-C , 22-C ) :   1.0445
B( 22-C , 23-H ) :   0.9247 B( 22-C , 24-H ) :   0.9311 B( 22-C , 25-C ) :   1.0598
B( 25-C , 26-H ) :   0.9593 B( 25-C , 27-H ) :   0.9529 B( 25-C , 28-C ) :   1.0845
B( 28-C , 29-H ) :   0.9773 B( 28-C , 30-H ) :   0.9760 B( 28-C , 31-H ) :   0.9721

Dispersion correction           -0.013961628
FINAL SINGLE POINT ENERGY     -1339.873483558864

DIPOLE MOMENT
-------------
                                X             Y             Z
Electronic contribution:      3.74900     -28.66929      -5.33866
Nuclear contribution   :     -3.76292      29.14615       5.67160
                        -----------------------------------------
Total Dipole Moment    :     -0.01392       0.47686       0.33294
                        -----------------------------------------
Magnitude (a.u.)       :      0.58176
Magnitude (Debye)      :      1.47871

Rotational constants in cm-1:     0.016952     0.008645     0.006846
Rotational constants in MHz :   508.203659   259.168553   205.226615

                             ****ORCA TERMINATED NORMALLY****
TOTAL RUN TIME: 0 days 0 hours 0 minutes 29 seconds 789 msec
