                         Program Version 4.2.1 -  RELEASE  -
|  1> ! wB97X-D3 SP def2-SVP
|  2> %pal
|  3> nprocs 16
|  4> end
|  5>
|  6> * xyz 0 1
|  7> S 	 -11.899 	 52.6569 	 42.5286
|  8> C 	 -13.4415 	 53.561 	 42.6377
|  9> C 	 -13.9843 	 53.5029 	 43.9122
| 10> C 	 -13.0503 	 53.0135 	 44.8639
| 11> C 	 -11.8711 	 52.5044 	 44.2703
| 12> H 	 -13.0715 	 53.0276 	 45.9371
| 13> C 	 -15.257 	 54.138 	 44.4103
| 14> H 	 -15.7018 	 54.5002 	 43.4887
| 15> H 	 -15.1717 	 55.0344 	 45.0082
| 16> C 	 -16.2656 	 53.2374 	 45.1124
| 17> H 	 -16.675 	 52.3619 	 44.6343
| 18> H 	 -15.7998 	 52.8152 	 46.0365
| 19> C 	 -17.5523 	 53.915 	 45.5636
| 20> H 	 -18.0129 	 54.6099 	 44.8926
| 21> H 	 -18.2964 	 53.2816 	 45.9775
| 22> H 	 -17.3335 	 54.5723 	 46.3683
| 23> S 	 -9.33841 	 51.6906 	 43.9218
| 24> C 	 -8.53131 	 50.7839 	 45.1114
| 25> C 	 -9.29194 	 50.6312 	 46.2214
| 26> C 	 -10.5322 	 51.3051 	 46.1644
| 27> C 	 -10.6977 	 51.9475 	 44.9493
| 28> H 	 -8.9652 	 49.9306 	 47.0246
| 29> C 	 -11.5582 	 51.2219 	 47.3435
| 30> H 	 -11.4505 	 50.2497 	 47.8376
| 31> H 	 -12.5065 	 51.1381 	 46.8971
| 32> C 	 -11.5303 	 52.4197 	 48.2804
| 33> H 	 -11.3868 	 53.3774 	 47.8796
| 34> H 	 -10.6767 	 52.3099 	 48.9702
| 35> C 	 -12.7313 	 52.6501 	 49.1469
| 36> H 	 -12.8997 	 51.7333 	 49.6766
| 37> H 	 -13.6672 	 52.8168 	 48.6589
| 38> H 	 -12.4714 	 53.4491 	 49.8346
| 39> H 	 -13.7166 	 54.0632 	 41.715
| 40> H 	 -7.61183 	 50.2413 	 44.9455
| 41> *
| 42>
| 43>                          ****END OF INPUT****

CARTESIAN COORDINATES (ANGSTROEM)
---------------------------------
  S    -11.899000   52.656900   42.528600
  C    -13.441500   53.561000   42.637700
  C    -13.984300   53.502900   43.912200
  C    -13.050300   53.013500   44.863900
  C    -11.871100   52.504400   44.270300
  H    -13.071500   53.027600   45.937100
  C    -15.257000   54.138000   44.410300
  H    -15.701800   54.500200   43.488700
  H    -15.171700   55.034400   45.008200
  C    -16.265600   53.237400   45.112400
  H    -16.675000   52.361900   44.634300
  H    -15.799800   52.815200   46.036500
  C    -17.552300   53.915000   45.563600
  H    -18.012900   54.609900   44.892600
  H    -18.296400   53.281600   45.977500
  H    -17.333500   54.572300   46.368300
  S     -9.338410   51.690600   43.921800
  C     -8.531310   50.783900   45.111400
  C     -9.291940   50.631200   46.221400
  C    -10.532200   51.305100   46.164400
  C    -10.697700   51.947500   44.949300
  H     -8.965200   49.930600   47.024600
  C    -11.558200   51.221900   47.343500
  H    -11.450500   50.249700   47.837600
  H    -12.506500   51.138100   46.897100
  C    -11.530300   52.419700   48.280400
  H    -11.386800   53.377400   47.879600
  H    -10.676700   52.309900   48.970200
  C    -12.731300   52.650100   49.146900
  H    -12.899700   51.733300   49.676600
  H    -13.667200   52.816800   48.658900
  H    -12.471400   53.449100   49.834600
  H    -13.716600   54.063200   41.715000
  H     -7.611830   50.241300   44.945500

 Total Charge           Charge          ....    0
 Multiplicity           Mult            ....    1
 Number of Electrons    NEL             ....  134
 Basis Dimension        Dim             ....  322

ORBITAL ENERGIES
----------------

  NO   OCC          E(Eh)            E(eV)
   0   2.0000     -88.965726     -2420.8805
   1   2.0000     -88.964312     -2420.8420
   2   2.0000     -10.332020      -281.1486
   3   2.0000     -10.324224      -280.9364
   4   2.0000     -10.319804      -280.8161
   5   2.0000     -10.309234      -280.5285
   6   2.0000     -10.307229      -280.4740
   7   2.0000     -10.304339      -280.3953
   8   2.0000     -10.294417      -280.1253
   9   2.0000     -10.292478      -280.0726
  10   2.0000     -10.292335      -280.0687
  11   2.0000     -10.291132      -280.0359
  12   2.0000     -10.286893      -279.9206
  13   2.0000     -10.280679      -279.7515
  14   2.0000     -10.272117      -279.5185
  15   2.0000     -10.268020      -279.4070
  16   2.0000      -8.080761      -219.8887
  17   2.0000      -8.080130      -219.8715
  18   2.0000      -6.039101      -164.3323
  19   2.0000      -6.038620      -164.3192
  20   2.0000      -6.035030      -164.2215
  21   2.0000      -6.034829      -164.2160
  22   2.0000      -6.031598      -164.1281
  23   2.0000      -6.030791      -164.1062
  24   2.0000      -1.014522       -27.6065
  25   2.0000      -0.984546       -26.7909
  26   2.0000      -0.915995       -24.9255
  27   2.0000      -0.913973       -24.8705
  28   2.0000      -0.872618       -23.7451
  29   2.0000      -0.860299       -23.4099
  30   2.0000      -0.847415       -23.0593
  31   2.0000      -0.814692       -22.1689
  32   2.0000      -0.788717       -21.4621
  33   2.0000      -0.777456       -21.1556
  34   2.0000      -0.709181       -19.2978
  35   2.0000      -0.703050       -19.1310
  36   2.0000      -0.694655       -18.9025
  37   2.0000      -0.666881       -18.1468
  38   2.0000      -0.641422       -17.4540
  39   2.0000      -0.622933       -16.9509
  40   2.0000      -0.600529       -16.3412
  41   2.0000      -0.574466       -15.6320
  42   2.0000      -0.567550       -15.4438
  43   2.0000      -0.551501       -15.0071
  44   2.0000      -0.542285       -14.7563
  45   2.0000      -0.527990       -14.3673
  46   2.0000      -0.520986       -14.1767
  47   2.0000      -0.514024       -13.9873
  48   2.0000      -0.510878       -13.9017
  49   2.0000      -0.497153       -13.5282
  50   2.0000      -0.493792       -13.4368
  51   2.0000      -0.490307       -13.3419
  52   2.0000      -0.473892       -12.8952
  53   2.0000      -0.466149       -12.6846
  54   2.0000      -0.459129       -12.4935
  55   2.0000      -0.452463       -12.3122
  56   2.0000      -0.447926       -12.1887
  57   2.0000      -0.442841       -12.0503
  58   2.0000      -0.430321       -11.7096
  59   2.0000      -0.425178       -11.5697
  60   2.0000      -0.421533       -11.4705
  61   2.0000      -0.410597       -11.1729
  62   2.0000      -0.405910       -11.0454
  63   2.0000      -0.359235        -9.7753
  64   2.0000      -0.337731        -9.1901
  65   2.0000      -0.331307        -9.0153
  66   2.0000      -0.280375        -7.6294
  67   0.0000       0.018984         0.5166
  68   0.0000       0.083768         2.2794
  69   0.0000       0.097425         2.6511
  70   0.0000       0.119626         3.2552
  71   0.0000       0.127465         3.4685

MULLIKEN ATOMIC CHARGES
-----------------------
   0 S :    0.085140
   1 C :   -0.155511
   2 C :   -0.004504
   3 C :   -0.001479
   4 C :   -0.116779
   5 H :   -0.005654
   6 C :    0.086308
   7 H :    0.006442
   8 H :    0.034852
   9 C :   -0.084723
  10 H :    0.029116
  11 H :    0.024857
  12 C :   -0.024563
  13 H :    0.018378
  14 H :    0.027016
  15 H :    0.001628
  16 S :    0.094499
  17 C :   -0.078383
  18 C :   -0.052315
  19 C :   -0.072963
  20 C :   -0.116486
  21 H :    0.029632
  22 C :    0.104273
  23 H :    0.023567
  24 H :    0.003447
  25 C :   -0.059434
  26 H :    0.021656
  27 H :    0.023250
  28 C :   -0.031338
  29 H :    0.012911
  30 H :    0.024426
  31 H :    0.039360
  32 H :    0.059296
  33 H :    0.054077
Sum of atomic charges:   -0.0000000

LOEWDIN ATOMIC CHARGES
----------------------
   0 S :    0.379509
   1 C :   -0.179933
   2 C :   -0.056136
   3 C :   -0.068402
   4 C :   -0.179068
   5 H :    0.027377
   6 C :   -0.030997
   7 H :    0.029681
   8 H :    0.034350
   9 C :   -0.042605
  10 H :    0.025196
  11 H :    0.025030
  12 C :   -0.065383
  13 H :    0.021869
  14 H :    0.024921
  15 H :    0.018070
  16 S :    0.433363
  17 C :   -0.200595
  18 C :   -0.080306
  19 C :   -0.051699
  20 C :   -0.204271
  21 H :    0.038941
  22 C :   -0.023805
  23 H :    0.034539
  24 H :    0.019617
  25 C :   -0.044948
  26 H :    0.019229
  27 H :    0.029722
  28 C :   -0.059273
  29 H :    0.019534
  30 H :    0.017166
  31 H :    0.031788
  32 H :    0.026813
  33 H :    0.030706

  Mayer bond orders larger than 0.100000
B(  0-S ,  1-C ) :   1.1257 B(  0-S ,  4-C ) :   1.1461 B(  1-C ,  2-C ) :   1.5899
B(  1-C , 32-H ) :   0.9754 B(  2-C ,  3-C ) :   1.2164 B(  2-C ,  6-C ) :   1.0302
B(  3-C ,  4-C ) :   1.5752 B(  3-C ,  5-H ) :   0.9952 B(  4-C , 20-C ) :   1.0826
B(  6-C ,  7-H ) :   0.9327 B(  6-C ,  8-H ) :   0.9454 B(  6-C ,  9-C ) :   1.0525
B(  9-C , 10-H ) :   0.9612 B(  9-C , 11-H ) :   0.9540 B(  9-C , 12-C ) :   1.0848
B( 12-C , 13-H ) :   0.9730 B( 12-C , 14-H ) :   0.9744 B( 12-C , 15-H ) :   0.9677
B( 16-S , 17-C ) :   1.1665 B( 16-S , 20-C ) :   1.1484 B( 17-C , 18-C ) :   1.5972
B( 17-C , 33-H ) :   0.9665 B( 18-C , 19-C ) :   1.2829 B( 18-C , 21-H ) :   0.9853
B( 19-C , 20-C ) :   1.5622 B( 19-C , 22-C ) :   1.0275 B( 22-C , 23-H ) :   0.9304
B( 22-C , 24-H ) :   0.9346 B( 22-C , 25-C ) :   1.0550 B( 25-C , 26-H ) :   0.9608
B( 25-C , 27-H ) :   0.9481 B( 25-C , 28-C ) :   1.0895 B( 28-C , 29-H ) :   0.9699
B( 28-C , 30-H ) :   0.9747 B( 28-C , 31-H ) :   0.9719

Dispersion correction           -0.013972153
FINAL SINGLE POINT ENERGY     -1339.865675898064

DIPOLE MOMENT
-------------
                                X             Y             Z
Electronic contribution:     24.61800      -5.51622     -23.18862
Nuclear contribution   :    -24.94032       5.48852      23.74534
                        -----------------------------------------
Total Dipole Moment    :     -0.32232      -0.02770       0.55672
                        -----------------------------------------
Magnitude (a.u.)       :      0.64389
Magnitude (Debye)      :      1.63663

Rotational constants in cm-1:     0.017874     0.009473     0.006419
Rotational constants in MHz :   535.840281   283.983420   192.440880

                             ****ORCA TERMINATED NORMALLY****
TOTAL RUN TIME: 0 days 0 hours 0 minutes 32 seconds 437 msec
