                         Program Version 4.2.1 -  RELEASE  -
|  1> ! wB97X-D3 SP def2-SVP
|  2> %pal
|  3> nprocs 16
|  4> end
|  5>
|  6> * xyz 0 1
|  7> S 	 -23.2224 	 46.6105 	 64.7381
|  8> C 	 -22.0097 	 47.7374 	 65.2438
|  9> C 	 -21.2545 	 48.2617 	 64.2594
| 10> C 	 -21.4501 	 47.4437 	 63.1295
| 11> C 	 -22.6032 	 46.6933 	 63.1156
| 12> H 	 -20.9115 	 47.647 	 62.277
| 13> C 	 -20.2047 	 49.3084 	 64.414
| 14> H 	 -19.374 	 49.0101 	 63.8313
| 15> H 	 -19.9693 	 49.3561 	 65.5385
| 16> C 	 -20.6454 	 50.658 	 63.9168
| 17> H 	 -19.8593 	 51.3668 	 64.078
| 18> H 	 -20.8759 	 50.5776 	 62.8752
| 19> C 	 -21.8155 	 51.2641 	 64.7055
| 20> H 	 -22.1527 	 52.2273 	 64.2456
| 21> H 	 -22.5667 	 50.4872 	 64.7117
| 22> H 	 -21.5237 	 51.541 	 65.6777
| 23> S 	 -22.2295 	 45.6247 	 60.5804
| 24> C 	 -23.6345 	 45.1715 	 59.6584
| 25> C 	 -24.7652 	 45.3638 	 60.3841
| 26> C 	 -24.5415 	 45.8063 	 61.7339
| 27> C 	 -23.2127 	 46.0764 	 61.9581
| 28> H 	 -25.7387 	 45.2063 	 59.9516
| 29> C 	 -25.6573 	 46.1419 	 62.6805
| 30> H 	 -26.4911 	 46.4958 	 62.1136
| 31> H 	 -25.4162 	 46.944 	 63.3164
| 32> C 	 -26.2075 	 44.9909 	 63.4802
| 33> H 	 -26.8387 	 45.2853 	 64.3429
| 34> H 	 -25.3817 	 44.5342 	 64.0324
| 35> C 	 -26.9836 	 44.0116 	 62.6468
| 36> H 	 -26.3803 	 43.5388 	 61.9205
| 37> H 	 -27.692 	 44.6297 	 62.1932
| 38> H 	 -27.5472 	 43.3023 	 63.335
| 39> H 	 -21.9986 	 48.1231 	 66.207
| 40> H 	 -23.6214 	 44.7268 	 58.6174
| 41> *
| 42>
| 43>                          ****END OF INPUT****

CARTESIAN COORDINATES (ANGSTROEM)
---------------------------------
  S    -23.222400   46.610500   64.738100
  C    -22.009700   47.737400   65.243800
  C    -21.254500   48.261700   64.259400
  C    -21.450100   47.443700   63.129500
  C    -22.603200   46.693300   63.115600
  H    -20.911500   47.647000   62.277000
  C    -20.204700   49.308400   64.414000
  H    -19.374000   49.010100   63.831300
  H    -19.969300   49.356100   65.538500
  C    -20.645400   50.658000   63.916800
  H    -19.859300   51.366800   64.078000
  H    -20.875900   50.577600   62.875200
  C    -21.815500   51.264100   64.705500
  H    -22.152700   52.227300   64.245600
  H    -22.566700   50.487200   64.711700
  H    -21.523700   51.541000   65.677700
  S    -22.229500   45.624700   60.580400
  C    -23.634500   45.171500   59.658400
  C    -24.765200   45.363800   60.384100
  C    -24.541500   45.806300   61.733900
  C    -23.212700   46.076400   61.958100
  H    -25.738700   45.206300   59.951600
  C    -25.657300   46.141900   62.680500
  H    -26.491100   46.495800   62.113600
  H    -25.416200   46.944000   63.316400
  C    -26.207500   44.990900   63.480200
  H    -26.838700   45.285300   64.342900
  H    -25.381700   44.534200   64.032400
  C    -26.983600   44.011600   62.646800
  H    -26.380300   43.538800   61.920500
  H    -27.692000   44.629700   62.193200
  H    -27.547200   43.302300   63.335000
  H    -21.998600   48.123100   66.207000
  H    -23.621400   44.726800   58.617400

 Total Charge           Charge          ....    0
 Multiplicity           Mult            ....    1
 Number of Electrons    NEL             ....  134
 Basis Dimension        Dim             ....  322

ORBITAL ENERGIES
----------------

  NO   OCC          E(Eh)            E(eV)
   0   2.0000     -88.969187     -2420.9746
   1   2.0000     -88.965815     -2420.8829
   2   2.0000     -10.328048      -281.0405
   3   2.0000     -10.326472      -280.9976
   4   2.0000     -10.319651      -280.8120
   5   2.0000     -10.302301      -280.3399
   6   2.0000     -10.299735      -280.2700
   7   2.0000     -10.293817      -280.1090
   8   2.0000     -10.292275      -280.0670
   9   2.0000     -10.291891      -280.0566
  10   2.0000     -10.283060      -279.8163
  11   2.0000     -10.279475      -279.7187
  12   2.0000     -10.279260      -279.7129
  13   2.0000     -10.277606      -279.6679
  14   2.0000     -10.272159      -279.5197
  15   2.0000     -10.269205      -279.4393
  16   2.0000      -8.083921      -219.9747
  17   2.0000      -8.080644      -219.8855
  18   2.0000      -6.042471      -164.4240
  19   2.0000      -6.039318      -164.3382
  20   2.0000      -6.038473      -164.3152
  21   2.0000      -6.035182      -164.2257
  22   2.0000      -6.034594      -164.2096
  23   2.0000      -6.031192      -164.1171
  24   2.0000      -1.016227       -27.6529
  25   2.0000      -0.993320       -27.0296
  26   2.0000      -0.923518       -25.1302
  27   2.0000      -0.918483       -24.9932
  28   2.0000      -0.874841       -23.8056
  29   2.0000      -0.856518       -23.3070
  30   2.0000      -0.848104       -23.0781
  31   2.0000      -0.816320       -22.2132
  32   2.0000      -0.789340       -21.4790
  33   2.0000      -0.780434       -21.2367
  34   2.0000      -0.712220       -19.3805
  35   2.0000      -0.696495       -18.9526
  36   2.0000      -0.691295       -18.8111
  37   2.0000      -0.668712       -18.1966
  38   2.0000      -0.642547       -17.4846
  39   2.0000      -0.619936       -16.8693
  40   2.0000      -0.601559       -16.3693
  41   2.0000      -0.579193       -15.7607
  42   2.0000      -0.562052       -15.2942
  43   2.0000      -0.555139       -15.1061
  44   2.0000      -0.553404       -15.0589
  45   2.0000      -0.551637       -15.0108
  46   2.0000      -0.517590       -14.0843
  47   2.0000      -0.514124       -13.9900
  48   2.0000      -0.502183       -13.6651
  49   2.0000      -0.495418       -13.4810
  50   2.0000      -0.487984       -13.2787
  51   2.0000      -0.483657       -13.1610
  52   2.0000      -0.476733       -12.9726
  53   2.0000      -0.470087       -12.7917
  54   2.0000      -0.464287       -12.6339
  55   2.0000      -0.444980       -12.1085
  56   2.0000      -0.442545       -12.0423
  57   2.0000      -0.439630       -11.9629
  58   2.0000      -0.430939       -11.7265
  59   2.0000      -0.428701       -11.6655
  60   2.0000      -0.425711       -11.5842
  61   2.0000      -0.414711       -11.2849
  62   2.0000      -0.408966       -11.1285
  63   2.0000      -0.362867        -9.8741
  64   2.0000      -0.334213        -9.0944
  65   2.0000      -0.331954        -9.0329
  66   2.0000      -0.283338        -7.7100
  67   0.0000       0.025231         0.6866
  68   0.0000       0.087132         2.3710
  69   0.0000       0.109946         2.9918
  70   0.0000       0.113997         3.1020
  71   0.0000       0.130673         3.5558

MULLIKEN ATOMIC CHARGES
-----------------------
   0 S :    0.108745
   1 C :   -0.078865
   2 C :   -0.130869
   3 C :    0.033266
   4 C :   -0.119975
   5 H :   -0.027957
   6 C :    0.082201
   7 H :    0.020813
   8 H :    0.033290
   9 C :   -0.054324
  10 H :    0.023571
  11 H :    0.026798
  12 C :   -0.045774
  13 H :    0.038242
  14 H :    0.038530
  15 H :    0.013192
  16 S :    0.104024
  17 C :   -0.110778
  18 C :   -0.021322
  19 C :   -0.072920
  20 C :   -0.101070
  21 H :    0.013060
  22 C :    0.081518
  23 H :    0.006165
  24 H :    0.016090
  25 C :   -0.080176
  26 H :    0.025081
  27 H :    0.014343
  28 C :   -0.009733
  29 H :    0.037036
  30 H :    0.001766
  31 H :    0.041495
  32 H :    0.014021
  33 H :    0.080516
Sum of atomic charges:    0.0000000

LOEWDIN ATOMIC CHARGES
----------------------
   0 S :    0.433532
   1 C :   -0.188019
   2 C :   -0.063947
   3 C :   -0.059853
   4 C :   -0.184936
   5 H :    0.009129
   6 C :   -0.024739
   7 H :    0.029403
   8 H :    0.040120
   9 C :   -0.036676
  10 H :    0.021667
  11 H :    0.021554
  12 C :   -0.059799
  13 H :    0.032416
  14 H :    0.022642
  15 H :    0.014871
  16 S :    0.405645
  17 C :   -0.198208
  18 C :   -0.071120
  19 C :   -0.059288
  20 C :   -0.185005
  21 H :    0.029242
  22 C :   -0.036414
  23 H :    0.026570
  24 H :    0.015641
  25 C :   -0.046030
  26 H :    0.027027
  27 H :    0.014044
  28 C :   -0.056416
  29 H :    0.019629
  30 H :    0.014432
  31 H :    0.036651
  32 H :    0.009041
  33 H :    0.047193

  Mayer bond orders larger than 0.100000
B(  0-S ,  1-C ) :   1.1378 B(  0-S ,  4-C ) :   1.1404 B(  1-C ,  2-C ) :   1.6225
B(  1-C , 32-H ) :   0.9636 B(  2-C ,  3-C ) :   1.2646 B(  2-C ,  6-C ) :   1.0218
B(  3-C ,  4-C ) :   1.5505 B(  3-C ,  5-H ) :   0.9869 B(  4-C , 20-C ) :   1.0859
B(  6-C ,  7-H ) :   0.9333 B(  6-C ,  8-H ) :   0.9423 B(  6-C ,  9-C ) :   1.0787
B(  9-C , 10-H ) :   0.9543 B(  9-C , 11-H ) :   0.9546 B(  9-C , 12-C ) :   1.0765
B( 12-C , 13-H ) :   0.9724 B( 12-C , 14-H ) :   0.9772 B( 12-C , 15-H ) :   0.9748
B( 16-S , 17-C ) :   1.1367 B( 16-S , 20-C ) :   1.1316 B( 17-C , 18-C ) :   1.6284
B( 17-C , 33-H ) :   0.9580 B( 18-C , 19-C ) :   1.2299 B( 18-C , 21-H ) :   0.9893
B( 19-C , 20-C ) :   1.5917 B( 19-C , 22-C ) :   1.0458 B( 22-C , 23-H ) :   0.9329
B( 22-C , 24-H ) :   0.9210 B( 22-C , 25-C ) :   1.0741 B( 25-C , 26-H ) :   0.9534
B( 25-C , 27-H ) :   0.9463 B( 25-C , 28-C ) :   1.0796 B( 28-C , 29-H ) :   0.9737
B( 28-C , 30-H ) :   0.9722 B( 28-C , 31-H ) :   0.9710

Dispersion correction           -0.014741313
FINAL SINGLE POINT ENERGY     -1339.873732397116

DIPOLE MOMENT
-------------
                                X             Y             Z
Electronic contribution:      7.66830     -10.53382      -6.63365
Nuclear contribution   :     -7.78641      10.93700       6.61448
                        -----------------------------------------
Total Dipole Moment    :     -0.11811       0.40318      -0.01917
                        -----------------------------------------
Magnitude (a.u.)       :      0.42056
Magnitude (Debye)      :      1.06898

Rotational constants in cm-1:     0.022805     0.008391     0.006923
Rotational constants in MHz :   683.677849   251.553629   207.550780

                             ****ORCA TERMINATED NORMALLY****
TOTAL RUN TIME: 0 days 0 hours 0 minutes 35 seconds 973 msec
