                         Program Version 4.2.1 -  RELEASE  -
|  1> ! wB97X-D3 SP def2-SVP
|  2> %pal
|  3> nprocs 16
|  4> end
|  5>
|  6> * xyz 0 1
|  7> S 	 -10.8478 	 57.2242 	 29.2305
|  8> C 	 -10.9568 	 55.6621 	 28.2937
|  9> C 	 -10.0909 	 54.7058 	 28.7604
| 10> C 	 -9.36449 	 55.2634 	 29.8664
| 11> C 	 -9.67989 	 56.5304 	 30.299
| 12> H 	 -8.57914 	 54.7658 	 30.4596
| 13> C 	 -9.89844 	 53.3058 	 28.3655
| 14> H 	 -8.86172 	 53.018 	 28.6663
| 15> H 	 -9.89608 	 53.2718 	 27.2962
| 16> C 	 -11.0103 	 52.4054 	 29.0049
| 17> H 	 -10.8852 	 52.3561 	 30.0402
| 18> H 	 -12.0046 	 52.807 	 28.8186
| 19> C 	 -11.0578 	 50.9191 	 28.6589
| 20> H 	 -11.2817 	 50.7995 	 27.6011
| 21> H 	 -10.2468 	 50.3515 	 29.0547
| 22> H 	 -11.945 	 50.5493 	 29.0987
| 23> S 	 -8.06278 	 58.4534 	 31.0241
| 24> C 	 -7.93497 	 58.8414 	 32.7193
| 25> C 	 -8.67133 	 58.0107 	 33.5144
| 26> C 	 -9.31077 	 57.0224 	 32.7844
| 27> C 	 -9.27393 	 57.2953 	 31.4291
| 28> H 	 -8.78552 	 58.1362 	 34.5352
| 29> C 	 -10.093 	 55.8752 	 33.459
| 30> H 	 -9.30192 	 55.2435 	 33.8062
| 31> H 	 -10.6048 	 55.3484 	 32.6486
| 32> C 	 -11.0467 	 56.1992 	 34.5629
| 33> H 	 -11.8092 	 56.9278 	 34.3161
| 34> H 	 -10.5456 	 56.5807 	 35.4288
| 35> C 	 -11.8844 	 55.0652 	 35.0707
| 36> H 	 -11.3143 	 54.2409 	 35.5987
| 37> H 	 -12.3544 	 54.5489 	 34.2517
| 38> H 	 -12.7759 	 55.3622 	 35.7028
| 39> H 	 -11.5523 	 55.4362 	 27.4496
| 40> H 	 -7.3947 	 59.7148 	 33.1486
| 41> *
| 42>
| 43>                          ****END OF INPUT****

CARTESIAN COORDINATES (ANGSTROEM)
---------------------------------
  S    -10.847800   57.224200   29.230500
  C    -10.956800   55.662100   28.293700
  C    -10.090900   54.705800   28.760400
  C     -9.364490   55.263400   29.866400
  C     -9.679890   56.530400   30.299000
  H     -8.579140   54.765800   30.459600
  C     -9.898440   53.305800   28.365500
  H     -8.861720   53.018000   28.666300
  H     -9.896080   53.271800   27.296200
  C    -11.010300   52.405400   29.004900
  H    -10.885200   52.356100   30.040200
  H    -12.004600   52.807000   28.818600
  C    -11.057800   50.919100   28.658900
  H    -11.281700   50.799500   27.601100
  H    -10.246800   50.351500   29.054700
  H    -11.945000   50.549300   29.098700
  S     -8.062780   58.453400   31.024100
  C     -7.934970   58.841400   32.719300
  C     -8.671330   58.010700   33.514400
  C     -9.310770   57.022400   32.784400
  C     -9.273930   57.295300   31.429100
  H     -8.785520   58.136200   34.535200
  C    -10.093000   55.875200   33.459000
  H     -9.301920   55.243500   33.806200
  H    -10.604800   55.348400   32.648600
  C    -11.046700   56.199200   34.562900
  H    -11.809200   56.927800   34.316100
  H    -10.545600   56.580700   35.428800
  C    -11.884400   55.065200   35.070700
  H    -11.314300   54.240900   35.598700
  H    -12.354400   54.548900   34.251700
  H    -12.775900   55.362200   35.702800
  H    -11.552300   55.436200   27.449600
  H     -7.394700   59.714800   33.148600

 Total Charge           Charge          ....    0
 Multiplicity           Mult            ....    1
 Number of Electrons    NEL             ....  134
 Basis Dimension        Dim             ....  322

ORBITAL ENERGIES
----------------

  NO   OCC          E(Eh)            E(eV)
   0   2.0000     -88.965327     -2420.8696
   1   2.0000     -88.961629     -2420.7690
   2   2.0000     -10.318972      -280.7935
   3   2.0000     -10.316532      -280.7271
   4   2.0000     -10.315821      -280.7077
   5   2.0000     -10.312033      -280.6047
   6   2.0000     -10.300061      -280.2789
   7   2.0000     -10.297276      -280.2031
   8   2.0000     -10.294746      -280.1343
   9   2.0000     -10.290051      -280.0065
  10   2.0000     -10.289345      -279.9873
  11   2.0000     -10.284501      -279.8555
  12   2.0000     -10.282131      -279.7910
  13   2.0000     -10.281324      -279.7690
  14   2.0000     -10.280827      -279.7555
  15   2.0000     -10.271741      -279.5083
  16   2.0000      -8.080862      -219.8914
  17   2.0000      -8.075752      -219.7524
  18   2.0000      -6.039190      -164.3347
  19   2.0000      -6.035432      -164.2324
  20   2.0000      -6.034450      -164.2057
  21   2.0000      -6.031563      -164.1272
  22   2.0000      -6.030306      -164.0930
  23   2.0000      -6.026379      -163.9861
  24   2.0000      -1.013999       -27.5923
  25   2.0000      -0.983792       -26.7703
  26   2.0000      -0.917958       -24.9789
  27   2.0000      -0.914758       -24.8918
  28   2.0000      -0.875780       -23.8312
  29   2.0000      -0.857252       -23.3270
  30   2.0000      -0.846439       -23.0328
  31   2.0000      -0.811022       -22.0690
  32   2.0000      -0.788675       -21.4609
  33   2.0000      -0.774222       -21.0677
  34   2.0000      -0.706761       -19.2319
  35   2.0000      -0.704823       -19.1792
  36   2.0000      -0.697813       -18.9885
  37   2.0000      -0.664950       -18.0942
  38   2.0000      -0.641901       -17.4670
  39   2.0000      -0.612917       -16.6783
  40   2.0000      -0.597691       -16.2640
  41   2.0000      -0.574853       -15.6426
  42   2.0000      -0.572630       -15.5821
  43   2.0000      -0.561841       -15.2885
  44   2.0000      -0.531870       -14.4729
  45   2.0000      -0.527897       -14.3648
  46   2.0000      -0.523772       -14.2526
  47   2.0000      -0.513050       -13.9608
  48   2.0000      -0.506595       -13.7852
  49   2.0000      -0.498981       -13.5780
  50   2.0000      -0.494370       -13.4525
  51   2.0000      -0.479565       -13.0496
  52   2.0000      -0.469955       -12.7881
  53   2.0000      -0.463263       -12.6060
  54   2.0000      -0.456707       -12.4276
  55   2.0000      -0.448358       -12.2004
  56   2.0000      -0.444656       -12.0997
  57   2.0000      -0.438106       -11.9215
  58   2.0000      -0.430187       -11.7060
  59   2.0000      -0.424479       -11.5507
  60   2.0000      -0.421583       -11.4719
  61   2.0000      -0.420841       -11.4517
  62   2.0000      -0.415568       -11.3082
  63   2.0000      -0.340906        -9.2765
  64   2.0000      -0.329941        -8.9782
  65   2.0000      -0.319907        -8.7051
  66   2.0000      -0.302334        -8.2269
  67   0.0000       0.039233         1.0676
  68   0.0000       0.062686         1.7058
  69   0.0000       0.110350         3.0028
  70   0.0000       0.116900         3.1810
  71   0.0000       0.136901         3.7253

MULLIKEN ATOMIC CHARGES
-----------------------
   0 S :    0.101165
   1 C :   -0.104557
   2 C :   -0.095574
   3 C :    0.029057
   4 C :   -0.188558
   5 H :    0.006493
   6 C :    0.105378
   7 H :    0.028479
   8 H :    0.017602
   9 C :   -0.076982
  10 H :    0.014102
  11 H :    0.026741
  12 C :   -0.003746
  13 H :    0.023284
  14 H :    0.034628
  15 H :    0.014037
  16 S :    0.123892
  17 C :   -0.084436
  18 C :   -0.016912
  19 C :   -0.026692
  20 C :   -0.176905
  21 H :   -0.011517
  22 C :    0.110084
  23 H :    0.026992
  24 H :    0.026780
  25 C :   -0.044191
  26 H :    0.030672
  27 H :    0.021235
  28 C :   -0.087854
  29 H :    0.032156
  30 H :    0.016892
  31 H :    0.044725
  32 H :    0.020782
  33 H :    0.062746
Sum of atomic charges:    0.0000000

LOEWDIN ATOMIC CHARGES
----------------------
   0 S :    0.385623
   1 C :   -0.172850
   2 C :   -0.061780
   3 C :   -0.068784
   4 C :   -0.213741
   5 H :    0.029642
   6 C :   -0.029349
   7 H :    0.037505
   8 H :    0.027347
   9 C :   -0.030687
  10 H :    0.018796
  11 H :    0.026295
  12 C :   -0.059271
  13 H :    0.023726
  14 H :    0.021935
  15 H :    0.024446
  16 S :    0.430071
  17 C :   -0.184194
  18 C :   -0.067197
  19 C :   -0.043271
  20 C :   -0.221545
  21 H :    0.020940
  22 C :   -0.024450
  23 H :    0.033712
  24 H :    0.032813
  25 C :   -0.047742
  26 H :    0.030959
  27 H :    0.020567
  28 C :   -0.072751
  29 H :    0.025816
  30 H :    0.018896
  31 H :    0.034954
  32 H :    0.018488
  33 H :    0.035080

  Mayer bond orders larger than 0.100000
B(  0-S ,  1-C ) :   1.1205 B(  0-S ,  4-C ) :   1.1355 B(  1-C ,  2-C ) :   1.6411
B(  1-C , 32-H ) :   0.9690 B(  2-C ,  3-C ) :   1.2115 B(  2-C ,  6-C ) :   1.0293
B(  3-C ,  4-C ) :   1.6236 B(  3-C ,  5-H ) :   0.9922 B(  4-C , 20-C ) :   0.9885
B(  6-C ,  7-H ) :   0.9374 B(  6-C ,  8-H ) :   0.9297 B(  6-C ,  9-C ) :   1.0531
B(  9-C , 10-H ) :   0.9564 B(  9-C , 11-H ) :   0.9598 B(  9-C , 12-C ) :   1.0950
B( 12-C , 13-H ) :   0.9722 B( 12-C , 14-H ) :   0.9760 B( 12-C , 15-H ) :   0.9680
B( 16-S , 17-C ) :   1.1639 B( 16-S , 20-C ) :   1.1623 B( 17-C , 18-C ) :   1.5977
B( 17-C , 20-C ) :   0.1074 B( 17-C , 33-H ) :   0.9596 B( 18-C , 19-C ) :   1.2490
B( 18-C , 21-H ) :   1.0053 B( 19-C , 20-C ) :   1.5990 B( 19-C , 22-C ) :   1.0304
B( 22-C , 23-H ) :   0.9205 B( 22-C , 24-H ) :   0.9347 B( 22-C , 25-C ) :   1.0783
B( 25-C , 26-H ) :   0.9532 B( 25-C , 27-H ) :   0.9427 B( 25-C , 28-C ) :   1.0932
B( 28-C , 29-H ) :   0.9726 B( 28-C , 30-H ) :   0.9711 B( 28-C , 31-H ) :   0.9741

Dispersion correction           -0.013675355
FINAL SINGLE POINT ENERGY     -1339.860812765336

DIPOLE MOMENT
-------------
                                X             Y             Z
Electronic contribution:     10.90961      26.66752      -9.79873
Nuclear contribution   :    -10.98307     -27.30504      10.19638
                        -----------------------------------------
Total Dipole Moment    :     -0.07346      -0.63753       0.39764
                        -----------------------------------------
Magnitude (a.u.)       :      0.75496
Magnitude (Debye)      :      1.91895

Rotational constants in cm-1:     0.016897     0.008698     0.006557
Rotational constants in MHz :   506.549857   260.756858   196.582666

                             ****ORCA TERMINATED NORMALLY****
TOTAL RUN TIME: 0 days 0 hours 0 minutes 32 seconds 911 msec
