                         Program Version 4.2.1 -  RELEASE  -
|  1> ! wB97X-D3 SP def2-SVP
|  2> %pal
|  3> nprocs 16
|  4> end
|  5>
|  6> * xyz 0 1
|  7> S 	 57.1993 	 3.81109 	 87.4438
|  8> C 	 56.7759 	 4.68873 	 85.9874
|  9> C 	 55.5432 	 4.31318 	 85.5276
| 10> C 	 55.0418 	 3.10829 	 86.1638
| 11> C 	 55.6983 	 2.85431 	 87.3409
| 12> H 	 54.0714 	 2.60136 	 85.9356
| 13> C 	 54.7963 	 4.99585 	 84.4205
| 14> H 	 55.3101 	 5.95053 	 84.0924
| 15> H 	 53.8647 	 5.37548 	 84.8764
| 16> C 	 54.4222 	 4.01811 	 83.2472
| 17> H 	 55.3496 	 3.66816 	 82.8385
| 18> H 	 53.913 	 3.10903 	 83.6198
| 19> C 	 53.5408 	 4.67727 	 82.208
| 20> H 	 53.9746 	 5.59783 	 81.7767
| 21> H 	 53.3543 	 3.93083 	 81.4103
| 22> H 	 52.6314 	 4.99896 	 82.6749
| 23> S 	 55.346 	 2.48483 	 90.0466
| 24> C 	 54.4675 	 1.12027 	 90.5918
| 25> C 	 54.516 	 0.114192 	 89.599
| 26> C 	 54.8919 	 0.587825 	 88.3025
| 27> C 	 55.3218 	 1.89863 	 88.398
| 28> H 	 53.9978 	 -0.774117 	 89.836
| 29> C 	 54.5806 	 -0.0957128 	 86.9943
| 30> H 	 55.5223 	 0.0899668 	 86.4697
| 31> H 	 53.7302 	 0.437238 	 86.4676
| 32> C 	 54.0853 	 -1.51116 	 87.0478
| 33> H 	 53.017 	 -1.45406 	 87.4148
| 34> H 	 54.7133 	 -2.03473 	 87.7129
| 35> C 	 53.9777 	 -2.19444 	 85.6565
| 36> H 	 54.9573 	 -2.51372 	 85.3709
| 37> H 	 53.5637 	 -1.6093 	 84.8329
| 38> H 	 53.3362 	 -3.12582 	 85.7007
| 39> H 	 57.2777 	 5.61837 	 85.6414
| 40> H 	 54.1088 	 1.01247 	 91.5786
| 41> *
| 42>
| 43>                          ****END OF INPUT****

CARTESIAN COORDINATES (ANGSTROEM)
---------------------------------
  S     57.199300    3.811090   87.443800
  C     56.775900    4.688730   85.987400
  C     55.543200    4.313180   85.527600
  C     55.041800    3.108290   86.163800
  C     55.698300    2.854310   87.340900
  H     54.071400    2.601360   85.935600
  C     54.796300    4.995850   84.420500
  H     55.310100    5.950530   84.092400
  H     53.864700    5.375480   84.876400
  C     54.422200    4.018110   83.247200
  H     55.349600    3.668160   82.838500
  H     53.913000    3.109030   83.619800
  C     53.540800    4.677270   82.208000
  H     53.974600    5.597830   81.776700
  H     53.354300    3.930830   81.410300
  H     52.631400    4.998960   82.674900
  S     55.346000    2.484830   90.046600
  C     54.467500    1.120270   90.591800
  C     54.516000    0.114192   89.599000
  C     54.891900    0.587825   88.302500
  C     55.321800    1.898630   88.398000
  H     53.997800   -0.774117   89.836000
  C     54.580600   -0.095713   86.994300
  H     55.522300    0.089967   86.469700
  H     53.730200    0.437238   86.467600
  C     54.085300   -1.511160   87.047800
  H     53.017000   -1.454060   87.414800
  H     54.713300   -2.034730   87.712900
  C     53.977700   -2.194440   85.656500
  H     54.957300   -2.513720   85.370900
  H     53.563700   -1.609300   84.832900
  H     53.336200   -3.125820   85.700700
  H     57.277700    5.618370   85.641400
  H     54.108800    1.012470   91.578600

 Total Charge           Charge          ....    0
 Multiplicity           Mult            ....    1
 Number of Electrons    NEL             ....  134
 Basis Dimension        Dim             ....  322

ORBITAL ENERGIES
----------------

  NO   OCC          E(Eh)            E(eV)
   0   2.0000     -88.965702     -2420.8798
   1   2.0000     -88.961773     -2420.7729
   2   2.0000     -10.332236      -281.1544
   3   2.0000     -10.323875      -280.9269
   4   2.0000     -10.316301      -280.7208
   5   2.0000     -10.310822      -280.5717
   6   2.0000     -10.304559      -280.4013
   7   2.0000     -10.299679      -280.2685
   8   2.0000     -10.297564      -280.2110
   9   2.0000     -10.297018      -280.1961
  10   2.0000     -10.295375      -280.1514
  11   2.0000     -10.293988      -280.1137
  12   2.0000     -10.290451      -280.0174
  13   2.0000     -10.288270      -279.9580
  14   2.0000     -10.283907      -279.8393
  15   2.0000     -10.279431      -279.7175
  16   2.0000      -8.081183      -219.9002
  17   2.0000      -8.076184      -219.7641
  18   2.0000      -6.039542      -164.3443
  19   2.0000      -6.035555      -164.2358
  20   2.0000      -6.034863      -164.2170
  21   2.0000      -6.032085      -164.1414
  22   2.0000      -6.030868      -164.1082
  23   2.0000      -6.026654      -163.9936
  24   2.0000      -1.007028       -27.4026
  25   2.0000      -0.983782       -26.7701
  26   2.0000      -0.916311       -24.9341
  27   2.0000      -0.908291       -24.7159
  28   2.0000      -0.868852       -23.6427
  29   2.0000      -0.853849       -23.2344
  30   2.0000      -0.843260       -22.9463
  31   2.0000      -0.813934       -22.1483
  32   2.0000      -0.783588       -21.3225
  33   2.0000      -0.767797       -20.8928
  34   2.0000      -0.709558       -19.3081
  35   2.0000      -0.704027       -19.1576
  36   2.0000      -0.691395       -18.8138
  37   2.0000      -0.652648       -17.7595
  38   2.0000      -0.635740       -17.2994
  39   2.0000      -0.618507       -16.8304
  40   2.0000      -0.600261       -16.3339
  41   2.0000      -0.578475       -15.7411
  42   2.0000      -0.564768       -15.3681
  43   2.0000      -0.556582       -15.1454
  44   2.0000      -0.530982       -14.4487
  45   2.0000      -0.527482       -14.3535
  46   2.0000      -0.514969       -14.0130
  47   2.0000      -0.508279       -13.8310
  48   2.0000      -0.504233       -13.7209
  49   2.0000      -0.496068       -13.4987
  50   2.0000      -0.488676       -13.2975
  51   2.0000      -0.482101       -13.1186
  52   2.0000      -0.476113       -12.9557
  53   2.0000      -0.466026       -12.6812
  54   2.0000      -0.458711       -12.4822
  55   2.0000      -0.451543       -12.2871
  56   2.0000      -0.448152       -12.1948
  57   2.0000      -0.437332       -11.9004
  58   2.0000      -0.432123       -11.7587
  59   2.0000      -0.424826       -11.5601
  60   2.0000      -0.420824       -11.4512
  61   2.0000      -0.416538       -11.3346
  62   2.0000      -0.414389       -11.2761
  63   2.0000      -0.347865        -9.4659
  64   2.0000      -0.330269        -8.9871
  65   2.0000      -0.324123        -8.8198
  66   2.0000      -0.288250        -7.8437
  67   0.0000       0.031078         0.8457
  68   0.0000       0.065201         1.7742
  69   0.0000       0.114837         3.1249
  70   0.0000       0.119840         3.2610
  71   0.0000       0.125117         3.4046

MULLIKEN ATOMIC CHARGES
-----------------------
   0 S :    0.093128
   1 C :   -0.124064
   2 C :   -0.085895
   3 C :   -0.011830
   4 C :   -0.134300
   5 H :    0.033785
   6 C :    0.042367
   7 H :    0.026015
   8 H :    0.031704
   9 C :   -0.093521
  10 H :    0.028523
  11 H :    0.033399
  12 C :   -0.026521
  13 H :    0.030514
  14 H :    0.042743
  15 H :    0.022083
  16 S :    0.122933
  17 C :   -0.094058
  18 C :   -0.033439
  19 C :   -0.026979
  20 C :   -0.164130
  21 H :    0.009354
  22 C :    0.020223
  23 H :    0.046252
  24 H :    0.049494
  25 C :   -0.072009
  26 H :    0.038209
  27 H :    0.028827
  28 C :   -0.040337
  29 H :    0.026105
  30 H :    0.032558
  31 H :    0.038861
  32 H :    0.060790
  33 H :    0.049217
Sum of atomic charges:   -0.0000000

LOEWDIN ATOMIC CHARGES
----------------------
   0 S :    0.375336
   1 C :   -0.209659
   2 C :   -0.062726
   3 C :   -0.073635
   4 C :   -0.172467
   5 H :    0.037199
   6 C :   -0.036358
   7 H :    0.033859
   8 H :    0.031990
   9 C :   -0.038949
  10 H :    0.021271
  11 H :    0.026211
  12 C :   -0.064990
  13 H :    0.026459
  14 H :    0.031771
  15 H :    0.020889
  16 S :    0.426558
  17 C :   -0.186327
  18 C :   -0.070430
  19 C :   -0.056123
  20 C :   -0.202532
  21 H :    0.021450
  22 C :   -0.038880
  23 H :    0.037469
  24 H :    0.039701
  25 C :   -0.040489
  26 H :    0.032734
  27 H :    0.017721
  28 C :   -0.064381
  29 H :    0.020915
  30 H :    0.025423
  31 H :    0.033182
  32 H :    0.036601
  33 H :    0.021205

  Mayer bond orders larger than 0.100000
B(  0-S ,  1-C ) :   1.1037 B(  0-S ,  4-C ) :   1.1362 B(  1-C ,  2-C ) :   1.6679
B(  1-C , 32-H ) :   0.9568 B(  2-C ,  3-C ) :   1.1859 B(  2-C ,  6-C ) :   1.0385
B(  3-C ,  4-C ) :   1.6247 B(  3-C ,  5-H ) :   0.9748 B(  4-C , 20-C ) :   1.0403
B(  6-C ,  7-H ) :   0.9445 B(  6-C ,  8-H ) :   0.9321 B(  6-C ,  9-C ) :   1.0467
B(  9-C , 10-H ) :   0.9577 B(  9-C , 11-H ) :   0.9528 B(  9-C , 12-C ) :   1.0873
B( 12-C , 13-H ) :   0.9734 B( 12-C , 14-H ) :   0.9727 B( 12-C , 15-H ) :   0.9731
B( 16-S , 17-C ) :   1.1800 B( 16-S , 20-C ) :   1.1531 B( 17-C , 18-C ) :   1.5798
B( 17-C , 20-C ) :   0.1078 B( 17-C , 33-H ) :   0.9745 B( 18-C , 19-C ) :   1.2469
B( 18-C , 21-H ) :   0.9882 B( 19-C , 20-C ) :   1.5836 B( 19-C , 22-C ) :   1.0339
B( 22-C , 23-H ) :   0.9266 B( 22-C , 24-H ) :   0.9319 B( 22-C , 25-C ) :   1.0849
B( 25-C , 26-H ) :   0.9478 B( 25-C , 27-H ) :   0.9547 B( 25-C , 28-C ) :   1.0787
B( 28-C , 29-H ) :   0.9762 B( 28-C , 30-H ) :   0.9744 B( 28-C , 31-H ) :   0.9751

Dispersion correction           -0.013570508
FINAL SINGLE POINT ENERGY     -1339.874251390032

DIPOLE MOMENT
-------------
                                X             Y             Z
Electronic contribution:     14.61916       9.70900      26.10566
Nuclear contribution   :    -15.25086      -9.93558     -26.51722
                        -----------------------------------------
Total Dipole Moment    :     -0.63170      -0.22658      -0.41156
                        -----------------------------------------
Magnitude (a.u.)       :      0.78725
Magnitude (Debye)      :      2.00104

Rotational constants in cm-1:     0.015824     0.008964     0.006333
Rotational constants in MHz :   474.397393   268.746848   189.855747

                             ****ORCA TERMINATED NORMALLY****
TOTAL RUN TIME: 0 days 0 hours 0 minutes 29 seconds 171 msec
