                         Program Version 4.2.1 -  RELEASE  -
|  1> ! wB97X-D3 SP def2-SVP
|  2> %pal
|  3> nprocs 16
|  4> end
|  5>
|  6> * xyz 0 1
|  7> S 	 -0.8589 	 -10.5285 	 70.7331
|  8> C 	 -1.1163 	 -11.293 	 69.1716
|  9> C 	 -1.20065 	 -12.6746 	 69.363
| 10> C 	 -0.898447 	 -13.1045 	 70.7234
| 11> C 	 -0.742032 	 -12.0568 	 71.5993
| 12> H 	 -0.647013 	 -14.0892 	 71.0011
| 13> C 	 -1.45034 	 -13.7211 	 68.3158
| 14> H 	 -2.09401 	 -13.4165 	 67.4782
| 15> H 	 -2.03934 	 -14.4396 	 68.8535
| 16> C 	 -0.202608 	 -14.3773 	 67.7465
| 17> H 	 0.506393 	 -13.5648 	 67.4324
| 18> H 	 0.329472 	 -14.9292 	 68.523
| 19> C 	 -0.518332 	 -15.3285 	 66.5838
| 20> H 	 -1.39494 	 -15.9292 	 66.8202
| 21> H 	 -0.581688 	 -14.8549 	 65.6463
| 22> H 	 0.234156 	 -16.084 	 66.3859
| 23> S 	 -1.49204 	 -11.7243 	 74.141
| 24> C 	 -0.315796 	 -11.7669 	 75.489
| 25> C 	 0.895978 	 -12.3331 	 74.9805
| 26> C 	 0.907422 	 -12.5639 	 73.5524
| 27> C 	 -0.305087 	 -12.2206 	 72.9804
| 28> H 	 1.78091 	 -12.5023 	 75.613
| 29> C 	 2.1217 	 -13.0469 	 72.7847
| 30> H 	 1.81082 	 -13.5567 	 71.8671
| 31> H 	 2.5804 	 -13.6194 	 73.5436
| 32> C 	 3.14492 	 -11.8748 	 72.4638
| 33> H 	 3.45942 	 -11.2866 	 73.3295
| 34> H 	 2.54056 	 -11.1083 	 71.9067
| 35> C 	 4.36958 	 -12.4301 	 71.7004
| 36> H 	 4.23573 	 -13.0386 	 70.8304
| 37> H 	 4.91835 	 -13.1054 	 72.3842
| 38> H 	 5.06778 	 -11.6887 	 71.422
| 39> H 	 -1.42402 	 -10.7991 	 68.2822
| 40> H 	 -0.515488 	 -11.5491 	 76.514
| 41> *
| 42>
| 43>                          ****END OF INPUT****

CARTESIAN COORDINATES (ANGSTROEM)
---------------------------------
  S     -0.858900  -10.528500   70.733100
  C     -1.116300  -11.293000   69.171600
  C     -1.200650  -12.674600   69.363000
  C     -0.898447  -13.104500   70.723400
  C     -0.742032  -12.056800   71.599300
  H     -0.647013  -14.089200   71.001100
  C     -1.450340  -13.721100   68.315800
  H     -2.094010  -13.416500   67.478200
  H     -2.039340  -14.439600   68.853500
  C     -0.202608  -14.377300   67.746500
  H      0.506393  -13.564800   67.432400
  H      0.329472  -14.929200   68.523000
  C     -0.518332  -15.328500   66.583800
  H     -1.394940  -15.929200   66.820200
  H     -0.581688  -14.854900   65.646300
  H      0.234156  -16.084000   66.385900
  S     -1.492040  -11.724300   74.141000
  C     -0.315796  -11.766900   75.489000
  C      0.895978  -12.333100   74.980500
  C      0.907422  -12.563900   73.552400
  C     -0.305087  -12.220600   72.980400
  H      1.780910  -12.502300   75.613000
  C      2.121700  -13.046900   72.784700
  H      1.810820  -13.556700   71.867100
  H      2.580400  -13.619400   73.543600
  C      3.144920  -11.874800   72.463800
  H      3.459420  -11.286600   73.329500
  H      2.540560  -11.108300   71.906700
  C      4.369580  -12.430100   71.700400
  H      4.235730  -13.038600   70.830400
  H      4.918350  -13.105400   72.384200
  H      5.067780  -11.688700   71.422000
  H     -1.424020  -10.799100   68.282200
  H     -0.515488  -11.549100   76.514000

 Total Charge           Charge          ....    0
 Multiplicity           Mult            ....    1
 Number of Electrons    NEL             ....  134
 Basis Dimension        Dim             ....  322

ORBITAL ENERGIES
----------------

  NO   OCC          E(Eh)            E(eV)
   0   2.0000     -88.966717     -2420.9075
   1   2.0000     -88.964563     -2420.8488
   2   2.0000     -10.329800      -281.0882
   3   2.0000     -10.325322      -280.9663
   4   2.0000     -10.323116      -280.9063
   5   2.0000     -10.316279      -280.7202
   6   2.0000     -10.305042      -280.4145
   7   2.0000     -10.304399      -280.3969
   8   2.0000     -10.304240      -280.3926
   9   2.0000     -10.293257      -280.0938
  10   2.0000     -10.293091      -280.0892
  11   2.0000     -10.292828      -280.0821
  12   2.0000     -10.289636      -279.9952
  13   2.0000     -10.287846      -279.9465
  14   2.0000     -10.274430      -279.5815
  15   2.0000     -10.274333      -279.5788
  16   2.0000      -8.080822      -219.8903
  17   2.0000      -8.078922      -219.8386
  18   2.0000      -6.039533      -164.3440
  19   2.0000      -6.037522      -164.2893
  20   2.0000      -6.035279      -164.2283
  21   2.0000      -6.033287      -164.1741
  22   2.0000      -6.031512      -164.1258
  23   2.0000      -6.029795      -164.0791
  24   2.0000      -1.003462       -27.3056
  25   2.0000      -0.978435       -26.6246
  26   2.0000      -0.913257       -24.8510
  27   2.0000      -0.902728       -24.5645
  28   2.0000      -0.868218       -23.6254
  29   2.0000      -0.848856       -23.0985
  30   2.0000      -0.846027       -23.0216
  31   2.0000      -0.813009       -22.1231
  32   2.0000      -0.780354       -21.2345
  33   2.0000      -0.771629       -20.9971
  34   2.0000      -0.707054       -19.2399
  35   2.0000      -0.702864       -19.1259
  36   2.0000      -0.696721       -18.9587
  37   2.0000      -0.667609       -18.1666
  38   2.0000      -0.646861       -17.6020
  39   2.0000      -0.619149       -16.8479
  40   2.0000      -0.590702       -16.0738
  41   2.0000      -0.569669       -15.5015
  42   2.0000      -0.562775       -15.3139
  43   2.0000      -0.558749       -15.2043
  44   2.0000      -0.525917       -14.3109
  45   2.0000      -0.523379       -14.2419
  46   2.0000      -0.518197       -14.1008
  47   2.0000      -0.510479       -13.8908
  48   2.0000      -0.506552       -13.7840
  49   2.0000      -0.505512       -13.7557
  50   2.0000      -0.490329       -13.3425
  51   2.0000      -0.479810       -13.0563
  52   2.0000      -0.473981       -12.8977
  53   2.0000      -0.467627       -12.7248
  54   2.0000      -0.457002       -12.4357
  55   2.0000      -0.449070       -12.2198
  56   2.0000      -0.445648       -12.1267
  57   2.0000      -0.435272       -11.8443
  58   2.0000      -0.433339       -11.7918
  59   2.0000      -0.425459       -11.5773
  60   2.0000      -0.421489       -11.4693
  61   2.0000      -0.412850       -11.2342
  62   2.0000      -0.410876       -11.1805
  63   2.0000      -0.334991        -9.1156
  64   2.0000      -0.329331        -8.9615
  65   2.0000      -0.324831        -8.8391
  66   2.0000      -0.303922        -8.2701
  67   0.0000       0.035467         0.9651
  68   0.0000       0.057812         1.5731
  69   0.0000       0.111405         3.0315
  70   0.0000       0.114926         3.1273
  71   0.0000       0.126582         3.4445

MULLIKEN ATOMIC CHARGES
-----------------------
   0 S :    0.113905
   1 C :   -0.101455
   2 C :   -0.099807
   3 C :    0.040455
   4 C :   -0.121697
   5 H :    0.006234
   6 C :    0.061607
   7 H :    0.023288
   8 H :    0.018668
   9 C :   -0.079242
  10 H :    0.035349
  11 H :    0.021858
  12 C :   -0.023875
  13 H :    0.027258
  14 H :    0.027963
  15 H :    0.021987
  16 S :    0.106483
  17 C :   -0.090781
  18 C :   -0.057146
  19 C :   -0.029239
  20 C :   -0.213131
  21 H :    0.029024
  22 C :    0.107402
  23 H :    0.034825
  24 H :    0.012723
  25 C :   -0.095219
  26 H :    0.029948
  27 H :    0.035113
  28 C :   -0.014700
  29 H :    0.025213
  30 H :    0.018822
  31 H :    0.026257
  32 H :    0.045172
  33 H :    0.056737
Sum of atomic charges:   -0.0000000

LOEWDIN ATOMIC CHARGES
----------------------
   0 S :    0.401820
   1 C :   -0.193062
   2 C :   -0.056693
   3 C :   -0.054620
   4 C :   -0.197954
   5 H :    0.024192
   6 C :   -0.039225
   7 H :    0.030445
   8 H :    0.028734
   9 C :   -0.040879
  10 H :    0.029387
  11 H :    0.021055
  12 C :   -0.066500
  13 H :    0.027022
  14 H :    0.020702
  15 H :    0.027339
  16 S :    0.407253
  17 C :   -0.176041
  18 C :   -0.070969
  19 C :   -0.054869
  20 C :   -0.208952
  21 H :    0.032414
  22 C :   -0.021571
  23 H :    0.034399
  24 H :    0.025577
  25 C :   -0.037739
  26 H :    0.025588
  27 H :    0.026304
  28 C :   -0.067536
  29 H :    0.022749
  30 H :    0.027730
  31 H :    0.021713
  32 H :    0.026319
  33 H :    0.025868

  Mayer bond orders larger than 0.100000
B(  0-S ,  1-C ) :   1.1288 B(  0-S ,  4-C ) :   1.1406 B(  1-C ,  2-C ) :   1.6145
B(  1-C , 32-H ) :   0.9734 B(  2-C ,  3-C ) :   1.2177 B(  2-C ,  6-C ) :   1.0349
B(  3-C ,  4-C ) :   1.5898 B(  3-C ,  5-H ) :   0.9978 B(  4-C , 20-C ) :   1.0126
B(  6-C ,  7-H ) :   0.9471 B(  6-C ,  8-H ) :   0.9286 B(  6-C ,  9-C ) :   1.0639
B(  9-C , 10-H ) :   0.9573 B(  9-C , 11-H ) :   0.9549 B(  9-C , 12-C ) :   1.0792
B( 12-C , 13-H ) :   0.9723 B( 12-C , 14-H ) :   0.9755 B( 12-C , 15-H ) :   0.9726
B( 16-S , 17-C ) :   1.1528 B( 16-S , 20-C ) :   1.1580 B( 17-C , 18-C ) :   1.5854
B( 17-C , 20-C ) :   0.1050 B( 17-C , 33-H ) :   0.9756 B( 18-C , 19-C ) :   1.2511
B( 18-C , 21-H ) :   0.9783 B( 19-C , 20-C ) :   1.5916 B( 19-C , 22-C ) :   1.0405
B( 22-C , 23-H ) :   0.9382 B( 22-C , 24-H ) :   0.9228 B( 22-C , 25-C ) :   1.0576
B( 25-C , 26-H ) :   0.9572 B( 25-C , 27-H ) :   0.9579 B( 25-C , 28-C ) :   1.0717
B( 28-C , 29-H ) :   0.9766 B( 28-C , 30-H ) :   0.9719 B( 28-C , 31-H ) :   0.9743

Dispersion correction           -0.014279302
FINAL SINGLE POINT ENERGY     -1339.875284602985

DIPOLE MOMENT
-------------
                                X             Y             Z
Electronic contribution:    -17.23803      15.16739      17.64553
Nuclear contribution   :     17.68346     -15.61255     -17.91367
                        -----------------------------------------
Total Dipole Moment    :      0.44543      -0.44516      -0.26814
                        -----------------------------------------
Magnitude (a.u.)       :      0.68445
Magnitude (Debye)      :      1.73974

Rotational constants in cm-1:     0.017925     0.008433     0.006881
Rotational constants in MHz :   537.375353   252.811838   206.298761

                             ****ORCA TERMINATED NORMALLY****
TOTAL RUN TIME: 0 days 0 hours 0 minutes 32 seconds 777 msec
