                         Program Version 4.2.1 -  RELEASE  -
|  1> ! wB97X-D3 SP def2-SVP
|  2> %pal
|  3> nprocs 16
|  4> end
|  5>
|  6> * xyz 0 1
|  7> S 	 16.119 	 -15.1706 	 80.6167
|  8> C 	 17.2506 	 -14.709 	 79.388
|  9> C 	 16.6219 	 -14.2339 	 78.2146
| 10> C 	 15.2329 	 -14.236 	 78.3295
| 11> C 	 14.8016 	 -14.7702 	 79.5921
| 12> H 	 14.4986 	 -14.0158 	 77.5857
| 13> C 	 17.2398 	 -13.7203 	 76.924
| 14> H 	 18.2374 	 -13.3859 	 77.1125
| 15> H 	 16.6459 	 -12.909 	 76.5911
| 16> C 	 17.2986 	 -14.741 	 75.7652
| 17> H 	 17.7627 	 -15.6213 	 76.191
| 18> H 	 16.2477 	 -14.9245 	 75.6655
| 19> C 	 18.0107 	 -14.4596 	 74.453
| 20> H 	 18.2266 	 -15.3722 	 73.9485
| 21> H 	 17.3868 	 -13.8574 	 73.7911
| 22> H 	 19.0131 	 -14.1155 	 74.5312
| 23> S 	 13.1994 	 -16.4486 	 80.9819
| 24> C 	 11.5346 	 -16.0685 	 81.3335
| 25> C 	 11.0609 	 -15.0677 	 80.5487
| 26> C 	 12.1572 	 -14.3783 	 79.9017
| 27> C 	 13.4211 	 -14.9743 	 80.1162
| 28> H 	 9.98751 	 -14.82 	 80.6562
| 29> C 	 11.9458 	 -13.171 	 79.0715
| 30> H 	 11.6278 	 -13.5635 	 78.0222
| 31> H 	 12.8422 	 -12.654 	 78.9315
| 32> C 	 10.9045 	 -12.1826 	 79.56
| 33> H 	 11.2861 	 -11.7837 	 80.537
| 34> H 	 9.90456 	 -12.6543 	 79.6338
| 35> C 	 10.7698 	 -11.0123 	 78.5553
| 36> H 	 10.6816 	 -11.387 	 77.5829
| 37> H 	 11.7235 	 -10.5165 	 78.4575
| 38> H 	 9.9594 	 -10.3068 	 78.7848
| 39> H 	 18.2775 	 -14.9043 	 79.5423
| 40> H 	 10.8996 	 -16.5975 	 82.0249
| 41> *
| 42>
| 43>                          ****END OF INPUT****

CARTESIAN COORDINATES (ANGSTROEM)
---------------------------------
  S     16.119000  -15.170600   80.616700
  C     17.250600  -14.709000   79.388000
  C     16.621900  -14.233900   78.214600
  C     15.232900  -14.236000   78.329500
  C     14.801600  -14.770200   79.592100
  H     14.498600  -14.015800   77.585700
  C     17.239800  -13.720300   76.924000
  H     18.237400  -13.385900   77.112500
  H     16.645900  -12.909000   76.591100
  C     17.298600  -14.741000   75.765200
  H     17.762700  -15.621300   76.191000
  H     16.247700  -14.924500   75.665500
  C     18.010700  -14.459600   74.453000
  H     18.226600  -15.372200   73.948500
  H     17.386800  -13.857400   73.791100
  H     19.013100  -14.115500   74.531200
  S     13.199400  -16.448600   80.981900
  C     11.534600  -16.068500   81.333500
  C     11.060900  -15.067700   80.548700
  C     12.157200  -14.378300   79.901700
  C     13.421100  -14.974300   80.116200
  H      9.987510  -14.820000   80.656200
  C     11.945800  -13.171000   79.071500
  H     11.627800  -13.563500   78.022200
  H     12.842200  -12.654000   78.931500
  C     10.904500  -12.182600   79.560000
  H     11.286100  -11.783700   80.537000
  H      9.904560  -12.654300   79.633800
  C     10.769800  -11.012300   78.555300
  H     10.681600  -11.387000   77.582900
  H     11.723500  -10.516500   78.457500
  H      9.959400  -10.306800   78.784800
  H     18.277500  -14.904300   79.542300
  H     10.899600  -16.597500   82.024900

 Total Charge           Charge          ....    0
 Multiplicity           Mult            ....    1
 Number of Electrons    NEL             ....  134
 Basis Dimension        Dim             ....  322

ORBITAL ENERGIES
----------------

  NO   OCC          E(Eh)            E(eV)
   0   2.0000     -88.972419     -2421.0626
   1   2.0000     -88.960622     -2420.7416
   2   2.0000     -10.334690      -281.2212
   3   2.0000     -10.327060      -281.0136
   4   2.0000     -10.313890      -280.6552
   5   2.0000     -10.312261      -280.6109
   6   2.0000     -10.305299      -280.4215
   7   2.0000     -10.304809      -280.4081
   8   2.0000     -10.295423      -280.1527
   9   2.0000     -10.295328      -280.1501
  10   2.0000     -10.289983      -280.0047
  11   2.0000     -10.288500      -279.9643
  12   2.0000     -10.285623      -279.8860
  13   2.0000     -10.281246      -279.7669
  14   2.0000     -10.275237      -279.6034
  15   2.0000     -10.272526      -279.5296
  16   2.0000      -8.087657      -220.0763
  17   2.0000      -8.076291      -219.7671
  18   2.0000      -6.045894      -164.5171
  19   2.0000      -6.041944      -164.4096
  20   2.0000      -6.038820      -164.3246
  21   2.0000      -6.034773      -164.2145
  22   2.0000      -6.030724      -164.1043
  23   2.0000      -6.026955      -164.0018
  24   2.0000      -1.009364       -27.4662
  25   2.0000      -0.987297       -26.8657
  26   2.0000      -0.915536       -24.9130
  27   2.0000      -0.912295       -24.8248
  28   2.0000      -0.869792       -23.6682
  29   2.0000      -0.855969       -23.2921
  30   2.0000      -0.847014       -23.0484
  31   2.0000      -0.815340       -22.1865
  32   2.0000      -0.788483       -21.4557
  33   2.0000      -0.769161       -20.9299
  34   2.0000      -0.706081       -19.2134
  35   2.0000      -0.699181       -19.0257
  36   2.0000      -0.695367       -18.9219
  37   2.0000      -0.656168       -17.8552
  38   2.0000      -0.641794       -17.4641
  39   2.0000      -0.624687       -16.9986
  40   2.0000      -0.598786       -16.2938
  41   2.0000      -0.577162       -15.7054
  42   2.0000      -0.568849       -15.4792
  43   2.0000      -0.563275       -15.3275
  44   2.0000      -0.529147       -14.3988
  45   2.0000      -0.520359       -14.1597
  46   2.0000      -0.516609       -14.0576
  47   2.0000      -0.515172       -14.0186
  48   2.0000      -0.505203       -13.7473
  49   2.0000      -0.497587       -13.5400
  50   2.0000      -0.492561       -13.4033
  51   2.0000      -0.487152       -13.2561
  52   2.0000      -0.476377       -12.9629
  53   2.0000      -0.468035       -12.7359
  54   2.0000      -0.457611       -12.4522
  55   2.0000      -0.451964       -12.2986
  56   2.0000      -0.449933       -12.2433
  57   2.0000      -0.438516       -11.9326
  58   2.0000      -0.431317       -11.7367
  59   2.0000      -0.425167       -11.5694
  60   2.0000      -0.423270       -11.5178
  61   2.0000      -0.414936       -11.2910
  62   2.0000      -0.413071       -11.2402
  63   2.0000      -0.350068        -9.5258
  64   2.0000      -0.337796        -9.1919
  65   2.0000      -0.323967        -8.8156
  66   2.0000      -0.283505        -7.7146
  67   0.0000       0.022911         0.6234
  68   0.0000       0.079154         2.1539
  69   0.0000       0.106796         2.9061
  70   0.0000       0.113740         3.0950
  71   0.0000       0.136214         3.7066

MULLIKEN ATOMIC CHARGES
-----------------------
   0 S :    0.132512
   1 C :   -0.121177
   2 C :   -0.075544
   3 C :    0.017875
   4 C :   -0.164635
   5 H :    0.011893
   6 C :    0.112885
   7 H :    0.003257
   8 H :    0.014261
   9 C :   -0.084223
  10 H :    0.020009
  11 H :    0.012943
  12 C :    0.008289
  13 H :    0.020389
  14 H :    0.034019
  15 H :    0.018278
  16 S :    0.088490
  17 C :   -0.087979
  18 C :   -0.038474
  19 C :   -0.052196
  20 C :   -0.110001
  21 H :    0.038534
  22 C :    0.025249
  23 H :    0.043883
  24 H :    0.007608
  25 C :   -0.101943
  26 H :    0.044323
  27 H :    0.038102
  28 C :   -0.000474
  29 H :   -0.000212
  30 H :    0.012983
  31 H :    0.045515
  32 H :    0.036343
  33 H :    0.049218
Sum of atomic charges:   -0.0000000

LOEWDIN ATOMIC CHARGES
----------------------
   0 S :    0.447717
   1 C :   -0.203229
   2 C :   -0.054638
   3 C :   -0.064693
   4 C :   -0.204203
   5 H :    0.028525
   6 C :   -0.022920
   7 H :    0.021046
   8 H :    0.024152
   9 C :   -0.039489
  10 H :    0.022864
  11 H :    0.020028
  12 C :   -0.062922
  13 H :    0.029458
  14 H :    0.026980
  15 H :    0.023802
  16 S :    0.407199
  17 C :   -0.180158
  18 C :   -0.075517
  19 C :   -0.058963
  20 C :   -0.210869
  21 H :    0.041567
  22 C :   -0.040344
  23 H :    0.040381
  24 H :    0.019705
  25 C :   -0.039860
  26 H :    0.031680
  27 H :    0.023575
  28 C :   -0.063112
  29 H :    0.014988
  30 H :    0.023526
  31 H :    0.029782
  32 H :    0.016914
  33 H :    0.027028

  Mayer bond orders larger than 0.100000
B(  0-S ,  1-C ) :   1.1648 B(  0-S ,  4-C ) :   1.2052 B(  1-C ,  2-C ) :   1.5415
B(  1-C ,  4-C ) :   0.1163 B(  1-C , 32-H ) :   0.9783 B(  2-C ,  3-C ) :   1.2941
B(  2-C ,  6-C ) :   1.0316 B(  3-C ,  4-C ) :   1.4984 B(  3-C ,  5-H ) :   0.9960
B(  4-C , 20-C ) :   1.0231 B(  6-C ,  7-H ) :   0.9325 B(  6-C ,  8-H ) :   0.9401
B(  6-C ,  9-C ) :   1.0584 B(  9-C , 10-H ) :   0.9571 B(  9-C , 11-H ) :   0.9585
B(  9-C , 12-C ) :   1.0913 B( 12-C , 13-H ) :   0.9683 B( 12-C , 14-H ) :   0.9746
B( 12-C , 15-H ) :   0.9677 B( 16-S , 17-C ) :   1.1524 B( 16-S , 20-C ) :   1.1398
B( 17-C , 18-C ) :   1.6327 B( 17-C , 33-H ) :   0.9665 B( 18-C , 19-C ) :   1.2146
B( 18-C , 21-H ) :   0.9840 B( 19-C , 20-C ) :   1.5897 B( 19-C , 22-C ) :   1.0633
B( 22-C , 23-H ) :   0.9198 B( 22-C , 24-H ) :   0.9374 B( 22-C , 25-C ) :   1.0707
B( 25-C , 26-H ) :   0.9569 B( 25-C , 27-H ) :   0.9489 B( 25-C , 28-C ) :   1.0863
B( 28-C , 29-H ) :   0.9678 B( 28-C , 30-H ) :   0.9693 B( 28-C , 31-H ) :   0.9747

Dispersion correction           -0.013195653
FINAL SINGLE POINT ENERGY     -1339.868609702849

DIPOLE MOMENT
-------------
                                X             Y             Z
Electronic contribution:      1.78444     -16.54577      23.45588
Nuclear contribution   :     -1.90211      16.78995     -23.93643
                        -----------------------------------------
Total Dipole Moment    :     -0.11767       0.24418      -0.48055
                        -----------------------------------------
Magnitude (a.u.)       :      0.55172
Magnitude (Debye)      :      1.40237

Rotational constants in cm-1:     0.017356     0.007941     0.006095
Rotational constants in MHz :   520.312401   238.058996   182.720433

                             ****ORCA TERMINATED NORMALLY****
TOTAL RUN TIME: 0 days 0 hours 0 minutes 29 seconds 62 msec
