                         Program Version 4.2.1 -  RELEASE  -
|  1> ! wB97X-D3 SP def2-SVP
|  2> %pal
|  3> nprocs 16
|  4> end
|  5>
|  6> * xyz 0 1
|  7> S 	 36.6206 	 29.6163 	 54.6403
|  8> C 	 36.3461 	 31.1775 	 53.8758
|  9> C 	 35.0052 	 31.4315 	 53.6355
| 10> C 	 34.1783 	 30.3479 	 54.1376
| 11> C 	 34.8668 	 29.2713 	 54.5766
| 12> H 	 33.1472 	 30.4403 	 54.0639
| 13> C 	 34.4846 	 32.6363 	 52.8807
| 14> H 	 35.3303 	 33.0945 	 52.3602
| 15> H 	 34.2693 	 33.3757 	 53.6177
| 16> C 	 33.3445 	 32.4698 	 51.8646
| 17> H 	 32.4964 	 32.1531 	 52.4216
| 18> H 	 33.0936 	 33.3319 	 51.4012
| 19> C 	 33.64 	 31.4556 	 50.6936
| 20> H 	 34.6937 	 31.4564 	 50.4388
| 21> H 	 33.4178 	 30.445 	 50.9563
| 22> H 	 32.9609 	 31.7249 	 49.8429
| 23> S 	 35.3172 	 26.5605 	 54.2306
| 24> C 	 34.3203 	 25.4532 	 55.1035
| 25> C 	 33.2373 	 26.0553 	 55.6947
| 26> C 	 33.1274 	 27.4638 	 55.4136
| 27> C 	 34.2804 	 27.9304 	 54.8074
| 28> H 	 32.6095 	 25.432 	 56.2618
| 29> C 	 32.0248 	 28.3109 	 56.0875
| 30> H 	 31.1909 	 27.6797 	 56.4538
| 31> H 	 31.5002 	 28.9551 	 55.3501
| 32> C 	 32.3871 	 29.1311 	 57.3286
| 33> H 	 33.1913 	 29.847 	 57.2044
| 34> H 	 32.8128 	 28.3702 	 58.031
| 35> C 	 31.178 	 29.7793 	 58.1221
| 36> H 	 31.4689 	 30.2485 	 59.0558
| 37> H 	 30.4158 	 29.0473 	 58.4776
| 38> H 	 30.6833 	 30.4437 	 57.4918
| 39> H 	 37.0814 	 31.7935 	 53.3804
| 40> H 	 34.4619 	 24.3547 	 55.2178
| 41> *
| 42>
| 43>                          ****END OF INPUT****

CARTESIAN COORDINATES (ANGSTROEM)
---------------------------------
  S     36.620600   29.616300   54.640300
  C     36.346100   31.177500   53.875800
  C     35.005200   31.431500   53.635500
  C     34.178300   30.347900   54.137600
  C     34.866800   29.271300   54.576600
  H     33.147200   30.440300   54.063900
  C     34.484600   32.636300   52.880700
  H     35.330300   33.094500   52.360200
  H     34.269300   33.375700   53.617700
  C     33.344500   32.469800   51.864600
  H     32.496400   32.153100   52.421600
  H     33.093600   33.331900   51.401200
  C     33.640000   31.455600   50.693600
  H     34.693700   31.456400   50.438800
  H     33.417800   30.445000   50.956300
  H     32.960900   31.724900   49.842900
  S     35.317200   26.560500   54.230600
  C     34.320300   25.453200   55.103500
  C     33.237300   26.055300   55.694700
  C     33.127400   27.463800   55.413600
  C     34.280400   27.930400   54.807400
  H     32.609500   25.432000   56.261800
  C     32.024800   28.310900   56.087500
  H     31.190900   27.679700   56.453800
  H     31.500200   28.955100   55.350100
  C     32.387100   29.131100   57.328600
  H     33.191300   29.847000   57.204400
  H     32.812800   28.370200   58.031000
  C     31.178000   29.779300   58.122100
  H     31.468900   30.248500   59.055800
  H     30.415800   29.047300   58.477600
  H     30.683300   30.443700   57.491800
  H     37.081400   31.793500   53.380400
  H     34.461900   24.354700   55.217800

 Total Charge           Charge          ....    0
 Multiplicity           Mult            ....    1
 Number of Electrons    NEL             ....  134
 Basis Dimension        Dim             ....  322

ORBITAL ENERGIES
----------------

  NO   OCC          E(Eh)            E(eV)
   0   2.0000     -88.969070     -2420.9715
   1   2.0000     -88.966094     -2420.8905
   2   2.0000     -10.335734      -281.2496
   3   2.0000     -10.333945      -281.2009
   4   2.0000     -10.315555      -280.7005
   5   2.0000     -10.311754      -280.5971
   6   2.0000     -10.311069      -280.5784
   7   2.0000     -10.302224      -280.3378
   8   2.0000     -10.300161      -280.2816
   9   2.0000     -10.291319      -280.0410
  10   2.0000     -10.290387      -280.0157
  11   2.0000     -10.289327      -279.9868
  12   2.0000     -10.289229      -279.9841
  13   2.0000     -10.280921      -279.7581
  14   2.0000     -10.278977      -279.7052
  15   2.0000     -10.277684      -279.6700
  16   2.0000      -8.082735      -219.9424
  17   2.0000      -8.080395      -219.8787
  18   2.0000      -6.041531      -164.3984
  19   2.0000      -6.039008      -164.3298
  20   2.0000      -6.037495      -164.2886
  21   2.0000      -6.034976      -164.2200
  22   2.0000      -6.033143      -164.1702
  23   2.0000      -6.031055      -164.1133
  24   2.0000      -1.002165       -27.2703
  25   2.0000      -0.980808       -26.6891
  26   2.0000      -0.910181       -24.7673
  27   2.0000      -0.901935       -24.5429
  28   2.0000      -0.866796       -23.5867
  29   2.0000      -0.849546       -23.1173
  30   2.0000      -0.842321       -22.9207
  31   2.0000      -0.816820       -22.2268
  32   2.0000      -0.784833       -21.3564
  33   2.0000      -0.774601       -21.0780
  34   2.0000      -0.714439       -19.4409
  35   2.0000      -0.702079       -19.1046
  36   2.0000      -0.690006       -18.7760
  37   2.0000      -0.659726       -17.9521
  38   2.0000      -0.634842       -17.2749
  39   2.0000      -0.630638       -17.1605
  40   2.0000      -0.594614       -16.1803
  41   2.0000      -0.566343       -15.4110
  42   2.0000      -0.556036       -15.1305
  43   2.0000      -0.553858       -15.0712
  44   2.0000      -0.550974       -14.9928
  45   2.0000      -0.522059       -14.2059
  46   2.0000      -0.512561       -13.9475
  47   2.0000      -0.511100       -13.9077
  48   2.0000      -0.497969       -13.5504
  49   2.0000      -0.494000       -13.4424
  50   2.0000      -0.493026       -13.4159
  51   2.0000      -0.479584       -13.0501
  52   2.0000      -0.468389       -12.7455
  53   2.0000      -0.461305       -12.5527
  54   2.0000      -0.457643       -12.4531
  55   2.0000      -0.449398       -12.2287
  56   2.0000      -0.448877       -12.2146
  57   2.0000      -0.439132       -11.9494
  58   2.0000      -0.436878       -11.8881
  59   2.0000      -0.424148       -11.5417
  60   2.0000      -0.422352       -11.4928
  61   2.0000      -0.419894       -11.4259
  62   2.0000      -0.408890       -11.1265
  63   2.0000      -0.353786        -9.6270
  64   2.0000      -0.334918        -9.1136
  65   2.0000      -0.327102        -8.9009
  66   2.0000      -0.288189        -7.8420
  67   0.0000       0.022513         0.6126
  68   0.0000       0.071731         1.9519
  69   0.0000       0.105796         2.8789
  70   0.0000       0.120605         3.2818
  71   0.0000       0.132648         3.6095

MULLIKEN ATOMIC CHARGES
-----------------------
   0 S :    0.110359
   1 C :   -0.115119
   2 C :   -0.119502
   3 C :    0.051218
   4 C :   -0.103583
   5 H :   -0.023991
   6 C :    0.065096
   7 H :    0.010346
   8 H :    0.035271
   9 C :   -0.019985
  10 H :    0.017594
  11 H :    0.006803
  12 C :   -0.062852
  13 H :    0.033738
  14 H :    0.031716
  15 H :    0.041062
  16 S :    0.100339
  17 C :   -0.097336
  18 C :   -0.032031
  19 C :    0.007922
  20 C :   -0.157948
  21 H :   -0.000593
  22 C :    0.030663
  23 H :    0.017824
  24 H :    0.031156
  25 C :   -0.080406
  26 H :    0.041140
  27 H :    0.027840
  28 C :   -0.045435
  29 H :    0.037853
  30 H :    0.027418
  31 H :    0.021460
  32 H :    0.045017
  33 H :    0.066946
Sum of atomic charges:   -0.0000000

LOEWDIN ATOMIC CHARGES
----------------------
   0 S :    0.382863
   1 C :   -0.200170
   2 C :   -0.054789
   3 C :   -0.053500
   4 C :   -0.178155
   5 H :    0.018248
   6 C :   -0.033128
   7 H :    0.029262
   8 H :    0.033224
   9 C :   -0.028008
  10 H :    0.018500
  11 H :    0.012562
  12 C :   -0.061460
  13 H :    0.025181
  14 H :    0.021533
  15 H :    0.033020
  16 S :    0.386910
  17 C :   -0.198026
  18 C :   -0.067061
  19 C :   -0.054418
  20 C :   -0.162342
  21 H :    0.023781
  22 C :   -0.038939
  23 H :    0.033946
  24 H :    0.027343
  25 C :   -0.042124
  26 H :    0.022563
  27 H :    0.028443
  28 C :   -0.063280
  29 H :    0.029422
  30 H :    0.028212
  31 H :    0.012930
  32 H :    0.027761
  33 H :    0.039694

  Mayer bond orders larger than 0.100000
B(  0-S ,  1-C ) :   1.1138 B(  0-S ,  4-C ) :   1.1256 B(  1-C ,  2-C ) :   1.6566
B(  1-C , 32-H ) :   0.9568 B(  2-C ,  3-C ) :   1.2265 B(  2-C ,  6-C ) :   1.0167
B(  3-C ,  4-C ) :   1.5798 B(  3-C ,  5-H ) :   1.0057 B(  4-C , 20-C ) :   1.0609
B(  6-C ,  7-H ) :   0.9383 B(  6-C ,  8-H ) :   0.9317 B(  6-C ,  9-C ) :   1.0832
B(  9-C , 10-H ) :   0.9525 B(  9-C , 11-H ) :   0.9557 B(  9-C , 12-C ) :   1.0644
B( 12-C , 13-H ) :   0.9795 B( 12-C , 14-H ) :   0.9767 B( 12-C , 15-H ) :   0.9790
B( 16-S , 17-C ) :   1.1358 B( 16-S , 20-C ) :   1.1295 B( 17-C , 18-C ) :   1.6524
B( 17-C , 33-H ) :   0.9583 B( 18-C , 19-C ) :   1.2084 B( 18-C , 21-H ) :   0.9961
B( 19-C , 20-C ) :   1.6032 B( 19-C , 22-C ) :   1.0488 B( 22-C , 23-H ) :   0.9379
B( 22-C , 24-H ) :   0.9331 B( 22-C , 25-C ) :   1.0538 B( 25-C , 26-H ) :   0.9586
B( 25-C , 27-H ) :   0.9549 B( 25-C , 28-C ) :   1.0727 B( 28-C , 29-H ) :   0.9756
B( 28-C , 30-H ) :   0.9743 B( 28-C , 31-H ) :   0.9796

Dispersion correction           -0.014434953
FINAL SINGLE POINT ENERGY     -1339.864766999879

DIPOLE MOMENT
-------------
                                X             Y             Z
Electronic contribution:     20.07108     -15.66564      -0.19311
Nuclear contribution   :    -20.65873      15.97725       0.18968
                        -----------------------------------------
Total Dipole Moment    :     -0.58765       0.31162      -0.00342
                        -----------------------------------------
Magnitude (a.u.)       :      0.66517
Magnitude (Debye)      :      1.69072

Rotational constants in cm-1:     0.016039     0.009364     0.007516
Rotational constants in MHz :   480.823864   280.719445   225.328423

                             ****ORCA TERMINATED NORMALLY****
TOTAL RUN TIME: 0 days 0 hours 0 minutes 33 seconds 346 msec
