                         Program Version 4.2.1 -  RELEASE  -
|  1> ! wB97X-D3 SP def2-SVP
|  2> %pal
|  3> nprocs 16
|  4> end
|  5>
|  6> * xyz 0 1
|  7> S 	 -68.3798 	 51.8267 	 125.168
|  8> C 	 -68.0378 	 53.0203 	 126.492
|  9> C 	 -68.8022 	 54.1488 	 126.193
| 10> C 	 -69.1841 	 54.2312 	 124.819
| 11> C 	 -69.0776 	 53.054 	 124.111
| 12> H 	 -69.6747 	 55.1004 	 124.356
| 13> C 	 -68.9308 	 55.3776 	 127.014
| 14> H 	 -69.7476 	 55.9309 	 126.575
| 15> H 	 -68.0279 	 55.9704 	 126.8
| 16> C 	 -69.1083 	 55.1487 	 128.549
| 17> H 	 -69.8182 	 54.3552 	 128.665
| 18> H 	 -68.1047 	 54.9251 	 128.908
| 19> C 	 -69.6497 	 56.3732 	 129.227
| 20> H 	 -68.9016 	 57.139 	 129.065
| 21> H 	 -70.6347 	 56.6934 	 128.804
| 22> H 	 -69.7909 	 56.2346 	 130.26
| 23> S 	 -67.8061 	 52.3093 	 121.682
| 24> C 	 -68.6934 	 52.3574 	 120.211
| 25> C 	 -70.0068 	 52.6723 	 120.479
| 26> C 	 -70.2651 	 53.0991 	 121.805
| 27> C 	 -69.1826 	 52.8259 	 122.638
| 28> H 	 -70.675 	 52.7494 	 119.686
| 29> C 	 -71.6377 	 53.6439 	 122.171
| 30> H 	 -72.3177 	 53.8444 	 121.341
| 31> H 	 -71.4945 	 54.6614 	 122.525
| 32> C 	 -72.4068 	 52.9392 	 123.189
| 33> H 	 -71.8271 	 52.9203 	 124.109
| 34> H 	 -72.6055 	 51.9432 	 122.958
| 35> C 	 -73.6088 	 53.8064 	 123.641
| 36> H 	 -74.0968 	 54.3763 	 122.866
| 37> H 	 -73.0729 	 54.5034 	 124.308
| 38> H 	 -74.1352 	 53.0612 	 124.194
| 39> H 	 -67.6906 	 52.7527 	 127.482
| 40> H 	 -68.3364 	 52.1428 	 119.227
| 41> *
| 42>
| 43>                          ****END OF INPUT****

CARTESIAN COORDINATES (ANGSTROEM)
---------------------------------
  S    -68.379800   51.826700  125.168000
  C    -68.037800   53.020300  126.492000
  C    -68.802200   54.148800  126.193000
  C    -69.184100   54.231200  124.819000
  C    -69.077600   53.054000  124.111000
  H    -69.674700   55.100400  124.356000
  C    -68.930800   55.377600  127.014000
  H    -69.747600   55.930900  126.575000
  H    -68.027900   55.970400  126.800000
  C    -69.108300   55.148700  128.549000
  H    -69.818200   54.355200  128.665000
  H    -68.104700   54.925100  128.908000
  C    -69.649700   56.373200  129.227000
  H    -68.901600   57.139000  129.065000
  H    -70.634700   56.693400  128.804000
  H    -69.790900   56.234600  130.260000
  S    -67.806100   52.309300  121.682000
  C    -68.693400   52.357400  120.211000
  C    -70.006800   52.672300  120.479000
  C    -70.265100   53.099100  121.805000
  C    -69.182600   52.825900  122.638000
  H    -70.675000   52.749400  119.686000
  C    -71.637700   53.643900  122.171000
  H    -72.317700   53.844400  121.341000
  H    -71.494500   54.661400  122.525000
  C    -72.406800   52.939200  123.189000
  H    -71.827100   52.920300  124.109000
  H    -72.605500   51.943200  122.958000
  C    -73.608800   53.806400  123.641000
  H    -74.096800   54.376300  122.866000
  H    -73.072900   54.503400  124.308000
  H    -74.135200   53.061200  124.194000
  H    -67.690600   52.752700  127.482000
  H    -68.336400   52.142800  119.227000

 Total Charge           Charge          ....    0
 Multiplicity           Mult            ....    1
 Number of Electrons    NEL             ....  134
 Basis Dimension        Dim             ....  322

ORBITAL ENERGIES
----------------

  NO   OCC          E(Eh)            E(eV)
   0   2.0000     -88.967564     -2420.9305
   1   2.0000     -88.962099     -2420.7818
   2   2.0000     -10.334713      -281.2218
   3   2.0000     -10.330179      -281.0985
   4   2.0000     -10.319096      -280.7969
   5   2.0000     -10.314018      -280.6587
   6   2.0000     -10.302830      -280.3543
   7   2.0000     -10.302281      -280.3393
   8   2.0000     -10.295025      -280.1419
   9   2.0000     -10.289307      -279.9863
  10   2.0000     -10.286344      -279.9056
  11   2.0000     -10.285585      -279.8850
  12   2.0000     -10.284748      -279.8622
  13   2.0000     -10.276222      -279.6302
  14   2.0000     -10.275409      -279.6081
  15   2.0000     -10.268699      -279.4255
  16   2.0000      -8.082462      -219.9350
  17   2.0000      -8.075745      -219.7522
  18   2.0000      -6.040992      -164.3837
  19   2.0000      -6.036812      -164.2700
  20   2.0000      -6.034479      -164.2065
  21   2.0000      -6.033296      -164.1743
  22   2.0000      -6.030384      -164.0951
  23   2.0000      -6.026325      -163.9846
  24   2.0000      -1.005546       -27.3623
  25   2.0000      -0.983834       -26.7715
  26   2.0000      -0.922453       -25.1012
  27   2.0000      -0.915880       -24.9224
  28   2.0000      -0.868443       -23.6315
  29   2.0000      -0.854514       -23.2525
  30   2.0000      -0.846540       -23.0355
  31   2.0000      -0.815118       -22.1805
  32   2.0000      -0.782793       -21.3009
  33   2.0000      -0.771357       -20.9897
  34   2.0000      -0.712606       -19.3910
  35   2.0000      -0.701947       -19.1010
  36   2.0000      -0.688517       -18.7355
  37   2.0000      -0.662066       -18.0157
  38   2.0000      -0.637539       -17.3483
  39   2.0000      -0.615517       -16.7491
  40   2.0000      -0.603218       -16.4144
  41   2.0000      -0.579916       -15.7803
  42   2.0000      -0.574674       -15.6377
  43   2.0000      -0.568664       -15.4741
  44   2.0000      -0.536659       -14.6032
  45   2.0000      -0.527061       -14.3421
  46   2.0000      -0.520256       -14.1569
  47   2.0000      -0.514198       -13.9920
  48   2.0000      -0.509328       -13.8595
  49   2.0000      -0.499423       -13.5900
  50   2.0000      -0.492818       -13.4103
  51   2.0000      -0.485377       -13.2078
  52   2.0000      -0.475293       -12.9334
  53   2.0000      -0.463219       -12.6048
  54   2.0000      -0.458856       -12.4861
  55   2.0000      -0.451277       -12.2799
  56   2.0000      -0.446365       -12.1462
  57   2.0000      -0.435307       -11.8453
  58   2.0000      -0.432525       -11.7696
  59   2.0000      -0.422596       -11.4994
  60   2.0000      -0.414376       -11.2758
  61   2.0000      -0.411821       -11.2062
  62   2.0000      -0.407954       -11.1010
  63   2.0000      -0.343196        -9.3388
  64   2.0000      -0.331431        -9.0187
  65   2.0000      -0.323619        -8.8061
  66   2.0000      -0.296889        -8.0787
  67   0.0000       0.027118         0.7379
  68   0.0000       0.064852         1.7647
  69   0.0000       0.103089         2.8052
  70   0.0000       0.125380         3.4117
  71   0.0000       0.129650         3.5280

MULLIKEN ATOMIC CHARGES
-----------------------
   0 S :    0.080726
   1 C :   -0.121368
   2 C :   -0.093309
   3 C :    0.010108
   4 C :   -0.151092
   5 H :    0.022486
   6 C :    0.023432
   7 H :    0.011987
   8 H :    0.050947
   9 C :   -0.068858
  10 H :    0.030288
  11 H :    0.034758
  12 C :   -0.020819
  13 H :    0.024341
  14 H :    0.033264
  15 H :    0.026603
  16 S :    0.132173
  17 C :   -0.085090
  18 C :   -0.014257
  19 C :   -0.011585
  20 C :   -0.147406
  21 H :   -0.009435
  22 C :    0.076964
  23 H :    0.010181
  24 H :    0.003629
  25 C :   -0.078317
  26 H :    0.029311
  27 H :    0.017216
  28 C :   -0.026790
  29 H :    0.034416
  30 H :    0.025225
  31 H :    0.037025
  32 H :    0.062216
  33 H :    0.051033
Sum of atomic charges:    0.0000000

LOEWDIN ATOMIC CHARGES
----------------------
   0 S :    0.369685
   1 C :   -0.183384
   2 C :   -0.061186
   3 C :   -0.070885
   4 C :   -0.180300
   5 H :    0.033615
   6 C :   -0.036452
   7 H :    0.024447
   8 H :    0.041316
   9 C :   -0.036114
  10 H :    0.021227
  11 H :    0.025717
  12 C :   -0.059165
  13 H :    0.024718
  14 H :    0.029315
  15 H :    0.019344
  16 S :    0.430706
  17 C :   -0.189776
  18 C :   -0.066545
  19 C :   -0.048337
  20 C :   -0.207314
  21 H :    0.018363
  22 C :   -0.036369
  23 H :    0.029172
  24 H :    0.028871
  25 C :   -0.037979
  26 H :    0.026640
  27 H :    0.011087
  28 C :   -0.053709
  29 H :    0.019026
  30 H :    0.028383
  31 H :    0.028644
  32 H :    0.028025
  33 H :    0.029216

  Mayer bond orders larger than 0.100000
B(  0-S ,  1-C ) :   1.1141 B(  0-S ,  4-C ) :   1.1496 B(  1-C ,  2-C ) :   1.5944
B(  1-C , 32-H ) :   0.9678 B(  2-C ,  3-C ) :   1.2309 B(  2-C ,  6-C ) :   1.0383
B(  3-C ,  4-C ) :   1.5920 B(  3-C ,  5-H ) :   0.9840 B(  4-C , 20-C ) :   1.0157
B(  6-C ,  7-H ) :   0.9438 B(  6-C ,  8-H ) :   0.9315 B(  6-C ,  9-C ) :   1.0547
B(  9-C , 10-H ) :   0.9647 B(  9-C , 11-H ) :   0.9473 B(  9-C , 12-C ) :   1.0994
B( 12-C , 13-H ) :   0.9719 B( 12-C , 14-H ) :   0.9740 B( 12-C , 15-H ) :   0.9722
B( 16-S , 17-C ) :   1.1700 B( 16-S , 20-C ) :   1.1522 B( 17-C , 18-C ) :   1.5815
B( 17-C , 33-H ) :   0.9710 B( 18-C , 19-C ) :   1.2759 B( 18-C , 21-H ) :   0.9977
B( 19-C , 20-C ) :   1.5664 B( 19-C , 22-C ) :   1.0254 B( 22-C , 23-H ) :   0.9362
B( 22-C , 24-H ) :   0.9180 B( 22-C , 25-C ) :   1.0834 B( 25-C , 26-H ) :   0.9515
B( 25-C , 27-H ) :   0.9618 B( 25-C , 28-C ) :   1.0445 B( 28-C , 29-H ) :   0.9779
B( 28-C , 30-H ) :   0.9835 B( 28-C , 31-H ) :   0.9750

Dispersion correction           -0.014106736
FINAL SINGLE POINT ENERGY     -1339.856046214430

DIPOLE MOMENT
-------------
                                X             Y             Z
Electronic contribution:     18.59192     -16.90745     -16.25133
Nuclear contribution   :    -18.99798      17.46027      16.36817
                        -----------------------------------------
Total Dipole Moment    :     -0.40606       0.55282       0.11683
                        -----------------------------------------
Magnitude (a.u.)       :      0.69581
Magnitude (Debye)      :      1.76860

Rotational constants in cm-1:     0.020028     0.008126     0.006444
Rotational constants in MHz :   600.437250   243.619655   193.184464

                             ****ORCA TERMINATED NORMALLY****
TOTAL RUN TIME: 0 days 0 hours 0 minutes 34 seconds 81 msec
