                         Program Version 4.2.1 -  RELEASE  -
|  1> ! wB97X-D3 SP def2-SVP
|  2> %pal
|  3> nprocs 16
|  4> end
|  5>
|  6> * xyz 0 1
|  7> S 	 -90.8835 	 41.9338 	 119.67
|  8> C 	 -90.0248 	 40.453 	 120.086
|  9> C 	 -90.1395 	 39.5914 	 119.069
| 10> C 	 -90.8065 	 40.0918 	 117.901
| 11> C 	 -91.2225 	 41.4126 	 118.064
| 12> H 	 -90.9451 	 39.5626 	 116.955
| 13> C 	 -89.607 	 38.1968 	 119.061
| 14> H 	 -88.5288 	 38.2803 	 119.161
| 15> H 	 -89.6926 	 37.7616 	 118.066
| 16> C 	 -90.2337 	 37.3451 	 120.171
| 17> H 	 -89.7136 	 37.347 	 121.197
| 18> H 	 -91.1834 	 37.6915 	 120.476
| 19> C 	 -90.4471 	 35.8682 	 119.79
| 20> H 	 -90.9795 	 35.8949 	 118.825
| 21> H 	 -89.4814 	 35.3008 	 119.739
| 22> H 	 -91.0555 	 35.3273 	 120.473
| 23> S 	 -92.4419 	 43.7898 	 117.684
| 24> C 	 -93.2124 	 44.2622 	 116.22
| 25> C 	 -93.0564 	 43.2033 	 115.293
| 26> C 	 -92.3584 	 42.0587 	 115.814
| 27> C 	 -91.9302 	 42.2906 	 117.067
| 28> H 	 -93.4422 	 43.3165 	 114.311
| 29> C 	 -92.2124 	 40.8062 	 114.928
| 30> H 	 -91.2156 	 40.3786 	 114.833
| 31> H 	 -92.2817 	 41.2654 	 113.907
| 32> C 	 -93.2637 	 39.7172 	 115.061
| 33> H 	 -94.2339 	 40.141 	 114.821
| 34> H 	 -93.3579 	 39.3375 	 116.101
| 35> C 	 -92.9179 	 38.4341 	 114.31
| 36> H 	 -92.0916 	 37.9245 	 114.799
| 37> H 	 -92.8591 	 38.6083 	 113.218
| 38> H 	 -93.689 	 37.6788 	 114.426
| 39> H 	 -89.7677 	 40.1953 	 121.077
| 40> H 	 -93.5194 	 45.2861 	 116.039
| 41> *
| 42>
| 43>                          ****END OF INPUT****

CARTESIAN COORDINATES (ANGSTROEM)
---------------------------------
  S    -90.883500   41.933800  119.670000
  C    -90.024800   40.453000  120.086000
  C    -90.139500   39.591400  119.069000
  C    -90.806500   40.091800  117.901000
  C    -91.222500   41.412600  118.064000
  H    -90.945100   39.562600  116.955000
  C    -89.607000   38.196800  119.061000
  H    -88.528800   38.280300  119.161000
  H    -89.692600   37.761600  118.066000
  C    -90.233700   37.345100  120.171000
  H    -89.713600   37.347000  121.197000
  H    -91.183400   37.691500  120.476000
  C    -90.447100   35.868200  119.790000
  H    -90.979500   35.894900  118.825000
  H    -89.481400   35.300800  119.739000
  H    -91.055500   35.327300  120.473000
  S    -92.441900   43.789800  117.684000
  C    -93.212400   44.262200  116.220000
  C    -93.056400   43.203300  115.293000
  C    -92.358400   42.058700  115.814000
  C    -91.930200   42.290600  117.067000
  H    -93.442200   43.316500  114.311000
  C    -92.212400   40.806200  114.928000
  H    -91.215600   40.378600  114.833000
  H    -92.281700   41.265400  113.907000
  C    -93.263700   39.717200  115.061000
  H    -94.233900   40.141000  114.821000
  H    -93.357900   39.337500  116.101000
  C    -92.917900   38.434100  114.310000
  H    -92.091600   37.924500  114.799000
  H    -92.859100   38.608300  113.218000
  H    -93.689000   37.678800  114.426000
  H    -89.767700   40.195300  121.077000
  H    -93.519400   45.286100  116.039000

 Total Charge           Charge          ....    0
 Multiplicity           Mult            ....    1
 Number of Electrons    NEL             ....  134
 Basis Dimension        Dim             ....  322

ORBITAL ENERGIES
----------------

  NO   OCC          E(Eh)            E(eV)
   0   2.0000     -88.964429     -2420.8452
   1   2.0000     -88.963152     -2420.8104
   2   2.0000     -10.333643      -281.1927
   3   2.0000     -10.326553      -280.9998
   4   2.0000     -10.319715      -280.8137
   5   2.0000     -10.304573      -280.4017
   6   2.0000     -10.304003      -280.3862
   7   2.0000     -10.298830      -280.2454
   8   2.0000     -10.297863      -280.2191
   9   2.0000     -10.294483      -280.1271
  10   2.0000     -10.292667      -280.0777
  11   2.0000     -10.289633      -279.9952
  12   2.0000     -10.288857      -279.9740
  13   2.0000     -10.288245      -279.9574
  14   2.0000     -10.282551      -279.8024
  15   2.0000     -10.279211      -279.7116
  16   2.0000      -8.080863      -219.8915
  17   2.0000      -8.078246      -219.8203
  18   2.0000      -6.039218      -164.3355
  19   2.0000      -6.036852      -164.2711
  20   2.0000      -6.034990      -164.2204
  21   2.0000      -6.032676      -164.1575
  22   2.0000      -6.031835      -164.1346
  23   2.0000      -6.028924      -164.0553
  24   2.0000      -1.015850       -27.6427
  25   2.0000      -0.992250       -27.0005
  26   2.0000      -0.914403       -24.8822
  27   2.0000      -0.912132       -24.8204
  28   2.0000      -0.867979       -23.6189
  29   2.0000      -0.858897       -23.3718
  30   2.0000      -0.844337       -22.9756
  31   2.0000      -0.816054       -22.2060
  32   2.0000      -0.785152       -21.3651
  33   2.0000      -0.776891       -21.1403
  34   2.0000      -0.707984       -19.2652
  35   2.0000      -0.701446       -19.0873
  36   2.0000      -0.690564       -18.7912
  37   2.0000      -0.675611       -18.3843
  38   2.0000      -0.640117       -17.4185
  39   2.0000      -0.619070       -16.8457
  40   2.0000      -0.601454       -16.3664
  41   2.0000      -0.569915       -15.5082
  42   2.0000      -0.568498       -15.4696
  43   2.0000      -0.559204       -15.2167
  44   2.0000      -0.527239       -14.3469
  45   2.0000      -0.526738       -14.3333
  46   2.0000      -0.522501       -14.2180
  47   2.0000      -0.519968       -14.1491
  48   2.0000      -0.509392       -13.8613
  49   2.0000      -0.500880       -13.6296
  50   2.0000      -0.494334       -13.4515
  51   2.0000      -0.489216       -13.3123
  52   2.0000      -0.476163       -12.9571
  53   2.0000      -0.466730       -12.7004
  54   2.0000      -0.458552       -12.4778
  55   2.0000      -0.449112       -12.2210
  56   2.0000      -0.443622       -12.0716
  57   2.0000      -0.437973       -11.9179
  58   2.0000      -0.432731       -11.7752
  59   2.0000      -0.432543       -11.7701
  60   2.0000      -0.415676       -11.3111
  61   2.0000      -0.408973       -11.1287
  62   2.0000      -0.405089       -11.0230
  63   2.0000      -0.361897        -9.8477
  64   2.0000      -0.337024        -9.1709
  65   2.0000      -0.325951        -8.8696
  66   2.0000      -0.289793        -7.8857
  67   0.0000       0.023066         0.6277
  68   0.0000       0.090603         2.4654
  69   0.0000       0.097680         2.6580
  70   0.0000       0.122982         3.3465
  71   0.0000       0.127534         3.4704

MULLIKEN ATOMIC CHARGES
-----------------------
   0 S :    0.083770
   1 C :   -0.099145
   2 C :   -0.091848
   3 C :   -0.017109
   4 C :   -0.088172
   5 H :   -0.000737
   6 C :    0.103284
   7 H :    0.040185
   8 H :    0.012443
   9 C :   -0.088026
  10 H :    0.033368
  11 H :    0.023098
  12 C :   -0.067454
  13 H :    0.032624
  14 H :    0.040276
  15 H :    0.025437
  16 S :    0.095404
  17 C :   -0.096384
  18 C :   -0.033444
  19 C :   -0.069753
  20 C :   -0.082426
  21 H :    0.008792
  22 C :    0.025883
  23 H :    0.029736
  24 H :    0.018870
  25 C :   -0.053396
  26 H :    0.024313
  27 H :    0.032180
  28 C :   -0.045675
  29 H :    0.030361
  30 H :    0.039980
  31 H :    0.026444
  32 H :    0.038064
  33 H :    0.069057
Sum of atomic charges:    0.0000000

LOEWDIN ATOMIC CHARGES
----------------------
   0 S :    0.402283
   1 C :   -0.190769
   2 C :   -0.060171
   3 C :   -0.078788
   4 C :   -0.183827
   5 H :    0.029964
   6 C :   -0.031378
   7 H :    0.038764
   8 H :    0.028534
   9 C :   -0.046905
  10 H :    0.030956
  11 H :    0.017820
  12 C :   -0.066143
  13 H :    0.025173
  14 H :    0.028478
  15 H :    0.019447
  16 S :    0.436630
  17 C :   -0.198814
  18 C :   -0.062293
  19 C :   -0.065414
  20 C :   -0.199143
  21 H :    0.023855
  22 C :   -0.039125
  23 H :    0.027115
  24 H :    0.036964
  25 C :   -0.044290
  26 H :    0.023502
  27 H :    0.028616
  28 C :   -0.067694
  29 H :    0.025902
  30 H :    0.027385
  31 H :    0.027739
  32 H :    0.023449
  33 H :    0.032178

  Mayer bond orders larger than 0.100000
B(  0-S ,  1-C ) :   1.1080 B(  0-S ,  4-C ) :   1.1730 B(  1-C ,  2-C ) :   1.6312
B(  1-C , 32-H ) :   0.9758 B(  2-C ,  3-C ) :   1.2448 B(  2-C ,  6-C ) :   1.0257
B(  3-C ,  4-C ) :   1.5602 B(  3-C ,  5-H ) :   0.9888 B(  4-C , 20-C ) :   1.0338
B(  6-C ,  7-H ) :   0.9299 B(  6-C ,  8-H ) :   0.9495 B(  6-C ,  9-C ) :   1.0328
B(  9-C , 10-H ) :   0.9488 B(  9-C , 11-H ) :   0.9673 B(  9-C , 12-C ) :   1.0926
B( 12-C , 13-H ) :   0.9771 B( 12-C , 14-H ) :   0.9758 B( 12-C , 15-H ) :   0.9753
B( 16-S , 17-C ) :   1.1734 B( 16-S , 20-C ) :   1.1588 B( 17-C , 18-C ) :   1.5690
B( 17-C , 33-H ) :   0.9716 B( 18-C , 19-C ) :   1.2672 B( 18-C , 21-H ) :   0.9934
B( 19-C , 20-C ) :   1.6130 B( 19-C , 22-C ) :   1.0190 B( 22-C , 23-H ) :   0.9431
B( 22-C , 24-H ) :   0.9257 B( 22-C , 25-C ) :   1.0602 B( 25-C , 26-H ) :   0.9503
B( 25-C , 27-H ) :   0.9573 B( 25-C , 28-C ) :   1.0854 B( 28-C , 29-H ) :   0.9726
B( 28-C , 30-H ) :   0.9737 B( 28-C , 31-H ) :   0.9697

Dispersion correction           -0.013912507
FINAL SINGLE POINT ENERGY     -1339.876872505362

DIPOLE MOMENT
-------------
                                X             Y             Z
Electronic contribution:     -0.25986      31.23153       8.74443
Nuclear contribution   :      0.15612     -31.78834      -9.11643
                        -----------------------------------------
Total Dipole Moment    :     -0.10374      -0.55681      -0.37200
                        -----------------------------------------
Magnitude (a.u.)       :      0.67762
Magnitude (Debye)      :      1.72239

Rotational constants in cm-1:     0.018309     0.009141     0.006338
Rotational constants in MHz :   548.887345   274.029824   190.002053

                             ****ORCA TERMINATED NORMALLY****
TOTAL RUN TIME: 0 days 0 hours 0 minutes 31 seconds 546 msec
