                         Program Version 4.2.1 -  RELEASE  -
|  1> ! wB97X-D3 SP def2-SVP
|  2> %pal
|  3> nprocs 16
|  4> end
|  5>
|  6> * xyz 0 1
|  7> S 	 -10.02 	 -5.40168 	 86.5053
|  8> C 	 -9.77675 	 -4.86913 	 88.1794
|  9> C 	 -10.2051 	 -5.87461 	 89.0859
| 10> C 	 -10.4041 	 -7.0997 	 88.4638
| 11> C 	 -10.3005 	 -6.99524 	 87.123
| 12> H 	 -10.6916 	 -7.98708 	 89.0369
| 13> C 	 -10.2102 	 -5.78735 	 90.6102
| 14> H 	 -9.21712 	 -5.54251 	 90.9263
| 15> H 	 -10.4336 	 -6.81674 	 90.9812
| 16> C 	 -11.1334 	 -4.61086 	 91.0109
| 17> H 	 -10.6652 	 -3.6125 	 90.6635
| 18> H 	 -11.949 	 -4.71379 	 90.3827
| 19> C 	 -11.502 	 -4.57441 	 92.4673
| 20> H 	 -12.3963 	 -3.90436 	 92.6623
| 21> H 	 -11.755 	 -5.52389 	 92.8722
| 22> H 	 -10.6561 	 -4.14723 	 93.0556
| 23> S 	 -12.1413 	 -7.91188 	 85.3004
| 24> C 	 -11.8913 	 -9.42526 	 84.5416
| 25> C 	 -10.6293 	 -9.96561 	 84.7556
| 26> C 	 -9.95847 	 -9.24203 	 85.7838
| 27> C 	 -10.6165 	 -8.07634 	 86.2023
| 28> H 	 -10.3455 	 -10.8574 	 84.1732
| 29> C 	 -8.52628 	 -9.56091 	 86.1179
| 30> H 	 -8.52461 	 -9.2412 	 87.1988
| 31> H 	 -7.92142 	 -8.82027 	 85.5745
| 32> C 	 -8.08245 	 -11.0524 	 85.7871
| 33> H 	 -7.97204 	 -11.2161 	 84.7144
| 34> H 	 -8.88528 	 -11.7177 	 86.1673
| 35> C 	 -6.78277 	 -11.4363 	 86.4125
| 36> H 	 -6.47403 	 -12.442 	 86.1314
| 37> H 	 -6.73788 	 -11.3618 	 87.474
| 38> H 	 -5.88605 	 -10.881 	 86.0563
| 39> H 	 -9.56675 	 -3.89655 	 88.5142
| 40> H 	 -12.6232 	 -9.96005 	 83.9291
| 41> *
| 42>
| 43>                          ****END OF INPUT****

CARTESIAN COORDINATES (ANGSTROEM)
---------------------------------
  S    -10.020000   -5.401680   86.505300
  C     -9.776750   -4.869130   88.179400
  C    -10.205100   -5.874610   89.085900
  C    -10.404100   -7.099700   88.463800
  C    -10.300500   -6.995240   87.123000
  H    -10.691600   -7.987080   89.036900
  C    -10.210200   -5.787350   90.610200
  H     -9.217120   -5.542510   90.926300
  H    -10.433600   -6.816740   90.981200
  C    -11.133400   -4.610860   91.010900
  H    -10.665200   -3.612500   90.663500
  H    -11.949000   -4.713790   90.382700
  C    -11.502000   -4.574410   92.467300
  H    -12.396300   -3.904360   92.662300
  H    -11.755000   -5.523890   92.872200
  H    -10.656100   -4.147230   93.055600
  S    -12.141300   -7.911880   85.300400
  C    -11.891300   -9.425260   84.541600
  C    -10.629300   -9.965610   84.755600
  C     -9.958470   -9.242030   85.783800
  C    -10.616500   -8.076340   86.202300
  H    -10.345500  -10.857400   84.173200
  C     -8.526280   -9.560910   86.117900
  H     -8.524610   -9.241200   87.198800
  H     -7.921420   -8.820270   85.574500
  C     -8.082450  -11.052400   85.787100
  H     -7.972040  -11.216100   84.714400
  H     -8.885280  -11.717700   86.167300
  C     -6.782770  -11.436300   86.412500
  H     -6.474030  -12.442000   86.131400
  H     -6.737880  -11.361800   87.474000
  H     -5.886050  -10.881000   86.056300
  H     -9.566750   -3.896550   88.514200
  H    -12.623200   -9.960050   83.929100

 Total Charge           Charge          ....    0
 Multiplicity           Mult            ....    1
 Number of Electrons    NEL             ....  134
 Basis Dimension        Dim             ....  322

ORBITAL ENERGIES
----------------

  NO   OCC          E(Eh)            E(eV)
   0   2.0000     -88.971795     -2421.0456
   1   2.0000     -88.962274     -2420.7865
   2   2.0000     -10.323350      -280.9126
   3   2.0000     -10.320432      -280.8332
   4   2.0000     -10.312058      -280.6054
   5   2.0000     -10.311929      -280.6019
   6   2.0000     -10.300910      -280.3020
   7   2.0000     -10.297110      -280.1986
   8   2.0000     -10.292999      -280.0867
   9   2.0000     -10.292686      -280.0782
  10   2.0000     -10.292415      -280.0709
  11   2.0000     -10.290262      -280.0123
  12   2.0000     -10.287050      -279.9249
  13   2.0000     -10.286351      -279.9058
  14   2.0000     -10.280628      -279.7501
  15   2.0000     -10.273431      -279.5543
  16   2.0000      -8.086123      -220.0346
  17   2.0000      -8.077303      -219.7946
  18   2.0000      -6.044526      -164.4799
  19   2.0000      -6.040851      -164.3799
  20   2.0000      -6.036858      -164.2713
  21   2.0000      -6.035635      -164.2380
  22   2.0000      -6.031809      -164.1339
  23   2.0000      -6.028213      -164.0360
  24   2.0000      -1.008372       -27.4392
  25   2.0000      -0.983330       -26.7578
  26   2.0000      -0.913646       -24.8616
  27   2.0000      -0.903960       -24.5980
  28   2.0000      -0.864497       -23.5242
  29   2.0000      -0.857034       -23.3211
  30   2.0000      -0.851538       -23.1715
  31   2.0000      -0.812046       -22.0969
  32   2.0000      -0.780333       -21.2339
  33   2.0000      -0.763648       -20.7799
  34   2.0000      -0.709677       -19.3113
  35   2.0000      -0.704113       -19.1599
  36   2.0000      -0.691677       -18.8215
  37   2.0000      -0.646864       -17.6021
  38   2.0000      -0.639500       -17.4017
  39   2.0000      -0.622996       -16.9526
  40   2.0000      -0.586161       -15.9502
  41   2.0000      -0.566732       -15.4216
  42   2.0000      -0.563473       -15.3329
  43   2.0000      -0.563082       -15.3222
  44   2.0000      -0.526320       -14.3219
  45   2.0000      -0.523283       -14.2393
  46   2.0000      -0.518018       -14.0960
  47   2.0000      -0.508829       -13.8460
  48   2.0000      -0.500475       -13.6186
  49   2.0000      -0.497128       -13.5275
  50   2.0000      -0.491453       -13.3731
  51   2.0000      -0.480959       -13.0876
  52   2.0000      -0.471184       -12.8216
  53   2.0000      -0.463764       -12.6197
  54   2.0000      -0.462807       -12.5936
  55   2.0000      -0.453984       -12.3535
  56   2.0000      -0.443794       -12.0762
  57   2.0000      -0.436694       -11.8830
  58   2.0000      -0.426287       -11.5999
  59   2.0000      -0.421516       -11.4700
  60   2.0000      -0.421121       -11.4593
  61   2.0000      -0.416701       -11.3390
  62   2.0000      -0.413088       -11.2407
  63   2.0000      -0.342045        -9.3075
  64   2.0000      -0.327199        -8.9035
  65   2.0000      -0.325139        -8.8475
  66   2.0000      -0.290494        -7.9047
  67   0.0000       0.039389         1.0718
  68   0.0000       0.052269         1.4223
  69   0.0000       0.108955         2.9648
  70   0.0000       0.124482         3.3873
  71   0.0000       0.134893         3.6706

MULLIKEN ATOMIC CHARGES
-----------------------
   0 S :    0.130699
   1 C :   -0.095746
   2 C :   -0.114622
   3 C :    0.031137
   4 C :   -0.162317
   5 H :    0.022948
   6 C :    0.078629
   7 H :    0.032511
   8 H :    0.025492
   9 C :   -0.098979
  10 H :    0.037356
  11 H :    0.018978
  12 C :   -0.029451
  13 H :    0.040130
  14 H :    0.023991
  15 H :    0.035342
  16 S :    0.111993
  17 C :   -0.093454
  18 C :   -0.063811
  19 C :   -0.042190
  20 C :   -0.173113
  21 H :    0.034750
  22 C :    0.045897
  23 H :    0.036091
  24 H :    0.050249
  25 C :   -0.090043
  26 H :    0.038930
  27 H :    0.040894
  28 C :   -0.020177
  29 H :    0.020493
  30 H :    0.025403
  31 H :    0.022862
  32 H :    0.022726
  33 H :    0.056402
Sum of atomic charges:   -0.0000000

LOEWDIN ATOMIC CHARGES
----------------------
   0 S :    0.416839
   1 C :   -0.193212
   2 C :   -0.053615
   3 C :   -0.065228
   4 C :   -0.201894
   5 H :    0.039380
   6 C :   -0.026254
   7 H :    0.028840
   8 H :    0.031158
   9 C :   -0.042615
  10 H :    0.033588
  11 H :    0.012968
  12 C :   -0.069551
  13 H :    0.034284
  14 H :    0.018656
  15 H :    0.030236
  16 S :    0.409932
  17 C :   -0.196356
  18 C :   -0.085503
  19 C :   -0.058046
  20 C :   -0.204336
  21 H :    0.038827
  22 C :   -0.037315
  23 H :    0.039191
  24 H :    0.038041
  25 C :   -0.043014
  26 H :    0.027657
  27 H :    0.030486
  28 C :   -0.069199
  29 H :    0.025527
  30 H :    0.019686
  31 H :    0.028620
  32 H :    0.012101
  33 H :    0.030122

  Mayer bond orders larger than 0.100000
B(  0-S ,  1-C ) :   1.1323 B(  0-S ,  4-C ) :   1.1691 B(  1-C ,  2-C ) :   1.5827
B(  1-C ,  4-C ) :   0.1067 B(  1-C , 32-H ) :   0.9750 B(  2-C ,  3-C ) :   1.2714
B(  2-C ,  6-C ) :   1.0203 B(  3-C ,  4-C ) :   1.5646 B(  3-C ,  5-H ) :   0.9922
B(  4-C , 20-C ) :   1.0123 B(  6-C ,  7-H ) :   0.9374 B(  6-C ,  8-H ) :   0.9499
B(  6-C ,  9-C ) :   1.0387 B(  9-C , 10-H ) :   0.9504 B(  9-C , 11-H ) :   0.9667
B(  9-C , 12-C ) :   1.0875 B( 12-C , 13-H ) :   0.9732 B( 12-C , 14-H ) :   0.9747
B( 12-C , 15-H ) :   0.9710 B( 16-S , 17-C ) :   1.1816 B( 16-S , 20-C ) :   1.1374
B( 17-C , 18-C ) :   1.5944 B( 17-C , 20-C ) :   0.1054 B( 17-C , 33-H ) :   0.9597
B( 18-C , 19-C ) :   1.2443 B( 18-C , 21-H ) :   0.9854 B( 19-C , 20-C ) :   1.5960
B( 19-C , 22-C ) :   1.0332 B( 22-C , 23-H ) :   0.9346 B( 22-C , 24-H ) :   0.9333
B( 22-C , 25-C ) :   1.0608 B( 25-C , 26-H ) :   0.9442 B( 25-C , 27-H ) :   0.9591
B( 25-C , 28-C ) :   1.0984 B( 28-C , 29-H ) :   0.9690 B( 28-C , 30-H ) :   0.9750
B( 28-C , 31-H ) :   0.9678

Dispersion correction           -0.013451009
FINAL SINGLE POINT ENERGY     -1339.862672699421

DIPOLE MOMENT
-------------
                                X             Y             Z
Electronic contribution:    -10.89179       7.18049     -18.88999
Nuclear contribution   :     11.08828      -7.45259      19.23456
                        -----------------------------------------
Total Dipole Moment    :      0.19649      -0.27210       0.34456
                        -----------------------------------------
Magnitude (a.u.)       :      0.48101
Magnitude (Debye)      :      1.22264

Rotational constants in cm-1:     0.020193     0.007071     0.006056
Rotational constants in MHz :   605.381500   211.994515   181.551116

                             ****ORCA TERMINATED NORMALLY****
TOTAL RUN TIME: 0 days 0 hours 0 minutes 32 seconds 253 msec
