                         Program Version 4.2.1 -  RELEASE  -
|  1> ! wB97X-D3 SP def2-SVP
|  2> %pal
|  3> nprocs 16
|  4> end
|  5>
|  6> * xyz 0 1
|  7> S 	 -35.1311 	 54.5765 	 100.955
|  8> C 	 -36.4787 	 53.4952 	 100.935
|  9> C 	 -37.4589 	 53.9057 	 101.844
| 10> C 	 -37.0821 	 55.065 	 102.609
| 11> C 	 -35.9183 	 55.6164 	 102.166
| 12> H 	 -37.6129 	 55.5793 	 103.389
| 13> C 	 -38.7584 	 53.1985 	 102.114
| 14> H 	 -39.4028 	 53.0666 	 101.138
| 15> H 	 -39.4092 	 53.7285 	 102.791
| 16> C 	 -38.5342 	 51.7726 	 102.687
| 17> H 	 -37.8031 	 51.2317 	 102.138
| 18> H 	 -38.1572 	 51.9331 	 103.685
| 19> C 	 -39.7865 	 50.9829 	 102.77
| 20> H 	 -40.0055 	 50.6853 	 101.763
| 21> H 	 -39.6091 	 50.0663 	 103.315
| 22> H 	 -40.571 	 51.5549 	 103.255
| 23> S 	 -33.7447 	 57.0724 	 103.089
| 24> C 	 -33.9249 	 58.7621 	 103.009
| 25> C 	 -35.1196 	 59.1601 	 102.517
| 26> C 	 -35.9334 	 58.1176 	 102.138
| 27> C 	 -35.4396 	 56.9057 	 102.523
| 28> H 	 -35.3107 	 60.2343 	 102.249
| 29> C 	 -37.2733 	 58.3329 	 101.404
| 30> H 	 -37.5952 	 59.3549 	 101.568
| 31> H 	 -38.1015 	 57.8507 	 101.876
| 32> C 	 -37.2743 	 58.1634 	 99.8623
| 33> H 	 -37.0052 	 57.176 	 99.5445
| 34> H 	 -36.5863 	 58.9131 	 99.4133
| 35> C 	 -38.6829 	 58.3732 	 99.2493
| 36> H 	 -39.4681 	 57.6749 	 99.7218
| 37> H 	 -38.6238 	 58.1179 	 98.1731
| 38> H 	 -38.9811 	 59.3375 	 99.5361
| 39> H 	 -36.6078 	 52.7593 	 100.154
| 40> H 	 -33.1717 	 59.4605 	 103.231
| 41> *
| 42>
| 43>                          ****END OF INPUT****

CARTESIAN COORDINATES (ANGSTROEM)
---------------------------------
  S    -35.131100   54.576500  100.955000
  C    -36.478700   53.495200  100.935000
  C    -37.458900   53.905700  101.844000
  C    -37.082100   55.065000  102.609000
  C    -35.918300   55.616400  102.166000
  H    -37.612900   55.579300  103.389000
  C    -38.758400   53.198500  102.114000
  H    -39.402800   53.066600  101.138000
  H    -39.409200   53.728500  102.791000
  C    -38.534200   51.772600  102.687000
  H    -37.803100   51.231700  102.138000
  H    -38.157200   51.933100  103.685000
  C    -39.786500   50.982900  102.770000
  H    -40.005500   50.685300  101.763000
  H    -39.609100   50.066300  103.315000
  H    -40.571000   51.554900  103.255000
  S    -33.744700   57.072400  103.089000
  C    -33.924900   58.762100  103.009000
  C    -35.119600   59.160100  102.517000
  C    -35.933400   58.117600  102.138000
  C    -35.439600   56.905700  102.523000
  H    -35.310700   60.234300  102.249000
  C    -37.273300   58.332900  101.404000
  H    -37.595200   59.354900  101.568000
  H    -38.101500   57.850700  101.876000
  C    -37.274300   58.163400   99.862300
  H    -37.005200   57.176000   99.544500
  H    -36.586300   58.913100   99.413300
  C    -38.682900   58.373200   99.249300
  H    -39.468100   57.674900   99.721800
  H    -38.623800   58.117900   98.173100
  H    -38.981100   59.337500   99.536100
  H    -36.607800   52.759300  100.154000
  H    -33.171700   59.460500  103.231000

 Total Charge           Charge          ....    0
 Multiplicity           Mult            ....    1
 Number of Electrons    NEL             ....  134
 Basis Dimension        Dim             ....  322

ORBITAL ENERGIES
----------------

  NO   OCC          E(Eh)            E(eV)
   0   2.0000     -88.965365     -2420.8707
   1   2.0000     -88.964079     -2420.8357
   2   2.0000     -10.321676      -280.8671
   3   2.0000     -10.318785      -280.7884
   4   2.0000     -10.313435      -280.6428
   5   2.0000     -10.308694      -280.5138
   6   2.0000     -10.302845      -280.3547
   7   2.0000     -10.298667      -280.2410
   8   2.0000     -10.296114      -280.1715
   9   2.0000     -10.290378      -280.0154
  10   2.0000     -10.289812      -280.0000
  11   2.0000     -10.286984      -279.9231
  12   2.0000     -10.284757      -279.8625
  13   2.0000     -10.280585      -279.7489
  14   2.0000     -10.274870      -279.5934
  15   2.0000     -10.269768      -279.4546
  16   2.0000      -8.080666      -219.8861
  17   2.0000      -8.078691      -219.8324
  18   2.0000      -6.038921      -164.3274
  19   2.0000      -6.037183      -164.2801
  20   2.0000      -6.035280      -164.2283
  21   2.0000      -6.033144      -164.1702
  22   2.0000      -6.031473      -164.1247
  23   2.0000      -6.029547      -164.0723
  24   2.0000      -1.012682       -27.5565
  25   2.0000      -0.987231       -26.8639
  26   2.0000      -0.914087       -24.8736
  27   2.0000      -0.905073       -24.6283
  28   2.0000      -0.875012       -23.8103
  29   2.0000      -0.856100       -23.2957
  30   2.0000      -0.850926       -23.1549
  31   2.0000      -0.813948       -22.1486
  32   2.0000      -0.782149       -21.2834
  33   2.0000      -0.766136       -20.8476
  34   2.0000      -0.706196       -19.2166
  35   2.0000      -0.696120       -18.9424
  36   2.0000      -0.691262       -18.8102
  37   2.0000      -0.660731       -17.9794
  38   2.0000      -0.647947       -17.6315
  39   2.0000      -0.615280       -16.7426
  40   2.0000      -0.602114       -16.3844
  41   2.0000      -0.578707       -15.7474
  42   2.0000      -0.564115       -15.3504
  43   2.0000      -0.556399       -15.1404
  44   2.0000      -0.528710       -14.3869
  45   2.0000      -0.522593       -14.2205
  46   2.0000      -0.518379       -14.1058
  47   2.0000      -0.509241       -13.8572
  48   2.0000      -0.501516       -13.6469
  49   2.0000      -0.501231       -13.6392
  50   2.0000      -0.495233       -13.4760
  51   2.0000      -0.480707       -13.0807
  52   2.0000      -0.478925       -13.0322
  53   2.0000      -0.460992       -12.5442
  54   2.0000      -0.455081       -12.3834
  55   2.0000      -0.449423       -12.2294
  56   2.0000      -0.441557       -12.0154
  57   2.0000      -0.433454       -11.7949
  58   2.0000      -0.430304       -11.7092
  59   2.0000      -0.426733       -11.6120
  60   2.0000      -0.422893       -11.5075
  61   2.0000      -0.417007       -11.3473
  62   2.0000      -0.410578       -11.1724
  63   2.0000      -0.342296        -9.3143
  64   2.0000      -0.338908        -9.2222
  65   2.0000      -0.326313        -8.8794
  66   2.0000      -0.292812        -7.9678
  67   0.0000       0.033172         0.9027
  68   0.0000       0.058913         1.6031
  69   0.0000       0.113058         3.0765
  70   0.0000       0.127647         3.4734
  71   0.0000       0.131977         3.5913

MULLIKEN ATOMIC CHARGES
-----------------------
   0 S :    0.112958
   1 C :   -0.121386
   2 C :   -0.063804
   3 C :    0.039466
   4 C :   -0.132506
   5 H :    0.012051
   6 C :    0.015777
   7 H :    0.037577
   8 H :    0.014334
   9 C :   -0.073046
  10 H :    0.020318
  11 H :    0.019832
  12 C :   -0.004060
  13 H :    0.019307
  14 H :    0.028432
  15 H :    0.028456
  16 S :    0.108403
  17 C :   -0.057551
  18 C :   -0.044011
  19 C :   -0.007681
  20 C :   -0.209151
  21 H :    0.030593
  22 C :    0.088954
  23 H :   -0.005330
  24 H :    0.010395
  25 C :   -0.066345
  26 H :    0.031042
  27 H :    0.034747
  28 C :   -0.060382
  29 H :    0.034722
  30 H :    0.051927
  31 H :    0.016476
  32 H :    0.054287
  33 H :    0.035198
Sum of atomic charges:   -0.0000000

LOEWDIN ATOMIC CHARGES
----------------------
   0 S :    0.399504
   1 C :   -0.205189
   2 C :   -0.060614
   3 C :   -0.055911
   4 C :   -0.184870
   5 H :    0.033199
   6 C :   -0.037657
   7 H :    0.036760
   8 H :    0.023057
   9 C :   -0.037273
  10 H :    0.016943
  11 H :    0.021104
  12 C :   -0.058622
  13 H :    0.021756
  14 H :    0.026825
  15 H :    0.024171
  16 S :    0.407727
  17 C :   -0.182544
  18 C :   -0.084113
  19 C :   -0.046553
  20 C :   -0.193291
  21 H :    0.040680
  22 C :   -0.028661
  23 H :    0.026270
  24 H :    0.024833
  25 C :   -0.033728
  26 H :    0.018524
  27 H :    0.027603
  28 C :   -0.065212
  29 H :    0.031277
  30 H :    0.033090
  31 H :    0.011850
  32 H :    0.028122
  33 H :    0.020944

  Mayer bond orders larger than 0.100000
B(  0-S ,  1-C ) :   1.1378 B(  0-S ,  4-C ) :   1.1343 B(  1-C ,  2-C ) :   1.6027
B(  1-C , 32-H ) :   0.9691 B(  2-C ,  3-C ) :   1.2184 B(  2-C ,  6-C ) :   1.0328
B(  3-C ,  4-C ) :   1.5968 B(  3-C ,  5-H ) :   0.9979 B(  4-C , 20-C ) :   1.0579
B(  6-C ,  7-H ) :   0.9410 B(  6-C ,  8-H ) :   0.9439 B(  6-C ,  9-C ) :   1.0574
B(  9-C , 10-H ) :   0.9597 B(  9-C , 11-H ) :   0.9513 B(  9-C , 12-C ) :   1.0957
B( 12-C , 13-H ) :   0.9726 B( 12-C , 14-H ) :   0.9695 B( 12-C , 15-H ) :   0.9709
B( 16-S , 17-C ) :   1.1732 B( 16-S , 20-C ) :   1.1239 B( 17-C , 18-C ) :   1.6030
B( 17-C , 33-H ) :   0.9656 B( 18-C , 19-C ) :   1.2833 B( 18-C , 21-H ) :   0.9774
B( 19-C , 20-C ) :   1.5992 B( 19-C , 22-C ) :   1.0257 B( 22-C , 23-H ) :   0.9284
B( 22-C , 24-H ) :   0.9371 B( 22-C , 25-C ) :   1.0599 B( 25-C , 26-H ) :   0.9596
B( 25-C , 27-H ) :   0.9541 B( 25-C , 28-C ) :   1.0772 B( 28-C , 29-H ) :   0.9746
B( 28-C , 30-H ) :   0.9744 B( 28-C , 31-H ) :   0.9765

Dispersion correction           -0.014372364
FINAL SINGLE POINT ENERGY     -1339.875846018621

DIPOLE MOMENT
-------------
                                X             Y             Z
Electronic contribution:     26.62499       5.75144       6.07289
Nuclear contribution   :    -27.14633      -5.57239      -6.22796
                        -----------------------------------------
Total Dipole Moment    :     -0.52134       0.17905      -0.15507
                        -----------------------------------------
Magnitude (a.u.)       :      0.57263
Magnitude (Debye)      :      1.45550

Rotational constants in cm-1:     0.019993     0.008164     0.006743
Rotational constants in MHz :   599.368310   244.741033   202.163761

                             ****ORCA TERMINATED NORMALLY****
TOTAL RUN TIME: 0 days 0 hours 0 minutes 30 seconds 464 msec
