                         Program Version 4.2.1 -  RELEASE  -
|  1> ! wB97X-D3 SP def2-SVP
|  2> %pal
|  3> nprocs 16
|  4> end
|  5>
|  6> * xyz 0 1
|  7> S 	 11.3059 	 -27.3185 	 83.3136
|  8> C 	 10.5965 	 -27.186 	 84.9111
|  9> C 	 9.9339 	 -25.9822 	 85.1175
| 10> C 	 9.85939 	 -25.1715 	 83.8773
| 11> C 	 10.6755 	 -25.6727 	 82.8879
| 12> H 	 9.24423 	 -24.2766 	 83.7063
| 13> C 	 9.19437 	 -25.6094 	 86.3601
| 14> H 	 9.16608 	 -24.4811 	 86.3266
| 15> H 	 9.83563 	 -25.871 	 87.2443
| 16> C 	 7.87611 	 -26.3259 	 86.6555
| 17> H 	 7.24054 	 -26.31 	 85.7564
| 18> H 	 7.9546 	 -27.338 	 86.9417
| 19> C 	 7.0855 	 -25.6553 	 87.8378
| 20> H 	 6.8099 	 -24.6356 	 87.5403
| 21> H 	 6.195 	 -26.2087 	 87.9952
| 22> H 	 7.7542 	 -25.6154 	 88.7028
| 23> S 	 10.8273 	 -26.0783 	 80.1322
| 24> C 	 11.0997 	 -24.8038 	 79.1828
| 25> C 	 11.1908 	 -23.6085 	 79.8367
| 26> C 	 11.0134 	 -23.7133 	 81.2401
| 27> C 	 10.8746 	 -25.0646 	 81.6049
| 28> H 	 11.4392 	 -22.7637 	 79.2182
| 29> C 	 11.0682 	 -22.564 	 82.2057
| 30> H 	 11.846 	 -21.8737 	 81.8446
| 31> H 	 11.4416 	 -22.8837 	 83.2118
| 32> C 	 9.84218 	 -21.6876 	 82.329
| 33> H 	 9.90861 	 -21.0278 	 83.1773
| 34> H 	 8.98078 	 -22.2129 	 82.5507
| 35> C 	 9.52066 	 -20.7439 	 81.1889
| 36> H 	 10.3934 	 -20.2019 	 80.8059
| 37> H 	 8.67485 	 -20.0912 	 81.3576
| 38> H 	 9.24405 	 -21.2771 	 80.2797
| 39> H 	 10.8436 	 -27.8502 	 85.7606
| 40> H 	 11.2959 	 -24.8342 	 78.1272
| 41> *
| 42>
| 43>                          ****END OF INPUT****

CARTESIAN COORDINATES (ANGSTROEM)
---------------------------------
  S     11.305900  -27.318500   83.313600
  C     10.596500  -27.186000   84.911100
  C      9.933900  -25.982200   85.117500
  C      9.859390  -25.171500   83.877300
  C     10.675500  -25.672700   82.887900
  H      9.244230  -24.276600   83.706300
  C      9.194370  -25.609400   86.360100
  H      9.166080  -24.481100   86.326600
  H      9.835630  -25.871000   87.244300
  C      7.876110  -26.325900   86.655500
  H      7.240540  -26.310000   85.756400
  H      7.954600  -27.338000   86.941700
  C      7.085500  -25.655300   87.837800
  H      6.809900  -24.635600   87.540300
  H      6.195000  -26.208700   87.995200
  H      7.754200  -25.615400   88.702800
  S     10.827300  -26.078300   80.132200
  C     11.099700  -24.803800   79.182800
  C     11.190800  -23.608500   79.836700
  C     11.013400  -23.713300   81.240100
  C     10.874600  -25.064600   81.604900
  H     11.439200  -22.763700   79.218200
  C     11.068200  -22.564000   82.205700
  H     11.846000  -21.873700   81.844600
  H     11.441600  -22.883700   83.211800
  C      9.842180  -21.687600   82.329000
  H      9.908610  -21.027800   83.177300
  H      8.980780  -22.212900   82.550700
  C      9.520660  -20.743900   81.188900
  H     10.393400  -20.201900   80.805900
  H      8.674850  -20.091200   81.357600
  H      9.244050  -21.277100   80.279700
  H     10.843600  -27.850200   85.760600
  H     11.295900  -24.834200   78.127200

 Total Charge           Charge          ....    0
 Multiplicity           Mult            ....    1
 Number of Electrons    NEL             ....  134
 Basis Dimension        Dim             ....  322

ORBITAL ENERGIES
----------------

  NO   OCC          E(Eh)            E(eV)
   0   2.0000     -88.966272     -2420.8953
   1   2.0000     -88.964639     -2420.8509
   2   2.0000     -10.331512      -281.1347
   3   2.0000     -10.325220      -280.9635
   4   2.0000     -10.316124      -280.7160
   5   2.0000     -10.306410      -280.4517
   6   2.0000     -10.304237      -280.3925
   7   2.0000     -10.303756      -280.3795
   8   2.0000     -10.299766      -280.2709
   9   2.0000     -10.297910      -280.2204
  10   2.0000     -10.295122      -280.1445
  11   2.0000     -10.286499      -279.9099
  12   2.0000     -10.285649      -279.8867
  13   2.0000     -10.278736      -279.6986
  14   2.0000     -10.278583      -279.6945
  15   2.0000     -10.274642      -279.5872
  16   2.0000      -8.081928      -219.9204
  17   2.0000      -8.079978      -219.8674
  18   2.0000      -6.040039      -164.3578
  19   2.0000      -6.038710      -164.3216
  20   2.0000      -6.036089      -164.2503
  21   2.0000      -6.034793      -164.2151
  22   2.0000      -6.032913      -164.1639
  23   2.0000      -6.030406      -164.0957
  24   2.0000      -1.012859       -27.5613
  25   2.0000      -0.980808       -26.6891
  26   2.0000      -0.918795       -25.0017
  27   2.0000      -0.908995       -24.7350
  28   2.0000      -0.873045       -23.7568
  29   2.0000      -0.857163       -23.3246
  30   2.0000      -0.844494       -22.9798
  31   2.0000      -0.812875       -22.1195
  32   2.0000      -0.789266       -21.4770
  33   2.0000      -0.767185       -20.8762
  34   2.0000      -0.713260       -19.4088
  35   2.0000      -0.702227       -19.1086
  36   2.0000      -0.696510       -18.9530
  37   2.0000      -0.660024       -17.9602
  38   2.0000      -0.633361       -17.2346
  39   2.0000      -0.617285       -16.7972
  40   2.0000      -0.600540       -16.3415
  41   2.0000      -0.565381       -15.3848
  42   2.0000      -0.562987       -15.3197
  43   2.0000      -0.552053       -15.0221
  44   2.0000      -0.549722       -14.9587
  45   2.0000      -0.529003       -14.3949
  46   2.0000      -0.519499       -14.1363
  47   2.0000      -0.506930       -13.7943
  48   2.0000      -0.502480       -13.6732
  49   2.0000      -0.497214       -13.5299
  50   2.0000      -0.494254       -13.4493
  51   2.0000      -0.482939       -13.1414
  52   2.0000      -0.473790       -12.8925
  53   2.0000      -0.461755       -12.5650
  54   2.0000      -0.456598       -12.4247
  55   2.0000      -0.452452       -12.3119
  56   2.0000      -0.449072       -12.2199
  57   2.0000      -0.444893       -12.1062
  58   2.0000      -0.436698       -11.8832
  59   2.0000      -0.422905       -11.5078
  60   2.0000      -0.419206       -11.4072
  61   2.0000      -0.414094       -11.2681
  62   2.0000      -0.410946       -11.1824
  63   2.0000      -0.356147        -9.6912
  64   2.0000      -0.334426        -9.1002
  65   2.0000      -0.325484        -8.8569
  66   2.0000      -0.283849        -7.7239
  67   0.0000       0.025205         0.6859
  68   0.0000       0.074981         2.0403
  69   0.0000       0.106493         2.8978
  70   0.0000       0.120077         3.2675
  71   0.0000       0.133009         3.6194

MULLIKEN ATOMIC CHARGES
-----------------------
   0 S :    0.097557
   1 C :   -0.118942
   2 C :   -0.089569
   3 C :   -0.002920
   4 C :   -0.127469
   5 H :    0.026023
   6 C :    0.023150
   7 H :    0.033705
   8 H :    0.029265
   9 C :   -0.058840
  10 H :    0.029806
  11 H :    0.022404
  12 C :   -0.041041
  13 H :    0.028586
  14 H :    0.033244
  15 H :    0.031888
  16 S :    0.130658
  17 C :   -0.070887
  18 C :   -0.058396
  19 C :    0.002938
  20 C :   -0.172839
  21 H :    0.007273
  22 C :    0.040266
  23 H :    0.022137
  24 H :    0.044351
  25 C :   -0.014383
  26 H :    0.019290
  27 H :    0.005112
  28 C :   -0.059197
  29 H :    0.020137
  30 H :    0.035744
  31 H :    0.019811
  32 H :    0.062638
  33 H :    0.048502
Sum of atomic charges:    0.0000000

LOEWDIN ATOMIC CHARGES
----------------------
   0 S :    0.369579
   1 C :   -0.200933
   2 C :   -0.063612
   3 C :   -0.060667
   4 C :   -0.171998
   5 H :    0.036538
   6 C :   -0.046219
   7 H :    0.036166
   8 H :    0.036373
   9 C :   -0.035362
  10 H :    0.023913
  11 H :    0.018429
  12 C :   -0.056543
  13 H :    0.023610
  14 H :    0.021651
  15 H :    0.024115
  16 S :    0.451503
  17 C :   -0.224693
  18 C :   -0.082505
  19 C :   -0.046154
  20 C :   -0.193935
  21 H :    0.029237
  22 C :   -0.034887
  23 H :    0.034860
  24 H :    0.039885
  25 C :   -0.038672
  26 H :    0.027079
  27 H :    0.011434
  28 C :   -0.068541
  29 H :    0.023290
  30 H :    0.028043
  31 H :    0.022476
  32 H :    0.036054
  33 H :    0.030487

  Mayer bond orders larger than 0.100000
B(  0-S ,  1-C ) :   1.1155 B(  0-S ,  4-C ) :   1.1149 B(  1-C ,  2-C ) :   1.6501
B(  1-C , 32-H ) :   0.9594 B(  2-C ,  3-C ) :   1.1860 B(  2-C ,  6-C ) :   1.0431
B(  3-C ,  4-C ) :   1.6013 B(  3-C ,  5-H ) :   0.9845 B(  4-C , 20-C ) :   1.0922
B(  6-C ,  7-H ) :   0.9440 B(  6-C ,  8-H ) :   0.9300 B(  6-C ,  9-C ) :   1.0616
B(  9-C , 10-H ) :   0.9588 B(  9-C , 11-H ) :   0.9542 B(  9-C , 12-C ) :   1.0775
B( 12-C , 13-H ) :   0.9790 B( 12-C , 14-H ) :   0.9755 B( 12-C , 15-H ) :   0.9763
B( 16-S , 17-C ) :   1.1978 B( 16-S , 20-C ) :   1.1430 B( 17-C , 18-C ) :   1.5912
B( 17-C , 33-H ) :   0.9599 B( 18-C , 19-C ) :   1.2497 B( 18-C , 21-H ) :   0.9960
B( 19-C , 20-C ) :   1.5574 B( 19-C , 22-C ) :   1.0468 B( 22-C , 23-H ) :   0.9324
B( 22-C , 24-H ) :   0.9305 B( 22-C , 25-C ) :   1.0748 B( 25-C , 26-H ) :   0.9497
B( 25-C , 27-H ) :   0.9438 B( 25-C , 28-C ) :   1.0888 B( 28-C , 29-H ) :   0.9718
B( 28-C , 30-H ) :   0.9711 B( 28-C , 31-H ) :   0.9697

Dispersion correction           -0.014083177
FINAL SINGLE POINT ENERGY     -1339.877325398837

DIPOLE MOMENT
-------------
                                X             Y             Z
Electronic contribution:     14.48920     -19.51974     -17.12929
Nuclear contribution   :    -14.73313      20.02714      17.36891
                        -----------------------------------------
Total Dipole Moment    :     -0.24393       0.50740       0.23962
                        -----------------------------------------
Magnitude (a.u.)       :      0.61186
Magnitude (Debye)      :      1.55522

Rotational constants in cm-1:     0.018638     0.008352     0.006210
Rotational constants in MHz :   558.762772   250.375410   186.183416

                             ****ORCA TERMINATED NORMALLY****
TOTAL RUN TIME: 0 days 0 hours 0 minutes 33 seconds 399 msec
