                         Program Version 4.2.1 -  RELEASE  -
|  1> ! wB97X-D3 SP def2-SVP
|  2> %pal
|  3> nprocs 16
|  4> end
|  5>
|  6> * xyz 0 1
|  7> S 	 -38.6494 	 54.5673 	 111.785
|  8> C 	 -39.733 	 54.109 	 113.096
|  9> C 	 -40.0061 	 52.7277 	 113.057
| 10> C 	 -39.3093 	 52.0608 	 112.038
| 11> C 	 -38.5257 	 52.9095 	 111.229
| 12> H 	 -39.2424 	 51.0469 	 111.705
| 13> C 	 -41.0178 	 52.0251 	 113.956
| 14> H 	 -41.3076 	 52.6189 	 114.843
| 15> H 	 -40.5222 	 51.175 	 114.429
| 16> C 	 -42.3329 	 51.6461 	 113.352
| 17> H 	 -42.8962 	 52.6012 	 113.217
| 18> H 	 -42.1433 	 51.3454 	 112.34
| 19> C 	 -42.9956 	 50.5555 	 114.302
| 20> H 	 -44.0856 	 50.4379 	 114.368
| 21> H 	 -42.7392 	 49.6382 	 113.839
| 22> H 	 -42.6427 	 50.6412 	 115.318
| 23> S 	 -36.5415 	 51.4484 	 110.032
| 24> C 	 -36.646 	 51.164 	 108.256
| 25> C 	 -37.7274 	 51.8606 	 107.748
| 26> C 	 -38.4297 	 52.663 	 108.743
| 27> C 	 -37.8652 	 52.5581 	 109.978
| 28> H 	 -38.0189 	 51.8007 	 106.718
| 29> C 	 -39.7116 	 53.3655 	 108.333
| 30> H 	 -39.6029 	 53.5088 	 107.251
| 31> H 	 -39.7995 	 54.2904 	 108.878
| 32> C 	 -40.9487 	 52.4589 	 108.536
| 33> H 	 -41.8416 	 53.1109 	 108.345
| 34> H 	 -40.9403 	 52.0861 	 109.581
| 35> C 	 -41.0927 	 51.231 	 107.645
| 36> H 	 -40.3305 	 50.4359 	 107.892
| 37> H 	 -40.9687 	 51.4606 	 106.572
| 38> H 	 -42.0914 	 50.8435 	 107.857
| 39> H 	 -40.2041 	 54.7908 	 113.835
| 40> H 	 -36.1197 	 50.5469 	 107.592
| 41> *
| 42>
| 43>                          ****END OF INPUT****

CARTESIAN COORDINATES (ANGSTROEM)
---------------------------------
  S    -38.649400   54.567300  111.785000
  C    -39.733000   54.109000  113.096000
  C    -40.006100   52.727700  113.057000
  C    -39.309300   52.060800  112.038000
  C    -38.525700   52.909500  111.229000
  H    -39.242400   51.046900  111.705000
  C    -41.017800   52.025100  113.956000
  H    -41.307600   52.618900  114.843000
  H    -40.522200   51.175000  114.429000
  C    -42.332900   51.646100  113.352000
  H    -42.896200   52.601200  113.217000
  H    -42.143300   51.345400  112.340000
  C    -42.995600   50.555500  114.302000
  H    -44.085600   50.437900  114.368000
  H    -42.739200   49.638200  113.839000
  H    -42.642700   50.641200  115.318000
  S    -36.541500   51.448400  110.032000
  C    -36.646000   51.164000  108.256000
  C    -37.727400   51.860600  107.748000
  C    -38.429700   52.663000  108.743000
  C    -37.865200   52.558100  109.978000
  H    -38.018900   51.800700  106.718000
  C    -39.711600   53.365500  108.333000
  H    -39.602900   53.508800  107.251000
  H    -39.799500   54.290400  108.878000
  C    -40.948700   52.458900  108.536000
  H    -41.841600   53.110900  108.345000
  H    -40.940300   52.086100  109.581000
  C    -41.092700   51.231000  107.645000
  H    -40.330500   50.435900  107.892000
  H    -40.968700   51.460600  106.572000
  H    -42.091400   50.843500  107.857000
  H    -40.204100   54.790800  113.835000
  H    -36.119700   50.546900  107.592000

 Total Charge           Charge          ....    0
 Multiplicity           Mult            ....    1
 Number of Electrons    NEL             ....  134
 Basis Dimension        Dim             ....  322

ORBITAL ENERGIES
----------------

  NO   OCC          E(Eh)            E(eV)
   0   2.0000     -88.970810     -2421.0188
   1   2.0000     -88.968945     -2420.9681
   2   2.0000     -10.330519      -281.1077
   3   2.0000     -10.322219      -280.8818
   4   2.0000     -10.321215      -280.8545
   5   2.0000     -10.320148      -280.8255
   6   2.0000     -10.305812      -280.4354
   7   2.0000     -10.300917      -280.3022
   8   2.0000     -10.295349      -280.1507
   9   2.0000     -10.295142      -280.1450
  10   2.0000     -10.290294      -280.0131
  11   2.0000     -10.290032      -280.0060
  12   2.0000     -10.289619      -279.9948
  13   2.0000     -10.289077      -279.9800
  14   2.0000     -10.281842      -279.7832
  15   2.0000     -10.281701      -279.7793
  16   2.0000      -8.084642      -219.9943
  17   2.0000      -8.082906      -219.9471
  18   2.0000      -6.042979      -164.4378
  19   2.0000      -6.041672      -164.4023
  20   2.0000      -6.039127      -164.3330
  21   2.0000      -6.037470      -164.2879
  22   2.0000      -6.035785      -164.2421
  23   2.0000      -6.033473      -164.1791
  24   2.0000      -1.006369       -27.3847
  25   2.0000      -0.981337       -26.7035
  26   2.0000      -0.913949       -24.8698
  27   2.0000      -0.907082       -24.6830
  28   2.0000      -0.870013       -23.6743
  29   2.0000      -0.849047       -23.1037
  30   2.0000      -0.843867       -22.9628
  31   2.0000      -0.814537       -22.1647
  32   2.0000      -0.783533       -21.3210
  33   2.0000      -0.772045       -21.0084
  34   2.0000      -0.709898       -19.3173
  35   2.0000      -0.700924       -19.0731
  36   2.0000      -0.682755       -18.5787
  37   2.0000      -0.668874       -18.2010
  38   2.0000      -0.646565       -17.5939
  39   2.0000      -0.617310       -16.7979
  40   2.0000      -0.589790       -16.0490
  41   2.0000      -0.571877       -15.5616
  42   2.0000      -0.557816       -15.1790
  43   2.0000      -0.554349       -15.0846
  44   2.0000      -0.544849       -14.8261
  45   2.0000      -0.523355       -14.2412
  46   2.0000      -0.522867       -14.2279
  47   2.0000      -0.507890       -13.8204
  48   2.0000      -0.503025       -13.6880
  49   2.0000      -0.497733       -13.5440
  50   2.0000      -0.487162       -13.2564
  51   2.0000      -0.477317       -12.9885
  52   2.0000      -0.473937       -12.8965
  53   2.0000      -0.468691       -12.7537
  54   2.0000      -0.457546       -12.4505
  55   2.0000      -0.447294       -12.1715
  56   2.0000      -0.442448       -12.0396
  57   2.0000      -0.440748       -11.9934
  58   2.0000      -0.435584       -11.8528
  59   2.0000      -0.425956       -11.5908
  60   2.0000      -0.422166       -11.4877
  61   2.0000      -0.411840       -11.2067
  62   2.0000      -0.406940       -11.0734
  63   2.0000      -0.338623        -9.2144
  64   2.0000      -0.335688        -9.1345
  65   2.0000      -0.328311        -8.9338
  66   2.0000      -0.300868        -8.1870
  67   0.0000       0.035825         0.9748
  68   0.0000       0.058036         1.5793
  69   0.0000       0.112260         3.0548
  70   0.0000       0.119736         3.2582
  71   0.0000       0.126531         3.4431

MULLIKEN ATOMIC CHARGES
-----------------------
   0 S :    0.118134
   1 C :   -0.128308
   2 C :   -0.070172
   3 C :    0.064134
   4 C :   -0.210254
   5 H :    0.005647
   6 C :    0.023012
   7 H :    0.016964
   8 H :    0.030979
   9 C :   -0.049803
  10 H :    0.030686
  11 H :    0.022150
  12 C :   -0.045428
  13 H :    0.032667
  14 H :    0.030773
  15 H :    0.038690
  16 S :    0.108036
  17 C :   -0.059342
  18 C :   -0.040810
  19 C :   -0.059750
  20 C :   -0.166139
  21 H :    0.014575
  22 C :    0.130466
  23 H :    0.016256
  24 H :    0.024274
  25 C :   -0.098758
  26 H :    0.039464
  27 H :    0.042121
  28 C :   -0.074696
  29 H :    0.048020
  30 H :    0.029735
  31 H :    0.040991
  32 H :    0.061840
  33 H :    0.033846
Sum of atomic charges:    0.0000000

LOEWDIN ATOMIC CHARGES
----------------------
   0 S :    0.413586
   1 C :   -0.204240
   2 C :   -0.064347
   3 C :   -0.060617
   4 C :   -0.194092
   5 H :    0.029944
   6 C :   -0.039087
   7 H :    0.029646
   8 H :    0.028833
   9 C :   -0.037544
  10 H :    0.027141
  11 H :    0.016541
  12 C :   -0.063399
  13 H :    0.028439
  14 H :    0.026795
  15 H :    0.025015
  16 S :    0.399833
  17 C :   -0.166927
  18 C :   -0.063755
  19 C :   -0.050813
  20 C :   -0.221191
  21 H :    0.026716
  22 C :   -0.027706
  23 H :    0.029918
  24 H :    0.026859
  25 C :   -0.042478
  26 H :    0.028755
  27 H :    0.028422
  28 C :   -0.073571
  29 H :    0.030584
  30 H :    0.021568
  31 H :    0.030041
  32 H :    0.037617
  33 H :    0.023516

  Mayer bond orders larger than 0.100000
B(  0-S ,  1-C ) :   1.1507 B(  0-S ,  4-C ) :   1.1715 B(  1-C ,  2-C ) :   1.5853
B(  1-C ,  4-C ) :   0.1078 B(  1-C , 32-H ) :   0.9645 B(  2-C ,  3-C ) :   1.2456
B(  2-C ,  6-C ) :   1.0235 B(  3-C ,  4-C ) :   1.5566 B(  3-C ,  5-H ) :   0.9973
B(  4-C , 20-C ) :   1.0011 B(  6-C ,  7-H ) :   0.9384 B(  6-C ,  8-H ) :   0.9457
B(  6-C ,  9-C ) :   1.0525 B(  9-C , 10-H ) :   0.9557 B(  9-C , 11-H ) :   0.9692
B(  9-C , 12-C ) :   1.0396 B( 12-C , 13-H ) :   0.9769 B( 12-C , 14-H ) :   0.9769
B( 12-C , 15-H ) :   0.9791 B( 16-S , 17-C ) :   1.1310 B( 16-S , 20-C ) :   1.1263
B( 17-C , 18-C ) :   1.6416 B( 17-C , 33-H ) :   0.9707 B( 18-C , 19-C ) :   1.2328
B( 18-C , 21-H ) :   0.9821 B( 19-C , 20-C ) :   1.6237 B( 19-C , 22-C ) :   1.0397
B( 22-C , 23-H ) :   0.9303 B( 22-C , 24-H ) :   0.9259 B( 22-C , 25-C ) :   1.0710
B( 25-C , 26-H ) :   0.9567 B( 25-C , 27-H ) :   0.9507 B( 25-C , 28-C ) :   1.0819
B( 28-C , 29-H ) :   0.9697 B( 28-C , 30-H ) :   0.9736 B( 28-C , 31-H ) :   0.9718

Dispersion correction           -0.015650567
FINAL SINGLE POINT ENERGY     -1339.874594406323

DIPOLE MOMENT
-------------
                                X             Y             Z
Electronic contribution:     26.27570       9.92323      -0.61342
Nuclear contribution   :    -26.94274     -10.24477       0.43435
                        -----------------------------------------
Total Dipole Moment    :     -0.66703      -0.32153      -0.17907
                        -----------------------------------------
Magnitude (a.u.)       :      0.76183
Magnitude (Debye)      :      1.93642

Rotational constants in cm-1:     0.018569     0.008885     0.007727
Rotational constants in MHz :   556.693311   266.370367   231.635499

                             ****ORCA TERMINATED NORMALLY****
TOTAL RUN TIME: 0 days 0 hours 0 minutes 31 seconds 382 msec
