                         Program Version 4.2.1 -  RELEASE  -
|  1> ! wB97X-D3 SP def2-SVP
|  2> %pal
|  3> nprocs 16
|  4> end
|  5>
|  6> * xyz 0 1
|  7> S 	 -33.4858 	 60.4322 	 110.403
|  8> C 	 -33.3894 	 58.7988 	 109.816
|  9> C 	 -32.1389 	 58.4806 	 109.39
| 10> C 	 -31.1499 	 59.512 	 109.751
| 11> C 	 -31.737 	 60.6665 	 110.145
| 12> H 	 -30.0402 	 59.3656 	 109.619
| 13> C 	 -31.759 	 57.1252 	 108.803
| 14> H 	 -32.4768 	 56.3224 	 109.052
| 15> H 	 -30.6915 	 56.9018 	 109.13
| 16> C 	 -31.6378 	 57.1932 	 107.249
| 17> H 	 -32.5967 	 57.4653 	 106.842
| 18> H 	 -30.8458 	 57.8625 	 106.922
| 19> C 	 -31.2206 	 55.8821 	 106.509
| 20> H 	 -30.2798 	 55.6108 	 106.923
| 21> H 	 -31.9156 	 55.0712 	 106.641
| 22> H 	 -31.1246 	 56.035 	 105.491
| 23> S 	 -31.8725 	 62.708 	 111.923
| 24> C 	 -30.5621 	 63.9532 	 111.934
| 25> C 	 -29.6316 	 63.7529 	 110.979
| 26> C 	 -29.8095 	 62.4759 	 110.301
| 27> C 	 -31.0487 	 61.8966 	 110.572
| 28> H 	 -28.7785 	 64.4158 	 110.991
| 29> C 	 -28.9007 	 62.0722 	 109.166
| 30> H 	 -28.7909 	 62.7989 	 108.31
| 31> H 	 -29.3792 	 61.2574 	 108.622
| 32> C 	 -27.4729 	 61.7726 	 109.57
| 33> H 	 -27.5313 	 61.2123 	 110.481
| 34> H 	 -27.0747 	 62.7715 	 109.79
| 35> C 	 -26.6196 	 60.9527 	 108.542
| 36> H 	 -26.4991 	 61.5201 	 107.691
| 37> H 	 -27.1536 	 60.039 	 108.16
| 38> H 	 -25.655 	 60.6247 	 108.932
| 39> H 	 -34.164 	 58.118 	 109.691
| 40> H 	 -30.5257 	 64.8028 	 112.657
| 41> *
| 42>
| 43>                          ****END OF INPUT****

CARTESIAN COORDINATES (ANGSTROEM)
---------------------------------
  S    -33.485800   60.432200  110.403000
  C    -33.389400   58.798800  109.816000
  C    -32.138900   58.480600  109.390000
  C    -31.149900   59.512000  109.751000
  C    -31.737000   60.666500  110.145000
  H    -30.040200   59.365600  109.619000
  C    -31.759000   57.125200  108.803000
  H    -32.476800   56.322400  109.052000
  H    -30.691500   56.901800  109.130000
  C    -31.637800   57.193200  107.249000
  H    -32.596700   57.465300  106.842000
  H    -30.845800   57.862500  106.922000
  C    -31.220600   55.882100  106.509000
  H    -30.279800   55.610800  106.923000
  H    -31.915600   55.071200  106.641000
  H    -31.124600   56.035000  105.491000
  S    -31.872500   62.708000  111.923000
  C    -30.562100   63.953200  111.934000
  C    -29.631600   63.752900  110.979000
  C    -29.809500   62.475900  110.301000
  C    -31.048700   61.896600  110.572000
  H    -28.778500   64.415800  110.991000
  C    -28.900700   62.072200  109.166000
  H    -28.790900   62.798900  108.310000
  H    -29.379200   61.257400  108.622000
  C    -27.472900   61.772600  109.570000
  H    -27.531300   61.212300  110.481000
  H    -27.074700   62.771500  109.790000
  C    -26.619600   60.952700  108.542000
  H    -26.499100   61.520100  107.691000
  H    -27.153600   60.039000  108.160000
  H    -25.655000   60.624700  108.932000
  H    -34.164000   58.118000  109.691000
  H    -30.525700   64.802800  112.657000

 Total Charge           Charge          ....    0
 Multiplicity           Mult            ....    1
 Number of Electrons    NEL             ....  134
 Basis Dimension        Dim             ....  322

ORBITAL ENERGIES
----------------

  NO   OCC          E(Eh)            E(eV)
   0   2.0000     -88.967945     -2420.9409
   1   2.0000     -88.964580     -2420.8493
   2   2.0000     -10.335457      -281.2421
   3   2.0000     -10.334244      -281.2091
   4   2.0000     -10.322090      -280.8783
   5   2.0000     -10.310865      -280.5729
   6   2.0000     -10.308108      -280.4979
   7   2.0000     -10.303681      -280.3774
   8   2.0000     -10.302920      -280.3567
   9   2.0000     -10.301335      -280.3136
  10   2.0000     -10.296003      -280.1685
  11   2.0000     -10.290983      -280.0319
  12   2.0000     -10.286299      -279.9044
  13   2.0000     -10.286048      -279.8976
  14   2.0000     -10.281431      -279.7720
  15   2.0000     -10.269314      -279.4422
  16   2.0000      -8.082307      -219.9308
  17   2.0000      -8.078381      -219.8239
  18   2.0000      -6.041119      -164.3872
  19   2.0000      -6.037057      -164.2767
  20   2.0000      -6.037019      -164.2756
  21   2.0000      -6.033163      -164.1707
  22   2.0000      -6.032604      -164.1555
  23   2.0000      -6.028861      -164.0537
  24   2.0000      -1.005317       -27.3561
  25   2.0000      -0.980924       -26.6923
  26   2.0000      -0.910127       -24.7658
  27   2.0000      -0.906571       -24.6690
  28   2.0000      -0.873962       -23.7817
  29   2.0000      -0.850814       -23.1518
  30   2.0000      -0.842041       -22.9131
  31   2.0000      -0.822366       -22.3777
  32   2.0000      -0.781848       -21.2752
  33   2.0000      -0.774796       -21.0833
  34   2.0000      -0.709211       -19.2986
  35   2.0000      -0.696692       -18.9579
  36   2.0000      -0.694807       -18.9067
  37   2.0000      -0.659467       -17.9450
  38   2.0000      -0.638455       -17.3732
  39   2.0000      -0.621527       -16.9126
  40   2.0000      -0.597856       -16.2685
  41   2.0000      -0.573209       -15.5978
  42   2.0000      -0.568429       -15.4678
  43   2.0000      -0.561543       -15.2804
  44   2.0000      -0.525776       -14.3071
  45   2.0000      -0.523934       -14.2570
  46   2.0000      -0.517460       -14.0808
  47   2.0000      -0.512108       -13.9352
  48   2.0000      -0.506629       -13.7861
  49   2.0000      -0.499582       -13.5943
  50   2.0000      -0.492252       -13.3949
  51   2.0000      -0.487153       -13.2561
  52   2.0000      -0.471027       -12.8173
  53   2.0000      -0.466908       -12.7052
  54   2.0000      -0.462139       -12.5754
  55   2.0000      -0.449402       -12.2288
  56   2.0000      -0.444162       -12.0863
  57   2.0000      -0.433286       -11.7903
  58   2.0000      -0.431090       -11.7306
  59   2.0000      -0.428024       -11.6471
  60   2.0000      -0.421755       -11.4765
  61   2.0000      -0.414819       -11.2878
  62   2.0000      -0.412386       -11.2216
  63   2.0000      -0.362937        -9.8760
  64   2.0000      -0.334430        -9.1003
  65   2.0000      -0.325428        -8.8553
  66   2.0000      -0.290677        -7.9097
  67   0.0000       0.023122         0.6292
  68   0.0000       0.076951         2.0939
  69   0.0000       0.097108         2.6425
  70   0.0000       0.111385         3.0310
  71   0.0000       0.126425         3.4402

MULLIKEN ATOMIC CHARGES
-----------------------
   0 S :    0.101032
   1 C :   -0.079388
   2 C :   -0.084390
   3 C :   -0.015925
   4 C :   -0.098494
   5 H :    0.042680
   6 C :    0.041751
   7 H :    0.035306
   8 H :    0.031187
   9 C :   -0.101613
  10 H :    0.024043
  11 H :    0.030294
  12 C :   -0.004366
  13 H :    0.013345
  14 H :    0.021833
  15 H :    0.023809
  16 S :    0.073160
  17 C :   -0.101980
  18 C :   -0.008626
  19 C :   -0.028878
  20 C :   -0.113540
  21 H :    0.027382
  22 C :    0.007613
  23 H :    0.036110
  24 H :    0.004741
  25 C :   -0.087238
  26 H :    0.026703
  27 H :    0.032042
  28 C :   -0.017150
  29 H :    0.012321
  30 H :    0.026690
  31 H :    0.042523
  32 H :    0.018462
  33 H :    0.068564
Sum of atomic charges:    0.0000000

LOEWDIN ATOMIC CHARGES
----------------------
   0 S :    0.386382
   1 C :   -0.187514
   2 C :   -0.059204
   3 C :   -0.065294
   4 C :   -0.180210
   5 H :    0.041454
   6 C :   -0.032648
   7 H :    0.032574
   8 H :    0.036035
   9 C :   -0.037047
  10 H :    0.017146
  11 H :    0.023682
  12 C :   -0.054837
  13 H :    0.018393
  14 H :    0.019763
  15 H :    0.018424
  16 S :    0.359234
  17 C :   -0.163432
  18 C :   -0.068792
  19 C :   -0.054689
  20 C :   -0.169992
  21 H :    0.035575
  22 C :   -0.044171
  23 H :    0.035520
  24 H :    0.021563
  25 C :   -0.040499
  26 H :    0.018970
  27 H :    0.024965
  28 C :   -0.058844
  29 H :    0.012821
  30 H :    0.030233
  31 H :    0.029402
  32 H :    0.017926
  33 H :    0.037112

  Mayer bond orders larger than 0.100000
B(  0-S ,  1-C ) :   1.1104 B(  0-S ,  4-C ) :   1.1197 B(  1-C ,  2-C ) :   1.6659
B(  1-C , 32-H ) :   0.9718 B(  2-C ,  3-C ) :   1.1961 B(  2-C ,  6-C ) :   1.0332
B(  3-C ,  4-C ) :   1.6239 B(  3-C ,  5-H ) :   0.9742 B(  4-C , 20-C ) :   1.0519
B(  6-C ,  7-H ) :   0.9483 B(  6-C ,  8-H ) :   0.9394 B(  6-C ,  9-C ) :   1.0558
B(  9-C , 10-H ) :   0.9590 B(  9-C , 11-H ) :   0.9614 B(  9-C , 12-C ) :   1.0822
B( 12-C , 13-H ) :   0.9742 B( 12-C , 14-H ) :   0.9756 B( 12-C , 15-H ) :   0.9752
B( 16-S , 17-C ) :   1.1157 B( 16-S , 20-C ) :   1.1191 B( 17-C , 18-C ) :   1.6914
B( 17-C , 33-H ) :   0.9582 B( 18-C , 19-C ) :   1.1719 B( 18-C , 21-H ) :   0.9826
B( 19-C , 20-C ) :   1.6349 B( 19-C , 22-C ) :   1.0530 B( 22-C , 23-H ) :   0.9422
B( 22-C , 24-H ) :   0.9440 B( 22-C , 25-C ) :   1.0312 B( 25-C , 26-H ) :   0.9625
B( 25-C , 27-H ) :   0.9585 B( 25-C , 28-C ) :   1.0790 B( 28-C , 29-H ) :   0.9735
B( 28-C , 30-H ) :   0.9743 B( 28-C , 31-H ) :   0.9765

Dispersion correction           -0.013531872
FINAL SINGLE POINT ENERGY     -1339.867646590784

DIPOLE MOMENT
-------------
                                X             Y             Z
Electronic contribution:    -20.71956      17.03256      19.78204
Nuclear contribution   :     21.31005     -17.31061     -20.14645
                        -----------------------------------------
Total Dipole Moment    :      0.59049      -0.27805      -0.36441
                        -----------------------------------------
Magnitude (a.u.)       :      0.74752
Magnitude (Debye)      :      1.90005

Rotational constants in cm-1:     0.016824     0.009033     0.006054
Rotational constants in MHz :   504.381306   270.796817   181.509280

                             ****ORCA TERMINATED NORMALLY****
TOTAL RUN TIME: 0 days 0 hours 0 minutes 27 seconds 889 msec
