                         Program Version 4.2.1 -  RELEASE  -
|  1> ! wB97X-D3 SP def2-SVP
|  2> %pal
|  3> nprocs 16
|  4> end
|  5>
|  6> * xyz 0 1
|  7> S 	 58.1526 	 12.9883 	 55.9071
|  8> C 	 57.8155 	 14.625 	 56.3529
|  9> C 	 58.7614 	 15.4713 	 55.7369
| 10> C 	 59.5849 	 14.7855 	 54.8192
| 11> C 	 59.237 	 13.4134 	 54.7014
| 12> H 	 60.3451 	 15.1973 	 54.1496
| 13> C 	 58.8459 	 16.88 	 56.164
| 14> H 	 58.0984 	 17.3199 	 55.4692
| 15> H 	 59.8264 	 17.2356 	 55.7448
| 16> C 	 58.4912 	 17.2845 	 57.6527
| 17> H 	 57.446 	 16.9195 	 57.9163
| 18> H 	 59.1104 	 16.7227 	 58.3169
| 19> C 	 58.6179 	 18.8469 	 57.7396
| 20> H 	 59.0979 	 19.1733 	 58.663
| 21> H 	 59.2077 	 19.2988 	 56.9356
| 22> H 	 57.6837 	 19.3373 	 57.5523
| 23> S 	 60.7159 	 11.1289 	 54.8112
| 24> C 	 61.3107 	 10.4252 	 53.3131
| 25> C 	 60.8534 	 11.0933 	 52.1639
| 26> C 	 60.1179 	 12.2436 	 52.5466
| 27> C 	 59.9386 	 12.4073 	 53.9193
| 28> H 	 60.9839 	 10.8516 	 51.1182
| 29> C 	 59.4795 	 13.1245 	 51.439
| 30> H 	 60.1301 	 13.9903 	 51.1153
| 31> H 	 58.6463 	 13.6835 	 51.958
| 32> C 	 59.0039 	 12.5919 	 50.0698
| 33> H 	 59.8606 	 12.2379 	 49.4505
| 34> H 	 58.6078 	 13.5247 	 49.613
| 35> C 	 57.7929 	 11.5607 	 50.0969
| 36> H 	 56.8709 	 11.7932 	 50.6424
| 37> H 	 58.1224 	 10.6888 	 50.5878
| 38> H 	 57.5403 	 11.3508 	 48.9853
| 39> H 	 57.1254 	 14.9876 	 57.0987
| 40> H 	 61.9742 	 9.63727 	 53.1947
| 41> *
| 42>
| 43>                          ****END OF INPUT****

CARTESIAN COORDINATES (ANGSTROEM)
---------------------------------
  S     58.152600   12.988300   55.907100
  C     57.815500   14.625000   56.352900
  C     58.761400   15.471300   55.736900
  C     59.584900   14.785500   54.819200
  C     59.237000   13.413400   54.701400
  H     60.345100   15.197300   54.149600
  C     58.845900   16.880000   56.164000
  H     58.098400   17.319900   55.469200
  H     59.826400   17.235600   55.744800
  C     58.491200   17.284500   57.652700
  H     57.446000   16.919500   57.916300
  H     59.110400   16.722700   58.316900
  C     58.617900   18.846900   57.739600
  H     59.097900   19.173300   58.663000
  H     59.207700   19.298800   56.935600
  H     57.683700   19.337300   57.552300
  S     60.715900   11.128900   54.811200
  C     61.310700   10.425200   53.313100
  C     60.853400   11.093300   52.163900
  C     60.117900   12.243600   52.546600
  C     59.938600   12.407300   53.919300
  H     60.983900   10.851600   51.118200
  C     59.479500   13.124500   51.439000
  H     60.130100   13.990300   51.115300
  H     58.646300   13.683500   51.958000
  C     59.003900   12.591900   50.069800
  H     59.860600   12.237900   49.450500
  H     58.607800   13.524700   49.613000
  C     57.792900   11.560700   50.096900
  H     56.870900   11.793200   50.642400
  H     58.122400   10.688800   50.587800
  H     57.540300   11.350800   48.985300
  H     57.125400   14.987600   57.098700
  H     61.974200    9.637270   53.194700

 Total Charge           Charge          ....    0
 Multiplicity           Mult            ....    1
 Number of Electrons    NEL             ....  134
 Basis Dimension        Dim             ....  322

ORBITAL ENERGIES
----------------

  NO   OCC          E(Eh)            E(eV)
   0   2.0000     -88.970062     -2420.9985
   1   2.0000     -88.966303     -2420.8962
   2   2.0000     -10.324947      -280.9561
   3   2.0000     -10.324731      -280.9502
   4   2.0000     -10.316232      -280.7190
   5   2.0000     -10.307046      -280.4690
   6   2.0000     -10.302788      -280.3531
   7   2.0000     -10.301973      -280.3309
   8   2.0000     -10.299105      -280.2529
   9   2.0000     -10.297741      -280.2158
  10   2.0000     -10.296905      -280.1930
  11   2.0000     -10.296488      -280.1817
  12   2.0000     -10.294720      -280.1336
  13   2.0000     -10.294278      -280.1215
  14   2.0000     -10.282453      -279.7998
  15   2.0000     -10.281260      -279.7673
  16   2.0000      -8.084467      -219.9895
  17   2.0000      -8.082313      -219.9309
  18   2.0000      -6.042970      -164.4376
  19   2.0000      -6.040489      -164.3701
  20   2.0000      -6.038991      -164.3293
  21   2.0000      -6.036537      -164.2625
  22   2.0000      -6.035288      -164.2285
  23   2.0000      -6.033454      -164.1786
  24   2.0000      -1.011487       -27.5240
  25   2.0000      -0.984977       -26.8026
  26   2.0000      -0.911471       -24.8024
  27   2.0000      -0.896606       -24.3979
  28   2.0000      -0.865778       -23.5590
  29   2.0000      -0.850094       -23.1322
  30   2.0000      -0.843126       -22.9426
  31   2.0000      -0.810666       -22.0594
  32   2.0000      -0.780112       -21.2279
  33   2.0000      -0.768218       -20.9043
  34   2.0000      -0.719580       -19.5808
  35   2.0000      -0.701265       -19.0824
  36   2.0000      -0.692363       -18.8402
  37   2.0000      -0.661439       -17.9987
  38   2.0000      -0.637892       -17.3579
  39   2.0000      -0.608728       -16.5643
  40   2.0000      -0.591943       -16.1076
  41   2.0000      -0.569860       -15.5067
  42   2.0000      -0.557497       -15.1703
  43   2.0000      -0.536417       -14.5967
  44   2.0000      -0.532077       -14.4786
  45   2.0000      -0.521869       -14.2008
  46   2.0000      -0.515311       -14.0223
  47   2.0000      -0.513761       -13.9802
  48   2.0000      -0.504985       -13.7413
  49   2.0000      -0.501438       -13.6448
  50   2.0000      -0.499283       -13.5862
  51   2.0000      -0.473279       -12.8786
  52   2.0000      -0.471394       -12.8273
  53   2.0000      -0.465187       -12.6584
  54   2.0000      -0.459049       -12.4914
  55   2.0000      -0.451804       -12.2942
  56   2.0000      -0.446704       -12.1554
  57   2.0000      -0.436972       -11.8906
  58   2.0000      -0.428193       -11.6517
  59   2.0000      -0.423536       -11.5250
  60   2.0000      -0.419642       -11.4190
  61   2.0000      -0.417332       -11.3562
  62   2.0000      -0.407004       -11.0751
  63   2.0000      -0.341834        -9.3018
  64   2.0000      -0.329128        -8.9560
  65   2.0000      -0.325641        -8.8611
  66   2.0000      -0.287059        -7.8113
  67   0.0000       0.032816         0.8930
  68   0.0000       0.062119         1.6903
  69   0.0000       0.110920         3.0183
  70   0.0000       0.127336         3.4650
  71   0.0000       0.132279         3.5995

MULLIKEN ATOMIC CHARGES
-----------------------
   0 S :    0.129024
   1 C :   -0.127603
   2 C :   -0.094349
   3 C :    0.028055
   4 C :   -0.172449
   5 H :    0.017856
   6 C :    0.015143
   7 H :    0.047444
   8 H :    0.029940
   9 C :   -0.068984
  10 H :    0.042545
  11 H :    0.037365
  12 C :   -0.037550
  13 H :    0.042119
  14 H :    0.027753
  15 H :    0.032009
  16 S :    0.124210
  17 C :   -0.057634
  18 C :   -0.031405
  19 C :   -0.011665
  20 C :   -0.171325
  21 H :    0.018598
  22 C :   -0.000091
  23 H :    0.041711
  24 H :    0.034800
  25 C :   -0.100476
  26 H :    0.044166
  27 H :    0.039682
  28 C :   -0.059302
  29 H :    0.040033
  30 H :    0.024842
  31 H :    0.046283
  32 H :    0.040294
  33 H :    0.028961
Sum of atomic charges:   -0.0000000

LOEWDIN ATOMIC CHARGES
----------------------
   0 S :    0.457107
   1 C :   -0.223002
   2 C :   -0.065978
   3 C :   -0.069519
   4 C :   -0.224566
   5 H :    0.033847
   6 C :   -0.046195
   7 H :    0.042703
   8 H :    0.035171
   9 C :   -0.032982
  10 H :    0.030468
  11 H :    0.021446
  12 C :   -0.066203
  13 H :    0.029024
  14 H :    0.028520
  15 H :    0.026514
  16 S :    0.416707
  17 C :   -0.173065
  18 C :   -0.065450
  19 C :   -0.061342
  20 C :   -0.209093
  21 H :    0.032801
  22 C :   -0.049939
  23 H :    0.037668
  24 H :    0.035083
  25 C :   -0.047174
  26 H :    0.026728
  27 H :    0.033572
  28 C :   -0.073446
  29 H :    0.029332
  30 H :    0.016194
  31 H :    0.036559
  32 H :    0.024377
  33 H :    0.014132

  Mayer bond orders larger than 0.100000
B(  0-S ,  1-C ) :   1.1579 B(  0-S ,  4-C ) :   1.2110 B(  1-C ,  2-C ) :   1.5335
B(  1-C ,  4-C ) :   0.1102 B(  1-C , 32-H ) :   0.9746 B(  2-C ,  3-C ) :   1.3061
B(  2-C ,  6-C ) :   1.0130 B(  3-C ,  4-C ) :   1.4839 B(  3-C ,  5-H ) :   0.9957
B(  4-C , 20-C ) :   1.0279 B(  6-C ,  7-H ) :   0.9287 B(  6-C ,  8-H ) :   0.9446
B(  6-C ,  9-C ) :   1.0530 B(  9-C , 10-H ) :   0.9517 B(  9-C , 11-H ) :   0.9682
B(  9-C , 12-C ) :   1.0554 B( 12-C , 13-H ) :   0.9780 B( 12-C , 14-H ) :   0.9766
B( 12-C , 15-H ) :   0.9760 B( 16-S , 17-C ) :   1.1629 B( 16-S , 20-C ) :   1.1441
B( 17-C , 18-C ) :   1.5765 B( 17-C , 20-C ) :   0.1037 B( 17-C , 33-H ) :   0.9736
B( 18-C , 19-C ) :   1.2804 B( 18-C , 21-H ) :   0.9839 B( 19-C , 20-C ) :   1.5963
B( 19-C , 22-C ) :   1.0225 B( 22-C , 23-H ) :   0.9358 B( 22-C , 24-H ) :   0.9374
B( 22-C , 25-C ) :   1.0788 B( 25-C , 26-H ) :   0.9499 B( 25-C , 27-H ) :   0.9526
B( 25-C , 28-C ) :   1.0611 B( 28-C , 29-H ) :   0.9765 B( 28-C , 30-H ) :   0.9782
B( 28-C , 31-H ) :   0.9761

Dispersion correction           -0.013638090
FINAL SINGLE POINT ENERGY     -1339.855326620411

DIPOLE MOMENT
-------------
                                X             Y             Z
Electronic contribution:      6.19840     -19.32722       9.31476
Nuclear contribution   :     -6.15582      19.88646      -9.54931
                        -----------------------------------------
Total Dipole Moment    :      0.04258       0.55924      -0.23455
                        -----------------------------------------
Magnitude (a.u.)       :      0.60793
Magnitude (Debye)      :      1.54523

Rotational constants in cm-1:     0.023420     0.006746     0.005941
Rotational constants in MHz :   702.128224   202.235022   178.110304

                             ****ORCA TERMINATED NORMALLY****
TOTAL RUN TIME: 0 days 0 hours 0 minutes 28 seconds 807 msec
