                         Program Version 4.2.1 -  RELEASE  -
|  1> ! wB97X-D3 SP def2-SVP
|  2> %pal
|  3> nprocs 16
|  4> end
|  5>
|  6> * xyz 0 1
|  7> S 	 -21.3131 	 1.0968 	 77.8693
|  8> C 	 -20.1316 	 -0.0245325 	 77.2841
|  9> C 	 -20.7016 	 -1.17882 	 76.8446
| 10> C 	 -22.1214 	 -1.09471 	 76.7623
| 11> C 	 -22.6015 	 0.00162133 	 77.3867
| 12> H 	 -22.7379 	 -1.88672 	 76.3338
| 13> C 	 -20.0049 	 -2.48217 	 76.2815
| 14> H 	 -20.2842 	 -2.40463 	 75.2353
| 15> H 	 -20.6448 	 -3.36525 	 76.6122
| 16> C 	 -18.3673 	 -2.56707 	 76.5105
| 17> H 	 -18.1947 	 -2.41549 	 77.5927
| 18> H 	 -18.0734 	 -3.55332 	 76.168
| 19> C 	 -17.5108 	 -1.61029 	 75.5858
| 20> H 	 -17.7733 	 -1.77716 	 74.5082
| 21> H 	 -17.5842 	 -0.545938 	 75.8445
| 22> H 	 -16.4333 	 -1.6944 	 75.6083
| 23> S 	 -24.4711 	 1.77899 	 76.6321
| 24> C 	 -26.0865 	 1.60608 	 77.1319
| 25> C 	 -26.2335 	 0.467835 	 77.9389
| 26> C 	 -25.0353 	 -0.254329 	 78.1619
| 27> C 	 -23.9614 	 0.38176 	 77.5131
| 28> H 	 -27.2232 	 0.113874 	 78.1672
| 29> C 	 -25.0238 	 -1.58082 	 79.0064
| 30> H 	 -24.7922 	 -2.41306 	 78.312
| 31> H 	 -26.021 	 -1.63415 	 79.3912
| 32> C 	 -24.0362 	 -1.70951 	 80.1807
| 33> H 	 -24.3388 	 -1.06915 	 80.9769
| 34> H 	 -23.0703 	 -1.43399 	 79.8872
| 35> C 	 -24.0375 	 -3.0547 	 80.7
| 36> H 	 -23.385 	 -3.09938 	 81.5902
| 37> H 	 -23.7085 	 -3.73371 	 79.9312
| 38> H 	 -24.9554 	 -3.46138 	 81.1038
| 39> H 	 -19.0783 	 0.0297452 	 77.423
| 40> H 	 -26.8973 	 2.25606 	 76.907
| 41> *
| 42>
| 43>                          ****END OF INPUT****

CARTESIAN COORDINATES (ANGSTROEM)
---------------------------------
  S    -21.313100    1.096800   77.869300
  C    -20.131600   -0.024532   77.284100
  C    -20.701600   -1.178820   76.844600
  C    -22.121400   -1.094710   76.762300
  C    -22.601500    0.001621   77.386700
  H    -22.737900   -1.886720   76.333800
  C    -20.004900   -2.482170   76.281500
  H    -20.284200   -2.404630   75.235300
  H    -20.644800   -3.365250   76.612200
  C    -18.367300   -2.567070   76.510500
  H    -18.194700   -2.415490   77.592700
  H    -18.073400   -3.553320   76.168000
  C    -17.510800   -1.610290   75.585800
  H    -17.773300   -1.777160   74.508200
  H    -17.584200   -0.545938   75.844500
  H    -16.433300   -1.694400   75.608300
  S    -24.471100    1.778990   76.632100
  C    -26.086500    1.606080   77.131900
  C    -26.233500    0.467835   77.938900
  C    -25.035300   -0.254329   78.161900
  C    -23.961400    0.381760   77.513100
  H    -27.223200    0.113874   78.167200
  C    -25.023800   -1.580820   79.006400
  H    -24.792200   -2.413060   78.312000
  H    -26.021000   -1.634150   79.391200
  C    -24.036200   -1.709510   80.180700
  H    -24.338800   -1.069150   80.976900
  H    -23.070300   -1.433990   79.887200
  C    -24.037500   -3.054700   80.700000
  H    -23.385000   -3.099380   81.590200
  H    -23.708500   -3.733710   79.931200
  H    -24.955400   -3.461380   81.103800
  H    -19.078300    0.029745   77.423000
  H    -26.897300    2.256060   76.907000

 Total Charge           Charge          ....    0
 Multiplicity           Mult            ....    1
 Number of Electrons    NEL             ....  134
 Basis Dimension        Dim             ....  322

ORBITAL ENERGIES
----------------

  NO   OCC          E(Eh)            E(eV)
   0   2.0000     -88.965954     -2420.8867
   1   2.0000     -88.962940     -2420.8047
   2   2.0000     -10.321030      -280.8495
   3   2.0000     -10.317583      -280.7557
   4   2.0000     -10.310925      -280.5745
   5   2.0000     -10.310076      -280.5514
   6   2.0000     -10.308097      -280.4976
   7   2.0000     -10.304713      -280.4055
   8   2.0000     -10.303855      -280.3822
   9   2.0000     -10.298078      -280.2250
  10   2.0000     -10.293779      -280.1080
  11   2.0000     -10.289456      -279.9903
  12   2.0000     -10.288861      -279.9742
  13   2.0000     -10.288482      -279.9638
  14   2.0000     -10.268773      -279.4275
  15   2.0000     -10.267840      -279.4021
  16   2.0000      -8.081699      -219.9142
  17   2.0000      -8.078067      -219.8154
  18   2.0000      -6.039970      -164.3559
  19   2.0000      -6.036682      -164.2665
  20   2.0000      -6.035883      -164.2447
  21   2.0000      -6.032837      -164.1618
  22   2.0000      -6.032606      -164.1555
  23   2.0000      -6.028597      -164.0465
  24   2.0000      -1.012155       -27.5421
  25   2.0000      -0.986997       -26.8576
  26   2.0000      -0.916345       -24.9350
  27   2.0000      -0.894107       -24.3299
  28   2.0000      -0.867719       -23.6118
  29   2.0000      -0.857760       -23.3408
  30   2.0000      -0.848120       -23.0785
  31   2.0000      -0.808015       -21.9872
  32   2.0000      -0.781079       -21.2542
  33   2.0000      -0.771591       -20.9961
  34   2.0000      -0.711517       -19.3614
  35   2.0000      -0.705662       -19.2020
  36   2.0000      -0.691507       -18.8169
  37   2.0000      -0.661975       -18.0133
  38   2.0000      -0.639014       -17.3884
  39   2.0000      -0.610862       -16.6224
  40   2.0000      -0.593508       -16.1502
  41   2.0000      -0.578322       -15.7369
  42   2.0000      -0.570418       -15.5219
  43   2.0000      -0.543635       -14.7931
  44   2.0000      -0.531565       -14.4646
  45   2.0000      -0.520594       -14.1661
  46   2.0000      -0.516962       -14.0672
  47   2.0000      -0.510064       -13.8795
  48   2.0000      -0.500351       -13.6153
  49   2.0000      -0.497780       -13.5453
  50   2.0000      -0.491956       -13.3868
  51   2.0000      -0.482750       -13.1363
  52   2.0000      -0.474718       -12.9177
  53   2.0000      -0.464569       -12.6416
  54   2.0000      -0.462213       -12.5775
  55   2.0000      -0.450084       -12.2474
  56   2.0000      -0.447260       -12.1706
  57   2.0000      -0.441489       -12.0135
  58   2.0000      -0.429204       -11.6792
  59   2.0000      -0.427046       -11.6205
  60   2.0000      -0.422464       -11.4958
  61   2.0000      -0.415294       -11.3007
  62   2.0000      -0.409267       -11.1367
  63   2.0000      -0.341548        -9.2940
  64   2.0000      -0.331751        -9.0274
  65   2.0000      -0.324047        -8.8178
  66   2.0000      -0.295620        -8.0442
  67   0.0000       0.037986         1.0337
  68   0.0000       0.070526         1.9191
  69   0.0000       0.117743         3.2039
  70   0.0000       0.123137         3.3507
  71   0.0000       0.133825         3.6416

MULLIKEN ATOMIC CHARGES
-----------------------
   0 S :    0.113295
   1 C :   -0.116960
   2 C :   -0.093588
   3 C :    0.023750
   4 C :   -0.164464
   5 H :    0.017254
   6 C :    0.019831
   7 H :    0.036537
   8 H :    0.045488
   9 C :   -0.057071
  10 H :    0.053456
  11 H :    0.037755
  12 C :   -0.084466
  13 H :    0.043996
  14 H :    0.030449
  15 H :    0.033270
  16 S :    0.139662
  17 C :   -0.087341
  18 C :   -0.054273
  19 C :   -0.010962
  20 C :   -0.190160
  21 H :    0.012300
  22 C :    0.076016
  23 H :    0.029779
  24 H :    0.008985
  25 C :   -0.010903
  26 H :    0.017098
  27 H :    0.026004
  28 C :   -0.041619
  29 H :    0.028892
  30 H :    0.019040
  31 H :    0.017056
  32 H :    0.034263
  33 H :    0.047632
Sum of atomic charges:    0.0000000

LOEWDIN ATOMIC CHARGES
----------------------
   0 S :    0.402194
   1 C :   -0.207186
   2 C :   -0.063479
   3 C :   -0.061295
   4 C :   -0.193648
   5 H :    0.034503
   6 C :   -0.036542
   7 H :    0.031695
   8 H :    0.038534
   9 C :   -0.035117
  10 H :    0.029115
  11 H :    0.027295
  12 C :   -0.077510
  13 H :    0.033779
  14 H :    0.022805
  15 H :    0.026290
  16 S :    0.451360
  17 C :   -0.204190
  18 C :   -0.076207
  19 C :   -0.051617
  20 C :   -0.219342
  21 H :    0.026477
  22 C :   -0.019759
  23 H :    0.032291
  24 H :    0.025863
  25 C :   -0.036022
  26 H :    0.023431
  27 H :    0.020883
  28 C :   -0.062457
  29 H :    0.031001
  30 H :    0.020513
  31 H :    0.021198
  32 H :    0.020114
  33 H :    0.025029

  Mayer bond orders larger than 0.100000
B(  0-S ,  1-C ) :   1.1178 B(  0-S ,  4-C ) :   1.1353 B(  1-C ,  2-C ) :   1.6711
B(  1-C , 32-H ) :   0.9568 B(  2-C ,  3-C ) :   1.2155 B(  2-C ,  6-C ) :   0.9833
B(  3-C ,  4-C ) :   1.6149 B(  3-C ,  5-H ) :   0.9934 B(  4-C , 20-C ) :   1.0393
B(  6-C ,  7-H ) :   0.9462 B(  6-C ,  8-H ) :   0.9512 B(  6-C ,  9-C ) :   1.0398
B(  9-C , 10-H ) :   0.9637 B(  9-C , 11-H ) :   0.9590 B(  9-C , 12-C ) :   1.0577
B( 12-C , 13-H ) :   0.9751 B( 12-C , 14-H ) :   0.9778 B( 12-C , 15-H ) :   0.9753
B( 16-S , 17-C ) :   1.1835 B( 16-S , 20-C ) :   1.1794 B( 17-C , 18-C ) :   1.5638
B( 17-C , 20-C ) :   0.1104 B( 17-C , 33-H ) :   0.9715 B( 18-C , 19-C ) :   1.2982
B( 18-C , 21-H ) :   0.9854 B( 19-C , 20-C ) :   1.5455 B( 19-C , 22-C ) :   1.0226
B( 22-C , 23-H ) :   0.9360 B( 22-C , 24-H ) :   0.9335 B( 22-C , 25-C ) :   1.0770
B( 25-C , 26-H ) :   0.9456 B( 25-C , 27-H ) :   0.9490 B( 25-C , 28-C ) :   1.1071
B( 28-C , 29-H ) :   0.9670 B( 28-C , 30-H ) :   0.9703 B( 28-C , 31-H ) :   0.9700

Dispersion correction           -0.014337475
FINAL SINGLE POINT ENERGY     -1339.866358804429

DIPOLE MOMENT
-------------
                                X             Y             Z
Electronic contribution:    -10.89607      22.97816      -5.02328
Nuclear contribution   :     10.93502     -23.63592       4.98003
                        -----------------------------------------
Total Dipole Moment    :      0.03894      -0.65777      -0.04325
                        -----------------------------------------
Magnitude (a.u.)       :      0.66034
Magnitude (Debye)      :      1.67844

Rotational constants in cm-1:     0.019975     0.008385     0.006631
Rotational constants in MHz :   598.832910   251.371594   198.777549

                             ****ORCA TERMINATED NORMALLY****
TOTAL RUN TIME: 0 days 0 hours 0 minutes 34 seconds 659 msec
