                         Program Version 4.2.1 -  RELEASE  -
|  1> ! wB97X-D3 SP def2-SVP
|  2> %pal
|  3> nprocs 16
|  4> end
|  5>
|  6> * xyz 0 1
|  7> S 	 -42.1161 	 55.0142 	 105.531
|  8> C 	 -40.8782 	 56.2081 	 105.82
|  9> C 	 -39.6294 	 55.6593 	 106.069
| 10> C 	 -39.7368 	 54.2841 	 106.315
| 11> C 	 -40.9416 	 53.7528 	 105.955
| 12> H 	 -38.9176 	 53.7011 	 106.604
| 13> C 	 -38.3731 	 56.4337 	 106.435
| 14> H 	 -38.495 	 57.4351 	 106.088
| 15> H 	 -37.6245 	 55.9164 	 105.828
| 16> C 	 -37.8543 	 56.3171 	 107.901
| 17> H 	 -37.8774 	 55.2573 	 108.165
| 18> H 	 -36.8585 	 56.6978 	 108.038
| 19> C 	 -38.8461 	 56.8639 	 108.921
| 20> H 	 -38.8045 	 56.3282 	 109.824
| 21> H 	 -38.5753 	 57.8923 	 108.94
| 22> H 	 -39.8961 	 56.7648 	 108.542
| 23> S 	 -42.588 	 52.0066 	 107.179
| 24> C 	 -42.5529 	 50.3003 	 106.649
| 25> C 	 -41.6154 	 50.0783 	 105.618
| 26> C 	 -40.8553 	 51.2794 	 105.333
| 27> C 	 -41.3194 	 52.3323 	 106.058
| 28> H 	 -41.559 	 49.0647 	 105.101
| 29> C 	 -39.7402 	 51.264 	 104.252
| 30> H 	 -39.7155 	 52.1955 	 103.66
| 31> H 	 -39.7882 	 50.3616 	 103.65
| 32> C 	 -38.2974 	 51.2209 	 104.797
| 33> H 	 -38.0171 	 50.3854 	 105.488
| 34> H 	 -38.0116 	 52.0103 	 105.407
| 35> C 	 -37.2549 	 51.3109 	 103.692
| 36> H 	 -37.5461 	 52.119 	 102.982
| 37> H 	 -37.0614 	 50.4087 	 103.143
| 38> H 	 -36.2524 	 51.5143 	 104.062
| 39> H 	 -41.0684 	 57.2607 	 105.849
| 40> H 	 -43.2366 	 49.515 	 106.974
| 41> *
| 42>
| 43>                          ****END OF INPUT****

CARTESIAN COORDINATES (ANGSTROEM)
---------------------------------
  S    -42.116100   55.014200  105.531000
  C    -40.878200   56.208100  105.820000
  C    -39.629400   55.659300  106.069000
  C    -39.736800   54.284100  106.315000
  C    -40.941600   53.752800  105.955000
  H    -38.917600   53.701100  106.604000
  C    -38.373100   56.433700  106.435000
  H    -38.495000   57.435100  106.088000
  H    -37.624500   55.916400  105.828000
  C    -37.854300   56.317100  107.901000
  H    -37.877400   55.257300  108.165000
  H    -36.858500   56.697800  108.038000
  C    -38.846100   56.863900  108.921000
  H    -38.804500   56.328200  109.824000
  H    -38.575300   57.892300  108.940000
  H    -39.896100   56.764800  108.542000
  S    -42.588000   52.006600  107.179000
  C    -42.552900   50.300300  106.649000
  C    -41.615400   50.078300  105.618000
  C    -40.855300   51.279400  105.333000
  C    -41.319400   52.332300  106.058000
  H    -41.559000   49.064700  105.101000
  C    -39.740200   51.264000  104.252000
  H    -39.715500   52.195500  103.660000
  H    -39.788200   50.361600  103.650000
  C    -38.297400   51.220900  104.797000
  H    -38.017100   50.385400  105.488000
  H    -38.011600   52.010300  105.407000
  C    -37.254900   51.310900  103.692000
  H    -37.546100   52.119000  102.982000
  H    -37.061400   50.408700  103.143000
  H    -36.252400   51.514300  104.062000
  H    -41.068400   57.260700  105.849000
  H    -43.236600   49.515000  106.974000

 Total Charge           Charge          ....    0
 Multiplicity           Mult            ....    1
 Number of Electrons    NEL             ....  134
 Basis Dimension        Dim             ....  322

ORBITAL ENERGIES
----------------

  NO   OCC          E(Eh)            E(eV)
   0   2.0000     -88.969243     -2420.9762
   1   2.0000     -88.968387     -2420.9529
   2   2.0000     -10.326875      -281.0086
   3   2.0000     -10.322065      -280.8777
   4   2.0000     -10.321736      -280.8687
   5   2.0000     -10.312233      -280.6101
   6   2.0000     -10.306524      -280.4548
   7   2.0000     -10.304943      -280.4117
   8   2.0000     -10.299732      -280.2700
   9   2.0000     -10.296665      -280.1865
  10   2.0000     -10.291796      -280.0540
  11   2.0000     -10.285373      -279.8792
  12   2.0000     -10.285072      -279.8710
  13   2.0000     -10.280981      -279.7597
  14   2.0000     -10.275741      -279.6171
  15   2.0000     -10.267131      -279.3828
  16   2.0000      -8.083717      -219.9691
  17   2.0000      -8.082798      -219.9441
  18   2.0000      -6.042240      -164.4177
  19   2.0000      -6.041292      -164.3919
  20   2.0000      -6.038362      -164.3122
  21   2.0000      -6.037434      -164.2869
  22   2.0000      -6.034373      -164.2036
  23   2.0000      -6.033509      -164.1801
  24   2.0000      -1.007562       -27.4172
  25   2.0000      -0.983282       -26.7565
  26   2.0000      -0.911405       -24.8006
  27   2.0000      -0.908324       -24.7168
  28   2.0000      -0.864658       -23.5285
  29   2.0000      -0.854121       -23.2418
  30   2.0000      -0.850165       -23.1342
  31   2.0000      -0.812862       -22.1191
  32   2.0000      -0.782626       -21.2963
  33   2.0000      -0.771784       -21.0013
  34   2.0000      -0.705050       -19.1854
  35   2.0000      -0.698203       -18.9991
  36   2.0000      -0.690009       -18.7761
  37   2.0000      -0.661664       -18.0048
  38   2.0000      -0.642357       -17.4794
  39   2.0000      -0.625665       -17.0252
  40   2.0000      -0.596494       -16.2314
  41   2.0000      -0.568052       -15.4575
  42   2.0000      -0.562978       -15.3194
  43   2.0000      -0.551680       -15.0120
  44   2.0000      -0.545373       -14.8404
  45   2.0000      -0.522346       -14.2138
  46   2.0000      -0.516934       -14.0665
  47   2.0000      -0.511618       -13.9218
  48   2.0000      -0.507375       -13.8064
  49   2.0000      -0.493854       -13.4385
  50   2.0000      -0.487676       -13.2703
  51   2.0000      -0.473856       -12.8943
  52   2.0000      -0.469866       -12.7857
  53   2.0000      -0.468768       -12.7558
  54   2.0000      -0.457536       -12.4502
  55   2.0000      -0.451653       -12.2901
  56   2.0000      -0.447164       -12.1680
  57   2.0000      -0.435807       -11.8589
  58   2.0000      -0.431289       -11.7360
  59   2.0000      -0.428569       -11.6620
  60   2.0000      -0.423151       -11.5145
  61   2.0000      -0.414134       -11.2692
  62   2.0000      -0.409754       -11.1500
  63   2.0000      -0.342653        -9.3241
  64   2.0000      -0.331443        -9.0190
  65   2.0000      -0.328175        -8.9301
  66   2.0000      -0.298932        -8.1343
  67   0.0000       0.034676         0.9436
  68   0.0000       0.065750         1.7892
  69   0.0000       0.109724         2.9857
  70   0.0000       0.116319         3.1652
  71   0.0000       0.127970         3.4822

MULLIKEN ATOMIC CHARGES
-----------------------
   0 S :    0.119976
   1 C :   -0.125157
   2 C :   -0.096912
   3 C :    0.038908
   4 C :   -0.152798
   5 H :   -0.000783
   6 C :    0.089322
   7 H :    0.014847
   8 H :    0.029153
   9 C :   -0.079988
  10 H :    0.019585
  11 H :    0.036134
  12 C :   -0.037126
  13 H :    0.030593
  14 H :    0.024682
  15 H :    0.040235
  16 S :    0.122247
  17 C :   -0.106083
  18 C :   -0.070117
  19 C :    0.001018
  20 C :   -0.190598
  21 H :    0.050837
  22 C :    0.107117
  23 H :    0.038119
  24 H :    0.024696
  25 C :   -0.069012
  26 H :    0.024032
  27 H :   -0.002489
  28 C :   -0.060148
  29 H :    0.032056
  30 H :    0.024023
  31 H :    0.023338
  32 H :    0.041224
  33 H :    0.059068
Sum of atomic charges:    0.0000000

LOEWDIN ATOMIC CHARGES
----------------------
   0 S :    0.396991
   1 C :   -0.194094
   2 C :   -0.065515
   3 C :   -0.053031
   4 C :   -0.185334
   5 H :    0.021033
   6 C :   -0.026107
   7 H :    0.022372
   8 H :    0.035300
   9 C :   -0.038443
  10 H :    0.022545
  11 H :    0.022763
  12 C :   -0.062226
  13 H :    0.019619
  14 H :    0.020627
  15 H :    0.033232
  16 S :    0.407666
  17 C :   -0.183830
  18 C :   -0.073145
  19 C :   -0.054981
  20 C :   -0.208247
  21 H :    0.045760
  22 C :   -0.020852
  23 H :    0.038163
  24 H :    0.032989
  25 C :   -0.046754
  26 H :    0.027486
  27 H :    0.010280
  28 C :   -0.067837
  29 H :    0.028169
  30 H :    0.018166
  31 H :    0.026200
  32 H :    0.021670
  33 H :    0.029366

  Mayer bond orders larger than 0.100000
B(  0-S ,  1-C ) :   1.1435 B(  0-S ,  4-C ) :   1.1388 B(  1-C ,  2-C ) :   1.5962
B(  1-C , 32-H ) :   0.9668 B(  2-C ,  3-C ) :   1.2352 B(  2-C ,  6-C ) :   1.0351
B(  3-C ,  4-C ) :   1.5985 B(  3-C ,  5-H ) :   0.9943 B(  4-C , 20-C ) :   1.0092
B(  6-C ,  7-H ) :   0.9453 B(  6-C ,  8-H ) :   0.9270 B(  6-C ,  9-C ) :   1.0675
B(  9-C , 10-H ) :   0.9579 B(  9-C , 11-H ) :   0.9606 B(  9-C , 12-C ) :   1.0617
B( 12-C , 13-H ) :   0.9792 B( 12-C , 14-H ) :   0.9796 B( 12-C , 15-H ) :   0.9746
B( 16-S , 17-C ) :   1.1363 B( 16-S , 20-C ) :   1.1480 B( 17-C , 18-C ) :   1.6409
B( 17-C , 33-H ) :   0.9658 B( 18-C , 19-C ) :   1.2168 B( 18-C , 21-H ) :   0.9743
B( 19-C , 20-C ) :   1.6407 B( 19-C , 22-C ) :   1.0450 B( 22-C , 23-H ) :   0.9273
B( 22-C , 24-H ) :   0.9400 B( 22-C , 25-C ) :   1.0584 B( 25-C , 26-H ) :   0.9478
B( 25-C , 27-H ) :   0.9519 B( 25-C , 28-C ) :   1.0874 B( 28-C , 29-H ) :   0.9708
B( 28-C , 30-H ) :   0.9761 B( 28-C , 31-H ) :   0.9726

Dispersion correction           -0.014755259
FINAL SINGLE POINT ENERGY     -1339.864903668882

DIPOLE MOMENT
-------------
                                X             Y             Z
Electronic contribution:    -26.02345      -3.01699       1.06037
Nuclear contribution   :     26.58587       2.91403      -1.10068
                        -----------------------------------------
Total Dipole Moment    :      0.56242      -0.10296      -0.04031
                        -----------------------------------------
Magnitude (a.u.)       :      0.57319
Magnitude (Debye)      :      1.45693

Rotational constants in cm-1:     0.016921     0.009663     0.007462
Rotational constants in MHz :   507.281446   289.677128   223.709747

                             ****ORCA TERMINATED NORMALLY****
TOTAL RUN TIME: 0 days 0 hours 0 minutes 29 seconds 268 msec
