                         Program Version 4.2.1 -  RELEASE  -
|  1> ! wB97X-D3 SP def2-SVP
|  2> %pal
|  3> nprocs 16
|  4> end
|  5>
|  6> * xyz 0 1
|  7> S 	 6.85226 	 -5.59052 	 91.6533
|  8> C 	 7.15954 	 -3.85495 	 91.8693
|  9> C 	 7.62977 	 -3.34796 	 90.6903
| 10> C 	 7.55264 	 -4.2882 	 89.6283
| 11> C 	 7.16228 	 -5.54509 	 89.9738
| 12> H 	 7.86225 	 -4.10926 	 88.5894
| 13> C 	 8.13759 	 -1.90109 	 90.5145
| 14> H 	 7.70662 	 -1.21244 	 91.2559
| 15> H 	 7.63294 	 -1.65502 	 89.6402
| 16> C 	 9.72547 	 -1.83035 	 90.6666
| 17> H 	 10.1544 	 -2.41026 	 91.5078
| 18> H 	 10.2605 	 -2.21428 	 89.8025
| 19> C 	 10.1963 	 -0.358212 	 90.9122
| 20> H 	 11.2452 	 -0.17024 	 91.0458
| 21> H 	 9.81988 	 0.32246 	 90.1887
| 22> H 	 9.67614 	 0.0767797 	 91.8023
| 23> S 	 8.12131 	 -8.16554 	 89.6925
| 24> C 	 7.96564 	 -8.93286 	 88.1201
| 25> C 	 7.18049 	 -8.22005 	 87.2957
| 26> C 	 6.66495 	 -7.04123 	 87.8868
| 27> C 	 7.17462 	 -6.76364 	 89.1345
| 28> H 	 6.86119 	 -8.46738 	 86.2515
| 29> C 	 5.8299 	 -6.00278 	 87.147
| 30> H 	 5.57399 	 -5.09605 	 87.7709
| 31> H 	 4.87055 	 -6.48352 	 87.0274
| 32> C 	 6.53036 	 -5.39265 	 85.9308
| 33> H 	 6.73832 	 -6.20615 	 85.2501
| 34> H 	 7.48825 	 -5.00663 	 86.1199
| 35> C 	 5.71452 	 -4.22574 	 85.2353
| 36> H 	 6.25071 	 -3.68174 	 84.5508
| 37> H 	 5.51022 	 -3.39972 	 85.9572
| 38> H 	 4.72179 	 -4.50543 	 84.7438
| 39> H 	 7.0768 	 -3.3349 	 92.9049
| 40> H 	 8.33362 	 -9.94472 	 87.897
| 41> *
| 42>
| 43>                          ****END OF INPUT****

CARTESIAN COORDINATES (ANGSTROEM)
---------------------------------
  S      6.852260   -5.590520   91.653300
  C      7.159540   -3.854950   91.869300
  C      7.629770   -3.347960   90.690300
  C      7.552640   -4.288200   89.628300
  C      7.162280   -5.545090   89.973800
  H      7.862250   -4.109260   88.589400
  C      8.137590   -1.901090   90.514500
  H      7.706620   -1.212440   91.255900
  H      7.632940   -1.655020   89.640200
  C      9.725470   -1.830350   90.666600
  H     10.154400   -2.410260   91.507800
  H     10.260500   -2.214280   89.802500
  C     10.196300   -0.358212   90.912200
  H     11.245200   -0.170240   91.045800
  H      9.819880    0.322460   90.188700
  H      9.676140    0.076780   91.802300
  S      8.121310   -8.165540   89.692500
  C      7.965640   -8.932860   88.120100
  C      7.180490   -8.220050   87.295700
  C      6.664950   -7.041230   87.886800
  C      7.174620   -6.763640   89.134500
  H      6.861190   -8.467380   86.251500
  C      5.829900   -6.002780   87.147000
  H      5.573990   -5.096050   87.770900
  H      4.870550   -6.483520   87.027400
  C      6.530360   -5.392650   85.930800
  H      6.738320   -6.206150   85.250100
  H      7.488250   -5.006630   86.119900
  C      5.714520   -4.225740   85.235300
  H      6.250710   -3.681740   84.550800
  H      5.510220   -3.399720   85.957200
  H      4.721790   -4.505430   84.743800
  H      7.076800   -3.334900   92.904900
  H      8.333620   -9.944720   87.897000

 Total Charge           Charge          ....    0
 Multiplicity           Mult            ....    1
 Number of Electrons    NEL             ....  134
 Basis Dimension        Dim             ....  322

ORBITAL ENERGIES
----------------

  NO   OCC          E(Eh)            E(eV)
   0   2.0000     -88.963261     -2420.8134
   1   2.0000     -88.961711     -2420.7712
   2   2.0000     -10.328695      -281.0581
   3   2.0000     -10.327299      -281.0201
   4   2.0000     -10.320889      -280.8457
   5   2.0000     -10.319470      -280.8071
   6   2.0000     -10.301703      -280.3236
   7   2.0000     -10.299726      -280.2698
   8   2.0000     -10.298136      -280.2265
   9   2.0000     -10.297950      -280.2215
  10   2.0000     -10.295457      -280.1536
  11   2.0000     -10.292092      -280.0621
  12   2.0000     -10.292061      -280.0612
  13   2.0000     -10.289158      -279.9822
  14   2.0000     -10.283396      -279.8254
  15   2.0000     -10.277261      -279.6585
  16   2.0000      -8.077763      -219.8071
  17   2.0000      -8.077102      -219.7891
  18   2.0000      -6.036353      -164.2575
  19   2.0000      -6.035573      -164.2363
  20   2.0000      -6.032378      -164.1494
  21   2.0000      -6.031494      -164.1253
  22   2.0000      -6.028359      -164.0400
  23   2.0000      -6.027867      -164.0266
  24   2.0000      -1.010363       -27.4934
  25   2.0000      -0.989120       -26.9153
  26   2.0000      -0.905792       -24.6479
  27   2.0000      -0.904634       -24.6163
  28   2.0000      -0.867889       -23.6165
  29   2.0000      -0.848256       -23.0822
  30   2.0000      -0.843026       -22.9399
  31   2.0000      -0.816979       -22.2311
  32   2.0000      -0.782749       -21.2997
  33   2.0000      -0.772756       -21.0277
  34   2.0000      -0.712030       -19.3753
  35   2.0000      -0.709299       -19.3010
  36   2.0000      -0.696986       -18.9659
  37   2.0000      -0.659194       -17.9376
  38   2.0000      -0.640620       -17.4322
  39   2.0000      -0.618145       -16.8206
  40   2.0000      -0.600232       -16.3331
  41   2.0000      -0.561149       -15.2696
  42   2.0000      -0.557449       -15.1689
  43   2.0000      -0.552003       -15.0208
  44   2.0000      -0.530998       -14.4492
  45   2.0000      -0.527800       -14.3622
  46   2.0000      -0.516861       -14.0645
  47   2.0000      -0.509308       -13.8590
  48   2.0000      -0.506127       -13.7724
  49   2.0000      -0.500130       -13.6092
  50   2.0000      -0.493104       -13.4180
  51   2.0000      -0.471450       -12.8288
  52   2.0000      -0.468442       -12.7470
  53   2.0000      -0.462785       -12.5930
  54   2.0000      -0.457404       -12.4466
  55   2.0000      -0.453050       -12.3281
  56   2.0000      -0.447740       -12.1836
  57   2.0000      -0.445155       -12.1133
  58   2.0000      -0.442675       -12.0458
  59   2.0000      -0.425705       -11.5840
  60   2.0000      -0.422652       -11.5010
  61   2.0000      -0.406454       -11.0602
  62   2.0000      -0.403499       -10.9798
  63   2.0000      -0.349139        -9.5006
  64   2.0000      -0.332145        -9.0381
  65   2.0000      -0.330428        -8.9914
  66   2.0000      -0.297976        -8.1083
  67   0.0000       0.034191         0.9304
  68   0.0000       0.071104         1.9348
  69   0.0000       0.114460         3.1146
  70   0.0000       0.127081         3.4580
  71   0.0000       0.135081         3.6757

MULLIKEN ATOMIC CHARGES
-----------------------
   0 S :    0.095104
   1 C :   -0.163872
   2 C :   -0.098352
   3 C :    0.022199
   4 C :   -0.136188
   5 H :    0.007718
   6 C :    0.094386
   7 H :    0.018030
   8 H :    0.018578
   9 C :   -0.059115
  10 H :    0.045680
  11 H :    0.035230
  12 C :   -0.059156
  13 H :    0.039014
  14 H :    0.017216
  15 H :    0.019947
  16 S :    0.094655
  17 C :   -0.086632
  18 C :   -0.033004
  19 C :   -0.046425
  20 C :   -0.149725
  21 H :    0.034495
  22 C :    0.043089
  23 H :    0.032008
  24 H :    0.034003
  25 C :   -0.044494
  26 H :    0.018113
  27 H :    0.019823
  28 C :   -0.051234
  29 H :    0.011139
  30 H :    0.025190
  31 H :    0.047147
  32 H :    0.087792
  33 H :    0.067638
Sum of atomic charges:    0.0000000

LOEWDIN ATOMIC CHARGES
----------------------
   0 S :    0.406943
   1 C :   -0.203777
   2 C :   -0.067597
   3 C :   -0.072931
   4 C :   -0.203485
   5 H :    0.032498
   6 C :   -0.020417
   7 H :    0.031462
   8 H :    0.024174
   9 C :   -0.033402
  10 H :    0.033120
  11 H :    0.023825
  12 C :   -0.074016
  13 H :    0.023895
  14 H :    0.018376
  15 H :    0.026220
  16 S :    0.383595
  17 C :   -0.177346
  18 C :   -0.079996
  19 C :   -0.060006
  20 C :   -0.183724
  21 H :    0.040579
  22 C :   -0.035817
  23 H :    0.035768
  24 H :    0.032252
  25 C :   -0.032994
  26 H :    0.019421
  27 H :    0.019477
  28 C :   -0.069541
  29 H :    0.012099
  30 H :    0.029111
  31 H :    0.034207
  32 H :    0.051312
  33 H :    0.036714

  Mayer bond orders larger than 0.100000
B(  0-S ,  1-C ) :   1.1321 B(  0-S ,  4-C ) :   1.1667 B(  1-C ,  2-C ) :   1.6082
B(  1-C , 32-H ) :   0.9598 B(  2-C ,  3-C ) :   1.2516 B(  2-C ,  6-C ) :   1.0058
B(  3-C ,  4-C ) :   1.5708 B(  3-C ,  5-H ) :   0.9940 B(  4-C , 20-C ) :   1.0117
B(  6-C ,  7-H ) :   0.9529 B(  6-C ,  8-H ) :   0.9422 B(  6-C ,  9-C ) :   1.0292
B(  9-C , 10-H ) :   0.9644 B(  9-C , 11-H ) :   0.9602 B(  9-C , 12-C ) :   1.0745
B( 12-C , 13-H ) :   0.9778 B( 12-C , 14-H ) :   0.9744 B( 12-C , 15-H ) :   0.9743
B( 16-S , 17-C ) :   1.1462 B( 16-S , 20-C ) :   1.1252 B( 17-C , 18-C ) :   1.6122
B( 17-C , 33-H ) :   0.9636 B( 18-C , 19-C ) :   1.2451 B( 18-C , 21-H ) :   0.9806
B( 19-C , 20-C ) :   1.6263 B( 19-C , 22-C ) :   1.0415 B( 22-C , 23-H ) :   0.9420
B( 22-C , 24-H ) :   0.9301 B( 22-C , 25-C ) :   1.0488 B( 25-C , 26-H ) :   0.9540
B( 25-C , 27-H ) :   0.9540 B( 25-C , 28-C ) :   1.0781 B( 28-C , 29-H ) :   0.9750
B( 28-C , 30-H ) :   0.9717 B( 28-C , 31-H ) :   0.9777

Dispersion correction           -0.014030237
FINAL SINGLE POINT ENERGY     -1339.864394066422

DIPOLE MOMENT
-------------
                                X             Y             Z
Electronic contribution:     -2.68586     -25.41723      14.44629
Nuclear contribution   :      2.78390      25.93488     -14.94057
                        -----------------------------------------
Total Dipole Moment    :      0.09804       0.51765      -0.49427
                        -----------------------------------------
Magnitude (a.u.)       :      0.72241
Magnitude (Debye)      :      1.83622

Rotational constants in cm-1:     0.017184     0.008417     0.006596
Rotational constants in MHz :   515.149339   252.332821   197.737393

                             ****ORCA TERMINATED NORMALLY****
TOTAL RUN TIME: 0 days 0 hours 0 minutes 33 seconds 256 msec
