                         Program Version 4.2.1 -  RELEASE  -
|  1> ! wB97X-D3 SP def2-SVP
|  2> %pal
|  3> nprocs 16
|  4> end
|  5>
|  6> * xyz 0 1
|  7> S 	 -3.75756 	 34.7835 	 52.2626
|  8> C 	 -2.38612 	 34.1923 	 53.25
|  9> C 	 -1.86625 	 33.099 	 52.5813
| 10> C 	 -2.65907 	 32.5719 	 51.5158
| 11> C 	 -3.72935 	 33.4168 	 51.29
| 12> H 	 -2.44847 	 31.7297 	 50.8323
| 13> C 	 -0.620269 	 32.4061 	 52.9962
| 14> H 	 0.133202 	 33.132 	 52.774
| 15> H 	 -0.509735 	 31.5439 	 52.2873
| 16> C 	 -0.599572 	 31.8349 	 54.4753
| 17> H 	 -0.569145 	 32.7239 	 55.0736
| 18> H 	 -1.60663 	 31.411 	 54.6403
| 19> C 	 0.593066 	 30.9573 	 54.7541
| 20> H 	 1.58347 	 31.3979 	 54.7063
| 21> H 	 0.361276 	 30.6364 	 55.6898
| 22> H 	 0.578678 	 30.0132 	 54.1775
| 23> S 	 -6.4729 	 33.0849 	 50.3798
| 24> C 	 -6.74341 	 32.8952 	 48.6545
| 25> C 	 -5.53701 	 32.9253 	 47.9846
| 26> C 	 -4.36093 	 32.9566 	 48.8101
| 27> C 	 -4.65513 	 33.2444 	 50.14
| 28> H 	 -5.55178 	 32.9433 	 46.9186
| 29> C 	 -3.05021 	 32.7867 	 48.1665
| 30> H 	 -2.90055 	 32.0078 	 47.5068
| 31> H 	 -2.36768 	 32.6308 	 49.0232
| 32> C 	 -2.60918 	 34.0546 	 47.4159
| 33> H 	 -3.33095 	 34.2727 	 46.6537
| 34> H 	 -1.77179 	 33.812 	 46.8133
| 35> C 	 -2.53146 	 35.3044 	 48.3126
| 36> H 	 -2.40172 	 36.175 	 47.6546
| 37> H 	 -1.72893 	 35.3691 	 49.1918
| 38> H 	 -3.53248 	 35.441 	 48.6316
| 39> H 	 -2.07026 	 34.7306 	 54.0945
| 40> H 	 -7.69046 	 33.0315 	 48.1735
| 41> *
| 42>
| 43>                          ****END OF INPUT****

CARTESIAN COORDINATES (ANGSTROEM)
---------------------------------
  S     -3.757560   34.783500   52.262600
  C     -2.386120   34.192300   53.250000
  C     -1.866250   33.099000   52.581300
  C     -2.659070   32.571900   51.515800
  C     -3.729350   33.416800   51.290000
  H     -2.448470   31.729700   50.832300
  C     -0.620269   32.406100   52.996200
  H      0.133202   33.132000   52.774000
  H     -0.509735   31.543900   52.287300
  C     -0.599572   31.834900   54.475300
  H     -0.569145   32.723900   55.073600
  H     -1.606630   31.411000   54.640300
  C      0.593066   30.957300   54.754100
  H      1.583470   31.397900   54.706300
  H      0.361276   30.636400   55.689800
  H      0.578678   30.013200   54.177500
  S     -6.472900   33.084900   50.379800
  C     -6.743410   32.895200   48.654500
  C     -5.537010   32.925300   47.984600
  C     -4.360930   32.956600   48.810100
  C     -4.655130   33.244400   50.140000
  H     -5.551780   32.943300   46.918600
  C     -3.050210   32.786700   48.166500
  H     -2.900550   32.007800   47.506800
  H     -2.367680   32.630800   49.023200
  C     -2.609180   34.054600   47.415900
  H     -3.330950   34.272700   46.653700
  H     -1.771790   33.812000   46.813300
  C     -2.531460   35.304400   48.312600
  H     -2.401720   36.175000   47.654600
  H     -1.728930   35.369100   49.191800
  H     -3.532480   35.441000   48.631600
  H     -2.070260   34.730600   54.094500
  H     -7.690460   33.031500   48.173500

 Total Charge           Charge          ....    0
 Multiplicity           Mult            ....    1
 Number of Electrons    NEL             ....  134
 Basis Dimension        Dim             ....  322

ORBITAL ENERGIES
----------------

  NO   OCC          E(Eh)            E(eV)
   0   2.0000     -88.964787     -2420.8549
   1   2.0000     -88.961654     -2420.7697
   2   2.0000     -10.333909      -281.2000
   3   2.0000     -10.326747      -281.0051
   4   2.0000     -10.316317      -280.7213
   5   2.0000     -10.312421      -280.6152
   6   2.0000     -10.303140      -280.3627
   7   2.0000     -10.300145      -280.2812
   8   2.0000     -10.294230      -280.1202
   9   2.0000     -10.290499      -280.0187
  10   2.0000     -10.289592      -279.9940
  11   2.0000     -10.285474      -279.8820
  12   2.0000     -10.281587      -279.7762
  13   2.0000     -10.280373      -279.7432
  14   2.0000     -10.278466      -279.6913
  15   2.0000     -10.272782      -279.5366
  16   2.0000      -8.080350      -219.8775
  17   2.0000      -8.075093      -219.7344
  18   2.0000      -6.038662      -164.3203
  19   2.0000      -6.034694      -164.2124
  20   2.0000      -6.033831      -164.1889
  21   2.0000      -6.031298      -164.1200
  22   2.0000      -6.029831      -164.0800
  23   2.0000      -6.025625      -163.9656
  24   2.0000      -1.006879       -27.3986
  25   2.0000      -0.980284       -26.6749
  26   2.0000      -0.913293       -24.8520
  27   2.0000      -0.912078       -24.8189
  28   2.0000      -0.868371       -23.6296
  29   2.0000      -0.854078       -23.2406
  30   2.0000      -0.839619       -22.8472
  31   2.0000      -0.812492       -22.1090
  32   2.0000      -0.785058       -21.3625
  33   2.0000      -0.773990       -21.0613
  34   2.0000      -0.710009       -19.3203
  35   2.0000      -0.704571       -19.1724
  36   2.0000      -0.694038       -18.8857
  37   2.0000      -0.655355       -17.8331
  38   2.0000      -0.645748       -17.5717
  39   2.0000      -0.613298       -16.6887
  40   2.0000      -0.598487       -16.2857
  41   2.0000      -0.566756       -15.4222
  42   2.0000      -0.565006       -15.3746
  43   2.0000      -0.553969       -15.0743
  44   2.0000      -0.539249       -14.6737
  45   2.0000      -0.531289       -14.4571
  46   2.0000      -0.526657       -14.3311
  47   2.0000      -0.510975       -13.9043
  48   2.0000      -0.507243       -13.8028
  49   2.0000      -0.503318       -13.6960
  50   2.0000      -0.493860       -13.4386
  51   2.0000      -0.477173       -12.9845
  52   2.0000      -0.467174       -12.7124
  53   2.0000      -0.461926       -12.5697
  54   2.0000      -0.457193       -12.4408
  55   2.0000      -0.451072       -12.2743
  56   2.0000      -0.440394       -11.9837
  57   2.0000      -0.434604       -11.8262
  58   2.0000      -0.425778       -11.5860
  59   2.0000      -0.422778       -11.5044
  60   2.0000      -0.417851       -11.3703
  61   2.0000      -0.413307       -11.2467
  62   2.0000      -0.408737       -11.1223
  63   2.0000      -0.337838        -9.1930
  64   2.0000      -0.329997        -8.9797
  65   2.0000      -0.324319        -8.8252
  66   2.0000      -0.297659        -8.0997
  67   0.0000       0.027886         0.7588
  68   0.0000       0.069081         1.8798
  69   0.0000       0.108743         2.9591
  70   0.0000       0.112087         3.0500
  71   0.0000       0.137991         3.7549

MULLIKEN ATOMIC CHARGES
-----------------------
   0 S :    0.114192
   1 C :   -0.127513
   2 C :   -0.097554
   3 C :    0.018468
   4 C :   -0.144928
   5 H :    0.041874
   6 C :    0.058176
   7 H :    0.033562
   8 H :    0.013591
   9 C :   -0.096510
  10 H :    0.021101
  11 H :    0.042373
  12 C :    0.015251
  13 H :    0.042380
  14 H :    0.007640
  15 H :    0.028446
  16 S :    0.082790
  17 C :   -0.077968
  18 C :   -0.037738
  19 C :   -0.054239
  20 C :   -0.149883
  21 H :    0.012451
  22 C :    0.122317
  23 H :    0.010920
  24 H :    0.002501
  25 C :   -0.064045
  26 H :    0.010266
  27 H :    0.013573
  28 C :   -0.057440
  29 H :    0.024439
  30 H :    0.063966
  31 H :    0.031767
  32 H :    0.036938
  33 H :    0.058834
Sum of atomic charges:   -0.0000000

LOEWDIN ATOMIC CHARGES
----------------------
   0 S :    0.428989
   1 C :   -0.188373
   2 C :   -0.058446
   3 C :   -0.073700
   4 C :   -0.209735
   5 H :    0.040659
   6 C :   -0.037978
   7 H :    0.028972
   8 H :    0.027062
   9 C :   -0.032123
  10 H :    0.018997
  11 H :    0.032216
  12 C :   -0.060132
  13 H :    0.030467
  14 H :    0.017810
  15 H :    0.030543
  16 S :    0.359775
  17 C :   -0.177973
  18 C :   -0.067779
  19 C :   -0.050598
  20 C :   -0.174763
  21 H :    0.025123
  22 C :   -0.030338
  23 H :    0.022664
  24 H :    0.030958
  25 C :   -0.032152
  26 H :    0.020489
  27 H :    0.015706
  28 C :   -0.073481
  29 H :    0.026403
  30 H :    0.041602
  31 H :    0.021902
  32 H :    0.018111
  33 H :    0.029123

  Mayer bond orders larger than 0.100000
B(  0-S ,  1-C ) :   1.1182 B(  0-S ,  4-C ) :   1.2067 B(  1-C ,  2-C ) :   1.5662
B(  1-C , 32-H ) :   0.9931 B(  2-C ,  3-C ) :   1.2509 B(  2-C ,  6-C ) :   1.0244
B(  3-C ,  4-C ) :   1.5369 B(  3-C ,  5-H ) :   0.9821 B(  4-C , 20-C ) :   1.0105
B(  6-C ,  7-H ) :   0.9291 B(  6-C ,  8-H ) :   0.9475 B(  6-C ,  9-C ) :   1.0550
B(  9-C , 10-H ) :   0.9507 B(  9-C , 11-H ) :   0.9603 B(  9-C , 12-C ) :   1.0862
B( 12-C , 13-H ) :   0.9726 B( 12-C , 14-H ) :   0.9666 B( 12-C , 15-H ) :   0.9702
B( 16-S , 17-C ) :   1.1416 B( 16-S , 20-C ) :   1.1159 B( 17-C , 18-C ) :   1.6414
B( 17-C , 33-H ) :   0.9640 B( 18-C , 19-C ) :   1.2020 B( 18-C , 21-H ) :   0.9907
B( 19-C , 20-C ) :   1.6071 B( 19-C , 22-C ) :   1.0558 B( 22-C , 23-H ) :   0.9306
B( 22-C , 24-H ) :   0.9189 B( 22-C , 25-C ) :   1.0788 B( 25-C , 26-H ) :   0.9535
B( 25-C , 27-H ) :   0.9554 B( 25-C , 28-C ) :   1.0680 B( 28-C , 29-H ) :   0.9695
B( 28-C , 30-H ) :   0.9736 B( 28-C , 31-H ) :   0.9681

Dispersion correction           -0.015262129
FINAL SINGLE POINT ENERGY     -1339.850680113833

DIPOLE MOMENT
-------------
                                X             Y             Z
Electronic contribution:    -23.43816       5.31525       0.94019
Nuclear contribution   :     24.05336      -5.46963      -1.20215
                        -----------------------------------------
Total Dipole Moment    :      0.61520      -0.15438      -0.26197
                        -----------------------------------------
Magnitude (a.u.)       :      0.68624
Magnitude (Debye)      :      1.74429

Rotational constants in cm-1:     0.022336     0.007685     0.006959
Rotational constants in MHz :   669.605117   230.378794   208.628899

                             ****ORCA TERMINATED NORMALLY****
TOTAL RUN TIME: 0 days 0 hours 0 minutes 35 seconds 605 msec
