                         Program Version 4.2.1 -  RELEASE  -
|  1> ! wB97X-D3 SP def2-SVP
|  2> %pal
|  3> nprocs 16
|  4> end
|  5>
|  6> * xyz 0 1
|  7> S 	 -38.0198 	 21.4731 	 79.7425
|  8> C 	 -37.226 	 22.386 	 80.9781
|  9> C 	 -36.727 	 23.611 	 80.5331
| 10> C 	 -36.9493 	 23.6601 	 79.1375
| 11> C 	 -37.769 	 22.7281 	 78.5709
| 12> H 	 -36.5324 	 24.3898 	 78.4622
| 13> C 	 -36.0751 	 24.7634 	 81.3072
| 14> H 	 -35.3277 	 25.241 	 80.6332
| 15> H 	 -35.5174 	 24.2353 	 82.1156
| 16> C 	 -36.9512 	 25.8138 	 81.7877
| 17> H 	 -37.4269 	 26.3374 	 80.9259
| 18> H 	 -37.7568 	 25.4947 	 82.4041
| 19> C 	 -36.1723 	 26.9342 	 82.4489
| 20> H 	 -36.844 	 27.7153 	 82.6811
| 21> H 	 -35.7337 	 26.549 	 83.411
| 22> H 	 -35.4448 	 27.3139 	 81.7869
| 23> S 	 -37.6514 	 21.183 	 76.167
| 24> C 	 -38.6877 	 21.6902 	 74.8834
| 25> C 	 -39.0192 	 23.0822 	 74.9984
| 26> C 	 -38.7432 	 23.5834 	 76.3047
| 27> C 	 -38.1531 	 22.6326 	 77.1364
| 28> H 	 -39.5962 	 23.5991 	 74.1587
| 29> C 	 -39.1734 	 24.9276 	 76.7979
| 30> H 	 -39.5447 	 25.4383 	 75.8456
| 31> H 	 -38.2553 	 25.506 	 77.1999
| 32> C 	 -40.2852 	 24.8882 	 77.8092
| 33> H 	 -39.9057 	 24.7192 	 78.7812
| 34> H 	 -41.0205 	 24.0419 	 77.6753
| 35> C 	 -41.1303 	 26.1027 	 77.7899
| 36> H 	 -41.2972 	 26.3873 	 76.7864
| 37> H 	 -40.565 	 26.9159 	 78.2917
| 38> H 	 -42.0429 	 25.9918 	 78.417
| 39> H 	 -37.1762 	 22.0173 	 81.9513
| 40> H 	 -38.9069 	 21.156 	 73.9324
| 41> *
| 42>
| 43>                          ****END OF INPUT****

CARTESIAN COORDINATES (ANGSTROEM)
---------------------------------
  S    -38.019800   21.473100   79.742500
  C    -37.226000   22.386000   80.978100
  C    -36.727000   23.611000   80.533100
  C    -36.949300   23.660100   79.137500
  C    -37.769000   22.728100   78.570900
  H    -36.532400   24.389800   78.462200
  C    -36.075100   24.763400   81.307200
  H    -35.327700   25.241000   80.633200
  H    -35.517400   24.235300   82.115600
  C    -36.951200   25.813800   81.787700
  H    -37.426900   26.337400   80.925900
  H    -37.756800   25.494700   82.404100
  C    -36.172300   26.934200   82.448900
  H    -36.844000   27.715300   82.681100
  H    -35.733700   26.549000   83.411000
  H    -35.444800   27.313900   81.786900
  S    -37.651400   21.183000   76.167000
  C    -38.687700   21.690200   74.883400
  C    -39.019200   23.082200   74.998400
  C    -38.743200   23.583400   76.304700
  C    -38.153100   22.632600   77.136400
  H    -39.596200   23.599100   74.158700
  C    -39.173400   24.927600   76.797900
  H    -39.544700   25.438300   75.845600
  H    -38.255300   25.506000   77.199900
  C    -40.285200   24.888200   77.809200
  H    -39.905700   24.719200   78.781200
  H    -41.020500   24.041900   77.675300
  C    -41.130300   26.102700   77.789900
  H    -41.297200   26.387300   76.786400
  H    -40.565000   26.915900   78.291700
  H    -42.042900   25.991800   78.417000
  H    -37.176200   22.017300   81.951300
  H    -38.906900   21.156000   73.932400

 Total Charge           Charge          ....    0
 Multiplicity           Mult            ....    1
 Number of Electrons    NEL             ....  134
 Basis Dimension        Dim             ....  322

ORBITAL ENERGIES
----------------

  NO   OCC          E(Eh)            E(eV)
   0   2.0000     -88.967626     -2420.9322
   1   2.0000     -88.965766     -2420.8816
   2   2.0000     -10.329098      -281.0690
   3   2.0000     -10.325269      -280.9649
   4   2.0000     -10.322928      -280.9012
   5   2.0000     -10.312634      -280.6210
   6   2.0000     -10.303978      -280.3855
   7   2.0000     -10.303404      -280.3699
   8   2.0000     -10.302700      -280.3507
   9   2.0000     -10.299349      -280.2595
  10   2.0000     -10.297539      -280.2103
  11   2.0000     -10.287672      -279.9418
  12   2.0000     -10.281217      -279.7661
  13   2.0000     -10.275146      -279.6009
  14   2.0000     -10.274542      -279.5845
  15   2.0000     -10.270893      -279.4852
  16   2.0000      -8.081514      -219.9092
  17   2.0000      -8.081093      -219.8977
  18   2.0000      -6.039952      -164.3555
  19   2.0000      -6.039483      -164.3427
  20   2.0000      -6.036304      -164.2562
  21   2.0000      -6.035446      -164.2328
  22   2.0000      -6.032241      -164.1456
  23   2.0000      -6.032015      -164.1395
  24   2.0000      -1.006474       -27.3876
  25   2.0000      -0.982171       -26.7262
  26   2.0000      -0.925855       -25.1938
  27   2.0000      -0.916044       -24.9268
  28   2.0000      -0.866066       -23.5669
  29   2.0000      -0.857105       -23.3230
  30   2.0000      -0.848929       -23.1005
  31   2.0000      -0.807950       -21.9854
  32   2.0000      -0.784240       -21.3403
  33   2.0000      -0.769489       -20.9389
  34   2.0000      -0.702427       -19.1140
  35   2.0000      -0.700394       -19.0587
  36   2.0000      -0.684480       -18.6257
  37   2.0000      -0.656075       -17.8527
  38   2.0000      -0.648054       -17.6344
  39   2.0000      -0.618605       -16.8331
  40   2.0000      -0.590766       -16.0756
  41   2.0000      -0.583403       -15.8752
  42   2.0000      -0.569568       -15.4987
  43   2.0000      -0.561963       -15.2918
  44   2.0000      -0.529367       -14.4048
  45   2.0000      -0.525515       -14.3000
  46   2.0000      -0.517720       -14.0879
  47   2.0000      -0.510935       -13.9033
  48   2.0000      -0.507132       -13.7998
  49   2.0000      -0.496156       -13.5011
  50   2.0000      -0.490459       -13.3461
  51   2.0000      -0.480894       -13.0858
  52   2.0000      -0.469267       -12.7694
  53   2.0000      -0.463993       -12.6259
  54   2.0000      -0.459258       -12.4970
  55   2.0000      -0.450200       -12.2506
  56   2.0000      -0.444733       -12.1018
  57   2.0000      -0.442842       -12.0504
  58   2.0000      -0.438095       -11.9212
  59   2.0000      -0.425481       -11.5779
  60   2.0000      -0.418332       -11.3834
  61   2.0000      -0.412431       -11.2228
  62   2.0000      -0.403363       -10.9761
  63   2.0000      -0.338888        -9.2216
  64   2.0000      -0.332485        -9.0474
  65   2.0000      -0.326730        -8.8908
  66   2.0000      -0.291661        -7.9365
  67   0.0000       0.023648         0.6435
  68   0.0000       0.066949         1.8218
  69   0.0000       0.102268         2.7829
  70   0.0000       0.120095         3.2680
  71   0.0000       0.129131         3.5138

MULLIKEN ATOMIC CHARGES
-----------------------
   0 S :    0.118491
   1 C :   -0.113150
   2 C :   -0.061445
   3 C :    0.015743
   4 C :   -0.169938
   5 H :    0.005622
   6 C :    0.063627
   7 H :    0.025796
   8 H :    0.027663
   9 C :   -0.060694
  10 H :    0.021421
  11 H :    0.022573
  12 C :   -0.015377
  13 H :    0.024993
  14 H :    0.032860
  15 H :    0.021202
  16 S :    0.117067
  17 C :   -0.111199
  18 C :   -0.083154
  19 C :   -0.021512
  20 C :   -0.160204
  21 H :    0.049515
  22 C :    0.031020
  23 H :    0.023354
  24 H :    0.049901
  25 C :   -0.057286
  26 H :    0.026974
  27 H :    0.035573
  28 C :   -0.032095
  29 H :    0.018154
  30 H :    0.017804
  31 H :    0.039682
  32 H :    0.024429
  33 H :    0.072590
Sum of atomic charges:    0.0000000

LOEWDIN ATOMIC CHARGES
----------------------
   0 S :    0.424768
   1 C :   -0.186731
   2 C :   -0.063237
   3 C :   -0.062307
   4 C :   -0.210425
   5 H :    0.025993
   6 C :   -0.032996
   7 H :    0.036416
   8 H :    0.034008
   9 C :   -0.045410
  10 H :    0.029002
  11 H :    0.020346
  12 C :   -0.052503
  13 H :    0.021777
  14 H :    0.028887
  15 H :    0.018302
  16 S :    0.393686
  17 C :   -0.200224
  18 C :   -0.085605
  19 C :   -0.056503
  20 C :   -0.183796
  21 H :    0.043629
  22 C :   -0.037914
  23 H :    0.034038
  24 H :    0.041525
  25 C :   -0.047948
  26 H :    0.020735
  27 H :    0.032676
  28 C :   -0.061445
  29 H :    0.015186
  30 H :    0.024312
  31 H :    0.031544
  32 H :    0.012611
  33 H :    0.037603

  Mayer bond orders larger than 0.100000
B(  0-S ,  1-C ) :   1.1716 B(  0-S ,  4-C ) :   1.1459 B(  1-C ,  2-C ) :   1.5726
B(  1-C , 32-H ) :   0.9795 B(  2-C ,  3-C ) :   1.2619 B(  2-C ,  6-C ) :   1.0090
B(  3-C ,  4-C ) :   1.5735 B(  3-C ,  5-H ) :   0.9878 B(  4-C , 20-C ) :   1.0443
B(  6-C ,  7-H ) :   0.9364 B(  6-C ,  8-H ) :   0.9338 B(  6-C ,  9-C ) :   1.0921
B(  9-C , 10-H ) :   0.9446 B(  9-C , 11-H ) :   0.9501 B(  9-C , 12-C ) :   1.0912
B( 12-C , 13-H ) :   0.9725 B( 12-C , 14-H ) :   0.9734 B( 12-C , 15-H ) :   0.9731
B( 16-S , 17-C ) :   1.1749 B( 16-S , 20-C ) :   1.1307 B( 17-C , 18-C ) :   1.5834
B( 17-C , 20-C ) :   0.1079 B( 17-C , 33-H ) :   0.9610 B( 18-C , 19-C ) :   1.2656
B( 18-C , 21-H ) :   0.9743 B( 19-C , 20-C ) :   1.5791 B( 19-C , 22-C ) :   1.0502
B( 22-C , 23-H ) :   0.9385 B( 22-C , 24-H ) :   0.9199 B( 22-C , 25-C ) :   1.0566
B( 25-C , 26-H ) :   0.9432 B( 25-C , 27-H ) :   0.9591 B( 25-C , 28-C ) :   1.0999
B( 28-C , 29-H ) :   0.9758 B( 28-C , 30-H ) :   0.9701 B( 28-C , 31-H ) :   0.9726

Dispersion correction           -0.014410313
FINAL SINGLE POINT ENERGY     -1339.862649534902

DIPOLE MOMENT
-------------
                                X             Y             Z
Electronic contribution:      4.10253     -28.68662     -11.85416
Nuclear contribution   :     -4.12087      29.34194      12.02900
                        -----------------------------------------
Total Dipole Moment    :     -0.01834       0.65532       0.17484
                        -----------------------------------------
Magnitude (a.u.)       :      0.67849
Magnitude (Debye)      :      1.72459

Rotational constants in cm-1:     0.018902     0.008842     0.006844
Rotational constants in MHz :   566.664603   265.090097   205.167031

                             ****ORCA TERMINATED NORMALLY****
TOTAL RUN TIME: 0 days 0 hours 0 minutes 29 seconds 454 msec
