                         Program Version 4.2.1 -  RELEASE  -
|  1> ! wB97X-D3 SP def2-SVP
|  2> %pal
|  3> nprocs 16
|  4> end
|  5>
|  6> * xyz 0 1
|  7> S 	 5.21996 	 22.9909 	 38.7938
|  8> C 	 4.40503 	 22.2232 	 40.1487
|  9> C 	 4.18636 	 23.1121 	 41.171
| 10> C 	 4.55843 	 24.4009 	 40.785
| 11> C 	 5.12071 	 24.5632 	 39.5375
| 12> H 	 4.46122 	 25.2866 	 41.3818
| 13> C 	 3.4686 	 22.7868 	 42.4757
| 14> H 	 3.2928 	 21.7004 	 42.4854
| 15> H 	 2.52848 	 23.277 	 42.3965
| 16> C 	 4.31583 	 23.2367 	 43.7181
| 17> H 	 5.13733 	 22.5375 	 43.8714
| 18> H 	 4.81829 	 24.2068 	 43.5332
| 19> C 	 3.53914 	 23.335 	 45.0021
| 20> H 	 2.69535 	 23.9206 	 44.9113
| 21> H 	 3.31097 	 22.3176 	 45.3259
| 22> H 	 4.23883 	 23.6181 	 45.7813
| 23> S 	 7.08386 	 25.8846 	 38.1849
| 24> C 	 6.72964 	 27.5107 	 37.603
| 25> C 	 5.44638 	 27.9392 	 37.8267
| 26> C 	 4.66985 	 26.9782 	 38.5412
| 27> C 	 5.45474 	 25.8243 	 38.8562
| 28> H 	 5.0611 	 28.9093 	 37.5972
| 29> C 	 3.21077 	 27.1448 	 38.9217
| 30> H 	 2.7363 	 26.1964 	 38.9851
| 31> H 	 2.67411 	 27.659 	 38.1249
| 32> C 	 2.92919 	 27.9202 	 40.1957
| 33> H 	 3.4286 	 28.9303 	 40.1001
| 34> H 	 3.32894 	 27.444 	 41.08
| 35> C 	 1.48486 	 28.1289 	 40.4365
| 36> H 	 1.37315 	 28.6485 	 41.3406
| 37> H 	 0.900841 	 27.2507 	 40.2008
| 38> H 	 1.08191 	 28.7582 	 39.6517
| 39> H 	 4.24075 	 21.1128 	 40.2001
| 40> H 	 7.38059 	 28.1047 	 37.0441
| 41> *
| 42>
| 43>                          ****END OF INPUT****

CARTESIAN COORDINATES (ANGSTROEM)
---------------------------------
  S      5.219960   22.990900   38.793800
  C      4.405030   22.223200   40.148700
  C      4.186360   23.112100   41.171000
  C      4.558430   24.400900   40.785000
  C      5.120710   24.563200   39.537500
  H      4.461220   25.286600   41.381800
  C      3.468600   22.786800   42.475700
  H      3.292800   21.700400   42.485400
  H      2.528480   23.277000   42.396500
  C      4.315830   23.236700   43.718100
  H      5.137330   22.537500   43.871400
  H      4.818290   24.206800   43.533200
  C      3.539140   23.335000   45.002100
  H      2.695350   23.920600   44.911300
  H      3.310970   22.317600   45.325900
  H      4.238830   23.618100   45.781300
  S      7.083860   25.884600   38.184900
  C      6.729640   27.510700   37.603000
  C      5.446380   27.939200   37.826700
  C      4.669850   26.978200   38.541200
  C      5.454740   25.824300   38.856200
  H      5.061100   28.909300   37.597200
  C      3.210770   27.144800   38.921700
  H      2.736300   26.196400   38.985100
  H      2.674110   27.659000   38.124900
  C      2.929190   27.920200   40.195700
  H      3.428600   28.930300   40.100100
  H      3.328940   27.444000   41.080000
  C      1.484860   28.128900   40.436500
  H      1.373150   28.648500   41.340600
  H      0.900841   27.250700   40.200800
  H      1.081910   28.758200   39.651700
  H      4.240750   21.112800   40.200100
  H      7.380590   28.104700   37.044100

 Total Charge           Charge          ....    0
 Multiplicity           Mult            ....    1
 Number of Electrons    NEL             ....  134
 Basis Dimension        Dim             ....  322

ORBITAL ENERGIES
----------------

  NO   OCC          E(Eh)            E(eV)
   0   2.0000     -88.969499     -2420.9831
   1   2.0000     -88.962315     -2420.7877
   2   2.0000     -10.330831      -281.1162
   3   2.0000     -10.325349      -280.9670
   4   2.0000     -10.315215      -280.6913
   5   2.0000     -10.313931      -280.6563
   6   2.0000     -10.308159      -280.4993
   7   2.0000     -10.295837      -280.1640
   8   2.0000     -10.294320      -280.1227
   9   2.0000     -10.293263      -280.0939
  10   2.0000     -10.287436      -279.9354
  11   2.0000     -10.287299      -279.9316
  12   2.0000     -10.285649      -279.8867
  13   2.0000     -10.283132      -279.8182
  14   2.0000     -10.270146      -279.4649
  15   2.0000     -10.268901      -279.4310
  16   2.0000      -8.083684      -219.9682
  17   2.0000      -8.077204      -219.7919
  18   2.0000      -6.042095      -164.4138
  19   2.0000      -6.038372      -164.3125
  20   2.0000      -6.035725      -164.2404
  21   2.0000      -6.034489      -164.2068
  22   2.0000      -6.031626      -164.1289
  23   2.0000      -6.028000      -164.0302
  24   2.0000      -1.004715       -27.3397
  25   2.0000      -0.982812       -26.7437
  26   2.0000      -0.918459       -24.9925
  27   2.0000      -0.910536       -24.7769
  28   2.0000      -0.870495       -23.6874
  29   2.0000      -0.856621       -23.3098
  30   2.0000      -0.848212       -23.0810
  31   2.0000      -0.816453       -22.2168
  32   2.0000      -0.785754       -21.3815
  33   2.0000      -0.770459       -20.9653
  34   2.0000      -0.706356       -19.2209
  35   2.0000      -0.697358       -18.9761
  36   2.0000      -0.691629       -18.8202
  37   2.0000      -0.663043       -18.0423
  38   2.0000      -0.641174       -17.4472
  39   2.0000      -0.621072       -16.9002
  40   2.0000      -0.602487       -16.3945
  41   2.0000      -0.570893       -15.5348
  42   2.0000      -0.569848       -15.5064
  43   2.0000      -0.557175       -15.1615
  44   2.0000      -0.543576       -14.7915
  45   2.0000      -0.532254       -14.4834
  46   2.0000      -0.515429       -14.0255
  47   2.0000      -0.511147       -13.9090
  48   2.0000      -0.505503       -13.7554
  49   2.0000      -0.500579       -13.6214
  50   2.0000      -0.493251       -13.4220
  51   2.0000      -0.477586       -12.9958
  52   2.0000      -0.469805       -12.7840
  53   2.0000      -0.462948       -12.5975
  54   2.0000      -0.458719       -12.4824
  55   2.0000      -0.453223       -12.3328
  56   2.0000      -0.443519       -12.0688
  57   2.0000      -0.442105       -12.0303
  58   2.0000      -0.440048       -11.9743
  59   2.0000      -0.429695       -11.6926
  60   2.0000      -0.417665       -11.3653
  61   2.0000      -0.414585       -11.2814
  62   2.0000      -0.411396       -11.1946
  63   2.0000      -0.342868        -9.3299
  64   2.0000      -0.332341        -9.0435
  65   2.0000      -0.330581        -8.9956
  66   2.0000      -0.291925        -7.9437
  67   0.0000       0.032761         0.8915
  68   0.0000       0.067858         1.8465
  69   0.0000       0.106930         2.9097
  70   0.0000       0.128564         3.4984
  71   0.0000       0.129909         3.5350

MULLIKEN ATOMIC CHARGES
-----------------------
   0 S :    0.106550
   1 C :   -0.161622
   2 C :   -0.073234
   3 C :    0.015213
   4 C :   -0.135178
   5 H :   -0.005145
   6 C :    0.108821
   7 H :    0.019210
   8 H :    0.031454
   9 C :   -0.123894
  10 H :    0.028300
  11 H :    0.035329
  12 C :    0.008964
  13 H :    0.024901
  14 H :    0.016729
  15 H :    0.028065
  16 S :    0.112755
  17 C :   -0.051110
  18 C :   -0.022981
  19 C :   -0.010121
  20 C :   -0.192692
  21 H :    0.009495
  22 C :    0.066361
  23 H :    0.021560
  24 H :    0.013109
  25 C :   -0.091708
  26 H :    0.026286
  27 H :    0.023211
  28 C :    0.020694
  29 H :    0.032368
  30 H :    0.018342
  31 H :    0.004490
  32 H :    0.065041
  33 H :    0.030436
Sum of atomic charges:    0.0000000

LOEWDIN ATOMIC CHARGES
----------------------
   0 S :    0.400737
   1 C :   -0.201531
   2 C :   -0.070451
   3 C :   -0.066500
   4 C :   -0.204711
   5 H :    0.023985
   6 C :   -0.020251
   7 H :    0.031079
   8 H :    0.028302
   9 C :   -0.041299
  10 H :    0.026609
  11 H :    0.024009
  12 C :   -0.057422
  13 H :    0.013255
  14 H :    0.025850
  15 H :    0.030491
  16 S :    0.403009
  17 C :   -0.169533
  18 C :   -0.063845
  19 C :   -0.043391
  20 C :   -0.194438
  21 H :    0.029729
  22 C :   -0.031995
  23 H :    0.027566
  24 H :    0.030873
  25 C :   -0.040995
  26 H :    0.027800
  27 H :    0.017465
  28 C :   -0.061861
  29 H :    0.024295
  30 H :    0.026639
  31 H :    0.023254
  32 H :    0.037543
  33 H :    0.015732

  Mayer bond orders larger than 0.100000
B(  0-S ,  1-C ) :   1.1471 B(  0-S ,  4-C ) :   1.1505 B(  1-C ,  2-C ) :   1.5986
B(  1-C , 32-H ) :   0.9591 B(  2-C ,  3-C ) :   1.2474 B(  2-C ,  6-C ) :   1.0170
B(  3-C ,  4-C ) :   1.5745 B(  3-C ,  5-H ) :   1.0020 B(  4-C , 20-C ) :   1.0290
B(  6-C ,  7-H ) :   0.9388 B(  6-C ,  8-H ) :   0.9435 B(  6-C ,  9-C ) :   1.0457
B(  9-C , 10-H ) :   0.9530 B(  9-C , 11-H ) :   0.9650 B(  9-C , 12-C ) :   1.0935
B( 12-C , 13-H ) :   0.9781 B( 12-C , 14-H ) :   0.9693 B( 12-C , 15-H ) :   0.9686
B( 16-S , 17-C ) :   1.1470 B( 16-S , 20-C ) :   1.1484 B( 17-C , 18-C ) :   1.6139
B( 17-C , 20-C ) :   0.1010 B( 17-C , 33-H ) :   0.9709 B( 18-C , 19-C ) :   1.2515
B( 18-C , 21-H ) :   0.9893 B( 19-C , 20-C ) :   1.5750 B( 19-C , 22-C ) :   1.0487
B( 22-C , 23-H ) :   0.9235 B( 22-C , 24-H ) :   0.9327 B( 22-C , 25-C ) :   1.0746
B( 25-C , 26-H ) :   0.9500 B( 25-C , 27-H ) :   0.9504 B( 25-C , 28-C ) :   1.0971
B( 28-C , 29-H ) :   0.9695 B( 28-C , 30-H ) :   0.9650 B( 28-C , 31-H ) :   0.9643

Dispersion correction           -0.013924415
FINAL SINGLE POINT ENERGY     -1339.881503181854

DIPOLE MOMENT
-------------
                                X             Y             Z
Electronic contribution:     19.84995      -6.64953     -22.86786
Nuclear contribution   :    -20.34261       6.93388      23.28461
                        -----------------------------------------
Total Dipole Moment    :     -0.49265       0.28435       0.41675
                        -----------------------------------------
Magnitude (a.u.)       :      0.70516
Magnitude (Debye)      :      1.79236

Rotational constants in cm-1:     0.016522     0.009099     0.006807
Rotational constants in MHz :   495.302923   272.795205   204.060290

                             ****ORCA TERMINATED NORMALLY****
TOTAL RUN TIME: 0 days 0 hours 0 minutes 34 seconds 651 msec
