                         Program Version 4.2.1 -  RELEASE  -
|  1> ! wB97X-D3 SP def2-SVP
|  2> %pal
|  3> nprocs 16
|  4> end
|  5>
|  6> * xyz 0 1
|  7> S 	 -1.06674 	 47.2374 	 34.0113
|  8> C 	 -1.13237 	 46.3227 	 35.4693
|  9> C 	 -0.0386078 	 45.5265 	 35.636
| 10> C 	 0.926228 	 45.6937 	 34.6016
| 11> C 	 0.512912 	 46.6742 	 33.7285
| 12> H 	 1.94127 	 45.2232 	 34.4485
| 13> C 	 0.213482 	 44.7303 	 36.9717
| 14> H 	 0.806648 	 43.8814 	 36.6754
| 15> H 	 -0.806834 	 44.4934 	 37.4059
| 16> C 	 1.04449 	 45.4821 	 37.9758
| 17> H 	 1.73716 	 46.1752 	 37.4668
| 18> H 	 0.340114 	 45.9916 	 38.6589
| 19> C 	 1.8275 	 44.6101 	 38.9366
| 20> H 	 1.24929 	 44.0694 	 39.6095
| 21> H 	 2.41189 	 43.845 	 38.4944
| 22> H 	 2.60462 	 45.174 	 39.5594
| 23> S 	 0.752492 	 47.2824 	 30.9941
| 24> C 	 2.14997 	 48.1377 	 30.4779
| 25> C 	 3.12988 	 48.2184 	 31.4627
| 26> C 	 2.68433 	 47.7147 	 32.7256
| 27> C 	 1.35992 	 47.1877 	 32.6848
| 28> H 	 4.1116 	 48.6221 	 31.3463
| 29> C 	 3.41881 	 47.9242 	 34.0312
| 30> H 	 4.39493 	 48.2559 	 33.7481
| 31> H 	 3.69267 	 46.9243 	 34.4724
| 32> C 	 2.74593 	 48.9166 	 35.1024
| 33> H 	 3.53542 	 48.9679 	 35.8621
| 34> H 	 1.82412 	 48.4138 	 35.4033
| 35> C 	 2.35304 	 50.2998 	 34.4427
| 36> H 	 2.07135 	 50.9673 	 35.2414
| 37> H 	 1.41448 	 50.2239 	 33.9274
| 38> H 	 3.0396 	 50.8377 	 33.833
| 39> H 	 -1.97877 	 46.2031 	 36.1349
| 40> H 	 2.41911 	 48.4208 	 29.4214
| 41> *
| 42>
| 43>                          ****END OF INPUT****

CARTESIAN COORDINATES (ANGSTROEM)
---------------------------------
  S     -1.066740   47.237400   34.011300
  C     -1.132370   46.322700   35.469300
  C     -0.038608   45.526500   35.636000
  C      0.926228   45.693700   34.601600
  C      0.512912   46.674200   33.728500
  H      1.941270   45.223200   34.448500
  C      0.213482   44.730300   36.971700
  H      0.806648   43.881400   36.675400
  H     -0.806834   44.493400   37.405900
  C      1.044490   45.482100   37.975800
  H      1.737160   46.175200   37.466800
  H      0.340114   45.991600   38.658900
  C      1.827500   44.610100   38.936600
  H      1.249290   44.069400   39.609500
  H      2.411890   43.845000   38.494400
  H      2.604620   45.174000   39.559400
  S      0.752492   47.282400   30.994100
  C      2.149970   48.137700   30.477900
  C      3.129880   48.218400   31.462700
  C      2.684330   47.714700   32.725600
  C      1.359920   47.187700   32.684800
  H      4.111600   48.622100   31.346300
  C      3.418810   47.924200   34.031200
  H      4.394930   48.255900   33.748100
  H      3.692670   46.924300   34.472400
  C      2.745930   48.916600   35.102400
  H      3.535420   48.967900   35.862100
  H      1.824120   48.413800   35.403300
  C      2.353040   50.299800   34.442700
  H      2.071350   50.967300   35.241400
  H      1.414480   50.223900   33.927400
  H      3.039600   50.837700   33.833000
  H     -1.978770   46.203100   36.134900
  H      2.419110   48.420800   29.421400

 Total Charge           Charge          ....    0
 Multiplicity           Mult            ....    1
 Number of Electrons    NEL             ....  134
 Basis Dimension        Dim             ....  322

ORBITAL ENERGIES
----------------

  NO   OCC          E(Eh)            E(eV)
   0   2.0000     -88.970169     -2421.0014
   1   2.0000     -88.966869     -2420.9116
   2   2.0000     -10.326595      -281.0009
   3   2.0000     -10.323713      -280.9225
   4   2.0000     -10.320260      -280.8286
   5   2.0000     -10.308610      -280.5115
   6   2.0000     -10.303783      -280.3802
   7   2.0000     -10.301082      -280.3067
   8   2.0000     -10.297549      -280.2105
   9   2.0000     -10.297193      -280.2009
  10   2.0000     -10.295855      -280.1645
  11   2.0000     -10.292432      -280.0713
  12   2.0000     -10.292062      -280.0612
  13   2.0000     -10.286793      -279.9179
  14   2.0000     -10.273101      -279.5453
  15   2.0000     -10.270036      -279.4619
  16   2.0000      -8.086114      -220.0344
  17   2.0000      -8.081162      -219.8996
  18   2.0000      -6.044406      -164.4766
  19   2.0000      -6.040535      -164.3713
  20   2.0000      -6.039622      -164.3465
  21   2.0000      -6.036931      -164.2732
  22   2.0000      -6.035642      -164.2382
  23   2.0000      -6.032113      -164.1421
  24   2.0000      -1.013829       -27.5877
  25   2.0000      -0.982817       -26.7438
  26   2.0000      -0.914960       -24.8973
  27   2.0000      -0.896656       -24.3992
  28   2.0000      -0.870892       -23.6982
  29   2.0000      -0.853337       -23.2205
  30   2.0000      -0.841932       -22.9101
  31   2.0000      -0.810421       -22.0527
  32   2.0000      -0.785635       -21.3782
  33   2.0000      -0.771537       -20.9946
  34   2.0000      -0.711058       -19.3489
  35   2.0000      -0.697283       -18.9740
  36   2.0000      -0.687831       -18.7168
  37   2.0000      -0.660239       -17.9660
  38   2.0000      -0.640395       -17.4260
  39   2.0000      -0.614319       -16.7165
  40   2.0000      -0.587486       -15.9863
  41   2.0000      -0.571327       -15.5466
  42   2.0000      -0.564864       -15.3707
  43   2.0000      -0.546077       -14.8595
  44   2.0000      -0.533814       -14.5258
  45   2.0000      -0.521960       -14.2033
  46   2.0000      -0.517683       -14.0869
  47   2.0000      -0.505518       -13.7559
  48   2.0000      -0.502033       -13.6610
  49   2.0000      -0.497926       -13.5492
  50   2.0000      -0.486519       -13.2389
  51   2.0000      -0.477551       -12.9948
  52   2.0000      -0.470642       -12.8068
  53   2.0000      -0.469423       -12.7736
  54   2.0000      -0.464402       -12.6370
  55   2.0000      -0.455183       -12.3862
  56   2.0000      -0.443855       -12.0779
  57   2.0000      -0.433447       -11.7947
  58   2.0000      -0.427366       -11.6292
  59   2.0000      -0.421486       -11.4692
  60   2.0000      -0.419599       -11.4179
  61   2.0000      -0.417034       -11.3481
  62   2.0000      -0.413704       -11.2574
  63   2.0000      -0.343454        -9.3459
  64   2.0000      -0.335777        -9.1370
  65   2.0000      -0.330120        -8.9830
  66   2.0000      -0.289695        -7.8830
  67   0.0000       0.027087         0.7371
  68   0.0000       0.071643         1.9495
  69   0.0000       0.112790         3.0692
  70   0.0000       0.121165         3.2971
  71   0.0000       0.128924         3.5082

MULLIKEN ATOMIC CHARGES
-----------------------
   0 S :    0.141043
   1 C :   -0.114816
   2 C :   -0.092006
   3 C :    0.001688
   4 C :   -0.175235
   5 H :    0.042275
   6 C :    0.067792
   7 H :    0.016557
   8 H :    0.036333
   9 C :   -0.055037
  10 H :    0.043671
  11 H :    0.030400
  12 C :   -0.046097
  13 H :    0.012041
  14 H :    0.009444
  15 H :    0.037705
  16 S :    0.111208
  17 C :   -0.097368
  18 C :   -0.030419
  19 C :   -0.052163
  20 C :   -0.179717
  21 H :    0.009054
  22 C :    0.053364
  23 H :   -0.006067
  24 H :    0.026966
  25 C :   -0.058739
  26 H :    0.042460
  27 H :    0.058499
  28 C :   -0.030670
  29 H :    0.021789
  30 H :    0.030702
  31 H :    0.028609
  32 H :    0.040500
  33 H :    0.076236
Sum of atomic charges:    0.0000000

LOEWDIN ATOMIC CHARGES
----------------------
   0 S :    0.440843
   1 C :   -0.212641
   2 C :   -0.062436
   3 C :   -0.068290
   4 C :   -0.215670
   5 H :    0.046006
   6 C :   -0.026064
   7 H :    0.025349
   8 H :    0.036131
   9 C :   -0.046016
  10 H :    0.029533
  11 H :    0.030612
  12 C :   -0.067979
  13 H :    0.014541
  14 H :    0.014730
  15 H :    0.036648
  16 S :    0.401281
  17 C :   -0.205036
  18 C :   -0.074600
  19 C :   -0.053518
  20 C :   -0.192761
  21 H :    0.027343
  22 C :   -0.041733
  23 H :    0.018886
  24 H :    0.031138
  25 C :   -0.023038
  26 H :    0.026454
  27 H :    0.029984
  28 C :   -0.066451
  29 H :    0.026820
  30 H :    0.028357
  31 H :    0.019853
  32 H :    0.028679
  33 H :    0.043043

  Mayer bond orders larger than 0.100000
B(  0-S ,  1-C ) :   1.1311 B(  0-S ,  4-C ) :   1.1688 B(  1-C ,  2-C ) :   1.6296
B(  1-C , 32-H ) :   0.9644 B(  2-C ,  3-C ) :   1.2316 B(  2-C ,  6-C ) :   1.0279
B(  3-C ,  4-C ) :   1.5580 B(  3-C ,  5-H ) :   0.9900 B(  4-C , 20-C ) :   1.0656
B(  6-C ,  7-H ) :   0.9401 B(  6-C ,  8-H ) :   0.9411 B(  6-C ,  9-C ) :   1.0632
B(  9-C , 10-H ) :   0.9589 B(  9-C , 11-H ) :   0.9532 B(  9-C , 12-C ) :   1.0808
B( 12-C , 13-H ) :   0.9745 B( 12-C , 14-H ) :   0.9730 B( 12-C , 15-H ) :   0.9737
B( 16-S , 17-C ) :   1.1709 B( 16-S , 20-C ) :   1.1352 B( 17-C , 18-C ) :   1.5779
B( 17-C , 20-C ) :   0.1037 B( 17-C , 33-H ) :   0.9559 B( 18-C , 19-C ) :   1.2829
B( 18-C , 21-H ) :   0.9871 B( 19-C , 20-C ) :   1.5478 B( 19-C , 22-C ) :   1.0478
B( 22-C , 23-H ) :   0.9275 B( 22-C , 24-H ) :   0.9322 B( 22-C , 25-C ) :   1.0478
B( 25-C , 26-H ) :   0.9608 B( 25-C , 27-H ) :   0.9535 B( 25-C , 28-C ) :   1.0699
B( 28-C , 29-H ) :   0.9721 B( 28-C , 30-H ) :   0.9698 B( 28-C , 31-H ) :   0.9819

Dispersion correction           -0.016001111
FINAL SINGLE POINT ENERGY     -1339.870053432707

DIPOLE MOMENT
-------------
                                X             Y             Z
Electronic contribution:    -13.44886       0.03917     -25.25194
Nuclear contribution   :     13.87588      -0.08132      25.74184
                        -----------------------------------------
Total Dipole Moment    :      0.42703      -0.04216       0.48990
                        -----------------------------------------
Magnitude (a.u.)       :      0.65125
Magnitude (Debye)      :      1.65535

Rotational constants in cm-1:     0.021422     0.008927     0.007552
Rotational constants in MHz :   642.223554   267.619576   226.405336

                             ****ORCA TERMINATED NORMALLY****
TOTAL RUN TIME: 0 days 0 hours 0 minutes 34 seconds 314 msec
