                         Program Version 4.2.1 -  RELEASE  -
|  1> ! wB97X-D3 SP def2-SVP
|  2> %pal
|  3> nprocs 16
|  4> end
|  5>
|  6> * xyz 0 1
|  7> S 	 35.5643 	 -1.11885 	 74.0719
|  8> C 	 35.7236 	 -0.730004 	 72.4089
|  9> C 	 35.0098 	 0.472222 	 72.1466
| 10> C 	 34.1748 	 0.958467 	 73.1946
| 11> C 	 34.3006 	 0.1444 	 74.3293
| 12> H 	 33.4231 	 1.71026 	 73.1775
| 13> C 	 34.9809 	 1.2146 	 70.7864
| 14> H 	 34.7054 	 2.30627 	 70.8303
| 15> H 	 34.2625 	 0.718159 	 70.1711
| 16> C 	 36.4009 	 1.31395 	 70.1241
| 17> H 	 36.7962 	 0.366984 	 69.9123
| 18> H 	 36.2951 	 1.85392 	 69.1623
| 19> C 	 37.3525 	 2.18806 	 70.8201
| 20> H 	 37.1191 	 3.24935 	 70.8634
| 21> H 	 37.4504 	 1.94485 	 71.8663
| 22> H 	 38.3455 	 2.1268 	 70.3364
| 23> S 	 32.7782 	 -1.4436 	 75.9197
| 24> C 	 32.0194 	 -0.682775 	 77.371
| 25> C 	 31.9966 	 0.703829 	 77.3065
| 26> C 	 32.6544 	 1.13765 	 76.1357
| 27> C 	 33.377 	 0.146526 	 75.4505
| 28> H 	 31.4263 	 1.28001 	 78.021
| 29> C 	 32.7379 	 2.58883 	 75.9029
| 30> H 	 31.7468 	 3.02408 	 75.8439
| 31> H 	 33.2725 	 2.74036 	 74.8925
| 32> C 	 33.5582 	 3.48978 	 76.9082
| 33> H 	 33.5461 	 4.46558 	 76.5646
| 34> H 	 34.6454 	 3.20873 	 76.9654
| 35> C 	 33.158 	 3.26197 	 78.3426
| 36> H 	 32.157 	 3.53519 	 78.6349
| 37> H 	 33.6916 	 3.87469 	 79.0793
| 38> H 	 33.5656 	 2.25191 	 78.548
| 39> H 	 36.2926 	 -1.34111 	 71.6777
| 40> H 	 31.6772 	 -1.31986 	 78.2213
| 41> *
| 42>
| 43>                          ****END OF INPUT****

CARTESIAN COORDINATES (ANGSTROEM)
---------------------------------
  S     35.564300   -1.118850   74.071900
  C     35.723600   -0.730004   72.408900
  C     35.009800    0.472222   72.146600
  C     34.174800    0.958467   73.194600
  C     34.300600    0.144400   74.329300
  H     33.423100    1.710260   73.177500
  C     34.980900    1.214600   70.786400
  H     34.705400    2.306270   70.830300
  H     34.262500    0.718159   70.171100
  C     36.400900    1.313950   70.124100
  H     36.796200    0.366984   69.912300
  H     36.295100    1.853920   69.162300
  C     37.352500    2.188060   70.820100
  H     37.119100    3.249350   70.863400
  H     37.450400    1.944850   71.866300
  H     38.345500    2.126800   70.336400
  S     32.778200   -1.443600   75.919700
  C     32.019400   -0.682775   77.371000
  C     31.996600    0.703829   77.306500
  C     32.654400    1.137650   76.135700
  C     33.377000    0.146526   75.450500
  H     31.426300    1.280010   78.021000
  C     32.737900    2.588830   75.902900
  H     31.746800    3.024080   75.843900
  H     33.272500    2.740360   74.892500
  C     33.558200    3.489780   76.908200
  H     33.546100    4.465580   76.564600
  H     34.645400    3.208730   76.965400
  C     33.158000    3.261970   78.342600
  H     32.157000    3.535190   78.634900
  H     33.691600    3.874690   79.079300
  H     33.565600    2.251910   78.548000
  H     36.292600   -1.341110   71.677700
  H     31.677200   -1.319860   78.221300

 Total Charge           Charge          ....    0
 Multiplicity           Mult            ....    1
 Number of Electrons    NEL             ....  134
 Basis Dimension        Dim             ....  322

ORBITAL ENERGIES
----------------

  NO   OCC          E(Eh)            E(eV)
   0   2.0000     -88.971413     -2421.0352
   1   2.0000     -88.962624     -2420.7961
   2   2.0000     -10.334706      -281.2216
   3   2.0000     -10.329056      -281.0679
   4   2.0000     -10.322390      -280.8865
   5   2.0000     -10.321533      -280.8632
   6   2.0000     -10.309096      -280.5248
   7   2.0000     -10.300832      -280.2999
   8   2.0000     -10.296534      -280.1829
   9   2.0000     -10.294511      -280.1279
  10   2.0000     -10.294028      -280.1147
  11   2.0000     -10.293940      -280.1123
  12   2.0000     -10.284474      -279.8548
  13   2.0000     -10.279579      -279.7216
  14   2.0000     -10.274907      -279.5944
  15   2.0000     -10.268485      -279.4197
  16   2.0000      -8.085428      -220.0157
  17   2.0000      -8.076583      -219.7750
  18   2.0000      -6.043912      -164.4632
  19   2.0000      -6.039971      -164.3560
  20   2.0000      -6.036297      -164.2560
  21   2.0000      -6.035052      -164.2221
  22   2.0000      -6.031425      -164.1234
  23   2.0000      -6.027180      -164.0079
  24   2.0000      -1.002290       -27.2737
  25   2.0000      -0.979579       -26.6557
  26   2.0000      -0.910755       -24.7829
  27   2.0000      -0.906829       -24.6761
  28   2.0000      -0.869660       -23.6646
  29   2.0000      -0.855551       -23.2807
  30   2.0000      -0.846011       -23.0211
  31   2.0000      -0.812238       -22.1021
  32   2.0000      -0.779495       -21.2111
  33   2.0000      -0.764768       -20.8104
  34   2.0000      -0.707515       -19.2525
  35   2.0000      -0.698668       -19.0117
  36   2.0000      -0.685477       -18.6528
  37   2.0000      -0.666962       -18.1490
  38   2.0000      -0.642917       -17.4947
  39   2.0000      -0.609508       -16.5856
  40   2.0000      -0.593082       -16.1386
  41   2.0000      -0.575397       -15.6574
  42   2.0000      -0.556149       -15.1336
  43   2.0000      -0.553979       -15.0745
  44   2.0000      -0.549981       -14.9658
  45   2.0000      -0.533910       -14.5284
  46   2.0000      -0.520593       -14.1661
  47   2.0000      -0.516301       -14.0493
  48   2.0000      -0.498344       -13.5606
  49   2.0000      -0.496496       -13.5103
  50   2.0000      -0.488800       -13.3009
  51   2.0000      -0.482338       -13.1251
  52   2.0000      -0.476705       -12.9718
  53   2.0000      -0.460545       -12.5321
  54   2.0000      -0.456973       -12.4349
  55   2.0000      -0.446434       -12.1481
  56   2.0000      -0.441503       -12.0139
  57   2.0000      -0.431585       -11.7440
  58   2.0000      -0.422790       -11.5047
  59   2.0000      -0.418411       -11.3855
  60   2.0000      -0.415473       -11.3056
  61   2.0000      -0.413512       -11.2522
  62   2.0000      -0.404132       -10.9970
  63   2.0000      -0.352655        -9.5962
  64   2.0000      -0.329008        -8.9528
  65   2.0000      -0.325541        -8.8584
  66   2.0000      -0.279419        -7.6034
  67   0.0000       0.012907         0.3512
  68   0.0000       0.073167         1.9910
  69   0.0000       0.096494         2.6257
  70   0.0000       0.111027         3.0212
  71   0.0000       0.135573         3.6891

MULLIKEN ATOMIC CHARGES
-----------------------
   0 S :    0.124202
   1 C :   -0.142932
   2 C :   -0.088091
   3 C :    0.038895
   4 C :   -0.152413
   5 H :    0.020401
   6 C :    0.043200
   7 H :    0.030686
   8 H :    0.041155
   9 C :   -0.057991
  10 H :    0.013219
  11 H :    0.024932
  12 C :   -0.053035
  13 H :    0.020471
  14 H :    0.027631
  15 H :    0.035564
  16 S :    0.090477
  17 C :   -0.115744
  18 C :   -0.016096
  19 C :   -0.036923
  20 C :   -0.142552
  21 H :    0.029894
  22 C :    0.015558
  23 H :    0.035147
  24 H :    0.028855
  25 C :   -0.037146
  26 H :    0.014988
  27 H :    0.033712
  28 C :   -0.080151
  29 H :    0.026266
  30 H :    0.020497
  31 H :    0.059159
  32 H :    0.075764
  33 H :    0.072399
Sum of atomic charges:   -0.0000000

LOEWDIN ATOMIC CHARGES
----------------------
   0 S :    0.408324
   1 C :   -0.220463
   2 C :   -0.060578
   3 C :   -0.053846
   4 C :   -0.180531
   5 H :    0.028800
   6 C :   -0.030670
   7 H :    0.034877
   8 H :    0.028246
   9 C :   -0.043093
  10 H :    0.010994
  11 H :    0.029778
  12 C :   -0.069478
  13 H :    0.022808
  14 H :    0.020825
  15 H :    0.032105
  16 S :    0.375200
  17 C :   -0.171480
  18 C :   -0.063568
  19 C :   -0.067083
  20 C :   -0.188026
  21 H :    0.038004
  22 C :   -0.039596
  23 H :    0.031850
  24 H :    0.036988
  25 C :   -0.032875
  26 H :    0.010561
  27 H :    0.035117
  28 C :   -0.078629
  29 H :    0.017345
  30 H :    0.026139
  31 H :    0.039280
  32 H :    0.039772
  33 H :    0.032903

  Mayer bond orders larger than 0.100000
B(  0-S ,  1-C ) :   1.1468 B(  0-S ,  4-C ) :   1.1528 B(  1-C ,  2-C ) :   1.5607
B(  1-C , 32-H ) :   0.9683 B(  2-C ,  3-C ) :   1.2699 B(  2-C ,  6-C ) :   1.0062
B(  3-C ,  4-C ) :   1.5328 B(  3-C ,  5-H ) :   0.9866 B(  4-C , 20-C ) :   1.0825
B(  6-C ,  7-H ) :   0.9559 B(  6-C ,  8-H ) :   0.9425 B(  6-C ,  9-C ) :   1.0720
B(  9-C , 10-H ) :   0.9561 B(  9-C , 11-H ) :   0.9537 B(  9-C , 12-C ) :   1.0861
B( 12-C , 13-H ) :   0.9709 B( 12-C , 14-H ) :   0.9726 B( 12-C , 15-H ) :   0.9702
B( 16-S , 17-C ) :   1.1401 B( 16-S , 20-C ) :   1.1374 B( 17-C , 18-C ) :   1.5991
B( 17-C , 20-C ) :   0.1037 B( 17-C , 33-H ) :   0.9611 B( 18-C , 19-C ) :   1.2325
B( 18-C , 21-H ) :   0.9891 B( 19-C , 20-C ) :   1.5625 B( 19-C , 22-C ) :   1.0684
B( 22-C , 23-H ) :   0.9298 B( 22-C , 24-H ) :   0.9320 B( 22-C , 25-C ) :   1.0636
B( 25-C , 26-H ) :   0.9589 B( 25-C , 27-H ) :   0.9564 B( 25-C , 28-C ) :   1.0888
B( 28-C , 29-H ) :   0.9701 B( 28-C , 30-H ) :   0.9656 B( 28-C , 31-H ) :   0.9629

Dispersion correction           -0.014280353
FINAL SINGLE POINT ENERGY     -1339.841137937402

DIPOLE MOMENT
-------------
                                X             Y             Z
Electronic contribution:     -5.53552     -23.29502       6.00952
Nuclear contribution   :      5.41373      23.84485      -6.15873
                        -----------------------------------------
Total Dipole Moment    :     -0.12180       0.54984      -0.14921
                        -----------------------------------------
Magnitude (a.u.)       :      0.58260
Magnitude (Debye)      :      1.48084

Rotational constants in cm-1:     0.022084     0.007959     0.006422
Rotational constants in MHz :   662.068429   238.617409   192.513214

                             ****ORCA TERMINATED NORMALLY****
TOTAL RUN TIME: 0 days 0 hours 0 minutes 32 seconds 1 msec
