                         Program Version 4.2.1 -  RELEASE  -
|  1> ! wB97X-D3 SP def2-SVP
|  2> %pal
|  3> nprocs 16
|  4> end
|  5>
|  6> * xyz 0 1
|  7> S 	 -84.698 	 53.0584 	 134.848
|  8> C 	 -85.0329 	 54.2476 	 136.096
|  9> C 	 -83.9196 	 54.4616 	 136.905
| 10> C 	 -82.7941 	 53.7637 	 136.405
| 11> C 	 -83.0478 	 52.8527 	 135.386
| 12> H 	 -81.7917 	 53.8357 	 136.814
| 13> C 	 -83.8269 	 55.4998 	 138.005
| 14> H 	 -83.1802 	 56.2537 	 137.787
| 15> H 	 -83.4541 	 54.9267 	 138.832
| 16> C 	 -85.1586 	 56.1495 	 138.54
| 17> H 	 -85.7064 	 56.5387 	 137.685
| 18> H 	 -85.8447 	 55.2957 	 138.878
| 19> C 	 -84.9574 	 57.2481 	 139.55
| 20> H 	 -84.6523 	 58.2161 	 139.061
| 21> H 	 -85.8475 	 57.4112 	 140.095
| 22> H 	 -84.1266 	 57.0329 	 140.283
| 23> S 	 -82.0933 	 52.1165 	 132.813
| 24> C 	 -80.4395 	 51.5065 	 132.831
| 25> C 	 -80.058 	 50.9896 	 134.028
| 26> C 	 -80.9785 	 51.3836 	 135.048
| 27> C 	 -82.039 	 52.1387 	 134.577
| 28> H 	 -79.177 	 50.3259 	 134.075
| 29> C 	 -80.693 	 51.0098 	 136.535
| 30> H 	 -80.9026 	 49.9257 	 136.578
| 31> H 	 -81.4248 	 51.4477 	 137.154
| 32> C 	 -79.1911 	 51.1749 	 136.954
| 33> H 	 -78.685 	 50.6085 	 136.263
| 34> H 	 -79.2147 	 50.7042 	 137.948
| 35> C 	 -78.6062 	 52.6023 	 136.977
| 36> H 	 -77.882 	 52.5703 	 137.729
| 37> H 	 -79.3794 	 53.3826 	 137.242
| 38> H 	 -78.2838 	 52.6924 	 135.962
| 39> H 	 -85.9459 	 54.7873 	 136.285
| 40> H 	 -79.9762 	 51.1634 	 131.94
| 41> *
| 42>
| 43>                          ****END OF INPUT****

CARTESIAN COORDINATES (ANGSTROEM)
---------------------------------
  S    -84.698000   53.058400  134.848000
  C    -85.032900   54.247600  136.096000
  C    -83.919600   54.461600  136.905000
  C    -82.794100   53.763700  136.405000
  C    -83.047800   52.852700  135.386000
  H    -81.791700   53.835700  136.814000
  C    -83.826900   55.499800  138.005000
  H    -83.180200   56.253700  137.787000
  H    -83.454100   54.926700  138.832000
  C    -85.158600   56.149500  138.540000
  H    -85.706400   56.538700  137.685000
  H    -85.844700   55.295700  138.878000
  C    -84.957400   57.248100  139.550000
  H    -84.652300   58.216100  139.061000
  H    -85.847500   57.411200  140.095000
  H    -84.126600   57.032900  140.283000
  S    -82.093300   52.116500  132.813000
  C    -80.439500   51.506500  132.831000
  C    -80.058000   50.989600  134.028000
  C    -80.978500   51.383600  135.048000
  C    -82.039000   52.138700  134.577000
  H    -79.177000   50.325900  134.075000
  C    -80.693000   51.009800  136.535000
  H    -80.902600   49.925700  136.578000
  H    -81.424800   51.447700  137.154000
  C    -79.191100   51.174900  136.954000
  H    -78.685000   50.608500  136.263000
  H    -79.214700   50.704200  137.948000
  C    -78.606200   52.602300  136.977000
  H    -77.882000   52.570300  137.729000
  H    -79.379400   53.382600  137.242000
  H    -78.283800   52.692400  135.962000
  H    -85.945900   54.787300  136.285000
  H    -79.976200   51.163400  131.940000

 Total Charge           Charge          ....    0
 Multiplicity           Mult            ....    1
 Number of Electrons    NEL             ....  134
 Basis Dimension        Dim             ....  322

ORBITAL ENERGIES
----------------

  NO   OCC          E(Eh)            E(eV)
   0   2.0000     -88.966480     -2420.9010
   1   2.0000     -88.965668     -2420.8789
   2   2.0000     -10.330342      -281.1029
   3   2.0000     -10.328285      -281.0469
   4   2.0000     -10.313394      -280.6417
   5   2.0000     -10.313212      -280.6368
   6   2.0000     -10.303503      -280.3726
   7   2.0000     -10.300440      -280.2892
   8   2.0000     -10.296289      -280.1763
   9   2.0000     -10.294616      -280.1307
  10   2.0000     -10.292491      -280.0729
  11   2.0000     -10.289525      -279.9922
  12   2.0000     -10.286541      -279.9110
  13   2.0000     -10.285507      -279.8829
  14   2.0000     -10.282606      -279.8039
  15   2.0000     -10.275797      -279.6187
  16   2.0000      -8.080951      -219.8939
  17   2.0000      -8.080208      -219.8736
  18   2.0000      -6.039488      -164.3428
  19   2.0000      -6.038793      -164.3239
  20   2.0000      -6.035496      -164.2342
  21   2.0000      -6.035178      -164.2256
  22   2.0000      -6.031713      -164.1313
  23   2.0000      -6.030466      -164.0973
  24   2.0000      -1.005287       -27.3552
  25   2.0000      -0.984655       -26.7938
  26   2.0000      -0.911630       -24.8067
  27   2.0000      -0.905564       -24.6417
  28   2.0000      -0.868656       -23.6373
  29   2.0000      -0.852374       -23.1943
  30   2.0000      -0.845559       -23.0088
  31   2.0000      -0.815627       -22.1943
  32   2.0000      -0.786521       -21.4023
  33   2.0000      -0.775229       -21.0951
  34   2.0000      -0.711806       -19.3692
  35   2.0000      -0.699889       -19.0450
  36   2.0000      -0.691958       -18.8291
  37   2.0000      -0.654278       -17.8038
  38   2.0000      -0.636255       -17.3134
  39   2.0000      -0.615084       -16.7373
  40   2.0000      -0.600045       -16.3281
  41   2.0000      -0.575026       -15.6472
  42   2.0000      -0.569586       -15.4992
  43   2.0000      -0.553533       -15.0624
  44   2.0000      -0.539728       -14.6868
  45   2.0000      -0.526022       -14.3138
  46   2.0000      -0.522228       -14.2106
  47   2.0000      -0.507887       -13.8203
  48   2.0000      -0.504849       -13.7376
  49   2.0000      -0.501151       -13.6370
  50   2.0000      -0.492679       -13.4065
  51   2.0000      -0.477846       -13.0028
  52   2.0000      -0.471626       -12.8336
  53   2.0000      -0.469578       -12.7779
  54   2.0000      -0.461530       -12.5589
  55   2.0000      -0.454848       -12.3770
  56   2.0000      -0.448974       -12.2172
  57   2.0000      -0.433638       -11.7999
  58   2.0000      -0.428416       -11.6578
  59   2.0000      -0.425285       -11.5726
  60   2.0000      -0.422546       -11.4980
  61   2.0000      -0.415729       -11.3126
  62   2.0000      -0.409217       -11.1354
  63   2.0000      -0.352168        -9.5830
  64   2.0000      -0.333150        -9.0655
  65   2.0000      -0.327127        -8.9016
  66   2.0000      -0.287265        -7.8169
  67   0.0000       0.026291         0.7154
  68   0.0000       0.069512         1.8915
  69   0.0000       0.104927         2.8552
  70   0.0000       0.124468         3.3870
  71   0.0000       0.134016         3.6468

MULLIKEN ATOMIC CHARGES
-----------------------
   0 S :    0.100314
   1 C :   -0.118803
   2 C :   -0.093110
   3 C :    0.012678
   4 C :   -0.142276
   5 H :   -0.000439
   6 C :    0.107460
   7 H :    0.021017
   8 H :    0.025848
   9 C :   -0.142587
  10 H :    0.029667
  11 H :    0.040971
  12 C :   -0.029613
  13 H :    0.040760
  14 H :    0.032892
  15 H :    0.034278
  16 S :    0.102390
  17 C :   -0.069030
  18 C :   -0.064117
  19 C :   -0.064274
  20 C :   -0.133102
  21 H :    0.041862
  22 C :    0.077122
  23 H :    0.035814
  24 H :    0.009597
  25 C :   -0.081094
  26 H :    0.008489
  27 H :    0.033655
  28 C :   -0.011891
  29 H :    0.029554
  30 H :    0.041169
  31 H :    0.039371
  32 H :    0.043071
  33 H :    0.042357
Sum of atomic charges:    0.0000000

LOEWDIN ATOMIC CHARGES
----------------------
   0 S :    0.401989
   1 C :   -0.198172
   2 C :   -0.062686
   3 C :   -0.061852
   4 C :   -0.190250
   5 H :    0.027520
   6 C :   -0.020897
   7 H :    0.018716
   8 H :    0.033370
   9 C :   -0.050492
  10 H :    0.018976
  11 H :    0.030330
  12 C :   -0.066830
  13 H :    0.033451
  14 H :    0.023971
  15 H :    0.030537
  16 S :    0.384991
  17 C :   -0.168887
  18 C :   -0.075350
  19 C :   -0.054449
  20 C :   -0.196105
  21 H :    0.040535
  22 C :   -0.025601
  23 H :    0.038574
  24 H :    0.016768
  25 C :   -0.031268
  26 H :    0.007500
  27 H :    0.026057
  28 C :   -0.056303
  29 H :    0.020859
  30 H :    0.030756
  31 H :    0.028582
  32 H :    0.026493
  33 H :    0.019168

  Mayer bond orders larger than 0.100000
B(  0-S ,  1-C ) :   1.1380 B(  0-S ,  4-C ) :   1.1437 B(  1-C ,  2-C ) :   1.6044
B(  1-C , 32-H ) :   0.9608 B(  2-C ,  3-C ) :   1.2706 B(  2-C ,  6-C ) :   1.0050
B(  3-C ,  4-C ) :   1.5605 B(  3-C ,  5-H ) :   0.9902 B(  4-C , 20-C ) :   1.0492
B(  6-C ,  7-H ) :   0.9470 B(  6-C ,  8-H ) :   0.9282 B(  6-C ,  9-C ) :   1.0718
B(  9-C , 10-H ) :   0.9488 B(  9-C , 11-H ) :   0.9589 B(  9-C , 12-C ) :   1.0830
B( 12-C , 13-H ) :   0.9713 B( 12-C , 14-H ) :   0.9712 B( 12-C , 15-H ) :   0.9754
B( 16-S , 17-C ) :   1.1458 B( 16-S , 20-C ) :   1.1143 B( 17-C , 18-C ) :   1.6499
B( 17-C , 33-H ) :   0.9614 B( 18-C , 19-C ) :   1.2132 B( 18-C , 21-H ) :   0.9828
B( 19-C , 20-C ) :   1.6174 B( 19-C , 22-C ) :   1.0292 B( 22-C , 23-H ) :   0.9330
B( 22-C , 24-H ) :   0.9366 B( 22-C , 25-C ) :   1.0687 B( 25-C , 26-H ) :   0.9574
B( 25-C , 27-H ) :   0.9591 B( 25-C , 28-C ) :   1.0569 B( 28-C , 29-H ) :   0.9745
B( 28-C , 30-H ) :   0.9787 B( 28-C , 31-H ) :   0.9763

Dispersion correction           -0.014069291
FINAL SINGLE POINT ENERGY     -1339.858520013024

DIPOLE MOMENT
-------------
                                X             Y             Z
Electronic contribution:     -8.37087     -10.71457     -25.47775
Nuclear contribution   :      8.76578      10.77608      26.05852
                        -----------------------------------------
Total Dipole Moment    :      0.39491       0.06152       0.58077
                        -----------------------------------------
Magnitude (a.u.)       :      0.70500
Magnitude (Debye)      :      1.79198

Rotational constants in cm-1:     0.020492     0.007781     0.006022
Rotational constants in MHz :   614.328930   233.276254   180.545798

                             ****ORCA TERMINATED NORMALLY****
TOTAL RUN TIME: 0 days 0 hours 0 minutes 34 seconds 643 msec
