                         Program Version 4.2.1 -  RELEASE  -
|  1> ! wB97X-D3 SP def2-SVP
|  2> %pal
|  3> nprocs 16
|  4> end
|  5>
|  6> * xyz 0 1
|  7> S 	 -2.32437 	 48.149 	 44.2527
|  8> C 	 -1.43699 	 49.6306 	 44.8637
|  9> C 	 -2.40655 	 50.4228 	 45.4771
| 10> C 	 -3.7098 	 49.8928 	 45.4538
| 11> C 	 -3.86424 	 48.7027 	 44.7198
| 12> H 	 -4.59649 	 50.4491 	 45.903
| 13> C 	 -2.07096 	 51.7755 	 46.0185
| 14> H 	 -2.68618 	 52.4654 	 45.399
| 15> H 	 -0.982228 	 51.9931 	 45.8554
| 16> C 	 -2.43063 	 52.1262 	 47.4994
| 17> H 	 -1.64747 	 51.6564 	 48.1339
| 18> H 	 -2.2259 	 53.1409 	 47.6321
| 19> C 	 -3.7663 	 51.8518 	 48.0998
| 20> H 	 -4.5911 	 52.3282 	 47.5012
| 21> H 	 -4.05759 	 50.7763 	 48.3102
| 22> H 	 -3.86083 	 52.4116 	 49.062
| 23> S 	 -6.60077 	 48.8826 	 43.9854
| 24> C 	 -7.37682 	 47.376 	 43.5257
| 25> C 	 -6.63258 	 46.3154 	 43.8447
| 26> C 	 -5.3113 	 46.558 	 44.3299
| 27> C 	 -5.11085 	 47.9627 	 44.4354
| 28> H 	 -7.14541 	 45.3554 	 43.7055
| 29> C 	 -4.45928 	 45.4384 	 44.8813
| 30> H 	 -3.65045 	 45.9309 	 45.4241
| 31> H 	 -3.85478 	 44.9844 	 44.0634
| 32> C 	 -5.11648 	 44.324 	 45.7738
| 33> H 	 -4.32805 	 43.664 	 46.2151
| 34> H 	 -5.64579 	 43.7427 	 45.0587
| 35> C 	 -6.11976 	 44.6852 	 46.9083
| 36> H 	 -5.5319 	 45.3129 	 47.5946
| 37> H 	 -6.44989 	 43.7667 	 47.4605
| 38> H 	 -6.9605 	 45.2497 	 46.5414
| 39> H 	 -0.411253 	 49.9381 	 44.5708
| 40> H 	 -8.27729 	 47.2618 	 43.154
| 41> *
| 42>
| 43>                          ****END OF INPUT****

CARTESIAN COORDINATES (ANGSTROEM)
---------------------------------
  S     -2.324370   48.149000   44.252700
  C     -1.436990   49.630600   44.863700
  C     -2.406550   50.422800   45.477100
  C     -3.709800   49.892800   45.453800
  C     -3.864240   48.702700   44.719800
  H     -4.596490   50.449100   45.903000
  C     -2.070960   51.775500   46.018500
  H     -2.686180   52.465400   45.399000
  H     -0.982228   51.993100   45.855400
  C     -2.430630   52.126200   47.499400
  H     -1.647470   51.656400   48.133900
  H     -2.225900   53.140900   47.632100
  C     -3.766300   51.851800   48.099800
  H     -4.591100   52.328200   47.501200
  H     -4.057590   50.776300   48.310200
  H     -3.860830   52.411600   49.062000
  S     -6.600770   48.882600   43.985400
  C     -7.376820   47.376000   43.525700
  C     -6.632580   46.315400   43.844700
  C     -5.311300   46.558000   44.329900
  C     -5.110850   47.962700   44.435400
  H     -7.145410   45.355400   43.705500
  C     -4.459280   45.438400   44.881300
  H     -3.650450   45.930900   45.424100
  H     -3.854780   44.984400   44.063400
  C     -5.116480   44.324000   45.773800
  H     -4.328050   43.664000   46.215100
  H     -5.645790   43.742700   45.058700
  C     -6.119760   44.685200   46.908300
  H     -5.531900   45.312900   47.594600
  H     -6.449890   43.766700   47.460500
  H     -6.960500   45.249700   46.541400
  H     -0.411253   49.938100   44.570800
  H     -8.277290   47.261800   43.154000

 Total Charge           Charge          ....    0
 Multiplicity           Mult            ....    1
 Number of Electrons    NEL             ....  134
 Basis Dimension        Dim             ....  322

ORBITAL ENERGIES
----------------

  NO   OCC          E(Eh)            E(eV)
   0   2.0000     -88.969038     -2420.9706
   1   2.0000     -88.965440     -2420.8727
   2   2.0000     -10.339739      -281.3586
   3   2.0000     -10.334599      -281.2187
   4   2.0000     -10.321059      -280.8503
   5   2.0000     -10.310518      -280.5635
   6   2.0000     -10.304875      -280.4099
   7   2.0000     -10.301323      -280.3132
   8   2.0000     -10.298027      -280.2236
   9   2.0000     -10.296213      -280.1742
  10   2.0000     -10.295075      -280.1432
  11   2.0000     -10.291332      -280.0414
  12   2.0000     -10.289528      -279.9923
  13   2.0000     -10.287105      -279.9264
  14   2.0000     -10.284661      -279.8599
  15   2.0000     -10.280475      -279.7460
  16   2.0000      -8.082697      -219.9414
  17   2.0000      -8.079461      -219.8533
  18   2.0000      -6.041376      -164.3942
  19   2.0000      -6.038063      -164.3041
  20   2.0000      -6.037519      -164.2892
  21   2.0000      -6.033872      -164.1900
  22   2.0000      -6.033197      -164.1716
  23   2.0000      -6.030337      -164.0938
  24   2.0000      -1.002480       -27.2789
  25   2.0000      -0.982152       -26.7257
  26   2.0000      -0.912278       -24.8243
  27   2.0000      -0.901320       -24.5262
  28   2.0000      -0.871103       -23.7039
  29   2.0000      -0.846780       -23.0421
  30   2.0000      -0.842505       -22.9257
  31   2.0000      -0.813703       -22.1420
  32   2.0000      -0.786965       -21.4144
  33   2.0000      -0.775126       -21.0922
  34   2.0000      -0.711048       -19.3486
  35   2.0000      -0.700776       -19.0691
  36   2.0000      -0.694424       -18.8962
  37   2.0000      -0.657067       -17.8797
  38   2.0000      -0.624510       -16.9938
  39   2.0000      -0.613563       -16.6959
  40   2.0000      -0.599097       -16.3023
  41   2.0000      -0.569805       -15.5052
  42   2.0000      -0.552974       -15.0472
  43   2.0000      -0.546024       -14.8581
  44   2.0000      -0.540625       -14.7112
  45   2.0000      -0.533957       -14.5297
  46   2.0000      -0.522104       -14.2072
  47   2.0000      -0.511148       -13.9090
  48   2.0000      -0.503593       -13.7035
  49   2.0000      -0.498419       -13.5627
  50   2.0000      -0.485723       -13.2172
  51   2.0000      -0.481004       -13.0888
  52   2.0000      -0.470757       -12.8099
  53   2.0000      -0.464948       -12.6519
  54   2.0000      -0.457592       -12.4517
  55   2.0000      -0.446665       -12.1544
  56   2.0000      -0.442561       -12.0427
  57   2.0000      -0.441566       -12.0156
  58   2.0000      -0.430434       -11.7127
  59   2.0000      -0.423843       -11.5334
  60   2.0000      -0.416357       -11.3297
  61   2.0000      -0.411106       -11.1868
  62   2.0000      -0.402896       -10.9633
  63   2.0000      -0.352391        -9.5891
  64   2.0000      -0.332342        -9.0435
  65   2.0000      -0.327242        -8.9047
  66   2.0000      -0.285645        -7.7728
  67   0.0000       0.018990         0.5167
  68   0.0000       0.072003         1.9593
  69   0.0000       0.100664         2.7392
  70   0.0000       0.120441         3.2774
  71   0.0000       0.132611         3.6085

MULLIKEN ATOMIC CHARGES
-----------------------
   0 S :    0.090251
   1 C :   -0.158028
   2 C :   -0.065754
   3 C :   -0.024321
   4 C :   -0.112006
   5 H :    0.033865
   6 C :    0.041273
   7 H :    0.039419
   8 H :    0.027459
   9 C :   -0.044460
  10 H :    0.026885
  11 H :    0.013883
  12 C :   -0.093959
  13 H :    0.032111
  14 H :    0.059964
  15 H :    0.037725
  16 S :    0.101165
  17 C :   -0.015850
  18 C :   -0.050865
  19 C :   -0.044458
  20 C :   -0.142495
  21 H :    0.023687
  22 C :    0.064064
  23 H :    0.016037
  24 H :    0.043534
  25 C :   -0.089722
  26 H :    0.042326
  27 H :    0.021065
  28 C :   -0.049925
  29 H :    0.034968
  30 H :    0.046251
  31 H :    0.039881
  32 H :    0.070368
  33 H :   -0.014338
Sum of atomic charges:    0.0000000

LOEWDIN ATOMIC CHARGES
----------------------
   0 S :    0.405374
   1 C :   -0.196122
   2 C :   -0.064026
   3 C :   -0.090655
   4 C :   -0.197947
   5 H :    0.039977
   6 C :   -0.032703
   7 H :    0.036018
   8 H :    0.036354
   9 C :   -0.045962
  10 H :    0.028754
  11 H :    0.020203
  12 C :   -0.081129
  13 H :    0.025741
  14 H :    0.033721
  15 H :    0.034993
  16 S :    0.381375
  17 C :   -0.155755
  18 C :   -0.070710
  19 C :   -0.055974
  20 C :   -0.173736
  21 H :    0.035965
  22 C :   -0.042767
  23 H :    0.021325
  24 H :    0.041848
  25 C :   -0.040675
  26 H :    0.034344
  27 H :    0.013454
  28 C :   -0.065647
  29 H :    0.027503
  30 H :    0.034535
  31 H :    0.022730
  32 H :    0.039760
  33 H :   -0.000165

  Mayer bond orders larger than 0.100000
B(  0-S ,  1-C ) :   1.1157 B(  0-S ,  4-C ) :   1.1763 B(  1-C ,  2-C ) :   1.5735
B(  1-C ,  4-C ) :   0.1023 B(  1-C , 32-H ) :   0.9666 B(  2-C ,  3-C ) :   1.2815
B(  2-C ,  6-C ) :   1.0246 B(  3-C ,  4-C ) :   1.5060 B(  3-C ,  5-H ) :   0.9768
B(  4-C , 20-C ) :   1.0547 B(  6-C ,  7-H ) :   0.9353 B(  6-C ,  8-H ) :   0.9429
B(  6-C ,  9-C ) :   1.0746 B(  9-C , 10-H ) :   0.9478 B(  9-C , 11-H ) :   0.9497
B(  9-C , 12-C ) :   1.0991 B( 12-C , 13-H ) :   0.9666 B( 12-C , 14-H ) :   0.9671
B( 12-C , 15-H ) :   0.9644 B( 16-S , 17-C ) :   1.1255 B( 16-S , 20-C ) :   1.1300
B( 17-C , 18-C ) :   1.6656 B( 17-C , 33-H ) :   0.9765 B( 18-C , 19-C ) :   1.2090
B( 18-C , 21-H ) :   0.9820 B( 19-C , 20-C ) :   1.5768 B( 19-C , 22-C ) :   1.0413
B( 22-C , 23-H ) :   0.9291 B( 22-C , 24-H ) :   0.9277 B( 22-C , 25-C ) :   1.0577
B( 25-C , 26-H ) :   0.9564 B( 25-C , 27-H ) :   0.9537 B( 25-C , 28-C ) :   1.0780
B( 28-C , 29-H ) :   0.9778 B( 28-C , 30-H ) :   0.9725 B( 28-C , 31-H ) :   0.9725

Dispersion correction           -0.014377592
FINAL SINGLE POINT ENERGY     -1339.859869468042

DIPOLE MOMENT
-------------
                                X             Y             Z
Electronic contribution:     -0.89967       0.77526     -17.65532
Nuclear contribution   :      0.82972      -0.74384      17.92848
                        -----------------------------------------
Total Dipole Moment    :     -0.06996       0.03142       0.27316
                        -----------------------------------------
Magnitude (a.u.)       :      0.28372
Magnitude (Debye)      :      0.72116

Rotational constants in cm-1:     0.020134     0.007770     0.007284
Rotational constants in MHz :   603.603916   232.951274   218.376410

                             ****ORCA TERMINATED NORMALLY****
TOTAL RUN TIME: 0 days 0 hours 0 minutes 33 seconds 534 msec
