                         Program Version 4.2.1 -  RELEASE  -
|  1> ! wB97X-D3 SP def2-SVP
|  2> %pal
|  3> nprocs 16
|  4> end
|  5>
|  6> * xyz 0 1
|  7> S 	 -90.4583 	 40.0251 	 113.361
|  8> C 	 -89.3281 	 40.1385 	 114.686
|  9> C 	 -89.6234 	 41.1833 	 115.57
| 10> C 	 -90.8212 	 41.8604 	 115.22
| 11> C 	 -91.4073 	 41.3637 	 114.06
| 12> H 	 -91.3968 	 42.6641 	 115.849
| 13> C 	 -88.9816 	 41.3897 	 116.951
| 14> H 	 -89.1637 	 42.4151 	 117.123
| 15> H 	 -87.9244 	 41.1375 	 116.823
| 16> C 	 -89.563 	 40.4239 	 118.033
| 17> H 	 -89.8257 	 39.4911 	 117.506
| 18> H 	 -88.8222 	 40.2077 	 118.783
| 19> C 	 -90.8685 	 40.8608 	 118.769
| 20> H 	 -91.4819 	 41.2311 	 118.022
| 21> H 	 -91.3219 	 39.9987 	 119.253
| 22> H 	 -90.7694 	 41.5815 	 119.62
| 23> S 	 -92.3003 	 42.2988 	 111.687
| 24> C 	 -94.0283 	 42.6668 	 111.524
| 25> C 	 -94.7433 	 42.6079 	 112.708
| 26> C 	 -93.872 	 42.1997 	 113.756
| 27> C 	 -92.5625 	 41.9293 	 113.353
| 28> H 	 -95.7771 	 42.9219 	 112.855
| 29> C 	 -94.3531 	 42.1392 	 115.196
| 30> H 	 -93.5392 	 41.8024 	 115.702
| 31> H 	 -94.9548 	 41.1708 	 115.275
| 32> C 	 -95.1503 	 43.367 	 115.728
| 33> H 	 -96.1644 	 43.463 	 115.332
| 34> H 	 -94.5877 	 44.3338 	 115.454
| 35> C 	 -95.1271 	 43.341 	 117.259
| 36> H 	 -95.6673 	 44.2152 	 117.717
| 37> H 	 -94.0926 	 43.2505 	 117.665
| 38> H 	 -95.6133 	 42.3769 	 117.605
| 39> H 	 -88.4744 	 39.4644 	 114.714
| 40> H 	 -94.465 	 43.0434 	 110.611
| 41> *
| 42>
| 43>                          ****END OF INPUT****

CARTESIAN COORDINATES (ANGSTROEM)
---------------------------------
  S    -90.458300   40.025100  113.361000
  C    -89.328100   40.138500  114.686000
  C    -89.623400   41.183300  115.570000
  C    -90.821200   41.860400  115.220000
  C    -91.407300   41.363700  114.060000
  H    -91.396800   42.664100  115.849000
  C    -88.981600   41.389700  116.951000
  H    -89.163700   42.415100  117.123000
  H    -87.924400   41.137500  116.823000
  C    -89.563000   40.423900  118.033000
  H    -89.825700   39.491100  117.506000
  H    -88.822200   40.207700  118.783000
  C    -90.868500   40.860800  118.769000
  H    -91.481900   41.231100  118.022000
  H    -91.321900   39.998700  119.253000
  H    -90.769400   41.581500  119.620000
  S    -92.300300   42.298800  111.687000
  C    -94.028300   42.666800  111.524000
  C    -94.743300   42.607900  112.708000
  C    -93.872000   42.199700  113.756000
  C    -92.562500   41.929300  113.353000
  H    -95.777100   42.921900  112.855000
  C    -94.353100   42.139200  115.196000
  H    -93.539200   41.802400  115.702000
  H    -94.954800   41.170800  115.275000
  C    -95.150300   43.367000  115.728000
  H    -96.164400   43.463000  115.332000
  H    -94.587700   44.333800  115.454000
  C    -95.127100   43.341000  117.259000
  H    -95.667300   44.215200  117.717000
  H    -94.092600   43.250500  117.665000
  H    -95.613300   42.376900  117.605000
  H    -88.474400   39.464400  114.714000
  H    -94.465000   43.043400  110.611000

 Total Charge           Charge          ....    0
 Multiplicity           Mult            ....    1
 Number of Electrons    NEL             ....  134
 Basis Dimension        Dim             ....  322

ORBITAL ENERGIES
----------------

  NO   OCC          E(Eh)            E(eV)
   0   2.0000     -88.970453     -2421.0091
   1   2.0000     -88.966521     -2420.9021
   2   2.0000     -10.332780      -281.1692
   3   2.0000     -10.322565      -280.8913
   4   2.0000     -10.317643      -280.7573
   5   2.0000     -10.317551      -280.7548
   6   2.0000     -10.303775      -280.3800
   7   2.0000     -10.303443      -280.3709
   8   2.0000     -10.300675      -280.2956
   9   2.0000     -10.299956      -280.2760
  10   2.0000     -10.294618      -280.1308
  11   2.0000     -10.292834      -280.0823
  12   2.0000     -10.290126      -280.0086
  13   2.0000     -10.289140      -279.9817
  14   2.0000     -10.288826      -279.9732
  15   2.0000     -10.276292      -279.6321
  16   2.0000      -8.084556      -219.9920
  17   2.0000      -8.081294      -219.9032
  18   2.0000      -6.042966      -164.4375
  19   2.0000      -6.039743      -164.3498
  20   2.0000      -6.039108      -164.3325
  21   2.0000      -6.035910      -164.2455
  22   2.0000      -6.035510      -164.2346
  23   2.0000      -6.032001      -164.1391
  24   2.0000      -1.004716       -27.3397
  25   2.0000      -0.981532       -26.7088
  26   2.0000      -0.908144       -24.7119
  27   2.0000      -0.905091       -24.6288
  28   2.0000      -0.866232       -23.5714
  29   2.0000      -0.851945       -23.1826
  30   2.0000      -0.846032       -23.0217
  31   2.0000      -0.813631       -22.1400
  32   2.0000      -0.781645       -21.2696
  33   2.0000      -0.764271       -20.7969
  34   2.0000      -0.705018       -19.1845
  35   2.0000      -0.703147       -19.1336
  36   2.0000      -0.694079       -18.8868
  37   2.0000      -0.659808       -17.9543
  38   2.0000      -0.639114       -17.3912
  39   2.0000      -0.612197       -16.6587
  40   2.0000      -0.592291       -16.1171
  41   2.0000      -0.566849       -15.4248
  42   2.0000      -0.559466       -15.2238
  43   2.0000      -0.551648       -15.0111
  44   2.0000      -0.540721       -14.7138
  45   2.0000      -0.530622       -14.4390
  46   2.0000      -0.514894       -14.0110
  47   2.0000      -0.511891       -13.9293
  48   2.0000      -0.498285       -13.5590
  49   2.0000      -0.490124       -13.3370
  50   2.0000      -0.487980       -13.2786
  51   2.0000      -0.475967       -12.9517
  52   2.0000      -0.470846       -12.8124
  53   2.0000      -0.467848       -12.7308
  54   2.0000      -0.460636       -12.5346
  55   2.0000      -0.450027       -12.2458
  56   2.0000      -0.448364       -12.2006
  57   2.0000      -0.437741       -11.9115
  58   2.0000      -0.433356       -11.7922
  59   2.0000      -0.426604       -11.6085
  60   2.0000      -0.422524       -11.4975
  61   2.0000      -0.414805       -11.2874
  62   2.0000      -0.412599       -11.2274
  63   2.0000      -0.348167        -9.4741
  64   2.0000      -0.332211        -9.0399
  65   2.0000      -0.329408        -8.9637
  66   2.0000      -0.287171        -7.8143
  67   0.0000       0.030021         0.8169
  68   0.0000       0.064287         1.7493
  69   0.0000       0.104698         2.8490
  70   0.0000       0.114526         3.1164
  71   0.0000       0.122412         3.3310

MULLIKEN ATOMIC CHARGES
-----------------------
   0 S :    0.118945
   1 C :   -0.137295
   2 C :   -0.100330
   3 C :    0.001426
   4 C :   -0.177635
   5 H :    0.059084
   6 C :    0.086226
   7 H :    0.023382
   8 H :    0.029363
   9 C :   -0.072104
  10 H :    0.036050
  11 H :    0.030397
  12 C :   -0.042587
  13 H :    0.012338
  14 H :    0.032564
  15 H :    0.037520
  16 S :    0.112302
  17 C :   -0.090870
  18 C :   -0.023661
  19 C :   -0.073547
  20 C :   -0.161581
  21 H :    0.026901
  22 C :    0.125649
  23 H :   -0.044418
  24 H :    0.035181
  25 C :   -0.076442
  26 H :    0.043243
  27 H :    0.047659
  28 C :   -0.084148
  29 H :    0.050883
  30 H :    0.038259
  31 H :    0.032105
  32 H :    0.054442
  33 H :    0.050701
Sum of atomic charges:   -0.0000000

LOEWDIN ATOMIC CHARGES
----------------------
   0 S :    0.401085
   1 C :   -0.199971
   2 C :   -0.067324
   3 C :   -0.078148
   4 C :   -0.190300
   5 H :    0.050544
   6 C :   -0.024146
   7 H :    0.023583
   8 H :    0.034838
   9 C :   -0.034781
  10 H :    0.030209
  11 H :    0.020125
  12 C :   -0.064207
  13 H :    0.010349
  14 H :    0.028784
  15 H :    0.028156
  16 S :    0.409569
  17 C :   -0.172820
  18 C :   -0.067762
  19 C :   -0.054850
  20 C :   -0.215363
  21 H :    0.037108
  22 C :   -0.035227
  23 H :    0.009528
  24 H :    0.044520
  25 C :   -0.043434
  26 H :    0.025470
  27 H :    0.034568
  28 C :   -0.075629
  29 H :    0.030779
  30 H :    0.027252
  31 H :    0.027582
  32 H :    0.026605
  33 H :    0.023307

  Mayer bond orders larger than 0.100000
B(  0-S ,  1-C ) :   1.1472 B(  0-S ,  4-C ) :   1.1562 B(  1-C ,  2-C ) :   1.5845
B(  1-C ,  4-C ) :   0.1060 B(  1-C , 32-H ) :   0.9695 B(  2-C ,  3-C ) :   1.2574
B(  2-C ,  6-C ) :   1.0292 B(  3-C ,  4-C ) :   1.5703 B(  3-C ,  5-H ) :   0.9669
B(  4-C , 20-C ) :   1.0275 B(  6-C ,  7-H ) :   0.9473 B(  6-C ,  8-H ) :   0.9365
B(  6-C ,  9-C ) :   1.0523 B(  9-C , 10-H ) :   0.9579 B(  9-C , 11-H ) :   0.9613
B(  9-C , 12-C ) :   1.0756 B( 12-C , 13-H ) :   0.9773 B( 12-C , 14-H ) :   0.9727
B( 12-C , 15-H ) :   0.9765 B( 16-S , 17-C ) :   1.1556 B( 16-S , 20-C ) :   1.1436
B( 17-C , 18-C ) :   1.6000 B( 17-C , 33-H ) :   0.9662 B( 18-C , 19-C ) :   1.2511
B( 18-C , 21-H ) :   0.9888 B( 19-C , 20-C ) :   1.5958 B( 19-C , 22-C ) :   1.0471
B( 22-C , 23-H ) :   0.9262 B( 22-C , 24-H ) :   0.9116 B( 22-C , 25-C ) :   1.0382
B( 25-C , 26-H ) :   0.9496 B( 25-C , 27-H ) :   0.9613 B( 25-C , 28-C ) :   1.0803
B( 28-C , 29-H ) :   0.9734 B( 28-C , 30-H ) :   0.9768 B( 28-C , 31-H ) :   0.9719

Dispersion correction           -0.014727625
FINAL SINGLE POINT ENERGY     -1339.868699199552

DIPOLE MOMENT
-------------
                                X             Y             Z
Electronic contribution:      7.53687      -4.50875     -30.49965
Nuclear contribution   :     -7.74925       4.62964      31.09429
                        -----------------------------------------
Total Dipole Moment    :     -0.21238       0.12089       0.59464
                        -----------------------------------------
Magnitude (a.u.)       :      0.64290
Magnitude (Debye)      :      1.63413

Rotational constants in cm-1:     0.016398     0.010411     0.006751
Rotational constants in MHz :   491.601412   312.109874   202.375012

                             ****ORCA TERMINATED NORMALLY****
TOTAL RUN TIME: 0 days 0 hours 0 minutes 35 seconds 44 msec
