                         Program Version 4.2.1 -  RELEASE  -
|  1> ! wB97X-D3 SP def2-SVP
|  2> %pal
|  3> nprocs 16
|  4> end
|  5>
|  6> * xyz 0 1
|  7> S 	 3.49234 	 -23.0912 	 62.9979
|  8> C 	 1.83381 	 -22.8843 	 63.5478
|  9> C 	 0.979767 	 -23.762 	 62.9234
| 10> C 	 1.69091 	 -24.7791 	 62.2001
| 11> C 	 3.01059 	 -24.4915 	 62.0423
| 12> H 	 1.31257 	 -25.6525 	 61.7302
| 13> C 	 -0.547224 	 -23.7287 	 63.184
| 14> H 	 -0.79043 	 -22.8203 	 63.7239
| 15> H 	 -0.813382 	 -24.4807 	 63.9568
| 16> C 	 -1.35505 	 -23.9454 	 61.8621
| 17> H 	 -1.1567 	 -24.9219 	 61.4898
| 18> H 	 -2.40667 	 -23.9269 	 62.2363
| 19> C 	 -1.27804 	 -22.9084 	 60.7222
| 20> H 	 -1.78406 	 -21.9942 	 61.0864
| 21> H 	 -0.299552 	 -22.8411 	 60.326
| 22> H 	 -1.8416 	 -23.3157 	 59.8531
| 23> S 	 5.46453 	 -25.9082 	 61.8331
| 24> C 	 5.9614 	 -26.4437 	 60.2421
| 25> C 	 5.01355 	 -26.2244 	 59.2763
| 26> C 	 3.85911 	 -25.5155 	 59.7667
| 27> C 	 3.94067 	 -25.2296 	 61.1676
| 28> H 	 5.14787 	 -26.6093 	 58.2754
| 29> C 	 2.80945 	 -24.9573 	 58.7249
| 30> H 	 2.01875 	 -24.4967 	 59.3353
| 31> H 	 2.30332 	 -25.824 	 58.2905
| 32> C 	 3.28989 	 -24.0198 	 57.6473
| 33> H 	 2.3901 	 -23.6623 	 57.0774
| 34> H 	 3.86466 	 -24.499 	 56.7916
| 35> C 	 4.0197 	 -22.7913 	 58.0968
| 36> H 	 3.24715 	 -22.2204 	 58.7024
| 37> H 	 4.33575 	 -22.2083 	 57.2449
| 38> H 	 4.88379 	 -23.1172 	 58.6929
| 39> H 	 1.55215 	 -22.084 	 64.2902
| 40> H 	 6.90603 	 -26.9519 	 60.0098
| 41> *
| 42>
| 43>                          ****END OF INPUT****

CARTESIAN COORDINATES (ANGSTROEM)
---------------------------------
  S      3.492340  -23.091200   62.997900
  C      1.833810  -22.884300   63.547800
  C      0.979767  -23.762000   62.923400
  C      1.690910  -24.779100   62.200100
  C      3.010590  -24.491500   62.042300
  H      1.312570  -25.652500   61.730200
  C     -0.547224  -23.728700   63.184000
  H     -0.790430  -22.820300   63.723900
  H     -0.813382  -24.480700   63.956800
  C     -1.355050  -23.945400   61.862100
  H     -1.156700  -24.921900   61.489800
  H     -2.406670  -23.926900   62.236300
  C     -1.278040  -22.908400   60.722200
  H     -1.784060  -21.994200   61.086400
  H     -0.299552  -22.841100   60.326000
  H     -1.841600  -23.315700   59.853100
  S      5.464530  -25.908200   61.833100
  C      5.961400  -26.443700   60.242100
  C      5.013550  -26.224400   59.276300
  C      3.859110  -25.515500   59.766700
  C      3.940670  -25.229600   61.167600
  H      5.147870  -26.609300   58.275400
  C      2.809450  -24.957300   58.724900
  H      2.018750  -24.496700   59.335300
  H      2.303320  -25.824000   58.290500
  C      3.289890  -24.019800   57.647300
  H      2.390100  -23.662300   57.077400
  H      3.864660  -24.499000   56.791600
  C      4.019700  -22.791300   58.096800
  H      3.247150  -22.220400   58.702400
  H      4.335750  -22.208300   57.244900
  H      4.883790  -23.117200   58.692900
  H      1.552150  -22.084000   64.290200
  H      6.906030  -26.951900   60.009800

 Total Charge           Charge          ....    0
 Multiplicity           Mult            ....    1
 Number of Electrons    NEL             ....  134
 Basis Dimension        Dim             ....  322

ORBITAL ENERGIES
----------------

  NO   OCC          E(Eh)            E(eV)
   0   2.0000     -88.967661     -2420.9331
   1   2.0000     -88.963670     -2420.8245
   2   2.0000     -10.335889      -281.2539
   3   2.0000     -10.328525      -281.0534
   4   2.0000     -10.320058      -280.8231
   5   2.0000     -10.317402      -280.7508
   6   2.0000     -10.313810      -280.6530
   7   2.0000     -10.302362      -280.3415
   8   2.0000     -10.297907      -280.2203
   9   2.0000     -10.296818      -280.1907
  10   2.0000     -10.293775      -280.1079
  11   2.0000     -10.292086      -280.0619
  12   2.0000     -10.289616      -279.9947
  13   2.0000     -10.288535      -279.9653
  14   2.0000     -10.280353      -279.7426
  15   2.0000     -10.273828      -279.5651
  16   2.0000      -8.081568      -219.9107
  17   2.0000      -8.078304      -219.8218
  18   2.0000      -6.040098      -164.3594
  19   2.0000      -6.036784      -164.2692
  20   2.0000      -6.036187      -164.2530
  21   2.0000      -6.032927      -164.1643
  22   2.0000      -6.032354      -164.1487
  23   2.0000      -6.028992      -164.0572
  24   2.0000      -1.000628       -27.2285
  25   2.0000      -0.978574       -26.6284
  26   2.0000      -0.907301       -24.6889
  27   2.0000      -0.903707       -24.5911
  28   2.0000      -0.866579       -23.5808
  29   2.0000      -0.847087       -23.0504
  30   2.0000      -0.841816       -22.9070
  31   2.0000      -0.815262       -22.1844
  32   2.0000      -0.785133       -21.3646
  33   2.0000      -0.771614       -20.9967
  34   2.0000      -0.705910       -19.2088
  35   2.0000      -0.687069       -18.6961
  36   2.0000      -0.682724       -18.5779
  37   2.0000      -0.650269       -17.6947
  38   2.0000      -0.642953       -17.4956
  39   2.0000      -0.620978       -16.8977
  40   2.0000      -0.589673       -16.0458
  41   2.0000      -0.565286       -15.3822
  42   2.0000      -0.556271       -15.1369
  43   2.0000      -0.550638       -14.9836
  44   2.0000      -0.545419       -14.8416
  45   2.0000      -0.536184       -14.5903
  46   2.0000      -0.514953       -14.0126
  47   2.0000      -0.508779       -13.8446
  48   2.0000      -0.496664       -13.5149
  49   2.0000      -0.491161       -13.3652
  50   2.0000      -0.490465       -13.3462
  51   2.0000      -0.474884       -12.9223
  52   2.0000      -0.466931       -12.7058
  53   2.0000      -0.464054       -12.6275
  54   2.0000      -0.454945       -12.3797
  55   2.0000      -0.449375       -12.2281
  56   2.0000      -0.445344       -12.1184
  57   2.0000      -0.443113       -12.0577
  58   2.0000      -0.438210       -11.9243
  59   2.0000      -0.427338       -11.6285
  60   2.0000      -0.416971       -11.3463
  61   2.0000      -0.403923       -10.9913
  62   2.0000      -0.400496       -10.8981
  63   2.0000      -0.341604        -9.2955
  64   2.0000      -0.332484        -9.0473
  65   2.0000      -0.329348        -8.9620
  66   2.0000      -0.297032        -8.0826
  67   0.0000       0.029826         0.8116
  68   0.0000       0.071041         1.9331
  69   0.0000       0.114022         3.1027
  70   0.0000       0.121443         3.3046
  71   0.0000       0.124861         3.3977

MULLIKEN ATOMIC CHARGES
-----------------------
   0 S :    0.107646
   1 C :   -0.149225
   2 C :   -0.086176
   3 C :    0.044284
   4 C :   -0.152901
   5 H :    0.005679
   6 C :    0.074458
   7 H :    0.006702
   8 H :    0.045282
   9 C :   -0.106093
  10 H :    0.024890
  11 H :    0.030937
  12 C :   -0.031081
  13 H :    0.044266
  14 H :    0.036078
  15 H :    0.032139
  16 S :    0.107116
  17 C :   -0.095212
  18 C :   -0.031804
  19 C :   -0.059297
  20 C :   -0.176396
  21 H :    0.021864
  22 C :    0.097749
  23 H :    0.016449
  24 H :    0.031253
  25 C :   -0.113184
  26 H :    0.028485
  27 H :    0.027116
  28 C :   -0.041786
  29 H :    0.038734
  30 H :    0.034576
  31 H :    0.050982
  32 H :    0.071510
  33 H :    0.064961
Sum of atomic charges:   -0.0000000

LOEWDIN ATOMIC CHARGES
----------------------
   0 S :    0.389454
   1 C :   -0.198727
   2 C :   -0.067063
   3 C :   -0.058063
   4 C :   -0.189615
   5 H :    0.028370
   6 C :   -0.031743
   7 H :    0.024681
   8 H :    0.038436
   9 C :   -0.043055
  10 H :    0.015641
  11 H :    0.028930
  12 C :   -0.062659
  13 H :    0.031703
  14 H :    0.019138
  15 H :    0.033111
  16 S :    0.388257
  17 C :   -0.182700
  18 C :   -0.076690
  19 C :   -0.049707
  20 C :   -0.193541
  21 H :    0.033072
  22 C :   -0.033524
  23 H :    0.028990
  24 H :    0.034943
  25 C :   -0.058535
  26 H :    0.029869
  27 H :    0.023544
  28 C :   -0.065098
  29 H :    0.033431
  30 H :    0.024871
  31 H :    0.029617
  32 H :    0.039670
  33 H :    0.034993

  Mayer bond orders larger than 0.100000
B(  0-S ,  1-C ) :   1.1306 B(  0-S ,  4-C ) :   1.1406 B(  1-C ,  2-C ) :   1.6339
B(  1-C , 32-H ) :   0.9608 B(  2-C ,  3-C ) :   1.1988 B(  2-C ,  6-C ) :   1.0192
B(  3-C ,  4-C ) :   1.6075 B(  3-C ,  5-H ) :   0.9996 B(  4-C , 20-C ) :   1.0378
B(  6-C ,  7-H ) :   0.9424 B(  6-C ,  8-H ) :   0.9420 B(  6-C ,  9-C ) :   1.0582
B(  9-C , 10-H ) :   0.9594 B(  9-C , 11-H ) :   0.9578 B(  9-C , 12-C ) :   1.0800
B( 12-C , 13-H ) :   0.9757 B( 12-C , 14-H ) :   0.9739 B( 12-C , 15-H ) :   0.9707
B( 16-S , 17-C ) :   1.1507 B( 16-S , 20-C ) :   1.1352 B( 17-C , 18-C ) :   1.6231
B( 17-C , 33-H ) :   0.9620 B( 18-C , 19-C ) :   1.2328 B( 18-C , 21-H ) :   0.9906
B( 19-C , 20-C ) :   1.5842 B( 19-C , 22-C ) :   1.0290 B( 22-C , 23-H ) :   0.9331
B( 22-C , 24-H ) :   0.9290 B( 22-C , 25-C ) :   1.0791 B( 25-C , 26-H ) :   0.9488
B( 25-C , 27-H ) :   0.9496 B( 25-C , 28-C ) :   1.0805 B( 28-C , 29-H ) :   0.9743
B( 28-C , 30-H ) :   0.9707 B( 28-C , 31-H ) :   0.9729

Dispersion correction           -0.015289484
FINAL SINGLE POINT ENERGY     -1339.884594284774

DIPOLE MOMENT
-------------
                                X             Y             Z
Electronic contribution:     20.70428      -7.16526      16.60997
Nuclear contribution   :    -21.25036       7.09310     -17.04402
                        -----------------------------------------
Total Dipole Moment    :     -0.54608      -0.07216      -0.43405
                        -----------------------------------------
Magnitude (a.u.)       :      0.70129
Magnitude (Debye)      :      1.78254

Rotational constants in cm-1:     0.018472     0.009529     0.007546
Rotational constants in MHz :   553.790453   285.670665   226.224931

                             ****ORCA TERMINATED NORMALLY****
TOTAL RUN TIME: 0 days 0 hours 0 minutes 36 seconds 291 msec
