                         Program Version 4.2.1 -  RELEASE  -
|  1> ! wB97X-D3 SP def2-SVP
|  2> %pal
|  3> nprocs 16
|  4> end
|  5>
|  6> * xyz 0 1
|  7> S 	 -94.4022 	 55.4127 	 125.367
|  8> C 	 -92.9511 	 54.5204 	 125.494
|  9> C 	 -93.1232 	 53.3184 	 126.126
| 10> C 	 -94.4503 	 53.1205 	 126.436
| 11> C 	 -95.3606 	 54.0976 	 126.015
| 12> H 	 -94.8903 	 52.34 	 127.103
| 13> C 	 -91.9961 	 52.3997 	 126.66
| 14> H 	 -92.4496 	 51.8917 	 127.498
| 15> H 	 -91.2559 	 53.0258 	 127.155
| 16> C 	 -91.3606 	 51.4119 	 125.699
| 17> H 	 -91.0274 	 52.0254 	 124.81
| 18> H 	 -90.5359 	 50.9031 	 126.14
| 19> C 	 -92.2888 	 50.3659 	 125.127
| 20> H 	 -92.6233 	 49.7676 	 125.953
| 21> H 	 -93.1061 	 50.6386 	 124.487
| 22> H 	 -91.6356 	 49.7843 	 124.503
| 23> S 	 -97.5264 	 54.5719 	 127.624
| 24> C 	 -99.1186 	 54.1115 	 127.048
| 25> C 	 -99.164 	 53.7796 	 125.716
| 26> C 	 -97.8085 	 53.827 	 125.167
| 27> C 	 -96.8099 	 54.1434 	 126.098
| 28> H 	 -100.099 	 53.6273 	 125.136
| 29> C 	 -97.5485 	 53.5571 	 123.664
| 30> H 	 -96.4949 	 53.7912 	 123.477
| 31> H 	 -98.1131 	 54.3044 	 123.145
| 32> C 	 -98.0074 	 52.1895 	 123.081
| 33> H 	 -99.0588 	 52.0657 	 123.347
| 34> H 	 -97.4099 	 51.4006 	 123.59
| 35> C 	 -97.7409 	 52.0311 	 121.548
| 36> H 	 -96.7029 	 52.2595 	 121.297
| 37> H 	 -98.4245 	 52.653 	 121.059
| 38> H 	 -98.0463 	 51.0309 	 121.188
| 39> H 	 -91.9771 	 55.0051 	 125.23
| 40> H 	 -100.083 	 54.0903 	 127.557
| 41> *
| 42>
| 43>                          ****END OF INPUT****

CARTESIAN COORDINATES (ANGSTROEM)
---------------------------------
  S    -94.402200   55.412700  125.367000
  C    -92.951100   54.520400  125.494000
  C    -93.123200   53.318400  126.126000
  C    -94.450300   53.120500  126.436000
  C    -95.360600   54.097600  126.015000
  H    -94.890300   52.340000  127.103000
  C    -91.996100   52.399700  126.660000
  H    -92.449600   51.891700  127.498000
  H    -91.255900   53.025800  127.155000
  C    -91.360600   51.411900  125.699000
  H    -91.027400   52.025400  124.810000
  H    -90.535900   50.903100  126.140000
  C    -92.288800   50.365900  125.127000
  H    -92.623300   49.767600  125.953000
  H    -93.106100   50.638600  124.487000
  H    -91.635600   49.784300  124.503000
  S    -97.526400   54.571900  127.624000
  C    -99.118600   54.111500  127.048000
  C    -99.164000   53.779600  125.716000
  C    -97.808500   53.827000  125.167000
  C    -96.809900   54.143400  126.098000
  H    -100.099000   53.627300  125.136000
  C    -97.548500   53.557100  123.664000
  H    -96.494900   53.791200  123.477000
  H    -98.113100   54.304400  123.145000
  C    -98.007400   52.189500  123.081000
  H    -99.058800   52.065700  123.347000
  H    -97.409900   51.400600  123.590000
  C    -97.740900   52.031100  121.548000
  H    -96.702900   52.259500  121.297000
  H    -98.424500   52.653000  121.059000
  H    -98.046300   51.030900  121.188000
  H    -91.977100   55.005100  125.230000
  H    -100.083000   54.090300  127.557000

 Total Charge           Charge          ....    0
 Multiplicity           Mult            ....    1
 Number of Electrons    NEL             ....  134
 Basis Dimension        Dim             ....  322

ORBITAL ENERGIES
----------------

  NO   OCC          E(Eh)            E(eV)
   0   2.0000     -88.966888     -2420.9121
   1   2.0000     -88.965252     -2420.8676
   2   2.0000     -10.326423      -280.9963
   3   2.0000     -10.325058      -280.9591
   4   2.0000     -10.318367      -280.7770
   5   2.0000     -10.314430      -280.6699
   6   2.0000     -10.308505      -280.5087
   7   2.0000     -10.298280      -280.2305
   8   2.0000     -10.296618      -280.1852
   9   2.0000     -10.293609      -280.1033
  10   2.0000     -10.289959      -280.0040
  11   2.0000     -10.289003      -279.9780
  12   2.0000     -10.287240      -279.9300
  13   2.0000     -10.285609      -279.8857
  14   2.0000     -10.276760      -279.6449
  15   2.0000     -10.268002      -279.4065
  16   2.0000      -8.081519      -219.9093
  17   2.0000      -8.080601      -219.8843
  18   2.0000      -6.040187      -164.3618
  19   2.0000      -6.038824      -164.3247
  20   2.0000      -6.035994      -164.2478
  21   2.0000      -6.034881      -164.2175
  22   2.0000      -6.032174      -164.1438
  23   2.0000      -6.031764      -164.1326
  24   2.0000      -1.009082       -27.4585
  25   2.0000      -0.986331       -26.8394
  26   2.0000      -0.912341       -24.8261
  27   2.0000      -0.898466       -24.4485
  28   2.0000      -0.871457       -23.7135
  29   2.0000      -0.851880       -23.1808
  30   2.0000      -0.843447       -22.9514
  31   2.0000      -0.814654       -22.1678
  32   2.0000      -0.786473       -21.4010
  33   2.0000      -0.768763       -20.9191
  34   2.0000      -0.702133       -19.1060
  35   2.0000      -0.697359       -18.9761
  36   2.0000      -0.691445       -18.8152
  37   2.0000      -0.655059       -17.8251
  38   2.0000      -0.642404       -17.4807
  39   2.0000      -0.612266       -16.6606
  40   2.0000      -0.587122       -15.9764
  41   2.0000      -0.577118       -15.7042
  42   2.0000      -0.563369       -15.3300
  43   2.0000      -0.550652       -14.9840
  44   2.0000      -0.547404       -14.8956
  45   2.0000      -0.517864       -14.0918
  46   2.0000      -0.511990       -13.9320
  47   2.0000      -0.509222       -13.8566
  48   2.0000      -0.507454       -13.8085
  49   2.0000      -0.497448       -13.5362
  50   2.0000      -0.488391       -13.2898
  51   2.0000      -0.477804       -13.0017
  52   2.0000      -0.468499       -12.7485
  53   2.0000      -0.467162       -12.7121
  54   2.0000      -0.462476       -12.5846
  55   2.0000      -0.449749       -12.2383
  56   2.0000      -0.438479       -11.9316
  57   2.0000      -0.433384       -11.7930
  58   2.0000      -0.430101       -11.7037
  59   2.0000      -0.427864       -11.6428
  60   2.0000      -0.421674       -11.4743
  61   2.0000      -0.412521       -11.2253
  62   2.0000      -0.409913       -11.1543
  63   2.0000      -0.337762        -9.1910
  64   2.0000      -0.331857        -9.0303
  65   2.0000      -0.319562        -8.6957
  66   2.0000      -0.307784        -8.3752
  67   0.0000       0.042820         1.1652
  68   0.0000       0.055598         1.5129
  69   0.0000       0.110523         3.0075
  70   0.0000       0.118544         3.2257
  71   0.0000       0.133616         3.6359

MULLIKEN ATOMIC CHARGES
-----------------------
   0 S :    0.124706
   1 C :   -0.150203
   2 C :   -0.069705
   3 C :    0.031269
   4 C :   -0.214049
   5 H :    0.027906
   6 C :    0.081624
   7 H :    0.008197
   8 H :    0.026695
   9 C :   -0.063291
  10 H :    0.029343
  11 H :    0.028848
  12 C :   -0.032990
  13 H :    0.021339
  14 H :    0.041266
  15 H :    0.021064
  16 S :    0.123879
  17 C :   -0.080172
  18 C :   -0.058529
  19 C :   -0.024804
  20 C :   -0.182508
  21 H :    0.042391
  22 C :    0.078657
  23 H :    0.020705
  24 H :    0.018471
  25 C :   -0.104824
  26 H :    0.026256
  27 H :    0.037995
  28 C :   -0.021626
  29 H :    0.043029
  30 H :    0.013743
  31 H :    0.033517
  32 H :    0.066816
  33 H :    0.054984
Sum of atomic charges:    0.0000000

LOEWDIN ATOMIC CHARGES
----------------------
   0 S :    0.431662
   1 C :   -0.207336
   2 C :   -0.078201
   3 C :   -0.060805
   4 C :   -0.213736
   5 H :    0.039443
   6 C :   -0.027922
   7 H :    0.025189
   8 H :    0.031004
   9 C :   -0.039239
  10 H :    0.029141
  11 H :    0.023088
  12 C :   -0.061328
  13 H :    0.020899
  14 H :    0.025150
  15 H :    0.026227
  16 S :    0.411770
  17 C :   -0.184730
  18 C :   -0.079681
  19 C :   -0.040727
  20 C :   -0.221974
  21 H :    0.040882
  22 C :   -0.033474
  23 H :    0.026251
  24 H :    0.026753
  25 C :   -0.039610
  26 H :    0.019973
  27 H :    0.026390
  28 C :   -0.060098
  29 H :    0.028983
  30 H :    0.015143
  31 H :    0.030388
  32 H :    0.036381
  33 H :    0.034146

  Mayer bond orders larger than 0.100000
B(  0-S ,  1-C ) :   1.1892 B(  0-S ,  4-C ) :   1.1662 B(  1-C ,  2-C ) :   1.5591
B(  1-C ,  4-C ) :   0.1146 B(  1-C , 32-H ) :   0.9618 B(  2-C ,  3-C ) :   1.3019
B(  2-C ,  6-C ) :   0.9906 B(  3-C ,  4-C ) :   1.5565 B(  3-C ,  5-H ) :   0.9860
B(  4-C , 20-C ) :   1.0119 B(  6-C ,  7-H ) :   0.9430 B(  6-C ,  8-H ) :   0.9436
B(  6-C ,  9-C ) :   1.0775 B(  9-C , 10-H ) :   0.9554 B(  9-C , 11-H ) :   0.9548
B(  9-C , 12-C ) :   1.0827 B( 12-C , 13-H ) :   0.9746 B( 12-C , 14-H ) :   0.9750
B( 12-C , 15-H ) :   0.9716 B( 16-S , 17-C ) :   1.1521 B( 16-S , 20-C ) :   1.1292
B( 17-C , 18-C ) :   1.6393 B( 17-C , 33-H ) :   0.9593 B( 18-C , 19-C ) :   1.2237
B( 18-C , 21-H ) :   0.9798 B( 19-C , 20-C ) :   1.6225 B( 19-C , 22-C ) :   1.0403
B( 22-C , 23-H ) :   0.9337 B( 22-C , 24-H ) :   0.9338 B( 22-C , 25-C ) :   1.0565
B( 25-C , 26-H ) :   0.9563 B( 25-C , 27-H ) :   0.9591 B( 25-C , 28-C ) :   1.0799
B( 28-C , 29-H ) :   0.9763 B( 28-C , 30-H ) :   0.9749 B( 28-C , 31-H ) :   0.9743

Dispersion correction           -0.013953266
FINAL SINGLE POINT ENERGY     -1339.878943472248

DIPOLE MOMENT
-------------
                                X             Y             Z
Electronic contribution:     -6.96404      20.69962      15.84457
Nuclear contribution   :      7.02564     -21.06557     -16.03799
                        -----------------------------------------
Total Dipole Moment    :      0.06159      -0.36595      -0.19342
                        -----------------------------------------
Magnitude (a.u.)       :      0.41848
Magnitude (Debye)      :      1.06369

Rotational constants in cm-1:     0.016519     0.008749     0.006987
Rotational constants in MHz :   495.222014   262.286420   209.474977

                             ****ORCA TERMINATED NORMALLY****
TOTAL RUN TIME: 0 days 0 hours 0 minutes 33 seconds 713 msec
