                         Program Version 4.2.1 -  RELEASE  -
|  1> ! wB97X-D3 SP def2-SVP
|  2> %pal
|  3> nprocs 16
|  4> end
|  5>
|  6> * xyz 0 1
|  7> S 	 36.7627 	 32.4382 	 53.6217
|  8> C 	 36.8823 	 33.7642 	 52.4768
|  9> C 	 37.6994 	 34.7744 	 52.9877
| 10> C 	 38.3891 	 34.3851 	 54.1665
| 11> C 	 37.8695 	 33.1891 	 54.7379
| 12> H 	 39.1137 	 34.9588 	 54.6501
| 13> C 	 37.8386 	 36.1334 	 52.4122
| 14> H 	 37.9309 	 36.1561 	 51.3199
| 15> H 	 38.7703 	 36.4948 	 52.7555
| 16> C 	 36.6914 	 37.0527 	 52.8269
| 17> H 	 35.7157 	 36.6566 	 52.6077
| 18> H 	 36.6345 	 37.3195 	 53.8554
| 19> C 	 36.7683 	 38.3239 	 52.0296
| 20> H 	 36.7546 	 38.2271 	 50.9109
| 21> H 	 35.9447 	 39.0259 	 52.1198
| 22> H 	 37.7425 	 38.7498 	 52.378
| 23> S 	 39.599 	 31.4528 	 56.0084
| 24> C 	 39.725 	 31.5348 	 57.7135
| 25> C 	 38.7055 	 32.3218 	 58.2715
| 26> C 	 37.851 	 32.9432 	 57.2715
| 27> C 	 38.289 	 32.6469 	 56.0002
| 28> H 	 38.7792 	 32.4061 	 59.3239
| 29> C 	 36.6842 	 33.8419 	 57.6213
| 30> H 	 36.1633 	 33.4804 	 58.5164
| 31> H 	 35.9002 	 33.7873 	 56.8515
| 32> C 	 37.0747 	 35.2881 	 57.7467
| 33> H 	 37.488 	 35.6806 	 56.729
| 34> H 	 37.8276 	 35.41 	 58.4783
| 35> C 	 36.0063 	 36.2424 	 58.1483
| 36> H 	 35.1308 	 36.2734 	 57.5285
| 37> H 	 36.4547 	 37.198 	 58.1726
| 38> H 	 35.6353 	 35.9078 	 59.1234
| 39> H 	 36.3239 	 33.9024 	 51.6058
| 40> H 	 40.4959 	 31.071 	 58.3113
| 41> *
| 42>
| 43>                          ****END OF INPUT****

CARTESIAN COORDINATES (ANGSTROEM)
---------------------------------
  S     36.762700   32.438200   53.621700
  C     36.882300   33.764200   52.476800
  C     37.699400   34.774400   52.987700
  C     38.389100   34.385100   54.166500
  C     37.869500   33.189100   54.737900
  H     39.113700   34.958800   54.650100
  C     37.838600   36.133400   52.412200
  H     37.930900   36.156100   51.319900
  H     38.770300   36.494800   52.755500
  C     36.691400   37.052700   52.826900
  H     35.715700   36.656600   52.607700
  H     36.634500   37.319500   53.855400
  C     36.768300   38.323900   52.029600
  H     36.754600   38.227100   50.910900
  H     35.944700   39.025900   52.119800
  H     37.742500   38.749800   52.378000
  S     39.599000   31.452800   56.008400
  C     39.725000   31.534800   57.713500
  C     38.705500   32.321800   58.271500
  C     37.851000   32.943200   57.271500
  C     38.289000   32.646900   56.000200
  H     38.779200   32.406100   59.323900
  C     36.684200   33.841900   57.621300
  H     36.163300   33.480400   58.516400
  H     35.900200   33.787300   56.851500
  C     37.074700   35.288100   57.746700
  H     37.488000   35.680600   56.729000
  H     37.827600   35.410000   58.478300
  C     36.006300   36.242400   58.148300
  H     35.130800   36.273400   57.528500
  H     36.454700   37.198000   58.172600
  H     35.635300   35.907800   59.123400
  H     36.323900   33.902400   51.605800
  H     40.495900   31.071000   58.311300

 Total Charge           Charge          ....    0
 Multiplicity           Mult            ....    1
 Number of Electrons    NEL             ....  134
 Basis Dimension        Dim             ....  322

ORBITAL ENERGIES
----------------

  NO   OCC          E(Eh)            E(eV)
   0   2.0000     -88.969323     -2420.9784
   1   2.0000     -88.962793     -2420.8007
   2   2.0000     -10.328562      -281.0544
   3   2.0000     -10.322550      -280.8909
   4   2.0000     -10.315439      -280.6974
   5   2.0000     -10.310064      -280.5511
   6   2.0000     -10.307671      -280.4860
   7   2.0000     -10.297480      -280.2087
   8   2.0000     -10.293446      -280.0989
   9   2.0000     -10.292350      -280.0691
  10   2.0000     -10.290316      -280.0137
  11   2.0000     -10.288447      -279.9629
  12   2.0000     -10.281435      -279.7721
  13   2.0000     -10.280871      -279.7567
  14   2.0000     -10.280294      -279.7410
  15   2.0000     -10.268457      -279.4189
  16   2.0000      -8.083449      -219.9618
  17   2.0000      -8.078054      -219.8150
  18   2.0000      -6.041911      -164.4087
  19   2.0000      -6.037800      -164.2969
  20   2.0000      -6.036448      -164.2601
  21   2.0000      -6.034553      -164.2085
  22   2.0000      -6.032445      -164.1512
  23   2.0000      -6.028951      -164.0561
  24   2.0000      -1.004276       -27.3278
  25   2.0000      -0.982163       -26.7260
  26   2.0000      -0.920626       -25.0515
  27   2.0000      -0.915987       -24.9253
  28   2.0000      -0.870671       -23.6922
  29   2.0000      -0.855015       -23.2661
  30   2.0000      -0.850898       -23.1541
  31   2.0000      -0.810844       -22.0642
  32   2.0000      -0.785174       -21.3657
  33   2.0000      -0.771538       -20.9946
  34   2.0000      -0.706859       -19.2346
  35   2.0000      -0.704094       -19.1594
  36   2.0000      -0.689512       -18.7626
  37   2.0000      -0.659369       -17.9423
  38   2.0000      -0.646738       -17.5986
  39   2.0000      -0.620442       -16.8831
  40   2.0000      -0.597897       -16.2696
  41   2.0000      -0.578627       -15.7452
  42   2.0000      -0.568949       -15.4819
  43   2.0000      -0.561414       -15.2769
  44   2.0000      -0.536426       -14.5969
  45   2.0000      -0.527650       -14.3581
  46   2.0000      -0.522785       -14.2257
  47   2.0000      -0.516620       -14.0579
  48   2.0000      -0.509414       -13.8619
  49   2.0000      -0.504448       -13.7267
  50   2.0000      -0.496037       -13.4978
  51   2.0000      -0.478469       -13.0198
  52   2.0000      -0.468471       -12.7478
  53   2.0000      -0.465945       -12.6790
  54   2.0000      -0.456687       -12.4271
  55   2.0000      -0.440581       -11.9888
  56   2.0000      -0.439835       -11.9685
  57   2.0000      -0.435442       -11.8490
  58   2.0000      -0.434423       -11.8213
  59   2.0000      -0.432543       -11.7701
  60   2.0000      -0.425623       -11.5818
  61   2.0000      -0.413282       -11.2460
  62   2.0000      -0.408962       -11.1284
  63   2.0000      -0.334017        -9.0891
  64   2.0000      -0.326780        -8.8921
  65   2.0000      -0.317250        -8.6328
  66   2.0000      -0.308094        -8.3837
  67   0.0000       0.041932         1.1410
  68   0.0000       0.050609         1.3771
  69   0.0000       0.116757         3.1771
  70   0.0000       0.122746         3.3401
  71   0.0000       0.127668         3.4740

MULLIKEN ATOMIC CHARGES
-----------------------
   0 S :    0.129582
   1 C :   -0.089241
   2 C :   -0.104938
   3 C :    0.079011
   4 C :   -0.187965
   5 H :   -0.005158
   6 C :    0.090489
   7 H :    0.024350
   8 H :    0.002673
   9 C :   -0.025239
  10 H :    0.015129
  11 H :    0.024894
  12 C :   -0.079623
  13 H :    0.031347
  14 H :    0.030363
  15 H :    0.029666
  16 S :    0.123223
  17 C :   -0.103232
  18 C :   -0.042595
  19 C :    0.019233
  20 C :   -0.197558
  21 H :    0.005845
  22 C :    0.095438
  23 H :    0.020435
  24 H :    0.021107
  25 C :   -0.107050
  26 H :    0.034138
  27 H :    0.014161
  28 C :    0.007672
  29 H :    0.020057
  30 H :    0.028791
  31 H :    0.014713
  32 H :    0.023287
  33 H :    0.056995
Sum of atomic charges:    0.0000000

LOEWDIN ATOMIC CHARGES
----------------------
   0 S :    0.420635
   1 C :   -0.192414
   2 C :   -0.059580
   3 C :   -0.044793
   4 C :   -0.207142
   5 H :    0.020228
   6 C :   -0.025970
   7 H :    0.033946
   8 H :    0.024543
   9 C :   -0.035061
  10 H :    0.020206
  11 H :    0.023424
  12 C :   -0.072884
  13 H :    0.026278
  14 H :    0.022703
  15 H :    0.027476
  16 S :    0.413152
  17 C :   -0.194263
  18 C :   -0.073333
  19 C :   -0.039840
  20 C :   -0.202788
  21 H :    0.024851
  22 C :   -0.033455
  23 H :    0.031310
  24 H :    0.032418
  25 C :   -0.043329
  26 H :    0.031129
  27 H :    0.016768
  28 C :   -0.057437
  29 H :    0.019368
  30 H :    0.024494
  31 H :    0.023001
  32 H :    0.016848
  33 H :    0.029513

  Mayer bond orders larger than 0.100000
B(  0-S ,  1-C ) :   1.1466 B(  0-S ,  4-C ) :   1.1708 B(  1-C ,  2-C ) :   1.5756
B(  1-C ,  4-C ) :   0.1084 B(  1-C , 32-H ) :   0.9757 B(  2-C ,  3-C ) :   1.2789
B(  2-C ,  6-C ) :   1.0375 B(  3-C ,  4-C ) :   1.5287 B(  3-C ,  5-H ) :   0.9938
B(  4-C , 20-C ) :   1.0399 B(  6-C ,  7-H ) :   0.9411 B(  6-C ,  8-H ) :   0.9293
B(  6-C ,  9-C ) :   1.0569 B(  9-C , 10-H ) :   0.9570 B(  9-C , 11-H ) :   0.9516
B(  9-C , 12-C ) :   1.0804 B( 12-C , 13-H ) :   0.9742 B( 12-C , 14-H ) :   0.9732
B( 12-C , 15-H ) :   0.9744 B( 16-S , 17-C ) :   1.1681 B( 16-S , 20-C ) :   1.1384
B( 17-C , 18-C ) :   1.6210 B( 17-C , 33-H ) :   0.9667 B( 18-C , 19-C ) :   1.2021
B( 18-C , 21-H ) :   0.9993 B( 19-C , 20-C ) :   1.6200 B( 19-C , 22-C ) :   1.0517
B( 22-C , 23-H ) :   0.9312 B( 22-C , 24-H ) :   0.9218 B( 22-C , 25-C ) :   1.0776
B( 25-C , 26-H ) :   0.9452 B( 25-C , 27-H ) :   0.9534 B( 25-C , 28-C ) :   1.0955
B( 28-C , 29-H ) :   0.9721 B( 28-C , 30-H ) :   0.9713 B( 28-C , 31-H ) :   0.9682

Dispersion correction           -0.014640590
FINAL SINGLE POINT ENERGY     -1339.873520251801

DIPOLE MOMENT
-------------
                                X             Y             Z
Electronic contribution:      9.45837     -29.84412      -1.60014
Nuclear contribution   :     -9.55501      30.49946       1.80680
                        -----------------------------------------
Total Dipole Moment    :     -0.09664       0.65534       0.20666
                        -----------------------------------------
Magnitude (a.u.)       :      0.69392
Magnitude (Debye)      :      1.76380

Rotational constants in cm-1:     0.018550     0.009019     0.006977
Rotational constants in MHz :   556.120371   270.385333   209.174496

                             ****ORCA TERMINATED NORMALLY****
TOTAL RUN TIME: 0 days 0 hours 0 minutes 35 seconds 420 msec
