                         Program Version 4.2.1 -  RELEASE  -
|  1> ! wB97X-D3 SP def2-SVP
|  2> %pal
|  3> nprocs 16
|  4> end
|  5>
|  6> * xyz 0 1
|  7> S 	 -33.5091 	 58.8744 	 113.72
|  8> C 	 -34.7293 	 58.1067 	 112.68
|  9> C 	 -35.8494 	 57.8036 	 113.361
| 10> C 	 -35.8106 	 58.2495 	 114.7
| 11> C 	 -34.58 	 58.8944 	 115.046
| 12> H 	 -36.5586 	 58.1585 	 115.506
| 13> C 	 -37.1222 	 57.1888 	 112.766
| 14> H 	 -37.6291 	 56.5854 	 113.526
| 15> H 	 -36.8179 	 56.4458 	 112.093
| 16> C 	 -38.147 	 58.1607 	 112.134
| 17> H 	 -38.2794 	 58.9869 	 112.768
| 18> H 	 -37.6733 	 58.6639 	 111.267
| 19> C 	 -39.5006 	 57.5072 	 111.784
| 20> H 	 -40.0981 	 58.2976 	 111.195
| 21> H 	 -39.4604 	 56.6264 	 111.142
| 22> H 	 -39.9901 	 57.1985 	 112.681
| 23> S 	 -32.5965 	 58.9476 	 116.995
| 24> C 	 -33.03 	 59.5527 	 118.524
| 25> C 	 -34.1779 	 60.3029 	 118.482
| 26> C 	 -34.8029 	 60.2998 	 117.208
| 27> C 	 -34.1521 	 59.4925 	 116.328
| 28> H 	 -34.6137 	 60.4373 	 119.447
| 29> C 	 -36.1785 	 60.8855 	 117.033
| 30> H 	 -36.4231 	 61.2239 	 115.988
| 31> H 	 -36.2745 	 61.8662 	 117.562
| 32> C 	 -37.238 	 60.0042 	 117.675
| 33> H 	 -37.1929 	 60.104 	 118.771
| 34> H 	 -37.0828 	 58.9261 	 117.459
| 35> C 	 -38.6601 	 60.5167 	 117.168
| 36> H 	 -38.7345 	 60.3673 	 116.058
| 37> H 	 -38.9251 	 61.5419 	 117.506
| 38> H 	 -39.4232 	 59.8089 	 117.507
| 39> H 	 -34.6909 	 57.8791 	 111.638
| 40> H 	 -32.4425 	 59.4121 	 119.443
| 41> *
| 42>
| 43>                          ****END OF INPUT****

CARTESIAN COORDINATES (ANGSTROEM)
---------------------------------
  S    -33.509100   58.874400  113.720000
  C    -34.729300   58.106700  112.680000
  C    -35.849400   57.803600  113.361000
  C    -35.810600   58.249500  114.700000
  C    -34.580000   58.894400  115.046000
  H    -36.558600   58.158500  115.506000
  C    -37.122200   57.188800  112.766000
  H    -37.629100   56.585400  113.526000
  H    -36.817900   56.445800  112.093000
  C    -38.147000   58.160700  112.134000
  H    -38.279400   58.986900  112.768000
  H    -37.673300   58.663900  111.267000
  C    -39.500600   57.507200  111.784000
  H    -40.098100   58.297600  111.195000
  H    -39.460400   56.626400  111.142000
  H    -39.990100   57.198500  112.681000
  S    -32.596500   58.947600  116.995000
  C    -33.030000   59.552700  118.524000
  C    -34.177900   60.302900  118.482000
  C    -34.802900   60.299800  117.208000
  C    -34.152100   59.492500  116.328000
  H    -34.613700   60.437300  119.447000
  C    -36.178500   60.885500  117.033000
  H    -36.423100   61.223900  115.988000
  H    -36.274500   61.866200  117.562000
  C    -37.238000   60.004200  117.675000
  H    -37.192900   60.104000  118.771000
  H    -37.082800   58.926100  117.459000
  C    -38.660100   60.516700  117.168000
  H    -38.734500   60.367300  116.058000
  H    -38.925100   61.541900  117.506000
  H    -39.423200   59.808900  117.507000
  H    -34.690900   57.879100  111.638000
  H    -32.442500   59.412100  119.443000

 Total Charge           Charge          ....    0
 Multiplicity           Mult            ....    1
 Number of Electrons    NEL             ....  134
 Basis Dimension        Dim             ....  322

ORBITAL ENERGIES
----------------

  NO   OCC          E(Eh)            E(eV)
   0   2.0000     -88.967809     -2420.9372
   1   2.0000     -88.963305     -2420.8146
   2   2.0000     -10.331648      -281.1384
   3   2.0000     -10.326742      -281.0049
   4   2.0000     -10.315045      -280.6867
   5   2.0000     -10.308355      -280.5046
   6   2.0000     -10.302063      -280.3334
   7   2.0000     -10.297050      -280.1970
   8   2.0000     -10.296649      -280.1861
   9   2.0000     -10.296473      -280.1813
  10   2.0000     -10.295051      -280.1426
  11   2.0000     -10.289801      -279.9997
  12   2.0000     -10.289177      -279.9827
  13   2.0000     -10.287176      -279.9283
  14   2.0000     -10.286888      -279.9205
  15   2.0000     -10.286335      -279.9054
  16   2.0000      -8.082694      -219.9413
  17   2.0000      -8.079017      -219.8412
  18   2.0000      -6.041197      -164.3893
  19   2.0000      -6.037456      -164.2875
  20   2.0000      -6.037070      -164.2770
  21   2.0000      -6.033577      -164.1820
  22   2.0000      -6.033416      -164.1776
  23   2.0000      -6.029760      -164.0781
  24   2.0000      -1.011196       -27.5160
  25   2.0000      -0.989750       -26.9325
  26   2.0000      -0.911219       -24.7955
  27   2.0000      -0.910415       -24.7736
  28   2.0000      -0.870038       -23.6750
  29   2.0000      -0.850230       -23.1359
  30   2.0000      -0.842704       -22.9311
  31   2.0000      -0.810943       -22.0669
  32   2.0000      -0.783816       -21.3287
  33   2.0000      -0.774093       -21.0641
  34   2.0000      -0.708911       -19.2905
  35   2.0000      -0.704868       -19.1804
  36   2.0000      -0.695947       -18.9377
  37   2.0000      -0.661650       -18.0044
  38   2.0000      -0.638522       -17.3751
  39   2.0000      -0.616454       -16.7746
  40   2.0000      -0.600959       -16.3529
  41   2.0000      -0.571499       -15.5513
  42   2.0000      -0.562951       -15.3187
  43   2.0000      -0.555348       -15.1118
  44   2.0000      -0.524844       -14.2817
  45   2.0000      -0.520590       -14.1660
  46   2.0000      -0.517501       -14.0819
  47   2.0000      -0.508306       -13.8317
  48   2.0000      -0.504607       -13.7311
  49   2.0000      -0.496897       -13.5212
  50   2.0000      -0.493142       -13.4191
  51   2.0000      -0.479672       -13.0525
  52   2.0000      -0.474861       -12.9216
  53   2.0000      -0.468624       -12.7519
  54   2.0000      -0.462273       -12.5791
  55   2.0000      -0.453230       -12.3330
  56   2.0000      -0.445583       -12.1249
  57   2.0000      -0.436861       -11.8876
  58   2.0000      -0.433558       -11.7977
  59   2.0000      -0.424153       -11.5418
  60   2.0000      -0.422358       -11.4930
  61   2.0000      -0.416237       -11.3264
  62   2.0000      -0.415119       -11.2960
  63   2.0000      -0.347404        -9.4533
  64   2.0000      -0.333203        -9.0669
  65   2.0000      -0.331984        -9.0338
  66   2.0000      -0.290797        -7.9130
  67   0.0000       0.032365         0.8807
  68   0.0000       0.067379         1.8335
  69   0.0000       0.107633         2.9288
  70   0.0000       0.121902         3.3171
  71   0.0000       0.127313         3.4644

MULLIKEN ATOMIC CHARGES
-----------------------
   0 S :    0.117029
   1 C :   -0.107888
   2 C :   -0.079079
   3 C :    0.020879
   4 C :   -0.157621
   5 H :    0.001418
   6 C :    0.084491
   7 H :    0.011944
   8 H :    0.005905
   9 C :   -0.038551
  10 H :    0.013453
  11 H :    0.020672
  12 C :   -0.059977
  13 H :    0.049822
  14 H :    0.033529
  15 H :    0.032085
  16 S :    0.108078
  17 C :   -0.111553
  18 C :   -0.036568
  19 C :   -0.004997
  20 C :   -0.150896
  21 H :    0.024344
  22 C :    0.034123
  23 H :    0.042028
  24 H :    0.026720
  25 C :   -0.107822
  26 H :    0.036443
  27 H :    0.044810
  28 C :   -0.068243
  29 H :    0.039928
  30 H :    0.050189
  31 H :    0.030497
  32 H :    0.028238
  33 H :    0.066570
Sum of atomic charges:   -0.0000000

LOEWDIN ATOMIC CHARGES
----------------------
   0 S :    0.419738
   1 C :   -0.190673
   2 C :   -0.065152
   3 C :   -0.071095
   4 C :   -0.201751
   5 H :    0.030202
   6 C :   -0.026985
   7 H :    0.029181
   8 H :    0.020937
   9 C :   -0.038015
  10 H :    0.017525
  11 H :    0.025660
  12 C :   -0.066052
  13 H :    0.039888
  14 H :    0.024196
  15 H :    0.020986
  16 S :    0.404961
  17 C :   -0.191014
  18 C :   -0.080866
  19 C :   -0.053375
  20 C :   -0.191926
  21 H :    0.030730
  22 C :   -0.042377
  23 H :    0.035451
  24 H :    0.036983
  25 C :   -0.039183
  26 H :    0.025422
  27 H :    0.022700
  28 C :   -0.072071
  29 H :    0.029613
  30 H :    0.030276
  31 H :    0.024606
  32 H :    0.026174
  33 H :    0.035302

  Mayer bond orders larger than 0.100000
B(  0-S ,  1-C ) :   1.1251 B(  0-S ,  4-C ) :   1.1821 B(  1-C ,  2-C ) :   1.6343
B(  1-C ,  4-C ) :   0.1003 B(  1-C , 32-H ) :   0.9669 B(  2-C ,  3-C ) :   1.2475
B(  2-C ,  6-C ) :   1.0217 B(  3-C ,  4-C ) :   1.5452 B(  3-C ,  5-H ) :   0.9912
B(  4-C , 20-C ) :   1.0201 B(  6-C ,  7-H ) :   0.9409 B(  6-C ,  8-H ) :   0.9333
B(  6-C ,  9-C ) :   1.0578 B(  9-C , 10-H ) :   0.9553 B(  9-C , 11-H ) :   0.9527
B(  9-C , 12-C ) :   1.0746 B( 12-C , 13-H ) :   0.9738 B( 12-C , 14-H ) :   0.9777
B( 12-C , 15-H ) :   0.9756 B( 16-S , 17-C ) :   1.1674 B( 16-S , 20-C ) :   1.1243
B( 17-C , 18-C ) :   1.6413 B( 17-C , 33-H ) :   0.9609 B( 18-C , 19-C ) :   1.2014
B( 18-C , 21-H ) :   0.9869 B( 19-C , 20-C ) :   1.6401 B( 19-C , 22-C ) :   1.0593
B( 22-C , 23-H ) :   0.9455 B( 22-C , 24-H ) :   0.9284 B( 22-C , 25-C ) :   1.0422
B( 25-C , 26-H ) :   0.9507 B( 25-C , 27-H ) :   0.9584 B( 25-C , 28-C ) :   1.0752
B( 28-C , 29-H ) :   0.9764 B( 28-C , 30-H ) :   0.9741 B( 28-C , 31-H ) :   0.9745

Dispersion correction           -0.014489781
FINAL SINGLE POINT ENERGY     -1339.874303365507

DIPOLE MOMENT
-------------
                                X             Y             Z
Electronic contribution:     33.27860      -0.14331       4.35441
Nuclear contribution   :    -34.04823       0.07072      -4.15234
                        -----------------------------------------
Total Dipole Moment    :     -0.76963      -0.07260       0.20207
                        -----------------------------------------
Magnitude (a.u.)       :      0.79902
Magnitude (Debye)      :      2.03094

Rotational constants in cm-1:     0.018773     0.009062     0.006469
Rotational constants in MHz :   562.814689   271.665811   193.941678

                             ****ORCA TERMINATED NORMALLY****
TOTAL RUN TIME: 0 days 0 hours 0 minutes 30 seconds 838 msec
