                         Program Version 4.2.1 -  RELEASE  -
|  1> ! wB97X-D3 SP def2-SVP
|  2> %pal
|  3> nprocs 16
|  4> end
|  5>
|  6> * xyz 0 1
|  7> S 	 -46.3358 	 54.5002 	 95.5193
|  8> C 	 -47.7681 	 54.1165 	 96.5235
|  9> C 	 -47.4287 	 53.6777 	 97.8284
| 10> C 	 -46.0388 	 53.7631 	 98.0661
| 11> C 	 -45.3655 	 54.375 	 97.0322
| 12> H 	 -45.4559 	 53.552 	 98.9296
| 13> C 	 -48.4049 	 53.1635 	 98.8484
| 14> H 	 -47.9994 	 52.2258 	 99.2008
| 15> H 	 -49.381 	 52.8921 	 98.335
| 16> C 	 -48.5108 	 53.9761 	 100.187
| 17> H 	 -47.5303 	 53.942 	 100.649
| 18> H 	 -48.5909 	 55.0508 	 99.9558
| 19> C 	 -49.6423 	 53.4583 	 101.12
| 20> H 	 -49.5013 	 52.4222 	 101.445
| 21> H 	 -49.6892 	 53.8451 	 102.125
| 22> H 	 -50.5653 	 53.5249 	 100.588
| 23> S 	 -42.9461 	 54.3309 	 95.7922
| 24> C 	 -41.4943 	 55.05 	 96.5249
| 25> C 	 -41.804 	 55.5278 	 97.7896
| 26> C 	 -43.2155 	 55.4593 	 98.0428
| 27> C 	 -43.9914 	 54.897 	 97.0543
| 28> H 	 -41.0243 	 55.8919 	 98.3749
| 29> C 	 -43.6885 	 55.7493 	 99.4972
| 30> H 	 -42.7459 	 55.6182 	 100.008
| 31> H 	 -44.3525 	 55.0254 	 99.797
| 32> C 	 -44.1121 	 57.2027 	 99.7807
| 33> H 	 -43.2774 	 57.8051 	 99.4309
| 34> H 	 -44.2404 	 57.3085 	 100.843
| 35> C 	 -45.3849 	 57.7264 	 99.0243
| 36> H 	 -45.5942 	 58.7465 	 99.4127
| 37> H 	 -46.2713 	 57.1313 	 99.2544
| 38> H 	 -45.2122 	 57.8399 	 97.9697
| 39> H 	 -48.8255 	 54.3026 	 96.2088
| 40> H 	 -40.4663 	 54.9395 	 96.1386
| 41> *
| 42>
| 43>                          ****END OF INPUT****

CARTESIAN COORDINATES (ANGSTROEM)
---------------------------------
  S    -46.335800   54.500200   95.519300
  C    -47.768100   54.116500   96.523500
  C    -47.428700   53.677700   97.828400
  C    -46.038800   53.763100   98.066100
  C    -45.365500   54.375000   97.032200
  H    -45.455900   53.552000   98.929600
  C    -48.404900   53.163500   98.848400
  H    -47.999400   52.225800   99.200800
  H    -49.381000   52.892100   98.335000
  C    -48.510800   53.976100  100.187000
  H    -47.530300   53.942000  100.649000
  H    -48.590900   55.050800   99.955800
  C    -49.642300   53.458300  101.120000
  H    -49.501300   52.422200  101.445000
  H    -49.689200   53.845100  102.125000
  H    -50.565300   53.524900  100.588000
  S    -42.946100   54.330900   95.792200
  C    -41.494300   55.050000   96.524900
  C    -41.804000   55.527800   97.789600
  C    -43.215500   55.459300   98.042800
  C    -43.991400   54.897000   97.054300
  H    -41.024300   55.891900   98.374900
  C    -43.688500   55.749300   99.497200
  H    -42.745900   55.618200  100.008000
  H    -44.352500   55.025400   99.797000
  C    -44.112100   57.202700   99.780700
  H    -43.277400   57.805100   99.430900
  H    -44.240400   57.308500  100.843000
  C    -45.384900   57.726400   99.024300
  H    -45.594200   58.746500   99.412700
  H    -46.271300   57.131300   99.254400
  H    -45.212200   57.839900   97.969700
  H    -48.825500   54.302600   96.208800
  H    -40.466300   54.939500   96.138600

 Total Charge           Charge          ....    0
 Multiplicity           Mult            ....    1
 Number of Electrons    NEL             ....  134
 Basis Dimension        Dim             ....  322

ORBITAL ENERGIES
----------------

  NO   OCC          E(Eh)            E(eV)
   0   2.0000     -88.969934     -2420.9950
   1   2.0000     -88.962543     -2420.7939
   2   2.0000     -10.335389      -281.2402
   3   2.0000     -10.325538      -280.9722
   4   2.0000     -10.323069      -280.9050
   5   2.0000     -10.322739      -280.8960
   6   2.0000     -10.307529      -280.4821
   7   2.0000     -10.304275      -280.3936
   8   2.0000     -10.298666      -280.2410
   9   2.0000     -10.295066      -280.1430
  10   2.0000     -10.294743      -280.1342
  11   2.0000     -10.293974      -280.1133
  12   2.0000     -10.284234      -279.8482
  13   2.0000     -10.283833      -279.8373
  14   2.0000     -10.281090      -279.7627
  15   2.0000     -10.273146      -279.5465
  16   2.0000      -8.083221      -219.9556
  17   2.0000      -8.077385      -219.7968
  18   2.0000      -6.041775      -164.4050
  19   2.0000      -6.038246      -164.3090
  20   2.0000      -6.035991      -164.2477
  21   2.0000      -6.033702      -164.1854
  22   2.0000      -6.031840      -164.1347
  23   2.0000      -6.028064      -164.0320
  24   2.0000      -1.004456       -27.3326
  25   2.0000      -0.979288       -26.6478
  26   2.0000      -0.907696       -24.6997
  27   2.0000      -0.902010       -24.5449
  28   2.0000      -0.868006       -23.6197
  29   2.0000      -0.851086       -23.1592
  30   2.0000      -0.840397       -22.8684
  31   2.0000      -0.816166       -22.2090
  32   2.0000      -0.781972       -21.2785
  33   2.0000      -0.771986       -21.0068
  34   2.0000      -0.712038       -19.3755
  35   2.0000      -0.698698       -19.0125
  36   2.0000      -0.690153       -18.7800
  37   2.0000      -0.666867       -18.1464
  38   2.0000      -0.641633       -17.4597
  39   2.0000      -0.622924       -16.9506
  40   2.0000      -0.592615       -16.1259
  41   2.0000      -0.570374       -15.5207
  42   2.0000      -0.562995       -15.3199
  43   2.0000      -0.545642       -14.8477
  44   2.0000      -0.540326       -14.7030
  45   2.0000      -0.526469       -14.3259
  46   2.0000      -0.512787       -13.9537
  47   2.0000      -0.511936       -13.9305
  48   2.0000      -0.499648       -13.5961
  49   2.0000      -0.494175       -13.4472
  50   2.0000      -0.491812       -13.3829
  51   2.0000      -0.479236       -13.0407
  52   2.0000      -0.474959       -12.9243
  53   2.0000      -0.468220       -12.7409
  54   2.0000      -0.456062       -12.4101
  55   2.0000      -0.447369       -12.1735
  56   2.0000      -0.443618       -12.0714
  57   2.0000      -0.440115       -11.9761
  58   2.0000      -0.431593       -11.7442
  59   2.0000      -0.427268       -11.6266
  60   2.0000      -0.423249       -11.5172
  61   2.0000      -0.415474       -11.3056
  62   2.0000      -0.406178       -11.0527
  63   2.0000      -0.349552        -9.5118
  64   2.0000      -0.335057        -9.1174
  65   2.0000      -0.326464        -8.8835
  66   2.0000      -0.286337        -7.7916
  67   0.0000       0.021706         0.5907
  68   0.0000       0.063499         1.7279
  69   0.0000       0.092354         2.5131
  70   0.0000       0.115869         3.1530
  71   0.0000       0.130996         3.5646

MULLIKEN ATOMIC CHARGES
-----------------------
   0 S :    0.105476
   1 C :   -0.133002
   2 C :   -0.073673
   3 C :    0.033059
   4 C :   -0.149320
   5 H :    0.011086
   6 C :    0.047754
   7 H :    0.025861
   8 H :    0.032894
   9 C :   -0.083833
  10 H :    0.020603
  11 H :    0.038786
  12 C :   -0.028292
  13 H :    0.019419
  14 H :    0.031926
  15 H :    0.035983
  16 S :    0.079840
  17 C :   -0.100453
  18 C :   -0.021815
  19 C :   -0.097850
  20 C :   -0.096731
  21 H :    0.005648
  22 C :    0.113203
  23 H :    0.011808
  24 H :   -0.010521
  25 C :   -0.057138
  26 H :    0.021257
  27 H :    0.029518
  28 C :   -0.057516
  29 H :    0.029106
  30 H :    0.035585
  31 H :    0.044439
  32 H :    0.066445
  33 H :    0.070450
Sum of atomic charges:   -0.0000000

LOEWDIN ATOMIC CHARGES
----------------------
   0 S :    0.366837
   1 C :   -0.193357
   2 C :   -0.058993
   3 C :   -0.057606
   4 C :   -0.163059
   5 H :    0.029093
   6 C :   -0.035976
   7 H :    0.032926
   8 H :    0.035292
   9 C :   -0.039924
  10 H :    0.020140
  11 H :    0.024283
  12 C :   -0.068217
  13 H :    0.028128
  14 H :    0.028609
  15 H :    0.024683
  16 S :    0.396688
  17 C :   -0.176482
  18 C :   -0.067060
  19 C :   -0.058726
  20 C :   -0.207063
  21 H :    0.024184
  22 C :   -0.019630
  23 H :    0.032048
  24 H :    0.007448
  25 C :   -0.033695
  26 H :    0.024275
  27 H :    0.020453
  28 C :   -0.066206
  29 H :    0.028568
  30 H :    0.023640
  31 H :    0.025313
  32 H :    0.036581
  33 H :    0.036807

  Mayer bond orders larger than 0.100000
B(  0-S ,  1-C ) :   1.1188 B(  0-S ,  4-C ) :   1.1349 B(  1-C ,  2-C ) :   1.6252
B(  1-C ,  4-C ) :   0.1058 B(  1-C , 32-H ) :   0.9611 B(  2-C ,  3-C ) :   1.1956
B(  2-C ,  6-C ) :   1.0397 B(  3-C ,  4-C ) :   1.6080 B(  3-C ,  5-H ) :   0.9947
B(  4-C , 20-C ) :   1.0211 B(  6-C ,  7-H ) :   0.9338 B(  6-C ,  8-H ) :   0.9479
B(  6-C ,  9-C ) :   1.0375 B(  9-C , 10-H ) :   0.9541 B(  9-C , 11-H ) :   0.9621
B(  9-C , 12-C ) :   1.0754 B( 12-C , 13-H ) :   0.9711 B( 12-C , 14-H ) :   0.9732
B( 12-C , 15-H ) :   0.9783 B( 16-S , 17-C ) :   1.1561 B( 16-S , 20-C ) :   1.1345
B( 17-C , 18-C ) :   1.6083 B( 17-C , 33-H ) :   0.9644 B( 18-C , 19-C ) :   1.2438
B( 18-C , 21-H ) :   0.9997 B( 19-C , 20-C ) :   1.6116 B( 19-C , 22-C ) :   1.0135
B( 22-C , 23-H ) :   0.9326 B( 22-C , 24-H ) :   0.9440 B( 22-C , 25-C ) :   1.0758
B( 25-C , 26-H ) :   0.9533 B( 25-C , 27-H ) :   0.9576 B( 25-C , 28-C ) :   1.0810
B( 28-C , 29-H ) :   0.9735 B( 28-C , 30-H ) :   0.9774 B( 28-C , 31-H ) :   0.9754

Dispersion correction           -0.015085147
FINAL SINGLE POINT ENERGY     -1339.859419404923

DIPOLE MOMENT
-------------
                                X             Y             Z
Electronic contribution:     14.06220      -5.88670     -26.56219
Nuclear contribution   :    -14.07713       5.84794      27.41400
                        -----------------------------------------
Total Dipole Moment    :     -0.01493      -0.03876       0.85180
                        -----------------------------------------
Magnitude (a.u.)       :      0.85282
Magnitude (Debye)      :      2.16769

Rotational constants in cm-1:     0.019435     0.009050     0.007106
Rotational constants in MHz :   582.644455   271.315831   213.047260

                             ****ORCA TERMINATED NORMALLY****
TOTAL RUN TIME: 0 days 0 hours 0 minutes 29 seconds 958 msec
