                         Program Version 4.2.1 -  RELEASE  -
|  1> ! wB97X-D3 SP def2-SVP
|  2> %pal
|  3> nprocs 16
|  4> end
|  5>
|  6> * xyz 0 1
|  7> S 	 -44.9312 	 19.7665 	 88.5925
|  8> C 	 -43.5186 	 19.9697 	 89.562
|  9> C 	 -42.3634 	 20.0827 	 88.8109
| 10> C 	 -42.6653 	 20.1133 	 87.4061
| 11> C 	 -44.0102 	 19.9304 	 87.1458
| 12> H 	 -41.9159 	 20.1387 	 86.6181
| 13> C 	 -40.9758 	 20.2599 	 89.293
| 14> H 	 -40.7556 	 21.3048 	 89.5765
| 15> H 	 -40.2377 	 20.071 	 88.5405
| 16> C 	 -40.6357 	 19.3883 	 90.5129
| 17> H 	 -39.5906 	 19.5808 	 90.7551
| 18> H 	 -41.1837 	 19.8528 	 91.3833
| 19> C 	 -40.8735 	 17.9346 	 90.3849
| 20> H 	 -40.5372 	 17.6801 	 89.4192
| 21> H 	 -40.3003 	 17.285 	 91.0464
| 22> H 	 -41.9159 	 17.717 	 90.3915
| 23> S 	 -46.0457 	 19.0503 	 85.525
| 24> C 	 -46.2219 	 19.7236 	 83.905
| 25> C 	 -45.219 	 20.569 	 83.623
| 26> C 	 -44.2939 	 20.8008 	 84.7312
| 27> C 	 -44.5816 	 19.9601 	 85.803
| 28> H 	 -45.1448 	 20.949 	 82.5643
| 29> C 	 -43.1958 	 21.8263 	 84.5918
| 30> H 	 -43.0259 	 22.2171 	 85.6184
| 31> H 	 -43.502 	 22.8416 	 84.1735
| 32> C 	 -41.961 	 21.309 	 83.8588
| 33> H 	 -42.228 	 21.0963 	 82.7882
| 34> H 	 -41.6571 	 20.3376 	 84.1587
| 35> C 	 -40.6521 	 22.1668 	 84.0081
| 36> H 	 -40.7054 	 23.072 	 83.4007
| 37> H 	 -39.8178 	 21.6537 	 83.6216
| 38> H 	 -40.3558 	 22.3392 	 85.0456
| 39> H 	 -43.5586 	 20.0147 	 90.6412
| 40> H 	 -46.7899 	 19.2527 	 83.1525
| 41> *
| 42>
| 43>                          ****END OF INPUT****

CARTESIAN COORDINATES (ANGSTROEM)
---------------------------------
  S    -44.931200   19.766500   88.592500
  C    -43.518600   19.969700   89.562000
  C    -42.363400   20.082700   88.810900
  C    -42.665300   20.113300   87.406100
  C    -44.010200   19.930400   87.145800
  H    -41.915900   20.138700   86.618100
  C    -40.975800   20.259900   89.293000
  H    -40.755600   21.304800   89.576500
  H    -40.237700   20.071000   88.540500
  C    -40.635700   19.388300   90.512900
  H    -39.590600   19.580800   90.755100
  H    -41.183700   19.852800   91.383300
  C    -40.873500   17.934600   90.384900
  H    -40.537200   17.680100   89.419200
  H    -40.300300   17.285000   91.046400
  H    -41.915900   17.717000   90.391500
  S    -46.045700   19.050300   85.525000
  C    -46.221900   19.723600   83.905000
  C    -45.219000   20.569000   83.623000
  C    -44.293900   20.800800   84.731200
  C    -44.581600   19.960100   85.803000
  H    -45.144800   20.949000   82.564300
  C    -43.195800   21.826300   84.591800
  H    -43.025900   22.217100   85.618400
  H    -43.502000   22.841600   84.173500
  C    -41.961000   21.309000   83.858800
  H    -42.228000   21.096300   82.788200
  H    -41.657100   20.337600   84.158700
  C    -40.652100   22.166800   84.008100
  H    -40.705400   23.072000   83.400700
  H    -39.817800   21.653700   83.621600
  H    -40.355800   22.339200   85.045600
  H    -43.558600   20.014700   90.641200
  H    -46.789900   19.252700   83.152500

 Total Charge           Charge          ....    0
 Multiplicity           Mult            ....    1
 Number of Electrons    NEL             ....  134
 Basis Dimension        Dim             ....  322

ORBITAL ENERGIES
----------------

  NO   OCC          E(Eh)            E(eV)
   0   2.0000     -88.969966     -2420.9959
   1   2.0000     -88.962112     -2420.7822
   2   2.0000     -10.330391      -281.1042
   3   2.0000     -10.327165      -281.0164
   4   2.0000     -10.312249      -280.6106
   5   2.0000     -10.309657      -280.5400
   6   2.0000     -10.307306      -280.4761
   7   2.0000     -10.299682      -280.2686
   8   2.0000     -10.297841      -280.2185
   9   2.0000     -10.296299      -280.1766
  10   2.0000     -10.292607      -280.0761
  11   2.0000     -10.291771      -280.0533
  12   2.0000     -10.289288      -279.9858
  13   2.0000     -10.284151      -279.8460
  14   2.0000     -10.279064      -279.7076
  15   2.0000     -10.264452      -279.3100
  16   2.0000      -8.085372      -220.0142
  17   2.0000      -8.077169      -219.7909
  18   2.0000      -6.043869      -164.4620
  19   2.0000      -6.039788      -164.3510
  20   2.0000      -6.036105      -164.2508
  21   2.0000      -6.035815      -164.2429
  22   2.0000      -6.031692      -164.1307
  23   2.0000      -6.027720      -164.0226
  24   2.0000      -1.011143       -27.5146
  25   2.0000      -0.986950       -26.8563
  26   2.0000      -0.920199       -25.0399
  27   2.0000      -0.905530       -24.6407
  28   2.0000      -0.871922       -23.7262
  29   2.0000      -0.855828       -23.2883
  30   2.0000      -0.845044       -22.9948
  31   2.0000      -0.816691       -22.2233
  32   2.0000      -0.787385       -21.4258
  33   2.0000      -0.775966       -21.1151
  34   2.0000      -0.709057       -19.2944
  35   2.0000      -0.704324       -19.1656
  36   2.0000      -0.694650       -18.9024
  37   2.0000      -0.661943       -18.0124
  38   2.0000      -0.637800       -17.3554
  39   2.0000      -0.613431       -16.6923
  40   2.0000      -0.598155       -16.2766
  41   2.0000      -0.579959       -15.7815
  42   2.0000      -0.557132       -15.1603
  43   2.0000      -0.555137       -15.1060
  44   2.0000      -0.543494       -14.7892
  45   2.0000      -0.526613       -14.3299
  46   2.0000      -0.514941       -14.0123
  47   2.0000      -0.510998       -13.9050
  48   2.0000      -0.505134       -13.7454
  49   2.0000      -0.496937       -13.5223
  50   2.0000      -0.496184       -13.5019
  51   2.0000      -0.488196       -13.2845
  52   2.0000      -0.472157       -12.8480
  53   2.0000      -0.468788       -12.7564
  54   2.0000      -0.462682       -12.5902
  55   2.0000      -0.449358       -12.2276
  56   2.0000      -0.444869       -12.1055
  57   2.0000      -0.442490       -12.0408
  58   2.0000      -0.433333       -11.7916
  59   2.0000      -0.420929       -11.4541
  60   2.0000      -0.419428       -11.4132
  61   2.0000      -0.409585       -11.1454
  62   2.0000      -0.406988       -11.0747
  63   2.0000      -0.359396        -9.7797
  64   2.0000      -0.333000        -9.0614
  65   2.0000      -0.328658        -8.9432
  66   2.0000      -0.288760        -7.8576
  67   0.0000       0.028028         0.7627
  68   0.0000       0.078178         2.1273
  69   0.0000       0.105451         2.8695
  70   0.0000       0.120387         3.2759
  71   0.0000       0.128374         3.4932

MULLIKEN ATOMIC CHARGES
-----------------------
   0 S :    0.128968
   1 C :   -0.133248
   2 C :   -0.067365
   3 C :   -0.015340
   4 C :   -0.107982
   5 H :    0.008958
   6 C :    0.080850
   7 H :    0.042809
   8 H :    0.009521
   9 C :   -0.121413
  10 H :    0.019285
  11 H :    0.023125
  12 C :    0.026444
  13 H :    0.000743
  14 H :    0.033703
  15 H :    0.028183
  16 S :    0.076930
  17 C :   -0.066944
  18 C :   -0.048869
  19 C :   -0.053948
  20 C :   -0.133193
  21 H :    0.043444
  22 C :    0.033622
  23 H :    0.027528
  24 H :    0.035700
  25 C :   -0.070663
  26 H :    0.028513
  27 H :    0.016927
  28 C :   -0.026642
  29 H :    0.034852
  30 H :    0.016520
  31 H :    0.032826
  32 H :    0.047085
  33 H :    0.049073
Sum of atomic charges:   -0.0000000

LOEWDIN ATOMIC CHARGES
----------------------
   0 S :    0.432024
   1 C :   -0.204882
   2 C :   -0.061862
   3 C :   -0.062465
   4 C :   -0.201216
   5 H :    0.031405
   6 C :   -0.033652
   7 H :    0.040733
   8 H :    0.024069
   9 C :   -0.045971
  10 H :    0.022880
  11 H :    0.020947
  12 C :   -0.061060
  13 H :    0.021110
  14 H :    0.029627
  15 H :    0.023980
  16 S :    0.384898
  17 C :   -0.178643
  18 C :   -0.070267
  19 C :   -0.056914
  20 C :   -0.186997
  21 H :    0.042922
  22 C :   -0.048182
  23 H :    0.033527
  24 H :    0.039600
  25 C :   -0.042349
  26 H :    0.030487
  27 H :    0.015863
  28 C :   -0.062961
  29 H :    0.025986
  30 H :    0.020823
  31 H :    0.026943
  32 H :    0.025983
  33 H :    0.023615

  Mayer bond orders larger than 0.100000
B(  0-S ,  1-C ) :   1.1405 B(  0-S ,  4-C ) :   1.1600 B(  1-C ,  2-C ) :   1.5902
B(  1-C , 32-H ) :   0.9682 B(  2-C ,  3-C ) :   1.2503 B(  2-C ,  6-C ) :   1.0318
B(  3-C ,  4-C ) :   1.5483 B(  3-C ,  5-H ) :   0.9999 B(  4-C , 20-C ) :   1.0539
B(  6-C ,  7-H ) :   0.9289 B(  6-C ,  8-H ) :   0.9372 B(  6-C ,  9-C ) :   1.0856
B(  9-C , 10-H ) :   0.9533 B(  9-C , 11-H ) :   0.9497 B(  9-C , 12-C ) :   1.0830
B( 12-C , 13-H ) :   0.9665 B( 12-C , 14-H ) :   0.9723 B( 12-C , 15-H ) :   0.9655
B( 16-S , 17-C ) :   1.1221 B( 16-S , 20-C ) :   1.1312 B( 17-C , 18-C ) :   1.6770
B( 17-C , 33-H ) :   0.9628 B( 18-C , 19-C ) :   1.2035 B( 18-C , 21-H ) :   0.9761
B( 19-C , 20-C ) :   1.6101 B( 19-C , 22-C ) :   1.0488 B( 22-C , 23-H ) :   0.9306
B( 22-C , 24-H ) :   0.9368 B( 22-C , 25-C ) :   1.0470 B( 25-C , 26-H ) :   0.9508
B( 25-C , 27-H ) :   0.9568 B( 25-C , 28-C ) :   1.0812 B( 28-C , 29-H ) :   0.9761
B( 28-C , 30-H ) :   0.9734 B( 28-C , 31-H ) :   0.9751

Dispersion correction           -0.014664713
FINAL SINGLE POINT ENERGY     -1339.884281481194

DIPOLE MOMENT
-------------
                                X             Y             Z
Electronic contribution:    -27.57057      -5.55094      -0.78157
Nuclear contribution   :     28.28118       5.77170       0.56320
                        -----------------------------------------
Total Dipole Moment    :      0.71061       0.22076      -0.21838
                        -----------------------------------------
Magnitude (a.u.)       :      0.77550
Magnitude (Debye)      :      1.97115

Rotational constants in cm-1:     0.018640     0.009170     0.006641
Rotational constants in MHz :   558.817453   274.902978   199.091372

                             ****ORCA TERMINATED NORMALLY****
TOTAL RUN TIME: 0 days 0 hours 0 minutes 31 seconds 95 msec
