                         Program Version 4.2.1 -  RELEASE  -
|  1> ! wB97X-D3 SP def2-SVP
|  2> %pal
|  3> nprocs 16
|  4> end
|  5>
|  6> * xyz 0 1
|  7> S 	 -42.6298 	 50.5054 	 105.895
|  8> C 	 -41.4668 	 51.6114 	 105.204
|  9> C 	 -40.1549 	 51.3168 	 105.586
| 10> C 	 -40.1127 	 49.9565 	 106.038
| 11> C 	 -41.3965 	 49.3812 	 106.208
| 12> H 	 -39.2334 	 49.4861 	 106.264
| 13> C 	 -38.9732 	 52.1009 	 105.25
| 14> H 	 -39.3734 	 53.095 	 105.051
| 15> H 	 -38.6435 	 51.6501 	 104.316
| 16> C 	 -37.7365 	 52.1617 	 106.176
| 17> H 	 -37.4027 	 51.1255 	 106.283
| 18> H 	 -36.9464 	 52.7506 	 105.686
| 19> C 	 -38.1106 	 52.847 	 107.537
| 20> H 	 -38.6112 	 53.8268 	 107.459
| 21> H 	 -38.836 	 52.2409 	 108.057
| 22> H 	 -37.2834 	 52.8418 	 108.177
| 23> S 	 -43.1333 	 47.8674 	 107.812
| 24> C 	 -42.9202 	 46.0956 	 107.849
| 25> C 	 -41.8232 	 45.7563 	 107.067
| 26> C 	 -41.184 	 46.8612 	 106.46
| 27> C 	 -41.7126 	 48.0511 	 106.773
| 28> H 	 -41.5688 	 44.7068 	 106.885
| 29> C 	 -39.9296 	 46.6122 	 105.678
| 30> H 	 -39.791 	 47.4368 	 104.923
| 31> H 	 -40.0813 	 45.8103 	 105.009
| 32> C 	 -38.6673 	 46.4424 	 106.555
| 33> H 	 -38.7522 	 45.5971 	 107.141
| 34> H 	 -38.6665 	 47.278 	 107.282
| 35> C 	 -37.3855 	 46.32 	 105.813
| 36> H 	 -37.4777 	 46.9241 	 104.871
| 37> H 	 -37.2317 	 45.3257 	 105.582
| 38> H 	 -36.5432 	 46.4386 	 106.458
| 39> H 	 -41.8091 	 52.6088 	 104.883
| 40> H 	 -43.7075 	 45.4652 	 108.254
| 41> *
| 42>
| 43>                          ****END OF INPUT****

CARTESIAN COORDINATES (ANGSTROEM)
---------------------------------
  S    -42.629800   50.505400  105.895000
  C    -41.466800   51.611400  105.204000
  C    -40.154900   51.316800  105.586000
  C    -40.112700   49.956500  106.038000
  C    -41.396500   49.381200  106.208000
  H    -39.233400   49.486100  106.264000
  C    -38.973200   52.100900  105.250000
  H    -39.373400   53.095000  105.051000
  H    -38.643500   51.650100  104.316000
  C    -37.736500   52.161700  106.176000
  H    -37.402700   51.125500  106.283000
  H    -36.946400   52.750600  105.686000
  C    -38.110600   52.847000  107.537000
  H    -38.611200   53.826800  107.459000
  H    -38.836000   52.240900  108.057000
  H    -37.283400   52.841800  108.177000
  S    -43.133300   47.867400  107.812000
  C    -42.920200   46.095600  107.849000
  C    -41.823200   45.756300  107.067000
  C    -41.184000   46.861200  106.460000
  C    -41.712600   48.051100  106.773000
  H    -41.568800   44.706800  106.885000
  C    -39.929600   46.612200  105.678000
  H    -39.791000   47.436800  104.923000
  H    -40.081300   45.810300  105.009000
  C    -38.667300   46.442400  106.555000
  H    -38.752200   45.597100  107.141000
  H    -38.666500   47.278000  107.282000
  C    -37.385500   46.320000  105.813000
  H    -37.477700   46.924100  104.871000
  H    -37.231700   45.325700  105.582000
  H    -36.543200   46.438600  106.458000
  H    -41.809100   52.608800  104.883000
  H    -43.707500   45.465200  108.254000

 Total Charge           Charge          ....    0
 Multiplicity           Mult            ....    1
 Number of Electrons    NEL             ....  134
 Basis Dimension        Dim             ....  322

ORBITAL ENERGIES
----------------

  NO   OCC          E(Eh)            E(eV)
   0   2.0000     -88.966518     -2420.9020
   1   2.0000     -88.962531     -2420.7935
   2   2.0000     -10.330185      -281.0986
   3   2.0000     -10.324478      -280.9433
   4   2.0000     -10.321885      -280.8728
   5   2.0000     -10.311679      -280.5950
   6   2.0000     -10.300977      -280.3038
   7   2.0000     -10.296426      -280.1800
   8   2.0000     -10.295579      -280.1570
   9   2.0000     -10.292906      -280.0842
  10   2.0000     -10.289098      -279.9806
  11   2.0000     -10.288705      -279.9699
  12   2.0000     -10.287780      -279.9447
  13   2.0000     -10.278793      -279.7002
  14   2.0000     -10.274535      -279.5843
  15   2.0000     -10.270864      -279.4844
  16   2.0000      -8.082228      -219.9286
  17   2.0000      -8.076807      -219.7811
  18   2.0000      -6.040548      -164.3717
  19   2.0000      -6.036739      -164.2680
  20   2.0000      -6.035423      -164.2322
  21   2.0000      -6.033001      -164.1663
  22   2.0000      -6.031449      -164.1241
  23   2.0000      -6.027428      -164.0146
  24   2.0000      -1.009077       -27.4584
  25   2.0000      -0.986015       -26.8308
  26   2.0000      -0.917746       -24.9731
  27   2.0000      -0.913563       -24.8593
  28   2.0000      -0.865624       -23.5548
  29   2.0000      -0.859059       -23.3762
  30   2.0000      -0.845765       -23.0144
  31   2.0000      -0.813085       -22.1252
  32   2.0000      -0.785164       -21.3654
  33   2.0000      -0.775840       -21.1117
  34   2.0000      -0.713838       -19.4245
  35   2.0000      -0.703801       -19.1514
  36   2.0000      -0.693030       -18.8583
  37   2.0000      -0.664301       -18.0765
  38   2.0000      -0.637698       -17.3527
  39   2.0000      -0.624047       -16.9812
  40   2.0000      -0.600905       -16.3515
  41   2.0000      -0.566513       -15.4156
  42   2.0000      -0.559190       -15.2163
  43   2.0000      -0.558374       -15.1941
  44   2.0000      -0.544386       -14.8135
  45   2.0000      -0.536263       -14.5925
  46   2.0000      -0.522137       -14.2081
  47   2.0000      -0.518797       -14.1172
  48   2.0000      -0.508250       -13.8302
  49   2.0000      -0.492932       -13.4134
  50   2.0000      -0.487649       -13.2696
  51   2.0000      -0.479967       -13.0606
  52   2.0000      -0.473277       -12.8785
  53   2.0000      -0.458742       -12.4830
  54   2.0000      -0.456241       -12.4149
  55   2.0000      -0.453026       -12.3275
  56   2.0000      -0.447479       -12.1765
  57   2.0000      -0.438914       -11.9435
  58   2.0000      -0.435136       -11.8406
  59   2.0000      -0.431071       -11.7300
  60   2.0000      -0.422882       -11.5072
  61   2.0000      -0.416546       -11.3348
  62   2.0000      -0.411756       -11.2045
  63   2.0000      -0.349349        -9.5063
  64   2.0000      -0.332291        -9.0421
  65   2.0000      -0.326465        -8.8836
  66   2.0000      -0.286945        -7.8082
  67   0.0000       0.026113         0.7106
  68   0.0000       0.069860         1.9010
  69   0.0000       0.105123         2.8606
  70   0.0000       0.117898         3.2082
  71   0.0000       0.132513         3.6059

MULLIKEN ATOMIC CHARGES
-----------------------
   0 S :    0.117602
   1 C :   -0.135463
   2 C :   -0.082553
   3 C :    0.039724
   4 C :   -0.120431
   5 H :   -0.041953
   6 C :    0.039322
   7 H :    0.014009
   8 H :    0.047018
   9 C :   -0.065213
  10 H :    0.033141
  11 H :    0.040335
  12 C :   -0.039887
  13 H :    0.038664
  14 H :    0.029036
  15 H :    0.024731
  16 S :    0.073222
  17 C :   -0.105990
  18 C :   -0.018084
  19 C :   -0.057267
  20 C :   -0.121297
  21 H :    0.025631
  22 C :    0.053798
  23 H :    0.024001
  24 H :    0.004180
  25 C :   -0.050883
  26 H :    0.000140
  27 H :    0.027544
  28 C :    0.020504
  29 H :    0.038704
  30 H :    0.002273
  31 H :    0.022570
  32 H :    0.053238
  33 H :    0.069636
Sum of atomic charges:    0.0000000

LOEWDIN ATOMIC CHARGES
----------------------
   0 S :    0.433305
   1 C :   -0.210647
   2 C :   -0.055648
   3 C :   -0.056809
   4 C :   -0.196256
   5 H :    0.008816
   6 C :   -0.039090
   7 H :    0.028898
   8 H :    0.041194
   9 C :   -0.032555
  10 H :    0.024371
  11 H :    0.029529
  12 C :   -0.064383
  13 H :    0.031018
  14 H :    0.026455
  15 H :    0.017835
  16 S :    0.368322
  17 C :   -0.172302
  18 C :   -0.065145
  19 C :   -0.067167
  20 C :   -0.184042
  21 H :    0.034812
  22 C :   -0.031014
  23 H :    0.032261
  24 H :    0.021200
  25 C :   -0.035580
  26 H :    0.014132
  27 H :    0.023762
  28 C :   -0.061338
  29 H :    0.033306
  30 H :    0.017381
  31 H :    0.029038
  32 H :    0.024945
  33 H :    0.031393

  Mayer bond orders larger than 0.100000
B(  0-S ,  1-C ) :   1.1477 B(  0-S ,  4-C ) :   1.1805 B(  1-C ,  2-C ) :   1.5737
B(  1-C , 32-H ) :   0.9614 B(  2-C ,  3-C ) :   1.2487 B(  2-C ,  6-C ) :   1.0372
B(  3-C ,  4-C ) :   1.5170 B(  3-C ,  5-H ) :   1.0121 B(  4-C , 20-C ) :   1.0391
B(  6-C ,  7-H ) :   0.9351 B(  6-C ,  8-H ) :   0.9349 B(  6-C ,  9-C ) :   1.0765
B(  9-C , 10-H ) :   0.9522 B(  9-C , 11-H ) :   0.9557 B(  9-C , 12-C ) :   1.0698
B( 12-C , 13-H ) :   0.9760 B( 12-C , 14-H ) :   0.9740 B( 12-C , 15-H ) :   0.9759
B( 16-S , 17-C ) :   1.1404 B( 16-S , 20-C ) :   1.1167 B( 17-C , 18-C ) :   1.6019
B( 17-C , 33-H ) :   0.9697 B( 18-C , 19-C ) :   1.2362 B( 18-C , 21-H ) :   0.9890
B( 19-C , 20-C ) :   1.6382 B( 19-C , 22-C ) :   1.0616 B( 22-C , 23-H ) :   0.9226
B( 22-C , 24-H ) :   0.9253 B( 22-C , 25-C ) :   1.0579 B( 25-C , 26-H ) :   0.9481
B( 25-C , 27-H ) :   0.9549 B( 25-C , 28-C ) :   1.0904 B( 28-C , 29-H ) :   0.9734
B( 28-C , 30-H ) :   0.9671 B( 28-C , 31-H ) :   0.9648

Dispersion correction           -0.014552407
FINAL SINGLE POINT ENERGY     -1339.864900491937

DIPOLE MOMENT
-------------
                                X             Y             Z
Electronic contribution:    -28.89401      -2.03460       2.99072
Nuclear contribution   :     29.55762       1.84830      -3.12521
                        -----------------------------------------
Total Dipole Moment    :      0.66361      -0.18630      -0.13449
                        -----------------------------------------
Magnitude (a.u.)       :      0.70226
Magnitude (Debye)      :      1.78502

Rotational constants in cm-1:     0.017228     0.009789     0.007050
Rotational constants in MHz :   516.468451   293.476628   211.350873

                             ****ORCA TERMINATED NORMALLY****
TOTAL RUN TIME: 0 days 0 hours 0 minutes 31 seconds 304 msec
