                         Program Version 4.2.1 -  RELEASE  -
|  1> ! wB97X-D3 SP def2-SVP
|  2> %pal
|  3> nprocs 16
|  4> end
|  5>
|  6> * xyz 0 1
|  7> S 	 -30.4364 	 54.489 	 110.848
|  8> C 	 -31.327 	 55.6884 	 110.082
|  9> C 	 -32.6832 	 55.6616 	 110.377
| 10> C 	 -32.9565 	 54.5294 	 111.202
| 11> C 	 -31.85 	 53.7147 	 111.481
| 12> H 	 -33.965 	 54.3638 	 111.632
| 13> C 	 -33.6857 	 56.4696 	 109.644
| 14> H 	 -33.2714 	 57.4583 	 109.788
| 15> H 	 -34.5077 	 56.3971 	 110.271
| 16> C 	 -33.949 	 56.0016 	 108.222
| 17> H 	 -33.0831 	 56.0596 	 107.561
| 18> H 	 -34.1455 	 54.9413 	 108.39
| 19> C 	 -34.9564 	 56.8083 	 107.301
| 20> H 	 -34.8501 	 57.926 	 107.032
| 21> H 	 -35.1339 	 56.2765 	 106.4
| 22> H 	 -35.9553 	 56.7053 	 107.769
| 23> S 	 -32.2623 	 52.8644 	 114.106
| 24> C 	 -32.0876 	 51.2848 	 114.641
| 25> C 	 -31.5796 	 50.5035 	 113.594
| 26> C 	 -31.4224 	 51.2407 	 112.348
| 27> C 	 -31.9813 	 52.5273 	 112.364
| 28> H 	 -31.1132 	 49.5263 	 113.785
| 29> C 	 -30.7836 	 50.6352 	 111.112
| 30> H 	 -30.4112 	 49.615 	 111.403
| 31> H 	 -29.8672 	 51.1708 	 110.819
| 32> C 	 -31.7944 	 50.3324 	 110.017
| 33> H 	 -32.4265 	 51.1712 	 109.81
| 34> H 	 -32.5165 	 49.5547 	 110.327
| 35> C 	 -31.2091 	 49.9875 	 108.649
| 36> H 	 -31.0165 	 48.9435 	 108.523
| 37> H 	 -30.2799 	 50.5012 	 108.359
| 38> H 	 -31.9611 	 50.2508 	 107.789
| 39> H 	 -30.8719 	 56.5156 	 109.528
| 40> H 	 -31.9398 	 50.9866 	 115.62
| 41> *
| 42>
| 43>                          ****END OF INPUT****

CARTESIAN COORDINATES (ANGSTROEM)
---------------------------------
  S    -30.436400   54.489000  110.848000
  C    -31.327000   55.688400  110.082000
  C    -32.683200   55.661600  110.377000
  C    -32.956500   54.529400  111.202000
  C    -31.850000   53.714700  111.481000
  H    -33.965000   54.363800  111.632000
  C    -33.685700   56.469600  109.644000
  H    -33.271400   57.458300  109.788000
  H    -34.507700   56.397100  110.271000
  C    -33.949000   56.001600  108.222000
  H    -33.083100   56.059600  107.561000
  H    -34.145500   54.941300  108.390000
  C    -34.956400   56.808300  107.301000
  H    -34.850100   57.926000  107.032000
  H    -35.133900   56.276500  106.400000
  H    -35.955300   56.705300  107.769000
  S    -32.262300   52.864400  114.106000
  C    -32.087600   51.284800  114.641000
  C    -31.579600   50.503500  113.594000
  C    -31.422400   51.240700  112.348000
  C    -31.981300   52.527300  112.364000
  H    -31.113200   49.526300  113.785000
  C    -30.783600   50.635200  111.112000
  H    -30.411200   49.615000  111.403000
  H    -29.867200   51.170800  110.819000
  C    -31.794400   50.332400  110.017000
  H    -32.426500   51.171200  109.810000
  H    -32.516500   49.554700  110.327000
  C    -31.209100   49.987500  108.649000
  H    -31.016500   48.943500  108.523000
  H    -30.279900   50.501200  108.359000
  H    -31.961100   50.250800  107.789000
  H    -30.871900   56.515600  109.528000
  H    -31.939800   50.986600  115.620000

 Total Charge           Charge          ....    0
 Multiplicity           Mult            ....    1
 Number of Electrons    NEL             ....  134
 Basis Dimension        Dim             ....  322

ORBITAL ENERGIES
----------------

  NO   OCC          E(Eh)            E(eV)
   0   2.0000     -88.971784     -2421.0453
   1   2.0000     -88.961937     -2420.7774
   2   2.0000     -10.331442      -281.1328
   3   2.0000     -10.330996      -281.1207
   4   2.0000     -10.312167      -280.6083
   5   2.0000     -10.310062      -280.5510
   6   2.0000     -10.308634      -280.5122
   7   2.0000     -10.297452      -280.2079
   8   2.0000     -10.296486      -280.1816
   9   2.0000     -10.294203      -280.1195
  10   2.0000     -10.293671      -280.1050
  11   2.0000     -10.293469      -280.0995
  12   2.0000     -10.287316      -279.9321
  13   2.0000     -10.283187      -279.8197
  14   2.0000     -10.280598      -279.7493
  15   2.0000     -10.278649      -279.6963
  16   2.0000      -8.087486      -220.0717
  17   2.0000      -8.077267      -219.7936
  18   2.0000      -6.045825      -164.5153
  19   2.0000      -6.041674      -164.4023
  20   2.0000      -6.038561      -164.3176
  21   2.0000      -6.035686      -164.2394
  22   2.0000      -6.031599      -164.1282
  23   2.0000      -6.028117      -164.0334
  24   2.0000      -1.010286       -27.4913
  25   2.0000      -0.990200       -26.9447
  26   2.0000      -0.916598       -24.9419
  27   2.0000      -0.907701       -24.6998
  28   2.0000      -0.867366       -23.6022
  29   2.0000      -0.850592       -23.1458
  30   2.0000      -0.844770       -22.9874
  31   2.0000      -0.811487       -22.0817
  32   2.0000      -0.782610       -21.2959
  33   2.0000      -0.771265       -20.9872
  34   2.0000      -0.709040       -19.2940
  35   2.0000      -0.703664       -19.1477
  36   2.0000      -0.690760       -18.7965
  37   2.0000      -0.662067       -18.0158
  38   2.0000      -0.641814       -17.4646
  39   2.0000      -0.612521       -16.6675
  40   2.0000      -0.591502       -16.0956
  41   2.0000      -0.572538       -15.5796
  42   2.0000      -0.561247       -15.2723
  43   2.0000      -0.558451       -15.1962
  44   2.0000      -0.525635       -14.3033
  45   2.0000      -0.522134       -14.2080
  46   2.0000      -0.514914       -14.0115
  47   2.0000      -0.512292       -13.9402
  48   2.0000      -0.506577       -13.7846
  49   2.0000      -0.501701       -13.6520
  50   2.0000      -0.495743       -13.4899
  51   2.0000      -0.477852       -13.0030
  52   2.0000      -0.469488       -12.7754
  53   2.0000      -0.463547       -12.6138
  54   2.0000      -0.461845       -12.5674
  55   2.0000      -0.446658       -12.1542
  56   2.0000      -0.441556       -12.0154
  57   2.0000      -0.436759       -11.8848
  58   2.0000      -0.432197       -11.7607
  59   2.0000      -0.430509       -11.7148
  60   2.0000      -0.416112       -11.3230
  61   2.0000      -0.405775       -11.0417
  62   2.0000      -0.401695       -10.9307
  63   2.0000      -0.340023        -9.2525
  64   2.0000      -0.331846        -9.0300
  65   2.0000      -0.324326        -8.8254
  66   2.0000      -0.297972        -8.1082
  67   0.0000       0.031299         0.8517
  68   0.0000       0.056150         1.5279
  69   0.0000       0.106620         2.9013
  70   0.0000       0.119758         3.2588
  71   0.0000       0.130627         3.5545

MULLIKEN ATOMIC CHARGES
-----------------------
   0 S :    0.148201
   1 C :   -0.139293
   2 C :   -0.133013
   3 C :   -0.014781
   4 C :   -0.139247
   5 H :    0.028297
   6 C :    0.147952
   7 H :    0.018408
   8 H :   -0.003097
   9 C :   -0.063426
  10 H :    0.030568
  11 H :    0.034856
  12 C :   -0.067916
  13 H :    0.059735
  14 H :    0.027054
  15 H :    0.021002
  16 S :    0.101206
  17 C :   -0.044767
  18 C :   -0.058583
  19 C :   -0.081368
  20 C :   -0.144413
  21 H :    0.030646
  22 C :    0.063239
  23 H :    0.015239
  24 H :    0.039608
  25 C :   -0.058804
  26 H :    0.028912
  27 H :    0.032556
  28 C :   -0.074776
  29 H :    0.025250
  30 H :    0.033029
  31 H :    0.038112
  32 H :    0.055009
  33 H :    0.044605
Sum of atomic charges:    0.0000000

LOEWDIN ATOMIC CHARGES
----------------------
   0 S :    0.455345
   1 C :   -0.216248
   2 C :   -0.072981
   3 C :   -0.062213
   4 C :   -0.222768
   5 H :    0.035362
   6 C :   -0.029322
   7 H :    0.031639
   8 H :    0.021154
   9 C :   -0.037564
  10 H :    0.026053
  11 H :    0.033114
  12 C :   -0.080652
  13 H :    0.040828
  14 H :    0.022623
  15 H :    0.023536
  16 S :    0.430609
  17 C :   -0.198785
  18 C :   -0.082668
  19 C :   -0.050583
  20 C :   -0.193386
  21 H :    0.032748
  22 C :   -0.037819
  23 H :    0.033130
  24 H :    0.031691
  25 C :   -0.045094
  26 H :    0.021611
  27 H :    0.032060
  28 C :   -0.073483
  29 H :    0.016347
  30 H :    0.025294
  31 H :    0.037213
  32 H :    0.031768
  33 H :    0.021442

  Mayer bond orders larger than 0.100000
B(  0-S ,  1-C ) :   1.1904 B(  0-S ,  4-C ) :   1.1534 B(  1-C ,  2-C ) :   1.5482
B(  1-C , 32-H ) :   0.9623 B(  2-C ,  3-C ) :   1.2952 B(  2-C ,  6-C ) :   1.0255
B(  3-C ,  4-C ) :   1.5090 B(  3-C ,  5-H ) :   0.9919 B(  4-C , 20-C ) :   1.0606
B(  6-C ,  7-H ) :   0.9247 B(  6-C ,  8-H ) :   0.9297 B(  6-C ,  9-C ) :   1.0570
B(  9-C , 10-H ) :   0.9615 B(  9-C , 11-H ) :   0.9539 B(  9-C , 12-C ) :   1.0630
B( 12-C , 13-H ) :   0.9763 B( 12-C , 14-H ) :   0.9735 B( 12-C , 15-H ) :   0.9746
B( 16-S , 17-C ) :   1.2070 B( 16-S , 20-C ) :   1.1342 B( 17-C , 18-C ) :   1.5496
B( 17-C , 20-C ) :   0.1014 B( 17-C , 33-H ) :   0.9700 B( 18-C , 19-C ) :   1.2987
B( 18-C , 21-H ) :   0.9800 B( 19-C , 20-C ) :   1.5384 B( 19-C , 22-C ) :   1.0485
B( 22-C , 23-H ) :   0.9351 B( 22-C , 24-H ) :   0.9370 B( 22-C , 25-C ) :   1.0588
B( 25-C , 26-H ) :   0.9657 B( 25-C , 27-H ) :   0.9509 B( 25-C , 28-C ) :   1.0705
B( 28-C , 29-H ) :   0.9779 B( 28-C , 30-H ) :   0.9762 B( 28-C , 31-H ) :   0.9771

Dispersion correction           -0.014092219
FINAL SINGLE POINT ENERGY     -1339.845791329391

DIPOLE MOMENT
-------------
                                X             Y             Z
Electronic contribution:      9.30602       1.87819      23.95618
Nuclear contribution   :     -9.24775      -1.88933     -24.24486
                        -----------------------------------------
Total Dipole Moment    :      0.05827      -0.01113      -0.28868
                        -----------------------------------------
Magnitude (a.u.)       :      0.29471
Magnitude (Debye)      :      0.74910

Rotational constants in cm-1:     0.019072     0.008022     0.006734
Rotational constants in MHz :   571.752020   240.491845   201.891003

                             ****ORCA TERMINATED NORMALLY****
TOTAL RUN TIME: 0 days 0 hours 0 minutes 29 seconds 450 msec
