                         Program Version 4.2.1 -  RELEASE  -
|  1> ! wB97X-D3 SP def2-SVP
|  2> %pal
|  3> nprocs 16
|  4> end
|  5>
|  6> * xyz 0 1
|  7> S 	 -66.7322 	 46.4332 	 125.489
|  8> C 	 -67.0087 	 45.3659 	 126.91
|  9> C 	 -67.8681 	 45.9636 	 127.818
| 10> C 	 -68.2701 	 47.2567 	 127.389
| 11> C 	 -67.6975 	 47.6959 	 126.176
| 12> H 	 -68.9554 	 47.992 	 127.797
| 13> C 	 -68.5523 	 45.3528 	 129.019
| 14> H 	 -68.7127 	 44.2104 	 128.999
| 15> H 	 -69.5104 	 45.8573 	 128.937
| 16> C 	 -67.896 	 45.5792 	 130.37
| 17> H 	 -66.9626 	 45.1076 	 130.371
| 18> H 	 -67.8254 	 46.6393 	 130.622
| 19> C 	 -68.5744 	 44.8248 	 131.571
| 20> H 	 -69.6351 	 45.1593 	 131.691
| 21> H 	 -68.6252 	 43.7584 	 131.431
| 22> H 	 -68.1599 	 45.0714 	 132.561
| 23> S 	 -68.4351 	 48.9067 	 123.765
| 24> C 	 -68.4392 	 50.6756 	 123.687
| 25> C 	 -68.1937 	 51.1661 	 124.925
| 26> C 	 -67.8001 	 50.247 	 125.917
| 27> C 	 -68.0558 	 48.9415 	 125.455
| 28> H 	 -68.1078 	 52.2179 	 125.056
| 29> C 	 -67.3924 	 50.6551 	 127.27
| 30> H 	 -66.8412 	 51.6239 	 127.257
| 31> H 	 -66.7516 	 49.9034 	 127.64
| 32> C 	 -68.4913 	 50.7723 	 128.362
| 33> H 	 -68.9036 	 49.8267 	 128.654
| 34> H 	 -69.4016 	 51.2418 	 127.865
| 35> C 	 -68.0545 	 51.684 	 129.546
| 36> H 	 -68.8029 	 52.123 	 130.126
| 37> H 	 -67.5463 	 52.5656 	 129.08
| 38> H 	 -67.3246 	 51.2166 	 130.24
| 39> H 	 -66.5753 	 44.3566 	 127.028
| 40> H 	 -68.8027 	 51.3317 	 122.933
| 41> *
| 42>
| 43>                          ****END OF INPUT****

CARTESIAN COORDINATES (ANGSTROEM)
---------------------------------
  S    -66.732200   46.433200  125.489000
  C    -67.008700   45.365900  126.910000
  C    -67.868100   45.963600  127.818000
  C    -68.270100   47.256700  127.389000
  C    -67.697500   47.695900  126.176000
  H    -68.955400   47.992000  127.797000
  C    -68.552300   45.352800  129.019000
  H    -68.712700   44.210400  128.999000
  H    -69.510400   45.857300  128.937000
  C    -67.896000   45.579200  130.370000
  H    -66.962600   45.107600  130.371000
  H    -67.825400   46.639300  130.622000
  C    -68.574400   44.824800  131.571000
  H    -69.635100   45.159300  131.691000
  H    -68.625200   43.758400  131.431000
  H    -68.159900   45.071400  132.561000
  S    -68.435100   48.906700  123.765000
  C    -68.439200   50.675600  123.687000
  C    -68.193700   51.166100  124.925000
  C    -67.800100   50.247000  125.917000
  C    -68.055800   48.941500  125.455000
  H    -68.107800   52.217900  125.056000
  C    -67.392400   50.655100  127.270000
  H    -66.841200   51.623900  127.257000
  H    -66.751600   49.903400  127.640000
  C    -68.491300   50.772300  128.362000
  H    -68.903600   49.826700  128.654000
  H    -69.401600   51.241800  127.865000
  C    -68.054500   51.684000  129.546000
  H    -68.802900   52.123000  130.126000
  H    -67.546300   52.565600  129.080000
  H    -67.324600   51.216600  130.240000
  H    -66.575300   44.356600  127.028000
  H    -68.802700   51.331700  122.933000

 Total Charge           Charge          ....    0
 Multiplicity           Mult            ....    1
 Number of Electrons    NEL             ....  134
 Basis Dimension        Dim             ....  322

ORBITAL ENERGIES
----------------

  NO   OCC          E(Eh)            E(eV)
   0   2.0000     -88.969892     -2420.9938
   1   2.0000     -88.969154     -2420.9738
   2   2.0000     -10.331684      -281.1394
   3   2.0000     -10.330285      -281.1013
   4   2.0000     -10.321747      -280.8690
   5   2.0000     -10.314291      -280.6661
   6   2.0000     -10.306138      -280.4443
   7   2.0000     -10.300249      -280.2840
   8   2.0000     -10.298888      -280.2470
   9   2.0000     -10.295726      -280.1609
  10   2.0000     -10.294185      -280.1190
  11   2.0000     -10.289082      -279.9802
  12   2.0000     -10.286207      -279.9019
  13   2.0000     -10.284931      -279.8672
  14   2.0000     -10.282736      -279.8075
  15   2.0000     -10.282555      -279.8026
  16   2.0000      -8.084310      -219.9853
  17   2.0000      -8.083136      -219.9533
  18   2.0000      -6.042917      -164.4361
  19   2.0000      -6.041663      -164.4020
  20   2.0000      -6.038835      -164.3250
  21   2.0000      -6.037680      -164.2936
  22   2.0000      -6.035008      -164.2209
  23   2.0000      -6.033986      -164.1931
  24   2.0000      -1.007824       -27.4243
  25   2.0000      -0.984623       -26.7930
  26   2.0000      -0.912626       -24.8338
  27   2.0000      -0.910823       -24.7847
  28   2.0000      -0.869231       -23.6530
  29   2.0000      -0.852084       -23.1864
  30   2.0000      -0.847165       -23.0525
  31   2.0000      -0.814624       -22.1670
  32   2.0000      -0.782666       -21.2974
  33   2.0000      -0.773603       -21.0508
  34   2.0000      -0.709747       -19.3132
  35   2.0000      -0.703217       -19.1355
  36   2.0000      -0.698677       -19.0120
  37   2.0000      -0.661757       -18.0073
  38   2.0000      -0.643092       -17.4994
  39   2.0000      -0.616998       -16.7894
  40   2.0000      -0.600738       -16.3469
  41   2.0000      -0.570175       -15.5152
  42   2.0000      -0.567073       -15.4308
  43   2.0000      -0.562932       -15.3182
  44   2.0000      -0.525733       -14.3059
  45   2.0000      -0.520315       -14.1585
  46   2.0000      -0.516134       -14.0447
  47   2.0000      -0.510933       -13.9032
  48   2.0000      -0.505978       -13.7684
  49   2.0000      -0.500642       -13.6232
  50   2.0000      -0.493408       -13.4263
  51   2.0000      -0.477742       -13.0000
  52   2.0000      -0.469259       -12.7692
  53   2.0000      -0.467456       -12.7201
  54   2.0000      -0.458954       -12.4888
  55   2.0000      -0.454239       -12.3605
  56   2.0000      -0.441861       -12.0236
  57   2.0000      -0.440195       -11.9783
  58   2.0000      -0.433443       -11.7946
  59   2.0000      -0.430940       -11.7265
  60   2.0000      -0.426365       -11.6020
  61   2.0000      -0.413453       -11.2506
  62   2.0000      -0.411966       -11.2102
  63   2.0000      -0.347551        -9.4573
  64   2.0000      -0.334956        -9.1146
  65   2.0000      -0.330636        -8.9971
  66   2.0000      -0.293168        -7.9775
  67   0.0000       0.026577         0.7232
  68   0.0000       0.068653         1.8681
  69   0.0000       0.105727         2.8770
  70   0.0000       0.124063         3.3759
  71   0.0000       0.130560         3.5527

MULLIKEN ATOMIC CHARGES
-----------------------
   0 S :    0.111674
   1 C :   -0.149091
   2 C :   -0.022451
   3 C :   -0.002982
   4 C :   -0.156754
   5 H :    0.010210
   6 C :    0.027896
   7 H :    0.036906
   8 H :    0.030212
   9 C :   -0.036207
  10 H :    0.020658
  11 H :    0.031721
  12 C :   -0.077403
  13 H :    0.022656
  14 H :    0.031935
  15 H :    0.040010
  16 S :    0.110870
  17 C :   -0.073401
  18 C :   -0.014840
  19 C :   -0.054252
  20 C :   -0.153975
  21 H :    0.004084
  22 C :    0.084664
  23 H :    0.025260
  24 H :    0.025193
  25 C :   -0.081135
  26 H :    0.019400
  27 H :    0.027726
  28 C :   -0.041107
  29 H :    0.025326
  30 H :    0.024595
  31 H :    0.041454
  32 H :    0.061419
  33 H :    0.049724
Sum of atomic charges:   -0.0000000

LOEWDIN ATOMIC CHARGES
----------------------
   0 S :    0.399940
   1 C :   -0.188099
   2 C :   -0.063996
   3 C :   -0.069526
   4 C :   -0.198593
   5 H :    0.029024
   6 C :   -0.034745
   7 H :    0.039560
   8 H :    0.033221
   9 C :   -0.035658
  10 H :    0.018935
  11 H :    0.024617
  12 C :   -0.071402
  13 H :    0.024317
  14 H :    0.019921
  15 H :    0.029324
  16 S :    0.409591
  17 C :   -0.180198
  18 C :   -0.064807
  19 C :   -0.056016
  20 C :   -0.203736
  21 H :    0.025521
  22 C :   -0.033623
  23 H :    0.036103
  24 H :    0.029423
  25 C :   -0.038230
  26 H :    0.013231
  27 H :    0.028500
  28 C :   -0.065794
  29 H :    0.018026
  30 H :    0.029690
  31 H :    0.029361
  32 H :    0.035810
  33 H :    0.030303

  Mayer bond orders larger than 0.100000
B(  0-S ,  1-C ) :   1.1341 B(  0-S ,  4-C ) :   1.1600 B(  1-C ,  2-C ) :   1.5980
B(  1-C , 32-H ) :   0.9680 B(  2-C ,  3-C ) :   1.2393 B(  2-C ,  6-C ) :   1.0077
B(  3-C ,  4-C ) :   1.5663 B(  3-C ,  5-H ) :   0.9861 B(  4-C , 20-C ) :   1.0372
B(  6-C ,  7-H ) :   0.9475 B(  6-C ,  8-H ) :   0.9389 B(  6-C ,  9-C ) :   1.0711
B(  9-C , 10-H ) :   0.9554 B(  9-C , 11-H ) :   0.9554 B(  9-C , 12-C ) :   1.0779
B( 12-C , 13-H ) :   0.9755 B( 12-C , 14-H ) :   0.9754 B( 12-C , 15-H ) :   0.9762
B( 16-S , 17-C ) :   1.1337 B( 16-S , 20-C ) :   1.1536 B( 17-C , 18-C ) :   1.6286
B( 17-C , 33-H ) :   0.9641 B( 18-C , 19-C ) :   1.2606 B( 18-C , 21-H ) :   0.9840
B( 19-C , 20-C ) :   1.5505 B( 19-C , 22-C ) :   1.0816 B( 22-C , 23-H ) :   0.9327
B( 22-C , 24-H ) :   0.9082 B( 22-C , 25-C ) :   1.0551 B( 25-C , 26-H ) :   0.9481
B( 25-C , 27-H ) :   0.9592 B( 25-C , 28-C ) :   1.0708 B( 28-C , 29-H ) :   0.9756
B( 28-C , 30-H ) :   0.9744 B( 28-C , 31-H ) :   0.9770

Dispersion correction           -0.014007873
FINAL SINGLE POINT ENERGY     -1339.869789242099

DIPOLE MOMENT
-------------
                                X             Y             Z
Electronic contribution:      4.41971      -3.20638     -32.68363
Nuclear contribution   :     -4.57887       3.46608      33.28946
                        -----------------------------------------
Total Dipole Moment    :     -0.15915       0.25970       0.60583
                        -----------------------------------------
Magnitude (a.u.)       :      0.67809
Magnitude (Debye)      :      1.72356

Rotational constants in cm-1:     0.017794     0.008825     0.006306
Rotational constants in MHz :   533.461046   264.562713   189.043674

                             ****ORCA TERMINATED NORMALLY****
TOTAL RUN TIME: 0 days 0 hours 0 minutes 34 seconds 313 msec
