                         Program Version 4.2.1 -  RELEASE  -
|  1> ! wB97X-D3 SP def2-SVP
|  2> %pal
|  3> nprocs 16
|  4> end
|  5>
|  6> * xyz 0 1
|  7> S 	 0.264968 	 -11.9305 	 77.7153
|  8> C 	 -1.2736 	 -12.787 	 77.9025
|  9> C 	 -1.98016 	 -12.3523 	 79.0134
| 10> C 	 -1.27259 	 -11.3655 	 79.6982
| 11> C 	 -0.161493 	 -10.8673 	 79.0395
| 12> H 	 -1.53503 	 -10.9756 	 80.7057
| 13> C 	 -3.27846 	 -12.8616 	 79.5675
| 14> H 	 -3.48103 	 -12.429 	 80.5527
| 15> H 	 -3.11722 	 -13.9054 	 79.7295
| 16> C 	 -4.50477 	 -12.932 	 78.6755
| 17> H 	 -4.30022 	 -13.5471 	 77.7773
| 18> H 	 -5.20314 	 -13.587 	 79.2246
| 19> C 	 -5.23968 	 -11.646 	 78.2286
| 20> H 	 -4.78721 	 -11.3255 	 77.322
| 21> H 	 -6.32343 	 -11.9709 	 77.9583
| 22> H 	 -5.34324 	 -10.9474 	 79.1142
| 23> S 	 2.21188 	 -10.4498 	 80.2127
| 24> C 	 2.75374 	 -8.85269 	 80.6155
| 25> C 	 1.7655 	 -7.92311 	 80.3175
| 26> C 	 0.556614 	 -8.52375 	 79.9571
| 27> C 	 0.739865 	 -9.84154 	 79.5663
| 28> H 	 2.02746 	 -6.88573 	 80.5327
| 29> C 	 -0.718216 	 -7.75325 	 79.6975
| 30> H 	 -0.721108 	 -7.03462 	 80.4894
| 31> H 	 -1.49216 	 -8.3853 	 80.0261
| 32> C 	 -1.10014 	 -7.18878 	 78.3333
| 33> H 	 -1.14946 	 -8.13132 	 77.7313
| 34> H 	 -0.363319 	 -6.58001 	 77.7885
| 35> C 	 -2.40129 	 -6.3133 	 78.3146
| 36> H 	 -2.58562 	 -5.93156 	 77.3283
| 37> H 	 -2.08171 	 -5.43565 	 78.8779
| 38> H 	 -3.30748 	 -6.75822 	 78.7115
| 39> H 	 -1.71517 	 -13.457 	 77.196
| 40> H 	 3.71472 	 -8.60353 	 80.9881
| 41> *
| 42>
| 43>                          ****END OF INPUT****

CARTESIAN COORDINATES (ANGSTROEM)
---------------------------------
  S      0.264968  -11.930500   77.715300
  C     -1.273600  -12.787000   77.902500
  C     -1.980160  -12.352300   79.013400
  C     -1.272590  -11.365500   79.698200
  C     -0.161493  -10.867300   79.039500
  H     -1.535030  -10.975600   80.705700
  C     -3.278460  -12.861600   79.567500
  H     -3.481030  -12.429000   80.552700
  H     -3.117220  -13.905400   79.729500
  C     -4.504770  -12.932000   78.675500
  H     -4.300220  -13.547100   77.777300
  H     -5.203140  -13.587000   79.224600
  C     -5.239680  -11.646000   78.228600
  H     -4.787210  -11.325500   77.322000
  H     -6.323430  -11.970900   77.958300
  H     -5.343240  -10.947400   79.114200
  S      2.211880  -10.449800   80.212700
  C      2.753740   -8.852690   80.615500
  C      1.765500   -7.923110   80.317500
  C      0.556614   -8.523750   79.957100
  C      0.739865   -9.841540   79.566300
  H      2.027460   -6.885730   80.532700
  C     -0.718216   -7.753250   79.697500
  H     -0.721108   -7.034620   80.489400
  H     -1.492160   -8.385300   80.026100
  C     -1.100140   -7.188780   78.333300
  H     -1.149460   -8.131320   77.731300
  H     -0.363319   -6.580010   77.788500
  C     -2.401290   -6.313300   78.314600
  H     -2.585620   -5.931560   77.328300
  H     -2.081710   -5.435650   78.877900
  H     -3.307480   -6.758220   78.711500
  H     -1.715170  -13.457000   77.196000
  H      3.714720   -8.603530   80.988100

 Total Charge           Charge          ....    0
 Multiplicity           Mult            ....    1
 Number of Electrons    NEL             ....  134
 Basis Dimension        Dim             ....  322

ORBITAL ENERGIES
----------------

  NO   OCC          E(Eh)            E(eV)
   0   2.0000     -88.970407     -2421.0078
   1   2.0000     -88.961452     -2420.7642
   2   2.0000     -10.327548      -281.0269
   3   2.0000     -10.320663      -280.8395
   4   2.0000     -10.313539      -280.6457
   5   2.0000     -10.309615      -280.5389
   6   2.0000     -10.299476      -280.2630
   7   2.0000     -10.297100      -280.1983
   8   2.0000     -10.291319      -280.0410
   9   2.0000     -10.291066      -280.0341
  10   2.0000     -10.290456      -280.0176
  11   2.0000     -10.290178      -280.0100
  12   2.0000     -10.288695      -279.9696
  13   2.0000     -10.287717      -279.9430
  14   2.0000     -10.280066      -279.7348
  15   2.0000     -10.277559      -279.6666
  16   2.0000      -8.084415      -219.9881
  17   2.0000      -8.077173      -219.7910
  18   2.0000      -6.042893      -164.4355
  19   2.0000      -6.039114      -164.3327
  20   2.0000      -6.035476      -164.2336
  21   2.0000      -6.035162      -164.2251
  22   2.0000      -6.031456      -164.1243
  23   2.0000      -6.028175      -164.0350
  24   2.0000      -1.011669       -27.5289
  25   2.0000      -0.988259       -26.8919
  26   2.0000      -0.914291       -24.8791
  27   2.0000      -0.905070       -24.6282
  28   2.0000      -0.868034       -23.6204
  29   2.0000      -0.851023       -23.1575
  30   2.0000      -0.848654       -23.0931
  31   2.0000      -0.811845       -22.0914
  32   2.0000      -0.787577       -21.4311
  33   2.0000      -0.775561       -21.1041
  34   2.0000      -0.707893       -19.2627
  35   2.0000      -0.700884       -19.0720
  36   2.0000      -0.691604       -18.8195
  37   2.0000      -0.661042       -17.9879
  38   2.0000      -0.636390       -17.3170
  39   2.0000      -0.613245       -16.6872
  40   2.0000      -0.594308       -16.1720
  41   2.0000      -0.577427       -15.7126
  42   2.0000      -0.558942       -15.2096
  43   2.0000      -0.551865       -15.0170
  44   2.0000      -0.541565       -14.7367
  45   2.0000      -0.525752       -14.3064
  46   2.0000      -0.517611       -14.0849
  47   2.0000      -0.513788       -13.9809
  48   2.0000      -0.500437       -13.6176
  49   2.0000      -0.497191       -13.5293
  50   2.0000      -0.486414       -13.2360
  51   2.0000      -0.482988       -13.1428
  52   2.0000      -0.469768       -12.7830
  53   2.0000      -0.466693       -12.6994
  54   2.0000      -0.463486       -12.6121
  55   2.0000      -0.447403       -12.1745
  56   2.0000      -0.444088       -12.0842
  57   2.0000      -0.433070       -11.7844
  58   2.0000      -0.431751       -11.7485
  59   2.0000      -0.425328       -11.5738
  60   2.0000      -0.419761       -11.4223
  61   2.0000      -0.414704       -11.2847
  62   2.0000      -0.405180       -11.0255
  63   2.0000      -0.340470        -9.2647
  64   2.0000      -0.328583        -8.9412
  65   2.0000      -0.327952        -8.9240
  66   2.0000      -0.293962        -7.9991
  67   0.0000       0.031520         0.8577
  68   0.0000       0.060423         1.6442
  69   0.0000       0.112727         3.0675
  70   0.0000       0.119558         3.2533
  71   0.0000       0.133677         3.6375

MULLIKEN ATOMIC CHARGES
-----------------------
   0 S :    0.119902
   1 C :   -0.120103
   2 C :   -0.063333
   3 C :    0.006844
   4 C :   -0.168588
   5 H :    0.029280
   6 C :    0.103555
   7 H :    0.020558
   8 H :    0.026054
   9 C :   -0.119629
  10 H :    0.022909
  11 H :    0.023679
  12 C :   -0.050842
  13 H :    0.044139
  14 H :    0.038962
  15 H :    0.046726
  16 S :    0.112749
  17 C :   -0.090286
  18 C :   -0.032928
  19 C :   -0.064380
  20 C :   -0.152000
  21 H :    0.021702
  22 C :    0.128778
  23 H :   -0.005811
  24 H :   -0.007198
  25 C :   -0.070122
  26 H :    0.034409
  27 H :    0.027773
  28 C :   -0.039097
  29 H :    0.029209
  30 H :    0.028492
  31 H :    0.040040
  32 H :    0.037197
  33 H :    0.041358
Sum of atomic charges:   -0.0000000

LOEWDIN ATOMIC CHARGES
----------------------
   0 S :    0.407666
   1 C :   -0.192576
   2 C :   -0.065214
   3 C :   -0.063576
   4 C :   -0.203367
   5 H :    0.036021
   6 C :   -0.033390
   7 H :    0.030941
   8 H :    0.038953
   9 C :   -0.049602
  10 H :    0.024059
  11 H :    0.025123
  12 C :   -0.072005
  13 H :    0.022916
  14 H :    0.036989
  15 H :    0.032618
  16 S :    0.428566
  17 C :   -0.189460
  18 C :   -0.068722
  19 C :   -0.058997
  20 C :   -0.206819
  21 H :    0.035374
  22 C :   -0.035218
  23 H :    0.022343
  24 H :    0.025392
  25 C :   -0.040616
  26 H :    0.028409
  27 H :    0.025049
  28 C :   -0.060630
  29 H :    0.025195
  30 H :    0.027946
  31 H :    0.023698
  32 H :    0.022326
  33 H :    0.020608

  Mayer bond orders larger than 0.100000
B(  0-S ,  1-C ) :   1.1396 B(  0-S ,  4-C ) :   1.1566 B(  1-C ,  2-C ) :   1.5948
B(  1-C ,  4-C ) :   0.1084 B(  1-C , 32-H ) :   0.9673 B(  2-C ,  3-C ) :   1.2653
B(  2-C ,  6-C ) :   1.0150 B(  3-C ,  4-C ) :   1.5621 B(  3-C ,  5-H ) :   0.9826
B(  4-C , 20-C ) :   1.0153 B(  6-C ,  7-H ) :   0.9440 B(  6-C ,  8-H ) :   0.9207
B(  6-C ,  9-C ) :   1.0857 B(  9-C , 10-H ) :   0.9536 B(  9-C , 11-H ) :   0.9552
B(  9-C , 12-C ) :   1.0649 B( 12-C , 13-H ) :   0.9778 B( 12-C , 14-H ) :   0.9740
B( 12-C , 15-H ) :   0.9751 B( 16-S , 17-C ) :   1.1672 B( 16-S , 20-C ) :   1.1766
B( 17-C , 18-C ) :   1.5903 B( 17-C , 20-C ) :   0.1100 B( 17-C , 33-H ) :   0.9732
B( 18-C , 19-C ) :   1.2507 B( 18-C , 21-H ) :   0.9928 B( 19-C , 20-C ) :   1.5617
B( 19-C , 22-C ) :   1.0604 B( 22-C , 23-H ) :   0.9193 B( 22-C , 24-H ) :   0.9152
B( 22-C , 25-C ) :   1.0539 B( 25-C , 26-H ) :   0.9529 B( 25-C , 27-H ) :   0.9602
B( 25-C , 28-C ) :   1.0694 B( 28-C , 29-H ) :   0.9748 B( 28-C , 30-H ) :   0.9758
B( 28-C , 31-H ) :   0.9792

Dispersion correction           -0.014035333
FINAL SINGLE POINT ENERGY     -1339.858850192037

DIPOLE MOMENT
-------------
                                X             Y             Z
Electronic contribution:     28.17660      -9.62625       2.36496
Nuclear contribution   :    -28.75370       9.74941      -2.15836
                        -----------------------------------------
Total Dipole Moment    :     -0.57710       0.12316       0.20661
                        -----------------------------------------
Magnitude (a.u.)       :      0.62522
Magnitude (Debye)      :      1.58918

Rotational constants in cm-1:     0.017505     0.009250     0.006871
Rotational constants in MHz :   524.779281   277.310645   205.993927

                             ****ORCA TERMINATED NORMALLY****
TOTAL RUN TIME: 0 days 0 hours 0 minutes 34 seconds 392 msec
