                         Program Version 4.2.1 -  RELEASE  -
|  1> ! wB97X-D3 SP def2-SVP
|  2> %pal
|  3> nprocs 16
|  4> end
|  5>
|  6> * xyz 0 1
|  7> S 	 33.3125 	 3.46537 	 72.6073
|  8> C 	 31.6346 	 3.42351 	 72.323
|  9> C 	 30.9421 	 2.75906 	 73.3362
| 10> C 	 31.7822 	 2.0564 	 74.1658
| 11> C 	 33.1426 	 2.29977 	 73.9799
| 12> H 	 31.5601 	 1.34487 	 74.9041
| 13> C 	 29.3945 	 2.79853 	 73.5096
| 14> H 	 29.0962 	 3.63054 	 72.9285
| 15> H 	 29.1502 	 3.21787 	 74.5462
| 16> C 	 28.5838 	 1.50637 	 73.2123
| 17> H 	 28.9005 	 0.772227 	 73.9738
| 18> H 	 27.5371 	 1.62625 	 73.4464
| 19> C 	 28.7267 	 0.878642 	 71.7487
| 20> H 	 28.2375 	 -0.13536 	 71.7244
| 21> H 	 28.2105 	 1.50086 	 71.0259
| 22> H 	 29.7349 	 0.635924 	 71.4615
| 23> S 	 35.406 	 0.777335 	 73.787
| 24> C 	 36.2519 	 0.434317 	 75.2475
| 25> C 	 35.552 	 0.769155 	 76.3399
| 26> C 	 34.4484 	 1.62772 	 76.0435
| 27> C 	 34.2826 	 1.80465 	 74.6763
| 28> H 	 35.9691 	 0.407027 	 77.3319
| 29> C 	 33.4718 	 2.17434 	 77.1445
| 30> H 	 32.4709 	 2.11617 	 76.8579
| 31> H 	 33.741 	 3.24853 	 77.2619
| 32> C 	 33.5461 	 1.48688 	 78.5324
| 33> H 	 34.4962 	 1.24772 	 78.9111
| 34> H 	 33.0248 	 0.507352 	 78.5211
| 35> C 	 32.7336 	 2.32499 	 79.585
| 36> H 	 33.2476 	 3.24292 	 79.7855
| 37> H 	 32.5927 	 1.73578 	 80.4586
| 38> H 	 31.6828 	 2.44199 	 79.0381
| 39> H 	 31.0971 	 4.16405 	 71.7172
| 40> H 	 37.165 	 -0.11814 	 75.3482
| 41> *
| 42>
| 43>                          ****END OF INPUT****

CARTESIAN COORDINATES (ANGSTROEM)
---------------------------------
  S     33.312500    3.465370   72.607300
  C     31.634600    3.423510   72.323000
  C     30.942100    2.759060   73.336200
  C     31.782200    2.056400   74.165800
  C     33.142600    2.299770   73.979900
  H     31.560100    1.344870   74.904100
  C     29.394500    2.798530   73.509600
  H     29.096200    3.630540   72.928500
  H     29.150200    3.217870   74.546200
  C     28.583800    1.506370   73.212300
  H     28.900500    0.772227   73.973800
  H     27.537100    1.626250   73.446400
  C     28.726700    0.878642   71.748700
  H     28.237500   -0.135360   71.724400
  H     28.210500    1.500860   71.025900
  H     29.734900    0.635924   71.461500
  S     35.406000    0.777335   73.787000
  C     36.251900    0.434317   75.247500
  C     35.552000    0.769155   76.339900
  C     34.448400    1.627720   76.043500
  C     34.282600    1.804650   74.676300
  H     35.969100    0.407027   77.331900
  C     33.471800    2.174340   77.144500
  H     32.470900    2.116170   76.857900
  H     33.741000    3.248530   77.261900
  C     33.546100    1.486880   78.532400
  H     34.496200    1.247720   78.911100
  H     33.024800    0.507352   78.521100
  C     32.733600    2.324990   79.585000
  H     33.247600    3.242920   79.785500
  H     32.592700    1.735780   80.458600
  H     31.682800    2.441990   79.038100
  H     31.097100    4.164050   71.717200
  H     37.165000   -0.118140   75.348200

 Total Charge           Charge          ....    0
 Multiplicity           Mult            ....    1
 Number of Electrons    NEL             ....  134
 Basis Dimension        Dim             ....  322

ORBITAL ENERGIES
----------------

  NO   OCC          E(Eh)            E(eV)
   0   2.0000     -88.964883     -2420.8575
   1   2.0000     -88.963123     -2420.8096
   2   2.0000     -10.327855      -281.0352
   3   2.0000     -10.321710      -280.8680
   4   2.0000     -10.311826      -280.5991
   5   2.0000     -10.309167      -280.5267
   6   2.0000     -10.308610      -280.5115
   7   2.0000     -10.298464      -280.2355
   8   2.0000     -10.298408      -280.2339
   9   2.0000     -10.295750      -280.1616
  10   2.0000     -10.294553      -280.1290
  11   2.0000     -10.293531      -280.1012
  12   2.0000     -10.288227      -279.9569
  13   2.0000     -10.287318      -279.9321
  14   2.0000     -10.287044      -279.9247
  15   2.0000     -10.281808      -279.7822
  16   2.0000      -8.079606      -219.8573
  17   2.0000      -8.078435      -219.8254
  18   2.0000      -6.037861      -164.2985
  19   2.0000      -6.036931      -164.2732
  20   2.0000      -6.034058      -164.1951
  21   2.0000      -6.033015      -164.1667
  22   2.0000      -6.030679      -164.1031
  23   2.0000      -6.029002      -164.0575
  24   2.0000      -1.009359       -27.4661
  25   2.0000      -0.987971       -26.8841
  26   2.0000      -0.904888       -24.6233
  27   2.0000      -0.898766       -24.4567
  28   2.0000      -0.873207       -23.7612
  29   2.0000      -0.849611       -23.1191
  30   2.0000      -0.843907       -22.9639
  31   2.0000      -0.813523       -22.1371
  32   2.0000      -0.782458       -21.2918
  33   2.0000      -0.769656       -20.9434
  34   2.0000      -0.712174       -19.3792
  35   2.0000      -0.701537       -19.0898
  36   2.0000      -0.693603       -18.8739
  37   2.0000      -0.650904       -17.7120
  38   2.0000      -0.641224       -17.4486
  39   2.0000      -0.622097       -16.9281
  40   2.0000      -0.600683       -16.3454
  41   2.0000      -0.567586       -15.4448
  42   2.0000      -0.561854       -15.2888
  43   2.0000      -0.540715       -14.7136
  44   2.0000      -0.537071       -14.6144
  45   2.0000      -0.525626       -14.3030
  46   2.0000      -0.514985       -14.0134
  47   2.0000      -0.511677       -13.9235
  48   2.0000      -0.506578       -13.7847
  49   2.0000      -0.493757       -13.4358
  50   2.0000      -0.484528       -13.1847
  51   2.0000      -0.476751       -12.9731
  52   2.0000      -0.468441       -12.7469
  53   2.0000      -0.462537       -12.5863
  54   2.0000      -0.460795       -12.5389
  55   2.0000      -0.451313       -12.2809
  56   2.0000      -0.441231       -12.0065
  57   2.0000      -0.435864       -11.8605
  58   2.0000      -0.432028       -11.7561
  59   2.0000      -0.427503       -11.6329
  60   2.0000      -0.420835       -11.4515
  61   2.0000      -0.417858       -11.3705
  62   2.0000      -0.415402       -11.3037
  63   2.0000      -0.347578        -9.4581
  64   2.0000      -0.331138        -9.0107
  65   2.0000      -0.329073        -8.9545
  66   2.0000      -0.292068        -7.9476
  67   0.0000       0.025886         0.7044
  68   0.0000       0.066431         1.8077
  69   0.0000       0.111188         3.0256
  70   0.0000       0.114778         3.1233
  71   0.0000       0.135404         3.6845

MULLIKEN ATOMIC CHARGES
-----------------------
   0 S :    0.114288
   1 C :   -0.099812
   2 C :   -0.121471
   3 C :    0.063987
   4 C :   -0.208037
   5 H :   -0.000388
   6 C :    0.070125
   7 H :   -0.003400
   8 H :    0.040271
   9 C :   -0.064494
  10 H :    0.027304
  11 H :    0.029346
  12 C :   -0.063270
  13 H :    0.034272
  14 H :    0.038020
  15 H :    0.044231
  16 S :    0.113484
  17 C :   -0.068164
  18 C :   -0.080165
  19 C :   -0.027178
  20 C :   -0.134650
  21 H :    0.041869
  22 C :    0.097781
  23 H :    0.003866
  24 H :    0.047096
  25 C :   -0.101336
  26 H :    0.019750
  27 H :    0.029504
  28 C :   -0.059930
  29 H :    0.043206
  30 H :    0.032437
  31 H :    0.040620
  32 H :    0.057389
  33 H :    0.043451
Sum of atomic charges:   -0.0000000

LOEWDIN ATOMIC CHARGES
----------------------
   0 S :    0.408218
   1 C :   -0.214578
   2 C :   -0.070039
   3 C :   -0.051370
   4 C :   -0.180488
   5 H :    0.024714
   6 C :   -0.033433
   7 H :    0.017910
   8 H :    0.040965
   9 C :   -0.041831
  10 H :    0.024319
  11 H :    0.023902
  12 C :   -0.067056
  13 H :    0.033227
  14 H :    0.023560
  15 H :    0.024834
  16 S :    0.411710
  17 C :   -0.185886
  18 C :   -0.086083
  19 C :   -0.045375
  20 C :   -0.211131
  21 H :    0.043965
  22 C :   -0.023050
  23 H :    0.017446
  24 H :    0.041798
  25 C :   -0.041306
  26 H :    0.009025
  27 H :    0.026493
  28 C :   -0.058593
  29 H :    0.020550
  30 H :    0.019560
  31 H :    0.038505
  32 H :    0.031659
  33 H :    0.027860

  Mayer bond orders larger than 0.100000
B(  0-S ,  1-C ) :   1.1731 B(  0-S ,  4-C ) :   1.1484 B(  1-C ,  2-C ) :   1.5790
B(  1-C ,  4-C ) :   0.1124 B(  1-C , 32-H ) :   0.9547 B(  2-C ,  3-C ) :   1.2720
B(  2-C ,  6-C ) :   1.0142 B(  3-C ,  4-C ) :   1.5579 B(  3-C ,  5-H ) :   0.9964
B(  4-C , 20-C ) :   1.0612 B(  6-C ,  7-H ) :   0.9373 B(  6-C ,  8-H ) :   0.9443
B(  6-C ,  9-C ) :   1.0592 B(  9-C , 10-H ) :   0.9587 B(  9-C , 11-H ) :   0.9566
B(  9-C , 12-C ) :   1.0663 B( 12-C , 13-H ) :   0.9745 B( 12-C , 14-H ) :   0.9790
B( 12-C , 15-H ) :   0.9779 B( 16-S , 17-C ) :   1.1550 B( 16-S , 20-C ) :   1.1367
B( 17-C , 18-C ) :   1.6387 B( 17-C , 33-H ) :   0.9613 B( 18-C , 19-C ) :   1.2367
B( 18-C , 21-H ) :   0.9785 B( 19-C , 20-C ) :   1.5960 B( 19-C , 22-C ) :   1.0098
B( 22-C , 23-H ) :   0.9375 B( 22-C , 24-H ) :   0.9365 B( 22-C , 25-C ) :   1.0678
B( 25-C , 26-H ) :   0.9530 B( 25-C , 27-H ) :   0.9574 B( 25-C , 28-C ) :   1.0804
B( 28-C , 29-H ) :   0.9791 B( 28-C , 30-H ) :   0.9741 B( 28-C , 31-H ) :   0.9748

Dispersion correction           -0.013801007
FINAL SINGLE POINT ENERGY     -1339.858346345661

DIPOLE MOMENT
-------------
                                X             Y             Z
Electronic contribution:     22.15836       2.85922     -15.39620
Nuclear contribution   :    -22.58220      -3.03510      16.04342
                        -----------------------------------------
Total Dipole Moment    :     -0.42384      -0.17588       0.64721
                        -----------------------------------------
Magnitude (a.u.)       :      0.79338
Magnitude (Debye)      :      2.01662

Rotational constants in cm-1:     0.016732     0.008554     0.006660
Rotational constants in MHz :   501.616053   256.452622   199.669242

                             ****ORCA TERMINATED NORMALLY****
TOTAL RUN TIME: 0 days 0 hours 0 minutes 29 seconds 380 msec
