                         Program Version 4.2.1 -  RELEASE  -
|  1> ! wB97X-D3 SP def2-SVP
|  2> %pal
|  3> nprocs 16
|  4> end
|  5>
|  6> * xyz 0 1
|  7> S 	 -52.8301 	 29.6788 	 97.0597
|  8> C 	 -52.0648 	 29.02 	 95.6134
|  9> C 	 -51.8186 	 29.9596 	 94.6791
| 10> C 	 -52.5348 	 31.2056 	 94.9961
| 11> C 	 -53.1531 	 31.1517 	 96.1978
| 12> H 	 -52.6745 	 32.0998 	 94.3134
| 13> C 	 -50.8482 	 29.7831 	 93.5579
| 14> H 	 -50.2084 	 30.6285 	 93.6306
| 15> H 	 -51.5435 	 29.8794 	 92.7105
| 16> C 	 -49.9037 	 28.4575 	 93.5784
| 17> H 	 -49.2705 	 28.5628 	 94.4548
| 18> H 	 -50.614 	 27.6896 	 93.761
| 19> C 	 -49.2141 	 28.033 	 92.2944
| 20> H 	 -48.3638 	 27.3568 	 92.4401
| 21> H 	 -49.8592 	 27.6394 	 91.5376
| 22> H 	 -48.7824 	 28.9615 	 91.8183
| 23> S 	 -55.7615 	 31.4081 	 97.1096
| 24> C 	 -56.2646 	 32.9775 	 97.794
| 25> C 	 -55.2358 	 33.9224 	 97.6558
| 26> C 	 -54.0137 	 33.3586 	 97.0779
| 27> C 	 -54.188 	 32.0509 	 96.6974
| 28> H 	 -55.4701 	 34.8605 	 98.073
| 29> C 	 -52.7612 	 34.0671 	 97.1384
| 30> H 	 -52.3064 	 33.8614 	 96.2366
| 31> H 	 -52.1399 	 33.5305 	 97.8654
| 32> C 	 -52.7154 	 35.529 	 97.4886
| 33> H 	 -53.0759 	 35.6868 	 98.5144
| 34> H 	 -53.381 	 36.1746 	 96.8844
| 35> C 	 -51.3213 	 36.1073 	 97.5684
| 36> H 	 -51.2125 	 37.0571 	 98.0358
| 37> H 	 -50.9007 	 36.2552 	 96.6193
| 38> H 	 -50.6895 	 35.4021 	 98.1211
| 39> H 	 -51.8192 	 27.9837 	 95.5161
| 40> H 	 -57.2698 	 33.2893 	 98.1593
| 41> *
| 42>
| 43>                          ****END OF INPUT****

CARTESIAN COORDINATES (ANGSTROEM)
---------------------------------
  S    -52.830100   29.678800   97.059700
  C    -52.064800   29.020000   95.613400
  C    -51.818600   29.959600   94.679100
  C    -52.534800   31.205600   94.996100
  C    -53.153100   31.151700   96.197800
  H    -52.674500   32.099800   94.313400
  C    -50.848200   29.783100   93.557900
  H    -50.208400   30.628500   93.630600
  H    -51.543500   29.879400   92.710500
  C    -49.903700   28.457500   93.578400
  H    -49.270500   28.562800   94.454800
  H    -50.614000   27.689600   93.761000
  C    -49.214100   28.033000   92.294400
  H    -48.363800   27.356800   92.440100
  H    -49.859200   27.639400   91.537600
  H    -48.782400   28.961500   91.818300
  S    -55.761500   31.408100   97.109600
  C    -56.264600   32.977500   97.794000
  C    -55.235800   33.922400   97.655800
  C    -54.013700   33.358600   97.077900
  C    -54.188000   32.050900   96.697400
  H    -55.470100   34.860500   98.073000
  C    -52.761200   34.067100   97.138400
  H    -52.306400   33.861400   96.236600
  H    -52.139900   33.530500   97.865400
  C    -52.715400   35.529000   97.488600
  H    -53.075900   35.686800   98.514400
  H    -53.381000   36.174600   96.884400
  C    -51.321300   36.107300   97.568400
  H    -51.212500   37.057100   98.035800
  H    -50.900700   36.255200   96.619300
  H    -50.689500   35.402100   98.121100
  H    -51.819200   27.983700   95.516100
  H    -57.269800   33.289300   98.159300

 Total Charge           Charge          ....    0
 Multiplicity           Mult            ....    1
 Number of Electrons    NEL             ....  134
 Basis Dimension        Dim             ....  322

ORBITAL ENERGIES
----------------

  NO   OCC          E(Eh)            E(eV)
   0   2.0000     -88.964946     -2420.8592
   1   2.0000     -88.958927     -2420.6955
   2   2.0000     -10.322905      -280.9005
   3   2.0000     -10.321499      -280.8623
   4   2.0000     -10.319440      -280.8062
   5   2.0000     -10.304911      -280.4109
   6   2.0000     -10.300129      -280.2808
   7   2.0000     -10.300020      -280.2778
   8   2.0000     -10.298993      -280.2498
   9   2.0000     -10.295712      -280.1606
  10   2.0000     -10.293249      -280.0935
  11   2.0000     -10.292319      -280.0682
  12   2.0000     -10.285947      -279.8949
  13   2.0000     -10.284099      -279.8446
  14   2.0000     -10.278460      -279.6911
  15   2.0000     -10.269882      -279.4577
  16   2.0000      -8.078757      -219.8342
  17   2.0000      -8.074281      -219.7124
  18   2.0000      -6.037392      -164.2858
  19   2.0000      -6.033381      -164.1766
  20   2.0000      -6.032857      -164.1624
  21   2.0000      -6.029440      -164.0694
  22   2.0000      -6.028963      -164.0564
  23   2.0000      -6.024671      -163.9396
  24   2.0000      -1.006712       -27.3940
  25   2.0000      -0.980496       -26.6807
  26   2.0000      -0.919240       -25.0138
  27   2.0000      -0.908212       -24.7137
  28   2.0000      -0.868215       -23.6253
  29   2.0000      -0.856805       -23.3148
  30   2.0000      -0.846311       -23.0293
  31   2.0000      -0.817906       -22.2564
  32   2.0000      -0.783925       -21.3317
  33   2.0000      -0.771232       -20.9863
  34   2.0000      -0.715927       -19.4814
  35   2.0000      -0.709592       -19.3090
  36   2.0000      -0.692519       -18.8444
  37   2.0000      -0.650580       -17.7032
  38   2.0000      -0.636669       -17.3247
  39   2.0000      -0.608106       -16.5474
  40   2.0000      -0.594058       -16.1651
  41   2.0000      -0.578190       -15.7334
  42   2.0000      -0.575027       -15.6473
  43   2.0000      -0.560539       -15.2530
  44   2.0000      -0.535226       -14.5642
  45   2.0000      -0.523120       -14.2348
  46   2.0000      -0.521302       -14.1854
  47   2.0000      -0.514639       -14.0040
  48   2.0000      -0.509406       -13.8616
  49   2.0000      -0.497187       -13.5292
  50   2.0000      -0.495079       -13.4718
  51   2.0000      -0.475993       -12.9524
  52   2.0000      -0.472802       -12.8656
  53   2.0000      -0.467992       -12.7347
  54   2.0000      -0.456853       -12.4316
  55   2.0000      -0.452883       -12.3236
  56   2.0000      -0.444562       -12.0972
  57   2.0000      -0.437526       -11.9057
  58   2.0000      -0.432928       -11.7806
  59   2.0000      -0.427735       -11.6393
  60   2.0000      -0.424748       -11.5580
  61   2.0000      -0.415486       -11.3060
  62   2.0000      -0.405820       -11.0429
  63   2.0000      -0.340880        -9.2758
  64   2.0000      -0.326513        -8.8849
  65   2.0000      -0.318878        -8.6771
  66   2.0000      -0.296564        -8.0699
  67   0.0000       0.035702         0.9715
  68   0.0000       0.072516         1.9733
  69   0.0000       0.107025         2.9123
  70   0.0000       0.122690         3.3386
  71   0.0000       0.131894         3.5890

MULLIKEN ATOMIC CHARGES
-----------------------
   0 S :    0.103485
   1 C :   -0.142908
   2 C :   -0.098811
   3 C :    0.013882
   4 C :   -0.183574
   5 H :    0.043078
   6 C :    0.059703
   7 H :    0.034003
   8 H :    0.041687
   9 C :   -0.079376
  10 H :    0.042451
  11 H :    0.026370
  12 C :   -0.040862
  13 H :    0.043121
  14 H :    0.033859
  15 H :    0.026970
  16 S :    0.116536
  17 C :   -0.114517
  18 C :   -0.038265
  19 C :   -0.054747
  20 C :   -0.144372
  21 H :    0.004435
  22 C :    0.152767
  23 H :   -0.014756
  24 H :    0.032815
  25 C :   -0.085184
  26 H :    0.024443
  27 H :    0.030217
  28 C :   -0.001714
  29 H :    0.023312
  30 H :    0.013295
  31 H :    0.021722
  32 H :    0.041798
  33 H :    0.069136
Sum of atomic charges:    0.0000000

LOEWDIN ATOMIC CHARGES
----------------------
   0 S :    0.386070
   1 C :   -0.191388
   2 C :   -0.063334
   3 C :   -0.068686
   4 C :   -0.193169
   5 H :    0.043758
   6 C :   -0.029350
   7 H :    0.029015
   8 H :    0.037632
   9 C :   -0.035956
  10 H :    0.028929
  11 H :    0.017727
  12 C :   -0.067635
  13 H :    0.031991
  14 H :    0.024195
  15 H :    0.029548
  16 S :    0.395271
  17 C :   -0.184619
  18 C :   -0.068018
  19 C :   -0.047604
  20 C :   -0.209003
  21 H :    0.023338
  22 C :   -0.036137
  23 H :    0.022890
  24 H :    0.045023
  25 C :   -0.042512
  26 H :    0.026265
  27 H :    0.024397
  28 C :   -0.056227
  29 H :    0.024119
  30 H :    0.015768
  31 H :    0.027321
  32 H :    0.021127
  33 H :    0.039255

  Mayer bond orders larger than 0.100000
B(  0-S ,  1-C ) :   1.1038 B(  0-S ,  4-C ) :   1.1342 B(  1-C ,  2-C ) :   1.6831
B(  1-C , 32-H ) :   0.9633 B(  2-C ,  3-C ) :   1.1813 B(  2-C ,  6-C ) :   0.9912
B(  3-C ,  4-C ) :   1.6519 B(  3-C ,  5-H ) :   0.9767 B(  4-C , 20-C ) :   1.0230
B(  6-C ,  7-H ) :   0.9433 B(  6-C ,  8-H ) :   0.9347 B(  6-C ,  9-C ) :   1.0687
B(  9-C , 10-H ) :   0.9584 B(  9-C , 11-H ) :   0.9538 B(  9-C , 12-C ) :   1.0809
B( 12-C , 13-H ) :   0.9721 B( 12-C , 14-H ) :   0.9756 B( 12-C , 15-H ) :   0.9747
B( 16-S , 17-C ) :   1.1417 B( 16-S , 20-C ) :   1.1301 B( 17-C , 18-C ) :   1.6382
B( 17-C , 33-H ) :   0.9572 B( 18-C , 19-C ) :   1.2038 B( 18-C , 21-H ) :   0.9943
B( 19-C , 20-C ) :   1.6096 B( 19-C , 22-C ) :   1.0600 B( 22-C , 23-H ) :   0.8949
B( 22-C , 24-H ) :   0.8986 B( 22-C , 25-C ) :   1.0910 B( 25-C , 26-H ) :   0.9402
B( 25-C , 27-H ) :   0.9529 B( 25-C , 28-C ) :   1.0887 B( 28-C , 29-H ) :   0.9717
B( 28-C , 30-H ) :   0.9729 B( 28-C , 31-H ) :   0.9702

Dispersion correction           -0.013421973
FINAL SINGLE POINT ENERGY     -1339.854483424537

DIPOLE MOMENT
-------------
                                X             Y             Z
Electronic contribution:    -21.64663      -8.73672      11.20109
Nuclear contribution   :     22.10064       9.07924     -11.49712
                        -----------------------------------------
Total Dipole Moment    :      0.45401       0.34252      -0.29602
                        -----------------------------------------
Magnitude (a.u.)       :      0.64116
Magnitude (Debye)      :      1.62969

Rotational constants in cm-1:     0.020493     0.007169     0.005736
Rotational constants in MHz :   614.360643   214.933655   171.970621

                             ****ORCA TERMINATED NORMALLY****
TOTAL RUN TIME: 0 days 0 hours 0 minutes 27 seconds 192 msec
