                         Program Version 4.2.1 -  RELEASE  -
|  1> ! wB97X-D3 SP def2-SVP
|  2> %pal
|  3> nprocs 16
|  4> end
|  5>
|  6> * xyz 0 1
|  7> S 	 -96.7127 	 42.6373 	 116.699
|  8> C 	 -97.0813 	 44.0505 	 117.739
|  9> C 	 -96.3249 	 44.001 	 118.865
| 10> C 	 -95.3823 	 42.9594 	 118.85
| 11> C 	 -95.5142 	 42.1201 	 117.762
| 12> H 	 -94.6566 	 42.8492 	 119.667
| 13> C 	 -96.4731 	 44.9823 	 120
| 14> H 	 -95.8283 	 44.5665 	 120.831
| 15> H 	 -97.4453 	 44.9827 	 120.463
| 16> C 	 -96.1966 	 46.4267 	 119.593
| 17> H 	 -95.1766 	 46.5859 	 119.334
| 18> H 	 -96.7778 	 46.8753 	 118.791
| 19> C 	 -96.6027 	 47.3482 	 120.721
| 20> H 	 -96.412 	 46.9604 	 121.707
| 21> H 	 -95.9245 	 48.2429 	 120.666
| 22> H 	 -97.6257 	 47.6949 	 120.572
| 23> S 	 -94.7801 	 39.669 	 118.752
| 24> C 	 -94.1436 	 38.5038 	 117.665
| 25> C 	 -93.9982 	 38.9876 	 116.363
| 26> C 	 -94.3686 	 40.3464 	 116.241
| 27> C 	 -94.759 	 40.9171 	 117.459
| 28> H 	 -93.6339 	 38.319 	 115.526
| 29> C 	 -94.4519 	 40.9816 	 114.887
| 30> H 	 -95.5123 	 41.3115 	 114.708
| 31> H 	 -94.192 	 40.1865 	 114.082
| 32> C 	 -93.4349 	 42.1742 	 114.827
| 33> H 	 -93.7769 	 42.8567 	 115.658
| 34> H 	 -93.6767 	 42.8676 	 113.959
| 35> C 	 -91.9854 	 41.7591 	 114.935
| 36> H 	 -91.7366 	 41.1341 	 114.106
| 37> H 	 -91.8135 	 41.1995 	 115.842
| 38> H 	 -91.3136 	 42.6881 	 114.996
| 39> H 	 -97.9836 	 44.5962 	 117.636
| 40> H 	 -93.8445 	 37.4995 	 117.968
| 41> *
| 42>
| 43>                          ****END OF INPUT****

CARTESIAN COORDINATES (ANGSTROEM)
---------------------------------
  S    -96.712700   42.637300  116.699000
  C    -97.081300   44.050500  117.739000
  C    -96.324900   44.001000  118.865000
  C    -95.382300   42.959400  118.850000
  C    -95.514200   42.120100  117.762000
  H    -94.656600   42.849200  119.667000
  C    -96.473100   44.982300  120.000000
  H    -95.828300   44.566500  120.831000
  H    -97.445300   44.982700  120.463000
  C    -96.196600   46.426700  119.593000
  H    -95.176600   46.585900  119.334000
  H    -96.777800   46.875300  118.791000
  C    -96.602700   47.348200  120.721000
  H    -96.412000   46.960400  121.707000
  H    -95.924500   48.242900  120.666000
  H    -97.625700   47.694900  120.572000
  S    -94.780100   39.669000  118.752000
  C    -94.143600   38.503800  117.665000
  C    -93.998200   38.987600  116.363000
  C    -94.368600   40.346400  116.241000
  C    -94.759000   40.917100  117.459000
  H    -93.633900   38.319000  115.526000
  C    -94.451900   40.981600  114.887000
  H    -95.512300   41.311500  114.708000
  H    -94.192000   40.186500  114.082000
  C    -93.434900   42.174200  114.827000
  H    -93.776900   42.856700  115.658000
  H    -93.676700   42.867600  113.959000
  C    -91.985400   41.759100  114.935000
  H    -91.736600   41.134100  114.106000
  H    -91.813500   41.199500  115.842000
  H    -91.313600   42.688100  114.996000
  H    -97.983600   44.596200  117.636000
  H    -93.844500   37.499500  117.968000

 Total Charge           Charge          ....    0
 Multiplicity           Mult            ....    1
 Number of Electrons    NEL             ....  134
 Basis Dimension        Dim             ....  322

ORBITAL ENERGIES
----------------

  NO   OCC          E(Eh)            E(eV)
   0   2.0000     -88.967957     -2420.9412
   1   2.0000     -88.965473     -2420.8736
   2   2.0000     -10.327033      -281.0128
   3   2.0000     -10.325917      -280.9825
   4   2.0000     -10.317742      -280.7600
   5   2.0000     -10.306408      -280.4516
   6   2.0000     -10.302964      -280.3579
   7   2.0000     -10.299917      -280.2750
   8   2.0000     -10.297450      -280.2079
   9   2.0000     -10.294354      -280.1236
  10   2.0000     -10.293967      -280.1131
  11   2.0000     -10.290243      -280.0118
  12   2.0000     -10.288700      -279.9698
  13   2.0000     -10.280292      -279.7410
  14   2.0000     -10.275617      -279.6137
  15   2.0000     -10.275212      -279.6027
  16   2.0000      -8.082393      -219.9331
  17   2.0000      -8.080650      -219.8857
  18   2.0000      -6.040841      -164.3797
  19   2.0000      -6.039084      -164.3318
  20   2.0000      -6.036877      -164.2718
  21   2.0000      -6.035041      -164.2218
  22   2.0000      -6.033311      -164.1747
  23   2.0000      -6.031526      -164.1262
  24   2.0000      -1.011894       -27.5350
  25   2.0000      -0.985915       -26.8281
  26   2.0000      -0.918912       -25.0049
  27   2.0000      -0.905994       -24.6533
  28   2.0000      -0.872110       -23.7313
  29   2.0000      -0.850745       -23.1499
  30   2.0000      -0.844122       -22.9697
  31   2.0000      -0.809247       -22.0207
  32   2.0000      -0.781426       -21.2637
  33   2.0000      -0.770135       -20.9564
  34   2.0000      -0.706187       -19.2163
  35   2.0000      -0.701611       -19.0918
  36   2.0000      -0.682100       -18.5609
  37   2.0000      -0.664545       -18.0832
  38   2.0000      -0.636501       -17.3201
  39   2.0000      -0.620478       -16.8841
  40   2.0000      -0.587757       -15.9937
  41   2.0000      -0.572543       -15.5797
  42   2.0000      -0.563747       -15.3403
  43   2.0000      -0.547491       -14.8980
  44   2.0000      -0.539957       -14.6930
  45   2.0000      -0.528953       -14.3935
  46   2.0000      -0.515409       -14.0250
  47   2.0000      -0.510999       -13.9050
  48   2.0000      -0.503317       -13.6959
  49   2.0000      -0.498338       -13.5605
  50   2.0000      -0.486053       -13.2262
  51   2.0000      -0.478353       -13.0166
  52   2.0000      -0.469973       -12.7886
  53   2.0000      -0.465246       -12.6600
  54   2.0000      -0.458562       -12.4781
  55   2.0000      -0.448745       -12.2110
  56   2.0000      -0.442643       -12.0449
  57   2.0000      -0.434466       -11.8224
  58   2.0000      -0.432064       -11.7571
  59   2.0000      -0.425973       -11.5913
  60   2.0000      -0.418193       -11.3796
  61   2.0000      -0.410423       -11.1682
  62   2.0000      -0.404038       -10.9944
  63   2.0000      -0.344521        -9.3749
  64   2.0000      -0.334144        -9.0925
  65   2.0000      -0.332305        -9.0425
  66   2.0000      -0.288186        -7.8419
  67   0.0000       0.025110         0.6833
  68   0.0000       0.070285         1.9126
  69   0.0000       0.107415         2.9229
  70   0.0000       0.113947         3.1007
  71   0.0000       0.127363         3.4657

MULLIKEN ATOMIC CHARGES
-----------------------
   0 S :    0.097132
   1 C :   -0.121366
   2 C :   -0.071019
   3 C :    0.007151
   4 C :   -0.134775
   5 H :    0.013818
   6 C :    0.061516
   7 H :    0.026500
   8 H :    0.026933
   9 C :   -0.056722
  10 H :    0.024293
  11 H :    0.030982
  12 C :   -0.065205
  13 H :    0.026012
  14 H :    0.028483
  15 H :    0.040580
  16 S :    0.114740
  17 C :   -0.097692
  18 C :   -0.060844
  19 C :   -0.051165
  20 C :   -0.134120
  21 H :    0.042090
  22 C :    0.012412
  23 H :    0.055515
  24 H :    0.033880
  25 C :   -0.106496
  26 H :    0.039943
  27 H :    0.032334
  28 C :   -0.028824
  29 H :    0.025835
  30 H :    0.041140
  31 H :    0.047922
  32 H :    0.039365
  33 H :    0.059654
Sum of atomic charges:    0.0000000

LOEWDIN ATOMIC CHARGES
----------------------
   0 S :    0.432093
   1 C :   -0.184355
   2 C :   -0.061955
   3 C :   -0.078008
   4 C :   -0.210142
   5 H :    0.033102
   6 C :   -0.031944
   7 H :    0.036899
   8 H :    0.030439
   9 C :   -0.039494
  10 H :    0.019886
  11 H :    0.029691
  12 C :   -0.067143
  13 H :    0.018067
  14 H :    0.032052
  15 H :    0.025053
  16 S :    0.415250
  17 C :   -0.195293
  18 C :   -0.082919
  19 C :   -0.060590
  20 C :   -0.193294
  21 H :    0.042774
  22 C :   -0.043663
  23 H :    0.028520
  24 H :    0.034453
  25 C :   -0.053096
  26 H :    0.027274
  27 H :    0.026332
  28 C :   -0.065922
  29 H :    0.020421
  30 H :    0.026776
  31 H :    0.038932
  32 H :    0.020043
  33 H :    0.029759

  Mayer bond orders larger than 0.100000
B(  0-S ,  1-C ) :   1.1204 B(  0-S ,  4-C ) :   1.1851 B(  1-C ,  2-C ) :   1.6088
B(  1-C , 32-H ) :   0.9721 B(  2-C ,  3-C ) :   1.2741 B(  2-C ,  6-C ) :   1.0142
B(  3-C ,  4-C ) :   1.5206 B(  3-C ,  5-H ) :   0.9938 B(  4-C , 20-C ) :   1.0370
B(  6-C ,  7-H ) :   0.9383 B(  6-C ,  8-H ) :   0.9384 B(  6-C ,  9-C ) :   1.0642
B(  9-C , 10-H ) :   0.9610 B(  9-C , 11-H ) :   0.9592 B(  9-C , 12-C ) :   1.0743
B( 12-C , 13-H ) :   0.9735 B( 12-C , 14-H ) :   0.9739 B( 12-C , 15-H ) :   0.9806
B( 16-S , 17-C ) :   1.1833 B( 16-S , 20-C ) :   1.1397 B( 17-C , 18-C ) :   1.5765
B( 17-C , 20-C ) :   0.1048 B( 17-C , 33-H ) :   0.9637 B( 18-C , 19-C ) :   1.2694
B( 18-C , 21-H ) :   0.9809 B( 19-C , 20-C ) :   1.5475 B( 19-C , 22-C ) :   1.0308
B( 22-C , 23-H ) :   0.9307 B( 22-C , 24-H ) :   0.9424 B( 22-C , 25-C ) :   1.0558
B( 25-C , 26-H ) :   0.9546 B( 25-C , 27-H ) :   0.9575 B( 25-C , 28-C ) :   1.0652
B( 28-C , 29-H ) :   0.9745 B( 28-C , 30-H ) :   0.9712 B( 28-C , 31-H ) :   0.9713

Dispersion correction           -0.014561519
FINAL SINGLE POINT ENERGY     -1339.878879086074

DIPOLE MOMENT
-------------
                                X             Y             Z
Electronic contribution:     -6.16445     -19.54154       0.46178
Nuclear contribution   :      6.16181      19.72085      -0.40080
                        -----------------------------------------
Total Dipole Moment    :     -0.00265       0.17931       0.06098
                        -----------------------------------------
Magnitude (a.u.)       :      0.18941
Magnitude (Debye)      :      0.48145

Rotational constants in cm-1:     0.023789     0.007519     0.006658
Rotational constants in MHz :   713.166491   225.416125   199.604422

                             ****ORCA TERMINATED NORMALLY****
TOTAL RUN TIME: 0 days 0 hours 0 minutes 32 seconds 553 msec
