                         Program Version 4.2.1 -  RELEASE  -
|  1> ! wB97X-D3 SP def2-SVP
|  2> %pal
|  3> nprocs 16
|  4> end
|  5>
|  6> * xyz 0 1
|  7> S 	 49.3489 	 12.266 	 83.3873
|  8> C 	 48.4478 	 13.7386 	 83.3039
|  9> C 	 47.8251 	 13.9422 	 82.0825
| 10> C 	 48.1516 	 12.865 	 81.1944
| 11> C 	 49.0081 	 11.9261 	 81.6866
| 12> H 	 47.802 	 12.8133 	 80.2122
| 13> C 	 47.0068 	 15.1093 	 81.692
| 14> H 	 46.5737 	 15.5962 	 82.5374
| 15> H 	 46.0469 	 14.8234 	 81.1897
| 16> C 	 47.721 	 16.1746 	 80.8186
| 17> H 	 48.4854 	 16.6606 	 81.3614
| 18> H 	 48.229 	 15.4987 	 80.0312
| 19> C 	 46.8543 	 17.2173 	 80.1235
| 20> H 	 46.0165 	 17.6558 	 80.7536
| 21> H 	 47.3975 	 18.0105 	 79.7814
| 22> H 	 46.3055 	 16.8305 	 79.2603
| 23> S 	 50.1962 	 10.9875 	 79.3487
| 24> C 	 50.8795 	 9.43028 	 79.2936
| 25> C 	 50.6523 	 8.73318 	 80.4723
| 26> C 	 49.8742 	 9.46251 	 81.4362
| 27> C 	 49.5508 	 10.7641 	 80.9842
| 28> H 	 51.1106 	 7.75753 	 80.5669
| 29> C 	 49.5049 	 8.82589 	 82.7767
| 30> H 	 48.9533 	 7.91803 	 82.5234
| 31> H 	 48.7249 	 9.46392 	 83.2236
| 32> C 	 50.6704 	 8.60363 	 83.8095
| 33> H 	 51.2478 	 9.57535 	 83.9189
| 34> H 	 51.4148 	 7.96185 	 83.3036
| 35> C 	 50.074 	 8.12113 	 85.1476
| 36> H 	 50.9232 	 7.7359 	 85.721
| 37> H 	 49.2749 	 7.40901 	 84.8979
| 38> H 	 49.4945 	 8.94379 	 85.6877
| 39> H 	 48.5105 	 14.4858 	 84.0231
| 40> H 	 51.5469 	 8.99731 	 78.4948
| 41> *
| 42>
| 43>                          ****END OF INPUT****

CARTESIAN COORDINATES (ANGSTROEM)
---------------------------------
  S     49.348900   12.266000   83.387300
  C     48.447800   13.738600   83.303900
  C     47.825100   13.942200   82.082500
  C     48.151600   12.865000   81.194400
  C     49.008100   11.926100   81.686600
  H     47.802000   12.813300   80.212200
  C     47.006800   15.109300   81.692000
  H     46.573700   15.596200   82.537400
  H     46.046900   14.823400   81.189700
  C     47.721000   16.174600   80.818600
  H     48.485400   16.660600   81.361400
  H     48.229000   15.498700   80.031200
  C     46.854300   17.217300   80.123500
  H     46.016500   17.655800   80.753600
  H     47.397500   18.010500   79.781400
  H     46.305500   16.830500   79.260300
  S     50.196200   10.987500   79.348700
  C     50.879500    9.430280   79.293600
  C     50.652300    8.733180   80.472300
  C     49.874200    9.462510   81.436200
  C     49.550800   10.764100   80.984200
  H     51.110600    7.757530   80.566900
  C     49.504900    8.825890   82.776700
  H     48.953300    7.918030   82.523400
  H     48.724900    9.463920   83.223600
  C     50.670400    8.603630   83.809500
  H     51.247800    9.575350   83.918900
  H     51.414800    7.961850   83.303600
  C     50.074000    8.121130   85.147600
  H     50.923200    7.735900   85.721000
  H     49.274900    7.409010   84.897900
  H     49.494500    8.943790   85.687700
  H     48.510500   14.485800   84.023100
  H     51.546900    8.997310   78.494800

 Total Charge           Charge          ....    0
 Multiplicity           Mult            ....    1
 Number of Electrons    NEL             ....  134
 Basis Dimension        Dim             ....  322

ORBITAL ENERGIES
----------------

  NO   OCC          E(Eh)            E(eV)
   0   2.0000     -88.967785     -2420.9365
   1   2.0000     -88.967010     -2420.9154
   2   2.0000     -10.330699      -281.1126
   3   2.0000     -10.330450      -281.1058
   4   2.0000     -10.318354      -280.7767
   5   2.0000     -10.309272      -280.5295
   6   2.0000     -10.306943      -280.4662
   7   2.0000     -10.300128      -280.2807
   8   2.0000     -10.294491      -280.1273
   9   2.0000     -10.292198      -280.0649
  10   2.0000     -10.292116      -280.0627
  11   2.0000     -10.290651      -280.0229
  12   2.0000     -10.290379      -280.0155
  13   2.0000     -10.287321      -279.9322
  14   2.0000     -10.286436      -279.9082
  15   2.0000     -10.276598      -279.6404
  16   2.0000      -8.082275      -219.9299
  17   2.0000      -8.081994      -219.9222
  18   2.0000      -6.040820      -164.3791
  19   2.0000      -6.040465      -164.3694
  20   2.0000      -6.036849      -164.2710
  21   2.0000      -6.036387      -164.2585
  22   2.0000      -6.032989      -164.1660
  23   2.0000      -6.032856      -164.1624
  24   2.0000      -1.006203       -27.3802
  25   2.0000      -0.985465       -26.8159
  26   2.0000      -0.911364       -24.7995
  27   2.0000      -0.901674       -24.5358
  28   2.0000      -0.869878       -23.6706
  29   2.0000      -0.853070       -23.2132
  30   2.0000      -0.846391       -23.0315
  31   2.0000      -0.815073       -22.1793
  32   2.0000      -0.783014       -21.3069
  33   2.0000      -0.768067       -20.9002
  34   2.0000      -0.705611       -19.2007
  35   2.0000      -0.700923       -19.0731
  36   2.0000      -0.692735       -18.8503
  37   2.0000      -0.662737       -18.0340
  38   2.0000      -0.639948       -17.4139
  39   2.0000      -0.624004       -16.9800
  40   2.0000      -0.593773       -16.1574
  41   2.0000      -0.571843       -15.5606
  42   2.0000      -0.559432       -15.2229
  43   2.0000      -0.551074       -14.9955
  44   2.0000      -0.531114       -14.4523
  45   2.0000      -0.520825       -14.1724
  46   2.0000      -0.520002       -14.1500
  47   2.0000      -0.509952       -13.8765
  48   2.0000      -0.507129       -13.7997
  49   2.0000      -0.497009       -13.5243
  50   2.0000      -0.490206       -13.3392
  51   2.0000      -0.481179       -13.0935
  52   2.0000      -0.472501       -12.8574
  53   2.0000      -0.464001       -12.6261
  54   2.0000      -0.456884       -12.4324
  55   2.0000      -0.453375       -12.3370
  56   2.0000      -0.440998       -12.0002
  57   2.0000      -0.439939       -11.9714
  58   2.0000      -0.434981       -11.8364
  59   2.0000      -0.427846       -11.6423
  60   2.0000      -0.419754       -11.4221
  61   2.0000      -0.408110       -11.1052
  62   2.0000      -0.407317       -11.0837
  63   2.0000      -0.355446        -9.6722
  64   2.0000      -0.330951        -9.0056
  65   2.0000      -0.329740        -8.9727
  66   2.0000      -0.286203        -7.7880
  67   0.0000       0.028694         0.7808
  68   0.0000       0.072391         1.9698
  69   0.0000       0.105642         2.8747
  70   0.0000       0.118100         3.2137
  71   0.0000       0.136989         3.7277

MULLIKEN ATOMIC CHARGES
-----------------------
   0 S :    0.110534
   1 C :   -0.089957
   2 C :   -0.066556
   3 C :    0.019910
   4 C :   -0.119837
   5 H :   -0.011185
   6 C :    0.061371
   7 H :    0.003291
   8 H :    0.028878
   9 C :   -0.079317
  10 H :    0.022891
  11 H :    0.037364
  12 C :   -0.023392
  13 H :    0.029999
  14 H :    0.018048
  15 H :    0.028406
  16 S :    0.113577
  17 C :   -0.111841
  18 C :   -0.047021
  19 C :   -0.052469
  20 C :   -0.140699
  21 H :    0.020031
  22 C :    0.025590
  23 H :    0.035795
  24 H :    0.017706
  25 C :   -0.093011
  26 H :    0.039438
  27 H :    0.031386
  28 C :   -0.044239
  29 H :    0.051145
  30 H :    0.033586
  31 H :    0.049354
  32 H :    0.021978
  33 H :    0.079244
Sum of atomic charges:    0.0000000

LOEWDIN ATOMIC CHARGES
----------------------
   0 S :    0.413594
   1 C :   -0.186818
   2 C :   -0.058998
   3 C :   -0.057166
   4 C :   -0.182514
   5 H :    0.019905
   6 C :   -0.041066
   7 H :    0.023330
   8 H :    0.037696
   9 C :   -0.037673
  10 H :    0.017523
  11 H :    0.034174
  12 C :   -0.066253
  13 H :    0.031673
  14 H :    0.015117
  15 H :    0.027357
  16 S :    0.423120
  17 C :   -0.213094
  18 C :   -0.078879
  19 C :   -0.056478
  20 C :   -0.196820
  21 H :    0.030632
  22 C :   -0.043335
  23 H :    0.032529
  24 H :    0.021418
  25 C :   -0.045913
  26 H :    0.028458
  27 H :    0.022578
  28 C :   -0.070196
  29 H :    0.030918
  30 H :    0.027089
  31 H :    0.037565
  32 H :    0.014237
  33 H :    0.046288

  Mayer bond orders larger than 0.100000
B(  0-S ,  1-C ) :   1.1448 B(  0-S ,  4-C ) :   1.1297 B(  1-C ,  2-C ) :   1.6126
B(  1-C , 32-H ) :   0.9704 B(  2-C ,  3-C ) :   1.2292 B(  2-C ,  6-C ) :   1.0482
B(  3-C ,  4-C ) :   1.5700 B(  3-C ,  5-H ) :   1.0051 B(  4-C , 20-C ) :   1.0601
B(  6-C ,  7-H ) :   0.9269 B(  6-C ,  8-H ) :   0.9392 B(  6-C ,  9-C ) :   1.0459
B(  9-C , 10-H ) :   0.9593 B(  9-C , 11-H ) :   0.9599 B(  9-C , 12-C ) :   1.0793
B( 12-C , 13-H ) :   0.9727 B( 12-C , 14-H ) :   0.9736 B( 12-C , 15-H ) :   0.9729
B( 16-S , 17-C ) :   1.1712 B( 16-S , 20-C ) :   1.1421 B( 17-C , 18-C ) :   1.5991
B( 17-C , 33-H ) :   0.9571 B( 18-C , 19-C ) :   1.2504 B( 18-C , 21-H ) :   0.9914
B( 19-C , 20-C ) :   1.5573 B( 19-C , 22-C ) :   1.0418 B( 22-C , 23-H ) :   0.9319
B( 22-C , 24-H ) :   0.9368 B( 22-C , 25-C ) :   1.0471 B( 25-C , 26-H ) :   0.9541
B( 25-C , 27-H ) :   0.9591 B( 25-C , 28-C ) :   1.0658 B( 28-C , 29-H ) :   0.9736
B( 28-C , 30-H ) :   0.9733 B( 28-C , 31-H ) :   0.9726

Dispersion correction           -0.014014933
FINAL SINGLE POINT ENERGY     -1339.882224295145

DIPOLE MOMENT
-------------
                                X             Y             Z
Electronic contribution:      6.94382      -5.91204      -6.59368
Nuclear contribution   :     -6.98334       5.98170       6.62087
                        -----------------------------------------
Total Dipole Moment    :     -0.03952       0.06966       0.02719
                        -----------------------------------------
Magnitude (a.u.)       :      0.08458
Magnitude (Debye)      :      0.21499

Rotational constants in cm-1:     0.021960     0.007667     0.005899
Rotational constants in MHz :   658.343053   229.864861   176.833438

                             ****ORCA TERMINATED NORMALLY****
TOTAL RUN TIME: 0 days 0 hours 0 minutes 29 seconds 581 msec
