                         Program Version 4.2.1 -  RELEASE  -
|  1> ! wB97X-D3 SP def2-SVP
|  2> %pal
|  3> nprocs 16
|  4> end
|  5>
|  6> * xyz 0 1
|  7> S 	 -0.541255 	 -25.1514 	 58.3479
|  8> C 	 -1.61422 	 -25.2121 	 59.7737
|  9> C 	 -0.879974 	 -25.3919 	 60.9061
| 10> C 	 0.518641 	 -25.4371 	 60.6922
| 11> C 	 0.894402 	 -25.3128 	 59.3626
| 12> H 	 1.24285 	 -25.7092 	 61.4372
| 13> C 	 -1.43476 	 -25.5652 	 62.3231
| 14> H 	 -1.71153 	 -24.54 	 62.6942
| 15> H 	 -0.563477 	 -25.8646 	 62.9377
| 16> C 	 -2.62999 	 -26.4874 	 62.4491
| 17> H 	 -2.9958 	 -26.4143 	 63.447
| 18> H 	 -3.35033 	 -26.1249 	 61.7709
| 19> C 	 -2.2073 	 -27.9752 	 62.1633
| 20> H 	 -3.10311 	 -28.596 	 62.1694
| 21> H 	 -1.70192 	 -27.9753 	 61.1645
| 22> H 	 -1.53452 	 -28.3806 	 62.9675
| 23> S 	 2.43642 	 -26.6355 	 57.4581
| 24> C 	 4.16117 	 -26.2754 	 57.3173
| 25> C 	 4.60424 	 -25.4857 	 58.3861
| 26> C 	 3.51091 	 -25.0107 	 59.216
| 27> C 	 2.26802 	 -25.5936 	 58.8776
| 28> H 	 5.59475 	 -25.1321 	 58.5352
| 29> C 	 3.67435 	 -23.9186 	 60.2605
| 30> H 	 2.73292 	 -23.5733 	 60.5856
| 31> H 	 4.12615 	 -23.1088 	 59.6612
| 32> C 	 4.5431 	 -24.2209 	 61.4273
| 33> H 	 4.82517 	 -23.3122 	 61.9856
| 34> H 	 5.48154 	 -24.7404 	 61.0815
| 35> C 	 3.95456 	 -25.1705 	 62.609
| 36> H 	 3.69819 	 -26.108 	 62.174
| 37> H 	 3.09685 	 -24.6953 	 63.1585
| 38> H 	 4.71844 	 -25.284 	 63.3368
| 39> H 	 -2.69244 	 -25.1564 	 59.6593
| 40> H 	 4.84902 	 -26.5358 	 56.5036
| 41> *
| 42>
| 43>                          ****END OF INPUT****

CARTESIAN COORDINATES (ANGSTROEM)
---------------------------------
  S     -0.541255  -25.151400   58.347900
  C     -1.614220  -25.212100   59.773700
  C     -0.879974  -25.391900   60.906100
  C      0.518641  -25.437100   60.692200
  C      0.894402  -25.312800   59.362600
  H      1.242850  -25.709200   61.437200
  C     -1.434760  -25.565200   62.323100
  H     -1.711530  -24.540000   62.694200
  H     -0.563477  -25.864600   62.937700
  C     -2.629990  -26.487400   62.449100
  H     -2.995800  -26.414300   63.447000
  H     -3.350330  -26.124900   61.770900
  C     -2.207300  -27.975200   62.163300
  H     -3.103110  -28.596000   62.169400
  H     -1.701920  -27.975300   61.164500
  H     -1.534520  -28.380600   62.967500
  S      2.436420  -26.635500   57.458100
  C      4.161170  -26.275400   57.317300
  C      4.604240  -25.485700   58.386100
  C      3.510910  -25.010700   59.216000
  C      2.268020  -25.593600   58.877600
  H      5.594750  -25.132100   58.535200
  C      3.674350  -23.918600   60.260500
  H      2.732920  -23.573300   60.585600
  H      4.126150  -23.108800   59.661200
  C      4.543100  -24.220900   61.427300
  H      4.825170  -23.312200   61.985600
  H      5.481540  -24.740400   61.081500
  C      3.954560  -25.170500   62.609000
  H      3.698190  -26.108000   62.174000
  H      3.096850  -24.695300   63.158500
  H      4.718440  -25.284000   63.336800
  H     -2.692440  -25.156400   59.659300
  H      4.849020  -26.535800   56.503600

 Total Charge           Charge          ....    0
 Multiplicity           Mult            ....    1
 Number of Electrons    NEL             ....  134
 Basis Dimension        Dim             ....  322

ORBITAL ENERGIES
----------------

  NO   OCC          E(Eh)            E(eV)
   0   2.0000     -88.967933     -2420.9405
   1   2.0000     -88.967757     -2420.9357
   2   2.0000     -10.333961      -281.2014
   3   2.0000     -10.331851      -281.1440
   4   2.0000     -10.325207      -280.9632
   5   2.0000     -10.317084      -280.7421
   6   2.0000     -10.307869      -280.4914
   7   2.0000     -10.299572      -280.2656
   8   2.0000     -10.298267      -280.2301
   9   2.0000     -10.294562      -280.1293
  10   2.0000     -10.294478      -280.1270
  11   2.0000     -10.291348      -280.0418
  12   2.0000     -10.287444      -279.9356
  13   2.0000     -10.282724      -279.8071
  14   2.0000     -10.282612      -279.8041
  15   2.0000     -10.281077      -279.7623
  16   2.0000      -8.081817      -219.9174
  17   2.0000      -8.081600      -219.9115
  18   2.0000      -6.040454      -164.3691
  19   2.0000      -6.040269      -164.3641
  20   2.0000      -6.036393      -164.2586
  21   2.0000      -6.036204      -164.2535
  22   2.0000      -6.032533      -164.1536
  23   2.0000      -6.032269      -164.1464
  24   2.0000      -1.000905       -27.2360
  25   2.0000      -0.978955       -26.6387
  26   2.0000      -0.911219       -24.7955
  27   2.0000      -0.907443       -24.6928
  28   2.0000      -0.863743       -23.5036
  29   2.0000      -0.846157       -23.0251
  30   2.0000      -0.840292       -22.8655
  31   2.0000      -0.811024       -22.0691
  32   2.0000      -0.782207       -21.2849
  33   2.0000      -0.772680       -21.0257
  34   2.0000      -0.709504       -19.3066
  35   2.0000      -0.700596       -19.0642
  36   2.0000      -0.690256       -18.7828
  37   2.0000      -0.658773       -17.9261
  38   2.0000      -0.641516       -17.4565
  39   2.0000      -0.610303       -16.6072
  40   2.0000      -0.593799       -16.1581
  41   2.0000      -0.577295       -15.7090
  42   2.0000      -0.554124       -15.0785
  43   2.0000      -0.550165       -14.9707
  44   2.0000      -0.546985       -14.8842
  45   2.0000      -0.530559       -14.4372
  46   2.0000      -0.515675       -14.0322
  47   2.0000      -0.514330       -13.9956
  48   2.0000      -0.498278       -13.5588
  49   2.0000      -0.492538       -13.4027
  50   2.0000      -0.484814       -13.1925
  51   2.0000      -0.480707       -13.0807
  52   2.0000      -0.470941       -12.8150
  53   2.0000      -0.464696       -12.6450
  54   2.0000      -0.462812       -12.5937
  55   2.0000      -0.454159       -12.3583
  56   2.0000      -0.445505       -12.1228
  57   2.0000      -0.438105       -11.9214
  58   2.0000      -0.432783       -11.7766
  59   2.0000      -0.424846       -11.5606
  60   2.0000      -0.420881       -11.4527
  61   2.0000      -0.415650       -11.3104
  62   2.0000      -0.403469       -10.9790
  63   2.0000      -0.347893        -9.4666
  64   2.0000      -0.332120        -9.0374
  65   2.0000      -0.329796        -8.9742
  66   2.0000      -0.290798        -7.9130
  67   0.0000       0.023647         0.6435
  68   0.0000       0.071337         1.9412
  69   0.0000       0.107101         2.9144
  70   0.0000       0.121363         3.3024
  71   0.0000       0.127912         3.4807

MULLIKEN ATOMIC CHARGES
-----------------------
   0 S :    0.099223
   1 C :   -0.155136
   2 C :   -0.071897
   3 C :    0.023802
   4 C :   -0.130267
   5 H :    0.001721
   6 C :    0.043864
   7 H :    0.046408
   8 H :    0.018504
   9 C :   -0.032128
  10 H :    0.023607
  11 H :    0.018292
  12 C :   -0.085334
  13 H :    0.037452
  14 H :    0.058349
  15 H :    0.040280
  16 S :    0.104363
  17 C :   -0.099272
  18 C :   -0.011413
  19 C :   -0.091137
  20 C :   -0.155283
  21 H :    0.011851
  22 C :    0.126205
  23 H :    0.009482
  24 H :    0.037058
  25 C :   -0.113808
  26 H :    0.035904
  27 H :    0.032737
  28 C :   -0.065692
  29 H :    0.046152
  30 H :    0.039809
  31 H :    0.029766
  32 H :    0.056324
  33 H :    0.070211
Sum of atomic charges:   -0.0000000

LOEWDIN ATOMIC CHARGES
----------------------
   0 S :    0.385660
   1 C :   -0.187113
   2 C :   -0.067495
   3 C :   -0.062740
   4 C :   -0.187174
   5 H :    0.029786
   6 C :   -0.032525
   7 H :    0.038075
   8 H :    0.027719
   9 C :   -0.034466
  10 H :    0.021888
  11 H :    0.016374
  12 C :   -0.068416
  13 H :    0.023603
  14 H :    0.033613
  15 H :    0.030059
  16 S :    0.392862
  17 C :   -0.182848
  18 C :   -0.067588
  19 C :   -0.051803
  20 C :   -0.196006
  21 H :    0.025237
  22 C :   -0.033767
  23 H :    0.023703
  24 H :    0.042041
  25 C :   -0.040415
  26 H :    0.026299
  27 H :    0.025984
  28 C :   -0.065132
  29 H :    0.018862
  30 H :    0.027734
  31 H :    0.021782
  32 H :    0.028739
  33 H :    0.037471

  Mayer bond orders larger than 0.100000
B(  0-S ,  1-C ) :   1.1216 B(  0-S ,  4-C ) :   1.1520 B(  1-C ,  2-C ) :   1.6006
B(  1-C , 32-H ) :   0.9737 B(  2-C ,  3-C ) :   1.2576 B(  2-C ,  6-C ) :   1.0018
B(  3-C ,  4-C ) :   1.5545 B(  3-C ,  5-H ) :   0.9901 B(  4-C , 20-C ) :   1.0481
B(  6-C ,  7-H ) :   0.9347 B(  6-C ,  8-H ) :   0.9463 B(  6-C ,  9-C ) :   1.0784
B(  9-C , 10-H ) :   0.9520 B(  9-C , 11-H ) :   0.9543 B(  9-C , 12-C ) :   1.0707
B( 12-C , 13-H ) :   0.9765 B( 12-C , 14-H ) :   0.9764 B( 12-C , 15-H ) :   0.9755
B( 16-S , 17-C ) :   1.1515 B( 16-S , 20-C ) :   1.1260 B( 17-C , 18-C ) :   1.6054
B( 17-C , 33-H ) :   0.9647 B( 18-C , 19-C ) :   1.2493 B( 18-C , 21-H ) :   0.9857
B( 19-C , 20-C ) :   1.5871 B( 19-C , 22-C ) :   1.0414 B( 22-C , 23-H ) :   0.9295
B( 22-C , 24-H ) :   0.9261 B( 22-C , 25-C ) :   1.0732 B( 25-C , 26-H ) :   0.9553
B( 25-C , 27-H ) :   0.9586 B( 25-C , 28-C ) :   1.0718 B( 28-C , 29-H ) :   0.9741
B( 28-C , 30-H ) :   0.9742 B( 28-C , 31-H ) :   0.9732

Dispersion correction           -0.014853655
FINAL SINGLE POINT ENERGY     -1339.885580598708

DIPOLE MOMENT
-------------
                                X             Y             Z
Electronic contribution:      0.14123       0.38372     -25.92420
Nuclear contribution   :      0.00194      -0.19521      26.50075
                        -----------------------------------------
Total Dipole Moment    :      0.14317       0.18851       0.57655
                        -----------------------------------------
Magnitude (a.u.)       :      0.62326
Magnitude (Debye)      :      1.58419

Rotational constants in cm-1:     0.019177     0.008864     0.006992
Rotational constants in MHz :   574.899335   265.724236   209.623087

                             ****ORCA TERMINATED NORMALLY****
TOTAL RUN TIME: 0 days 0 hours 0 minutes 36 seconds 132 msec
