                         Program Version 4.2.1 -  RELEASE  -
|  1> ! wB97X-D3 SP def2-SVP
|  2> %pal
|  3> nprocs 16
|  4> end
|  5>
|  6> * xyz 0 1
|  7> S 	 -60.8571 	 35.1869 	 134.413
|  8> C 	 -59.2704 	 34.5392 	 133.986
|  9> C 	 -58.438 	 35.6067 	 133.652
| 10> C 	 -59.1289 	 36.8799 	 133.588
| 11> C 	 -60.3994 	 36.8188 	 133.946
| 12> H 	 -58.7043 	 37.7732 	 133.314
| 13> C 	 -56.925 	 35.4184 	 133.331
| 14> H 	 -56.6013 	 34.3627 	 133.3
| 15> H 	 -56.4129 	 36.0244 	 134.117
| 16> C 	 -56.4239 	 35.9976 	 131.979
| 17> H 	 -56.8379 	 35.4309 	 131.21
| 18> H 	 -56.8997 	 36.9888 	 131.728
| 19> C 	 -54.9598 	 36.1434 	 131.854
| 20> H 	 -54.77 	 36.9844 	 132.549
| 21> H 	 -54.396 	 35.2844 	 132.19
| 22> H 	 -54.5302 	 36.4063 	 130.897
| 23> S 	 -62.1378 	 38.2403 	 135.556
| 24> C 	 -62.9566 	 39.5676 	 134.854
| 25> C 	 -62.6411 	 39.8287 	 133.549
| 26> C 	 -61.7098 	 38.8536 	 133.042
| 27> C 	 -61.3146 	 37.9657 	 134.015
| 28> H 	 -63.0408 	 40.6142 	 132.965
| 29> C 	 -61.3038 	 38.773 	 131.6
| 30> H 	 -60.1977 	 38.7527 	 131.613
| 31> H 	 -61.701 	 39.6912 	 131.098
| 32> C 	 -61.9097 	 37.5995 	 130.898
| 33> H 	 -62.9844 	 37.6329 	 131.286
| 34> H 	 -61.4477 	 36.6816 	 131.273
| 35> C 	 -61.8473 	 37.6872 	 129.376
| 36> H 	 -60.7368 	 37.7565 	 128.993
| 37> H 	 -62.3983 	 38.464 	 128.872
| 38> H 	 -62.3355 	 36.7562 	 129.163
| 39> H 	 -58.8895 	 33.5641 	 134.015
| 40> H 	 -63.6325 	 40.1979 	 135.38
| 41> *
| 42>
| 43>                          ****END OF INPUT****

CARTESIAN COORDINATES (ANGSTROEM)
---------------------------------
  S    -60.857100   35.186900  134.413000
  C    -59.270400   34.539200  133.986000
  C    -58.438000   35.606700  133.652000
  C    -59.128900   36.879900  133.588000
  C    -60.399400   36.818800  133.946000
  H    -58.704300   37.773200  133.314000
  C    -56.925000   35.418400  133.331000
  H    -56.601300   34.362700  133.300000
  H    -56.412900   36.024400  134.117000
  C    -56.423900   35.997600  131.979000
  H    -56.837900   35.430900  131.210000
  H    -56.899700   36.988800  131.728000
  C    -54.959800   36.143400  131.854000
  H    -54.770000   36.984400  132.549000
  H    -54.396000   35.284400  132.190000
  H    -54.530200   36.406300  130.897000
  S    -62.137800   38.240300  135.556000
  C    -62.956600   39.567600  134.854000
  C    -62.641100   39.828700  133.549000
  C    -61.709800   38.853600  133.042000
  C    -61.314600   37.965700  134.015000
  H    -63.040800   40.614200  132.965000
  C    -61.303800   38.773000  131.600000
  H    -60.197700   38.752700  131.613000
  H    -61.701000   39.691200  131.098000
  C    -61.909700   37.599500  130.898000
  H    -62.984400   37.632900  131.286000
  H    -61.447700   36.681600  131.273000
  C    -61.847300   37.687200  129.376000
  H    -60.736800   37.756500  128.993000
  H    -62.398300   38.464000  128.872000
  H    -62.335500   36.756200  129.163000
  H    -58.889500   33.564100  134.015000
  H    -63.632500   40.197900  135.380000

 Total Charge           Charge          ....    0
 Multiplicity           Mult            ....    1
 Number of Electrons    NEL             ....  134
 Basis Dimension        Dim             ....  322

ORBITAL ENERGIES
----------------

  NO   OCC          E(Eh)            E(eV)
   0   2.0000     -88.966791     -2420.9095
   1   2.0000     -88.964975     -2420.8600
   2   2.0000     -10.325657      -280.9754
   3   2.0000     -10.322963      -280.9021
   4   2.0000     -10.313388      -280.6415
   5   2.0000     -10.312046      -280.6050
   6   2.0000     -10.306823      -280.4629
   7   2.0000     -10.302499      -280.3453
   8   2.0000     -10.299385      -280.2605
   9   2.0000     -10.290129      -280.0086
  10   2.0000     -10.288562      -279.9660
  11   2.0000     -10.285029      -279.8699
  12   2.0000     -10.285001      -279.8691
  13   2.0000     -10.281742      -279.7804
  14   2.0000     -10.281671      -279.7785
  15   2.0000     -10.276380      -279.6345
  16   2.0000      -8.082048      -219.9237
  17   2.0000      -8.079210      -219.8465
  18   2.0000      -6.040454      -164.3691
  19   2.0000      -6.037979      -164.3018
  20   2.0000      -6.036544      -164.2627
  21   2.0000      -6.033765      -164.1871
  22   2.0000      -6.032837      -164.1618
  23   2.0000      -6.029738      -164.0775
  24   2.0000      -1.009633       -27.4735
  25   2.0000      -0.986233       -26.8368
  26   2.0000      -0.915710       -24.9177
  27   2.0000      -0.912168       -24.8213
  28   2.0000      -0.873167       -23.7601
  29   2.0000      -0.854157       -23.2428
  30   2.0000      -0.846786       -23.0422
  31   2.0000      -0.820601       -22.3297
  32   2.0000      -0.782621       -21.2962
  33   2.0000      -0.770615       -20.9695
  34   2.0000      -0.707110       -19.2414
  35   2.0000      -0.697178       -18.9712
  36   2.0000      -0.685440       -18.6518
  37   2.0000      -0.666983       -18.1495
  38   2.0000      -0.646777       -17.5997
  39   2.0000      -0.625302       -17.0153
  40   2.0000      -0.596229       -16.2242
  41   2.0000      -0.572768       -15.5858
  42   2.0000      -0.572125       -15.5683
  43   2.0000      -0.562728       -15.3126
  44   2.0000      -0.528257       -14.3746
  45   2.0000      -0.527400       -14.3513
  46   2.0000      -0.516132       -14.0447
  47   2.0000      -0.513344       -13.9688
  48   2.0000      -0.506273       -13.7764
  49   2.0000      -0.501610       -13.6495
  50   2.0000      -0.491353       -13.3704
  51   2.0000      -0.488118       -13.2824
  52   2.0000      -0.470135       -12.7930
  53   2.0000      -0.467930       -12.7330
  54   2.0000      -0.458991       -12.4898
  55   2.0000      -0.454294       -12.3620
  56   2.0000      -0.452808       -12.3215
  57   2.0000      -0.429990       -11.7006
  58   2.0000      -0.426932       -11.6174
  59   2.0000      -0.422693       -11.5021
  60   2.0000      -0.417788       -11.3686
  61   2.0000      -0.411546       -11.1987
  62   2.0000      -0.409162       -11.1339
  63   2.0000      -0.349007        -9.4970
  64   2.0000      -0.333393        -9.0721
  65   2.0000      -0.327183        -8.9031
  66   2.0000      -0.297445        -8.0939
  67   0.0000       0.038491         1.0474
  68   0.0000       0.068958         1.8764
  69   0.0000       0.113365         3.0848
  70   0.0000       0.125594         3.4176
  71   0.0000       0.127740         3.4760

MULLIKEN ATOMIC CHARGES
-----------------------
   0 S :    0.104137
   1 C :   -0.093292
   2 C :   -0.085961
   3 C :    0.060301
   4 C :   -0.130762
   5 H :   -0.022312
   6 C :    0.050645
   7 H :    0.031773
   8 H :    0.040818
   9 C :   -0.077987
  10 H :    0.007920
  11 H :    0.020749
  12 C :   -0.034955
  13 H :    0.026973
  14 H :    0.025816
  15 H :    0.034856
  16 S :    0.120058
  17 C :   -0.060864
  18 C :   -0.021547
  19 C :   -0.062486
  20 C :   -0.183886
  21 H :    0.002032
  22 C :    0.096658
  23 H :    0.026237
  24 H :    0.012300
  25 C :   -0.114968
  26 H :    0.039926
  27 H :    0.047183
  28 C :   -0.038022
  29 H :    0.045494
  30 H :    0.032067
  31 H :    0.035853
  32 H :    0.024527
  33 H :    0.040719
Sum of atomic charges:   -0.0000000

LOEWDIN ATOMIC CHARGES
----------------------
   0 S :    0.385838
   1 C :   -0.188960
   2 C :   -0.053108
   3 C :   -0.057802
   4 C :   -0.185060
   5 H :    0.017805
   6 C :   -0.027913
   7 H :    0.032711
   8 H :    0.036070
   9 C :   -0.051139
  10 H :    0.010903
  11 H :    0.025426
  12 C :   -0.065504
  13 H :    0.030597
  14 H :    0.022239
  15 H :    0.027339
  16 S :    0.414621
  17 C :   -0.183815
  18 C :   -0.068433
  19 C :   -0.051457
  20 C :   -0.196512
  21 H :    0.025995
  22 C :   -0.038974
  23 H :    0.029625
  24 H :    0.031023
  25 C :   -0.045768
  26 H :    0.034660
  27 H :    0.028364
  28 C :   -0.070609
  29 H :    0.037901
  30 H :    0.020673
  31 H :    0.029472
  32 H :    0.021551
  33 H :    0.022244

  Mayer bond orders larger than 0.100000
B(  0-S ,  1-C ) :   1.1115 B(  0-S ,  4-C ) :   1.1225 B(  1-C ,  2-C ) :   1.6447
B(  1-C , 32-H ) :   0.9766 B(  2-C ,  3-C ) :   1.1902 B(  2-C ,  6-C ) :   1.0205
B(  3-C ,  4-C ) :   1.6285 B(  3-C ,  5-H ) :   1.0094 B(  4-C , 20-C ) :   1.0168
B(  6-C ,  7-H ) :   0.9476 B(  6-C ,  8-H ) :   0.9410 B(  6-C ,  9-C ) :   1.0493
B(  9-C , 10-H ) :   0.9531 B(  9-C , 11-H ) :   0.9553 B(  9-C , 12-C ) :   1.0801
B( 12-C , 13-H ) :   0.9752 B( 12-C , 14-H ) :   0.9738 B( 12-C , 15-H ) :   0.9720
B( 16-S , 17-C ) :   1.1638 B( 16-S , 20-C ) :   1.1319 B( 17-C , 18-C ) :   1.6125
B( 17-C , 33-H ) :   0.9660 B( 18-C , 19-C ) :   1.2372 B( 18-C , 21-H ) :   0.9963
B( 19-C , 20-C ) :   1.6179 B( 19-C , 22-C ) :   1.0480 B( 22-C , 23-H ) :   0.9169
B( 22-C , 24-H ) :   0.9303 B( 22-C , 25-C ) :   1.0694 B( 25-C , 26-H ) :   0.9522
B( 25-C , 27-H ) :   0.9496 B( 25-C , 28-C ) :   1.0808 B( 28-C , 29-H ) :   0.9697
B( 28-C , 30-H ) :   0.9742 B( 28-C , 31-H ) :   0.9741

Dispersion correction           -0.014444478
FINAL SINGLE POINT ENERGY     -1339.871929449137

DIPOLE MOMENT
-------------
                                X             Y             Z
Electronic contribution:    -17.33660      -0.98205      23.72027
Nuclear contribution   :     17.65305       1.21104     -24.22656
                        -----------------------------------------
Total Dipole Moment    :      0.31645       0.22899      -0.50629
                        -----------------------------------------
Magnitude (a.u.)       :      0.63946
Magnitude (Debye)      :      1.62537

Rotational constants in cm-1:     0.017871     0.008693     0.007150
Rotational constants in MHz :   535.767730   260.603953   214.340896

                             ****ORCA TERMINATED NORMALLY****
TOTAL RUN TIME: 0 days 0 hours 0 minutes 33 seconds 151 msec
