                         Program Version 4.2.1 -  RELEASE  -
|  1> ! wB97X-D3 SP def2-SVP
|  2> %pal
|  3> nprocs 16
|  4> end
|  5>
|  6> * xyz 0 1
|  7> S 	 -8.69758 	 47.0539 	 39.7319
|  8> C 	 -9.61929 	 47.9352 	 38.5285
|  9> C 	 -9.14238 	 49.1835 	 38.2524
| 10> C 	 -7.91899 	 49.3565 	 38.9673
| 11> C 	 -7.56194 	 48.3448 	 39.8686
| 12> H 	 -7.32349 	 50.2636 	 38.9586
| 13> C 	 -9.58087 	 50.2537 	 37.2625
| 14> H 	 -9.32088 	 49.7798 	 36.3255
| 15> H 	 -8.97321 	 51.1541 	 37.5095
| 16> C 	 -11.0399 	 50.5728 	 37.019
| 17> H 	 -10.9939 	 51.269 	 36.1965
| 18> H 	 -11.5968 	 49.713 	 36.6569
| 19> C 	 -11.7249 	 51.2738 	 38.2123
| 20> H 	 -12.5069 	 51.9302 	 37.9474
| 21> H 	 -12.0575 	 50.5906 	 38.9486
| 22> H 	 -11.0181 	 51.9356 	 38.6797
| 23> S 	 -6.74177 	 48.3047 	 42.4337
| 24> C 	 -5.0443 	 48.0458 	 42.8134
| 25> C 	 -4.29404 	 48.0815 	 41.6279
| 26> C 	 -5.06068 	 48.2727 	 40.4528
| 27> C 	 -6.36065 	 48.2674 	 40.713
| 28> H 	 -3.2033 	 48.0801 	 41.5858
| 29> C 	 -4.40458 	 48.4522 	 39.1459
| 30> H 	 -3.33242 	 48.4692 	 39.095
| 31> H 	 -4.84769 	 49.3646 	 38.7813
| 32> C 	 -4.85108 	 47.3902 	 38.1362
| 33> H 	 -5.845 	 47.4065 	 37.6983
| 34> H 	 -4.86054 	 46.4203 	 38.6317
| 35> C 	 -3.94535 	 47.2761 	 36.8681
| 36> H 	 -3.87298 	 48.1453 	 36.2447
| 37> H 	 -4.2387 	 46.4306 	 36.192
| 38> H 	 -2.88619 	 47.1627 	 37.1502
| 39> H 	 -10.5367 	 47.6013 	 38.0704
| 40> H 	 -4.76936 	 48.0979 	 43.8159
| 41> *
| 42>
| 43>                          ****END OF INPUT****

CARTESIAN COORDINATES (ANGSTROEM)
---------------------------------
  S     -8.697580   47.053900   39.731900
  C     -9.619290   47.935200   38.528500
  C     -9.142380   49.183500   38.252400
  C     -7.918990   49.356500   38.967300
  C     -7.561940   48.344800   39.868600
  H     -7.323490   50.263600   38.958600
  C     -9.580870   50.253700   37.262500
  H     -9.320880   49.779800   36.325500
  H     -8.973210   51.154100   37.509500
  C    -11.039900   50.572800   37.019000
  H    -10.993900   51.269000   36.196500
  H    -11.596800   49.713000   36.656900
  C    -11.724900   51.273800   38.212300
  H    -12.506900   51.930200   37.947400
  H    -12.057500   50.590600   38.948600
  H    -11.018100   51.935600   38.679700
  S     -6.741770   48.304700   42.433700
  C     -5.044300   48.045800   42.813400
  C     -4.294040   48.081500   41.627900
  C     -5.060680   48.272700   40.452800
  C     -6.360650   48.267400   40.713000
  H     -3.203300   48.080100   41.585800
  C     -4.404580   48.452200   39.145900
  H     -3.332420   48.469200   39.095000
  H     -4.847690   49.364600   38.781300
  C     -4.851080   47.390200   38.136200
  H     -5.845000   47.406500   37.698300
  H     -4.860540   46.420300   38.631700
  C     -3.945350   47.276100   36.868100
  H     -3.872980   48.145300   36.244700
  H     -4.238700   46.430600   36.192000
  H     -2.886190   47.162700   37.150200
  H    -10.536700   47.601300   38.070400
  H     -4.769360   48.097900   43.815900

 Total Charge           Charge          ....    0
 Multiplicity           Mult            ....    1
 Number of Electrons    NEL             ....  134
 Basis Dimension        Dim             ....  322

ORBITAL ENERGIES
----------------

  NO   OCC          E(Eh)            E(eV)
   0   2.0000     -88.966539     -2420.9026
   1   2.0000     -88.960981     -2420.7514
   2   2.0000     -10.325400      -280.9684
   3   2.0000     -10.319284      -280.8020
   4   2.0000     -10.317237      -280.7463
   5   2.0000     -10.309085      -280.5245
   6   2.0000     -10.298051      -280.2242
   7   2.0000     -10.296388      -280.1790
   8   2.0000     -10.296126      -280.1718
   9   2.0000     -10.294407      -280.1250
  10   2.0000     -10.290177      -280.0099
  11   2.0000     -10.288692      -279.9695
  12   2.0000     -10.288297      -279.9588
  13   2.0000     -10.280670      -279.7512
  14   2.0000     -10.277026      -279.6521
  15   2.0000     -10.267679      -279.3977
  16   2.0000      -8.081288      -219.9030
  17   2.0000      -8.075944      -219.7576
  18   2.0000      -6.039775      -164.3506
  19   2.0000      -6.035687      -164.2394
  20   2.0000      -6.034394      -164.2042
  21   2.0000      -6.032182      -164.1440
  22   2.0000      -6.030491      -164.0980
  23   2.0000      -6.026680      -163.9943
  24   2.0000      -1.009689       -27.4750
  25   2.0000      -0.986936       -26.8559
  26   2.0000      -0.916385       -24.9361
  27   2.0000      -0.912168       -24.8214
  28   2.0000      -0.867135       -23.5959
  29   2.0000      -0.851037       -23.1579
  30   2.0000      -0.846278       -23.0284
  31   2.0000      -0.806890       -21.9566
  32   2.0000      -0.788529       -21.4570
  33   2.0000      -0.779271       -21.2050
  34   2.0000      -0.711340       -19.3565
  35   2.0000      -0.705200       -19.1895
  36   2.0000      -0.690376       -18.7861
  37   2.0000      -0.674549       -18.3554
  38   2.0000      -0.636814       -17.3286
  39   2.0000      -0.610647       -16.6165
  40   2.0000      -0.599006       -16.2998
  41   2.0000      -0.577775       -15.7221
  42   2.0000      -0.569711       -15.5026
  43   2.0000      -0.556169       -15.1341
  44   2.0000      -0.542729       -14.7684
  45   2.0000      -0.526962       -14.3394
  46   2.0000      -0.517538       -14.0829
  47   2.0000      -0.509046       -13.8518
  48   2.0000      -0.501308       -13.6413
  49   2.0000      -0.496860       -13.5202
  50   2.0000      -0.488558       -13.2943
  51   2.0000      -0.479077       -13.0363
  52   2.0000      -0.472810       -12.8658
  53   2.0000      -0.464096       -12.6287
  54   2.0000      -0.459786       -12.5114
  55   2.0000      -0.445006       -12.1092
  56   2.0000      -0.441084       -12.0025
  57   2.0000      -0.438826       -11.9411
  58   2.0000      -0.434151       -11.8139
  59   2.0000      -0.432056       -11.7568
  60   2.0000      -0.424439       -11.5496
  61   2.0000      -0.417383       -11.3576
  62   2.0000      -0.407186       -11.0801
  63   2.0000      -0.333748        -9.0818
  64   2.0000      -0.333180        -9.0663
  65   2.0000      -0.326429        -8.8826
  66   2.0000      -0.299164        -8.1407
  67   0.0000       0.038201         1.0395
  68   0.0000       0.063608         1.7309
  69   0.0000       0.109514         2.9800
  70   0.0000       0.119904         3.2628
  71   0.0000       0.132048         3.5932

MULLIKEN ATOMIC CHARGES
-----------------------
   0 S :    0.129784
   1 C :   -0.136802
   2 C :   -0.054905
   3 C :    0.000671
   4 C :   -0.157978
   5 H :    0.007177
   6 C :    0.042027
   7 H :    0.041942
   8 H :    0.037309
   9 C :   -0.059731
  10 H :    0.023335
  11 H :    0.027617
  12 C :   -0.009754
  13 H :    0.021519
  14 H :    0.034616
  15 H :    0.011690
  16 S :    0.096373
  17 C :   -0.070359
  18 C :   -0.036551
  19 C :   -0.011870
  20 C :   -0.198734
  21 H :    0.017526
  22 C :    0.156889
  23 H :    0.012948
  24 H :    0.021065
  25 C :   -0.104424
  26 H :    0.044452
  27 H :    0.027012
  28 C :   -0.068663
  29 H :    0.019841
  30 H :    0.043650
  31 H :    0.016898
  32 H :    0.032391
  33 H :    0.043038
Sum of atomic charges:    0.0000000

LOEWDIN ATOMIC CHARGES
----------------------
   0 S :    0.421916
   1 C :   -0.203333
   2 C :   -0.065695
   3 C :   -0.068580
   4 C :   -0.211020
   5 H :    0.024875
   6 C :   -0.031122
   7 H :    0.042047
   8 H :    0.036142
   9 C :   -0.037958
  10 H :    0.027155
  11 H :    0.023291
  12 C :   -0.059602
  13 H :    0.021024
  14 H :    0.023558
  15 H :    0.024291
  16 S :    0.398465
  17 C :   -0.166832
  18 C :   -0.065222
  19 C :   -0.058968
  20 C :   -0.194077
  21 H :    0.030867
  22 C :   -0.021810
  23 H :    0.030059
  24 H :    0.037123
  25 C :   -0.040930
  26 H :    0.027979
  27 H :    0.023675
  28 C :   -0.074598
  29 H :    0.017648
  30 H :    0.033342
  31 H :    0.019098
  32 H :    0.023018
  33 H :    0.014171

  Mayer bond orders larger than 0.100000
B(  0-S ,  1-C ) :   1.1436 B(  0-S ,  4-C ) :   1.1591 B(  1-C ,  2-C ) :   1.6141
B(  1-C , 32-H ) :   0.9638 B(  2-C ,  3-C ) :   1.2498 B(  2-C ,  6-C ) :   0.9974
B(  3-C ,  4-C ) :   1.5836 B(  3-C ,  5-H ) :   0.9894 B(  4-C , 20-C ) :   0.9919
B(  6-C ,  7-H ) :   0.9301 B(  6-C ,  8-H ) :   0.9443 B(  6-C ,  9-C ) :   1.0961
B(  9-C , 10-H ) :   0.9499 B(  9-C , 11-H ) :   0.9518 B(  9-C , 12-C ) :   1.0723
B( 12-C , 13-H ) :   0.9757 B( 12-C , 14-H ) :   0.9767 B( 12-C , 15-H ) :   0.9729
B( 16-S , 17-C ) :   1.1590 B( 16-S , 20-C ) :   1.1485 B( 17-C , 18-C ) :   1.5698
B( 17-C , 20-C ) :   0.1052 B( 17-C , 33-H ) :   0.9836 B( 18-C , 19-C ) :   1.2373
B( 18-C , 21-H ) :   0.9889 B( 19-C , 20-C ) :   1.6375 B( 19-C , 22-C ) :   1.0554
B( 22-C , 23-H ) :   0.9382 B( 22-C , 24-H ) :   0.9098 B( 22-C , 25-C ) :   1.0491
B( 25-C , 26-H ) :   0.9517 B( 25-C , 27-H ) :   0.9609 B( 25-C , 28-C ) :   1.0853
B( 28-C , 29-H ) :   0.9749 B( 28-C , 30-H ) :   0.9753 B( 28-C , 31-H ) :   0.9733

Dispersion correction           -0.014631415
FINAL SINGLE POINT ENERGY     -1339.869266062895

DIPOLE MOMENT
-------------
                                X             Y             Z
Electronic contribution:      0.31174      -9.54107      21.83465
Nuclear contribution   :     -0.18210      10.00564     -22.36479
                        -----------------------------------------
Total Dipole Moment    :      0.12964       0.46457      -0.53014
                        -----------------------------------------
Magnitude (a.u.)       :      0.71671
Magnitude (Debye)      :      1.82174

Rotational constants in cm-1:     0.019571     0.008409     0.006889
Rotational constants in MHz :   586.729681   252.093451   206.537662

                             ****ORCA TERMINATED NORMALLY****
TOTAL RUN TIME: 0 days 0 hours 0 minutes 34 seconds 293 msec
