                         Program Version 4.2.1 -  RELEASE  -
|  1> ! wB97X-D3 SP def2-SVP
|  2> %pal
|  3> nprocs 16
|  4> end
|  5>
|  6> * xyz 0 1
|  7> S 	 -89.7347 	 41.1988 	 113.293
|  8> C 	 -88.8751 	 41.7171 	 114.749
|  9> C 	 -89.6152 	 42.5378 	 115.536
| 10> C 	 -90.8998 	 42.7127 	 114.981
| 11> C 	 -91.1199 	 42.0909 	 113.762
| 12> H 	 -91.6403 	 43.4191 	 115.307
| 13> C 	 -89.207 	 43.3132 	 116.762
| 14> H 	 -89.9684 	 44.0252 	 116.987
| 15> H 	 -88.3357 	 43.8395 	 116.443
| 16> C 	 -89.0798 	 42.4481 	 118.055
| 17> H 	 -88.2813 	 41.6916 	 118.073
| 18> H 	 -88.8201 	 43.2363 	 118.717
| 19> C 	 -90.3459 	 41.705 	 118.474
| 20> H 	 -90.6573 	 40.8933 	 117.798
| 21> H 	 -90.1072 	 41.4406 	 119.498
| 22> H 	 -91.192 	 42.2787 	 118.591
| 23> S 	 -92.2083 	 42.3348 	 111.235
| 24> C 	 -93.9241 	 42.005 	 111.042
| 25> C 	 -94.5279 	 41.8756 	 112.254
| 26> C 	 -93.6005 	 41.8151 	 113.32
| 27> C 	 -92.3069 	 42.012 	 112.94
| 28> H 	 -95.6055 	 41.8463 	 112.301
| 29> C 	 -94.0821 	 41.5938 	 114.725
| 30> H 	 -93.3114 	 42.0138 	 115.384
| 31> H 	 -94.2767 	 40.5698 	 114.907
| 32> C 	 -95.4773 	 42.1928 	 114.981
| 33> H 	 -96.1943 	 41.6896 	 114.321
| 34> H 	 -95.5084 	 43.1849 	 114.564
| 35> C 	 -95.853 	 42.2107 	 116.439
| 36> H 	 -95.56 	 43.1259 	 116.925
| 37> H 	 -95.4736 	 41.3643 	 117.037
| 38> H 	 -96.9202 	 42.0893 	 116.566
| 39> H 	 -87.8385 	 41.5061 	 114.984
| 40> H 	 -94.5034 	 42.1991 	 110.138
| 41> *
| 42>
| 43>                          ****END OF INPUT****

CARTESIAN COORDINATES (ANGSTROEM)
---------------------------------
  S    -89.734700   41.198800  113.293000
  C    -88.875100   41.717100  114.749000
  C    -89.615200   42.537800  115.536000
  C    -90.899800   42.712700  114.981000
  C    -91.119900   42.090900  113.762000
  H    -91.640300   43.419100  115.307000
  C    -89.207000   43.313200  116.762000
  H    -89.968400   44.025200  116.987000
  H    -88.335700   43.839500  116.443000
  C    -89.079800   42.448100  118.055000
  H    -88.281300   41.691600  118.073000
  H    -88.820100   43.236300  118.717000
  C    -90.345900   41.705000  118.474000
  H    -90.657300   40.893300  117.798000
  H    -90.107200   41.440600  119.498000
  H    -91.192000   42.278700  118.591000
  S    -92.208300   42.334800  111.235000
  C    -93.924100   42.005000  111.042000
  C    -94.527900   41.875600  112.254000
  C    -93.600500   41.815100  113.320000
  C    -92.306900   42.012000  112.940000
  H    -95.605500   41.846300  112.301000
  C    -94.082100   41.593800  114.725000
  H    -93.311400   42.013800  115.384000
  H    -94.276700   40.569800  114.907000
  C    -95.477300   42.192800  114.981000
  H    -96.194300   41.689600  114.321000
  H    -95.508400   43.184900  114.564000
  C    -95.853000   42.210700  116.439000
  H    -95.560000   43.125900  116.925000
  H    -95.473600   41.364300  117.037000
  H    -96.920200   42.089300  116.566000
  H    -87.838500   41.506100  114.984000
  H    -94.503400   42.199100  110.138000

 Total Charge           Charge          ....    0
 Multiplicity           Mult            ....    1
 Number of Electrons    NEL             ....  134
 Basis Dimension        Dim             ....  322

ORBITAL ENERGIES
----------------

  NO   OCC          E(Eh)            E(eV)
   0   2.0000     -88.964562     -2420.8488
   1   2.0000     -88.963778     -2420.8275
   2   2.0000     -10.323306      -280.9114
   3   2.0000     -10.320344      -280.8308
   4   2.0000     -10.314600      -280.6745
   5   2.0000     -10.308162      -280.4993
   6   2.0000     -10.294641      -280.1314
   7   2.0000     -10.292933      -280.0849
   8   2.0000     -10.288645      -279.9683
   9   2.0000     -10.288634      -279.9680
  10   2.0000     -10.287771      -279.9445
  11   2.0000     -10.286755      -279.9168
  12   2.0000     -10.283191      -279.8199
  13   2.0000     -10.282212      -279.7932
  14   2.0000     -10.276524      -279.6384
  15   2.0000     -10.271346      -279.4975
  16   2.0000      -8.079671      -219.8590
  17   2.0000      -8.078781      -219.8348
  18   2.0000      -6.038145      -164.3063
  19   2.0000      -6.037301      -164.2833
  20   2.0000      -6.034058      -164.1951
  21   2.0000      -6.033360      -164.1761
  22   2.0000      -6.030510      -164.0985
  23   2.0000      -6.029396      -164.0682
  24   2.0000      -1.013000       -27.5651
  25   2.0000      -0.989386       -26.9226
  26   2.0000      -0.915973       -24.9249
  27   2.0000      -0.913084       -24.8463
  28   2.0000      -0.873496       -23.7690
  29   2.0000      -0.853802       -23.2331
  30   2.0000      -0.846335       -23.0300
  31   2.0000      -0.815184       -22.1823
  32   2.0000      -0.790096       -21.4996
  33   2.0000      -0.775644       -21.1063
  34   2.0000      -0.709683       -19.3115
  35   2.0000      -0.706098       -19.2139
  36   2.0000      -0.701011       -19.0755
  37   2.0000      -0.656499       -17.8642
  38   2.0000      -0.638609       -17.3774
  39   2.0000      -0.615650       -16.7527
  40   2.0000      -0.599059       -16.3012
  41   2.0000      -0.580263       -15.7897
  42   2.0000      -0.572199       -15.5703
  43   2.0000      -0.555193       -15.1076
  44   2.0000      -0.546795       -14.8790
  45   2.0000      -0.523657       -14.2494
  46   2.0000      -0.514962       -14.0128
  47   2.0000      -0.510637       -13.8951
  48   2.0000      -0.508807       -13.8453
  49   2.0000      -0.496918       -13.5218
  50   2.0000      -0.490893       -13.3579
  51   2.0000      -0.484117       -13.1735
  52   2.0000      -0.475898       -12.9499
  53   2.0000      -0.470682       -12.8079
  54   2.0000      -0.464701       -12.6452
  55   2.0000      -0.451406       -12.2834
  56   2.0000      -0.438692       -11.9374
  57   2.0000      -0.436516       -11.8782
  58   2.0000      -0.428621       -11.6634
  59   2.0000      -0.426355       -11.6017
  60   2.0000      -0.419363       -11.4115
  61   2.0000      -0.417428       -11.3588
  62   2.0000      -0.414962       -11.2917
  63   2.0000      -0.347915        -9.4673
  64   2.0000      -0.332831        -9.0568
  65   2.0000      -0.329619        -8.9694
  66   2.0000      -0.290566        -7.9067
  67   0.0000       0.031584         0.8594
  68   0.0000       0.075715         2.0603
  69   0.0000       0.110306         3.0016
  70   0.0000       0.126801         3.4504
  71   0.0000       0.132512         3.6058

MULLIKEN ATOMIC CHARGES
-----------------------
   0 S :    0.117745
   1 C :   -0.130750
   2 C :   -0.084947
   3 C :    0.011176
   4 C :   -0.177272
   5 H :    0.012979
   6 C :    0.099267
   7 H :    0.009484
   8 H :    0.032482
   9 C :   -0.072549
  10 H :    0.035008
  11 H :    0.023683
  12 C :   -0.024966
  13 H :    0.056717
  14 H :    0.029157
  15 H :   -0.000141
  16 S :    0.104269
  17 C :   -0.081990
  18 C :   -0.053745
  19 C :   -0.053786
  20 C :   -0.136933
  21 H :    0.019228
  22 C :    0.138282
  23 H :    0.012257
  24 H :    0.026718
  25 C :   -0.135056
  26 H :    0.029518
  27 H :    0.020420
  28 C :   -0.006109
  29 H :    0.035165
  30 H :    0.027743
  31 H :    0.022385
  32 H :    0.035623
  33 H :    0.058940
Sum of atomic charges:   -0.0000000

LOEWDIN ATOMIC CHARGES
----------------------
   0 S :    0.419914
   1 C :   -0.196046
   2 C :   -0.065279
   3 C :   -0.072956
   4 C :   -0.199957
   5 H :    0.026349
   6 C :   -0.023094
   7 H :    0.027173
   8 H :    0.031540
   9 C :   -0.032279
  10 H :    0.025237
  11 H :    0.021259
  12 C :   -0.062120
  13 H :    0.034991
  14 H :    0.032841
  15 H :    0.010357
  16 S :    0.402831
  17 C :   -0.180957
  18 C :   -0.071473
  19 C :   -0.057817
  20 C :   -0.208673
  21 H :    0.031812
  22 C :   -0.024675
  23 H :    0.028788
  24 H :    0.030416
  25 C :   -0.045153
  26 H :    0.020626
  27 H :    0.020259
  28 C :   -0.065097
  29 H :    0.026643
  30 H :    0.028554
  31 H :    0.027209
  32 H :    0.025956
  33 H :    0.032818

  Mayer bond orders larger than 0.100000
B(  0-S ,  1-C ) :   1.1319 B(  0-S ,  4-C ) :   1.1714 B(  1-C ,  2-C ) :   1.6237
B(  1-C ,  4-C ) :   0.1040 B(  1-C , 32-H ) :   0.9666 B(  2-C ,  3-C ) :   1.2523
B(  2-C ,  6-C ) :   1.0069 B(  3-C ,  4-C ) :   1.5774 B(  3-C ,  5-H ) :   0.9820
B(  4-C , 20-C ) :   1.0231 B(  6-C ,  7-H ) :   0.9402 B(  6-C ,  8-H ) :   0.9385
B(  6-C ,  9-C ) :   1.0636 B(  9-C , 10-H ) :   0.9611 B(  9-C , 11-H ) :   0.9594
B(  9-C , 12-C ) :   1.0747 B( 12-C , 13-H ) :   0.9721 B( 12-C , 14-H ) :   0.9701
B( 12-C , 15-H ) :   0.9734 B( 16-S , 17-C ) :   1.1475 B( 16-S , 20-C ) :   1.1361
B( 17-C , 18-C ) :   1.6238 B( 17-C , 33-H ) :   0.9594 B( 18-C , 19-C ) :   1.2331
B( 18-C , 21-H ) :   0.9897 B( 19-C , 20-C ) :   1.6146 B( 19-C , 22-C ) :   1.0448
B( 22-C , 23-H ) :   0.9343 B( 22-C , 24-H ) :   0.9109 B( 22-C , 25-C ) :   1.0714
B( 25-C , 26-H ) :   0.9453 B( 25-C , 27-H ) :   0.9612 B( 25-C , 28-C ) :   1.0794
B( 28-C , 29-H ) :   0.9742 B( 28-C , 30-H ) :   0.9715 B( 28-C , 31-H ) :   0.9707

Dispersion correction           -0.014165353
FINAL SINGLE POINT ENERGY     -1339.875430973336

DIPOLE MOMENT
-------------
                                X             Y             Z
Electronic contribution:     10.51884      -2.74385     -29.02800
Nuclear contribution   :    -10.88594       3.06009      29.68526
                        -----------------------------------------
Total Dipole Moment    :     -0.36710       0.31623       0.65726
                        -----------------------------------------
Magnitude (a.u.)       :      0.81656
Magnitude (Debye)      :      2.07552

Rotational constants in cm-1:     0.017340     0.009821     0.006644
Rotational constants in MHz :   519.845088   294.411533   199.187697

                             ****ORCA TERMINATED NORMALLY****
TOTAL RUN TIME: 0 days 0 hours 0 minutes 35 seconds 90 msec
