                         Program Version 4.2.1 -  RELEASE  -
|  1> ! wB97X-D3 SP def2-SVP
|  2> %pal
|  3> nprocs 16
|  4> end
|  5>
|  6> * xyz 0 1
|  7> S 	 -18.6728 	 -6.0703 	 86.3685
|  8> C 	 -18.7154 	 -4.63245 	 85.3706
|  9> C 	 -18.0294 	 -3.59059 	 85.9898
| 10> C 	 -17.4522 	 -3.95431 	 87.2492
| 11> C 	 -17.7196 	 -5.23906 	 87.654
| 12> H 	 -16.8671 	 -3.28882 	 87.8144
| 13> C 	 -17.8498 	 -2.17488 	 85.4521
| 14> H 	 -17.1858 	 -1.61469 	 86.1098
| 15> H 	 -18.813 	 -1.65165 	 85.4525
| 16> C 	 -17.1971 	 -2.10562 	 84.025
| 17> H 	 -16.1978 	 -2.47073 	 84.1621
| 18> H 	 -17.6854 	 -2.83023 	 83.3791
| 19> C 	 -17.4116 	 -0.735428 	 83.3384
| 20> H 	 -18.3839 	 -0.626483 	 82.9537
| 21> H 	 -17.1191 	 0.0695124 	 83.9373
| 22> H 	 -16.8289 	 -0.621598 	 82.4403
| 23> S 	 -15.5479 	 -6.46011 	 88.9413
| 24> C 	 -15.8529 	 -7.1721 	 90.4593
| 25> C 	 -17.1085 	 -6.88438 	 90.9542
| 26> C 	 -17.8871 	 -6.01722 	 90.0392
| 27> C 	 -17.2221 	 -5.87291 	 88.8528
| 28> H 	 -17.5109 	 -7.2425 	 91.8757
| 29> C 	 -19.3001 	 -5.58421 	 90.2481
| 30> H 	 -19.691 	 -6.26268 	 90.9742
| 31> H 	 -19.8295 	 -5.62529 	 89.2421
| 32> C 	 -19.521 	 -4.19197 	 90.8754
| 33> H 	 -19.2359 	 -3.43075 	 90.1187
| 34> H 	 -18.8514 	 -4.08347 	 91.6702
| 35> C 	 -20.9897 	 -4.00523 	 91.4529
| 36> H 	 -21.1023 	 -3.11475 	 92.0635
| 37> H 	 -21.2165 	 -4.84471 	 92.076
| 38> H 	 -21.8306 	 -4.11577 	 90.6651
| 39> H 	 -19.1632 	 -4.50319 	 84.4001
| 40> H 	 -15.199 	 -7.89393 	 90.9752
| 41> *
| 42>
| 43>                          ****END OF INPUT****

CARTESIAN COORDINATES (ANGSTROEM)
---------------------------------
  S    -18.672800   -6.070300   86.368500
  C    -18.715400   -4.632450   85.370600
  C    -18.029400   -3.590590   85.989800
  C    -17.452200   -3.954310   87.249200
  C    -17.719600   -5.239060   87.654000
  H    -16.867100   -3.288820   87.814400
  C    -17.849800   -2.174880   85.452100
  H    -17.185800   -1.614690   86.109800
  H    -18.813000   -1.651650   85.452500
  C    -17.197100   -2.105620   84.025000
  H    -16.197800   -2.470730   84.162100
  H    -17.685400   -2.830230   83.379100
  C    -17.411600   -0.735428   83.338400
  H    -18.383900   -0.626483   82.953700
  H    -17.119100    0.069512   83.937300
  H    -16.828900   -0.621598   82.440300
  S    -15.547900   -6.460110   88.941300
  C    -15.852900   -7.172100   90.459300
  C    -17.108500   -6.884380   90.954200
  C    -17.887100   -6.017220   90.039200
  C    -17.222100   -5.872910   88.852800
  H    -17.510900   -7.242500   91.875700
  C    -19.300100   -5.584210   90.248100
  H    -19.691000   -6.262680   90.974200
  H    -19.829500   -5.625290   89.242100
  C    -19.521000   -4.191970   90.875400
  H    -19.235900   -3.430750   90.118700
  H    -18.851400   -4.083470   91.670200
  C    -20.989700   -4.005230   91.452900
  H    -21.102300   -3.114750   92.063500
  H    -21.216500   -4.844710   92.076000
  H    -21.830600   -4.115770   90.665100
  H    -19.163200   -4.503190   84.400100
  H    -15.199000   -7.893930   90.975200

 Total Charge           Charge          ....    0
 Multiplicity           Mult            ....    1
 Number of Electrons    NEL             ....  134
 Basis Dimension        Dim             ....  322

ORBITAL ENERGIES
----------------

  NO   OCC          E(Eh)            E(eV)
   0   2.0000     -88.968534     -2420.9569
   1   2.0000     -88.965067     -2420.8625
   2   2.0000     -10.329078      -281.0685
   3   2.0000     -10.320598      -280.8378
   4   2.0000     -10.317537      -280.7545
   5   2.0000     -10.316089      -280.7151
   6   2.0000     -10.302565      -280.3470
   7   2.0000     -10.299998      -280.2772
   8   2.0000     -10.295673      -280.1595
   9   2.0000     -10.292787      -280.0810
  10   2.0000     -10.290539      -280.0198
  11   2.0000     -10.289612      -279.9946
  12   2.0000     -10.286933      -279.9217
  13   2.0000     -10.285609      -279.8856
  14   2.0000     -10.284685      -279.8605
  15   2.0000     -10.270683      -279.4795
  16   2.0000      -8.081881      -219.9192
  17   2.0000      -8.080311      -219.8764
  18   2.0000      -6.040559      -164.3720
  19   2.0000      -6.038838      -164.3251
  20   2.0000      -6.036468      -164.2607
  21   2.0000      -6.034841      -164.2164
  22   2.0000      -6.032644      -164.1566
  23   2.0000      -6.030934      -164.1101
  24   2.0000      -1.003648       -27.3107
  25   2.0000      -0.980819       -26.6895
  26   2.0000      -0.908081       -24.7101
  27   2.0000      -0.904023       -24.5997
  28   2.0000      -0.869007       -23.6469
  29   2.0000      -0.848718       -23.0948
  30   2.0000      -0.845336       -23.0028
  31   2.0000      -0.812575       -22.1113
  32   2.0000      -0.781502       -21.2658
  33   2.0000      -0.769501       -20.9392
  34   2.0000      -0.710559       -19.3353
  35   2.0000      -0.704688       -19.1755
  36   2.0000      -0.692758       -18.8509
  37   2.0000      -0.662117       -18.0171
  38   2.0000      -0.642366       -17.4797
  39   2.0000      -0.614710       -16.7271
  40   2.0000      -0.592784       -16.1305
  41   2.0000      -0.573240       -15.5987
  42   2.0000      -0.565279       -15.3820
  43   2.0000      -0.556775       -15.1506
  44   2.0000      -0.521382       -14.1875
  45   2.0000      -0.518729       -14.1153
  46   2.0000      -0.516041       -14.0422
  47   2.0000      -0.511040       -13.9061
  48   2.0000      -0.502945       -13.6858
  49   2.0000      -0.501143       -13.6368
  50   2.0000      -0.496392       -13.5075
  51   2.0000      -0.479446       -13.0464
  52   2.0000      -0.470254       -12.7963
  53   2.0000      -0.463076       -12.6009
  54   2.0000      -0.455084       -12.3835
  55   2.0000      -0.451850       -12.2955
  56   2.0000      -0.445837       -12.1318
  57   2.0000      -0.435390       -11.8476
  58   2.0000      -0.433572       -11.7981
  59   2.0000      -0.423405       -11.5214
  60   2.0000      -0.421541       -11.4707
  61   2.0000      -0.420038       -11.4298
  62   2.0000      -0.418655       -11.3922
  63   2.0000      -0.336618        -9.1598
  64   2.0000      -0.326565        -8.8863
  65   2.0000      -0.322903        -8.7866
  66   2.0000      -0.307702        -8.3730
  67   0.0000       0.044181         1.2022
  68   0.0000       0.049509         1.3472
  69   0.0000       0.113824         3.0973
  70   0.0000       0.117235         3.1901
  71   0.0000       0.126034         3.4296

MULLIKEN ATOMIC CHARGES
-----------------------
   0 S :    0.115418
   1 C :   -0.118261
   2 C :   -0.093616
   3 C :    0.063913
   4 C :   -0.179849
   5 H :   -0.005458
   6 C :    0.058291
   7 H :    0.019038
   8 H :    0.038575
   9 C :   -0.088716
  10 H :    0.031876
  11 H :    0.021028
  12 C :   -0.002534
  13 H :    0.022089
  14 H :    0.021384
  15 H :    0.020249
  16 S :    0.125498
  17 C :   -0.087433
  18 C :   -0.022432
  19 C :   -0.025770
  20 C :   -0.189523
  21 H :    0.007252
  22 C :    0.064400
  23 H :    0.002755
  24 H :    0.049871
  25 C :   -0.051575
  26 H :    0.036708
  27 H :    0.012502
  28 C :   -0.062556
  29 H :    0.044933
  30 H :    0.016336
  31 H :    0.041356
  32 H :    0.046291
  33 H :    0.067961
Sum of atomic charges:   -0.0000000

LOEWDIN ATOMIC CHARGES
----------------------
   0 S :    0.391048
   1 C :   -0.195817
   2 C :   -0.065693
   3 C :   -0.049885
   4 C :   -0.182557
   5 H :    0.024202
   6 C :   -0.030961
   7 H :    0.026489
   8 H :    0.032031
   9 C :   -0.033805
  10 H :    0.022886
  11 H :    0.019293
  12 C :   -0.058661
  13 H :    0.022620
  14 H :    0.017404
  15 H :    0.028022
  16 S :    0.409965
  17 C :   -0.199511
  18 C :   -0.069550
  19 C :   -0.044285
  20 C :   -0.201880
  21 H :    0.024315
  22 C :   -0.034792
  23 H :    0.024082
  24 H :    0.040219
  25 C :   -0.031873
  26 H :    0.026868
  27 H :    0.014220
  28 C :   -0.071534
  29 H :    0.026671
  30 H :    0.018331
  31 H :    0.035422
  32 H :    0.029027
  33 H :    0.037687

  Mayer bond orders larger than 0.100000
B(  0-S ,  1-C ) :   1.1392 B(  0-S ,  4-C ) :   1.1257 B(  1-C ,  2-C ) :   1.6072
B(  1-C , 32-H ) :   0.9679 B(  2-C ,  3-C ) :   1.2484 B(  2-C ,  6-C ) :   1.0177
B(  3-C ,  4-C ) :   1.5874 B(  3-C ,  5-H ) :   0.9996 B(  4-C , 20-C ) :   1.0401
B(  6-C ,  7-H ) :   0.9456 B(  6-C ,  8-H ) :   0.9419 B(  6-C ,  9-C ) :   1.0505
B(  9-C , 10-H ) :   0.9614 B(  9-C , 11-H ) :   0.9636 B(  9-C , 12-C ) :   1.0763
B( 12-C , 13-H ) :   0.9734 B( 12-C , 14-H ) :   0.9767 B( 12-C , 15-H ) :   0.9702
B( 16-S , 17-C ) :   1.1540 B( 16-S , 20-C ) :   1.1205 B( 17-C , 18-C ) :   1.6309
B( 17-C , 33-H ) :   0.9606 B( 18-C , 19-C ) :   1.2088 B( 18-C , 21-H ) :   0.9904
B( 19-C , 20-C ) :   1.6277 B( 19-C , 22-C ) :   1.0595 B( 22-C , 23-H ) :   0.9272
B( 22-C , 24-H ) :   0.9236 B( 22-C , 25-C ) :   1.0682 B( 25-C , 26-H ) :   0.9538
B( 25-C , 27-H ) :   0.9550 B( 25-C , 28-C ) :   1.0716 B( 28-C , 29-H ) :   0.9776
B( 28-C , 30-H ) :   0.9733 B( 28-C , 31-H ) :   0.9757

Dispersion correction           -0.014012050
FINAL SINGLE POINT ENERGY     -1339.879908335115

DIPOLE MOMENT
-------------
                                X             Y             Z
Electronic contribution:     11.12804     -21.29089       1.78763
Nuclear contribution   :    -11.26073      21.69632      -1.67335
                        -----------------------------------------
Total Dipole Moment    :     -0.13269       0.40543       0.11428
                        -----------------------------------------
Magnitude (a.u.)       :      0.44163
Magnitude (Debye)      :      1.12254

Rotational constants in cm-1:     0.018989     0.007557     0.006386
Rotational constants in MHz :   569.285738   226.546573   191.451487

                             ****ORCA TERMINATED NORMALLY****
TOTAL RUN TIME: 0 days 0 hours 0 minutes 31 seconds 667 msec
