                         Program Version 4.2.1 -  RELEASE  -
|  1> ! wB97X-D3 SP def2-SVP
|  2> %pal
|  3> nprocs 16
|  4> end
|  5>
|  6> * xyz 0 1
|  7> S 	 -2.31587 	 -15.6796 	 85.2081
|  8> C 	 -3.72225 	 -16.6524 	 85.1997
|  9> C 	 -3.46361 	 -17.8604 	 84.5692
| 10> C 	 -2.15951 	 -17.8835 	 84.0102
| 11> C 	 -1.35989 	 -16.8663 	 84.2859
| 12> H 	 -1.88445 	 -18.6994 	 83.3506
| 13> C 	 -4.49664 	 -18.974 	 84.6201
| 14> H 	 -5.05083 	 -18.763 	 85.5702
| 15> H 	 -3.94301 	 -19.8883 	 84.8493
| 16> C 	 -5.47123 	 -19.1733 	 83.4409
| 17> H 	 -6.26277 	 -19.8875 	 83.6277
| 18> H 	 -5.98948 	 -18.2572 	 83.1746
| 19> C 	 -4.62146 	 -19.7176 	 82.1813
| 20> H 	 -5.19118 	 -20.0463 	 81.2598
| 21> H 	 -3.93476 	 -19.0592 	 81.8025
| 22> H 	 -3.96085 	 -20.5641 	 82.582
| 23> S 	 1.14828 	 -16.6576 	 85.4183
| 24> C 	 2.57561 	 -16.5156 	 84.4682
| 25> C 	 2.21233 	 -16.6913 	 83.1341
| 26> C 	 0.825777 	 -16.881 	 82.8908
| 27> C 	 0.079348 	 -16.7301 	 84.0181
| 28> H 	 2.97607 	 -16.5692 	 82.3317
| 29> C 	 0.31172 	 -17.0377 	 81.5004
| 30> H 	 0.855953 	 -16.2782 	 81.0238
| 31> H 	 -0.738624 	 -16.849 	 81.4663
| 32> C 	 0.731807 	 -18.2938 	 80.7536
| 33> H 	 1.79135 	 -18.1621 	 80.5493
| 34> H 	 0.283251 	 -18.3508 	 79.7231
| 35> C 	 0.432834 	 -19.6362 	 81.4686
| 36> H 	 0.571521 	 -19.7083 	 82.453
| 37> H 	 1.03678 	 -20.4442 	 81.0847
| 38> H 	 -0.593456 	 -19.9051 	 81.2051
| 39> H 	 -4.66038 	 -16.4133 	 85.5818
| 40> H 	 3.64536 	 -16.4882 	 84.7417
| 41> *
| 42>
| 43>                          ****END OF INPUT****

CARTESIAN COORDINATES (ANGSTROEM)
---------------------------------
  S     -2.315870  -15.679600   85.208100
  C     -3.722250  -16.652400   85.199700
  C     -3.463610  -17.860400   84.569200
  C     -2.159510  -17.883500   84.010200
  C     -1.359890  -16.866300   84.285900
  H     -1.884450  -18.699400   83.350600
  C     -4.496640  -18.974000   84.620100
  H     -5.050830  -18.763000   85.570200
  H     -3.943010  -19.888300   84.849300
  C     -5.471230  -19.173300   83.440900
  H     -6.262770  -19.887500   83.627700
  H     -5.989480  -18.257200   83.174600
  C     -4.621460  -19.717600   82.181300
  H     -5.191180  -20.046300   81.259800
  H     -3.934760  -19.059200   81.802500
  H     -3.960850  -20.564100   82.582000
  S      1.148280  -16.657600   85.418300
  C      2.575610  -16.515600   84.468200
  C      2.212330  -16.691300   83.134100
  C      0.825777  -16.881000   82.890800
  C      0.079348  -16.730100   84.018100
  H      2.976070  -16.569200   82.331700
  C      0.311720  -17.037700   81.500400
  H      0.855953  -16.278200   81.023800
  H     -0.738624  -16.849000   81.466300
  C      0.731807  -18.293800   80.753600
  H      1.791350  -18.162100   80.549300
  H      0.283251  -18.350800   79.723100
  C      0.432834  -19.636200   81.468600
  H      0.571521  -19.708300   82.453000
  H      1.036780  -20.444200   81.084700
  H     -0.593456  -19.905100   81.205100
  H     -4.660380  -16.413300   85.581800
  H      3.645360  -16.488200   84.741700

 Total Charge           Charge          ....    0
 Multiplicity           Mult            ....    1
 Number of Electrons    NEL             ....  134
 Basis Dimension        Dim             ....  322

ORBITAL ENERGIES
----------------

  NO   OCC          E(Eh)            E(eV)
   0   2.0000     -88.963697     -2420.8253
   1   2.0000     -88.963505     -2420.8201
   2   2.0000     -10.327540      -281.0266
   3   2.0000     -10.326044      -280.9860
   4   2.0000     -10.319051      -280.7956
   5   2.0000     -10.308876      -280.5188
   6   2.0000     -10.298656      -280.2407
   7   2.0000     -10.298065      -280.2246
   8   2.0000     -10.297540      -280.2103
   9   2.0000     -10.295697      -280.1602
  10   2.0000     -10.293947      -280.1125
  11   2.0000     -10.290846      -280.0282
  12   2.0000     -10.288862      -279.9742
  13   2.0000     -10.284949      -279.8677
  14   2.0000     -10.281251      -279.7671
  15   2.0000     -10.266781      -279.3733
  16   2.0000      -8.078680      -219.8321
  17   2.0000      -8.078582      -219.8294
  18   2.0000      -6.037283      -164.2828
  19   2.0000      -6.037092      -164.2776
  20   2.0000      -6.033064      -164.1680
  21   2.0000      -6.032961      -164.1652
  22   2.0000      -6.029382      -164.0678
  23   2.0000      -6.029372      -164.0675
  24   2.0000      -1.012421       -27.5494
  25   2.0000      -0.992139       -26.9975
  26   2.0000      -0.915112       -24.9015
  27   2.0000      -0.905739       -24.6464
  28   2.0000      -0.871696       -23.7201
  29   2.0000      -0.849741       -23.1226
  30   2.0000      -0.842718       -22.9315
  31   2.0000      -0.818650       -22.2766
  32   2.0000      -0.790697       -21.5160
  33   2.0000      -0.772460       -21.0197
  34   2.0000      -0.712578       -19.3902
  35   2.0000      -0.707683       -19.2570
  36   2.0000      -0.698837       -19.0163
  37   2.0000      -0.660447       -17.9717
  38   2.0000      -0.645091       -17.5538
  39   2.0000      -0.621999       -16.9255
  40   2.0000      -0.592082       -16.1114
  41   2.0000      -0.573053       -15.5936
  42   2.0000      -0.557170       -15.1614
  43   2.0000      -0.551174       -14.9982
  44   2.0000      -0.542862       -14.7720
  45   2.0000      -0.540569       -14.7096
  46   2.0000      -0.519251       -14.1295
  47   2.0000      -0.511895       -13.9294
  48   2.0000      -0.507501       -13.8098
  49   2.0000      -0.496965       -13.5231
  50   2.0000      -0.493114       -13.4183
  51   2.0000      -0.476298       -12.9607
  52   2.0000      -0.475641       -12.9429
  53   2.0000      -0.468528       -12.7493
  54   2.0000      -0.459892       -12.5143
  55   2.0000      -0.448116       -12.1939
  56   2.0000      -0.442985       -12.0542
  57   2.0000      -0.436981       -11.8909
  58   2.0000      -0.433349       -11.7920
  59   2.0000      -0.423584       -11.5263
  60   2.0000      -0.418600       -11.3907
  61   2.0000      -0.416387       -11.3305
  62   2.0000      -0.414978       -11.2921
  63   2.0000      -0.351143        -9.5551
  64   2.0000      -0.329848        -8.9756
  65   2.0000      -0.325473        -8.8566
  66   2.0000      -0.299091        -8.1387
  67   0.0000       0.037012         1.0071
  68   0.0000       0.066705         1.8151
  69   0.0000       0.116520         3.1707
  70   0.0000       0.121857         3.3159
  71   0.0000       0.129193         3.5155

MULLIKEN ATOMIC CHARGES
-----------------------
   0 S :    0.111500
   1 C :   -0.080502
   2 C :   -0.123121
   3 C :    0.051416
   4 C :   -0.152447
   5 H :   -0.005563
   6 C :    0.028120
   7 H :    0.029534
   8 H :    0.032924
   9 C :   -0.013226
  10 H :    0.037332
  11 H :    0.028712
  12 C :   -0.097985
  13 H :    0.047016
  14 H :    0.020700
  15 H :    0.031658
  16 S :    0.109422
  17 C :   -0.087965
  18 C :   -0.081266
  19 C :   -0.037002
  20 C :   -0.157720
  21 H :    0.029768
  22 C :    0.136509
  23 H :    0.012734
  24 H :    0.020137
  25 C :   -0.103964
  26 H :    0.019983
  27 H :    0.038563
  28 C :   -0.006390
  29 H :    0.017786
  30 H :    0.021199
  31 H :    0.027214
  32 H :    0.024112
  33 H :    0.070813
Sum of atomic charges:   -0.0000000

LOEWDIN ATOMIC CHARGES
----------------------
   0 S :    0.408191
   1 C :   -0.188752
   2 C :   -0.070119
   3 C :   -0.061794
   4 C :   -0.190352
   5 H :    0.031153
   6 C :   -0.035961
   7 H :    0.036550
   8 H :    0.031718
   9 C :   -0.031687
  10 H :    0.025491
  11 H :    0.023203
  12 C :   -0.074587
  13 H :    0.032954
  14 H :    0.007258
  15 H :    0.030265
  16 S :    0.415843
  17 C :   -0.202834
  18 C :   -0.082116
  19 C :   -0.057882
  20 C :   -0.192991
  21 H :    0.033208
  22 C :   -0.025291
  23 H :    0.032216
  24 H :    0.025934
  25 C :   -0.037254
  26 H :    0.018632
  27 H :    0.033277
  28 C :   -0.059053
  29 H :    0.006375
  30 H :    0.029574
  31 H :    0.027132
  32 H :    0.018004
  33 H :    0.043694

  Mayer bond orders larger than 0.100000
B(  0-S ,  1-C ) :   1.1578 B(  0-S ,  4-C ) :   1.1347 B(  1-C ,  2-C ) :   1.6036
B(  1-C , 32-H ) :   0.9736 B(  2-C ,  3-C ) :   1.2587 B(  2-C ,  6-C ) :   1.0067
B(  3-C ,  4-C ) :   1.5896 B(  3-C ,  5-H ) :   0.9973 B(  4-C , 20-C ) :   1.0060
B(  6-C ,  7-H ) :   0.9427 B(  6-C ,  8-H ) :   0.9459 B(  6-C ,  9-C ) :   1.0655
B(  9-C , 10-H ) :   0.9595 B(  9-C , 11-H ) :   0.9575 B(  9-C , 12-C ) :   1.0525
B( 12-C , 13-H ) :   0.9751 B( 12-C , 14-H ) :   0.9795 B( 12-C , 15-H ) :   0.9767
B( 16-S , 17-C ) :   1.1596 B( 16-S , 20-C ) :   1.1438 B( 17-C , 18-C ) :   1.6029
B( 17-C , 20-C ) :   0.1001 B( 17-C , 33-H ) :   0.9639 B( 18-C , 19-C ) :   1.2403
B( 18-C , 21-H ) :   0.9792 B( 19-C , 20-C ) :   1.6031 B( 19-C , 22-C ) :   1.0431
B( 22-C , 23-H ) :   0.9256 B( 22-C , 24-H ) :   0.9357 B( 22-C , 25-C ) :   1.0736
B( 25-C , 26-H ) :   0.9578 B( 25-C , 27-H ) :   0.9572 B( 25-C , 28-C ) :   1.0749
B( 28-C , 29-H ) :   0.9752 B( 28-C , 30-H ) :   0.9690 B( 28-C , 31-H ) :   0.9732

Dispersion correction           -0.015336131
FINAL SINGLE POINT ENERGY     -1339.862516887466

DIPOLE MOMENT
-------------
                                X             Y             Z
Electronic contribution:      9.74522      19.04142      19.89258
Nuclear contribution   :     -9.84651     -19.48404     -20.40260
                        -----------------------------------------
Total Dipole Moment    :     -0.10129      -0.44262      -0.51002
                        -----------------------------------------
Magnitude (a.u.)       :      0.68286
Magnitude (Debye)      :      1.73568

Rotational constants in cm-1:     0.018869     0.009738     0.007078
Rotational constants in MHz :   565.664406   291.943117   212.190862

                             ****ORCA TERMINATED NORMALLY****
TOTAL RUN TIME: 0 days 0 hours 0 minutes 33 seconds 294 msec
