                         Program Version 4.2.1 -  RELEASE  -
|  1> ! wB97X-D3 SP def2-SVP
|  2> %pal
|  3> nprocs 16
|  4> end
|  5>
|  6> * xyz 0 1
|  7> S 	 5.81917 	 25.6395 	 66.1017
|  8> C 	 5.86525 	 25.4829 	 64.3246
|  9> C 	 6.79605 	 26.3578 	 63.779
| 10> C 	 7.35753 	 27.2592 	 64.7939
| 11> C 	 7.01036 	 26.9732 	 66.0952
| 12> H 	 8.12432 	 28.023 	 64.6436
| 13> C 	 7.10923 	 26.4599 	 62.2845
| 14> H 	 7.38522 	 27.5709 	 62.2883
| 15> H 	 6.30454 	 26.3497 	 61.5593
| 16> C 	 8.28708 	 25.6352 	 61.8207
| 17> H 	 8.46797 	 25.7168 	 60.7882
| 18> H 	 9.19334 	 26.102 	 62.3782
| 19> C 	 8.13362 	 24.1388 	 62.1706
| 20> H 	 8.73332 	 23.4737 	 61.593
| 21> H 	 8.46464 	 24.0188 	 63.1761
| 22> H 	 7.11196 	 23.7408 	 62.1162
| 23> S 	 7.83267 	 26.5177 	 68.7176
| 24> C 	 8.7761 	 27.7239 	 69.4813
| 25> C 	 8.69866 	 28.9435 	 68.8464
| 26> C 	 8.05195 	 28.8602 	 67.5626
| 27> C 	 7.56904 	 27.5837 	 67.3264
| 28> H 	 9.08473 	 29.8245 	 69.3295
| 29> C 	 7.75882 	 30.1434 	 66.8022
| 30> H 	 7.54639 	 30.8481 	 67.5838
| 31> H 	 6.78753 	 29.9589 	 66.3257
| 32> C 	 8.76785 	 30.7874 	 65.8485
| 33> H 	 9.03578 	 29.9913 	 65.1531
| 34> H 	 9.72179 	 30.9888 	 66.4257
| 35> C 	 8.37073 	 32.1116 	 65.2482
| 36> H 	 7.36163 	 32.1407 	 64.843
| 37> H 	 9.15212 	 32.4993 	 64.5851
| 38> H 	 8.36297 	 32.8855 	 66.0527
| 39> H 	 5.2817 	 24.7539 	 63.7932
| 40> H 	 9.07965 	 27.6614 	 70.5283
| 41> *
| 42>
| 43>                          ****END OF INPUT****

CARTESIAN COORDINATES (ANGSTROEM)
---------------------------------
  S      5.819170   25.639500   66.101700
  C      5.865250   25.482900   64.324600
  C      6.796050   26.357800   63.779000
  C      7.357530   27.259200   64.793900
  C      7.010360   26.973200   66.095200
  H      8.124320   28.023000   64.643600
  C      7.109230   26.459900   62.284500
  H      7.385220   27.570900   62.288300
  H      6.304540   26.349700   61.559300
  C      8.287080   25.635200   61.820700
  H      8.467970   25.716800   60.788200
  H      9.193340   26.102000   62.378200
  C      8.133620   24.138800   62.170600
  H      8.733320   23.473700   61.593000
  H      8.464640   24.018800   63.176100
  H      7.111960   23.740800   62.116200
  S      7.832670   26.517700   68.717600
  C      8.776100   27.723900   69.481300
  C      8.698660   28.943500   68.846400
  C      8.051950   28.860200   67.562600
  C      7.569040   27.583700   67.326400
  H      9.084730   29.824500   69.329500
  C      7.758820   30.143400   66.802200
  H      7.546390   30.848100   67.583800
  H      6.787530   29.958900   66.325700
  C      8.767850   30.787400   65.848500
  H      9.035780   29.991300   65.153100
  H      9.721790   30.988800   66.425700
  C      8.370730   32.111600   65.248200
  H      7.361630   32.140700   64.843000
  H      9.152120   32.499300   64.585100
  H      8.362970   32.885500   66.052700
  H      5.281700   24.753900   63.793200
  H      9.079650   27.661400   70.528300

 Total Charge           Charge          ....    0
 Multiplicity           Mult            ....    1
 Number of Electrons    NEL             ....  134
 Basis Dimension        Dim             ....  322

ORBITAL ENERGIES
----------------

  NO   OCC          E(Eh)            E(eV)
   0   2.0000     -88.967430     -2420.9269
   1   2.0000     -88.964651     -2420.8512
   2   2.0000     -10.336690      -281.2756
   3   2.0000     -10.333202      -281.1807
   4   2.0000     -10.319103      -280.7971
   5   2.0000     -10.315060      -280.6871
   6   2.0000     -10.310156      -280.5536
   7   2.0000     -10.307238      -280.4742
   8   2.0000     -10.300349      -280.2867
   9   2.0000     -10.297129      -280.1991
  10   2.0000     -10.293929      -280.1121
  11   2.0000     -10.292963      -280.0858
  12   2.0000     -10.291532      -280.0468
  13   2.0000     -10.288229      -279.9569
  14   2.0000     -10.284789      -279.8633
  15   2.0000     -10.269871      -279.4574
  16   2.0000      -8.082673      -219.9407
  17   2.0000      -8.078378      -219.8238
  18   2.0000      -6.041155      -164.3882
  19   2.0000      -6.037219      -164.2811
  20   2.0000      -6.037107      -164.2780
  21   2.0000      -6.033320      -164.1750
  22   2.0000      -6.033032      -164.1672
  23   2.0000      -6.028974      -164.0567
  24   2.0000      -1.004626       -27.3373
  25   2.0000      -0.979607       -26.6565
  26   2.0000      -0.912664       -24.8349
  27   2.0000      -0.910823       -24.7847
  28   2.0000      -0.866653       -23.5828
  29   2.0000      -0.857483       -23.3333
  30   2.0000      -0.839457       -22.8428
  31   2.0000      -0.814025       -22.1507
  32   2.0000      -0.785302       -21.3691
  33   2.0000      -0.777349       -21.1527
  34   2.0000      -0.707089       -19.2409
  35   2.0000      -0.696836       -18.9619
  36   2.0000      -0.692339       -18.8395
  37   2.0000      -0.663337       -18.0503
  38   2.0000      -0.640271       -17.4227
  39   2.0000      -0.617476       -16.8024
  40   2.0000      -0.595705       -16.2100
  41   2.0000      -0.572029       -15.5657
  42   2.0000      -0.563929       -15.3453
  43   2.0000      -0.545425       -14.8418
  44   2.0000      -0.541840       -14.7442
  45   2.0000      -0.531248       -14.4560
  46   2.0000      -0.518934       -14.1209
  47   2.0000      -0.513056       -13.9610
  48   2.0000      -0.502249       -13.6669
  49   2.0000      -0.497352       -13.5336
  50   2.0000      -0.488267       -13.2864
  51   2.0000      -0.480647       -13.0791
  52   2.0000      -0.474042       -12.8994
  53   2.0000      -0.464582       -12.6419
  54   2.0000      -0.459320       -12.4987
  55   2.0000      -0.454440       -12.3659
  56   2.0000      -0.442818       -12.0497
  57   2.0000      -0.440495       -11.9865
  58   2.0000      -0.432128       -11.7588
  59   2.0000      -0.427420       -11.6307
  60   2.0000      -0.416605       -11.3364
  61   2.0000      -0.411295       -11.1919
  62   2.0000      -0.404370       -11.0035
  63   2.0000      -0.357333        -9.7235
  64   2.0000      -0.333113        -9.0645
  65   2.0000      -0.327929        -8.9234
  66   2.0000      -0.289934        -7.8895
  67   0.0000       0.023561         0.6411
  68   0.0000       0.071779         1.9532
  69   0.0000       0.103988         2.8296
  70   0.0000       0.119938         3.2637
  71   0.0000       0.124153         3.3784

MULLIKEN ATOMIC CHARGES
-----------------------
   0 S :    0.080839
   1 C :   -0.116536
   2 C :   -0.076294
   3 C :    0.012510
   4 C :   -0.111494
   5 H :    0.003267
   6 C :    0.016491
   7 H :    0.036710
   8 H :    0.036993
   9 C :   -0.058094
  10 H :    0.024253
  11 H :    0.036262
  12 C :   -0.038714
  13 H :    0.023004
  14 H :    0.036340
  15 H :    0.022637
  16 S :    0.111057
  17 C :   -0.087204
  18 C :   -0.039427
  19 C :   -0.038980
  20 C :   -0.146827
  21 H :    0.017456
  22 C :    0.032222
  23 H :    0.013310
  24 H :    0.032686
  25 C :   -0.060356
  26 H :    0.025229
  27 H :    0.027842
  28 C :   -0.037159
  29 H :    0.038470
  30 H :    0.043539
  31 H :    0.024045
  32 H :    0.052029
  33 H :    0.063894
Sum of atomic charges:    0.0000000

LOEWDIN ATOMIC CHARGES
----------------------
   0 S :    0.363247
   1 C :   -0.175990
   2 C :   -0.059076
   3 C :   -0.069778
   4 C :   -0.175137
   5 H :    0.029892
   6 C :   -0.039527
   7 H :    0.040391
   8 H :    0.028822
   9 C :   -0.039114
  10 H :    0.015501
  11 H :    0.033837
  12 C :   -0.065606
  13 H :    0.021074
  14 H :    0.026902
  15 H :    0.023408
  16 S :    0.412596
  17 C :   -0.198556
  18 C :   -0.067943
  19 C :   -0.055855
  20 C :   -0.188128
  21 H :    0.030338
  22 C :   -0.035460
  23 H :    0.028813
  24 H :    0.033559
  25 C :   -0.046618
  26 H :    0.017649
  27 H :    0.031169
  28 C :   -0.067535
  29 H :    0.025790
  30 H :    0.033073
  31 H :    0.029730
  32 H :    0.026304
  33 H :    0.032229

  Mayer bond orders larger than 0.100000
B(  0-S ,  1-C ) :   1.1213 B(  0-S ,  4-C ) :   1.1246 B(  1-C ,  2-C ) :   1.6275
B(  1-C , 32-H ) :   0.9740 B(  2-C ,  3-C ) :   1.2175 B(  2-C ,  6-C ) :   1.0003
B(  3-C ,  4-C ) :   1.6174 B(  3-C ,  5-H ) :   0.9817 B(  4-C , 20-C ) :   1.0417
B(  6-C ,  7-H ) :   0.9468 B(  6-C ,  8-H ) :   0.9527 B(  6-C ,  9-C ) :   1.0753
B(  9-C , 10-H ) :   0.9611 B(  9-C , 11-H ) :   0.9579 B(  9-C , 12-C ) :   1.0655
B( 12-C , 13-H ) :   0.9750 B( 12-C , 14-H ) :   0.9718 B( 12-C , 15-H ) :   0.9766
B( 16-S , 17-C ) :   1.1613 B( 16-S , 20-C ) :   1.1348 B( 17-C , 18-C ) :   1.6188
B( 17-C , 33-H ) :   0.9592 B( 18-C , 19-C ) :   1.2353 B( 18-C , 21-H ) :   0.9896
B( 19-C , 20-C ) :   1.6007 B( 19-C , 22-C ) :   1.0297 B( 22-C , 23-H ) :   0.9363
B( 22-C , 24-H ) :   0.9372 B( 22-C , 25-C ) :   1.0599 B( 25-C , 26-H ) :   0.9519
B( 25-C , 27-H ) :   0.9476 B( 25-C , 28-C ) :   1.0853 B( 28-C , 29-H ) :   0.9750
B( 28-C , 30-H ) :   0.9711 B( 28-C , 31-H ) :   0.9698

Dispersion correction           -0.014250784
FINAL SINGLE POINT ENERGY     -1339.877738120065

DIPOLE MOMENT
-------------
                                X             Y             Z
Electronic contribution:     -8.70878     -12.95931      21.31790
Nuclear contribution   :      8.95445      13.46574     -21.62748
                        -----------------------------------------
Total Dipole Moment    :      0.24567       0.50644      -0.30958
                        -----------------------------------------
Magnitude (a.u.)       :      0.64239
Magnitude (Debye)      :      1.63284

Rotational constants in cm-1:     0.016859     0.009001     0.006654
Rotational constants in MHz :   505.427376   269.856255   199.496307

                             ****ORCA TERMINATED NORMALLY****
TOTAL RUN TIME: 0 days 0 hours 0 minutes 34 seconds 320 msec
