                         Program Version 4.2.1 -  RELEASE  -
|  1> ! wB97X-D3 SP def2-SVP
|  2> %pal
|  3> nprocs 16
|  4> end
|  5>
|  6> * xyz 0 1
|  7> S 	 -49.2643 	 10.7596 	 91.3814
|  8> C 	 -49.1104 	 12.5346 	 91.5341
|  9> C 	 -49.7016 	 13.1639 	 90.4124
| 10> C 	 -50.1055 	 12.2702 	 89.4036
| 11> C 	 -49.9799 	 10.9561 	 89.7395
| 12> H 	 -50.584 	 12.5146 	 88.4857
| 13> C 	 -49.8166 	 14.6677 	 90.3207
| 14> H 	 -50.3568 	 15.1004 	 91.1179
| 15> H 	 -50.4044 	 14.8538 	 89.4662
| 16> C 	 -48.421 	 15.3198 	 90.2757
| 17> H 	 -48.5137 	 16.3862 	 90.5335
| 18> H 	 -47.7656 	 14.833 	 91.0538
| 19> C 	 -47.7306 	 15.2544 	 88.8845
| 20> H 	 -47.4455 	 14.2215 	 88.6959
| 21> H 	 -48.5217 	 15.5597 	 88.2058
| 22> H 	 -46.8419 	 15.8688 	 88.8184
| 23> S 	 -49.0626 	 8.54179 	 88.8435
| 24> C 	 -49.8857 	 7.70905 	 87.4871
| 25> C 	 -50.973 	 8.39056 	 87.101
| 26> C 	 -51.2656 	 9.63357 	 87.8351
| 27> C 	 -50.3187 	 9.82354 	 88.8424
| 28> H 	 -51.4447 	 7.96475 	 86.1618
| 29> C 	 -52.4092 	 10.5204 	 87.4468
| 30> H 	 -52.5972 	 11.2593 	 88.2825
| 31> H 	 -53.3319 	 9.94371 	 87.4122
| 32> C 	 -52.2143 	 11.182 	 86.1155
| 33> H 	 -51.984 	 10.3741 	 85.3549
| 34> H 	 -51.4019 	 11.9261 	 86.1591
| 35> C 	 -53.46 	 11.9112 	 85.7371
| 36> H 	 -53.8382 	 12.6575 	 86.4912
| 37> H 	 -54.2427 	 11.1679 	 85.7671
| 38> H 	 -53.3629 	 12.3201 	 84.7092
| 39> H 	 -48.6056 	 12.9447 	 92.4509
| 40> H 	 -49.6163 	 6.77189 	 86.985
| 41> *
| 42>
| 43>                          ****END OF INPUT****

CARTESIAN COORDINATES (ANGSTROEM)
---------------------------------
  S    -49.264300   10.759600   91.381400
  C    -49.110400   12.534600   91.534100
  C    -49.701600   13.163900   90.412400
  C    -50.105500   12.270200   89.403600
  C    -49.979900   10.956100   89.739500
  H    -50.584000   12.514600   88.485700
  C    -49.816600   14.667700   90.320700
  H    -50.356800   15.100400   91.117900
  H    -50.404400   14.853800   89.466200
  C    -48.421000   15.319800   90.275700
  H    -48.513700   16.386200   90.533500
  H    -47.765600   14.833000   91.053800
  C    -47.730600   15.254400   88.884500
  H    -47.445500   14.221500   88.695900
  H    -48.521700   15.559700   88.205800
  H    -46.841900   15.868800   88.818400
  S    -49.062600    8.541790   88.843500
  C    -49.885700    7.709050   87.487100
  C    -50.973000    8.390560   87.101000
  C    -51.265600    9.633570   87.835100
  C    -50.318700    9.823540   88.842400
  H    -51.444700    7.964750   86.161800
  C    -52.409200   10.520400   87.446800
  H    -52.597200   11.259300   88.282500
  H    -53.331900    9.943710   87.412200
  C    -52.214300   11.182000   86.115500
  H    -51.984000   10.374100   85.354900
  H    -51.401900   11.926100   86.159100
  C    -53.460000   11.911200   85.737100
  H    -53.838200   12.657500   86.491200
  H    -54.242700   11.167900   85.767100
  H    -53.362900   12.320100   84.709200
  H    -48.605600   12.944700   92.450900
  H    -49.616300    6.771890   86.985000

 Total Charge           Charge          ....    0
 Multiplicity           Mult            ....    1
 Number of Electrons    NEL             ....  134
 Basis Dimension        Dim             ....  322

ORBITAL ENERGIES
----------------

  NO   OCC          E(Eh)            E(eV)
   0   2.0000     -88.968089     -2420.9448
   1   2.0000     -88.961598     -2420.7681
   2   2.0000     -10.335421      -281.2411
   3   2.0000     -10.334114      -281.2055
   4   2.0000     -10.324940      -280.9559
   5   2.0000     -10.317116      -280.7430
   6   2.0000     -10.311595      -280.5928
   7   2.0000     -10.305217      -280.4192
   8   2.0000     -10.298207      -280.2285
   9   2.0000     -10.295643      -280.1587
  10   2.0000     -10.291659      -280.0503
  11   2.0000     -10.291508      -280.0462
  12   2.0000     -10.290002      -280.0052
  13   2.0000     -10.285076      -279.8711
  14   2.0000     -10.282455      -279.7998
  15   2.0000     -10.274469      -279.5825
  16   2.0000      -8.081314      -219.9037
  17   2.0000      -8.075295      -219.7399
  18   2.0000      -6.039888      -164.3537
  19   2.0000      -6.036080      -164.2501
  20   2.0000      -6.034093      -164.1960
  21   2.0000      -6.032057      -164.1406
  22   2.0000      -6.030020      -164.0852
  23   2.0000      -6.025714      -163.9680
  24   2.0000      -0.998716       -27.1764
  25   2.0000      -0.976847       -26.5814
  26   2.0000      -0.922392       -25.0996
  27   2.0000      -0.910321       -24.7711
  28   2.0000      -0.865870       -23.5615
  29   2.0000      -0.851590       -23.1729
  30   2.0000      -0.843920       -22.9642
  31   2.0000      -0.817509       -22.2456
  32   2.0000      -0.780384       -21.2353
  33   2.0000      -0.768439       -20.9103
  34   2.0000      -0.704356       -19.1665
  35   2.0000      -0.697925       -18.9915
  36   2.0000      -0.690635       -18.7931
  37   2.0000      -0.658213       -17.9109
  38   2.0000      -0.638364       -17.3708
  39   2.0000      -0.618513       -16.8306
  40   2.0000      -0.596551       -16.2330
  41   2.0000      -0.573409       -15.6032
  42   2.0000      -0.571905       -15.5623
  43   2.0000      -0.552298       -15.0288
  44   2.0000      -0.535488       -14.5714
  45   2.0000      -0.532396       -14.4872
  46   2.0000      -0.520981       -14.1766
  47   2.0000      -0.513255       -13.9664
  48   2.0000      -0.505501       -13.7554
  49   2.0000      -0.493131       -13.4188
  50   2.0000      -0.489533       -13.3209
  51   2.0000      -0.473616       -12.8878
  52   2.0000      -0.469863       -12.7856
  53   2.0000      -0.466781       -12.7018
  54   2.0000      -0.451713       -12.2917
  55   2.0000      -0.448363       -12.2006
  56   2.0000      -0.442614       -12.0442
  57   2.0000      -0.436690       -11.8829
  58   2.0000      -0.435056       -11.8385
  59   2.0000      -0.423490       -11.5238
  60   2.0000      -0.420401       -11.4397
  61   2.0000      -0.417933       -11.3725
  62   2.0000      -0.415746       -11.3130
  63   2.0000      -0.353389        -9.6162
  64   2.0000      -0.333511        -9.0753
  65   2.0000      -0.326617        -8.8877
  66   2.0000      -0.289582        -7.8799
  67   0.0000       0.023228         0.6321
  68   0.0000       0.074119         2.0169
  69   0.0000       0.098778         2.6879
  70   0.0000       0.118898         3.2354
  71   0.0000       0.125119         3.4047

MULLIKEN ATOMIC CHARGES
-----------------------
   0 S :    0.100068
   1 C :   -0.168592
   2 C :   -0.085919
   3 C :    0.036292
   4 C :   -0.125444
   5 H :   -0.011602
   6 C :    0.127629
   7 H :    0.026016
   8 H :   -0.002151
   9 C :   -0.120466
  10 H :    0.028428
  11 H :    0.036877
  12 C :   -0.035756
  13 H :    0.039675
  14 H :    0.025063
  15 H :    0.040261
  16 S :    0.073954
  17 C :   -0.091612
  18 C :   -0.061929
  19 C :   -0.018107
  20 C :   -0.128330
  21 H :    0.041160
  22 C :    0.017634
  23 H :    0.035340
  24 H :    0.025416
  25 C :   -0.090161
  26 H :    0.042415
  27 H :    0.035927
  28 C :   -0.027881
  29 H :    0.035264
  30 H :    0.009579
  31 H :    0.047123
  32 H :    0.083699
  33 H :    0.060130
Sum of atomic charges:    0.0000000

LOEWDIN ATOMIC CHARGES
----------------------
   0 S :    0.370380
   1 C :   -0.193687
   2 C :   -0.056827
   3 C :   -0.064134
   4 C :   -0.173986
   5 H :    0.028328
   6 C :   -0.025586
   7 H :    0.029850
   8 H :    0.020410
   9 C :   -0.039218
  10 H :    0.020195
  11 H :    0.025519
  12 C :   -0.061846
  13 H :    0.026774
  14 H :    0.023183
  15 H :    0.025592
  16 S :    0.357998
  17 C :   -0.176075
  18 C :   -0.082351
  19 C :   -0.054604
  20 C :   -0.170737
  21 H :    0.042700
  22 C :   -0.041407
  23 H :    0.035822
  24 H :    0.031661
  25 C :   -0.045231
  26 H :    0.033759
  27 H :    0.023280
  28 C :   -0.069467
  29 H :    0.031439
  30 H :    0.019233
  31 H :    0.031481
  32 H :    0.039488
  33 H :    0.038063

  Mayer bond orders larger than 0.100000
B(  0-S ,  1-C ) :   1.1346 B(  0-S ,  4-C ) :   1.1432 B(  1-C ,  2-C ) :   1.5733
B(  1-C ,  4-C ) :   0.1042 B(  1-C , 32-H ) :   0.9641 B(  2-C ,  3-C ) :   1.2527
B(  2-C ,  6-C ) :   1.0208 B(  3-C ,  4-C ) :   1.5768 B(  3-C ,  5-H ) :   0.9949
B(  4-C , 20-C ) :   1.0293 B(  6-C ,  7-H ) :   0.9349 B(  6-C ,  8-H ) :   0.9393
B(  6-C ,  9-C ) :   1.0681 B(  9-C , 10-H ) :   0.9578 B(  9-C , 11-H ) :   0.9594
B(  9-C , 12-C ) :   1.0672 B( 12-C , 13-H ) :   0.9779 B( 12-C , 14-H ) :   0.9762
B( 12-C , 15-H ) :   0.9762 B( 16-S , 17-C ) :   1.1094 B( 16-S , 20-C ) :   1.1151
B( 17-C , 18-C ) :   1.7131 B( 17-C , 33-H ) :   0.9597 B( 18-C , 19-C ) :   1.1636
B( 18-C , 21-H ) :   0.9712 B( 19-C , 20-C ) :   1.6504 B( 19-C , 22-C ) :   1.0483
B( 22-C , 23-H ) :   0.9321 B( 22-C , 24-H ) :   0.9309 B( 22-C , 25-C ) :   1.0683
B( 25-C , 26-H ) :   0.9494 B( 25-C , 27-H ) :   0.9473 B( 25-C , 28-C ) :   1.0893
B( 28-C , 29-H ) :   0.9685 B( 28-C , 30-H ) :   0.9687 B( 28-C , 31-H ) :   0.9705

Dispersion correction           -0.014126352
FINAL SINGLE POINT ENERGY     -1339.878997447289

DIPOLE MOMENT
-------------
                                X             Y             Z
Electronic contribution:      8.38303     -22.82359      14.25052
Nuclear contribution   :     -8.75283      23.30934     -14.72696
                        -----------------------------------------
Total Dipole Moment    :     -0.36980       0.48575      -0.47644
                        -----------------------------------------
Magnitude (a.u.)       :      0.77441
Magnitude (Debye)      :      1.96839

Rotational constants in cm-1:     0.016885     0.009224     0.006812
Rotational constants in MHz :   506.195817   276.524881   204.220526

                             ****ORCA TERMINATED NORMALLY****
TOTAL RUN TIME: 0 days 0 hours 0 minutes 30 seconds 74 msec
