                         Program Version 4.2.1 -  RELEASE  -
|  1> ! wB97X-D3 SP def2-SVP
|  2> %pal
|  3> nprocs 16
|  4> end
|  5>
|  6> * xyz 0 1
|  7> S 	 -38.2685 	 31.2524 	 81.1405
|  8> C 	 -37.5924 	 30.9152 	 79.539
|  9> C 	 -38.6373 	 31.0001 	 78.592
| 10> C 	 -39.8835 	 31.5248 	 79.1766
| 11> C 	 -39.8484 	 31.7162 	 80.5277
| 12> H 	 -40.7286 	 31.7358 	 78.5262
| 13> C 	 -38.6137 	 30.7462 	 77.1533
| 14> H 	 -39.1567 	 31.5569 	 76.6805
| 15> H 	 -39.2841 	 29.9045 	 76.9708
| 16> C 	 -37.2982 	 30.5956 	 76.3804
| 17> H 	 -36.6252 	 31.4418 	 76.7661
| 18> H 	 -36.7371 	 29.6604 	 76.5108
| 19> C 	 -37.6314 	 30.8089 	 74.8736
| 20> H 	 -38.2474 	 31.7062 	 74.6727
| 21> H 	 -36.6635 	 30.9656 	 74.3518
| 22> H 	 -38.0816 	 29.9708 	 74.3789
| 23> S 	 -40.4997 	 33.9309 	 82.1138
| 24> C 	 -42.218 	 34.2703 	 82.4856
| 25> C 	 -42.962 	 33.271 	 81.9787
| 26> C 	 -42.2677 	 32.1991 	 81.3588
| 27> C 	 -40.9036 	 32.4632 	 81.2885
| 28> H 	 -44.0294 	 33.2688 	 82.1518
| 29> C 	 -42.9941 	 31.0032 	 80.88
| 30> H 	 -42.9686 	 30.9645 	 79.7906
| 31> H 	 -44.0941 	 31.0927 	 81.1967
| 32> C 	 -42.5404 	 29.6725 	 81.4472
| 33> H 	 -42.571 	 29.5998 	 82.5511
| 34> H 	 -41.5157 	 29.4765 	 81.2618
| 35> C 	 -43.3636 	 28.5669 	 80.7383
| 36> H 	 -42.9767 	 28.4612 	 79.7146
| 37> H 	 -44.4197 	 28.8145 	 80.6563
| 38> H 	 -43.2421 	 27.5268 	 81.0975
| 39> H 	 -36.6204 	 30.5158 	 79.306
| 40> H 	 -42.6579 	 34.9563 	 83.1959
| 41> *
| 42>
| 43>                          ****END OF INPUT****

CARTESIAN COORDINATES (ANGSTROEM)
---------------------------------
  S    -38.268500   31.252400   81.140500
  C    -37.592400   30.915200   79.539000
  C    -38.637300   31.000100   78.592000
  C    -39.883500   31.524800   79.176600
  C    -39.848400   31.716200   80.527700
  H    -40.728600   31.735800   78.526200
  C    -38.613700   30.746200   77.153300
  H    -39.156700   31.556900   76.680500
  H    -39.284100   29.904500   76.970800
  C    -37.298200   30.595600   76.380400
  H    -36.625200   31.441800   76.766100
  H    -36.737100   29.660400   76.510800
  C    -37.631400   30.808900   74.873600
  H    -38.247400   31.706200   74.672700
  H    -36.663500   30.965600   74.351800
  H    -38.081600   29.970800   74.378900
  S    -40.499700   33.930900   82.113800
  C    -42.218000   34.270300   82.485600
  C    -42.962000   33.271000   81.978700
  C    -42.267700   32.199100   81.358800
  C    -40.903600   32.463200   81.288500
  H    -44.029400   33.268800   82.151800
  C    -42.994100   31.003200   80.880000
  H    -42.968600   30.964500   79.790600
  H    -44.094100   31.092700   81.196700
  C    -42.540400   29.672500   81.447200
  H    -42.571000   29.599800   82.551100
  H    -41.515700   29.476500   81.261800
  C    -43.363600   28.566900   80.738300
  H    -42.976700   28.461200   79.714600
  H    -44.419700   28.814500   80.656300
  H    -43.242100   27.526800   81.097500
  H    -36.620400   30.515800   79.306000
  H    -42.657900   34.956300   83.195900

 Total Charge           Charge          ....    0
 Multiplicity           Mult            ....    1
 Number of Electrons    NEL             ....  134
 Basis Dimension        Dim             ....  322

ORBITAL ENERGIES
----------------

  NO   OCC          E(Eh)            E(eV)
   0   2.0000     -88.965911     -2420.8855
   1   2.0000     -88.965133     -2420.8644
   2   2.0000     -10.334790      -281.2239
   3   2.0000     -10.330333      -281.1027
   4   2.0000     -10.319898      -280.8187
   5   2.0000     -10.314457      -280.6707
   6   2.0000     -10.305460      -280.4258
   7   2.0000     -10.299930      -280.2754
   8   2.0000     -10.298007      -280.2230
   9   2.0000     -10.296558      -280.1836
  10   2.0000     -10.293989      -280.1137
  11   2.0000     -10.289707      -279.9972
  12   2.0000     -10.287313      -279.9320
  13   2.0000     -10.284535      -279.8564
  14   2.0000     -10.280918      -279.7580
  15   2.0000     -10.277654      -279.6692
  16   2.0000      -8.079922      -219.8658
  17   2.0000      -8.079448      -219.8529
  18   2.0000      -6.038716      -164.3218
  19   2.0000      -6.038107      -164.3053
  20   2.0000      -6.034436      -164.2054
  21   2.0000      -6.033955      -164.1923
  22   2.0000      -6.030503      -164.0983
  23   2.0000      -6.030105      -164.0875
  24   2.0000      -1.004547       -27.3351
  25   2.0000      -0.982681       -26.7401
  26   2.0000      -0.915810       -24.9204
  27   2.0000      -0.911343       -24.7989
  28   2.0000      -0.867762       -23.6130
  29   2.0000      -0.849758       -23.1231
  30   2.0000      -0.846556       -23.0360
  31   2.0000      -0.817824       -22.2541
  32   2.0000      -0.775763       -21.1096
  33   2.0000      -0.766746       -20.8642
  34   2.0000      -0.716464       -19.4960
  35   2.0000      -0.706305       -19.2195
  36   2.0000      -0.688398       -18.7322
  37   2.0000      -0.659703       -17.9514
  38   2.0000      -0.639046       -17.3893
  39   2.0000      -0.615460       -16.7475
  40   2.0000      -0.597727       -16.2650
  41   2.0000      -0.574344       -15.6287
  42   2.0000      -0.570778       -15.5317
  43   2.0000      -0.564091       -15.3497
  44   2.0000      -0.521723       -14.1968
  45   2.0000      -0.520588       -14.1659
  46   2.0000      -0.516484       -14.0543
  47   2.0000      -0.513679       -13.9779
  48   2.0000      -0.502701       -13.6792
  49   2.0000      -0.500840       -13.6285
  50   2.0000      -0.493993       -13.4422
  51   2.0000      -0.478024       -13.0077
  52   2.0000      -0.473933       -12.8964
  53   2.0000      -0.461329       -12.5534
  54   2.0000      -0.457839       -12.4584
  55   2.0000      -0.451243       -12.2790
  56   2.0000      -0.443786       -12.0760
  57   2.0000      -0.436657       -11.8820
  58   2.0000      -0.432687       -11.7740
  59   2.0000      -0.423572       -11.5260
  60   2.0000      -0.419654       -11.4194
  61   2.0000      -0.419116       -11.4047
  62   2.0000      -0.412183       -11.2161
  63   2.0000      -0.348739        -9.4897
  64   2.0000      -0.329464        -8.9652
  65   2.0000      -0.319914        -8.7053
  66   2.0000      -0.300034        -8.1643
  67   0.0000       0.030913         0.8412
  68   0.0000       0.073439         1.9984
  69   0.0000       0.114526         3.1164
  70   0.0000       0.115922         3.1544
  71   0.0000       0.132577         3.6076

MULLIKEN ATOMIC CHARGES
-----------------------
   0 S :    0.098605
   1 C :   -0.117635
   2 C :   -0.086862
   3 C :    0.014909
   4 C :   -0.131742
   5 H :    0.018973
   6 C :    0.037383
   7 H :    0.021916
   8 H :    0.035519
   9 C :   -0.091812
  10 H :    0.044277
  11 H :    0.043757
  12 C :   -0.067910
  13 H :    0.038873
  14 H :    0.034774
  15 H :    0.036310
  16 S :    0.107121
  17 C :   -0.085437
  18 C :   -0.040271
  19 C :   -0.016015
  20 C :   -0.144303
  21 H :    0.014847
  22 C :    0.032006
  23 H :    0.030550
  24 H :    0.030664
  25 C :   -0.055559
  26 H :    0.033230
  27 H :    0.027464
  28 C :   -0.059039
  29 H :    0.023378
  30 H :    0.028016
  31 H :    0.035362
  32 H :    0.051586
  33 H :    0.057063
Sum of atomic charges:    0.0000000

LOEWDIN ATOMIC CHARGES
----------------------
   0 S :    0.389144
   1 C :   -0.199902
   2 C :   -0.056543
   3 C :   -0.058290
   4 C :   -0.192622
   5 H :    0.031153
   6 C :   -0.048757
   7 H :    0.034411
   8 H :    0.038098
   9 C :   -0.043767
  10 H :    0.033646
  11 H :    0.026173
  12 C :   -0.067089
  13 H :    0.027735
  14 H :    0.030225
  15 H :    0.022453
  16 S :    0.401482
  17 C :   -0.179705
  18 C :   -0.069671
  19 C :   -0.064955
  20 C :   -0.197109
  21 H :    0.030041
  22 C :   -0.035465
  23 H :    0.031474
  24 H :    0.039071
  25 C :   -0.038298
  26 H :    0.027049
  27 H :    0.019664
  28 C :   -0.070179
  29 H :    0.026204
  30 H :    0.020896
  31 H :    0.027856
  32 H :    0.029275
  33 H :    0.036303

  Mayer bond orders larger than 0.100000
B(  0-S ,  1-C ) :   1.1146 B(  0-S ,  4-C ) :   1.1357 B(  1-C ,  2-C ) :   1.6154
B(  1-C , 32-H ) :   0.9685 B(  2-C ,  3-C ) :   1.2312 B(  2-C ,  6-C ) :   1.0377
B(  3-C ,  4-C ) :   1.5901 B(  3-C ,  5-H ) :   0.9906 B(  4-C , 20-C ) :   1.0103
B(  6-C ,  7-H ) :   0.9423 B(  6-C ,  8-H ) :   0.9196 B(  6-C ,  9-C ) :   1.0640
B(  9-C , 10-H ) :   0.9564 B(  9-C , 11-H ) :   0.9516 B(  9-C , 12-C ) :   1.0805
B( 12-C , 13-H ) :   0.9759 B( 12-C , 14-H ) :   0.9743 B( 12-C , 15-H ) :   0.9773
B( 16-S , 17-C ) :   1.1310 B( 16-S , 20-C ) :   1.1488 B( 17-C , 18-C ) :   1.6335
B( 17-C , 33-H ) :   0.9634 B( 18-C , 19-C ) :   1.2671 B( 18-C , 21-H ) :   0.9807
B( 19-C , 20-C ) :   1.5768 B( 19-C , 22-C ) :   1.0402 B( 22-C , 23-H ) :   0.9266
B( 22-C , 24-H ) :   0.9367 B( 22-C , 25-C ) :   1.0631 B( 25-C , 26-H ) :   0.9571
B( 25-C , 27-H ) :   0.9528 B( 25-C , 28-C ) :   1.0737 B( 28-C , 29-H ) :   0.9740
B( 28-C , 30-H ) :   0.9750 B( 28-C , 31-H ) :   0.9740

Dispersion correction           -0.013922955
FINAL SINGLE POINT ENERGY     -1339.880154974678

DIPOLE MOMENT
-------------
                                X             Y             Z
Electronic contribution:      6.14210      16.01085      21.19582
Nuclear contribution   :     -6.48147     -16.34193     -21.81596
                        -----------------------------------------
Total Dipole Moment    :     -0.33936      -0.33108      -0.62014
                        -----------------------------------------
Magnitude (a.u.)       :      0.78061
Magnitude (Debye)      :      1.98416

Rotational constants in cm-1:     0.018872     0.007788     0.006607
Rotational constants in MHz :   565.775096   233.465048   198.066557

                             ****ORCA TERMINATED NORMALLY****
TOTAL RUN TIME: 0 days 0 hours 0 minutes 29 seconds 749 msec
