                         Program Version 4.2.1 -  RELEASE  -
|  1> ! wB97X-D3 SP def2-SVP
|  2> %pal
|  3> nprocs 16
|  4> end
|  5>
|  6> * xyz 0 1
|  7> S 	 52.7971 	 -0.0535377 	 88.7952
|  8> C 	 51.4119 	 -0.755462 	 89.6421
|  9> C 	 50.2401 	 -0.228755 	 89.0572
| 10> C 	 50.5544 	 0.830887 	 88.1576
| 11> C 	 51.8636 	 1.25827 	 88.2462
| 12> H 	 49.7749 	 1.30675 	 87.5943
| 13> C 	 48.8474 	 -0.917736 	 89.2329
| 14> H 	 48.5856 	 -1.10082 	 90.2693
| 15> H 	 48.9999 	 -1.94222 	 88.8369
| 16> C 	 47.7197 	 -0.198506 	 88.4069
| 17> H 	 47.7546 	 0.843568 	 88.7411
| 18> H 	 47.9162 	 -0.140913 	 87.3041
| 19> C 	 46.3555 	 -0.879501 	 88.6907
| 20> H 	 46.3774 	 -1.93135 	 88.4043
| 21> H 	 45.9437 	 -0.612834 	 89.6467
| 22> H 	 45.6178 	 -0.433297 	 88.0675
| 23> S 	 52.6561 	 3.11426 	 86.3021
| 24> C 	 53.9915 	 4.07421 	 86.6509
| 25> C 	 54.1238 	 4.25301 	 88.0367
| 26> C 	 53.2717 	 3.34973 	 88.7727
| 27> C 	 52.5 	 2.55213 	 88.0044
| 28> H 	 54.9001 	 4.90591 	 88.3344
| 29> C 	 53.4393 	 3.20179 	 90.2143
| 30> H 	 52.7191 	 2.56604 	 90.6702
| 31> H 	 53.2479 	 4.26809 	 90.6166
| 32> C 	 54.8747 	 2.82566 	 90.7252
| 33> H 	 55.5139 	 3.63762 	 90.3348
| 34> H 	 55.2123 	 1.95993 	 90.1109
| 35> C 	 55.1083 	 2.69113 	 92.2445
| 36> H 	 55.251 	 3.68255 	 92.7598
| 37> H 	 56.029 	 2.14358 	 92.4056
| 38> H 	 54.4164 	 2.03738 	 92.7741
| 39> H 	 51.595 	 -1.7797 	 90.0264
| 40> H 	 54.5712 	 4.64896 	 85.9731
| 41> *
| 42>
| 43>                          ****END OF INPUT****

CARTESIAN COORDINATES (ANGSTROEM)
---------------------------------
  S     52.797100   -0.053538   88.795200
  C     51.411900   -0.755462   89.642100
  C     50.240100   -0.228755   89.057200
  C     50.554400    0.830887   88.157600
  C     51.863600    1.258270   88.246200
  H     49.774900    1.306750   87.594300
  C     48.847400   -0.917736   89.232900
  H     48.585600   -1.100820   90.269300
  H     48.999900   -1.942220   88.836900
  C     47.719700   -0.198506   88.406900
  H     47.754600    0.843568   88.741100
  H     47.916200   -0.140913   87.304100
  C     46.355500   -0.879501   88.690700
  H     46.377400   -1.931350   88.404300
  H     45.943700   -0.612834   89.646700
  H     45.617800   -0.433297   88.067500
  S     52.656100    3.114260   86.302100
  C     53.991500    4.074210   86.650900
  C     54.123800    4.253010   88.036700
  C     53.271700    3.349730   88.772700
  C     52.500000    2.552130   88.004400
  H     54.900100    4.905910   88.334400
  C     53.439300    3.201790   90.214300
  H     52.719100    2.566040   90.670200
  H     53.247900    4.268090   90.616600
  C     54.874700    2.825660   90.725200
  H     55.513900    3.637620   90.334800
  H     55.212300    1.959930   90.110900
  C     55.108300    2.691130   92.244500
  H     55.251000    3.682550   92.759800
  H     56.029000    2.143580   92.405600
  H     54.416400    2.037380   92.774100
  H     51.595000   -1.779700   90.026400
  H     54.571200    4.648960   85.973100

 Total Charge           Charge          ....    0
 Multiplicity           Mult            ....    1
 Number of Electrons    NEL             ....  134
 Basis Dimension        Dim             ....  322

ORBITAL ENERGIES
----------------

  NO   OCC          E(Eh)            E(eV)
   0   2.0000     -88.960096     -2420.7273
   1   2.0000     -88.958571     -2420.6858
   2   2.0000     -10.328219      -281.0451
   3   2.0000     -10.323377      -280.9134
   4   2.0000     -10.314126      -280.6616
   5   2.0000     -10.313749      -280.6514
   6   2.0000     -10.308874      -280.5187
   7   2.0000     -10.301830      -280.3271
   8   2.0000     -10.299924      -280.2752
   9   2.0000     -10.296099      -280.1711
  10   2.0000     -10.293369      -280.0968
  11   2.0000     -10.291117      -280.0355
  12   2.0000     -10.288290      -279.9586
  13   2.0000     -10.286338      -279.9055
  14   2.0000     -10.280595      -279.7492
  15   2.0000     -10.277470      -279.6642
  16   2.0000      -8.075610      -219.7485
  17   2.0000      -8.074395      -219.7155
  18   2.0000      -6.033910      -164.1910
  19   2.0000      -6.032767      -164.1599
  20   2.0000      -6.030291      -164.0926
  21   2.0000      -6.028802      -164.0521
  22   2.0000      -6.026235      -163.9822
  23   2.0000      -6.025164      -163.9530
  24   2.0000      -1.011259       -27.5178
  25   2.0000      -0.988870       -26.9085
  26   2.0000      -0.907087       -24.6831
  27   2.0000      -0.903496       -24.5854
  28   2.0000      -0.867446       -23.6044
  29   2.0000      -0.847457       -23.0605
  30   2.0000      -0.842286       -22.9198
  31   2.0000      -0.813673       -22.1412
  32   2.0000      -0.782943       -21.3050
  33   2.0000      -0.771655       -20.9978
  34   2.0000      -0.712974       -19.4010
  35   2.0000      -0.697992       -18.9933
  36   2.0000      -0.686578       -18.6827
  37   2.0000      -0.662183       -18.0189
  38   2.0000      -0.635463       -17.2918
  39   2.0000      -0.622426       -16.9371
  40   2.0000      -0.596613       -16.2347
  41   2.0000      -0.568862       -15.4795
  42   2.0000      -0.566587       -15.4176
  43   2.0000      -0.554309       -15.0835
  44   2.0000      -0.527972       -14.3668
  45   2.0000      -0.522659       -14.2223
  46   2.0000      -0.511311       -13.9135
  47   2.0000      -0.508936       -13.8488
  48   2.0000      -0.503830       -13.7099
  49   2.0000      -0.497727       -13.5438
  50   2.0000      -0.492655       -13.4058
  51   2.0000      -0.479709       -13.0535
  52   2.0000      -0.472866       -12.8673
  53   2.0000      -0.466260       -12.6876
  54   2.0000      -0.459408       -12.5011
  55   2.0000      -0.454391       -12.3646
  56   2.0000      -0.444817       -12.1041
  57   2.0000      -0.434925       -11.8349
  58   2.0000      -0.427372       -11.6294
  59   2.0000      -0.421719       -11.4756
  60   2.0000      -0.418557       -11.3895
  61   2.0000      -0.410551       -11.1717
  62   2.0000      -0.405793       -11.0422
  63   2.0000      -0.336707        -9.1623
  64   2.0000      -0.324907        -8.8412
  65   2.0000      -0.320015        -8.7080
  66   2.0000      -0.292245        -7.9524
  67   0.0000       0.022601         0.6150
  68   0.0000       0.055933         1.5220
  69   0.0000       0.098617         2.6835
  70   0.0000       0.113210         3.0806
  71   0.0000       0.139912         3.8072

MULLIKEN ATOMIC CHARGES
-----------------------
   0 S :    0.109550
   1 C :   -0.137498
   2 C :   -0.122722
   3 C :    0.057948
   4 C :   -0.165298
   5 H :    0.004110
   6 C :    0.051717
   7 H :    0.039412
   8 H :    0.037561
   9 C :   -0.146973
  10 H :    0.040000
  11 H :    0.049225
  12 C :    0.001751
  13 H :    0.040729
  14 H :    0.031426
  15 H :    0.013079
  16 S :    0.097928
  17 C :   -0.075548
  18 C :   -0.053290
  19 C :   -0.003063
  20 C :   -0.132077
  21 H :    0.012836
  22 C :    0.051288
  23 H :    0.022723
  24 H :    0.034960
  25 C :   -0.103974
  26 H :    0.021167
  27 H :    0.034976
  28 C :   -0.033469
  29 H :    0.045081
  30 H :    0.026343
  31 H :    0.033879
  32 H :    0.068838
  33 H :    0.047387
Sum of atomic charges:   -0.0000000

LOEWDIN ATOMIC CHARGES
----------------------
   0 S :    0.424744
   1 C :   -0.212171
   2 C :   -0.056870
   3 C :   -0.064981
   4 C :   -0.199789
   5 H :    0.025446
   6 C :   -0.031626
   7 H :    0.032765
   8 H :    0.034839
   9 C :   -0.047231
  10 H :    0.024333
  11 H :    0.029624
  12 C :   -0.063967
  13 H :    0.029658
  14 H :    0.026860
  15 H :    0.023342
  16 S :    0.401535
  17 C :   -0.185085
  18 C :   -0.075082
  19 C :   -0.050098
  20 C :   -0.192849
  21 H :    0.025073
  22 C :   -0.037371
  23 H :    0.022305
  24 H :    0.043235
  25 C :   -0.045527
  26 H :    0.022331
  27 H :    0.024495
  28 C :   -0.072085
  29 H :    0.033756
  30 H :    0.029753
  31 H :    0.026366
  32 H :    0.029375
  33 H :    0.024898

  Mayer bond orders larger than 0.100000
B(  0-S ,  1-C ) :   1.1401 B(  0-S ,  4-C ) :   1.1922 B(  1-C ,  2-C ) :   1.5582
B(  1-C ,  4-C ) :   0.1205 B(  1-C , 32-H ) :   0.9668 B(  2-C ,  3-C ) :   1.3181
B(  2-C ,  6-C ) :   0.9919 B(  3-C ,  4-C ) :   1.4901 B(  3-C ,  5-H ) :   0.9968
B(  4-C , 20-C ) :   1.0159 B(  6-C ,  7-H ) :   0.9511 B(  6-C ,  8-H ) :   0.9390
B(  6-C ,  9-C ) :   1.0677 B(  9-C , 10-H ) :   0.9566 B(  9-C , 11-H ) :   0.9512
B(  9-C , 12-C ) :   1.0856 B( 12-C , 13-H ) :   0.9735 B( 12-C , 14-H ) :   0.9727
B( 12-C , 15-H ) :   0.9680 B( 16-S , 17-C ) :   1.1893 B( 16-S , 20-C ) :   1.0976
B( 17-C , 18-C ) :   1.6090 B( 17-C , 33-H ) :   0.9680 B( 18-C , 19-C ) :   1.1835
B( 18-C , 21-H ) :   1.0025 B( 19-C , 20-C ) :   1.6307 B( 19-C , 22-C ) :   1.0777
B( 22-C , 23-H ) :   0.9370 B( 22-C , 24-H ) :   0.9233 B( 22-C , 25-C ) :   1.0476
B( 25-C , 26-H ) :   0.9513 B( 25-C , 27-H ) :   0.9572 B( 25-C , 28-C ) :   1.0813
B( 28-C , 29-H ) :   0.9746 B( 28-C , 30-H ) :   0.9703 B( 28-C , 31-H ) :   0.9748

Dispersion correction           -0.014079507
FINAL SINGLE POINT ENERGY     -1339.836963289145

DIPOLE MOMENT
-------------
                                X             Y             Z
Electronic contribution:     10.08766       3.46900     -15.54128
Nuclear contribution   :    -10.26242      -3.54541      15.73341
                        -----------------------------------------
Total Dipole Moment    :     -0.17476      -0.07642       0.19214
                        -----------------------------------------
Magnitude (a.u.)       :      0.27073
Magnitude (Debye)      :      0.68815

Rotational constants in cm-1:     0.020013     0.007789     0.006346
Rotational constants in MHz :   599.972475   233.522818   190.261240

                             ****ORCA TERMINATED NORMALLY****
TOTAL RUN TIME: 0 days 0 hours 0 minutes 27 seconds 803 msec
