                         Program Version 4.2.1 -  RELEASE  -
|  1> ! wB97X-D3 SP def2-SVP
|  2> %pal
|  3> nprocs 16
|  4> end
|  5>
|  6> * xyz 0 1
|  7> S 	 -66.4394 	 35.7281 	 136.121
|  8> C 	 -64.8434 	 36.3932 	 135.925
|  9> C 	 -63.867 	 35.6521 	 136.523
| 10> C 	 -64.433 	 34.4557 	 137.125
| 11> C 	 -65.7612 	 34.3117 	 136.968
| 12> H 	 -63.8741 	 33.7312 	 137.594
| 13> C 	 -62.3788 	 35.9152 	 136.511
| 14> H 	 -62.0496 	 35.5367 	 137.492
| 15> H 	 -62.0595 	 36.9525 	 136.548
| 16> C 	 -61.5143 	 35.1385 	 135.519
| 17> H 	 -61.9469 	 34.1291 	 135.421
| 18> H 	 -61.8146 	 35.4983 	 134.541
| 19> C 	 -60.0431 	 35.2003 	 135.919
| 20> H 	 -59.3963 	 34.698 	 135.254
| 21> H 	 -59.5497 	 36.219 	 135.896
| 22> H 	 -59.8538 	 34.8795 	 136.948
| 23> S 	 -67.404 	 33.7985 	 139.028
| 24> C 	 -68.1181 	 32.2277 	 139.309
| 25> C 	 -67.4919 	 31.3196 	 138.488
| 26> C 	 -66.7309 	 31.8711 	 137.469
| 27> C 	 -66.5793 	 33.27 	 137.646
| 28> H 	 -67.715 	 30.2385 	 138.585
| 29> C 	 -66.1027 	 31.0576 	 136.381
| 30> H 	 -66.3072 	 31.5576 	 135.418
| 31> H 	 -66.7786 	 30.1309 	 136.342
| 32> C 	 -64.6329 	 30.6765 	 136.454
| 33> H 	 -64.1352 	 31.6233 	 136.379
| 34> H 	 -64.4115 	 30.2512 	 135.497
| 35> C 	 -64.3568 	 29.8134 	 137.706
| 36> H 	 -64.5079 	 28.7711 	 137.446
| 37> H 	 -64.9309 	 29.8887 	 138.602
| 38> H 	 -63.3444 	 29.8662 	 137.952
| 39> H 	 -64.6527 	 37.2444 	 135.304
| 40> H 	 -68.5566 	 31.9465 	 140.308
| 41> *
| 42>
| 43>                          ****END OF INPUT****

CARTESIAN COORDINATES (ANGSTROEM)
---------------------------------
  S    -66.439400   35.728100  136.121000
  C    -64.843400   36.393200  135.925000
  C    -63.867000   35.652100  136.523000
  C    -64.433000   34.455700  137.125000
  C    -65.761200   34.311700  136.968000
  H    -63.874100   33.731200  137.594000
  C    -62.378800   35.915200  136.511000
  H    -62.049600   35.536700  137.492000
  H    -62.059500   36.952500  136.548000
  C    -61.514300   35.138500  135.519000
  H    -61.946900   34.129100  135.421000
  H    -61.814600   35.498300  134.541000
  C    -60.043100   35.200300  135.919000
  H    -59.396300   34.698000  135.254000
  H    -59.549700   36.219000  135.896000
  H    -59.853800   34.879500  136.948000
  S    -67.404000   33.798500  139.028000
  C    -68.118100   32.227700  139.309000
  C    -67.491900   31.319600  138.488000
  C    -66.730900   31.871100  137.469000
  C    -66.579300   33.270000  137.646000
  H    -67.715000   30.238500  138.585000
  C    -66.102700   31.057600  136.381000
  H    -66.307200   31.557600  135.418000
  H    -66.778600   30.130900  136.342000
  C    -64.632900   30.676500  136.454000
  H    -64.135200   31.623300  136.379000
  H    -64.411500   30.251200  135.497000
  C    -64.356800   29.813400  137.706000
  H    -64.507900   28.771100  137.446000
  H    -64.930900   29.888700  138.602000
  H    -63.344400   29.866200  137.952000
  H    -64.652700   37.244400  135.304000
  H    -68.556600   31.946500  140.308000

 Total Charge           Charge          ....    0
 Multiplicity           Mult            ....    1
 Number of Electrons    NEL             ....  134
 Basis Dimension        Dim             ....  322

ORBITAL ENERGIES
----------------

  NO   OCC          E(Eh)            E(eV)
   0   2.0000     -88.964767     -2420.8544
   1   2.0000     -88.963876     -2420.8301
   2   2.0000     -10.329980      -281.0931
   3   2.0000     -10.325375      -280.9677
   4   2.0000     -10.314594      -280.6744
   5   2.0000     -10.312429      -280.6155
   6   2.0000     -10.301655      -280.3223
   7   2.0000     -10.297810      -280.2177
   8   2.0000     -10.291166      -280.0369
   9   2.0000     -10.290859      -280.0285
  10   2.0000     -10.290247      -280.0118
  11   2.0000     -10.290157      -280.0094
  12   2.0000     -10.288854      -279.9739
  13   2.0000     -10.284768      -279.8628
  14   2.0000     -10.284329      -279.8508
  15   2.0000     -10.271433      -279.4999
  16   2.0000      -8.079647      -219.8584
  17   2.0000      -8.079392      -219.8514
  18   2.0000      -6.037996      -164.3022
  19   2.0000      -6.037908      -164.2998
  20   2.0000      -6.033980      -164.1929
  21   2.0000      -6.033815      -164.1885
  22   2.0000      -6.030778      -164.1058
  23   2.0000      -6.029986      -164.0843
  24   2.0000      -1.010696       -27.5024
  25   2.0000      -0.988556       -26.9000
  26   2.0000      -0.914144       -24.8751
  27   2.0000      -0.910789       -24.7838
  28   2.0000      -0.872259       -23.7354
  29   2.0000      -0.850106       -23.1326
  30   2.0000      -0.848271       -23.0826
  31   2.0000      -0.817439       -22.2437
  32   2.0000      -0.784679       -21.3522
  33   2.0000      -0.775208       -21.0945
  34   2.0000      -0.713321       -19.4104
  35   2.0000      -0.709585       -19.3088
  36   2.0000      -0.690256       -18.7828
  37   2.0000      -0.659869       -17.9560
  38   2.0000      -0.650146       -17.6914
  39   2.0000      -0.623766       -16.9735
  40   2.0000      -0.588823       -16.0227
  41   2.0000      -0.571106       -15.5406
  42   2.0000      -0.556855       -15.1528
  43   2.0000      -0.550853       -14.9895
  44   2.0000      -0.542889       -14.7728
  45   2.0000      -0.524674       -14.2771
  46   2.0000      -0.518897       -14.1199
  47   2.0000      -0.510625       -13.8948
  48   2.0000      -0.505487       -13.7550
  49   2.0000      -0.498950       -13.5771
  50   2.0000      -0.489802       -13.3282
  51   2.0000      -0.482528       -13.1303
  52   2.0000      -0.478307       -13.0154
  53   2.0000      -0.464153       -12.6302
  54   2.0000      -0.458493       -12.4762
  55   2.0000      -0.456128       -12.4119
  56   2.0000      -0.438601       -11.9349
  57   2.0000      -0.436899       -11.8886
  58   2.0000      -0.434375       -11.8200
  59   2.0000      -0.429522       -11.6879
  60   2.0000      -0.426445       -11.6042
  61   2.0000      -0.410570       -11.1722
  62   2.0000      -0.408451       -11.1145
  63   2.0000      -0.346055        -9.4166
  64   2.0000      -0.329153        -8.9567
  65   2.0000      -0.325140        -8.8475
  66   2.0000      -0.303768        -8.2659
  67   0.0000       0.039839         1.0841
  68   0.0000       0.058188         1.5834
  69   0.0000       0.117341         3.1930
  70   0.0000       0.124982         3.4009
  71   0.0000       0.127976         3.4824

MULLIKEN ATOMIC CHARGES
-----------------------
   0 S :    0.107186
   1 C :   -0.115227
   2 C :   -0.066275
   3 C :    0.078034
   4 C :   -0.154698
   5 H :   -0.013482
   6 C :    0.039910
   7 H :    0.010496
   8 H :    0.024422
   9 C :   -0.032153
  10 H :    0.020794
  11 H :    0.014729
  12 C :   -0.037536
  13 H :    0.025968
  14 H :    0.030827
  15 H :    0.034172
  16 S :    0.120792
  17 C :   -0.112715
  18 C :   -0.071498
  19 C :   -0.022635
  20 C :   -0.182285
  21 H :    0.031970
  22 C :    0.005836
  23 H :    0.033032
  24 H :    0.019205
  25 C :    0.009944
  26 H :    0.007161
  27 H :    0.021551
  28 C :   -0.023274
  29 H :    0.019779
  30 H :    0.035724
  31 H :    0.018751
  32 H :    0.041306
  33 H :    0.080187
Sum of atomic charges:   -0.0000000

LOEWDIN ATOMIC CHARGES
----------------------
   0 S :    0.387783
   1 C :   -0.185627
   2 C :   -0.064886
   3 C :   -0.043534
   4 C :   -0.189956
   5 H :    0.017600
   6 C :   -0.036084
   7 H :    0.029582
   8 H :    0.028312
   9 C :   -0.043130
  10 H :    0.026759
  11 H :    0.022562
  12 C :   -0.068133
  13 H :    0.021570
  14 H :    0.034802
  15 H :    0.028556
  16 S :    0.446680
  17 C :   -0.212535
  18 C :   -0.076878
  19 C :   -0.068472
  20 C :   -0.212251
  21 H :    0.036125
  22 C :   -0.038778
  23 H :    0.034478
  24 H :    0.031465
  25 C :   -0.032456
  26 H :    0.019061
  27 H :    0.026777
  28 C :   -0.062930
  29 H :    0.030177
  30 H :    0.026796
  31 H :    0.019794
  32 H :    0.025370
  33 H :    0.041402

  Mayer bond orders larger than 0.100000
B(  0-S ,  1-C ) :   1.1356 B(  0-S ,  4-C ) :   1.1251 B(  1-C ,  2-C ) :   1.6436
B(  1-C , 32-H ) :   0.9694 B(  2-C ,  3-C ) :   1.2073 B(  2-C ,  6-C ) :   1.0233
B(  3-C ,  4-C ) :   1.6261 B(  3-C ,  5-H ) :   0.9998 B(  4-C , 20-C ) :   0.9951
B(  6-C ,  7-H ) :   0.9364 B(  6-C ,  8-H ) :   0.9474 B(  6-C ,  9-C ) :   1.0568
B(  9-C , 10-H ) :   0.9537 B(  9-C , 11-H ) :   0.9500 B(  9-C , 12-C ) :   1.0667
B( 12-C , 13-H ) :   0.9733 B( 12-C , 14-H ) :   0.9721 B( 12-C , 15-H ) :   0.9746
B( 16-S , 17-C ) :   1.1685 B( 16-S , 20-C ) :   1.2123 B( 17-C , 18-C ) :   1.5690
B( 17-C , 20-C ) :   0.1115 B( 17-C , 33-H ) :   0.9560 B( 18-C , 19-C ) :   1.3127
B( 18-C , 21-H ) :   0.9740 B( 19-C , 20-C ) :   1.5228 B( 19-C , 22-C ) :   1.0414
B( 22-C , 23-H ) :   0.9292 B( 22-C , 24-H ) :   0.9347 B( 22-C , 25-C ) :   1.0779
B( 25-C , 26-H ) :   0.9536 B( 25-C , 27-H ) :   0.9492 B( 25-C , 28-C ) :   1.0500
B( 28-C , 29-H ) :   0.9712 B( 28-C , 30-H ) :   0.9819 B( 28-C , 31-H ) :   0.9746

Dispersion correction           -0.014693321
FINAL SINGLE POINT ENERGY     -1339.867765641477

DIPOLE MOMENT
-------------
                                X             Y             Z
Electronic contribution:    -26.08504      12.36057       6.29240
Nuclear contribution   :     26.84322     -12.70950      -6.35632
                        -----------------------------------------
Total Dipole Moment    :      0.75818      -0.34894      -0.06392
                        -----------------------------------------
Magnitude (a.u.)       :      0.83707
Magnitude (Debye)      :      2.12765

Rotational constants in cm-1:     0.018448     0.008984     0.006843
Rotational constants in MHz :   553.057931   269.322129   205.160917

                             ****ORCA TERMINATED NORMALLY****
TOTAL RUN TIME: 0 days 0 hours 0 minutes 35 seconds 403 msec
