                         Program Version 4.2.1 -  RELEASE  -
|  1> ! wB97X-D3 SP def2-SVP
|  2> %pal
|  3> nprocs 16
|  4> end
|  5>
|  6> * xyz 0 1
|  7> S 	 9.06144 	 -6.01498 	 62.9965
|  8> C 	 8.8418 	 -4.32275 	 63.4439
|  9> C 	 10.09 	 -3.74515 	 63.5955
| 10> C 	 11.1588 	 -4.6595 	 63.6296
| 11> C 	 10.771 	 -5.95622 	 63.3524
| 12> H 	 12.1946 	 -4.37971 	 63.7013
| 13> C 	 10.3766 	 -2.31398 	 63.7085
| 14> H 	 9.52571 	 -1.72837 	 63.3398
| 15> H 	 11.2595 	 -1.97869 	 63.1013
| 16> C 	 10.7042 	 -1.82736 	 65.1005
| 17> H 	 10.7958 	 -0.764729 	 64.9287
| 18> H 	 9.78081 	 -1.90294 	 65.724
| 19> C 	 11.8716 	 -2.46401 	 65.9027
| 20> H 	 11.6047 	 -3.49078 	 66.1144
| 21> H 	 12.6997 	 -2.21803 	 65.2266
| 22> H 	 12.0172 	 -1.93893 	 66.8827
| 23> S 	 11.4923 	 -8.26533 	 61.9991
| 24> C 	 12.8142 	 -9.1723 	 62.6407
| 25> C 	 13.1835 	 -8.7692 	 63.9199
| 26> C 	 12.4292 	 -7.64302 	 64.3175
| 27> C 	 11.5929 	 -7.11913 	 63.3275
| 28> H 	 13.9609 	 -9.29055 	 64.4231
| 29> C 	 12.6121 	 -6.96583 	 65.62
| 30> H 	 11.9607 	 -6.0473 	 65.629
| 31> H 	 13.6159 	 -6.61291 	 65.79
| 32> C 	 11.9923 	 -7.67863 	 66.8314
| 33> H 	 12.4013 	 -8.75566 	 67.0018
| 34> H 	 10.8921 	 -7.73418 	 66.6074
| 35> C 	 12.212 	 -6.95481 	 68.1165
| 36> H 	 11.3727 	 -7.05847 	 68.7937
| 37> H 	 12.2259 	 -5.87103 	 67.9774
| 38> H 	 13.1171 	 -7.17993 	 68.6464
| 39> H 	 7.9223 	 -3.79649 	 63.406
| 40> H 	 12.965 	 -10.1531 	 62.2709
| 41> *
| 42>
| 43>                          ****END OF INPUT****

CARTESIAN COORDINATES (ANGSTROEM)
---------------------------------
  S      9.061440   -6.014980   62.996500
  C      8.841800   -4.322750   63.443900
  C     10.090000   -3.745150   63.595500
  C     11.158800   -4.659500   63.629600
  C     10.771000   -5.956220   63.352400
  H     12.194600   -4.379710   63.701300
  C     10.376600   -2.313980   63.708500
  H      9.525710   -1.728370   63.339800
  H     11.259500   -1.978690   63.101300
  C     10.704200   -1.827360   65.100500
  H     10.795800   -0.764729   64.928700
  H      9.780810   -1.902940   65.724000
  C     11.871600   -2.464010   65.902700
  H     11.604700   -3.490780   66.114400
  H     12.699700   -2.218030   65.226600
  H     12.017200   -1.938930   66.882700
  S     11.492300   -8.265330   61.999100
  C     12.814200   -9.172300   62.640700
  C     13.183500   -8.769200   63.919900
  C     12.429200   -7.643020   64.317500
  C     11.592900   -7.119130   63.327500
  H     13.960900   -9.290550   64.423100
  C     12.612100   -6.965830   65.620000
  H     11.960700   -6.047300   65.629000
  H     13.615900   -6.612910   65.790000
  C     11.992300   -7.678630   66.831400
  H     12.401300   -8.755660   67.001800
  H     10.892100   -7.734180   66.607400
  C     12.212000   -6.954810   68.116500
  H     11.372700   -7.058470   68.793700
  H     12.225900   -5.871030   67.977400
  H     13.117100   -7.179930   68.646400
  H      7.922300   -3.796490   63.406000
  H     12.965000  -10.153100   62.270900

 Total Charge           Charge          ....    0
 Multiplicity           Mult            ....    1
 Number of Electrons    NEL             ....  134
 Basis Dimension        Dim             ....  322

ORBITAL ENERGIES
----------------

  NO   OCC          E(Eh)            E(eV)
   0   2.0000     -88.966292     -2420.8959
   1   2.0000     -88.964665     -2420.8516
   2   2.0000     -10.327791      -281.0335
   3   2.0000     -10.324222      -280.9364
   4   2.0000     -10.314118      -280.6614
   5   2.0000     -10.312864      -280.6273
   6   2.0000     -10.301107      -280.3074
   7   2.0000     -10.295751      -280.1616
   8   2.0000     -10.293555      -280.1019
   9   2.0000     -10.290981      -280.0318
  10   2.0000     -10.290559      -280.0204
  11   2.0000     -10.290012      -280.0055
  12   2.0000     -10.285936      -279.8946
  13   2.0000     -10.284673      -279.8602
  14   2.0000     -10.284234      -279.8482
  15   2.0000     -10.270284      -279.4686
  16   2.0000      -8.080918      -219.8930
  17   2.0000      -8.079954      -219.8667
  18   2.0000      -6.039445      -164.3417
  19   2.0000      -6.038281      -164.3100
  20   2.0000      -6.035498      -164.2343
  21   2.0000      -6.034377      -164.2037
  22   2.0000      -6.031604      -164.1283
  23   2.0000      -6.030894      -164.1090
  24   2.0000      -1.011489       -27.5240
  25   2.0000      -0.988386       -26.8953
  26   2.0000      -0.919248       -25.0140
  27   2.0000      -0.911939       -24.8151
  28   2.0000      -0.873419       -23.7669
  29   2.0000      -0.856341       -23.3022
  30   2.0000      -0.845576       -23.0093
  31   2.0000      -0.818151       -22.2630
  32   2.0000      -0.787883       -21.4394
  33   2.0000      -0.771939       -21.0055
  34   2.0000      -0.708010       -19.2659
  35   2.0000      -0.697864       -18.9899
  36   2.0000      -0.689387       -18.7592
  37   2.0000      -0.661849       -18.0098
  38   2.0000      -0.643383       -17.5074
  39   2.0000      -0.620657       -16.8889
  40   2.0000      -0.600425       -16.3384
  41   2.0000      -0.580803       -15.8045
  42   2.0000      -0.568643       -15.4736
  43   2.0000      -0.552230       -15.0269
  44   2.0000      -0.541469       -14.7341
  45   2.0000      -0.524368       -14.2688
  46   2.0000      -0.518733       -14.1155
  47   2.0000      -0.511682       -13.9236
  48   2.0000      -0.509907       -13.8753
  49   2.0000      -0.505102       -13.7445
  50   2.0000      -0.498518       -13.5654
  51   2.0000      -0.484264       -13.1775
  52   2.0000      -0.473544       -12.8858
  53   2.0000      -0.460712       -12.5366
  54   2.0000      -0.456283       -12.4161
  55   2.0000      -0.451116       -12.2755
  56   2.0000      -0.445407       -12.1201
  57   2.0000      -0.442654       -12.0452
  58   2.0000      -0.429317       -11.6823
  59   2.0000      -0.419555       -11.4167
  60   2.0000      -0.418678       -11.3928
  61   2.0000      -0.405601       -11.0370
  62   2.0000      -0.404464       -11.0060
  63   2.0000      -0.346837        -9.4379
  64   2.0000      -0.332643        -9.0517
  65   2.0000      -0.329509        -8.9664
  66   2.0000      -0.288389        -7.8475
  67   0.0000       0.024194         0.6583
  68   0.0000       0.064662         1.7595
  69   0.0000       0.105829         2.8798
  70   0.0000       0.118251         3.2178
  71   0.0000       0.127849         3.4790

MULLIKEN ATOMIC CHARGES
-----------------------
   0 S :    0.108604
   1 C :   -0.112631
   2 C :   -0.060206
   3 C :    0.013151
   4 C :   -0.142231
   5 H :    0.015888
   6 C :    0.041613
   7 H :    0.019658
   8 H :    0.035407
   9 C :   -0.106334
  10 H :    0.024335
  11 H :    0.016982
  12 C :   -0.048650
  13 H :    0.057906
  14 H :    0.036285
  15 H :    0.046881
  16 S :    0.102775
  17 C :   -0.077363
  18 C :   -0.026386
  19 C :   -0.004675
  20 C :   -0.153158
  21 H :    0.013528
  22 C :    0.032050
  23 H :    0.028809
  24 H :    0.031034
  25 C :   -0.116421
  26 H :    0.038806
  27 H :    0.042386
  28 C :   -0.016645
  29 H :    0.028304
  30 H :    0.008271
  31 H :    0.032241
  32 H :    0.036243
  33 H :    0.053545
Sum of atomic charges:    0.0000000

LOEWDIN ATOMIC CHARGES
----------------------
   0 S :    0.402281
   1 C :   -0.188993
   2 C :   -0.066154
   3 C :   -0.058931
   4 C :   -0.191152
   5 H :    0.032832
   6 C :   -0.040166
   7 H :    0.033467
   8 H :    0.036170
   9 C :   -0.046123
  10 H :    0.020295
  11 H :    0.019419
  12 C :   -0.066955
  13 H :    0.025767
  14 H :    0.027688
  15 H :    0.035641
  16 S :    0.412102
  17 C :   -0.184660
  18 C :   -0.060302
  19 C :   -0.052296
  20 C :   -0.200743
  21 H :    0.030699
  22 C :   -0.042467
  23 H :    0.037510
  24 H :    0.025375
  25 C :   -0.046648
  26 H :    0.027096
  27 H :    0.032690
  28 C :   -0.071294
  29 H :    0.028791
  30 H :    0.022410
  31 H :    0.023515
  32 H :    0.022823
  33 H :    0.020314

  Mayer bond orders larger than 0.100000
B(  0-S ,  1-C ) :   1.1297 B(  0-S ,  4-C ) :   1.1542 B(  1-C ,  2-C ) :   1.5878
B(  1-C ,  4-C ) :   0.1042 B(  1-C , 32-H ) :   0.9764 B(  2-C ,  3-C ) :   1.2437
B(  2-C ,  6-C ) :   1.0398 B(  3-C ,  4-C ) :   1.5378 B(  3-C ,  5-H ) :   1.0020
B(  4-C , 20-C ) :   1.0759 B(  6-C ,  7-H ) :   0.9300 B(  6-C ,  8-H ) :   0.9399
B(  6-C ,  9-C ) :   1.0812 B(  9-C , 10-H ) :   0.9580 B(  9-C , 11-H ) :   0.9489
B(  9-C , 12-C ) :   1.0751 B( 12-C , 13-H ) :   0.9664 B( 12-C , 14-H ) :   0.9740
B( 12-C , 15-H ) :   0.9688 B( 16-S , 17-C ) :   1.1780 B( 16-S , 20-C ) :   1.1358
B( 17-C , 18-C ) :   1.5763 B( 17-C , 20-C ) :   0.1069 B( 17-C , 33-H ) :   0.9649
B( 18-C , 19-C ) :   1.2503 B( 18-C , 21-H ) :   1.0054 B( 19-C , 20-C ) :   1.5554
B( 19-C , 22-C ) :   1.0586 B( 22-C , 23-H ) :   0.9222 B( 22-C , 24-H ) :   0.9413
B( 22-C , 25-C ) :   1.0546 B( 25-C , 26-H ) :   0.9558 B( 25-C , 27-H ) :   0.9559
B( 25-C , 28-C ) :   1.0871 B( 28-C , 29-H ) :   0.9715 B( 28-C , 30-H ) :   0.9658
B( 28-C , 31-H ) :   0.9729

Dispersion correction           -0.015164753
FINAL SINGLE POINT ENERGY     -1339.872590500298

DIPOLE MOMENT
-------------
                                X             Y             Z
Electronic contribution:     -8.26798     -15.90860     -24.06587
Nuclear contribution   :      8.50666      16.30378      24.49399
                        -----------------------------------------
Total Dipole Moment    :      0.23867       0.39517       0.42812
                        -----------------------------------------
Magnitude (a.u.)       :      0.62962
Magnitude (Debye)      :      1.60036

Rotational constants in cm-1:     0.017200     0.010395     0.007546
Rotational constants in MHz :   515.638966   311.638073   226.228539

                             ****ORCA TERMINATED NORMALLY****
TOTAL RUN TIME: 0 days 0 hours 0 minutes 38 seconds 195 msec
