                         Program Version 4.2.1 -  RELEASE  -
|  1> ! wB97X-D3 SP def2-SVP
|  2> %pal
|  3> nprocs 16
|  4> end
|  5>
|  6> * xyz 0 1
|  7> S 	 -101.334 	 55.1045 	 115.101
|  8> C 	 -99.9104 	 54.9853 	 114.113
|  9> C 	 -98.8623 	 54.3266 	 114.716
| 10> C 	 -99.2733 	 53.8099 	 116.015
| 11> C 	 -100.467 	 54.3133 	 116.446
| 12> H 	 -98.6734 	 53.1955 	 116.708
| 13> C 	 -97.4886 	 54.2009 	 114.104
| 14> H 	 -96.9535 	 55.1112 	 114.138
| 15> H 	 -97.4232 	 54.1877 	 113.056
| 16> C 	 -96.6285 	 53.0832 	 114.671
| 17> H 	 -96.4696 	 53.1712 	 115.671
| 18> H 	 -97.0766 	 52.0554 	 114.449
| 19> C 	 -95.2342 	 53.0424 	 113.936
| 20> H 	 -95.2494 	 53.0482 	 112.862
| 21> H 	 -94.6109 	 53.8747 	 114.124
| 22> H 	 -94.6558 	 52.1226 	 114.188
| 23> S 	 -101.563 	 52.4188 	 118.048
| 24> C 	 -101.902 	 52.6691 	 119.712
| 25> C 	 -101.743 	 54.0159 	 119.96
| 26> C 	 -101.219 	 54.8578 	 118.866
| 27> C 	 -100.996 	 54.0382 	 117.745
| 28> H 	 -102.068 	 54.4149 	 120.947
| 29> C 	 -100.957 	 56.3277 	 118.842
| 30> H 	 -101.679 	 56.9384 	 119.44
| 31> H 	 -101.024 	 56.7458 	 117.802
| 32> C 	 -99.5213 	 56.7654 	 119.204
| 33> H 	 -99.4144 	 56.3786 	 120.163
| 34> H 	 -99.4207 	 57.8652 	 119.469
| 35> C 	 -98.3773 	 56.2811 	 118.287
| 36> H 	 -98.6093 	 56.6277 	 117.301
| 37> H 	 -98.1718 	 55.1853 	 118.257
| 38> H 	 -97.4845 	 56.7572 	 118.749
| 39> H 	 -99.818 	 55.4704 	 113.197
| 40> H 	 -102.454 	 52.0312 	 120.372
| 41> *
| 42>
| 43>                          ****END OF INPUT****

CARTESIAN COORDINATES (ANGSTROEM)
---------------------------------
  S    -101.334000   55.104500  115.101000
  C    -99.910400   54.985300  114.113000
  C    -98.862300   54.326600  114.716000
  C    -99.273300   53.809900  116.015000
  C    -100.467000   54.313300  116.446000
  H    -98.673400   53.195500  116.708000
  C    -97.488600   54.200900  114.104000
  H    -96.953500   55.111200  114.138000
  H    -97.423200   54.187700  113.056000
  C    -96.628500   53.083200  114.671000
  H    -96.469600   53.171200  115.671000
  H    -97.076600   52.055400  114.449000
  C    -95.234200   53.042400  113.936000
  H    -95.249400   53.048200  112.862000
  H    -94.610900   53.874700  114.124000
  H    -94.655800   52.122600  114.188000
  S    -101.563000   52.418800  118.048000
  C    -101.902000   52.669100  119.712000
  C    -101.743000   54.015900  119.960000
  C    -101.219000   54.857800  118.866000
  C    -100.996000   54.038200  117.745000
  H    -102.068000   54.414900  120.947000
  C    -100.957000   56.327700  118.842000
  H    -101.679000   56.938400  119.440000
  H    -101.024000   56.745800  117.802000
  C    -99.521300   56.765400  119.204000
  H    -99.414400   56.378600  120.163000
  H    -99.420700   57.865200  119.469000
  C    -98.377300   56.281100  118.287000
  H    -98.609300   56.627700  117.301000
  H    -98.171800   55.185300  118.257000
  H    -97.484500   56.757200  118.749000
  H    -99.818000   55.470400  113.197000
  H    -102.454000   52.031200  120.372000

 Total Charge           Charge          ....    0
 Multiplicity           Mult            ....    1
 Number of Electrons    NEL             ....  134
 Basis Dimension        Dim             ....  322

ORBITAL ENERGIES
----------------

  NO   OCC          E(Eh)            E(eV)
   0   2.0000     -88.967663     -2420.9332
   1   2.0000     -88.962112     -2420.7821
   2   2.0000     -10.326495      -280.9982
   3   2.0000     -10.324591      -280.9464
   4   2.0000     -10.314451      -280.6705
   5   2.0000     -10.310056      -280.5509
   6   2.0000     -10.308789      -280.5164
   7   2.0000     -10.305309      -280.4217
   8   2.0000     -10.300537      -280.2919
   9   2.0000     -10.299510      -280.2639
  10   2.0000     -10.294189      -280.1191
  11   2.0000     -10.289565      -279.9933
  12   2.0000     -10.286021      -279.8969
  13   2.0000     -10.280302      -279.7412
  14   2.0000     -10.278115      -279.6817
  15   2.0000     -10.275614      -279.6137
  16   2.0000      -8.081826      -219.9177
  17   2.0000      -8.077528      -219.8007
  18   2.0000      -6.040390      -164.3674
  19   2.0000      -6.036518      -164.2620
  20   2.0000      -6.036017      -164.2484
  21   2.0000      -6.032449      -164.1513
  22   2.0000      -6.031767      -164.1327
  23   2.0000      -6.028405      -164.0413
  24   2.0000      -1.007646       -27.4195
  25   2.0000      -0.983917       -26.7737
  26   2.0000      -0.914783       -24.8925
  27   2.0000      -0.906311       -24.6620
  28   2.0000      -0.875389       -23.8205
  29   2.0000      -0.846325       -23.0297
  30   2.0000      -0.841053       -22.8862
  31   2.0000      -0.815936       -22.2028
  32   2.0000      -0.783320       -21.3152
  33   2.0000      -0.773146       -21.0384
  34   2.0000      -0.720974       -19.6187
  35   2.0000      -0.700226       -19.0541
  36   2.0000      -0.691943       -18.8287
  37   2.0000      -0.659052       -17.9337
  38   2.0000      -0.642582       -17.4855
  39   2.0000      -0.621092       -16.9008
  40   2.0000      -0.596582       -16.2338
  41   2.0000      -0.569340       -15.4925
  42   2.0000      -0.565898       -15.3989
  43   2.0000      -0.546772       -14.8784
  44   2.0000      -0.539745       -14.6872
  45   2.0000      -0.526510       -14.3271
  46   2.0000      -0.514876       -14.0105
  47   2.0000      -0.507870       -13.8198
  48   2.0000      -0.506445       -13.7811
  49   2.0000      -0.502622       -13.6770
  50   2.0000      -0.489343       -13.3157
  51   2.0000      -0.476565       -12.9680
  52   2.0000      -0.472069       -12.8456
  53   2.0000      -0.467642       -12.7252
  54   2.0000      -0.460066       -12.5190
  55   2.0000      -0.450353       -12.2547
  56   2.0000      -0.443885       -12.0787
  57   2.0000      -0.434508       -11.8236
  58   2.0000      -0.429332       -11.6827
  59   2.0000      -0.425928       -11.5901
  60   2.0000      -0.418550       -11.3893
  61   2.0000      -0.415637       -11.3100
  62   2.0000      -0.404902       -11.0179
  63   2.0000      -0.336581        -9.1588
  64   2.0000      -0.329077        -8.9546
  65   2.0000      -0.322337        -8.7712
  66   2.0000      -0.304107        -8.2752
  67   0.0000       0.038525         1.0483
  68   0.0000       0.055642         1.5141
  69   0.0000       0.108089         2.9413
  70   0.0000       0.121446         3.3047
  71   0.0000       0.126127         3.4321

MULLIKEN ATOMIC CHARGES
-----------------------
   0 S :    0.122139
   1 C :   -0.101035
   2 C :   -0.043476
   3 C :    0.004674
   4 C :   -0.148843
   5 H :    0.035010
   6 C :    0.100321
   7 H :    0.011298
   8 H :   -0.008423
   9 C :   -0.068218
  10 H :    0.022714
  11 H :    0.047903
  12 C :   -0.057851
  13 H :    0.018704
  14 H :    0.018163
  15 H :    0.037853
  16 S :    0.119676
  17 C :   -0.076242
  18 C :   -0.072020
  19 C :    0.017461
  20 C :   -0.210627
  21 H :    0.027123
  22 C :    0.035551
  23 H :    0.034338
  24 H :    0.027039
  25 C :   -0.078182
  26 H :   -0.003099
  27 H :    0.033443
  28 C :   -0.038311
  29 H :    0.035139
  30 H :    0.040892
  31 H :    0.036553
  32 H :    0.021851
  33 H :    0.058480
Sum of atomic charges:   -0.0000000

LOEWDIN ATOMIC CHARGES
----------------------
   0 S :    0.397018
   1 C :   -0.186269
   2 C :   -0.054738
   3 C :   -0.049812
   4 C :   -0.195115
   5 H :    0.035698
   6 C :   -0.038193
   7 H :    0.032878
   8 H :    0.027573
   9 C :   -0.026693
  10 H :    0.009092
  11 H :    0.036087
  12 C :   -0.067683
  13 H :    0.020874
  14 H :    0.016769
  15 H :    0.031972
  16 S :    0.428450
  17 C :   -0.204746
  18 C :   -0.074292
  19 C :   -0.052801
  20 C :   -0.201433
  21 H :    0.031708
  22 C :   -0.044519
  23 H :    0.037208
  24 H :    0.030893
  25 C :   -0.046777
  26 H :    0.009246
  27 H :    0.032183
  28 C :   -0.064416
  29 H :    0.021162
  30 H :    0.028403
  31 H :    0.032700
  32 H :    0.014678
  33 H :    0.032895

  Mayer bond orders larger than 0.100000
B(  0-S ,  1-C ) :   1.1354 B(  0-S ,  4-C ) :   1.1198 B(  1-C ,  2-C ) :   1.6379
B(  1-C , 32-H ) :   0.9747 B(  2-C ,  3-C ) :   1.2098 B(  2-C ,  6-C ) :   1.0159
B(  3-C ,  4-C ) :   1.6027 B(  3-C ,  5-H ) :   0.9842 B(  4-C , 20-C ) :   1.0466
B(  6-C ,  7-H ) :   0.9218 B(  6-C ,  8-H ) :   0.9287 B(  6-C ,  9-C ) :   1.0730
B(  9-C , 10-H ) :   0.9498 B(  9-C , 11-H ) :   0.9616 B(  9-C , 12-C ) :   1.0766
B( 12-C , 13-H ) :   0.9757 B( 12-C , 14-H ) :   0.9755 B( 12-C , 15-H ) :   0.9754
B( 16-S , 17-C ) :   1.1502 B( 16-S , 20-C ) :   1.1707 B( 17-C , 18-C ) :   1.6104
B( 17-C , 33-H ) :   0.9690 B( 18-C , 19-C ) :   1.2358 B( 18-C , 21-H ) :   0.9792
B( 19-C , 20-C ) :   1.5557 B( 19-C , 22-C ) :   1.0566 B( 22-C , 23-H ) :   0.9332
B( 22-C , 24-H ) :   0.9341 B( 22-C , 25-C ) :   1.0666 B( 25-C , 26-H ) :   0.9474
B( 25-C , 27-H ) :   0.9548 B( 25-C , 28-C ) :   1.0767 B( 28-C , 29-H ) :   0.9755
B( 28-C , 30-H ) :   0.9690 B( 28-C , 31-H ) :   0.9697

Dispersion correction           -0.015712636
FINAL SINGLE POINT ENERGY     -1339.858880033998

DIPOLE MOMENT
-------------
                                X             Y             Z
Electronic contribution:    -24.88149      -6.84104       1.51592
Nuclear contribution   :     25.35589       7.09248      -1.47077
                        -----------------------------------------
Total Dipole Moment    :      0.47440       0.25144       0.04516
                        -----------------------------------------
Magnitude (a.u.)       :      0.53881
Magnitude (Debye)      :      1.36955

Rotational constants in cm-1:     0.019598     0.008357     0.008024
Rotational constants in MHz :   587.543002   250.551499   240.566089

                             ****ORCA TERMINATED NORMALLY****
TOTAL RUN TIME: 0 days 0 hours 0 minutes 37 seconds 224 msec
