                         Program Version 4.2.1 -  RELEASE  -
|  1> ! wB97X-D3 SP def2-SVP
|  2> %pal
|  3> nprocs 16
|  4> end
|  5>
|  6> * xyz 0 1
|  7> S 	 -2.06002 	 -24.6998 	 55.6332
|  8> C 	 -2.478 	 -24.9252 	 57.311
|  9> C 	 -1.62344 	 -24.3316 	 58.1881
| 10> C 	 -0.576108 	 -23.6395 	 57.5201
| 11> C 	 -0.679754 	 -23.7148 	 56.1265
| 12> H 	 0.30596 	 -23.1031 	 57.8957
| 13> C 	 -1.96591 	 -24.061 	 59.6266
| 14> H 	 -0.937695 	 -24.0628 	 60.1152
| 15> H 	 -2.51107 	 -24.8316 	 60.1451
| 16> C 	 -2.60118 	 -22.6866 	 59.8667
| 17> H 	 -2.45459 	 -22.4044 	 60.9139
| 18> H 	 -2.03377 	 -21.8862 	 59.3202
| 19> C 	 -4.17499 	 -22.5895 	 59.67
| 20> H 	 -4.53724 	 -21.6463 	 60.0966
| 21> H 	 -4.39275 	 -22.5879 	 58.5978
| 22> H 	 -4.76588 	 -23.3915 	 59.9311
| 23> S 	 1.16258 	 -24.0891 	 54.109
| 24> C 	 1.83144 	 -22.7351 	 53.3083
| 25> C 	 1.40525 	 -21.5363 	 53.9022
| 26> C 	 0.500297 	 -21.6765 	 54.9604
| 27> C 	 0.200637 	 -23.0531 	 55.1689
| 28> H 	 1.62502 	 -20.5134 	 53.4769
| 29> C 	 -0.153928 	 -20.5492 	 55.7454
| 30> H 	 -1.02729 	 -21.0002 	 56.3141
| 31> H 	 -0.638965 	 -19.9719 	 55.0006
| 32> C 	 0.828918 	 -19.7746 	 56.6313
| 33> H 	 0.266129 	 -18.8536 	 56.8915
| 34> H 	 1.7607 	 -19.4446 	 56.1553
| 35> C 	 1.34968 	 -20.5788 	 57.8748
| 36> H 	 0.511784 	 -20.8527 	 58.5206
| 37> H 	 1.8929 	 -19.9401 	 58.5674
| 38> H 	 1.96935 	 -21.5027 	 57.6967
| 39> H 	 -3.35807 	 -25.4838 	 57.632
| 40> H 	 2.55965 	 -22.7585 	 52.5377
| 41> *
| 42>
| 43>                          ****END OF INPUT****

CARTESIAN COORDINATES (ANGSTROEM)
---------------------------------
  S     -2.060020  -24.699800   55.633200
  C     -2.478000  -24.925200   57.311000
  C     -1.623440  -24.331600   58.188100
  C     -0.576108  -23.639500   57.520100
  C     -0.679754  -23.714800   56.126500
  H      0.305960  -23.103100   57.895700
  C     -1.965910  -24.061000   59.626600
  H     -0.937695  -24.062800   60.115200
  H     -2.511070  -24.831600   60.145100
  C     -2.601180  -22.686600   59.866700
  H     -2.454590  -22.404400   60.913900
  H     -2.033770  -21.886200   59.320200
  C     -4.174990  -22.589500   59.670000
  H     -4.537240  -21.646300   60.096600
  H     -4.392750  -22.587900   58.597800
  H     -4.765880  -23.391500   59.931100
  S      1.162580  -24.089100   54.109000
  C      1.831440  -22.735100   53.308300
  C      1.405250  -21.536300   53.902200
  C      0.500297  -21.676500   54.960400
  C      0.200637  -23.053100   55.168900
  H      1.625020  -20.513400   53.476900
  C     -0.153928  -20.549200   55.745400
  H     -1.027290  -21.000200   56.314100
  H     -0.638965  -19.971900   55.000600
  C      0.828918  -19.774600   56.631300
  H      0.266129  -18.853600   56.891500
  H      1.760700  -19.444600   56.155300
  C      1.349680  -20.578800   57.874800
  H      0.511784  -20.852700   58.520600
  H      1.892900  -19.940100   58.567400
  H      1.969350  -21.502700   57.696700
  H     -3.358070  -25.483800   57.632000
  H      2.559650  -22.758500   52.537700

 Total Charge           Charge          ....    0
 Multiplicity           Mult            ....    1
 Number of Electrons    NEL             ....  134
 Basis Dimension        Dim             ....  322

ORBITAL ENERGIES
----------------

  NO   OCC          E(Eh)            E(eV)
   0   2.0000     -88.966732     -2420.9078
   1   2.0000     -88.965764     -2420.8815
   2   2.0000     -10.327548      -281.0269
   3   2.0000     -10.325070      -280.9594
   4   2.0000     -10.314673      -280.6765
   5   2.0000     -10.310464      -280.5620
   6   2.0000     -10.302445      -280.3438
   7   2.0000     -10.297368      -280.2056
   8   2.0000     -10.296335      -280.1775
   9   2.0000     -10.295281      -280.1489
  10   2.0000     -10.294926      -280.1392
  11   2.0000     -10.294668      -280.1322
  12   2.0000     -10.294466      -280.1267
  13   2.0000     -10.294383      -280.1244
  14   2.0000     -10.285613      -279.8858
  15   2.0000     -10.275069      -279.5988
  16   2.0000      -8.081710      -219.9145
  17   2.0000      -8.080422      -219.8794
  18   2.0000      -6.039987      -164.3564
  19   2.0000      -6.038787      -164.3238
  20   2.0000      -6.036028      -164.2487
  21   2.0000      -6.035027      -164.2214
  22   2.0000      -6.032858      -164.1624
  23   2.0000      -6.031254      -164.1188
  24   2.0000      -1.003807       -27.3150
  25   2.0000      -0.983993       -26.7758
  26   2.0000      -0.907925       -24.7059
  27   2.0000      -0.906904       -24.6781
  28   2.0000      -0.862721       -23.4758
  29   2.0000      -0.848608       -23.0918
  30   2.0000      -0.844825       -22.9889
  31   2.0000      -0.808166       -21.9913
  32   2.0000      -0.786295       -21.3962
  33   2.0000      -0.774825       -21.0841
  34   2.0000      -0.709676       -19.3113
  35   2.0000      -0.700579       -19.0637
  36   2.0000      -0.694926       -18.9099
  37   2.0000      -0.652053       -17.7433
  38   2.0000      -0.642118       -17.4729
  39   2.0000      -0.615703       -16.7541
  40   2.0000      -0.596778       -16.2392
  41   2.0000      -0.563031       -15.3209
  42   2.0000      -0.551989       -15.0204
  43   2.0000      -0.544343       -14.8123
  44   2.0000      -0.537475       -14.6254
  45   2.0000      -0.530458       -14.4345
  46   2.0000      -0.519003       -14.1228
  47   2.0000      -0.513672       -13.9777
  48   2.0000      -0.496373       -13.5070
  49   2.0000      -0.489904       -13.3310
  50   2.0000      -0.485995       -13.2246
  51   2.0000      -0.481567       -13.1041
  52   2.0000      -0.470726       -12.8091
  53   2.0000      -0.466129       -12.6840
  54   2.0000      -0.458422       -12.4743
  55   2.0000      -0.448734       -12.2107
  56   2.0000      -0.444114       -12.0850
  57   2.0000      -0.442715       -12.0469
  58   2.0000      -0.438128       -11.9221
  59   2.0000      -0.431651       -11.7458
  60   2.0000      -0.418851       -11.3975
  61   2.0000      -0.416363       -11.3298
  62   2.0000      -0.402180       -10.9439
  63   2.0000      -0.337442        -9.1823
  64   2.0000      -0.331968        -9.0333
  65   2.0000      -0.328244        -8.9320
  66   2.0000      -0.293454        -7.9853
  67   0.0000       0.034377         0.9354
  68   0.0000       0.064060         1.7432
  69   0.0000       0.117118         3.1869
  70   0.0000       0.122399         3.3306
  71   0.0000       0.127470         3.4686

MULLIKEN ATOMIC CHARGES
-----------------------
   0 S :    0.118101
   1 C :   -0.123159
   2 C :   -0.041288
   3 C :    0.025103
   4 C :   -0.181597
   5 H :    0.003209
   6 C :    0.046917
   7 H :    0.031277
   8 H :    0.021636
   9 C :   -0.081536
  10 H :    0.028069
  11 H :    0.038092
  12 C :   -0.030913
  13 H :    0.039700
  14 H :    0.025862
  15 H :    0.011496
  16 S :    0.125177
  17 C :   -0.074563
  18 C :   -0.065438
  19 C :   -0.028918
  20 C :   -0.207756
  21 H :    0.032072
  22 C :    0.079160
  23 H :    0.045886
  24 H :    0.022227
  25 C :   -0.065750
  26 H :    0.037600
  27 H :    0.038791
  28 C :   -0.084418
  29 H :    0.023538
  30 H :    0.028741
  31 H :    0.070518
  32 H :    0.046294
  33 H :    0.045872
Sum of atomic charges:    0.0000000

LOEWDIN ATOMIC CHARGES
----------------------
   0 S :    0.399842
   1 C :   -0.194544
   2 C :   -0.074214
   3 C :   -0.058379
   4 C :   -0.196953
   5 H :    0.035846
   6 C :   -0.034419
   7 H :    0.039272
   8 H :    0.025999
   9 C :   -0.038898
  10 H :    0.023265
  11 H :    0.028802
  12 C :   -0.065922
  13 H :    0.030261
  14 H :    0.027646
  15 H :    0.013123
  16 S :    0.427777
  17 C :   -0.197047
  18 C :   -0.082823
  19 C :   -0.053964
  20 C :   -0.207972
  21 H :    0.038049
  22 C :   -0.033053
  23 H :    0.042789
  24 H :    0.027904
  25 C :   -0.038522
  26 H :    0.031001
  27 H :    0.026950
  28 C :   -0.075872
  29 H :    0.020715
  30 H :    0.026935
  31 H :    0.034937
  32 H :    0.028369
  33 H :    0.023099

  Mayer bond orders larger than 0.100000
B(  0-S ,  1-C ) :   1.1373 B(  0-S ,  4-C ) :   1.1487 B(  1-C ,  2-C ) :   1.6266
B(  1-C , 32-H ) :   0.9636 B(  2-C ,  3-C ) :   1.2097 B(  2-C ,  6-C ) :   1.0418
B(  3-C ,  4-C ) :   1.5854 B(  3-C ,  5-H ) :   0.9879 B(  4-C , 20-C ) :   1.0350
B(  6-C ,  7-H ) :   0.9326 B(  6-C ,  8-H ) :   0.9448 B(  6-C ,  9-C ) :   1.0690
B(  9-C , 10-H ) :   0.9582 B(  9-C , 11-H ) :   0.9539 B(  9-C , 12-C ) :   1.0624
B( 12-C , 13-H ) :   0.9770 B( 12-C , 14-H ) :   0.9741 B( 12-C , 15-H ) :   0.9767
B( 16-S , 17-C ) :   1.1790 B( 16-S , 20-C ) :   1.1695 B( 17-C , 18-C ) :   1.5562
B( 17-C , 20-C ) :   0.1138 B( 17-C , 33-H ) :   0.9737 B( 18-C , 19-C ) :   1.3040
B( 18-C , 21-H ) :   0.9753 B( 19-C , 20-C ) :   1.5349 B( 19-C , 22-C ) :   1.0268
B( 22-C , 23-H ) :   0.9360 B( 22-C , 24-H ) :   0.9309 B( 22-C , 25-C ) :   1.0614
B( 25-C , 26-H ) :   0.9551 B( 25-C , 27-H ) :   0.9621 B( 25-C , 28-C ) :   1.0669
B( 28-C , 29-H ) :   0.9700 B( 28-C , 30-H ) :   0.9672 B( 28-C , 31-H ) :   0.9668

Dispersion correction           -0.016176696
FINAL SINGLE POINT ENERGY     -1339.880351754207

DIPOLE MOMENT
-------------
                                X             Y             Z
Electronic contribution:      5.15652     -17.74864     -22.58757
Nuclear contribution   :     -5.19530      18.33072      23.01122
                        -----------------------------------------
Total Dipole Moment    :     -0.03877       0.58208       0.42365
                        -----------------------------------------
Magnitude (a.u.)       :      0.72097
Magnitude (Debye)      :      1.83256

Rotational constants in cm-1:     0.019917     0.009797     0.007384
Rotational constants in MHz :   597.093825   293.705574   221.372029

                             ****ORCA TERMINATED NORMALLY****
TOTAL RUN TIME: 0 days 0 hours 0 minutes 37 seconds 509 msec
