                         Program Version 4.2.1 -  RELEASE  -
|  1> ! wB97X-D3 SP def2-SVP
|  2> %pal
|  3> nprocs 16
|  4> end
|  5>
|  6> * xyz 0 1
|  7> S 	 52.8735 	 -1.23341 	 85.6509
|  8> C 	 52.2208 	 -1.54479 	 84.0306
|  9> C 	 53.1315 	 -2.17577 	 83.2304
| 10> C 	 54.3143 	 -2.52333 	 83.9903
| 11> C 	 54.3266 	 -2.1698 	 85.3186
| 12> H 	 55.1712 	 -3.07256 	 83.662
| 13> C 	 52.9345 	 -2.5285 	 81.8305
| 14> H 	 51.8966 	 -2.93978 	 81.6836
| 15> H 	 53.5772 	 -3.36119 	 81.6032
| 16> C 	 53.161 	 -1.42043 	 80.8015
| 17> H 	 52.9555 	 -0.407235 	 81.2251
| 18> H 	 54.1852 	 -1.50239 	 80.518
| 19> C 	 52.2606 	 -1.51975 	 79.4854
| 20> H 	 52.4448 	 -2.4163 	 78.9025
| 21> H 	 51.2547 	 -1.42288 	 79.6656
| 22> H 	 52.4215 	 -0.585799 	 78.8215
| 23> S 	 54.6433 	 -3.29707 	 87.7181
| 24> C 	 56.257 	 -3.55869 	 88.3442
| 25> C 	 57.2209 	 -3.0819 	 87.5177
| 26> C 	 56.6991 	 -2.42429 	 86.378
| 27> C 	 55.3045 	 -2.5539 	 86.307
| 28> H 	 58.2709 	 -3.06788 	 87.7996
| 29> C 	 57.4638 	 -1.58231 	 85.4784
| 30> H 	 56.667 	 -1.11785 	 84.8904
| 31> H 	 57.9982 	 -2.19382 	 84.7354
| 32> C 	 58.4371 	 -0.548368 	 86.0468
| 33> H 	 59.2939 	 -0.930151 	 86.4783
| 34> H 	 57.9705 	 -0.000921629 	 86.8336
| 35> C 	 58.8984 	 0.53033 	 85.0296
| 36> H 	 57.9954 	 0.951801 	 84.6172
| 37> H 	 59.4706 	 0.0904505 	 84.1934
| 38> H 	 59.5553 	 1.20607 	 85.4689
| 39> H 	 51.2272 	 -1.22744 	 83.6492
| 40> H 	 56.3609 	 -4.11162 	 89.2774
| 41> *
| 42>
| 43>                          ****END OF INPUT****

CARTESIAN COORDINATES (ANGSTROEM)
---------------------------------
  S     52.873500   -1.233410   85.650900
  C     52.220800   -1.544790   84.030600
  C     53.131500   -2.175770   83.230400
  C     54.314300   -2.523330   83.990300
  C     54.326600   -2.169800   85.318600
  H     55.171200   -3.072560   83.662000
  C     52.934500   -2.528500   81.830500
  H     51.896600   -2.939780   81.683600
  H     53.577200   -3.361190   81.603200
  C     53.161000   -1.420430   80.801500
  H     52.955500   -0.407235   81.225100
  H     54.185200   -1.502390   80.518000
  C     52.260600   -1.519750   79.485400
  H     52.444800   -2.416300   78.902500
  H     51.254700   -1.422880   79.665600
  H     52.421500   -0.585799   78.821500
  S     54.643300   -3.297070   87.718100
  C     56.257000   -3.558690   88.344200
  C     57.220900   -3.081900   87.517700
  C     56.699100   -2.424290   86.378000
  C     55.304500   -2.553900   86.307000
  H     58.270900   -3.067880   87.799600
  C     57.463800   -1.582310   85.478400
  H     56.667000   -1.117850   84.890400
  H     57.998200   -2.193820   84.735400
  C     58.437100   -0.548368   86.046800
  H     59.293900   -0.930151   86.478300
  H     57.970500   -0.000922   86.833600
  C     58.898400    0.530330   85.029600
  H     57.995400    0.951801   84.617200
  H     59.470600    0.090450   84.193400
  H     59.555300    1.206070   85.468900
  H     51.227200   -1.227440   83.649200
  H     56.360900   -4.111620   89.277400

 Total Charge           Charge          ....    0
 Multiplicity           Mult            ....    1
 Number of Electrons    NEL             ....  134
 Basis Dimension        Dim             ....  322

ORBITAL ENERGIES
----------------

  NO   OCC          E(Eh)            E(eV)
   0   2.0000     -88.964461     -2420.8461
   1   2.0000     -88.963071     -2420.8082
   2   2.0000     -10.326835      -281.0075
   3   2.0000     -10.322991      -280.9029
   4   2.0000     -10.316466      -280.7253
   5   2.0000     -10.315729      -280.7053
   6   2.0000     -10.299549      -280.2650
   7   2.0000     -10.298788      -280.2443
   8   2.0000     -10.291281      -280.0400
   9   2.0000     -10.291272      -280.0397
  10   2.0000     -10.291254      -280.0393
  11   2.0000     -10.289549      -279.9929
  12   2.0000     -10.285680      -279.8876
  13   2.0000     -10.282510      -279.8013
  14   2.0000     -10.278004      -279.6787
  15   2.0000     -10.272896      -279.5397
  16   2.0000      -8.078671      -219.8318
  17   2.0000      -8.078642      -219.8310
  18   2.0000      -6.037342      -164.2844
  19   2.0000      -6.036968      -164.2743
  20   2.0000      -6.033235      -164.1727
  21   2.0000      -6.033071      -164.1682
  22   2.0000      -6.029534      -164.0720
  23   2.0000      -6.029267      -164.0647
  24   2.0000      -1.010441       -27.4955
  25   2.0000      -0.985683       -26.8218
  26   2.0000      -0.914903       -24.8958
  27   2.0000      -0.912818       -24.8391
  28   2.0000      -0.871141       -23.7050
  29   2.0000      -0.857118       -23.3234
  30   2.0000      -0.843199       -22.9446
  31   2.0000      -0.817554       -22.2468
  32   2.0000      -0.783338       -21.3157
  33   2.0000      -0.771689       -20.9987
  34   2.0000      -0.713043       -19.4029
  35   2.0000      -0.704899       -19.1813
  36   2.0000      -0.700234       -19.0543
  37   2.0000      -0.660275       -17.9670
  38   2.0000      -0.640354       -17.4249
  39   2.0000      -0.616371       -16.7723
  40   2.0000      -0.601466       -16.3667
  41   2.0000      -0.577678       -15.7194
  42   2.0000      -0.570442       -15.5225
  43   2.0000      -0.552561       -15.0359
  44   2.0000      -0.534976       -14.5574
  45   2.0000      -0.521481       -14.1902
  46   2.0000      -0.518164       -14.1000
  47   2.0000      -0.515073       -14.0158
  48   2.0000      -0.510527       -13.8922
  49   2.0000      -0.497680       -13.5425
  50   2.0000      -0.489805       -13.3283
  51   2.0000      -0.477078       -12.9819
  52   2.0000      -0.472793       -12.8654
  53   2.0000      -0.467551       -12.7227
  54   2.0000      -0.458703       -12.4819
  55   2.0000      -0.454056       -12.3555
  56   2.0000      -0.441157       -12.0045
  57   2.0000      -0.433852       -11.8057
  58   2.0000      -0.431205       -11.7337
  59   2.0000      -0.425829       -11.5874
  60   2.0000      -0.423898       -11.5348
  61   2.0000      -0.421620       -11.4729
  62   2.0000      -0.418033       -11.3753
  63   2.0000      -0.348613        -9.4862
  64   2.0000      -0.329023        -8.9532
  65   2.0000      -0.327303        -8.9064
  66   2.0000      -0.292624        -7.9627
  67   0.0000       0.030297         0.8244
  68   0.0000       0.071516         1.9460
  69   0.0000       0.114387         3.1126
  70   0.0000       0.124099         3.3769
  71   0.0000       0.131638         3.5821

MULLIKEN ATOMIC CHARGES
-----------------------
   0 S :    0.104908
   1 C :   -0.132074
   2 C :   -0.072031
   3 C :    0.038791
   4 C :   -0.161533
   5 H :   -0.001245
   6 C :    0.063358
   7 H :    0.032450
   8 H :    0.017494
   9 C :   -0.061494
  10 H :    0.041926
  11 H :    0.028688
  12 C :   -0.071796
  13 H :    0.040866
  14 H :    0.017044
  15 H :    0.039057
  16 S :    0.108322
  17 C :   -0.100177
  18 C :   -0.015312
  19 C :   -0.034975
  20 C :   -0.175843
  21 H :    0.020782
  22 C :    0.078902
  23 H :    0.018163
  24 H :    0.027893
  25 C :   -0.045816
  26 H :    0.008119
  27 H :    0.021682
  28 C :   -0.033314
  29 H :    0.031811
  30 H :    0.023282
  31 H :    0.024634
  32 H :    0.055440
  33 H :    0.061995
Sum of atomic charges:   -0.0000000

LOEWDIN ATOMIC CHARGES
----------------------
   0 S :    0.383650
   1 C :   -0.188137
   2 C :   -0.066959
   3 C :   -0.059895
   4 C :   -0.198372
   5 H :    0.026244
   6 C :   -0.040913
   7 H :    0.038090
   8 H :    0.029903
   9 C :   -0.033210
  10 H :    0.029411
  11 H :    0.021382
  12 C :   -0.067593
  13 H :    0.023783
  14 H :    0.009433
  15 H :    0.038202
  16 S :    0.418321
  17 C :   -0.178050
  18 C :   -0.071119
  19 C :   -0.055943
  20 C :   -0.206668
  21 H :    0.035124
  22 C :   -0.039622
  23 H :    0.034849
  24 H :    0.033559
  25 C :   -0.029990
  26 H :    0.011171
  27 H :    0.023136
  28 C :   -0.051873
  29 H :    0.024772
  30 H :    0.024722
  31 H :    0.017778
  32 H :    0.036317
  33 H :    0.028495

  Mayer bond orders larger than 0.100000
B(  0-S ,  1-C ) :   1.1217 B(  0-S ,  4-C ) :   1.1306 B(  1-C ,  2-C ) :   1.6269
B(  1-C , 32-H ) :   0.9637 B(  2-C ,  3-C ) :   1.2132 B(  2-C ,  6-C ) :   1.0419
B(  3-C ,  4-C ) :   1.5954 B(  3-C ,  5-H ) :   0.9974 B(  4-C , 20-C ) :   1.0455
B(  6-C ,  7-H ) :   0.9445 B(  6-C ,  8-H ) :   0.9336 B(  6-C ,  9-C ) :   1.0384
B(  9-C , 10-H ) :   0.9667 B(  9-C , 11-H ) :   0.9580 B(  9-C , 12-C ) :   1.0756
B( 12-C , 13-H ) :   0.9783 B( 12-C , 14-H ) :   0.9773 B( 12-C , 15-H ) :   0.9754
B( 16-S , 17-C ) :   1.1608 B( 16-S , 20-C ) :   1.1555 B( 17-C , 18-C ) :   1.5919
B( 17-C , 33-H ) :   0.9693 B( 18-C , 19-C ) :   1.2421 B( 18-C , 21-H ) :   0.9928
B( 19-C , 20-C ) :   1.5674 B( 19-C , 22-C ) :   1.0670 B( 22-C , 23-H ) :   0.9262
B( 22-C , 24-H ) :   0.9121 B( 22-C , 25-C ) :   1.0626 B( 25-C , 26-H ) :   0.9474
B( 25-C , 27-H ) :   0.9565 B( 25-C , 28-C ) :   1.0947 B( 28-C , 29-H ) :   0.9777
B( 28-C , 30-H ) :   0.9753 B( 28-C , 31-H ) :   0.9746

Dispersion correction           -0.013516186
FINAL SINGLE POINT ENERGY     -1339.875394028223

DIPOLE MOMENT
-------------
                                X             Y             Z
Electronic contribution:    -10.49940      -9.04334      24.52238
Nuclear contribution   :     10.88637       9.04209     -24.95244
                        -----------------------------------------
Total Dipole Moment    :      0.38697      -0.00126      -0.43006
                        -----------------------------------------
Magnitude (a.u.)       :      0.57853
Magnitude (Debye)      :      1.47051

Rotational constants in cm-1:     0.018823     0.007742     0.006141
Rotational constants in MHz :   564.292874   232.087833   184.115539

                             ****ORCA TERMINATED NORMALLY****
TOTAL RUN TIME: 0 days 0 hours 0 minutes 29 seconds 971 msec
