                         Program Version 4.2.1 -  RELEASE  -
|  1> ! wB97X-D3 SP def2-SVP
|  2> %pal
|  3> nprocs 16
|  4> end
|  5>
|  6> * xyz 0 1
|  7> S 	 23.0967 	 6.92641 	 73.7903
|  8> C 	 22.9831 	 6.12329 	 72.2133
|  9> C 	 21.79 	 6.42674 	 71.5437
| 10> C 	 21.0395 	 7.34456 	 72.3386
| 11> C 	 21.6301 	 7.79404 	 73.5127
| 12> H 	 20.0251 	 7.72557 	 72.0666
| 13> C 	 21.2132 	 5.86488 	 70.2413
| 14> H 	 20.4353 	 5.06356 	 70.4481
| 15> H 	 22.1159 	 5.42782 	 69.7683
| 16> C 	 20.5896 	 6.94685 	 69.2488
| 17> H 	 19.9952 	 6.51045 	 68.4513
| 18> H 	 19.8287 	 7.55604 	 69.7925
| 19> C 	 21.7066 	 7.86541 	 68.7136
| 20> H 	 22.4909 	 7.33537 	 68.279
| 21> H 	 21.3866 	 8.46342 	 67.8381
| 22> H 	 22.2143 	 8.49827 	 69.5428
| 23> S 	 19.5539 	 8.1242 	 75.2239
| 24> C 	 19.3907 	 9.53626 	 76.2865
| 25> C 	 20.6203 	 10.1287 	 76.3479
| 26> C 	 21.6093 	 9.5876 	 75.4709
| 27> C 	 21.0637 	 8.61574 	 74.5967
| 28> H 	 20.7214 	 11.0275 	 77.0217
| 29> C 	 22.9588 	 10.2702 	 75.3296
| 30> H 	 23.7295 	 9.45649 	 75.2532
| 31> H 	 23.1649 	 10.9219 	 76.2487
| 32> C 	 22.9276 	 11.2739 	 74.1112
| 33> H 	 22.5847 	 10.7241 	 73.1766
| 34> H 	 23.933 	 11.7116 	 73.9918
| 35> C 	 21.9032 	 12.3775 	 74.2619
| 36> H 	 20.8529 	 12.0547 	 73.9874
| 37> H 	 22.1364 	 13.2346 	 73.6647
| 38> H 	 21.9116 	 12.8301 	 75.2624
| 39> H 	 23.7947 	 5.57092 	 71.8007
| 40> H 	 18.6248 	 9.78431 	 76.9562
| 41> *
| 42>
| 43>                          ****END OF INPUT****

CARTESIAN COORDINATES (ANGSTROEM)
---------------------------------
  S     23.096700    6.926410   73.790300
  C     22.983100    6.123290   72.213300
  C     21.790000    6.426740   71.543700
  C     21.039500    7.344560   72.338600
  C     21.630100    7.794040   73.512700
  H     20.025100    7.725570   72.066600
  C     21.213200    5.864880   70.241300
  H     20.435300    5.063560   70.448100
  H     22.115900    5.427820   69.768300
  C     20.589600    6.946850   69.248800
  H     19.995200    6.510450   68.451300
  H     19.828700    7.556040   69.792500
  C     21.706600    7.865410   68.713600
  H     22.490900    7.335370   68.279000
  H     21.386600    8.463420   67.838100
  H     22.214300    8.498270   69.542800
  S     19.553900    8.124200   75.223900
  C     19.390700    9.536260   76.286500
  C     20.620300   10.128700   76.347900
  C     21.609300    9.587600   75.470900
  C     21.063700    8.615740   74.596700
  H     20.721400   11.027500   77.021700
  C     22.958800   10.270200   75.329600
  H     23.729500    9.456490   75.253200
  H     23.164900   10.921900   76.248700
  C     22.927600   11.273900   74.111200
  H     22.584700   10.724100   73.176600
  H     23.933000   11.711600   73.991800
  C     21.903200   12.377500   74.261900
  H     20.852900   12.054700   73.987400
  H     22.136400   13.234600   73.664700
  H     21.911600   12.830100   75.262400
  H     23.794700    5.570920   71.800700
  H     18.624800    9.784310   76.956200

 Total Charge           Charge          ....    0
 Multiplicity           Mult            ....    1
 Number of Electrons    NEL             ....  134
 Basis Dimension        Dim             ....  322

ORBITAL ENERGIES
----------------

  NO   OCC          E(Eh)            E(eV)
   0   2.0000     -88.968633     -2420.9596
   1   2.0000     -88.962993     -2420.8061
   2   2.0000     -10.331708      -281.1401
   3   2.0000     -10.329356      -281.0761
   4   2.0000     -10.319698      -280.8133
   5   2.0000     -10.311643      -280.5941
   6   2.0000     -10.308709      -280.5142
   7   2.0000     -10.307825      -280.4902
   8   2.0000     -10.304539      -280.4008
   9   2.0000     -10.299997      -280.2772
  10   2.0000     -10.297659      -280.2136
  11   2.0000     -10.297408      -280.2067
  12   2.0000     -10.295071      -280.1431
  13   2.0000     -10.290315      -280.0137
  14   2.0000     -10.280326      -279.7419
  15   2.0000     -10.274120      -279.5730
  16   2.0000      -8.083165      -219.9541
  17   2.0000      -8.077908      -219.8111
  18   2.0000      -6.041633      -164.4012
  19   2.0000      -6.037717      -164.2946
  20   2.0000      -6.036439      -164.2599
  21   2.0000      -6.033972      -164.1927
  22   2.0000      -6.032268      -164.1464
  23   2.0000      -6.028720      -164.0498
  24   2.0000      -1.008600       -27.4454
  25   2.0000      -0.985077       -26.8053
  26   2.0000      -0.905869       -24.6499
  27   2.0000      -0.902022       -24.5453
  28   2.0000      -0.869170       -23.6513
  29   2.0000      -0.846359       -23.0306
  30   2.0000      -0.837609       -22.7925
  31   2.0000      -0.814447       -22.1622
  32   2.0000      -0.779187       -21.2028
  33   2.0000      -0.766967       -20.8702
  34   2.0000      -0.712418       -19.3859
  35   2.0000      -0.698365       -19.0035
  36   2.0000      -0.682143       -18.5621
  37   2.0000      -0.662603       -18.0303
  38   2.0000      -0.633713       -17.2442
  39   2.0000      -0.618928       -16.8419
  40   2.0000      -0.585632       -15.9359
  41   2.0000      -0.568510       -15.4699
  42   2.0000      -0.551016       -14.9939
  43   2.0000      -0.549575       -14.9547
  44   2.0000      -0.542317       -14.7572
  45   2.0000      -0.530235       -14.4284
  46   2.0000      -0.516243       -14.0477
  47   2.0000      -0.509381       -13.8609
  48   2.0000      -0.503851       -13.7105
  49   2.0000      -0.489156       -13.3106
  50   2.0000      -0.481017       -13.0891
  51   2.0000      -0.477517       -12.9939
  52   2.0000      -0.468303       -12.7432
  53   2.0000      -0.462663       -12.5897
  54   2.0000      -0.456273       -12.4158
  55   2.0000      -0.447313       -12.1720
  56   2.0000      -0.443543       -12.0694
  57   2.0000      -0.435563       -11.8523
  58   2.0000      -0.430039       -11.7020
  59   2.0000      -0.426704       -11.6112
  60   2.0000      -0.415365       -11.3027
  61   2.0000      -0.414013       -11.2659
  62   2.0000      -0.409380       -11.1398
  63   2.0000      -0.343891        -9.3577
  64   2.0000      -0.332937        -9.0597
  65   2.0000      -0.325171        -8.8484
  66   2.0000      -0.294709        -8.0194
  67   0.0000       0.022843         0.6216
  68   0.0000       0.072880         1.9832
  69   0.0000       0.108637         2.9562
  70   0.0000       0.115855         3.1526
  71   0.0000       0.122693         3.3386

MULLIKEN ATOMIC CHARGES
-----------------------
   0 S :    0.111677
   1 C :   -0.126959
   2 C :   -0.080914
   3 C :   -0.014792
   4 C :   -0.129527
   5 H :    0.026934
   6 C :    0.039835
   7 H :    0.067279
   8 H :    0.026670
   9 C :   -0.074507
  10 H :    0.032668
  11 H :    0.036774
  12 C :   -0.067180
  13 H :    0.009129
  14 H :    0.035935
  15 H :    0.061279
  16 S :    0.109657
  17 C :   -0.071804
  18 C :   -0.065534
  19 C :   -0.035620
  20 C :   -0.157806
  21 H :    0.039601
  22 C :    0.027615
  23 H :    0.041535
  24 H :    0.035905
  25 C :   -0.075961
  26 H :    0.050472
  27 H :    0.038112
  28 C :   -0.064892
  29 H :    0.055388
  30 H :    0.025206
  31 H :    0.014938
  32 H :    0.042508
  33 H :    0.036381
Sum of atomic charges:    0.0000000

LOEWDIN ATOMIC CHARGES
----------------------
   0 S :    0.417455
   1 C :   -0.185026
   2 C :   -0.065369
   3 C :   -0.069534
   4 C :   -0.207694
   5 H :    0.034451
   6 C :   -0.031977
   7 H :    0.044230
   8 H :    0.031259
   9 C :   -0.042491
  10 H :    0.025186
  11 H :    0.025766
  12 C :   -0.075072
  13 H :    0.012754
  14 H :    0.030193
  15 H :    0.041836
  16 S :    0.422294
  17 C :   -0.181076
  18 C :   -0.074488
  19 C :   -0.066276
  20 C :   -0.214824
  21 H :    0.040332
  22 C :   -0.040933
  23 H :    0.028430
  24 H :    0.035891
  25 C :   -0.042277
  26 H :    0.035375
  27 H :    0.024614
  28 C :   -0.075102
  29 H :    0.035380
  30 H :    0.023714
  31 H :    0.019721
  32 H :    0.020754
  33 H :    0.022505

  Mayer bond orders larger than 0.100000
B(  0-S ,  1-C ) :   1.1517 B(  0-S ,  4-C ) :   1.1555 B(  1-C ,  2-C ) :   1.5936
B(  1-C , 32-H ) :   0.9694 B(  2-C ,  3-C ) :   1.2462 B(  2-C ,  6-C ) :   1.0094
B(  3-C ,  4-C ) :   1.5685 B(  3-C ,  5-H ) :   0.9872 B(  4-C , 20-C ) :   1.0392
B(  6-C ,  7-H ) :   0.9425 B(  6-C ,  8-H ) :   0.9468 B(  6-C ,  9-C ) :   1.0592
B(  9-C , 10-H ) :   0.9585 B(  9-C , 11-H ) :   0.9562 B(  9-C , 12-C ) :   1.0665
B( 12-C , 13-H ) :   0.9748 B( 12-C , 14-H ) :   0.9737 B( 12-C , 15-H ) :   0.9728
B( 16-S , 17-C ) :   1.1435 B( 16-S , 20-C ) :   1.1734 B( 17-C , 18-C ) :   1.6086
B( 17-C , 20-C ) :   0.1061 B( 17-C , 33-H ) :   0.9752 B( 18-C , 19-C ) :   1.2650
B( 18-C , 21-H ) :   0.9761 B( 19-C , 20-C ) :   1.5214 B( 19-C , 22-C ) :   1.0468
B( 22-C , 23-H ) :   0.9333 B( 22-C , 24-H ) :   0.9419 B( 22-C , 25-C ) :   1.0606
B( 25-C , 26-H ) :   0.9564 B( 25-C , 27-H ) :   0.9603 B( 25-C , 28-C ) :   1.0745
B( 28-C , 29-H ) :   0.9720 B( 28-C , 30-H ) :   0.9707 B( 28-C , 31-H ) :   0.9709

Dispersion correction           -0.015191993
FINAL SINGLE POINT ENERGY     -1339.872971387974

DIPOLE MOMENT
-------------
                                X             Y             Z
Electronic contribution:     -2.96911     -12.59567      17.13427
Nuclear contribution   :      2.98351      12.80858     -17.46687
                        -----------------------------------------
Total Dipole Moment    :      0.01441       0.21291      -0.33259
                        -----------------------------------------
Magnitude (a.u.)       :      0.39517
Magnitude (Debye)      :      1.00443

Rotational constants in cm-1:     0.020321     0.008282     0.007780
Rotational constants in MHz :   609.212890   248.301514   233.239627

                             ****ORCA TERMINATED NORMALLY****
TOTAL RUN TIME: 0 days 0 hours 0 minutes 35 seconds 302 msec
