                         Program Version 4.2.1 -  RELEASE  -
|  1> ! wB97X-D3 SP def2-SVP
|  2> %pal
|  3> nprocs 16
|  4> end
|  5>
|  6> * xyz 0 1
|  7> S 	 8.0717 	 23.5134 	 67.023
|  8> C 	 6.89846 	 22.7487 	 66.0651
|  9> C 	 6.39713 	 23.649 	 65.0984
| 10> C 	 7.00396 	 24.9257 	 65.2106
| 11> C 	 7.92882 	 25.0576 	 66.2542
| 12> H 	 6.72684 	 25.7919 	 64.6381
| 13> C 	 5.37465 	 23.2862 	 64.1064
| 14> H 	 5.79687 	 22.5442 	 63.3809
| 15> H 	 5.1673 	 24.0192 	 63.3223
| 16> C 	 4.05815 	 22.7148 	 64.6679
| 17> H 	 3.49743 	 22.2657 	 63.8672
| 18> H 	 4.35725 	 21.8987 	 65.3544
| 19> C 	 3.28718 	 23.7877 	 65.5022
| 20> H 	 2.38781 	 23.2794 	 65.8557
| 21> H 	 3.88485 	 24.2317 	 66.3047
| 22> H 	 2.87071 	 24.6606 	 64.9618
| 23> S 	 8.92129 	 27.4073 	 65.3796
| 24> C 	 9.64229 	 28.5612 	 66.5076
| 25> C 	 9.72568 	 28.1009 	 67.7821
| 26> C 	 9.04455 	 26.8235 	 67.8845
| 27> C 	 8.54426 	 26.3333 	 66.688
| 28> H 	 10.2229 	 28.6527 	 68.5606
| 29> C 	 9.04864 	 25.9838 	 69.1553
| 30> H 	 9.85713 	 25.3287 	 69.1182
| 31> H 	 8.08261 	 25.4746 	 69.3257
| 32> C 	 9.3009 	 26.8418 	 70.3444
| 33> H 	 8.63363 	 27.6282 	 70.3865
| 34> H 	 10.2381 	 27.3133 	 70.3323
| 35> C 	 9.08247 	 26.0795 	 71.7171
| 36> H 	 9.67454 	 25.1811 	 71.6187
| 37> H 	 8.12518 	 25.6201 	 71.8537
| 38> H 	 9.34206 	 26.652 	 72.6696
| 39> H 	 6.58673 	 21.7075 	 66.1043
| 40> H 	 10.1292 	 29.4387 	 66.1774
| 41> *
| 42>
| 43>                          ****END OF INPUT****

CARTESIAN COORDINATES (ANGSTROEM)
---------------------------------
  S      8.071700   23.513400   67.023000
  C      6.898460   22.748700   66.065100
  C      6.397130   23.649000   65.098400
  C      7.003960   24.925700   65.210600
  C      7.928820   25.057600   66.254200
  H      6.726840   25.791900   64.638100
  C      5.374650   23.286200   64.106400
  H      5.796870   22.544200   63.380900
  H      5.167300   24.019200   63.322300
  C      4.058150   22.714800   64.667900
  H      3.497430   22.265700   63.867200
  H      4.357250   21.898700   65.354400
  C      3.287180   23.787700   65.502200
  H      2.387810   23.279400   65.855700
  H      3.884850   24.231700   66.304700
  H      2.870710   24.660600   64.961800
  S      8.921290   27.407300   65.379600
  C      9.642290   28.561200   66.507600
  C      9.725680   28.100900   67.782100
  C      9.044550   26.823500   67.884500
  C      8.544260   26.333300   66.688000
  H     10.222900   28.652700   68.560600
  C      9.048640   25.983800   69.155300
  H      9.857130   25.328700   69.118200
  H      8.082610   25.474600   69.325700
  C      9.300900   26.841800   70.344400
  H      8.633630   27.628200   70.386500
  H     10.238100   27.313300   70.332300
  C      9.082470   26.079500   71.717100
  H      9.674540   25.181100   71.618700
  H      8.125180   25.620100   71.853700
  H      9.342060   26.652000   72.669600
  H      6.586730   21.707500   66.104300
  H     10.129200   29.438700   66.177400

 Total Charge           Charge          ....    0
 Multiplicity           Mult            ....    1
 Number of Electrons    NEL             ....  134
 Basis Dimension        Dim             ....  322

ORBITAL ENERGIES
----------------

  NO   OCC          E(Eh)            E(eV)
   0   2.0000     -88.971462     -2421.0366
   1   2.0000     -88.964550     -2420.8485
   2   2.0000     -10.332646      -281.1656
   3   2.0000     -10.328699      -281.0582
   4   2.0000     -10.314504      -280.6719
   5   2.0000     -10.313489      -280.6443
   6   2.0000     -10.304491      -280.3995
   7   2.0000     -10.300759      -280.2979
   8   2.0000     -10.296799      -280.1901
   9   2.0000     -10.292084      -280.0618
  10   2.0000     -10.290857      -280.0284
  11   2.0000     -10.288452      -279.9630
  12   2.0000     -10.284373      -279.8520
  13   2.0000     -10.279116      -279.7090
  14   2.0000     -10.277668      -279.6696
  15   2.0000     -10.273445      -279.5546
  16   2.0000      -8.086334      -220.0403
  17   2.0000      -8.079426      -219.8523
  18   2.0000      -6.044722      -164.4853
  19   2.0000      -6.040490      -164.3701
  20   2.0000      -6.037976      -164.3017
  21   2.0000      -6.037546      -164.2900
  22   2.0000      -6.034021      -164.1940
  23   2.0000      -6.030029      -164.0854
  24   2.0000      -1.010527       -27.4978
  25   2.0000      -0.989298       -26.9202
  26   2.0000      -0.916351       -24.9352
  27   2.0000      -0.911782       -24.8109
  28   2.0000      -0.872183       -23.7333
  29   2.0000      -0.849229       -23.1087
  30   2.0000      -0.840448       -22.8698
  31   2.0000      -0.816511       -22.2184
  32   2.0000      -0.781302       -21.2603
  33   2.0000      -0.770554       -20.9678
  34   2.0000      -0.714370       -19.4390
  35   2.0000      -0.703647       -19.1472
  36   2.0000      -0.697763       -18.9871
  37   2.0000      -0.661998       -18.0139
  38   2.0000      -0.639585       -17.4040
  39   2.0000      -0.612004       -16.6535
  40   2.0000      -0.602377       -16.3915
  41   2.0000      -0.584197       -15.8968
  42   2.0000      -0.579052       -15.7568
  43   2.0000      -0.549462       -14.9516
  44   2.0000      -0.531915       -14.4742
  45   2.0000      -0.526674       -14.3315
  46   2.0000      -0.516993       -14.0681
  47   2.0000      -0.509558       -13.8658
  48   2.0000      -0.504406       -13.7256
  49   2.0000      -0.493172       -13.4199
  50   2.0000      -0.483632       -13.1603
  51   2.0000      -0.481367       -13.0987
  52   2.0000      -0.473711       -12.8903
  53   2.0000      -0.470207       -12.7950
  54   2.0000      -0.464748       -12.6464
  55   2.0000      -0.453905       -12.3514
  56   2.0000      -0.444722       -12.1015
  57   2.0000      -0.437129       -11.8949
  58   2.0000      -0.430319       -11.7096
  59   2.0000      -0.425222       -11.5709
  60   2.0000      -0.422336       -11.4924
  61   2.0000      -0.412221       -11.2171
  62   2.0000      -0.407571       -11.0906
  63   2.0000      -0.360640        -9.8135
  64   2.0000      -0.332585        -9.0501
  65   2.0000      -0.327305        -8.9064
  66   2.0000      -0.285311        -7.7637
  67   0.0000       0.024954         0.6790
  68   0.0000       0.079541         2.1644
  69   0.0000       0.113494         3.0883
  70   0.0000       0.123490         3.3603
  71   0.0000       0.131755         3.5852

MULLIKEN ATOMIC CHARGES
-----------------------
   0 S :    0.128624
   1 C :   -0.127667
   2 C :   -0.069205
   3 C :    0.003678
   4 C :   -0.128819
   5 H :    0.011896
   6 C :    0.027875
   7 H :    0.033126
   8 H :    0.012664
   9 C :   -0.057411
  10 H :    0.027619
  11 H :    0.025899
  12 C :   -0.065278
  13 H :    0.032617
  14 H :    0.052285
  15 H :    0.028592
  16 S :    0.087814
  17 C :   -0.060151
  18 C :   -0.032374
  19 C :   -0.096849
  20 C :   -0.109695
  21 H :    0.025343
  22 C :    0.088453
  23 H :    0.029169
  24 H :    0.041839
  25 C :   -0.075427
  26 H :    0.009092
  27 H :    0.018449
  28 C :   -0.044205
  29 H :    0.012564
  30 H :    0.021823
  31 H :    0.050335
  32 H :    0.057673
  33 H :    0.039652
Sum of atomic charges:   -0.0000000

LOEWDIN ATOMIC CHARGES
----------------------
   0 S :    0.457011
   1 C :   -0.222473
   2 C :   -0.064557
   3 C :   -0.070518
   4 C :   -0.206870
   5 H :    0.024286
   6 C :   -0.050120
   7 H :    0.038524
   8 H :    0.029033
   9 C :   -0.033287
  10 H :    0.022639
  11 H :    0.024190
  12 C :   -0.071605
  13 H :    0.026264
  14 H :    0.030782
  15 H :    0.026105
  16 S :    0.407839
  17 C :   -0.166934
  18 C :   -0.066462
  19 C :   -0.057710
  20 C :   -0.192620
  21 H :    0.035416
  22 C :   -0.031094
  23 H :    0.024843
  24 H :    0.035171
  25 C :   -0.034194
  26 H :    0.012308
  27 H :    0.015450
  28 C :   -0.069937
  29 H :    0.020568
  30 H :    0.020379
  31 H :    0.035351
  32 H :    0.032343
  33 H :    0.019878

  Mayer bond orders larger than 0.100000
B(  0-S ,  1-C ) :   1.1736 B(  0-S ,  4-C ) :   1.1763 B(  1-C ,  2-C ) :   1.5267
B(  1-C ,  4-C ) :   0.1024 B(  1-C , 32-H ) :   0.9682 B(  2-C ,  3-C ) :   1.3164
B(  2-C ,  6-C ) :   1.0349 B(  3-C ,  4-C ) :   1.4917 B(  3-C ,  5-H ) :   0.9928
B(  4-C , 20-C ) :   1.0383 B(  6-C ,  7-H ) :   0.9290 B(  6-C ,  8-H ) :   0.9430
B(  6-C ,  9-C ) :   1.0771 B(  9-C , 10-H ) :   0.9543 B(  9-C , 11-H ) :   0.9563
B(  9-C , 12-C ) :   1.0648 B( 12-C , 13-H ) :   0.9755 B( 12-C , 14-H ) :   0.9756
B( 12-C , 15-H ) :   0.9765 B( 16-S , 17-C ) :   1.1482 B( 16-S , 20-C ) :   1.1361
B( 17-C , 18-C ) :   1.6261 B( 17-C , 33-H ) :   0.9659 B( 18-C , 19-C ) :   1.2153
B( 18-C , 21-H ) :   0.9928 B( 19-C , 20-C ) :   1.6268 B( 19-C , 22-C ) :   1.0321
B( 22-C , 23-H ) :   0.9220 B( 22-C , 24-H ) :   0.9373 B( 22-C , 25-C ) :   1.0922
B( 25-C , 26-H ) :   0.9587 B( 25-C , 27-H ) :   0.9400 B( 25-C , 28-C ) :   1.0731
B( 28-C , 29-H ) :   0.9714 B( 28-C , 30-H ) :   0.9749 B( 28-C , 31-H ) :   0.9750

Dispersion correction           -0.013822344
FINAL SINGLE POINT ENERGY     -1339.875091691724

DIPOLE MOMENT
-------------
                                X             Y             Z
Electronic contribution:     12.70212       4.44420     -11.04379
Nuclear contribution   :    -12.82239      -4.49100      11.12558
                        -----------------------------------------
Total Dipole Moment    :     -0.12028      -0.04680       0.08179
                        -----------------------------------------
Magnitude (a.u.)       :      0.15280
Magnitude (Debye)      :      0.38838

Rotational constants in cm-1:     0.020679     0.007801     0.006429
Rotational constants in MHz :   619.955766   233.880577   192.749934

                             ****ORCA TERMINATED NORMALLY****
TOTAL RUN TIME: 0 days 0 hours 0 minutes 34 seconds 669 msec
