                         Program Version 4.2.1 -  RELEASE  -
|  1> ! wB97X-D3 SP def2-SVP
|  2> %pal
|  3> nprocs 16
|  4> end
|  5>
|  6> * xyz 0 1
|  7> S 	 8.9365 	 24.8807 	 61.1802
|  8> C 	 9.84134 	 23.9772 	 59.9999
|  9> C 	 9.85457 	 22.6254 	 60.3106
| 10> C 	 9.14645 	 22.3104 	 61.545
| 11> C 	 8.55693 	 23.4248 	 62.0687
| 12> H 	 9.0319 	 21.356 	 61.9881
| 13> C 	 10.5767 	 21.5614 	 59.5479
| 14> H 	 11.083 	 22.017 	 58.6832
| 15> H 	 9.77655 	 20.8185 	 59.1985
| 16> C 	 11.7419 	 20.8125 	 60.3102
| 17> H 	 12.2814 	 20.1729 	 59.5527
| 18> H 	 12.4321 	 21.6595 	 60.676
| 19> C 	 11.4007 	 19.8381 	 61.4557
| 20> H 	 10.3398 	 19.5357 	 61.2203
| 21> H 	 12.2267 	 19.1222 	 61.5147
| 22> H 	 11.3559 	 20.3492 	 62.4019
| 23> S 	 8.78738 	 23.937 	 64.7385
| 24> C 	 7.41495 	 24.1648 	 65.7684
| 25> C 	 6.31299 	 23.7314 	 65.0618
| 26> C 	 6.47371 	 23.2488 	 63.7452
| 27> C 	 7.78337 	 23.4786 	 63.3577
| 28> H 	 5.36715 	 23.8556 	 65.619
| 29> C 	 5.32406 	 22.9861 	 62.7114
| 30> H 	 4.67622 	 22.2616 	 63.2109
| 31> H 	 5.79212 	 22.4487 	 61.9295
| 32> C 	 4.5219 	 24.2217 	 62.328
| 33> H 	 5.07715 	 24.9187 	 61.7029
| 34> H 	 4.24957 	 24.7134 	 63.2555
| 35> C 	 3.16092 	 23.9387 	 61.5869
| 36> H 	 3.30798 	 23.3749 	 60.7065
| 37> H 	 2.57999 	 24.7772 	 61.247
| 38> H 	 2.52034 	 23.3183 	 62.1186
| 39> H 	 10.4025 	 24.4763 	 59.1949
| 40> H 	 7.3954 	 24.2562 	 66.7685
| 41> *
| 42>
| 43>                          ****END OF INPUT****

CARTESIAN COORDINATES (ANGSTROEM)
---------------------------------
  S      8.936500   24.880700   61.180200
  C      9.841340   23.977200   59.999900
  C      9.854570   22.625400   60.310600
  C      9.146450   22.310400   61.545000
  C      8.556930   23.424800   62.068700
  H      9.031900   21.356000   61.988100
  C     10.576700   21.561400   59.547900
  H     11.083000   22.017000   58.683200
  H      9.776550   20.818500   59.198500
  C     11.741900   20.812500   60.310200
  H     12.281400   20.172900   59.552700
  H     12.432100   21.659500   60.676000
  C     11.400700   19.838100   61.455700
  H     10.339800   19.535700   61.220300
  H     12.226700   19.122200   61.514700
  H     11.355900   20.349200   62.401900
  S      8.787380   23.937000   64.738500
  C      7.414950   24.164800   65.768400
  C      6.312990   23.731400   65.061800
  C      6.473710   23.248800   63.745200
  C      7.783370   23.478600   63.357700
  H      5.367150   23.855600   65.619000
  C      5.324060   22.986100   62.711400
  H      4.676220   22.261600   63.210900
  H      5.792120   22.448700   61.929500
  C      4.521900   24.221700   62.328000
  H      5.077150   24.918700   61.702900
  H      4.249570   24.713400   63.255500
  C      3.160920   23.938700   61.586900
  H      3.307980   23.374900   60.706500
  H      2.579990   24.777200   61.247000
  H      2.520340   23.318300   62.118600
  H     10.402500   24.476300   59.194900
  H      7.395400   24.256200   66.768500

 Total Charge           Charge          ....    0
 Multiplicity           Mult            ....    1
 Number of Electrons    NEL             ....  134
 Basis Dimension        Dim             ....  322

ORBITAL ENERGIES
----------------

  NO   OCC          E(Eh)            E(eV)
   0   2.0000     -88.966602     -2420.9043
   1   2.0000     -88.960508     -2420.7385
   2   2.0000     -10.331380      -281.1311
   3   2.0000     -10.330332      -281.1026
   4   2.0000     -10.317676      -280.7582
   5   2.0000     -10.306080      -280.4427
   6   2.0000     -10.305602      -280.4297
   7   2.0000     -10.303821      -280.3812
   8   2.0000     -10.299837      -280.2728
   9   2.0000     -10.298171      -280.2275
  10   2.0000     -10.294531      -280.1284
  11   2.0000     -10.293295      -280.0948
  12   2.0000     -10.292097      -280.0622
  13   2.0000     -10.288219      -279.9567
  14   2.0000     -10.283038      -279.8157
  15   2.0000     -10.267103      -279.3821
  16   2.0000      -8.081594      -219.9113
  17   2.0000      -8.075505      -219.7457
  18   2.0000      -6.040123      -164.3601
  19   2.0000      -6.036021      -164.2485
  20   2.0000      -6.033953      -164.1922
  21   2.0000      -6.032358      -164.1488
  22   2.0000      -6.029844      -164.0804
  23   2.0000      -6.026426      -163.9874
  24   2.0000      -1.006581       -27.3905
  25   2.0000      -0.986381       -26.8408
  26   2.0000      -0.904950       -24.6249
  27   2.0000      -0.904289       -24.6069
  28   2.0000      -0.866800       -23.5868
  29   2.0000      -0.847680       -23.0665
  30   2.0000      -0.846165       -23.0253
  31   2.0000      -0.817671       -22.2500
  32   2.0000      -0.785827       -21.3834
  33   2.0000      -0.773751       -21.0548
  34   2.0000      -0.707764       -19.2592
  35   2.0000      -0.699352       -19.0303
  36   2.0000      -0.688969       -18.7478
  37   2.0000      -0.657376       -17.8881
  38   2.0000      -0.647150       -17.6098
  39   2.0000      -0.614234       -16.7142
  40   2.0000      -0.592724       -16.1288
  41   2.0000      -0.567676       -15.4472
  42   2.0000      -0.562796       -15.3145
  43   2.0000      -0.547811       -14.9067
  44   2.0000      -0.545085       -14.8325
  45   2.0000      -0.524646       -14.2763
  46   2.0000      -0.520102       -14.1527
  47   2.0000      -0.518205       -14.1011
  48   2.0000      -0.506231       -13.7753
  49   2.0000      -0.497017       -13.5245
  50   2.0000      -0.488731       -13.2991
  51   2.0000      -0.479603       -13.0506
  52   2.0000      -0.471577       -12.8323
  53   2.0000      -0.463172       -12.6035
  54   2.0000      -0.461265       -12.5517
  55   2.0000      -0.446960       -12.1624
  56   2.0000      -0.442180       -12.0323
  57   2.0000      -0.431585       -11.7440
  58   2.0000      -0.427042       -11.6204
  59   2.0000      -0.424670       -11.5559
  60   2.0000      -0.420898       -11.4532
  61   2.0000      -0.413407       -11.2494
  62   2.0000      -0.410609       -11.1732
  63   2.0000      -0.337518        -9.1843
  64   2.0000      -0.332356        -9.0439
  65   2.0000      -0.319609        -8.6970
  66   2.0000      -0.313036        -8.5181
  67   0.0000       0.044400         1.2082
  68   0.0000       0.056000         1.5238
  69   0.0000       0.115288         3.1371
  70   0.0000       0.124771         3.3952
  71   0.0000       0.127583         3.4717

MULLIKEN ATOMIC CHARGES
-----------------------
   0 S :    0.119499
   1 C :   -0.136482
   2 C :   -0.072570
   3 C :    0.063229
   4 C :   -0.157902
   5 H :   -0.000814
   6 C :    0.030866
   7 H :    0.024384
   8 H :    0.049335
   9 C :   -0.139543
  10 H :    0.042432
  11 H :    0.045446
  12 C :   -0.044522
  13 H :    0.039893
  14 H :    0.047545
  15 H :    0.037436
  16 S :    0.101030
  17 C :   -0.033039
  18 C :   -0.101963
  19 C :    0.007107
  20 C :   -0.206687
  21 H :    0.025759
  22 C :    0.101253
  23 H :    0.018969
  24 H :    0.017739
  25 C :   -0.049456
  26 H :    0.036287
  27 H :    0.027093
  28 C :   -0.017490
  29 H :    0.010086
  30 H :    0.030735
  31 H :    0.005582
  32 H :    0.061696
  33 H :    0.017070
Sum of atomic charges:    0.0000000

LOEWDIN ATOMIC CHARGES
----------------------
   0 S :    0.411222
   1 C :   -0.204754
   2 C :   -0.066169
   3 C :   -0.054681
   4 C :   -0.199019
   5 H :    0.028468
   6 C :   -0.043211
   7 H :    0.032540
   8 H :    0.038174
   9 C :   -0.050942
  10 H :    0.028564
  11 H :    0.032388
  12 C :   -0.073909
  13 H :    0.030507
  14 H :    0.032895
  15 H :    0.022661
  16 S :    0.407640
  17 C :   -0.182229
  18 C :   -0.074979
  19 C :   -0.061080
  20 C :   -0.184696
  21 H :    0.031286
  22 C :   -0.019400
  23 H :    0.031401
  24 H :    0.024239
  25 C :   -0.030540
  26 H :    0.026791
  27 H :    0.025031
  28 C :   -0.062714
  29 H :    0.019797
  30 H :    0.027533
  31 H :    0.013767
  32 H :    0.034620
  33 H :    0.008799

  Mayer bond orders larger than 0.100000
B(  0-S ,  1-C ) :   1.1333 B(  0-S ,  4-C ) :   1.1601 B(  1-C ,  2-C ) :   1.6242
B(  1-C , 32-H ) :   0.9655 B(  2-C ,  3-C ) :   1.2020 B(  2-C ,  6-C ) :   1.0361
B(  3-C ,  4-C ) :   1.6111 B(  3-C ,  5-H ) :   0.9988 B(  4-C , 20-C ) :   0.9700
B(  6-C ,  7-H ) :   0.9411 B(  6-C ,  8-H ) :   0.9346 B(  6-C ,  9-C ) :   1.0691
B(  9-C , 10-H ) :   0.9627 B(  9-C , 11-H ) :   0.9528 B(  9-C , 12-C ) :   1.0610
B( 12-C , 13-H ) :   0.9723 B( 12-C , 14-H ) :   0.9725 B( 12-C , 15-H ) :   0.9741
B( 16-S , 17-C ) :   1.1405 B( 16-S , 20-C ) :   1.1837 B( 17-C , 18-C ) :   1.6243
B( 17-C , 20-C ) :   0.1085 B( 17-C , 33-H ) :   0.9782 B( 18-C , 19-C ) :   1.2300
B( 18-C , 21-H ) :   0.9787 B( 19-C , 20-C ) :   1.5798 B( 19-C , 22-C ) :   1.0469
B( 22-C , 23-H ) :   0.9314 B( 22-C , 24-H ) :   0.9307 B( 22-C , 25-C ) :   1.0632
B( 25-C , 26-H ) :   0.9580 B( 25-C , 27-H ) :   0.9566 B( 25-C , 28-C ) :   1.0747
B( 28-C , 29-H ) :   0.9733 B( 28-C , 30-H ) :   0.9760 B( 28-C , 31-H ) :   0.9744

Dispersion correction           -0.014261821
FINAL SINGLE POINT ENERGY     -1339.863365403245

DIPOLE MOMENT
-------------
                                X             Y             Z
Electronic contribution:      7.29769      13.63064       9.81077
Nuclear contribution   :     -7.42580     -13.99521     -10.00241
                        -----------------------------------------
Total Dipole Moment    :     -0.12811      -0.36457      -0.19164
                        -----------------------------------------
Magnitude (a.u.)       :      0.43133
Magnitude (Debye)      :      1.09635

Rotational constants in cm-1:     0.018506     0.008229     0.007136
Rotational constants in MHz :   554.795381   246.701975   213.946048

                             ****ORCA TERMINATED NORMALLY****
TOTAL RUN TIME: 0 days 0 hours 0 minutes 34 seconds 190 msec
