                         Program Version 4.2.1 -  RELEASE  -
|  1> ! wB97X-D3 SP def2-SVP
|  2> %pal
|  3> nprocs 16
|  4> end
|  5>
|  6> * xyz 0 1
|  7> S 	 59.1943 	 -9.28111 	 90.8203
|  8> C 	 58.4675 	 -7.67031 	 90.6508
|  9> C 	 58.9312 	 -7.05333 	 89.4791
| 10> C 	 59.7883 	 -7.87393 	 88.7146
| 11> C 	 59.9385 	 -9.17519 	 89.2539
| 12> H 	 60.2088 	 -7.59042 	 87.7399
| 13> C 	 58.5782 	 -5.64466 	 89.1423
| 14> H 	 57.4604 	 -5.47542 	 89.3386
| 15> H 	 58.7211 	 -5.3008 	 88.1295
| 16> C 	 59.3549 	 -4.63561 	 90.0287
| 17> H 	 59.0084 	 -3.75337 	 89.7257
| 18> H 	 59.0784 	 -4.69959 	 91.03
| 19> C 	 60.8744 	 -4.78332 	 89.8649
| 20> H 	 61.4811 	 -4.09687 	 90.4922
| 21> H 	 61.2761 	 -5.81091 	 89.9978
| 22> H 	 61.0784 	 -4.5991 	 88.7901
| 23> S 	 60.1516 	 -11.7154 	 88.1006
| 24> C 	 61.6549 	 -12.3247 	 87.6071
| 25> C 	 62.5814 	 -11.3139 	 87.5189
| 26> C 	 62.158 	 -10.1654 	 88.3715
| 27> C 	 60.811 	 -10.2058 	 88.7449
| 28> H 	 63.4526 	 -11.6015 	 86.9555
| 29> C 	 63.1041 	 -9.06814 	 88.5506
| 30> H 	 62.8675 	 -8.25159 	 87.9247
| 31> H 	 64.1273 	 -9.38859 	 88.2861
| 32> C 	 63.1602 	 -8.3971 	 89.987
| 33> H 	 62.1914 	 -8.05089 	 90.3577
| 34> H 	 63.7585 	 -7.45953 	 89.8868
| 35> C 	 63.8372 	 -9.19534 	 91.1001
| 36> H 	 63.3404 	 -10.1939 	 91.0609
| 37> H 	 63.6581 	 -8.63864 	 92.0579
| 38> H 	 64.9012 	 -9.37953 	 90.9242
| 39> H 	 57.9126 	 -7.13651 	 91.3653
| 40> H 	 61.7126 	 -13.1759 	 86.9151
| 41> *
| 42>
| 43>                          ****END OF INPUT****

CARTESIAN COORDINATES (ANGSTROEM)
---------------------------------
  S     59.194300   -9.281110   90.820300
  C     58.467500   -7.670310   90.650800
  C     58.931200   -7.053330   89.479100
  C     59.788300   -7.873930   88.714600
  C     59.938500   -9.175190   89.253900
  H     60.208800   -7.590420   87.739900
  C     58.578200   -5.644660   89.142300
  H     57.460400   -5.475420   89.338600
  H     58.721100   -5.300800   88.129500
  C     59.354900   -4.635610   90.028700
  H     59.008400   -3.753370   89.725700
  H     59.078400   -4.699590   91.030000
  C     60.874400   -4.783320   89.864900
  H     61.481100   -4.096870   90.492200
  H     61.276100   -5.810910   89.997800
  H     61.078400   -4.599100   88.790100
  S     60.151600  -11.715400   88.100600
  C     61.654900  -12.324700   87.607100
  C     62.581400  -11.313900   87.518900
  C     62.158000  -10.165400   88.371500
  C     60.811000  -10.205800   88.744900
  H     63.452600  -11.601500   86.955500
  C     63.104100   -9.068140   88.550600
  H     62.867500   -8.251590   87.924700
  H     64.127300   -9.388590   88.286100
  C     63.160200   -8.397100   89.987000
  H     62.191400   -8.050890   90.357700
  H     63.758500   -7.459530   89.886800
  C     63.837200   -9.195340   91.100100
  H     63.340400  -10.193900   91.060900
  H     63.658100   -8.638640   92.057900
  H     64.901200   -9.379530   90.924200
  H     57.912600   -7.136510   91.365300
  H     61.712600  -13.175900   86.915100

 Total Charge           Charge          ....    0
 Multiplicity           Mult            ....    1
 Number of Electrons    NEL             ....  134
 Basis Dimension        Dim             ....  322

ORBITAL ENERGIES
----------------

  NO   OCC          E(Eh)            E(eV)
   0   2.0000     -88.973193     -2421.0837
   1   2.0000     -88.958293     -2420.6782
   2   2.0000     -10.333612      -281.1919
   3   2.0000     -10.327762      -281.0327
   4   2.0000     -10.315997      -280.7125
   5   2.0000     -10.312348      -280.6133
   6   2.0000     -10.310246      -280.5561
   7   2.0000     -10.303063      -280.3606
   8   2.0000     -10.300956      -280.3033
   9   2.0000     -10.297112      -280.1987
  10   2.0000     -10.296992      -280.1954
  11   2.0000     -10.287039      -279.9246
  12   2.0000     -10.284065      -279.8436
  13   2.0000     -10.282254      -279.7944
  14   2.0000     -10.275376      -279.6072
  15   2.0000     -10.274157      -279.5740
  16   2.0000      -8.086992      -220.0582
  17   2.0000      -8.074239      -219.7112
  18   2.0000      -6.045374      -164.5030
  19   2.0000      -6.041541      -164.3987
  20   2.0000      -6.038012      -164.3026
  21   2.0000      -6.032696      -164.1580
  22   2.0000      -6.028601      -164.0466
  23   2.0000      -6.024921      -163.9464
  24   2.0000      -1.006766       -27.3955
  25   2.0000      -0.985518       -26.8173
  26   2.0000      -0.918617       -24.9969
  27   2.0000      -0.905626       -24.6433
  28   2.0000      -0.869924       -23.6718
  29   2.0000      -0.848739       -23.0954
  30   2.0000      -0.843409       -22.9503
  31   2.0000      -0.814742       -22.1703
  32   2.0000      -0.783294       -21.3145
  33   2.0000      -0.770419       -20.9642
  34   2.0000      -0.712044       -19.3757
  35   2.0000      -0.710161       -19.3245
  36   2.0000      -0.682448       -18.5704
  37   2.0000      -0.657049       -17.8792
  38   2.0000      -0.640832       -17.4379
  39   2.0000      -0.615816       -16.7572
  40   2.0000      -0.591424       -16.0935
  41   2.0000      -0.582725       -15.8567
  42   2.0000      -0.555521       -15.1165
  43   2.0000      -0.549777       -14.9602
  44   2.0000      -0.542575       -14.7642
  45   2.0000      -0.536861       -14.6087
  46   2.0000      -0.514990       -14.0136
  47   2.0000      -0.510976       -13.9044
  48   2.0000      -0.503604       -13.7038
  49   2.0000      -0.500472       -13.6185
  50   2.0000      -0.488122       -13.2825
  51   2.0000      -0.480899       -13.0859
  52   2.0000      -0.474735       -12.9182
  53   2.0000      -0.465534       -12.6678
  54   2.0000      -0.461367       -12.5544
  55   2.0000      -0.441957       -12.0263
  56   2.0000      -0.440388       -11.9836
  57   2.0000      -0.434786       -11.8311
  58   2.0000      -0.430339       -11.7101
  59   2.0000      -0.427437       -11.6312
  60   2.0000      -0.421369       -11.4660
  61   2.0000      -0.413247       -11.2450
  62   2.0000      -0.405110       -11.0236
  63   2.0000      -0.337404        -9.1812
  64   2.0000      -0.334648        -9.1062
  65   2.0000      -0.317954        -8.6520
  66   2.0000      -0.300379        -8.1737
  67   0.0000       0.025029         0.6811
  68   0.0000       0.058289         1.5861
  69   0.0000       0.106690         2.9032
  70   0.0000       0.117056         3.1852
  71   0.0000       0.122868         3.3434

MULLIKEN ATOMIC CHARGES
-----------------------
   0 S :    0.130639
   1 C :   -0.094397
   2 C :   -0.075054
   3 C :    0.029827
   4 C :   -0.183494
   5 H :    0.023216
   6 C :    0.000979
   7 H :    0.043670
   8 H :    0.022152
   9 C :    0.033017
  10 H :   -0.009766
  11 H :    0.006143
  12 C :   -0.078976
  13 H :    0.043966
  14 H :    0.039845
  15 H :    0.017376
  16 S :    0.097466
  17 C :   -0.090895
  18 C :   -0.053483
  19 C :   -0.045840
  20 C :   -0.123220
  21 H :    0.027818
  22 C :    0.084281
  23 H :    0.024189
  24 H :    0.019979
  25 C :   -0.134270
  26 H :    0.058972
  27 H :    0.024301
  28 C :   -0.055257
  29 H :    0.039325
  30 H :    0.047930
  31 H :    0.030108
  32 H :    0.029748
  33 H :    0.069705
Sum of atomic charges:    0.0000000

LOEWDIN ATOMIC CHARGES
----------------------
   0 S :    0.424059
   1 C :   -0.185586
   2 C :   -0.061294
   3 C :   -0.057921
   4 C :   -0.205668
   5 H :    0.035810
   6 C :   -0.032005
   7 H :    0.042136
   8 H :    0.025659
   9 C :   -0.021545
  10 H :    0.006604
  11 H :    0.012586
  12 C :   -0.069995
  13 H :    0.029247
  14 H :    0.028731
  15 H :    0.024457
  16 S :    0.414397
  17 C :   -0.205564
  18 C :   -0.072469
  19 C :   -0.049385
  20 C :   -0.208300
  21 H :    0.033677
  22 C :   -0.035060
  23 H :    0.029687
  24 H :    0.033113
  25 C :   -0.044748
  26 H :    0.021079
  27 H :    0.022891
  28 C :   -0.072165
  29 H :    0.029393
  30 H :    0.034166
  31 H :    0.020703
  32 H :    0.018745
  33 H :    0.034566

  Mayer bond orders larger than 0.100000
B(  0-S ,  1-C ) :   1.1472 B(  0-S ,  4-C ) :   1.1755 B(  1-C ,  2-C ) :   1.5636
B(  1-C ,  4-C ) :   0.1129 B(  1-C , 32-H ) :   0.9751 B(  2-C ,  3-C ) :   1.2806
B(  2-C ,  6-C ) :   1.0305 B(  3-C ,  4-C ) :   1.5201 B(  3-C ,  5-H ) :   0.9952
B(  4-C , 20-C ) :   1.0463 B(  6-C ,  7-H ) :   0.9399 B(  6-C ,  8-H ) :   0.9512
B(  6-C ,  9-C ) :   1.0714 B(  9-C , 10-H ) :   0.9505 B(  9-C , 11-H ) :   0.9544
B(  9-C , 12-C ) :   1.0651 B( 12-C , 13-H ) :   0.9734 B( 12-C , 14-H ) :   0.9717
B( 12-C , 15-H ) :   0.9718 B( 16-S , 17-C ) :   1.1766 B( 16-S , 20-C ) :   1.1321
B( 17-C , 18-C ) :   1.6312 B( 17-C , 33-H ) :   0.9554 B( 18-C , 19-C ) :   1.2048
B( 18-C , 21-H ) :   0.9901 B( 19-C , 20-C ) :   1.5730 B( 19-C , 22-C ) :   1.0709
B( 22-C , 23-H ) :   0.9222 B( 22-C , 24-H ) :   0.9372 B( 22-C , 25-C ) :   1.0666
B( 25-C , 26-H ) :   0.9472 B( 25-C , 27-H ) :   0.9555 B( 25-C , 28-C ) :   1.0755
B( 28-C , 29-H ) :   0.9759 B( 28-C , 30-H ) :   0.9731 B( 28-C , 31-H ) :   0.9744

Dispersion correction           -0.016587743
FINAL SINGLE POINT ENERGY     -1339.857236848561

DIPOLE MOMENT
-------------
                                X             Y             Z
Electronic contribution:    -13.30591     -22.82451      -3.70044
Nuclear contribution   :     13.57688      23.53447       3.37073
                        -----------------------------------------
Total Dipole Moment    :      0.27097       0.70996      -0.32971
                        -----------------------------------------
Magnitude (a.u.)       :      0.82836
Magnitude (Debye)      :      2.10552

Rotational constants in cm-1:     0.020887     0.009549     0.007984
Rotational constants in MHz :   626.189373   286.285200   239.363480

                             ****ORCA TERMINATED NORMALLY****
TOTAL RUN TIME: 0 days 0 hours 0 minutes 33 seconds 194 msec
