                         Program Version 4.2.1 -  RELEASE  -
|  1> ! wB97X-D3 SP def2-SVP
|  2> %pal
|  3> nprocs 16
|  4> end
|  5>
|  6> * xyz 0 1
|  7> S 	 15.4247 	 17.0195 	 42.6116
|  8> C 	 15.2852 	 15.592 	 41.7204
|  9> C 	 14.4872 	 15.7488 	 40.6015
| 10> C 	 13.7005 	 16.9732 	 40.7502
| 11> C 	 14.0991 	 17.8425 	 41.7777
| 12> H 	 12.9003 	 17.1936 	 40.0247
| 13> C 	 14.0615 	 14.6899 	 39.5951
| 14> H 	 12.9946 	 14.6265 	 39.4352
| 15> H 	 14.5912 	 13.7789 	 39.754
| 16> C 	 14.4362 	 15.0654 	 38.1183
| 17> H 	 14.141 	 16.0709 	 37.8919
| 18> H 	 15.5306 	 14.9535 	 38.0452
| 19> C 	 13.8149 	 14.0475 	 37.1057
| 20> H 	 13.9189 	 14.5769 	 36.1493
| 21> H 	 14.3947 	 13.0948 	 37.2061
| 22> H 	 12.7091 	 13.9386 	 37.2777
| 23> S 	 12.8426 	 20.0938 	 40.6138
| 24> C 	 12.2038 	 21.3464 	 41.6591
| 25> C 	 12.7334 	 21.2802 	 42.9144
| 26> C 	 13.5271 	 20.0638 	 43.1378
| 27> C 	 13.6452 	 19.2269 	 41.9924
| 28> H 	 12.6064 	 22.102 	 43.572
| 29> C 	 14.0881 	 19.787 	 44.5314
| 30> H 	 14.4965 	 20.7907 	 44.798
| 31> H 	 15.0033 	 19.1644 	 44.5383
| 32> C 	 13.1302 	 19.2216 	 45.5571
| 33> H 	 12.2978 	 19.9292 	 45.4477
| 34> H 	 13.6607 	 19.3531 	 46.5303
| 35> C 	 12.5479 	 17.9126 	 45.1445
| 36> H 	 12.0343 	 17.9618 	 44.1573
| 37> H 	 11.8011 	 17.4984 	 45.7714
| 38> H 	 13.3789 	 17.244 	 45.116
| 39> H 	 15.8461 	 14.6474 	 41.9301
| 40> H 	 11.5887 	 22.206 	 41.3276
| 41> *
| 42>
| 43>                          ****END OF INPUT****

CARTESIAN COORDINATES (ANGSTROEM)
---------------------------------
  S     15.424700   17.019500   42.611600
  C     15.285200   15.592000   41.720400
  C     14.487200   15.748800   40.601500
  C     13.700500   16.973200   40.750200
  C     14.099100   17.842500   41.777700
  H     12.900300   17.193600   40.024700
  C     14.061500   14.689900   39.595100
  H     12.994600   14.626500   39.435200
  H     14.591200   13.778900   39.754000
  C     14.436200   15.065400   38.118300
  H     14.141000   16.070900   37.891900
  H     15.530600   14.953500   38.045200
  C     13.814900   14.047500   37.105700
  H     13.918900   14.576900   36.149300
  H     14.394700   13.094800   37.206100
  H     12.709100   13.938600   37.277700
  S     12.842600   20.093800   40.613800
  C     12.203800   21.346400   41.659100
  C     12.733400   21.280200   42.914400
  C     13.527100   20.063800   43.137800
  C     13.645200   19.226900   41.992400
  H     12.606400   22.102000   43.572000
  C     14.088100   19.787000   44.531400
  H     14.496500   20.790700   44.798000
  H     15.003300   19.164400   44.538300
  C     13.130200   19.221600   45.557100
  H     12.297800   19.929200   45.447700
  H     13.660700   19.353100   46.530300
  C     12.547900   17.912600   45.144500
  H     12.034300   17.961800   44.157300
  H     11.801100   17.498400   45.771400
  H     13.378900   17.244000   45.116000
  H     15.846100   14.647400   41.930100
  H     11.588700   22.206000   41.327600

 Total Charge           Charge          ....    0
 Multiplicity           Mult            ....    1
 Number of Electrons    NEL             ....  134
 Basis Dimension        Dim             ....  322

ORBITAL ENERGIES
----------------

  NO   OCC          E(Eh)            E(eV)
   0   2.0000     -88.967824     -2420.9376
   1   2.0000     -88.966071     -2420.8899
   2   2.0000     -10.340821      -281.3881
   3   2.0000     -10.338523      -281.3255
   4   2.0000     -10.322773      -280.8969
   5   2.0000     -10.317415      -280.7511
   6   2.0000     -10.314499      -280.6718
   7   2.0000     -10.303651      -280.3766
   8   2.0000     -10.300317      -280.2859
   9   2.0000     -10.296678      -280.1869
  10   2.0000     -10.291772      -280.0533
  11   2.0000     -10.290874      -280.0289
  12   2.0000     -10.288316      -279.9593
  13   2.0000     -10.285707      -279.8883
  14   2.0000     -10.282492      -279.8008
  15   2.0000     -10.264270      -279.3050
  16   2.0000      -8.082761      -219.9431
  17   2.0000      -8.079721      -219.8604
  18   2.0000      -6.041393      -164.3947
  19   2.0000      -6.038459      -164.3148
  20   2.0000      -6.037111      -164.2781
  21   2.0000      -6.034407      -164.2046
  22   2.0000      -6.033485      -164.1795
  23   2.0000      -6.030263      -164.0918
  24   2.0000      -1.002601       -27.2822
  25   2.0000      -0.980958       -26.6932
  26   2.0000      -0.913116       -24.8471
  27   2.0000      -0.909220       -24.7411
  28   2.0000      -0.871108       -23.7041
  29   2.0000      -0.847126       -23.0515
  30   2.0000      -0.840982       -22.8843
  31   2.0000      -0.812450       -22.1079
  32   2.0000      -0.781890       -21.2763
  33   2.0000      -0.769683       -20.9441
  34   2.0000      -0.706212       -19.2170
  35   2.0000      -0.689654       -18.7664
  36   2.0000      -0.682388       -18.5687
  37   2.0000      -0.660630       -17.9766
  38   2.0000      -0.635369       -17.2893
  39   2.0000      -0.620404       -16.8820
  40   2.0000      -0.598539       -16.2871
  41   2.0000      -0.577177       -15.7058
  42   2.0000      -0.570052       -15.5119
  43   2.0000      -0.550640       -14.9837
  44   2.0000      -0.546917       -14.8824
  45   2.0000      -0.523245       -14.2382
  46   2.0000      -0.516486       -14.0543
  47   2.0000      -0.508081       -13.8256
  48   2.0000      -0.500324       -13.6145
  49   2.0000      -0.494351       -13.4520
  50   2.0000      -0.487460       -13.2645
  51   2.0000      -0.478384       -13.0175
  52   2.0000      -0.470160       -12.7937
  53   2.0000      -0.464300       -12.6343
  54   2.0000      -0.460556       -12.5324
  55   2.0000      -0.449505       -12.2317
  56   2.0000      -0.441925       -12.0254
  57   2.0000      -0.435702       -11.8561
  58   2.0000      -0.432225       -11.7614
  59   2.0000      -0.423219       -11.5164
  60   2.0000      -0.416307       -11.3283
  61   2.0000      -0.410471       -11.1695
  62   2.0000      -0.397283       -10.8106
  63   2.0000      -0.358456        -9.7541
  64   2.0000      -0.329201        -8.9580
  65   2.0000      -0.325037        -8.8447
  66   2.0000      -0.286307        -7.7908
  67   0.0000       0.017356         0.4723
  68   0.0000       0.082144         2.2353
  69   0.0000       0.100776         2.7423
  70   0.0000       0.114785         3.1234
  71   0.0000       0.124603         3.3906

MULLIKEN ATOMIC CHARGES
-----------------------
   0 S :    0.110924
   1 C :   -0.125043
   2 C :   -0.062442
   3 C :   -0.036021
   4 C :   -0.097509
   5 H :    0.026253
   6 C :    0.071590
   7 H :    0.027803
   8 H :    0.010680
   9 C :   -0.133070
  10 H :    0.029518
  11 H :    0.032060
  12 C :   -0.067286
  13 H :    0.044823
  14 H :    0.051281
  15 H :    0.039704
  16 S :    0.084191
  17 C :   -0.099196
  18 C :   -0.013845
  19 C :   -0.081906
  20 C :   -0.118021
  21 H :    0.015970
  22 C :    0.007090
  23 H :    0.031158
  24 H :    0.026251
  25 C :   -0.041675
  26 H :    0.012662
  27 H :    0.045318
  28 C :   -0.024199
  29 H :    0.050803
  30 H :    0.024288
  31 H :    0.015956
  32 H :    0.069158
  33 H :    0.072733
Sum of atomic charges:   -0.0000000

LOEWDIN ATOMIC CHARGES
----------------------
   0 S :    0.429036
   1 C :   -0.216595
   2 C :   -0.067896
   3 C :   -0.065812
   4 C :   -0.193239
   5 H :    0.027615
   6 C :   -0.028536
   7 H :    0.030363
   8 H :    0.024483
   9 C :   -0.038015
  10 H :    0.014552
  11 H :    0.022851
  12 C :   -0.072043
  13 H :    0.031471
  14 H :    0.032612
  15 H :    0.026700
  16 S :    0.378061
  17 C :   -0.181316
  18 C :   -0.072811
  19 C :   -0.050488
  20 C :   -0.177493
  21 H :    0.028626
  22 C :   -0.043511
  23 H :    0.036352
  24 H :    0.020077
  25 C :   -0.044029
  26 H :    0.021857
  27 H :    0.032423
  28 C :   -0.063346
  29 H :    0.039101
  30 H :    0.020931
  31 H :    0.016496
  32 H :    0.041245
  33 H :    0.040277

  Mayer bond orders larger than 0.100000
B(  0-S ,  1-C ) :   1.1633 B(  0-S ,  4-C ) :   1.1305 B(  1-C ,  2-C ) :   1.5868
B(  1-C , 32-H ) :   0.9588 B(  2-C ,  3-C ) :   1.2516 B(  2-C ,  6-C ) :   1.0503
B(  3-C ,  4-C ) :   1.5484 B(  3-C ,  5-H ) :   0.9807 B(  4-C , 20-C ) :   1.0996
B(  6-C ,  7-H ) :   0.9513 B(  6-C ,  8-H ) :   0.9448 B(  6-C ,  9-C ) :   1.0359
B(  9-C , 10-H ) :   0.9658 B(  9-C , 11-H ) :   0.9575 B(  9-C , 12-C ) :   1.0749
B( 12-C , 13-H ) :   0.9756 B( 12-C , 14-H ) :   0.9751 B( 12-C , 15-H ) :   0.9739
B( 16-S , 17-C ) :   1.1489 B( 16-S , 20-C ) :   1.1093 B( 17-C , 18-C ) :   1.6326
B( 17-C , 33-H ) :   0.9586 B( 18-C , 19-C ) :   1.2230 B( 18-C , 21-H ) :   0.9905
B( 19-C , 20-C ) :   1.5716 B( 19-C , 22-C ) :   1.0308 B( 22-C , 23-H ) :   0.9330
B( 22-C , 24-H ) :   0.9432 B( 22-C , 25-C ) :   1.0629 B( 25-C , 26-H ) :   0.9516
B( 25-C , 27-H ) :   0.9543 B( 25-C , 28-C ) :   1.0755 B( 28-C , 29-H ) :   0.9656
B( 28-C , 30-H ) :   0.9711 B( 28-C , 31-H ) :   0.9744

Dispersion correction           -0.014652259
FINAL SINGLE POINT ENERGY     -1339.863131189823

DIPOLE MOMENT
-------------
                                X             Y             Z
Electronic contribution:      4.08278      12.71474       1.69060
Nuclear contribution   :     -4.21695     -12.78887      -1.68540
                        -----------------------------------------
Total Dipole Moment    :     -0.13417      -0.07413       0.00520
                        -----------------------------------------
Magnitude (a.u.)       :      0.15338
Magnitude (Debye)      :      0.38985

Rotational constants in cm-1:     0.022238     0.007972     0.006404
Rotational constants in MHz :   666.668927   238.982096   191.996632

                             ****ORCA TERMINATED NORMALLY****
TOTAL RUN TIME: 0 days 0 hours 0 minutes 36 seconds 239 msec
