                         Program Version 4.2.1 -  RELEASE  -
|  1> ! wB97X-D3 SP def2-SVP
|  2> %pal
|  3> nprocs 16
|  4> end
|  5>
|  6> * xyz 0 1
|  7> S 	 60.0662 	 6.35922 	 77.2947
|  8> C 	 58.4062 	 6.80631 	 77.0947
|  9> C 	 57.5929 	 5.89853 	 76.4608
| 10> C 	 58.4936 	 4.93869 	 75.8019
| 11> C 	 59.8379 	 5.11693 	 76.1055
| 12> H 	 58.188 	 4.19603 	 75.0541
| 13> C 	 56.0694 	 5.90601 	 76.3164
| 14> H 	 55.8363 	 5.08311 	 75.5949
| 15> H 	 55.6942 	 6.84073 	 75.9904
| 16> C 	 55.3768 	 5.65505 	 77.7325
| 17> H 	 56.0889 	 5.00996 	 78.1858
| 18> H 	 55.3148 	 6.57809 	 78.3051
| 19> C 	 53.9219 	 5.09424 	 77.6682
| 20> H 	 53.0996 	 5.79933 	 77.5721
| 21> H 	 53.8264 	 4.35646 	 76.8645
| 22> H 	 53.7622 	 4.47301 	 78.5495
| 23> S 	 60.8474 	 2.57149 	 76.3634
| 24> C 	 62.2103 	 2.15316 	 75.2754
| 25> C 	 62.5277 	 3.13956 	 74.3352
| 26> C 	 61.7028 	 4.29561 	 74.492
| 27> C 	 60.8429 	 4.18487 	 75.6372
| 28> H 	 63.3392 	 2.91495 	 73.5917
| 29> C 	 61.7157 	 5.41973 	 73.4582
| 30> H 	 61.056 	 6.24511 	 73.7041
| 31> H 	 61.4137 	 5.03787 	 72.4296
| 32> C 	 63.1193 	 6.08835 	 73.2364
| 33> H 	 63.8387 	 5.28682 	 73.0007
| 34> H 	 63.5462 	 6.51052 	 74.2147
| 35> C 	 63.2503 	 7.16746 	 72.2052
| 36> H 	 64.2478 	 7.69802 	 72.2607
| 37> H 	 62.4882 	 7.91076 	 72.3425
| 38> H 	 63.1808 	 6.75057 	 71.1627
| 39> H 	 57.9403 	 7.6637 	 77.5422
| 40> H 	 62.7008 	 1.17113 	 75.437
| 41> *
| 42>
| 43>                          ****END OF INPUT****

CARTESIAN COORDINATES (ANGSTROEM)
---------------------------------
  S     60.066200    6.359220   77.294700
  C     58.406200    6.806310   77.094700
  C     57.592900    5.898530   76.460800
  C     58.493600    4.938690   75.801900
  C     59.837900    5.116930   76.105500
  H     58.188000    4.196030   75.054100
  C     56.069400    5.906010   76.316400
  H     55.836300    5.083110   75.594900
  H     55.694200    6.840730   75.990400
  C     55.376800    5.655050   77.732500
  H     56.088900    5.009960   78.185800
  H     55.314800    6.578090   78.305100
  C     53.921900    5.094240   77.668200
  H     53.099600    5.799330   77.572100
  H     53.826400    4.356460   76.864500
  H     53.762200    4.473010   78.549500
  S     60.847400    2.571490   76.363400
  C     62.210300    2.153160   75.275400
  C     62.527700    3.139560   74.335200
  C     61.702800    4.295610   74.492000
  C     60.842900    4.184870   75.637200
  H     63.339200    2.914950   73.591700
  C     61.715700    5.419730   73.458200
  H     61.056000    6.245110   73.704100
  H     61.413700    5.037870   72.429600
  C     63.119300    6.088350   73.236400
  H     63.838700    5.286820   73.000700
  H     63.546200    6.510520   74.214700
  C     63.250300    7.167460   72.205200
  H     64.247800    7.698020   72.260700
  H     62.488200    7.910760   72.342500
  H     63.180800    6.750570   71.162700
  H     57.940300    7.663700   77.542200
  H     62.700800    1.171130   75.437000

 Total Charge           Charge          ....    0
 Multiplicity           Mult            ....    1
 Number of Electrons    NEL             ....  134
 Basis Dimension        Dim             ....  322

ORBITAL ENERGIES
----------------

  NO   OCC          E(Eh)            E(eV)
   0   2.0000     -88.967685     -2420.9338
   1   2.0000     -88.967656     -2420.9330
   2   2.0000     -10.328499      -281.0528
   3   2.0000     -10.324386      -280.9408
   4   2.0000     -10.321160      -280.8531
   5   2.0000     -10.312523      -280.6180
   6   2.0000     -10.308361      -280.5048
   7   2.0000     -10.302988      -280.3586
   8   2.0000     -10.302458      -280.3441
   9   2.0000     -10.299386      -280.2605
  10   2.0000     -10.297983      -280.2224
  11   2.0000     -10.295896      -280.1656
  12   2.0000     -10.288994      -279.9778
  13   2.0000     -10.288798      -279.9724
  14   2.0000     -10.281200      -279.7657
  15   2.0000     -10.280885      -279.7571
  16   2.0000      -8.082850      -219.9455
  17   2.0000      -8.081436      -219.9071
  18   2.0000      -6.041303      -164.3922
  19   2.0000      -6.039822      -164.3519
  20   2.0000      -6.037481      -164.2882
  21   2.0000      -6.036243      -164.2545
  22   2.0000      -6.033463      -164.1789
  23   2.0000      -6.032223      -164.1451
  24   2.0000      -1.001697       -27.2576
  25   2.0000      -0.975695       -26.5500
  26   2.0000      -0.904252       -24.6059
  27   2.0000      -0.901123       -24.5208
  28   2.0000      -0.864721       -23.5302
  29   2.0000      -0.848848       -23.0983
  30   2.0000      -0.845578       -23.0094
  31   2.0000      -0.805850       -21.9283
  32   2.0000      -0.782842       -21.3022
  33   2.0000      -0.765850       -20.8398
  34   2.0000      -0.704129       -19.1603
  35   2.0000      -0.694818       -18.9070
  36   2.0000      -0.686084       -18.6693
  37   2.0000      -0.650823       -17.7098
  38   2.0000      -0.638926       -17.3861
  39   2.0000      -0.612310       -16.6618
  40   2.0000      -0.595905       -16.2154
  41   2.0000      -0.564649       -15.3649
  42   2.0000      -0.561003       -15.2657
  43   2.0000      -0.556408       -15.1406
  44   2.0000      -0.520776       -14.1710
  45   2.0000      -0.516976       -14.0676
  46   2.0000      -0.512688       -13.9510
  47   2.0000      -0.506465       -13.7816
  48   2.0000      -0.503121       -13.6906
  49   2.0000      -0.498534       -13.5658
  50   2.0000      -0.485590       -13.2136
  51   2.0000      -0.472993       -12.8708
  52   2.0000      -0.468472       -12.7478
  53   2.0000      -0.460335       -12.5263
  54   2.0000      -0.458553       -12.4779
  55   2.0000      -0.454933       -12.3794
  56   2.0000      -0.444247       -12.0886
  57   2.0000      -0.435572       -11.8525
  58   2.0000      -0.433384       -11.7930
  59   2.0000      -0.428739       -11.6666
  60   2.0000      -0.419288       -11.4094
  61   2.0000      -0.416579       -11.3357
  62   2.0000      -0.408309       -11.1106
  63   2.0000      -0.337151        -9.1743
  64   2.0000      -0.326891        -8.8951
  65   2.0000      -0.315974        -8.5981
  66   2.0000      -0.303038        -8.2461
  67   0.0000       0.039257         1.0682
  68   0.0000       0.053147         1.4462
  69   0.0000       0.099855         2.7172
  70   0.0000       0.116705         3.1757
  71   0.0000       0.126742         3.4488

MULLIKEN ATOMIC CHARGES
-----------------------
   0 S :    0.135588
   1 C :   -0.106997
   2 C :   -0.109774
   3 C :    0.008193
   4 C :   -0.173772
   5 H :    0.024684
   6 C :    0.091487
   7 H :    0.031771
   8 H :    0.028474
   9 C :   -0.092921
  10 H :    0.036293
  11 H :    0.035943
  12 C :   -0.048175
  13 H :    0.041886
  14 H :    0.020399
  15 H :    0.033323
  16 S :    0.112044
  17 C :   -0.127983
  18 C :   -0.038839
  19 C :    0.006794
  20 C :   -0.187815
  21 H :    0.050079
  22 C :    0.066093
  23 H :    0.030960
  24 H :    0.045063
  25 C :   -0.136518
  26 H :    0.022850
  27 H :    0.037661
  28 C :   -0.045009
  29 H :    0.045077
  30 H :    0.027503
  31 H :    0.033529
  32 H :    0.030345
  33 H :    0.071765
Sum of atomic charges:    0.0000000

LOEWDIN ATOMIC CHARGES
----------------------
   0 S :    0.419850
   1 C :   -0.197257
   2 C :   -0.063952
   3 C :   -0.057736
   4 C :   -0.220768
   5 H :    0.032482
   6 C :   -0.024699
   7 H :    0.034850
   8 H :    0.025099
   9 C :   -0.034041
  10 H :    0.021254
  11 H :    0.024870
  12 C :   -0.070586
  13 H :    0.025749
  14 H :    0.023397
  15 H :    0.030719
  16 S :    0.388013
  17 C :   -0.175013
  18 C :   -0.075611
  19 C :   -0.046789
  20 C :   -0.199122
  21 H :    0.045347
  22 C :   -0.032064
  23 H :    0.029004
  24 H :    0.040333
  25 C :   -0.055752
  26 H :    0.018079
  27 H :    0.030634
  28 C :   -0.072110
  29 H :    0.036898
  30 H :    0.020157
  31 H :    0.027485
  32 H :    0.020807
  33 H :    0.030472

  Mayer bond orders larger than 0.100000
B(  0-S ,  1-C ) :   1.1479 B(  0-S ,  4-C ) :   1.1334 B(  1-C ,  2-C ) :   1.6301
B(  1-C , 32-H ) :   0.9653 B(  2-C ,  3-C ) :   1.2164 B(  2-C ,  6-C ) :   1.0292
B(  3-C ,  4-C ) :   1.6011 B(  3-C ,  5-H ) :   0.9892 B(  4-C , 20-C ) :   1.0427
B(  6-C ,  7-H ) :   0.9449 B(  6-C ,  8-H ) :   0.9414 B(  6-C ,  9-C ) :   1.0453
B(  9-C , 10-H ) :   0.9670 B(  9-C , 11-H ) :   0.9572 B(  9-C , 12-C ) :   1.0755
B( 12-C , 13-H ) :   0.9779 B( 12-C , 14-H ) :   0.9769 B( 12-C , 15-H ) :   0.9749
B( 16-S , 17-C ) :   1.1527 B( 16-S , 20-C ) :   1.1475 B( 17-C , 18-C ) :   1.6136
B( 17-C , 20-C ) :   0.1064 B( 17-C , 33-H ) :   0.9629 B( 18-C , 19-C ) :   1.2263
B( 18-C , 21-H ) :   0.9802 B( 19-C , 20-C ) :   1.5841 B( 19-C , 22-C ) :   1.0524
B( 22-C , 23-H ) :   0.9329 B( 22-C , 24-H ) :   0.9403 B( 22-C , 25-C ) :   1.0443
B( 25-C , 26-H ) :   0.9556 B( 25-C , 27-H ) :   0.9545 B( 25-C , 28-C ) :   1.0926
B( 28-C , 29-H ) :   0.9715 B( 28-C , 30-H ) :   0.9731 B( 28-C , 31-H ) :   0.9719

Dispersion correction           -0.013514177
FINAL SINGLE POINT ENERGY     -1339.867861567233

DIPOLE MOMENT
-------------
                                X             Y             Z
Electronic contribution:     10.30138      -9.09003      10.78521
Nuclear contribution   :    -10.58078       9.12172     -11.11636
                        -----------------------------------------
Total Dipole Moment    :     -0.27940       0.03168      -0.33115
                        -----------------------------------------
Magnitude (a.u.)       :      0.43443
Magnitude (Debye)      :      1.10422

Rotational constants in cm-1:     0.020819     0.006975     0.005966
Rotational constants in MHz :   624.124808   209.105758   178.861644

                             ****ORCA TERMINATED NORMALLY****
TOTAL RUN TIME: 0 days 0 hours 0 minutes 29 seconds 663 msec
