                         Program Version 4.2.1 -  RELEASE  -
|  1> ! wB97X-D3 SP def2-SVP
|  2> %pal
|  3> nprocs 16
|  4> end
|  5>
|  6> * xyz 0 1
|  7> S 	 54.0633 	 22.3754 	 37.7666
|  8> C 	 54.97 	 23.8491 	 37.5255
|  9> C 	 54.9002 	 24.6818 	 38.6834
| 10> C 	 53.9211 	 24.1945 	 39.5696
| 11> C 	 53.393 	 22.9569 	 39.2106
| 12> H 	 53.5349 	 24.69 	 40.4624
| 13> C 	 55.5601 	 26.0033 	 38.7107
| 14> H 	 56.5051 	 25.7681 	 38.2063
| 15> H 	 55.7198 	 26.4544 	 39.7337
| 16> C 	 54.6804 	 27.0275 	 37.9026
| 17> H 	 54.526 	 26.8126 	 36.8175
| 18> H 	 53.717 	 27.1178 	 38.4489
| 19> C 	 55.1469 	 28.4602 	 38.0036
| 20> H 	 55.4409 	 28.6555 	 39.0358
| 21> H 	 55.9298 	 28.7074 	 37.3397
| 22> H 	 54.2957 	 29.1779 	 37.8407
| 23> S 	 52.8809 	 20.4568 	 40.2616
| 24> C 	 51.5417 	 20.2091 	 41.356
| 25> C 	 51.1193 	 21.4411 	 41.903
| 26> C 	 51.5548 	 22.5755 	 41.0397
| 27> C 	 52.531 	 22.1745 	 40.1272
| 28> H 	 50.5464 	 21.4843 	 42.8025
| 29> C 	 51.1201 	 23.9836 	 41.2312
| 30> H 	 51.8013 	 24.6223 	 41.7175
| 31> H 	 50.3422 	 23.8445 	 42.0207
| 32> C 	 50.4182 	 24.4832 	 40.0381
| 33> H 	 49.7629 	 23.7115 	 39.7232
| 34> H 	 51.1018 	 24.6913 	 39.1873
| 35> C 	 49.5691 	 25.7082 	 40.4087
| 36> H 	 50.0364 	 26.4319 	 41.0337
| 37> H 	 48.743 	 25.2266 	 41.0276
| 38> H 	 49.1773 	 26.0663 	 39.4519
| 39> H 	 55.7492 	 24.0793 	 36.7695
| 40> H 	 51.3796 	 19.2559 	 41.8362
| 41> *
| 42>
| 43>                          ****END OF INPUT****

CARTESIAN COORDINATES (ANGSTROEM)
---------------------------------
  S     54.063300   22.375400   37.766600
  C     54.970000   23.849100   37.525500
  C     54.900200   24.681800   38.683400
  C     53.921100   24.194500   39.569600
  C     53.393000   22.956900   39.210600
  H     53.534900   24.690000   40.462400
  C     55.560100   26.003300   38.710700
  H     56.505100   25.768100   38.206300
  H     55.719800   26.454400   39.733700
  C     54.680400   27.027500   37.902600
  H     54.526000   26.812600   36.817500
  H     53.717000   27.117800   38.448900
  C     55.146900   28.460200   38.003600
  H     55.440900   28.655500   39.035800
  H     55.929800   28.707400   37.339700
  H     54.295700   29.177900   37.840700
  S     52.880900   20.456800   40.261600
  C     51.541700   20.209100   41.356000
  C     51.119300   21.441100   41.903000
  C     51.554800   22.575500   41.039700
  C     52.531000   22.174500   40.127200
  H     50.546400   21.484300   42.802500
  C     51.120100   23.983600   41.231200
  H     51.801300   24.622300   41.717500
  H     50.342200   23.844500   42.020700
  C     50.418200   24.483200   40.038100
  H     49.762900   23.711500   39.723200
  H     51.101800   24.691300   39.187300
  C     49.569100   25.708200   40.408700
  H     50.036400   26.431900   41.033700
  H     48.743000   25.226600   41.027600
  H     49.177300   26.066300   39.451900
  H     55.749200   24.079300   36.769500
  H     51.379600   19.255900   41.836200

 Total Charge           Charge          ....    0
 Multiplicity           Mult            ....    1
 Number of Electrons    NEL             ....  134
 Basis Dimension        Dim             ....  322

ORBITAL ENERGIES
----------------

  NO   OCC          E(Eh)            E(eV)
   0   2.0000     -88.973617     -2421.0952
   1   2.0000     -88.963580     -2420.8221
   2   2.0000     -10.328622      -281.0561
   3   2.0000     -10.327260      -281.0190
   4   2.0000     -10.318081      -280.7692
   5   2.0000     -10.316565      -280.7280
   6   2.0000     -10.304708      -280.4054
   7   2.0000     -10.303026      -280.3596
   8   2.0000     -10.301478      -280.3175
   9   2.0000     -10.300011      -280.2775
  10   2.0000     -10.292059      -280.0612
  11   2.0000     -10.291239      -280.0389
  12   2.0000     -10.284076      -279.8439
  13   2.0000     -10.278104      -279.6814
  14   2.0000     -10.275785      -279.6183
  15   2.0000     -10.275022      -279.5976
  16   2.0000      -8.088539      -220.1003
  17   2.0000      -8.078346      -219.8230
  18   2.0000      -6.046915      -164.5449
  19   2.0000      -6.042856      -164.4345
  20   2.0000      -6.039593      -164.3457
  21   2.0000      -6.036866      -164.2715
  22   2.0000      -6.032992      -164.1661
  23   2.0000      -6.028957      -164.0563
  24   2.0000      -1.008797       -27.4508
  25   2.0000      -0.981598       -26.7106
  26   2.0000      -0.922731       -25.1088
  27   2.0000      -0.915790       -24.9199
  28   2.0000      -0.865727       -23.5576
  29   2.0000      -0.855118       -23.2689
  30   2.0000      -0.844884       -22.9905
  31   2.0000      -0.813428       -22.1345
  32   2.0000      -0.780489       -21.2382
  33   2.0000      -0.766727       -20.8637
  34   2.0000      -0.704351       -19.1664
  35   2.0000      -0.694723       -18.9044
  36   2.0000      -0.688360       -18.7312
  37   2.0000      -0.665386       -18.1061
  38   2.0000      -0.635973       -17.3057
  39   2.0000      -0.619620       -16.8607
  40   2.0000      -0.596438       -16.2299
  41   2.0000      -0.580431       -15.7943
  42   2.0000      -0.569909       -15.5080
  43   2.0000      -0.558605       -15.2004
  44   2.0000      -0.535904       -14.5827
  45   2.0000      -0.525668       -14.3041
  46   2.0000      -0.518526       -14.1098
  47   2.0000      -0.508724       -13.8431
  48   2.0000      -0.504656       -13.7324
  49   2.0000      -0.495707       -13.4889
  50   2.0000      -0.490947       -13.3593
  51   2.0000      -0.486904       -13.2493
  52   2.0000      -0.470634       -12.8066
  53   2.0000      -0.460138       -12.5210
  54   2.0000      -0.452363       -12.3094
  55   2.0000      -0.451796       -12.2940
  56   2.0000      -0.446901       -12.1608
  57   2.0000      -0.436479       -11.8772
  58   2.0000      -0.432325       -11.7642
  59   2.0000      -0.427767       -11.6401
  60   2.0000      -0.420385       -11.4393
  61   2.0000      -0.417028       -11.3479
  62   2.0000      -0.407393       -11.0857
  63   2.0000      -0.346647        -9.4327
  64   2.0000      -0.331606        -9.0235
  65   2.0000      -0.323876        -8.8131
  66   2.0000      -0.284311        -7.7365
  67   0.0000       0.022774         0.6197
  68   0.0000       0.071586         1.9480
  69   0.0000       0.097940         2.6651
  70   0.0000       0.120181         3.2703
  71   0.0000       0.128576         3.4987

MULLIKEN ATOMIC CHARGES
-----------------------
   0 S :    0.141294
   1 C :   -0.134395
   2 C :   -0.082268
   3 C :    0.019941
   4 C :   -0.142983
   5 H :    0.000265
   6 C :    0.051696
   7 H :    0.030754
   8 H :    0.036420
   9 C :   -0.101548
  10 H :    0.045926
  11 H :    0.031578
  12 C :   -0.035118
  13 H :    0.014923
  14 H :    0.028042
  15 H :    0.036349
  16 S :    0.093853
  17 C :   -0.094183
  18 C :   -0.027858
  19 C :   -0.093692
  20 C :   -0.112879
  21 H :    0.023056
  22 C :    0.054369
  23 H :    0.032286
  24 H :   -0.000818
  25 C :   -0.074358
  26 H :    0.026113
  27 H :    0.050795
  28 C :   -0.039714
  29 H :    0.029535
  30 H :    0.032431
  31 H :    0.039952
  32 H :    0.058643
  33 H :    0.061594
Sum of atomic charges:   -0.0000000

LOEWDIN ATOMIC CHARGES
----------------------
   0 S :    0.447637
   1 C :   -0.219689
   2 C :   -0.058993
   3 C :   -0.064997
   4 C :   -0.217804
   5 H :    0.030818
   6 C :   -0.036621
   7 H :    0.033139
   8 H :    0.037581
   9 C :   -0.042560
  10 H :    0.030533
  11 H :    0.030654
  12 C :   -0.068948
  13 H :    0.020926
  14 H :    0.014912
  15 H :    0.032233
  16 S :    0.396477
  17 C :   -0.191767
  18 C :   -0.059650
  19 C :   -0.059530
  20 C :   -0.184982
  21 H :    0.027259
  22 C :   -0.040359
  23 H :    0.020002
  24 H :    0.033992
  25 C :   -0.039900
  26 H :    0.025833
  27 H :    0.026296
  28 C :   -0.060833
  29 H :    0.017086
  30 H :    0.032206
  31 H :    0.028379
  32 H :    0.034666
  33 H :    0.026002

  Mayer bond orders larger than 0.100000
B(  0-S ,  1-C ) :   1.1565 B(  0-S ,  4-C ) :   1.1811 B(  1-C ,  2-C ) :   1.5413
B(  1-C ,  4-C ) :   0.1069 B(  1-C , 32-H ) :   0.9605 B(  2-C ,  3-C ) :   1.2955
B(  2-C ,  6-C ) :   1.0469 B(  3-C ,  4-C ) :   1.5038 B(  3-C ,  5-H ) :   0.9902
B(  4-C , 20-C ) :   1.0514 B(  6-C ,  7-H ) :   0.9300 B(  6-C ,  8-H ) :   0.9397
B(  6-C ,  9-C ) :   1.0615 B(  9-C , 10-H ) :   0.9571 B(  9-C , 11-H ) :   0.9589
B(  9-C , 12-C ) :   1.0840 B( 12-C , 13-H ) :   0.9688 B( 12-C , 14-H ) :   0.9759
B( 12-C , 15-H ) :   0.9755 B( 16-S , 17-C ) :   1.1527 B( 16-S , 20-C ) :   1.1406
B( 17-C , 18-C ) :   1.6111 B( 17-C , 33-H ) :   0.9660 B( 18-C , 19-C ) :   1.2294
B( 18-C , 21-H ) :   0.9877 B( 19-C , 20-C ) :   1.5974 B( 19-C , 22-C ) :   1.0440
B( 22-C , 23-H ) :   0.9272 B( 22-C , 24-H ) :   0.9216 B( 22-C , 25-C ) :   1.0688
B( 25-C , 26-H ) :   0.9516 B( 25-C , 27-H ) :   0.9487 B( 25-C , 28-C ) :   1.0791
B( 28-C , 29-H ) :   0.9760 B( 28-C , 30-H ) :   0.9775 B( 28-C , 31-H ) :   0.9733

Dispersion correction           -0.014351479
FINAL SINGLE POINT ENERGY     -1339.855681399951

DIPOLE MOMENT
-------------
                                X             Y             Z
Electronic contribution:      5.74908     -30.84140      -1.73705
Nuclear contribution   :     -5.74446      31.45736       2.07154
                        -----------------------------------------
Total Dipole Moment    :      0.00462       0.61596       0.33449
                        -----------------------------------------
Magnitude (a.u.)       :      0.70093
Magnitude (Debye)      :      1.78163

Rotational constants in cm-1:     0.019368     0.009077     0.006736
Rotational constants in MHz :   580.644199   272.108359   201.931358

                             ****ORCA TERMINATED NORMALLY****
TOTAL RUN TIME: 0 days 0 hours 0 minutes 30 seconds 200 msec
