                         Program Version 4.2.1 -  RELEASE  -
|  1> ! wB97X-D3 SP def2-SVP
|  2> %pal
|  3> nprocs 16
|  4> end
|  5>
|  6> * xyz 0 1
|  7> S 	 -72.4659 	 48.2004 	 137.577
|  8> C 	 -71.081 	 47.2597 	 138.17
|  9> C 	 -70.028 	 48.1116 	 138.573
| 10> C 	 -70.3747 	 49.4913 	 138.301
| 11> C 	 -71.6788 	 49.6735 	 137.847
| 12> H 	 -69.5988 	 50.2924 	 138.447
| 13> C 	 -68.7464 	 47.7084 	 139.313
| 14> H 	 -68.1434 	 48.5897 	 139.599
| 15> H 	 -68.1226 	 47.0978 	 138.576
| 16> C 	 -69.0375 	 47.0137 	 140.626
| 17> H 	 -69.8038 	 47.517 	 141.273
| 18> H 	 -69.533 	 46.0619 	 140.526
| 19> C 	 -67.8723 	 46.6411 	 141.399
| 20> H 	 -67.2394 	 47.4264 	 141.898
| 21> H 	 -68.2441 	 46.0333 	 142.267
| 22> H 	 -67.1725 	 46.042 	 140.799
| 23> S 	 -74.1505 	 50.9665 	 138.098
| 24> C 	 -74.2099 	 52.7113 	 137.653
| 25> C 	 -73.0112 	 53.1254 	 137.104
| 26> C 	 -72.0268 	 52.0717 	 137.083
| 27> C 	 -72.4572 	 50.9024 	 137.653
| 28> H 	 -72.8448 	 54.1545 	 136.855
| 29> C 	 -70.5899 	 52.47 	 136.715
| 30> H 	 -70.7479 	 53.1671 	 135.909
| 31> H 	 -69.9582 	 51.5848 	 136.566
| 32> C 	 -69.9834 	 53.4099 	 137.77
| 33> H 	 -69.8555 	 52.868 	 138.714
| 34> H 	 -70.6889 	 54.2365 	 137.927
| 35> C 	 -68.5959 	 53.9925 	 137.356
| 36> H 	 -67.927 	 53.2251 	 137.311
| 37> H 	 -68.4086 	 54.7339 	 138.191
| 38> H 	 -68.6679 	 54.3327 	 136.327
| 39> H 	 -71.0303 	 46.2083 	 138.254
| 40> H 	 -75.0941 	 53.3928 	 137.661
| 41> *
| 42>
| 43>                          ****END OF INPUT****

CARTESIAN COORDINATES (ANGSTROEM)
---------------------------------
  S    -72.465900   48.200400  137.577000
  C    -71.081000   47.259700  138.170000
  C    -70.028000   48.111600  138.573000
  C    -70.374700   49.491300  138.301000
  C    -71.678800   49.673500  137.847000
  H    -69.598800   50.292400  138.447000
  C    -68.746400   47.708400  139.313000
  H    -68.143400   48.589700  139.599000
  H    -68.122600   47.097800  138.576000
  C    -69.037500   47.013700  140.626000
  H    -69.803800   47.517000  141.273000
  H    -69.533000   46.061900  140.526000
  C    -67.872300   46.641100  141.399000
  H    -67.239400   47.426400  141.898000
  H    -68.244100   46.033300  142.267000
  H    -67.172500   46.042000  140.799000
  S    -74.150500   50.966500  138.098000
  C    -74.209900   52.711300  137.653000
  C    -73.011200   53.125400  137.104000
  C    -72.026800   52.071700  137.083000
  C    -72.457200   50.902400  137.653000
  H    -72.844800   54.154500  136.855000
  C    -70.589900   52.470000  136.715000
  H    -70.747900   53.167100  135.909000
  H    -69.958200   51.584800  136.566000
  C    -69.983400   53.409900  137.770000
  H    -69.855500   52.868000  138.714000
  H    -70.688900   54.236500  137.927000
  C    -68.595900   53.992500  137.356000
  H    -67.927000   53.225100  137.311000
  H    -68.408600   54.733900  138.191000
  H    -68.667900   54.332700  136.327000
  H    -71.030300   46.208300  138.254000
  H    -75.094100   53.392800  137.661000

 Total Charge           Charge          ....    0
 Multiplicity           Mult            ....    1
 Number of Electrons    NEL             ....  134
 Basis Dimension        Dim             ....  322

ORBITAL ENERGIES
----------------

  NO   OCC          E(Eh)            E(eV)
   0   2.0000     -88.968827     -2420.9649
   1   2.0000     -88.968347     -2420.9518
   2   2.0000     -10.329721      -281.0860
   3   2.0000     -10.326366      -280.9947
   4   2.0000     -10.325398      -280.9684
   5   2.0000     -10.314761      -280.6789
   6   2.0000     -10.307917      -280.4927
   7   2.0000     -10.304057      -280.3876
   8   2.0000     -10.300561      -280.2925
   9   2.0000     -10.300156      -280.2815
  10   2.0000     -10.295489      -280.1545
  11   2.0000     -10.291595      -280.0485
  12   2.0000     -10.286980      -279.9230
  13   2.0000     -10.283390      -279.8253
  14   2.0000     -10.280453      -279.7454
  15   2.0000     -10.277909      -279.6761
  16   2.0000      -8.083996      -219.9767
  17   2.0000      -8.082111      -219.9254
  18   2.0000      -6.042511      -164.4251
  19   2.0000      -6.040852      -164.3799
  20   2.0000      -6.038335      -164.3114
  21   2.0000      -6.036903      -164.2725
  22   2.0000      -6.034832      -164.2161
  23   2.0000      -6.032525      -164.1533
  24   2.0000      -1.007312       -27.4104
  25   2.0000      -0.980617       -26.6840
  26   2.0000      -0.921838       -25.0845
  27   2.0000      -0.909929       -24.7604
  28   2.0000      -0.872068       -23.7302
  29   2.0000      -0.850636       -23.1470
  30   2.0000      -0.845943       -23.0193
  31   2.0000      -0.812545       -22.1105
  32   2.0000      -0.783375       -21.3167
  33   2.0000      -0.772116       -21.0103
  34   2.0000      -0.702132       -19.1060
  35   2.0000      -0.696363       -18.9490
  36   2.0000      -0.689554       -18.7637
  37   2.0000      -0.665705       -18.1147
  38   2.0000      -0.638435       -17.3727
  39   2.0000      -0.618683       -16.8352
  40   2.0000      -0.589711       -16.0468
  41   2.0000      -0.574495       -15.6328
  42   2.0000      -0.572430       -15.5766
  43   2.0000      -0.562145       -15.2967
  44   2.0000      -0.532903       -14.5010
  45   2.0000      -0.530761       -14.4427
  46   2.0000      -0.524085       -14.2611
  47   2.0000      -0.513935       -13.9849
  48   2.0000      -0.505255       -13.7487
  49   2.0000      -0.496600       -13.5132
  50   2.0000      -0.491942       -13.3864
  51   2.0000      -0.477045       -12.9811
  52   2.0000      -0.470892       -12.8136
  53   2.0000      -0.462759       -12.5923
  54   2.0000      -0.458709       -12.4821
  55   2.0000      -0.452072       -12.3015
  56   2.0000      -0.443647       -12.0722
  57   2.0000      -0.435793       -11.8585
  58   2.0000      -0.433218       -11.7885
  59   2.0000      -0.430093       -11.7034
  60   2.0000      -0.426290       -11.5999
  61   2.0000      -0.410771       -11.1777
  62   2.0000      -0.403366       -10.9761
  63   2.0000      -0.350405        -9.5350
  64   2.0000      -0.331692        -9.0258
  65   2.0000      -0.329726        -8.9723
  66   2.0000      -0.288248        -7.8436
  67   0.0000       0.028032         0.7628
  68   0.0000       0.073148         1.9904
  69   0.0000       0.102396         2.7863
  70   0.0000       0.118797         3.2326
  71   0.0000       0.128333         3.4921

MULLIKEN ATOMIC CHARGES
-----------------------
   0 S :    0.115182
   1 C :   -0.113793
   2 C :   -0.097367
   3 C :   -0.006204
   4 C :   -0.135641
   5 H :    0.026172
   6 C :    0.056229
   7 H :    0.027391
   8 H :    0.052650
   9 C :   -0.072625
  10 H :    0.039227
  11 H :    0.016228
  12 C :   -0.068167
  13 H :    0.032867
  14 H :    0.035529
  15 H :    0.026511
  16 S :    0.103287
  17 C :   -0.105739
  18 C :   -0.038750
  19 C :   -0.036439
  20 C :   -0.127834
  21 H :    0.021858
  22 C :    0.074765
  23 H :    0.015012
  24 H :    0.036267
  25 C :   -0.130120
  26 H :    0.029290
  27 H :    0.025397
  28 C :    0.008142
  29 H :    0.005319
  30 H :    0.057359
  31 H :    0.024093
  32 H :    0.031948
  33 H :    0.071957
Sum of atomic charges:   -0.0000000

LOEWDIN ATOMIC CHARGES
----------------------
   0 S :    0.429608
   1 C :   -0.195174
   2 C :   -0.053686
   3 C :   -0.080289
   4 C :   -0.204006
   5 H :    0.035670
   6 C :   -0.034904
   7 H :    0.033057
   8 H :    0.042586
   9 C :   -0.058146
  10 H :    0.035531
  11 H :    0.024682
  12 C :   -0.072518
  13 H :    0.023332
  14 H :    0.034407
  15 H :    0.024014
  16 S :    0.379089
  17 C :   -0.175048
  18 C :   -0.066861
  19 C :   -0.054631
  20 C :   -0.202266
  21 H :    0.029155
  22 C :   -0.029777
  23 H :    0.029572
  24 H :    0.029214
  25 C :   -0.038917
  26 H :    0.019182
  27 H :    0.020378
  28 C :   -0.057159
  29 H :    0.008621
  30 H :    0.041924
  31 H :    0.024811
  32 H :    0.017629
  33 H :    0.040920

  Mayer bond orders larger than 0.100000
B(  0-S ,  1-C ) :   1.1339 B(  0-S ,  4-C ) :   1.1802 B(  1-C ,  2-C ) :   1.5910
B(  1-C , 32-H ) :   0.9771 B(  2-C ,  3-C ) :   1.2785 B(  2-C ,  6-C ) :   1.0173
B(  3-C ,  4-C ) :   1.5333 B(  3-C ,  5-H ) :   0.9816 B(  4-C , 20-C ) :   1.0349
B(  6-C ,  7-H ) :   0.9482 B(  6-C ,  8-H ) :   0.9321 B(  6-C ,  9-C ) :   1.0632
B(  9-C , 10-H ) :   0.9501 B(  9-C , 11-H ) :   0.9438 B(  9-C , 12-C ) :   1.1014
B( 12-C , 13-H ) :   0.9709 B( 12-C , 14-H ) :   0.9707 B( 12-C , 15-H ) :   0.9686
B( 16-S , 17-C ) :   1.1265 B( 16-S , 20-C ) :   1.1154 B( 17-C , 18-C ) :   1.6503
B( 17-C , 33-H ) :   0.9602 B( 18-C , 19-C ) :   1.2052 B( 18-C , 21-H ) :   0.9855
B( 19-C , 20-C ) :   1.6281 B( 19-C , 22-C ) :   1.0610 B( 22-C , 23-H ) :   0.9214
B( 22-C , 24-H ) :   0.9336 B( 22-C , 25-C ) :   1.0722 B( 25-C , 26-H ) :   0.9533
B( 25-C , 27-H ) :   0.9548 B( 25-C , 28-C ) :   1.0702 B( 28-C , 29-H ) :   0.9741
B( 28-C , 30-H ) :   0.9743 B( 28-C , 31-H ) :   0.9724

Dispersion correction           -0.013717350
FINAL SINGLE POINT ENERGY     -1339.866380278223

DIPOLE MOMENT
-------------
                                X             Y             Z
Electronic contribution:    -27.72847      -3.93904      -9.06395
Nuclear contribution   :     28.29399       4.18200       9.23629
                        -----------------------------------------
Total Dipole Moment    :      0.56552       0.24297       0.17235
                        -----------------------------------------
Magnitude (a.u.)       :      0.63918
Magnitude (Debye)      :      1.62466

Rotational constants in cm-1:     0.018115     0.008312     0.006254
Rotational constants in MHz :   543.083091   249.175102   187.477927

                             ****ORCA TERMINATED NORMALLY****
TOTAL RUN TIME: 0 days 0 hours 0 minutes 35 seconds 137 msec
