                         Program Version 4.2.1 -  RELEASE  -
|  1> ! wB97X-D3 SP def2-SVP
|  2> %pal
|  3> nprocs 16
|  4> end
|  5>
|  6> * xyz 0 1
|  7> S 	 -23.5414 	 -4.86169 	 96.7058
|  8> C 	 -23.6063 	 -6.13999 	 97.7836
|  9> C 	 -23.5878 	 -5.81667 	 99.1662
| 10> C 	 -23.4423 	 -4.36555 	 99.2163
| 11> C 	 -23.585 	 -3.77884 	 97.9803
| 12> H 	 -23.4102 	 -3.82494 	 100.135
| 13> C 	 -23.6433 	 -6.82394 	 100.307
| 14> H 	 -23.016 	 -6.72064 	 101.096
| 15> H 	 -23.3756 	 -7.74663 	 99.9087
| 16> C 	 -25.0441 	 -7.02079 	 100.911
| 17> H 	 -25.8589 	 -7.05801 	 100.118
| 18> H 	 -25.1106 	 -8.00743 	 101.461
| 19> C 	 -25.4868 	 -5.94453 	 101.953
| 20> H 	 -24.7887 	 -6.1209 	 102.757
| 21> H 	 -25.3331 	 -4.99707 	 101.574
| 22> H 	 -26.5736 	 -6.1444 	 102.251
| 23> S 	 -21.9391 	 -1.5545 	 97.6766
| 24> C 	 -22.5838 	 0.040975 	 97.8973
| 25> C 	 -23.9354 	 -0.0609327 	 98.0262
| 26> C 	 -24.4841 	 -1.33883 	 97.917
| 27> C 	 -23.5224 	 -2.30432 	 97.882
| 28> H 	 -24.4635 	 0.803531 	 98.268
| 29> C 	 -25.9628 	 -1.51696 	 98.0152
| 30> H 	 -26.1583 	 -2.34255 	 97.3061
| 31> H 	 -26.4841 	 -0.61862 	 97.5962
| 32> C 	 -26.5895 	 -1.99223 	 99.3398
| 33> H 	 -26.5355 	 -1.10717 	 100.012
| 34> H 	 -26.0467 	 -2.86905 	 99.7996
| 35> C 	 -28.0467 	 -2.25056 	 99.1108
| 36> H 	 -28.3608 	 -1.61425 	 98.3033
| 37> H 	 -28.4652 	 -1.92214 	 100.006
| 38> H 	 -28.2976 	 -3.2995 	 98.8746
| 39> H 	 -23.9047 	 -7.1384 	 97.4447
| 40> H 	 -21.9998 	 0.946014 	 97.821
| 41> *
| 42>
| 43>                          ****END OF INPUT****

CARTESIAN COORDINATES (ANGSTROEM)
---------------------------------
  S    -23.541400   -4.861690   96.705800
  C    -23.606300   -6.139990   97.783600
  C    -23.587800   -5.816670   99.166200
  C    -23.442300   -4.365550   99.216300
  C    -23.585000   -3.778840   97.980300
  H    -23.410200   -3.824940  100.135000
  C    -23.643300   -6.823940  100.307000
  H    -23.016000   -6.720640  101.096000
  H    -23.375600   -7.746630   99.908700
  C    -25.044100   -7.020790  100.911000
  H    -25.858900   -7.058010  100.118000
  H    -25.110600   -8.007430  101.461000
  C    -25.486800   -5.944530  101.953000
  H    -24.788700   -6.120900  102.757000
  H    -25.333100   -4.997070  101.574000
  H    -26.573600   -6.144400  102.251000
  S    -21.939100   -1.554500   97.676600
  C    -22.583800    0.040975   97.897300
  C    -23.935400   -0.060933   98.026200
  C    -24.484100   -1.338830   97.917000
  C    -23.522400   -2.304320   97.882000
  H    -24.463500    0.803531   98.268000
  C    -25.962800   -1.516960   98.015200
  H    -26.158300   -2.342550   97.306100
  H    -26.484100   -0.618620   97.596200
  C    -26.589500   -1.992230   99.339800
  H    -26.535500   -1.107170  100.012000
  H    -26.046700   -2.869050   99.799600
  C    -28.046700   -2.250560   99.110800
  H    -28.360800   -1.614250   98.303300
  H    -28.465200   -1.922140  100.006000
  H    -28.297600   -3.299500   98.874600
  H    -23.904700   -7.138400   97.444700
  H    -21.999800    0.946014   97.821000

 Total Charge           Charge          ....    0
 Multiplicity           Mult            ....    1
 Number of Electrons    NEL             ....  134
 Basis Dimension        Dim             ....  322

ORBITAL ENERGIES
----------------

  NO   OCC          E(Eh)            E(eV)
   0   2.0000     -88.972521     -2421.0654
   1   2.0000     -88.957024     -2420.6437
   2   2.0000     -10.321128      -280.8522
   3   2.0000     -10.320303      -280.8297
   4   2.0000     -10.311586      -280.5925
   5   2.0000     -10.309374      -280.5323
   6   2.0000     -10.309153      -280.5263
   7   2.0000     -10.294522      -280.1282
   8   2.0000     -10.293876      -280.1106
   9   2.0000     -10.291079      -280.0345
  10   2.0000     -10.288913      -279.9755
  11   2.0000     -10.286214      -279.9021
  12   2.0000     -10.286209      -279.9020
  13   2.0000     -10.277770      -279.6724
  14   2.0000     -10.277740      -279.6715
  15   2.0000     -10.266993      -279.3791
  16   2.0000      -8.089773      -220.1339
  17   2.0000      -8.072163      -219.6547
  18   2.0000      -6.047855      -164.5705
  19   2.0000      -6.043898      -164.4628
  20   2.0000      -6.040878      -164.3806
  21   2.0000      -6.030624      -164.1016
  22   2.0000      -6.026540      -163.9905
  23   2.0000      -6.023044      -163.8954
  24   2.0000      -1.017159       -27.6783
  25   2.0000      -0.992724       -27.0134
  26   2.0000      -0.914534       -24.8857
  27   2.0000      -0.912394       -24.8275
  28   2.0000      -0.868201       -23.6250
  29   2.0000      -0.855271       -23.2731
  30   2.0000      -0.852702       -23.2032
  31   2.0000      -0.815101       -22.1800
  32   2.0000      -0.787879       -21.4393
  33   2.0000      -0.770379       -20.9631
  34   2.0000      -0.697244       -18.9730
  35   2.0000      -0.693364       -18.8674
  36   2.0000      -0.685878       -18.6637
  37   2.0000      -0.661895       -18.0111
  38   2.0000      -0.652170       -17.7464
  39   2.0000      -0.620936       -16.8965
  40   2.0000      -0.599593       -16.3158
  41   2.0000      -0.578219       -15.7341
  42   2.0000      -0.568557       -15.4712
  43   2.0000      -0.549737       -14.9591
  44   2.0000      -0.543286       -14.7836
  45   2.0000      -0.528930       -14.3929
  46   2.0000      -0.518643       -14.1130
  47   2.0000      -0.514094       -13.9892
  48   2.0000      -0.509597       -13.8668
  49   2.0000      -0.497326       -13.5329
  50   2.0000      -0.487829       -13.2745
  51   2.0000      -0.482905       -13.1405
  52   2.0000      -0.473010       -12.8712
  53   2.0000      -0.462805       -12.5936
  54   2.0000      -0.462180       -12.5766
  55   2.0000      -0.452551       -12.3145
  56   2.0000      -0.442318       -12.0361
  57   2.0000      -0.437991       -11.9183
  58   2.0000      -0.430861       -11.7243
  59   2.0000      -0.424026       -11.5383
  60   2.0000      -0.417305       -11.3555
  61   2.0000      -0.414536       -11.2801
  62   2.0000      -0.412486       -11.2243
  63   2.0000      -0.338172        -9.2021
  64   2.0000      -0.325692        -8.8625
  65   2.0000      -0.316220        -8.6048
  66   2.0000      -0.312767        -8.5108
  67   0.0000       0.051184         1.3928
  68   0.0000       0.055367         1.5066
  69   0.0000       0.112906         3.0723
  70   0.0000       0.126552         3.4437
  71   0.0000       0.131221         3.5707

MULLIKEN ATOMIC CHARGES
-----------------------
   0 S :    0.167116
   1 C :   -0.124453
   2 C :   -0.113935
   3 C :    0.040730
   4 C :   -0.181499
   5 H :    0.012143
   6 C :    0.183451
   7 H :   -0.003666
   8 H :   -0.001774
   9 C :   -0.150300
  10 H :    0.033033
  11 H :    0.035934
  12 C :   -0.032070
  13 H :    0.023183
  14 H :    0.016489
  15 H :    0.054095
  16 S :    0.097402
  17 C :   -0.088557
  18 C :   -0.030951
  19 C :    0.020788
  20 C :   -0.196799
  21 H :   -0.010707
  22 C :    0.023035
  23 H :    0.022398
  24 H :    0.031715
  25 C :   -0.096770
  26 H :    0.023419
  27 H :    0.051292
  28 C :    0.008586
  29 H :    0.018624
  30 H :    0.017009
  31 H :    0.043130
  32 H :    0.051458
  33 H :    0.056452
Sum of atomic charges:    0.0000000

LOEWDIN ATOMIC CHARGES
----------------------
   0 S :    0.482560
   1 C :   -0.225679
   2 C :   -0.051009
   3 C :   -0.050362
   4 C :   -0.236312
   5 H :    0.026221
   6 C :   -0.021465
   7 H :    0.019173
   8 H :    0.029115
   9 C :   -0.043099
  10 H :    0.023126
  11 H :    0.026337
  12 C :   -0.062036
  13 H :    0.021865
  14 H :    0.007993
  15 H :    0.039076
  16 S :    0.398928
  17 C :   -0.185989
  18 C :   -0.072600
  19 C :   -0.064485
  20 C :   -0.191386
  21 H :    0.019626
  22 C :   -0.041271
  23 H :    0.032355
  24 H :    0.034201
  25 C :   -0.041009
  26 H :    0.022750
  27 H :    0.031537
  28 C :   -0.057523
  29 H :    0.023348
  30 H :    0.020176
  31 H :    0.030188
  32 H :    0.025202
  33 H :    0.030450

  Mayer bond orders larger than 0.100000
B(  0-S ,  1-C ) :   1.1879 B(  0-S ,  4-C ) :   1.1863 B(  1-C ,  2-C ) :   1.5815
B(  1-C , 32-H ) :   0.9551 B(  2-C ,  3-C ) :   1.2649 B(  2-C ,  6-C ) :   1.0309
B(  3-C ,  4-C ) :   1.5508 B(  3-C ,  5-H ) :   0.9952 B(  4-C , 20-C ) :   0.9947
B(  6-C ,  7-H ) :   0.9393 B(  6-C ,  8-H ) :   0.9214 B(  6-C ,  9-C ) :   1.0600
B(  9-C , 10-H ) :   0.9586 B(  9-C , 11-H ) :   0.9600 B(  9-C , 12-C ) :   1.0650
B( 12-C , 13-H ) :   0.9759 B( 12-C , 14-H ) :   0.9803 B( 12-C , 15-H ) :   0.9739
B( 16-S , 17-C ) :   1.1585 B( 16-S , 20-C ) :   1.1529 B( 17-C , 18-C ) :   1.5944
B( 17-C , 20-C ) :   0.1005 B( 17-C , 33-H ) :   0.9703 B( 18-C , 19-C ) :   1.2485
B( 18-C , 21-H ) :   1.0026 B( 19-C , 20-C ) :   1.6035 B( 19-C , 22-C ) :   1.0484
B( 22-C , 23-H ) :   0.9244 B( 22-C , 24-H ) :   0.9295 B( 22-C , 25-C ) :   1.0752
B( 25-C , 26-H ) :   0.9594 B( 25-C , 27-H ) :   0.9487 B( 25-C , 28-C ) :   1.0730
B( 28-C , 29-H ) :   0.9705 B( 28-C , 30-H ) :   0.9739 B( 28-C , 31-H ) :   0.9738

Dispersion correction           -0.014967763
FINAL SINGLE POINT ENERGY     -1339.856413465842

DIPOLE MOMENT
-------------
                                X             Y             Z
Electronic contribution:     21.79265       6.78818     -18.97694
Nuclear contribution   :    -22.22154      -6.92540      19.38069
                        -----------------------------------------
Total Dipole Moment    :     -0.42890      -0.13722       0.40375
                        -----------------------------------------
Magnitude (a.u.)       :      0.60481
Magnitude (Debye)      :      1.53730

Rotational constants in cm-1:     0.017167     0.009854     0.007648
Rotational constants in MHz :   514.668013   295.410730   229.293829

                             ****ORCA TERMINATED NORMALLY****
TOTAL RUN TIME: 0 days 0 hours 0 minutes 29 seconds 532 msec
