                         Program Version 4.2.1 -  RELEASE  -
|  1> ! wB97X-D3 SP def2-SVP
|  2> %pal
|  3> nprocs 16
|  4> end
|  5>
|  6> * xyz 0 1
|  7> S 	 -38.0364 	 48.4167 	 96.1508
|  8> C 	 -37.2888 	 48.0365 	 97.7085
|  9> C 	 -38.1998 	 47.4546 	 98.6332
| 10> C 	 -39.4405 	 47.1494 	 97.9803
| 11> C 	 -39.5672 	 47.7253 	 96.7022
| 12> H 	 -40.2801 	 46.6617 	 98.3574
| 13> C 	 -37.7858 	 46.8973 	 100.061
| 14> H 	 -37.3253 	 45.917 	 100.055
| 15> H 	 -38.691 	 46.6318 	 100.633
| 16> C 	 -36.8266 	 47.7814 	 100.835
| 17> H 	 -36.3158 	 47.2596 	 101.634
| 18> H 	 -35.971 	 47.8722 	 100.168
| 19> C 	 -37.4382 	 49.0841 	 101.248
| 20> H 	 -38.3744 	 48.9705 	 101.684
| 21> H 	 -36.6904 	 49.5718 	 101.909
| 22> H 	 -37.5332 	 49.6955 	 100.356
| 23> S 	 -40.2836 	 46.513 	 94.1941
| 24> C 	 -41.933 	 46.4281 	 93.7266
| 25> C 	 -42.7364 	 46.8949 	 94.7965
| 26> C 	 -42.0347 	 47.2683 	 95.9595
| 27> C 	 -40.6519 	 47.3393 	 95.6996
| 28> H 	 -43.8626 	 46.9129 	 94.7494
| 29> C 	 -42.7839 	 47.755 	 97.1932
| 30> H 	 -43.4468 	 48.4687 	 96.7943
| 31> H 	 -42.0249 	 48.2661 	 97.8007
| 32> C 	 -43.4765 	 46.732 	 98.1156
| 33> H 	 -42.8287 	 45.8972 	 98.3416
| 34> H 	 -44.3174 	 46.2704 	 97.5947
| 35> C 	 -43.8623 	 47.4352 	 99.4479
| 36> H 	 -42.9846 	 47.7785 	 99.9384
| 37> H 	 -44.3595 	 46.7944 	 100.114
| 38> H 	 -44.5214 	 48.2693 	 99.3108
| 39> H 	 -36.2999 	 48.2105 	 98.0145
| 40> H 	 -42.2663 	 46.1941 	 92.7613
| 41> *
| 42>
| 43>                          ****END OF INPUT****

CARTESIAN COORDINATES (ANGSTROEM)
---------------------------------
  S    -38.036400   48.416700   96.150800
  C    -37.288800   48.036500   97.708500
  C    -38.199800   47.454600   98.633200
  C    -39.440500   47.149400   97.980300
  C    -39.567200   47.725300   96.702200
  H    -40.280100   46.661700   98.357400
  C    -37.785800   46.897300  100.061000
  H    -37.325300   45.917000  100.055000
  H    -38.691000   46.631800  100.633000
  C    -36.826600   47.781400  100.835000
  H    -36.315800   47.259600  101.634000
  H    -35.971000   47.872200  100.168000
  C    -37.438200   49.084100  101.248000
  H    -38.374400   48.970500  101.684000
  H    -36.690400   49.571800  101.909000
  H    -37.533200   49.695500  100.356000
  S    -40.283600   46.513000   94.194100
  C    -41.933000   46.428100   93.726600
  C    -42.736400   46.894900   94.796500
  C    -42.034700   47.268300   95.959500
  C    -40.651900   47.339300   95.699600
  H    -43.862600   46.912900   94.749400
  C    -42.783900   47.755000   97.193200
  H    -43.446800   48.468700   96.794300
  H    -42.024900   48.266100   97.800700
  C    -43.476500   46.732000   98.115600
  H    -42.828700   45.897200   98.341600
  H    -44.317400   46.270400   97.594700
  C    -43.862300   47.435200   99.447900
  H    -42.984600   47.778500   99.938400
  H    -44.359500   46.794400  100.114000
  H    -44.521400   48.269300   99.310800
  H    -36.299900   48.210500   98.014500
  H    -42.266300   46.194100   92.761300

 Total Charge           Charge          ....    0
 Multiplicity           Mult            ....    1
 Number of Electrons    NEL             ....  134
 Basis Dimension        Dim             ....  322

ORBITAL ENERGIES
----------------

  NO   OCC          E(Eh)            E(eV)
   0   2.0000     -88.974544     -2421.1204
   1   2.0000     -88.967564     -2420.9305
   2   2.0000     -10.336791      -281.2784
   3   2.0000     -10.331802      -281.1426
   4   2.0000     -10.319923      -280.8194
   5   2.0000     -10.314213      -280.6640
   6   2.0000     -10.314128      -280.6617
   7   2.0000     -10.300178      -280.2821
   8   2.0000     -10.297989      -280.2225
   9   2.0000     -10.297825      -280.2181
  10   2.0000     -10.296807      -280.1904
  11   2.0000     -10.290377      -280.0154
  12   2.0000     -10.287894      -279.9478
  13   2.0000     -10.282688      -279.8062
  14   2.0000     -10.272725      -279.5351
  15   2.0000     -10.270102      -279.4637
  16   2.0000      -8.088010      -220.0859
  17   2.0000      -8.082337      -219.9316
  18   2.0000      -6.046578      -164.5358
  19   2.0000      -6.042612      -164.4278
  20   2.0000      -6.040790      -164.3783
  21   2.0000      -6.038879      -164.3263
  22   2.0000      -6.036735      -164.2679
  23   2.0000      -6.033263      -164.1734
  24   2.0000      -1.000487       -27.2246
  25   2.0000      -0.979676       -26.6583
  26   2.0000      -0.914272       -24.8786
  27   2.0000      -0.909659       -24.7531
  28   2.0000      -0.859006       -23.3748
  29   2.0000      -0.854056       -23.2401
  30   2.0000      -0.847060       -23.0497
  31   2.0000      -0.807101       -21.9623
  32   2.0000      -0.785787       -21.3823
  33   2.0000      -0.776567       -21.1315
  34   2.0000      -0.709869       -19.3165
  35   2.0000      -0.707590       -19.2545
  36   2.0000      -0.691930       -18.8284
  37   2.0000      -0.657898       -17.9023
  38   2.0000      -0.642376       -17.4799
  39   2.0000      -0.611360       -16.6360
  40   2.0000      -0.595760       -16.2115
  41   2.0000      -0.576065       -15.6755
  42   2.0000      -0.567373       -15.4390
  43   2.0000      -0.552087       -15.0231
  44   2.0000      -0.537459       -14.6250
  45   2.0000      -0.525205       -14.2916
  46   2.0000      -0.515885       -14.0379
  47   2.0000      -0.514922       -14.0117
  48   2.0000      -0.508085       -13.8257
  49   2.0000      -0.495771       -13.4906
  50   2.0000      -0.486357       -13.2344
  51   2.0000      -0.483771       -13.1641
  52   2.0000      -0.474152       -12.9023
  53   2.0000      -0.466792       -12.7020
  54   2.0000      -0.458446       -12.4749
  55   2.0000      -0.447067       -12.1653
  56   2.0000      -0.443233       -12.0610
  57   2.0000      -0.438574       -11.9342
  58   2.0000      -0.436941       -11.8898
  59   2.0000      -0.428213       -11.6523
  60   2.0000      -0.425752       -11.5853
  61   2.0000      -0.419479       -11.4146
  62   2.0000      -0.412632       -11.2283
  63   2.0000      -0.344405        -9.3717
  64   2.0000      -0.332291        -9.0421
  65   2.0000      -0.329655        -8.9704
  66   2.0000      -0.289810        -7.8861
  67   0.0000       0.022628         0.6157
  68   0.0000       0.067567         1.8386
  69   0.0000       0.111571         3.0360
  70   0.0000       0.118419         3.2224
  71   0.0000       0.118760         3.2316

MULLIKEN ATOMIC CHARGES
-----------------------
   0 S :    0.117620
   1 C :   -0.104444
   2 C :   -0.075581
   3 C :    0.053083
   4 C :   -0.161744
   5 H :   -0.012632
   6 C :    0.046200
   7 H :    0.036804
   8 H :    0.016753
   9 C :   -0.082662
  10 H :    0.016120
  11 H :    0.008167
  12 C :   -0.001685
  13 H :    0.022527
  14 H :    0.035626
  15 H :    0.035305
  16 S :    0.118363
  17 C :   -0.085722
  18 C :   -0.045956
  19 C :   -0.057402
  20 C :   -0.133146
  21 H :    0.033610
  22 C :    0.044113
  23 H :    0.026741
  24 H :    0.019468
  25 C :   -0.056408
  26 H :    0.026367
  27 H :    0.025646
  28 C :   -0.009902
  29 H :    0.022126
  30 H :    0.020714
  31 H :    0.024464
  32 H :    0.033546
  33 H :    0.043920
Sum of atomic charges:   -0.0000000

LOEWDIN ATOMIC CHARGES
----------------------
   0 S :    0.404630
   1 C :   -0.184624
   2 C :   -0.055767
   3 C :   -0.046773
   4 C :   -0.190834
   5 H :    0.020278
   6 C :   -0.032636
   7 H :    0.034192
   8 H :    0.026428
   9 C :   -0.048948
  10 H :    0.022692
  11 H :    0.021079
  12 C :   -0.056255
  13 H :    0.016685
  14 H :    0.032212
  15 H :    0.029229
  16 S :    0.425434
  17 C :   -0.197399
  18 C :   -0.075349
  19 C :   -0.063017
  20 C :   -0.203785
  21 H :    0.036163
  22 C :   -0.029676
  23 H :    0.028033
  24 H :    0.029653
  25 C :   -0.032912
  26 H :    0.021643
  27 H :    0.022503
  28 C :   -0.053385
  29 H :    0.022059
  30 H :    0.019698
  31 H :    0.023981
  32 H :    0.015310
  33 H :    0.019461

  Mayer bond orders larger than 0.100000
B(  0-S ,  1-C ) :   1.1549 B(  0-S ,  4-C ) :   1.1475 B(  1-C ,  2-C ) :   1.5827
B(  1-C , 32-H ) :   0.9701 B(  2-C ,  3-C ) :   1.2567 B(  2-C ,  6-C ) :   0.9997
B(  3-C ,  4-C ) :   1.5604 B(  3-C ,  5-H ) :   0.9929 B(  4-C , 20-C ) :   1.0138
B(  6-C ,  7-H ) :   0.9419 B(  6-C ,  8-H ) :   0.9468 B(  6-C ,  9-C ) :   1.0856
B(  9-C , 10-H ) :   0.9512 B(  9-C , 11-H ) :   0.9467 B(  9-C , 12-C ) :   1.0749
B( 12-C , 13-H ) :   0.9768 B( 12-C , 14-H ) :   0.9729 B( 12-C , 15-H ) :   0.9712
B( 16-S , 17-C ) :   1.1747 B( 16-S , 20-C ) :   1.1605 B( 17-C , 18-C ) :   1.5486
B( 17-C , 20-C ) :   0.1081 B( 17-C , 33-H ) :   0.9785 B( 18-C , 19-C ) :   1.2968
B( 18-C , 21-H ) :   0.9806 B( 19-C , 20-C ) :   1.5491 B( 19-C , 22-C ) :   1.0335
B( 22-C , 23-H ) :   0.9383 B( 22-C , 24-H ) :   0.9382 B( 22-C , 25-C ) :   1.0582
B( 25-C , 26-H ) :   0.9551 B( 25-C , 27-H ) :   0.9524 B( 25-C , 28-C ) :   1.0827
B( 28-C , 29-H ) :   0.9742 B( 28-C , 30-H ) :   0.9738 B( 28-C , 31-H ) :   0.9753

Dispersion correction           -0.014132213
FINAL SINGLE POINT ENERGY     -1339.862959081540

DIPOLE MOMENT
-------------
                                X             Y             Z
Electronic contribution:      7.25063      -1.74432     -29.00395
Nuclear contribution   :     -7.46357       1.53471      29.60548
                        -----------------------------------------
Total Dipole Moment    :     -0.21294      -0.20961       0.60152
                        -----------------------------------------
Magnitude (a.u.)       :      0.67165
Magnitude (Debye)      :      1.70719

Rotational constants in cm-1:     0.018129     0.008765     0.006325
Rotational constants in MHz :   543.489857   262.770135   189.628234

                             ****ORCA TERMINATED NORMALLY****
TOTAL RUN TIME: 0 days 0 hours 0 minutes 29 seconds 555 msec
