                         Program Version 4.2.1 -  RELEASE  -
|  1> ! wB97X-D3 SP def2-SVP
|  2> %pal
|  3> nprocs 16
|  4> end
|  5>
|  6> * xyz 0 1
|  7> S 	 -12.0648 	 36.1815 	 54.5374
|  8> C 	 -10.3089 	 36.0146 	 54.7841
|  9> C 	 -9.7887 	 35.175 	 53.8234
| 10> C 	 -10.7334 	 34.9021 	 52.7931
| 11> C 	 -11.97 	 35.3998 	 52.9511
| 12> H 	 -10.4353 	 34.3765 	 51.9592
| 13> C 	 -8.37316 	 34.5221 	 53.8431
| 14> H 	 -8.50236 	 33.4837 	 53.8503
| 15> H 	 -7.80792 	 34.8183 	 54.7948
| 16> C 	 -7.36547 	 34.7408 	 52.6768
| 17> H 	 -6.49221 	 34.4111 	 53.1327
| 18> H 	 -7.58268 	 34.0991 	 51.8347
| 19> C 	 -7.39969 	 36.1798 	 52.1896
| 20> H 	 -8.29113 	 36.3993 	 51.6023
| 21> H 	 -7.33314 	 36.9451 	 53.0279
| 22> H 	 -6.61906 	 36.4057 	 51.4446
| 23> S 	 -13.6167 	 37.1486 	 51.6825
| 24> C 	 -14.6779 	 36.5941 	 50.3856
| 25> C 	 -14.7998 	 35.2112 	 50.4578
| 26> C 	 -13.8237 	 34.5823 	 51.3003
| 27> C 	 -13.0926 	 35.5307 	 52.0082
| 28> H 	 -15.5433 	 34.7497 	 49.7854
| 29> C 	 -13.6314 	 33.0464 	 51.3462
| 30> H 	 -14.5674 	 32.5877 	 51.6394
| 31> H 	 -12.7586 	 32.8348 	 51.9466
| 32> C 	 -13.1296 	 32.457 	 50.0512
| 33> H 	 -12.2296 	 32.8933 	 49.7024
| 34> H 	 -13.8694 	 32.5654 	 49.2433
| 35> C 	 -12.8969 	 30.9202 	 50.0924
| 36> H 	 -12.2518 	 30.7518 	 50.9863
| 37> H 	 -12.5027 	 30.4643 	 49.125
| 38> H 	 -13.8784 	 30.3674 	 50.3017
| 39> H 	 -9.85344 	 36.3062 	 55.702
| 40> H 	 -15.3771 	 37.11 	 49.751
| 41> *
| 42>
| 43>                          ****END OF INPUT****

CARTESIAN COORDINATES (ANGSTROEM)
---------------------------------
  S    -12.064800   36.181500   54.537400
  C    -10.308900   36.014600   54.784100
  C     -9.788700   35.175000   53.823400
  C    -10.733400   34.902100   52.793100
  C    -11.970000   35.399800   52.951100
  H    -10.435300   34.376500   51.959200
  C     -8.373160   34.522100   53.843100
  H     -8.502360   33.483700   53.850300
  H     -7.807920   34.818300   54.794800
  C     -7.365470   34.740800   52.676800
  H     -6.492210   34.411100   53.132700
  H     -7.582680   34.099100   51.834700
  C     -7.399690   36.179800   52.189600
  H     -8.291130   36.399300   51.602300
  H     -7.333140   36.945100   53.027900
  H     -6.619060   36.405700   51.444600
  S    -13.616700   37.148600   51.682500
  C    -14.677900   36.594100   50.385600
  C    -14.799800   35.211200   50.457800
  C    -13.823700   34.582300   51.300300
  C    -13.092600   35.530700   52.008200
  H    -15.543300   34.749700   49.785400
  C    -13.631400   33.046400   51.346200
  H    -14.567400   32.587700   51.639400
  H    -12.758600   32.834800   51.946600
  C    -13.129600   32.457000   50.051200
  H    -12.229600   32.893300   49.702400
  H    -13.869400   32.565400   49.243300
  C    -12.896900   30.920200   50.092400
  H    -12.251800   30.751800   50.986300
  H    -12.502700   30.464300   49.125000
  H    -13.878400   30.367400   50.301700
  H     -9.853440   36.306200   55.702000
  H    -15.377100   37.110000   49.751000

 Total Charge           Charge          ....    0
 Multiplicity           Mult            ....    1
 Number of Electrons    NEL             ....  134
 Basis Dimension        Dim             ....  322

ORBITAL ENERGIES
----------------

  NO   OCC          E(Eh)            E(eV)
   0   2.0000     -88.968335     -2420.9515
   1   2.0000     -88.961200     -2420.7573
   2   2.0000     -10.330407      -281.1047
   3   2.0000     -10.329286      -281.0742
   4   2.0000     -10.318083      -280.7693
   5   2.0000     -10.315264      -280.6926
   6   2.0000     -10.308768      -280.5158
   7   2.0000     -10.304064      -280.3878
   8   2.0000     -10.297591      -280.2117
   9   2.0000     -10.297294      -280.2036
  10   2.0000     -10.294475      -280.1269
  11   2.0000     -10.292389      -280.0701
  12   2.0000     -10.286047      -279.8976
  13   2.0000     -10.283617      -279.8314
  14   2.0000     -10.283387      -279.8252
  15   2.0000     -10.279218      -279.7117
  16   2.0000      -8.082813      -219.9445
  17   2.0000      -8.075649      -219.7496
  18   2.0000      -6.041385      -164.3944
  19   2.0000      -6.037361      -164.2849
  20   2.0000      -6.034276      -164.2010
  21   2.0000      -6.033470      -164.1791
  22   2.0000      -6.030319      -164.0933
  23   2.0000      -6.026159      -163.9801
  24   2.0000      -1.007610       -27.4184
  25   2.0000      -0.983887       -26.7729
  26   2.0000      -0.912918       -24.8418
  27   2.0000      -0.909175       -24.7399
  28   2.0000      -0.869690       -23.6655
  29   2.0000      -0.848201       -23.0807
  30   2.0000      -0.841140       -22.8886
  31   2.0000      -0.817799       -22.2534
  32   2.0000      -0.782525       -21.2936
  33   2.0000      -0.772551       -21.0222
  34   2.0000      -0.706874       -19.2350
  35   2.0000      -0.697469       -18.9791
  36   2.0000      -0.691733       -18.8230
  37   2.0000      -0.658359       -17.9149
  38   2.0000      -0.643969       -17.5233
  39   2.0000      -0.628910       -17.1135
  40   2.0000      -0.595032       -16.1916
  41   2.0000      -0.575982       -15.6733
  42   2.0000      -0.565883       -15.3985
  43   2.0000      -0.560102       -15.2412
  44   2.0000      -0.536654       -14.6031
  45   2.0000      -0.520505       -14.1637
  46   2.0000      -0.517073       -14.0703
  47   2.0000      -0.516060       -14.0427
  48   2.0000      -0.505451       -13.7540
  49   2.0000      -0.501565       -13.6483
  50   2.0000      -0.489385       -13.3168
  51   2.0000      -0.473404       -12.8820
  52   2.0000      -0.469726       -12.7819
  53   2.0000      -0.464473       -12.6390
  54   2.0000      -0.460485       -12.5304
  55   2.0000      -0.447759       -12.1841
  56   2.0000      -0.446514       -12.1503
  57   2.0000      -0.434828       -11.8323
  58   2.0000      -0.426445       -11.6042
  59   2.0000      -0.423951       -11.5363
  60   2.0000      -0.421325       -11.4648
  61   2.0000      -0.415704       -11.3119
  62   2.0000      -0.410090       -11.1591
  63   2.0000      -0.347974        -9.4688
  64   2.0000      -0.330501        -8.9934
  65   2.0000      -0.327047        -8.8994
  66   2.0000      -0.299820        -8.1585
  67   0.0000       0.033717         0.9175
  68   0.0000       0.063686         1.7330
  69   0.0000       0.108144         2.9427
  70   0.0000       0.117662         3.2017
  71   0.0000       0.132988         3.6188

MULLIKEN ATOMIC CHARGES
-----------------------
   0 S :    0.081562
   1 C :   -0.125770
   2 C :   -0.077901
   3 C :    0.073625
   4 C :   -0.137733
   5 H :   -0.032065
   6 C :    0.038131
   7 H :    0.024566
   8 H :    0.033679
   9 C :   -0.035897
  10 H :    0.020144
  11 H :    0.024841
  12 C :   -0.068632
  13 H :    0.035481
  14 H :    0.039846
  15 H :    0.031324
  16 S :    0.124994
  17 C :   -0.085485
  18 C :   -0.064701
  19 C :   -0.023662
  20 C :   -0.157729
  21 H :    0.031135
  22 C :    0.121104
  23 H :    0.035660
  24 H :    0.014633
  25 C :   -0.090298
  26 H :    0.024428
  27 H :    0.021092
  28 C :   -0.094677
  29 H :    0.031466
  30 H :    0.056514
  31 H :    0.035887
  32 H :    0.042990
  33 H :    0.051448
Sum of atomic charges:    0.0000000

LOEWDIN ATOMIC CHARGES
----------------------
   0 S :    0.372779
   1 C :   -0.176047
   2 C :   -0.059575
   3 C :   -0.059051
   4 C :   -0.177631
   5 H :    0.016082
   6 C :   -0.027448
   7 H :    0.024922
   8 H :    0.036525
   9 C :   -0.036243
  10 H :    0.018993
  11 H :    0.021568
  12 C :   -0.074161
  13 H :    0.028619
  14 H :    0.031384
  15 H :    0.025507
  16 S :    0.418081
  17 C :   -0.186384
  18 C :   -0.071356
  19 C :   -0.052802
  20 C :   -0.205905
  21 H :    0.034863
  22 C :   -0.022399
  23 H :    0.034552
  24 H :    0.030537
  25 C :   -0.043917
  26 H :    0.018160
  27 H :    0.018473
  28 C :   -0.077667
  29 H :    0.023013
  30 H :    0.035379
  31 H :    0.028465
  32 H :    0.021789
  33 H :    0.030893

  Mayer bond orders larger than 0.100000
B(  0-S ,  1-C ) :   1.1256 B(  0-S ,  4-C ) :   1.1351 B(  1-C ,  2-C ) :   1.6277
B(  1-C , 32-H ) :   0.9714 B(  2-C ,  3-C ) :   1.2242 B(  2-C ,  6-C ) :   1.0145
B(  3-C ,  4-C ) :   1.6073 B(  3-C ,  5-H ) :   1.0086 B(  4-C , 20-C ) :   1.0071
B(  6-C ,  7-H ) :   0.9404 B(  6-C ,  8-H ) :   0.9512 B(  6-C ,  9-C ) :   1.0676
B(  9-C , 10-H ) :   0.9569 B(  9-C , 11-H ) :   0.9513 B(  9-C , 12-C ) :   1.0908
B( 12-C , 13-H ) :   0.9657 B( 12-C , 14-H ) :   0.9764 B( 12-C , 15-H ) :   0.9737
B( 16-S , 17-C ) :   1.1424 B( 16-S , 20-C ) :   1.1503 B( 17-C , 18-C ) :   1.6373
B( 17-C , 33-H ) :   0.9660 B( 18-C , 19-C ) :   1.2225 B( 18-C , 21-H ) :   0.9816
B( 19-C , 20-C ) :   1.6011 B( 19-C , 22-C ) :   1.0484 B( 22-C , 23-H ) :   0.9334
B( 22-C , 24-H ) :   0.9286 B( 22-C , 25-C ) :   1.0659 B( 25-C , 26-H ) :   0.9563
B( 25-C , 27-H ) :   0.9528 B( 25-C , 28-C ) :   1.0781 B( 28-C , 29-H ) :   0.9735
B( 28-C , 30-H ) :   0.9736 B( 28-C , 31-H ) :   0.9741

Dispersion correction           -0.014092103
FINAL SINGLE POINT ENERGY     -1339.865230798580

DIPOLE MOMENT
-------------
                                X             Y             Z
Electronic contribution:    -16.06176      18.95026      10.42507
Nuclear contribution   :     16.32095     -19.50089     -10.78553
                        -----------------------------------------
Total Dipole Moment    :      0.25919      -0.55064      -0.36046
                        -----------------------------------------
Magnitude (a.u.)       :      0.70732
Magnitude (Debye)      :      1.79788

Rotational constants in cm-1:     0.016368     0.009105     0.007048
Rotational constants in MHz :   490.686500   272.956991   211.295115

                             ****ORCA TERMINATED NORMALLY****
TOTAL RUN TIME: 0 days 0 hours 0 minutes 34 seconds 541 msec
