                         Program Version 4.2.1 -  RELEASE  -
|  1> ! wB97X-D3 SP def2-SVP
|  2> %pal
|  3> nprocs 16
|  4> end
|  5>
|  6> * xyz 0 1
|  7> S 	 1.23081 	 29.8059 	 43.2684
|  8> C 	 0.897594 	 28.0877 	 43.2539
|  9> C 	 1.33926 	 27.425 	 42.1223
| 10> C 	 1.82167 	 28.3321 	 41.1608
| 11> C 	 1.87851 	 29.6538 	 41.5814
| 12> H 	 2.16406 	 28.1756 	 40.1749
| 13> C 	 1.2154 	 25.9769 	 41.8882
| 14> H 	 1.88139 	 25.5665 	 42.6146
| 15> H 	 1.49064 	 25.7044 	 40.8673
| 16> C 	 -0.0962452 	 25.3035 	 42.2764
| 17> H 	 -0.286289 	 25.4909 	 43.3156
| 18> H 	 -0.901856 	 25.5573 	 41.5165
| 19> C 	 0.019953 	 23.7589 	 42.1817
| 20> H 	 -0.913504 	 23.2414 	 42.2635
| 21> H 	 0.443 	 23.451 	 41.2609
| 22> H 	 0.596931 	 23.4318 	 42.9685
| 23> S 	 3.08926 	 32.1533 	 41.6582
| 24> C 	 3.22959 	 33.1205 	 40.2138
| 25> C 	 2.5459 	 32.4698 	 39.193
| 26> C 	 1.94361 	 31.2656 	 39.4932
| 27> C 	 2.17316 	 30.8764 	 40.7987
| 28> H 	 2.50302 	 33.1288 	 38.2311
| 29> C 	 1.09515 	 30.5511 	 38.4785
| 30> H 	 0.104188 	 30.4469 	 38.9696
| 31> H 	 1.36657 	 29.5475 	 38.2988
| 32> C 	 0.917822 	 31.1835 	 37.0298
| 33> H 	 1.9285 	 31.085 	 36.5775
| 34> H 	 0.641033 	 32.2184 	 37.2247
| 35> C 	 -0.0294635 	 30.4179 	 35.9936
| 36> H 	 -0.123718 	 30.9404 	 35.0081
| 37> H 	 -1.03159 	 30.6009 	 36.3058
| 38> H 	 0.189328 	 29.358 	 35.8473
| 39> H 	 0.469496 	 27.531 	 44.092
| 40> H 	 3.59886 	 34.1603 	 40.1225
| 41> *
| 42>
| 43>                          ****END OF INPUT****

CARTESIAN COORDINATES (ANGSTROEM)
---------------------------------
  S      1.230810   29.805900   43.268400
  C      0.897594   28.087700   43.253900
  C      1.339260   27.425000   42.122300
  C      1.821670   28.332100   41.160800
  C      1.878510   29.653800   41.581400
  H      2.164060   28.175600   40.174900
  C      1.215400   25.976900   41.888200
  H      1.881390   25.566500   42.614600
  H      1.490640   25.704400   40.867300
  C     -0.096245   25.303500   42.276400
  H     -0.286289   25.490900   43.315600
  H     -0.901856   25.557300   41.516500
  C      0.019953   23.758900   42.181700
  H     -0.913504   23.241400   42.263500
  H      0.443000   23.451000   41.260900
  H      0.596931   23.431800   42.968500
  S      3.089260   32.153300   41.658200
  C      3.229590   33.120500   40.213800
  C      2.545900   32.469800   39.193000
  C      1.943610   31.265600   39.493200
  C      2.173160   30.876400   40.798700
  H      2.503020   33.128800   38.231100
  C      1.095150   30.551100   38.478500
  H      0.104188   30.446900   38.969600
  H      1.366570   29.547500   38.298800
  C      0.917822   31.183500   37.029800
  H      1.928500   31.085000   36.577500
  H      0.641033   32.218400   37.224700
  C     -0.029464   30.417900   35.993600
  H     -0.123718   30.940400   35.008100
  H     -1.031590   30.600900   36.305800
  H      0.189328   29.358000   35.847300
  H      0.469496   27.531000   44.092000
  H      3.598860   34.160300   40.122500

 Total Charge           Charge          ....    0
 Multiplicity           Mult            ....    1
 Number of Electrons    NEL             ....  134
 Basis Dimension        Dim             ....  322

ORBITAL ENERGIES
----------------

  NO   OCC          E(Eh)            E(eV)
   0   2.0000     -88.967601     -2420.9315
   1   2.0000     -88.964457     -2420.8460
   2   2.0000     -10.334519      -281.2166
   3   2.0000     -10.331265      -281.1280
   4   2.0000     -10.318441      -280.7791
   5   2.0000     -10.313411      -280.6422
   6   2.0000     -10.303748      -280.3793
   7   2.0000     -10.298899      -280.2473
   8   2.0000     -10.298210      -280.2285
   9   2.0000     -10.295521      -280.1554
  10   2.0000     -10.292492      -280.0730
  11   2.0000     -10.292379      -280.0699
  12   2.0000     -10.291803      -280.0542
  13   2.0000     -10.288014      -279.9511
  14   2.0000     -10.287409      -279.9346
  15   2.0000     -10.267943      -279.4049
  16   2.0000      -8.081257      -219.9022
  17   2.0000      -8.078621      -219.8305
  18   2.0000      -6.039796      -164.3512
  19   2.0000      -6.037123      -164.2785
  20   2.0000      -6.036044      -164.2491
  21   2.0000      -6.033105      -164.1691
  22   2.0000      -6.031931      -164.1372
  23   2.0000      -6.029528      -164.0718
  24   2.0000      -1.003421       -27.3045
  25   2.0000      -0.984206       -26.7816
  26   2.0000      -0.918711       -24.9994
  27   2.0000      -0.900964       -24.5165
  28   2.0000      -0.866180       -23.5700
  29   2.0000      -0.854628       -23.2556
  30   2.0000      -0.845384       -23.0041
  31   2.0000      -0.815646       -22.1948
  32   2.0000      -0.784714       -21.3532
  33   2.0000      -0.772993       -21.0342
  34   2.0000      -0.708620       -19.2825
  35   2.0000      -0.706565       -19.2266
  36   2.0000      -0.696732       -18.9590
  37   2.0000      -0.650374       -17.6976
  38   2.0000      -0.638694       -17.3797
  39   2.0000      -0.616852       -16.7854
  40   2.0000      -0.598335       -16.2815
  41   2.0000      -0.589079       -16.0297
  42   2.0000      -0.568832       -15.4787
  43   2.0000      -0.560556       -15.2535
  44   2.0000      -0.523491       -14.2449
  45   2.0000      -0.518897       -14.1199
  46   2.0000      -0.516725       -14.0608
  47   2.0000      -0.514249       -13.9934
  48   2.0000      -0.503712       -13.7067
  49   2.0000      -0.497800       -13.5458
  50   2.0000      -0.484880       -13.1943
  51   2.0000      -0.483249       -13.1499
  52   2.0000      -0.475650       -12.9431
  53   2.0000      -0.469757       -12.7827
  54   2.0000      -0.457818       -12.4579
  55   2.0000      -0.454974       -12.3805
  56   2.0000      -0.445551       -12.1241
  57   2.0000      -0.436064       -11.8659
  58   2.0000      -0.435812       -11.8591
  59   2.0000      -0.430600       -11.7172
  60   2.0000      -0.418162       -11.3788
  61   2.0000      -0.414986       -11.2923
  62   2.0000      -0.406328       -11.0567
  63   2.0000      -0.348772        -9.4906
  64   2.0000      -0.334268        -9.0959
  65   2.0000      -0.331479        -9.0200
  66   2.0000      -0.283171        -7.7055
  67   0.0000       0.021805         0.5933
  68   0.0000       0.067307         1.8315
  69   0.0000       0.106059         2.8860
  70   0.0000       0.130847         3.5605
  71   0.0000       0.135540         3.6882

MULLIKEN ATOMIC CHARGES
-----------------------
   0 S :    0.106968
   1 C :   -0.136313
   2 C :   -0.037702
   3 C :    0.008538
   4 C :   -0.128400
   5 H :   -0.007652
   6 C :    0.089991
   7 H :    0.024281
   8 H :    0.019831
   9 C :   -0.102707
  10 H :    0.026429
  11 H :    0.047004
  12 C :   -0.005843
  13 H :    0.026641
  14 H :    0.015519
  15 H :    0.008429
  16 S :    0.093844
  17 C :   -0.100966
  18 C :   -0.117709
  19 C :    0.014341
  20 C :   -0.163533
  21 H :    0.053778
  22 C :    0.056290
  23 H :    0.040062
  24 H :    0.012575
  25 C :   -0.117361
  26 H :    0.043857
  27 H :    0.042529
  28 C :   -0.037709
  29 H :    0.036848
  30 H :    0.021106
  31 H :    0.048908
  32 H :    0.047057
  33 H :    0.071069
Sum of atomic charges:    0.0000000

LOEWDIN ATOMIC CHARGES
----------------------
   0 S :    0.381618
   1 C :   -0.196621
   2 C :   -0.064477
   3 C :   -0.055097
   4 C :   -0.170159
   5 H :    0.026049
   6 C :   -0.033392
   7 H :    0.036492
   8 H :    0.030179
   9 C :   -0.032045
  10 H :    0.019835
  11 H :    0.032077
  12 C :   -0.054274
  13 H :    0.025586
  14 H :    0.018445
  15 H :    0.012593
  16 S :    0.394306
  17 C :   -0.199532
  18 C :   -0.091884
  19 C :   -0.066024
  20 C :   -0.183454
  21 H :    0.049186
  22 C :   -0.033509
  23 H :    0.040070
  24 H :    0.019867
  25 C :   -0.038761
  26 H :    0.027411
  27 H :    0.022265
  28 C :   -0.070379
  29 H :    0.036532
  30 H :    0.021028
  31 H :    0.028326
  32 H :    0.027038
  33 H :    0.040705

  Mayer bond orders larger than 0.100000
B(  0-S ,  1-C ) :   1.1396 B(  0-S ,  4-C ) :   1.1332 B(  1-C ,  2-C ) :   1.6076
B(  1-C ,  4-C ) :   0.1031 B(  1-C , 32-H ) :   0.9621 B(  2-C ,  3-C ) :   1.2286
B(  2-C ,  6-C ) :   1.0218 B(  3-C ,  4-C ) :   1.5895 B(  3-C ,  5-H ) :   1.0047
B(  4-C , 20-C ) :   1.0372 B(  6-C ,  7-H ) :   0.9189 B(  6-C ,  8-H ) :   0.9458
B(  6-C ,  9-C ) :   1.0816 B(  9-C , 10-H ) :   0.9508 B(  9-C , 11-H ) :   0.9595
B(  9-C , 12-C ) :   1.0851 B( 12-C , 13-H ) :   0.9734 B( 12-C , 14-H ) :   0.9737
B( 12-C , 15-H ) :   0.9750 B( 16-S , 17-C ) :   1.1612 B( 16-S , 20-C ) :   1.1451
B( 17-C , 18-C ) :   1.5902 B( 17-C , 20-C ) :   0.1153 B( 17-C , 33-H ) :   0.9585
B( 18-C , 19-C ) :   1.2780 B( 18-C , 21-H ) :   0.9665 B( 19-C , 20-C ) :   1.5706
B( 19-C , 22-C ) :   1.0208 B( 22-C , 23-H ) :   0.9286 B( 22-C , 24-H ) :   0.9304
B( 22-C , 25-C ) :   1.0729 B( 25-C , 26-H ) :   0.9570 B( 25-C , 27-H ) :   0.9528
B( 25-C , 28-C ) :   1.0713 B( 28-C , 29-H ) :   0.9721 B( 28-C , 30-H ) :   0.9746
B( 28-C , 31-H ) :   0.9763

Dispersion correction           -0.013007707
FINAL SINGLE POINT ENERGY     -1339.855726797517

DIPOLE MOMENT
-------------
                                X             Y             Z
Electronic contribution:     12.13119      20.89306      18.55920
Nuclear contribution   :    -12.44035     -21.36260     -19.10878
                        -----------------------------------------
Total Dipole Moment    :     -0.30916      -0.46954      -0.54958
                        -----------------------------------------
Magnitude (a.u.)       :      0.78618
Magnitude (Debye)      :      1.99831

Rotational constants in cm-1:     0.017634     0.007697     0.005624
Rotational constants in MHz :   528.659130   230.762809   168.607337

                             ****ORCA TERMINATED NORMALLY****
TOTAL RUN TIME: 0 days 0 hours 0 minutes 32 seconds 824 msec
