                         Program Version 4.2.1 -  RELEASE  -
|  1> ! wB97X-D3 SP def2-SVP
|  2> %pal
|  3> nprocs 16
|  4> end
|  5>
|  6> * xyz 0 1
|  7> S 	 3.7511 	 -3.92516 	 78.6978
|  8> C 	 5.36375 	 -4.09564 	 79.3968
|  9> C 	 5.50384 	 -5.29706 	 80.0623
| 10> C 	 4.28093 	 -5.95365 	 80.1567
| 11> C 	 3.25815 	 -5.40019 	 79.4218
| 12> H 	 4.02282 	 -6.89074 	 80.6555
| 13> C 	 6.73729 	 -5.85808 	 80.6144
| 14> H 	 7.58875 	 -5.4765 	 79.9452
| 15> H 	 6.6798 	 -7.0173 	 80.4876
| 16> C 	 7.10229 	 -5.50651 	 82.0417
| 17> H 	 8.02971 	 -6.01098 	 82.2116
| 18> H 	 7.38755 	 -4.47112 	 82.2239
| 19> C 	 6.05968 	 -5.88131 	 83.1022
| 20> H 	 5.85345 	 -6.94956 	 83.0255
| 21> H 	 6.49786 	 -5.72153 	 84.0886
| 22> H 	 5.10573 	 -5.33003 	 83.0412
| 23> S 	 0.49218 	 -4.92196 	 79.5141
| 24> C 	 -0.536588 	 -5.92846 	 78.4672
| 25> C 	 0.172771 	 -6.96894 	 77.8917
| 26> C 	 1.5225 	 -7.002 	 78.2834
| 27> C 	 1.93921 	 -5.87719 	 79.0595
| 28> H 	 -0.357103 	 -7.42876 	 77.1001
| 29> C 	 2.4727 	 -7.96499 	 77.5647
| 30> H 	 3.33689 	 -7.35614 	 77.3443
| 31> H 	 2.03521 	 -8.19206 	 76.5569
| 32> C 	 3.01521 	 -9.20958 	 78.3832
| 33> H 	 2.04875 	 -9.63931 	 78.7495
| 34> H 	 3.57336 	 -8.81924 	 79.2068
| 35> C 	 3.94798 	 -10.2057 	 77.5912
| 36> H 	 4.22818 	 -11.1073 	 78.2212
| 37> H 	 4.8336 	 -9.7571 	 77.2213
| 38> H 	 3.46969 	 -10.5771 	 76.6631
| 39> H 	 6.1383 	 -3.40336 	 79.1643
| 40> H 	 -1.53571 	 -5.68539 	 78.1663
| 41> *
| 42>
| 43>                          ****END OF INPUT****

CARTESIAN COORDINATES (ANGSTROEM)
---------------------------------
  S      3.751100   -3.925160   78.697800
  C      5.363750   -4.095640   79.396800
  C      5.503840   -5.297060   80.062300
  C      4.280930   -5.953650   80.156700
  C      3.258150   -5.400190   79.421800
  H      4.022820   -6.890740   80.655500
  C      6.737290   -5.858080   80.614400
  H      7.588750   -5.476500   79.945200
  H      6.679800   -7.017300   80.487600
  C      7.102290   -5.506510   82.041700
  H      8.029710   -6.010980   82.211600
  H      7.387550   -4.471120   82.223900
  C      6.059680   -5.881310   83.102200
  H      5.853450   -6.949560   83.025500
  H      6.497860   -5.721530   84.088600
  H      5.105730   -5.330030   83.041200
  S      0.492180   -4.921960   79.514100
  C     -0.536588   -5.928460   78.467200
  C      0.172771   -6.968940   77.891700
  C      1.522500   -7.002000   78.283400
  C      1.939210   -5.877190   79.059500
  H     -0.357103   -7.428760   77.100100
  C      2.472700   -7.964990   77.564700
  H      3.336890   -7.356140   77.344300
  H      2.035210   -8.192060   76.556900
  C      3.015210   -9.209580   78.383200
  H      2.048750   -9.639310   78.749500
  H      3.573360   -8.819240   79.206800
  C      3.947980  -10.205700   77.591200
  H      4.228180  -11.107300   78.221200
  H      4.833600   -9.757100   77.221300
  H      3.469690  -10.577100   76.663100
  H      6.138300   -3.403360   79.164300
  H     -1.535710   -5.685390   78.166300

 Total Charge           Charge          ....    0
 Multiplicity           Mult            ....    1
 Number of Electrons    NEL             ....  134
 Basis Dimension        Dim             ....  322

ORBITAL ENERGIES
----------------

  NO   OCC          E(Eh)            E(eV)
   0   2.0000     -88.966611     -2420.9046
   1   2.0000     -88.965516     -2420.8748
   2   2.0000     -10.332930      -281.1733
   3   2.0000     -10.324824      -280.9527
   4   2.0000     -10.317477      -280.7528
   5   2.0000     -10.313330      -280.6400
   6   2.0000     -10.308587      -280.5109
   7   2.0000     -10.302198      -280.3371
   8   2.0000     -10.297159      -280.1999
   9   2.0000     -10.293355      -280.0964
  10   2.0000     -10.292075      -280.0616
  11   2.0000     -10.291421      -280.0438
  12   2.0000     -10.290135      -280.0088
  13   2.0000     -10.285207      -279.8747
  14   2.0000     -10.284224      -279.8480
  15   2.0000     -10.277505      -279.6651
  16   2.0000      -8.080779      -219.8892
  17   2.0000      -8.080101      -219.8707
  18   2.0000      -6.039065      -164.3313
  19   2.0000      -6.038638      -164.3197
  20   2.0000      -6.035164      -164.2252
  21   2.0000      -6.034685      -164.2121
  22   2.0000      -6.031771      -164.1328
  23   2.0000      -6.031003      -164.1119
  24   2.0000      -1.009825       -27.4787
  25   2.0000      -0.981119       -26.6976
  26   2.0000      -0.918594       -24.9962
  27   2.0000      -0.894413       -24.3382
  28   2.0000      -0.870904       -23.6985
  29   2.0000      -0.848960       -23.1014
  30   2.0000      -0.844353       -22.9760
  31   2.0000      -0.816399       -22.2153
  32   2.0000      -0.784558       -21.3489
  33   2.0000      -0.767647       -20.8887
  34   2.0000      -0.709626       -19.3099
  35   2.0000      -0.706355       -19.2209
  36   2.0000      -0.692701       -18.8493
  37   2.0000      -0.657754       -17.8984
  38   2.0000      -0.646900       -17.6030
  39   2.0000      -0.615634       -16.7523
  40   2.0000      -0.585883       -15.9427
  41   2.0000      -0.574964       -15.6456
  42   2.0000      -0.559232       -15.2175
  43   2.0000      -0.548183       -14.9168
  44   2.0000      -0.545692       -14.8490
  45   2.0000      -0.518514       -14.1095
  46   2.0000      -0.514404       -13.9976
  47   2.0000      -0.511226       -13.9112
  48   2.0000      -0.503780       -13.7085
  49   2.0000      -0.498044       -13.5525
  50   2.0000      -0.495352       -13.4792
  51   2.0000      -0.475240       -12.9319
  52   2.0000      -0.471281       -12.8242
  53   2.0000      -0.466202       -12.6860
  54   2.0000      -0.457363       -12.4455
  55   2.0000      -0.442384       -12.0379
  56   2.0000      -0.441856       -12.0235
  57   2.0000      -0.438285       -11.9263
  58   2.0000      -0.430438       -11.7128
  59   2.0000      -0.428842       -11.6694
  60   2.0000      -0.421615       -11.4727
  61   2.0000      -0.413939       -11.2639
  62   2.0000      -0.411475       -11.1968
  63   2.0000      -0.339841        -9.2476
  64   2.0000      -0.333245        -9.0681
  65   2.0000      -0.328152        -8.9295
  66   2.0000      -0.295962        -8.0535
  67   0.0000       0.027129         0.7382
  68   0.0000       0.059270         1.6128
  69   0.0000       0.108782         2.9601
  70   0.0000       0.118873         3.2347
  71   0.0000       0.125817         3.4237

MULLIKEN ATOMIC CHARGES
-----------------------
   0 S :    0.118512
   1 C :   -0.117056
   2 C :   -0.048570
   3 C :    0.025671
   4 C :   -0.177004
   5 H :    0.017323
   6 C :   -0.001929
   7 H :    0.036874
   8 H :    0.047579
   9 C :   -0.032158
  10 H :    0.019583
  11 H :    0.023025
  12 C :   -0.065178
  13 H :    0.023202
  14 H :    0.033275
  15 H :    0.055321
  16 S :    0.102792
  17 C :   -0.100752
  18 C :   -0.036302
  19 C :    0.017420
  20 C :   -0.175251
  21 H :    0.016198
  22 C :    0.023878
  23 H :    0.023366
  24 H :    0.029994
  25 C :   -0.060113
  26 H :    0.038863
  27 H :    0.020972
  28 C :   -0.053658
  29 H :    0.050457
  30 H :    0.025522
  31 H :    0.029235
  32 H :    0.036982
  33 H :    0.051926
Sum of atomic charges:   -0.0000000

LOEWDIN ATOMIC CHARGES
----------------------
   0 S :    0.424762
   1 C :   -0.183211
   2 C :   -0.072048
   3 C :   -0.064146
   4 C :   -0.208697
   5 H :    0.033960
   6 C :   -0.042506
   7 H :    0.041724
   8 H :    0.042822
   9 C :   -0.042073
  10 H :    0.023078
  11 H :    0.024364
  12 C :   -0.067627
  13 H :    0.021628
  14 H :    0.028138
  15 H :    0.031253
  16 S :    0.379922
  17 C :   -0.170959
  18 C :   -0.072454
  19 C :   -0.050895
  20 C :   -0.196750
  21 H :    0.031475
  22 C :   -0.036661
  23 H :    0.026390
  24 H :    0.032068
  25 C :   -0.036184
  26 H :    0.028244
  27 H :    0.017011
  28 C :   -0.070503
  29 H :    0.036419
  30 H :    0.019420
  31 H :    0.026721
  32 H :    0.019973
  33 H :    0.025344

  Mayer bond orders larger than 0.100000
B(  0-S ,  1-C ) :   1.1503 B(  0-S ,  4-C ) :   1.1746 B(  1-C ,  2-C ) :   1.5854
B(  1-C ,  4-C ) :   0.1052 B(  1-C , 32-H ) :   0.9751 B(  2-C ,  3-C ) :   1.2362
B(  2-C ,  6-C ) :   1.0219 B(  3-C ,  4-C ) :   1.5745 B(  3-C ,  5-H ) :   0.9964
B(  4-C , 20-C ) :   1.0277 B(  6-C ,  7-H ) :   0.9318 B(  6-C ,  8-H ) :   0.9417
B(  6-C ,  9-C ) :   1.0879 B(  9-C , 10-H ) :   0.9500 B(  9-C , 11-H ) :   0.9511
B(  9-C , 12-C ) :   1.0818 B( 12-C , 13-H ) :   0.9744 B( 12-C , 14-H ) :   0.9723
B( 12-C , 15-H ) :   0.9720 B( 16-S , 17-C ) :   1.1504 B( 16-S , 20-C ) :   1.1419
B( 17-C , 18-C ) :   1.6221 B( 17-C , 20-C ) :   0.1103 B( 17-C , 33-H ) :   0.9654
B( 18-C , 19-C ) :   1.2345 B( 18-C , 21-H ) :   0.9952 B( 19-C , 20-C ) :   1.5632
B( 19-C , 22-C ) :   1.0398 B( 22-C , 23-H ) :   0.9318 B( 22-C , 24-H ) :   0.9505
B( 22-C , 25-C ) :   1.0406 B( 25-C , 26-H ) :   0.9628 B( 25-C , 27-H ) :   0.9544
B( 25-C , 28-C ) :   1.0719 B( 28-C , 29-H ) :   0.9760 B( 28-C , 30-H ) :   0.9752
B( 28-C , 31-H ) :   0.9767

Dispersion correction           -0.014627138
FINAL SINGLE POINT ENERGY     -1339.872286510074

DIPOLE MOMENT
-------------
                                X             Y             Z
Electronic contribution:    -17.94996      19.77832      -5.35606
Nuclear contribution   :     18.40635     -20.11817       5.17309
                        -----------------------------------------
Total Dipole Moment    :      0.45639      -0.33985      -0.18297
                        -----------------------------------------
Magnitude (a.u.)       :      0.59772
Magnitude (Debye)      :      1.51928

Rotational constants in cm-1:     0.017130     0.009237     0.007154
Rotational constants in MHz :   513.556768   276.915930   214.457636

                             ****ORCA TERMINATED NORMALLY****
TOTAL RUN TIME: 0 days 0 hours 0 minutes 34 seconds 998 msec
