                         Program Version 4.2.1 -  RELEASE  -
|  1> ! wB97X-D3 SP def2-SVP
|  2> %pal
|  3> nprocs 16
|  4> end
|  5>
|  6> * xyz 0 1
|  7> S 	 45.2675 	 21.1846 	 89.4933
|  8> C 	 43.9679 	 22.1591 	 90.1592
|  9> C 	 43.8099 	 23.4243 	 89.6321
| 10> C 	 44.7643 	 23.5915 	 88.6135
| 11> C 	 45.663 	 22.5515 	 88.4046
| 12> H 	 44.8359 	 24.4491 	 87.9259
| 13> C 	 42.6951 	 24.4063 	 89.8823
| 14> H 	 41.7949 	 23.8172 	 90.1694
| 15> H 	 42.5863 	 24.7922 	 88.9074
| 16> C 	 43.0276 	 25.5976 	 90.9048
| 17> H 	 42.1384 	 26.1414 	 91.0384
| 18> H 	 43.3253 	 25.2361 	 91.9102
| 19> C 	 44.0302 	 26.5106 	 90.2178
| 20> H 	 44.4919 	 27.2806 	 90.7915
| 21> H 	 44.9458 	 25.9615 	 89.9567
| 22> H 	 43.5631 	 26.9945 	 89.3881
| 23> S 	 46.8523 	 21.2632 	 86.2329
| 24> C 	 48.2767 	 21.9493 	 85.4584
| 25> C 	 48.6743 	 23.1188 	 86.1042
| 26> C 	 47.7157 	 23.5102 	 87.1093
| 27> C 	 46.7837 	 22.5255 	 87.4367
| 28> H 	 49.6424 	 23.5914 	 85.9757
| 29> C 	 48.0073 	 24.7967 	 87.8988
| 30> H 	 49.0596 	 24.7134 	 88.1283
| 31> H 	 47.5756 	 24.7482 	 88.8335
| 32> C 	 47.6341 	 26.1332 	 87.2582
| 33> H 	 46.5546 	 26.0252 	 87.2927
| 34> H 	 47.9757 	 26.3208 	 86.2422
| 35> C 	 47.9273 	 27.3106 	 88.2451
| 36> H 	 47.6659 	 28.2897 	 87.8817
| 37> H 	 48.938 	 27.5068 	 88.7159
| 38> H 	 47.2901 	 27.1195 	 89.0602
| 39> H 	 43.249 	 21.71 	 90.8529
| 40> H 	 48.8808 	 21.4029 	 84.7177
| 41> *
| 42>
| 43>                          ****END OF INPUT****

CARTESIAN COORDINATES (ANGSTROEM)
---------------------------------
  S     45.267500   21.184600   89.493300
  C     43.967900   22.159100   90.159200
  C     43.809900   23.424300   89.632100
  C     44.764300   23.591500   88.613500
  C     45.663000   22.551500   88.404600
  H     44.835900   24.449100   87.925900
  C     42.695100   24.406300   89.882300
  H     41.794900   23.817200   90.169400
  H     42.586300   24.792200   88.907400
  C     43.027600   25.597600   90.904800
  H     42.138400   26.141400   91.038400
  H     43.325300   25.236100   91.910200
  C     44.030200   26.510600   90.217800
  H     44.491900   27.280600   90.791500
  H     44.945800   25.961500   89.956700
  H     43.563100   26.994500   89.388100
  S     46.852300   21.263200   86.232900
  C     48.276700   21.949300   85.458400
  C     48.674300   23.118800   86.104200
  C     47.715700   23.510200   87.109300
  C     46.783700   22.525500   87.436700
  H     49.642400   23.591400   85.975700
  C     48.007300   24.796700   87.898800
  H     49.059600   24.713400   88.128300
  H     47.575600   24.748200   88.833500
  C     47.634100   26.133200   87.258200
  H     46.554600   26.025200   87.292700
  H     47.975700   26.320800   86.242200
  C     47.927300   27.310600   88.245100
  H     47.665900   28.289700   87.881700
  H     48.938000   27.506800   88.715900
  H     47.290100   27.119500   89.060200
  H     43.249000   21.710000   90.852900
  H     48.880800   21.402900   84.717700

 Total Charge           Charge          ....    0
 Multiplicity           Mult            ....    1
 Number of Electrons    NEL             ....  134
 Basis Dimension        Dim             ....  322

ORBITAL ENERGIES
----------------

  NO   OCC          E(Eh)            E(eV)
   0   2.0000     -88.969908     -2420.9943
   1   2.0000     -88.963648     -2420.8239
   2   2.0000     -10.333371      -281.1853
   3   2.0000     -10.329203      -281.0719
   4   2.0000     -10.322150      -280.8800
   5   2.0000     -10.316070      -280.7145
   6   2.0000     -10.304539      -280.4008
   7   2.0000     -10.299582      -280.2659
   8   2.0000     -10.298263      -280.2300
   9   2.0000     -10.297182      -280.2006
  10   2.0000     -10.296034      -280.1693
  11   2.0000     -10.293326      -280.0956
  12   2.0000     -10.290903      -280.0297
  13   2.0000     -10.282110      -279.7904
  14   2.0000     -10.278654      -279.6964
  15   2.0000     -10.275415      -279.6083
  16   2.0000      -8.083816      -219.9718
  17   2.0000      -8.078408      -219.8247
  18   2.0000      -6.042237      -164.4176
  19   2.0000      -6.038583      -164.3182
  20   2.0000      -6.037016      -164.2756
  21   2.0000      -6.034585      -164.2094
  22   2.0000      -6.032784      -164.1604
  23   2.0000      -6.029190      -164.0626
  24   2.0000      -1.002204       -27.2714
  25   2.0000      -0.982658       -26.7395
  26   2.0000      -0.911870       -24.8132
  27   2.0000      -0.908752       -24.7284
  28   2.0000      -0.866645       -23.5826
  29   2.0000      -0.851757       -23.1775
  30   2.0000      -0.846253       -23.0277
  31   2.0000      -0.812847       -22.1187
  32   2.0000      -0.782944       -21.3050
  33   2.0000      -0.771364       -20.9899
  34   2.0000      -0.713819       -19.4240
  35   2.0000      -0.706181       -19.2162
  36   2.0000      -0.693682       -18.8760
  37   2.0000      -0.662408       -18.0250
  38   2.0000      -0.639168       -17.3927
  39   2.0000      -0.615960       -16.7611
  40   2.0000      -0.595429       -16.2025
  41   2.0000      -0.576050       -15.6751
  42   2.0000      -0.564494       -15.3607
  43   2.0000      -0.548672       -14.9301
  44   2.0000      -0.544101       -14.8057
  45   2.0000      -0.521281       -14.1848
  46   2.0000      -0.516010       -14.0414
  47   2.0000      -0.513495       -13.9729
  48   2.0000      -0.502782       -13.6814
  49   2.0000      -0.495269       -13.4769
  50   2.0000      -0.487141       -13.2558
  51   2.0000      -0.477931       -13.0052
  52   2.0000      -0.465750       -12.6737
  53   2.0000      -0.461364       -12.5544
  54   2.0000      -0.458905       -12.4874
  55   2.0000      -0.451310       -12.2808
  56   2.0000      -0.448183       -12.1957
  57   2.0000      -0.440031       -11.9738
  58   2.0000      -0.438376       -11.9288
  59   2.0000      -0.432441       -11.7673
  60   2.0000      -0.424087       -11.5400
  61   2.0000      -0.417872       -11.3709
  62   2.0000      -0.414278       -11.2731
  63   2.0000      -0.345263        -9.3951
  64   2.0000      -0.335515        -9.1298
  65   2.0000      -0.325913        -8.8686
  66   2.0000      -0.292760        -7.9664
  67   0.0000       0.027127         0.7382
  68   0.0000       0.069805         1.8995
  69   0.0000       0.111313         3.0290
  70   0.0000       0.115240         3.1358
  71   0.0000       0.125445         3.4135

MULLIKEN ATOMIC CHARGES
-----------------------
   0 S :    0.112313
   1 C :   -0.135840
   2 C :   -0.076184
   3 C :    0.005926
   4 C :   -0.160561
   5 H :    0.021457
   6 C :    0.064335
   7 H :    0.035401
   8 H :    0.015476
   9 C :   -0.015848
  10 H :    0.022941
  11 H :    0.038685
  12 C :   -0.066936
  13 H :    0.022291
  14 H :    0.036544
  15 H :    0.029626
  16 S :    0.095056
  17 C :   -0.101717
  18 C :   -0.021808
  19 C :   -0.063778
  20 C :   -0.125829
  21 H :    0.031232
  22 C :    0.062007
  23 H :    0.018297
  24 H :   -0.006097
  25 C :   -0.035986
  26 H :    0.018092
  27 H :    0.039138
  28 C :   -0.047906
  29 H :    0.025794
  30 H :    0.036536
  31 H :    0.007812
  32 H :    0.048550
  33 H :    0.070985
Sum of atomic charges:   -0.0000000

LOEWDIN ATOMIC CHARGES
----------------------
   0 S :    0.388703
   1 C :   -0.187396
   2 C :   -0.071481
   3 C :   -0.062291
   4 C :   -0.187749
   5 H :    0.031902
   6 C :   -0.020869
   7 H :    0.035543
   8 H :    0.026757
   9 C :   -0.025835
  10 H :    0.017670
  11 H :    0.028468
  12 C :   -0.069005
  13 H :    0.022543
  14 H :    0.027777
  15 H :    0.024262
  16 S :    0.401336
  17 C :   -0.184796
  18 C :   -0.068437
  19 C :   -0.053608
  20 C :   -0.205748
  21 H :    0.034872
  22 C :   -0.027464
  23 H :    0.027840
  24 H :    0.016972
  25 C :   -0.029544
  26 H :    0.025733
  27 H :    0.022698
  28 C :   -0.070158
  29 H :    0.022718
  30 H :    0.030884
  31 H :    0.017342
  32 H :    0.026093
  33 H :    0.034267

  Mayer bond orders larger than 0.100000
B(  0-S ,  1-C ) :   1.1509 B(  0-S ,  4-C ) :   1.1356 B(  1-C ,  2-C ) :   1.6145
B(  1-C , 32-H ) :   0.9599 B(  2-C ,  3-C ) :   1.2491 B(  2-C ,  6-C ) :   0.9991
B(  3-C ,  4-C ) :   1.5911 B(  3-C ,  5-H ) :   0.9797 B(  4-C , 20-C ) :   1.0243
B(  6-C ,  7-H ) :   0.9443 B(  6-C ,  8-H ) :   0.9424 B(  6-C ,  9-C ) :   1.0541
B(  9-C , 10-H ) :   0.9580 B(  9-C , 11-H ) :   0.9601 B(  9-C , 12-C ) :   1.0734
B( 12-C , 13-H ) :   0.9693 B( 12-C , 14-H ) :   0.9718 B( 12-C , 15-H ) :   0.9746
B( 16-S , 17-C ) :   1.1596 B( 16-S , 20-C ) :   1.1330 B( 17-C , 18-C ) :   1.5979
B( 17-C , 33-H ) :   0.9641 B( 18-C , 19-C ) :   1.2384 B( 18-C , 21-H ) :   0.9868
B( 19-C , 20-C ) :   1.6020 B( 19-C , 22-C ) :   1.0407 B( 22-C , 23-H ) :   0.9394
B( 22-C , 24-H ) :   0.9375 B( 22-C , 25-C ) :   1.0493 B( 25-C , 26-H ) :   0.9526
B( 25-C , 27-H ) :   0.9631 B( 25-C , 28-C ) :   1.0668 B( 28-C , 29-H ) :   0.9758
B( 28-C , 30-H ) :   0.9775 B( 28-C , 31-H ) :   0.9749

Dispersion correction           -0.015309172
FINAL SINGLE POINT ENERGY     -1339.868133253207

DIPOLE MOMENT
-------------
                                X             Y             Z
Electronic contribution:      2.38303     -31.15131      -8.12472
Nuclear contribution   :     -2.47085      31.82174       8.30142
                        -----------------------------------------
Total Dipole Moment    :     -0.08782       0.67043       0.17670
                        -----------------------------------------
Magnitude (a.u.)       :      0.69886
Magnitude (Debye)      :      1.77637

Rotational constants in cm-1:     0.016457     0.010559     0.006900
Rotational constants in MHz :   493.374260   316.564045   206.851073

                             ****ORCA TERMINATED NORMALLY****
TOTAL RUN TIME: 0 days 0 hours 0 minutes 32 seconds 179 msec
