                         Program Version 4.2.1 -  RELEASE  -
|  1> ! wB97X-D3 SP def2-SVP
|  2> %pal
|  3> nprocs 16
|  4> end
|  5>
|  6> * xyz 0 1
|  7> S 	 -1.91935 	 45.5741 	 34.4431
|  8> C 	 -1.80012 	 44.4567 	 35.8437
|  9> C 	 -0.557174 	 44.4828 	 36.407
| 10> C 	 0.308803 	 45.414 	 35.76
| 11> C 	 -0.18169 	 46.049 	 34.6222
| 12> H 	 1.367 	 45.5096 	 35.9201
| 13> C 	 -0.0366055 	 43.691 	 37.5699
| 14> H 	 0.784258 	 43.1251 	 37.222
| 15> H 	 -0.746419 	 42.9332 	 37.8757
| 16> C 	 0.494339 	 44.5675 	 38.7456
| 17> H 	 1.1644 	 45.3776 	 38.3365
| 18> H 	 -0.302512 	 44.9519 	 39.3327
| 19> C 	 1.22141 	 43.6757 	 39.8213
| 20> H 	 0.607041 	 43.3778 	 40.6506
| 21> H 	 1.68802 	 42.8314 	 39.4421
| 22> H 	 1.83011 	 44.4045 	 40.2186
| 23> S 	 1.05362 	 46.4719 	 32.2399
| 24> C 	 2.03002 	 47.8717 	 31.949
| 25> C 	 2.05847 	 48.6607 	 33.0701
| 26> C 	 1.25049 	 48.1101 	 34.1466
| 27> C 	 0.511682 	 47.0259 	 33.7609
| 28> H 	 2.7409 	 49.5241 	 33.2176
| 29> C 	 1.32958 	 48.5847 	 35.599
| 30> H 	 2.33886 	 48.5176 	 35.9659
| 31> H 	 0.675152 	 47.9273 	 36.1727
| 32> C 	 0.609792 	 49.9928 	 35.8793
| 33> H 	 0.496154 	 50.1684 	 36.9358
| 34> H 	 -0.386278 	 49.8974 	 35.5218
| 35> C 	 1.42499 	 51.0823 	 35.2234
| 36> H 	 0.964241 	 52.0974 	 35.431
| 37> H 	 1.34219 	 50.9357 	 34.1542
| 38> H 	 2.4676 	 51.115 	 35.5382
| 39> H 	 -2.62587 	 43.8148 	 36.1318
| 40> H 	 2.55236 	 47.9922 	 31.0201
| 41> *
| 42>
| 43>                          ****END OF INPUT****

CARTESIAN COORDINATES (ANGSTROEM)
---------------------------------
  S     -1.919350   45.574100   34.443100
  C     -1.800120   44.456700   35.843700
  C     -0.557174   44.482800   36.407000
  C      0.308803   45.414000   35.760000
  C     -0.181690   46.049000   34.622200
  H      1.367000   45.509600   35.920100
  C     -0.036605   43.691000   37.569900
  H      0.784258   43.125100   37.222000
  H     -0.746419   42.933200   37.875700
  C      0.494339   44.567500   38.745600
  H      1.164400   45.377600   38.336500
  H     -0.302512   44.951900   39.332700
  C      1.221410   43.675700   39.821300
  H      0.607041   43.377800   40.650600
  H      1.688020   42.831400   39.442100
  H      1.830110   44.404500   40.218600
  S      1.053620   46.471900   32.239900
  C      2.030020   47.871700   31.949000
  C      2.058470   48.660700   33.070100
  C      1.250490   48.110100   34.146600
  C      0.511682   47.025900   33.760900
  H      2.740900   49.524100   33.217600
  C      1.329580   48.584700   35.599000
  H      2.338860   48.517600   35.965900
  H      0.675152   47.927300   36.172700
  C      0.609792   49.992800   35.879300
  H      0.496154   50.168400   36.935800
  H     -0.386278   49.897400   35.521800
  C      1.424990   51.082300   35.223400
  H      0.964241   52.097400   35.431000
  H      1.342190   50.935700   34.154200
  H      2.467600   51.115000   35.538200
  H     -2.625870   43.814800   36.131800
  H      2.552360   47.992200   31.020100

 Total Charge           Charge          ....    0
 Multiplicity           Mult            ....    1
 Number of Electrons    NEL             ....  134
 Basis Dimension        Dim             ....  322

ORBITAL ENERGIES
----------------

  NO   OCC          E(Eh)            E(eV)
   0   2.0000     -88.962360     -2420.7889
   1   2.0000     -88.961843     -2420.7748
   2   2.0000     -10.334889      -281.2266
   3   2.0000     -10.322372      -280.8860
   4   2.0000     -10.318989      -280.7940
   5   2.0000     -10.317127      -280.7433
   6   2.0000     -10.304480      -280.3992
   7   2.0000     -10.299517      -280.2641
   8   2.0000     -10.299355      -280.2597
   9   2.0000     -10.293345      -280.0961
  10   2.0000     -10.292739      -280.0797
  11   2.0000     -10.289241      -279.9845
  12   2.0000     -10.288841      -279.9736
  13   2.0000     -10.281410      -279.7714
  14   2.0000     -10.275598      -279.6132
  15   2.0000     -10.267277      -279.3868
  16   2.0000      -8.078123      -219.8169
  17   2.0000      -8.075642      -219.7494
  18   2.0000      -6.036545      -164.2627
  19   2.0000      -6.034306      -164.2018
  20   2.0000      -6.032365      -164.1490
  21   2.0000      -6.030356      -164.0943
  22   2.0000      -6.028893      -164.0545
  23   2.0000      -6.026322      -163.9846
  24   2.0000      -1.010023       -27.4841
  25   2.0000      -0.980691       -26.6860
  26   2.0000      -0.909346       -24.7446
  27   2.0000      -0.903847       -24.5949
  28   2.0000      -0.872059       -23.7299
  29   2.0000      -0.847887       -23.0722
  30   2.0000      -0.843169       -22.9438
  31   2.0000      -0.815579       -22.1930
  32   2.0000      -0.782758       -21.2999
  33   2.0000      -0.772188       -21.0123
  34   2.0000      -0.708655       -19.2835
  35   2.0000      -0.700285       -19.0557
  36   2.0000      -0.693727       -18.8773
  37   2.0000      -0.663498       -18.0547
  38   2.0000      -0.643442       -17.5089
  39   2.0000      -0.619728       -16.8636
  40   2.0000      -0.596464       -16.2306
  41   2.0000      -0.570886       -15.5346
  42   2.0000      -0.560681       -15.2569
  43   2.0000      -0.552856       -15.0440
  44   2.0000      -0.538060       -14.6414
  45   2.0000      -0.536139       -14.5891
  46   2.0000      -0.519977       -14.1493
  47   2.0000      -0.510659       -13.8957
  48   2.0000      -0.503333       -13.6964
  49   2.0000      -0.502264       -13.6673
  50   2.0000      -0.487426       -13.2635
  51   2.0000      -0.481594       -13.1048
  52   2.0000      -0.477734       -12.9998
  53   2.0000      -0.471130       -12.8201
  54   2.0000      -0.458488       -12.4761
  55   2.0000      -0.446969       -12.1626
  56   2.0000      -0.444209       -12.0875
  57   2.0000      -0.440027       -11.9738
  58   2.0000      -0.432349       -11.7648
  59   2.0000      -0.424336       -11.5468
  60   2.0000      -0.418665       -11.3925
  61   2.0000      -0.406803       -11.0697
  62   2.0000      -0.405977       -11.0472
  63   2.0000      -0.342800        -9.3281
  64   2.0000      -0.327644        -8.9157
  65   2.0000      -0.323897        -8.8137
  66   2.0000      -0.305083        -8.3017
  67   0.0000       0.035444         0.9645
  68   0.0000       0.064701         1.7606
  69   0.0000       0.110171         2.9979
  70   0.0000       0.119103         3.2410
  71   0.0000       0.127104         3.4587

MULLIKEN ATOMIC CHARGES
-----------------------
   0 S :    0.082533
   1 C :   -0.139035
   2 C :   -0.049967
   3 C :    0.019344
   4 C :   -0.172540
   5 H :    0.019262
   6 C :    0.104179
   7 H :    0.019024
   8 H :    0.011754
   9 C :   -0.124845
  10 H :    0.050522
  11 H :    0.031746
  12 C :    0.005022
  13 H :    0.027152
  14 H :    0.019156
  15 H :    0.014922
  16 S :    0.106044
  17 C :   -0.090970
  18 C :   -0.022850
  19 C :   -0.082603
  20 C :   -0.124241
  21 H :    0.039410
  22 C :    0.027264
  23 H :    0.037235
  24 H :    0.035849
  25 C :   -0.043250
  26 H :    0.025294
  27 H :    0.025824
  28 C :   -0.065340
  29 H :    0.034940
  30 H :    0.037268
  31 H :    0.032750
  32 H :    0.049088
  33 H :    0.060057
Sum of atomic charges:   -0.0000000

LOEWDIN ATOMIC CHARGES
----------------------
   0 S :    0.355120
   1 C :   -0.177453
   2 C :   -0.066603
   3 C :   -0.059752
   4 C :   -0.175433
   5 H :    0.028833
   6 C :   -0.029857
   7 H :    0.026734
   8 H :    0.028150
   9 C :   -0.028486
  10 H :    0.029353
  11 H :    0.023481
  12 C :   -0.053238
  13 H :    0.025882
  14 H :    0.012935
  15 H :    0.021496
  16 S :    0.433954
  17 C :   -0.180888
  18 C :   -0.080222
  19 C :   -0.051823
  20 C :   -0.223344
  21 H :    0.038339
  22 C :   -0.028853
  23 H :    0.026279
  24 H :    0.031539
  25 C :   -0.029154
  26 H :    0.019300
  27 H :    0.023226
  28 C :   -0.072893
  29 H :    0.029317
  30 H :    0.023904
  31 H :    0.022912
  32 H :    0.029198
  33 H :    0.028046

  Mayer bond orders larger than 0.100000
B(  0-S ,  1-C ) :   1.1243 B(  0-S ,  4-C ) :   1.1265 B(  1-C ,  2-C ) :   1.6340
B(  1-C , 32-H ) :   0.9690 B(  2-C ,  3-C ) :   1.2142 B(  2-C ,  6-C ) :   1.0301
B(  3-C ,  4-C ) :   1.6101 B(  3-C ,  5-H ) :   0.9873 B(  4-C , 20-C ) :   1.0014
B(  6-C ,  7-H ) :   0.9335 B(  6-C ,  8-H ) :   0.9388 B(  6-C ,  9-C ) :   1.0581
B(  9-C , 10-H ) :   0.9642 B(  9-C , 11-H ) :   0.9576 B(  9-C , 12-C ) :   1.0598
B( 12-C , 13-H ) :   0.9784 B( 12-C , 14-H ) :   0.9798 B( 12-C , 15-H ) :   0.9732
B( 16-S , 17-C ) :   1.1772 B( 16-S , 20-C ) :   1.1580 B( 17-C , 18-C ) :   1.5759
B( 17-C , 33-H ) :   0.9739 B( 18-C , 19-C ) :   1.2433 B( 18-C , 21-H ) :   0.9823
B( 19-C , 20-C ) :   1.6075 B( 19-C , 22-C ) :   1.0357 B( 22-C , 23-H ) :   0.9458
B( 22-C , 24-H ) :   0.9301 B( 22-C , 25-C ) :   1.0649 B( 25-C , 26-H ) :   0.9598
B( 25-C , 27-H ) :   0.9535 B( 25-C , 28-C ) :   1.0866 B( 28-C , 29-H ) :   0.9699
B( 28-C , 30-H ) :   0.9685 B( 28-C , 31-H ) :   0.9747

Dispersion correction           -0.014290641
FINAL SINGLE POINT ENERGY     -1339.864457977101

DIPOLE MOMENT
-------------
                                X             Y             Z
Electronic contribution:     -9.13453      -6.49036     -25.12986
Nuclear contribution   :      9.65694       6.46112      25.78261
                        -----------------------------------------
Total Dipole Moment    :      0.52241      -0.02924       0.65275
                        -----------------------------------------
Magnitude (a.u.)       :      0.83657
Magnitude (Debye)      :      2.12639

Rotational constants in cm-1:     0.017653     0.008445     0.006908
Rotational constants in MHz :   529.209227   253.184998   207.106108

                             ****ORCA TERMINATED NORMALLY****
TOTAL RUN TIME: 0 days 0 hours 0 minutes 34 seconds 233 msec
