                         Program Version 4.2.1 -  RELEASE  -
|  1> ! wB97X-D3 SP def2-SVP
|  2> %pal
|  3> nprocs 16
|  4> end
|  5>
|  6> * xyz 0 1
|  7> S 	 -1.73846 	 -15.7681 	 81.4182
|  8> C 	 -3.1612 	 -16.5551 	 80.8705
|  9> C 	 -4.28473 	 -15.7731 	 81.0284
| 10> C 	 -3.9528 	 -14.4718 	 81.4583
| 11> C 	 -2.56878 	 -14.2394 	 81.5563
| 12> H 	 -4.805 	 -13.8142 	 81.5506
| 13> C 	 -5.67823 	 -16.2389 	 80.6897
| 14> H 	 -6.38617 	 -15.5916 	 81.1979
| 15> H 	 -5.74976 	 -17.1958 	 81.2561
| 16> C 	 -6.17907 	 -16.4672 	 79.2614
| 17> H 	 -6.67036 	 -15.5234 	 78.8492
| 18> H 	 -5.37237 	 -16.6909 	 78.6421
| 19> C 	 -7.18539 	 -17.5851 	 79.0649
| 20> H 	 -7.37383 	 -17.8872 	 78.0388
| 21> H 	 -6.73693 	 -18.4167 	 79.5059
| 22> H 	 -8.02783 	 -17.2966 	 79.5292
| 23> S 	 -0.803352 	 -13.1935 	 83.5227
| 24> C 	 -0.535125 	 -11.4761 	 83.511
| 25> C 	 -1.02069 	 -10.8677 	 82.4251
| 26> C 	 -1.71789 	 -11.7801 	 81.4848
| 27> C 	 -1.84526 	 -13.0578 	 82.0051
| 28> H 	 -0.945143 	 -9.74703 	 82.3398
| 29> C 	 -2.2565 	 -11.3115 	 80.158
| 30> H 	 -1.95025 	 -11.9976 	 79.4094
| 31> H 	 -1.8178 	 -10.3017 	 79.9225
| 32> C 	 -3.76764 	 -11.1527 	 79.9224
| 33> H 	 -4.2387 	 -12.1771 	 79.7656
| 34> H 	 -3.89144 	 -10.7201 	 78.9358
| 35> C 	 -4.66534 	 -10.2581 	 80.8494
| 36> H 	 -4.76836 	 -10.7294 	 81.8019
| 37> H 	 -5.6654 	 -10.1353 	 80.282
| 38> H 	 -4.4224 	 -9.21358 	 81.0398
| 39> H 	 -3.18264 	 -17.5445 	 80.396
| 40> H 	 0.059951 	 -10.9524 	 84.2898
| 41> *
| 42>
| 43>                          ****END OF INPUT****

CARTESIAN COORDINATES (ANGSTROEM)
---------------------------------
  S     -1.738460  -15.768100   81.418200
  C     -3.161200  -16.555100   80.870500
  C     -4.284730  -15.773100   81.028400
  C     -3.952800  -14.471800   81.458300
  C     -2.568780  -14.239400   81.556300
  H     -4.805000  -13.814200   81.550600
  C     -5.678230  -16.238900   80.689700
  H     -6.386170  -15.591600   81.197900
  H     -5.749760  -17.195800   81.256100
  C     -6.179070  -16.467200   79.261400
  H     -6.670360  -15.523400   78.849200
  H     -5.372370  -16.690900   78.642100
  C     -7.185390  -17.585100   79.064900
  H     -7.373830  -17.887200   78.038800
  H     -6.736930  -18.416700   79.505900
  H     -8.027830  -17.296600   79.529200
  S     -0.803352  -13.193500   83.522700
  C     -0.535125  -11.476100   83.511000
  C     -1.020690  -10.867700   82.425100
  C     -1.717890  -11.780100   81.484800
  C     -1.845260  -13.057800   82.005100
  H     -0.945143   -9.747030   82.339800
  C     -2.256500  -11.311500   80.158000
  H     -1.950250  -11.997600   79.409400
  H     -1.817800  -10.301700   79.922500
  C     -3.767640  -11.152700   79.922400
  H     -4.238700  -12.177100   79.765600
  H     -3.891440  -10.720100   78.935800
  C     -4.665340  -10.258100   80.849400
  H     -4.768360  -10.729400   81.801900
  H     -5.665400  -10.135300   80.282000
  H     -4.422400   -9.213580   81.039800
  H     -3.182640  -17.544500   80.396000
  H      0.059951  -10.952400   84.289800

 Total Charge           Charge          ....    0
 Multiplicity           Mult            ....    1
 Number of Electrons    NEL             ....  134
 Basis Dimension        Dim             ....  322

ORBITAL ENERGIES
----------------

  NO   OCC          E(Eh)            E(eV)
   0   2.0000     -88.968963     -2420.9686
   1   2.0000     -88.959011     -2420.6978
   2   2.0000     -10.334339      -281.2117
   3   2.0000     -10.332301      -281.1562
   4   2.0000     -10.314978      -280.6848
   5   2.0000     -10.312548      -280.6187
   6   2.0000     -10.309444      -280.5342
   7   2.0000     -10.298203      -280.2284
   8   2.0000     -10.297489      -280.2089
   9   2.0000     -10.296195      -280.1737
  10   2.0000     -10.294323      -280.1228
  11   2.0000     -10.291940      -280.0579
  12   2.0000     -10.291423      -280.0439
  13   2.0000     -10.285421      -279.8805
  14   2.0000     -10.282784      -279.8088
  15   2.0000     -10.265018      -279.3253
  16   2.0000      -8.084367      -219.9868
  17   2.0000      -8.073196      -219.6828
  18   2.0000      -6.042800      -164.4329
  19   2.0000      -6.038696      -164.3213
  20   2.0000      -6.035246      -164.2274
  21   2.0000      -6.031913      -164.1367
  22   2.0000      -6.027984      -164.0298
  23   2.0000      -6.023556      -163.9093
  24   2.0000      -1.006945       -27.4004
  25   2.0000      -0.980523       -26.6814
  26   2.0000      -0.916549       -24.9406
  27   2.0000      -0.901919       -24.5425
  28   2.0000      -0.872914       -23.7532
  29   2.0000      -0.855669       -23.2839
  30   2.0000      -0.839412       -22.8416
  31   2.0000      -0.815426       -22.1889
  32   2.0000      -0.787567       -21.4308
  33   2.0000      -0.775455       -21.1012
  34   2.0000      -0.710749       -19.3405
  35   2.0000      -0.704944       -19.1825
  36   2.0000      -0.686575       -18.6827
  37   2.0000      -0.653708       -17.7883
  38   2.0000      -0.635481       -17.2923
  39   2.0000      -0.623556       -16.9678
  40   2.0000      -0.587625       -15.9901
  41   2.0000      -0.580178       -15.7874
  42   2.0000      -0.559391       -15.2218
  43   2.0000      -0.550681       -14.9848
  44   2.0000      -0.541896       -14.7457
  45   2.0000      -0.531260       -14.4563
  46   2.0000      -0.518535       -14.1101
  47   2.0000      -0.513223       -13.9655
  48   2.0000      -0.502401       -13.6710
  49   2.0000      -0.494522       -13.4566
  50   2.0000      -0.486924       -13.2499
  51   2.0000      -0.484936       -13.1958
  52   2.0000      -0.476475       -12.9655
  53   2.0000      -0.464091       -12.6286
  54   2.0000      -0.461138       -12.5482
  55   2.0000      -0.448597       -12.2069
  56   2.0000      -0.441227       -12.0064
  57   2.0000      -0.436344       -11.8735
  58   2.0000      -0.429880       -11.6976
  59   2.0000      -0.423383       -11.5208
  60   2.0000      -0.420143       -11.4327
  61   2.0000      -0.418599       -11.3906
  62   2.0000      -0.404160       -10.9977
  63   2.0000      -0.345119        -9.3912
  64   2.0000      -0.333354        -9.0710
  65   2.0000      -0.325176        -8.8485
  66   2.0000      -0.293454        -7.9853
  67   0.0000       0.028168         0.7665
  68   0.0000       0.060138         1.6364
  69   0.0000       0.106345         2.8938
  70   0.0000       0.118066         3.2127
  71   0.0000       0.133989         3.6460

MULLIKEN ATOMIC CHARGES
-----------------------
   0 S :    0.126494
   1 C :   -0.127581
   2 C :   -0.118960
   3 C :    0.072213
   4 C :   -0.170596
   5 H :    0.008295
   6 C :    0.048005
   7 H :    0.015416
   8 H :    0.031478
   9 C :   -0.051926
  10 H :    0.033067
  11 H :    0.007924
  12 C :    0.008386
  13 H :    0.032611
  14 H :    0.007897
  15 H :    0.011414
  16 S :    0.076296
  17 C :   -0.091667
  18 C :   -0.045765
  19 C :   -0.039710
  20 C :   -0.147722
  21 H :    0.039248
  22 C :    0.101850
  23 H :    0.030489
  24 H :    0.024038
  25 C :   -0.101832
  26 H :    0.034566
  27 H :    0.021657
  28 C :   -0.069043
  29 H :    0.041799
  30 H :    0.038877
  31 H :    0.029796
  32 H :    0.053220
  33 H :    0.069766
Sum of atomic charges:    0.0000000

LOEWDIN ATOMIC CHARGES
----------------------
   0 S :    0.433670
   1 C :   -0.205687
   2 C :   -0.072852
   3 C :   -0.050576
   4 C :   -0.201650
   5 H :    0.031071
   6 C :   -0.038221
   7 H :    0.028933
   8 H :    0.038265
   9 C :   -0.037312
  10 H :    0.029296
  11 H :    0.012497
  12 C :   -0.045072
  13 H :    0.031025
  14 H :    0.016751
  15 H :    0.009156
  16 S :    0.350889
  17 C :   -0.186475
  18 C :   -0.084252
  19 C :   -0.049771
  20 C :   -0.171630
  21 H :    0.041634
  22 C :   -0.034401
  23 H :    0.035085
  24 H :    0.036210
  25 C :   -0.047216
  26 H :    0.028974
  27 H :    0.023115
  28 C :   -0.075035
  29 H :    0.020235
  30 H :    0.038493
  31 H :    0.023040
  32 H :    0.032054
  33 H :    0.039756

  Mayer bond orders larger than 0.100000
B(  0-S ,  1-C ) :   1.1647 B(  0-S ,  4-C ) :   1.1703 B(  1-C ,  2-C ) :   1.5701
B(  1-C ,  4-C ) :   0.1063 B(  1-C , 32-H ) :   0.9666 B(  2-C ,  3-C ) :   1.3094
B(  2-C ,  6-C ) :   1.0238 B(  3-C ,  4-C ) :   1.5030 B(  3-C ,  5-H ) :   0.9909
B(  4-C , 20-C ) :   1.0545 B(  6-C ,  7-H ) :   0.9350 B(  6-C ,  8-H ) :   0.9400
B(  6-C ,  9-C ) :   1.0512 B(  9-C , 10-H ) :   0.9566 B(  9-C , 11-H ) :   0.9597
B(  9-C , 12-C ) :   1.0799 B( 12-C , 13-H ) :   0.9720 B( 12-C , 14-H ) :   0.9730
B( 12-C , 15-H ) :   0.9807 B( 16-S , 17-C ) :   1.1283 B( 16-S , 20-C ) :   1.0904
B( 17-C , 18-C ) :   1.6896 B( 17-C , 33-H ) :   0.9558 B( 18-C , 19-C ) :   1.1744
B( 18-C , 21-H ) :   0.9779 B( 19-C , 20-C ) :   1.6551 B( 19-C , 22-C ) :   1.0498
B( 22-C , 23-H ) :   0.9224 B( 22-C , 24-H ) :   0.9352 B( 22-C , 25-C ) :   1.0849
B( 25-C , 26-H ) :   0.9492 B( 25-C , 27-H ) :   0.9530 B( 25-C , 28-C ) :   1.0647
B( 28-C , 29-H ) :   0.9773 B( 28-C , 30-H ) :   0.9739 B( 28-C , 31-H ) :   0.9766

Dispersion correction           -0.014212291
FINAL SINGLE POINT ENERGY     -1339.857134025950

DIPOLE MOMENT
-------------
                                X             Y             Z
Electronic contribution:     25.82129      -3.36219      16.01300
Nuclear contribution   :    -26.37087       3.53216     -16.44214
                        -----------------------------------------
Total Dipole Moment    :     -0.54958       0.16997      -0.42914
                        -----------------------------------------
Magnitude (a.u.)       :      0.71770
Magnitude (Debye)      :      1.82425

Rotational constants in cm-1:     0.020744     0.008146     0.006315
Rotational constants in MHz :   621.899972   244.217288   189.309371

                             ****ORCA TERMINATED NORMALLY****
TOTAL RUN TIME: 0 days 0 hours 0 minutes 33 seconds 908 msec
