                         Program Version 4.2.1 -  RELEASE  -
|  1> ! wB97X-D3 SP def2-SVP
|  2> %pal
|  3> nprocs 16
|  4> end
|  5>
|  6> * xyz 0 1
|  7> S 	 18.1555 	 -9.82569 	 79.8777
|  8> C 	 17.0856 	 -10.9995 	 80.5408
|  9> C 	 17.5402 	 -11.5826 	 81.6417
| 10> C 	 18.8302 	 -11.0594 	 82.0457
| 11> C 	 19.2339 	 -10.0392 	 81.2584
| 12> H 	 19.4127 	 -11.2521 	 82.9158
| 13> C 	 16.7751 	 -12.6182 	 82.408
| 14> H 	 15.7125 	 -12.6663 	 81.9194
| 15> H 	 16.5088 	 -12.3215 	 83.4223
| 16> C 	 17.392 	 -14.0297 	 82.439
| 17> H 	 18.4319 	 -14.0512 	 82.712
| 18> H 	 16.9079 	 -14.576 	 83.2249
| 19> C 	 17.2097 	 -14.8916 	 81.1517
| 20> H 	 17.6115 	 -14.3321 	 80.3172
| 21> H 	 17.7327 	 -15.8421 	 81.0896
| 22> H 	 16.158 	 -15.2319 	 81.0268
| 23> S 	 19.862 	 -7.42573 	 80.9432
| 24> C 	 21.4181 	 -6.76713 	 81.4178
| 25> C 	 22.187 	 -7.80675 	 81.9079
| 26> C 	 21.5064 	 -9.09767 	 81.9347
| 27> C 	 20.214 	 -9.0123 	 81.4846
| 28> H 	 23.1977 	 -7.68367 	 82.2151
| 29> C 	 22.2703 	 -10.4007 	 82.3297
| 30> H 	 23.343 	 -10.3766 	 81.9884
| 31> H 	 21.7978 	 -11.2547 	 81.8337
| 32> C 	 22.1564 	 -10.6773 	 83.8797
| 33> H 	 21.1798 	 -10.6913 	 84.1965
| 34> H 	 22.7986 	 -9.87361 	 84.2948
| 35> C 	 22.703 	 -12.0849 	 84.1314
| 36> H 	 22.4266 	 -12.363 	 85.1662
| 37> H 	 23.779 	 -12.2435 	 84.02
| 38> H 	 22.4068 	 -12.8821 	 83.5209
| 39> H 	 16.1472 	 -11.2592 	 80.1447
| 40> H 	 21.7419 	 -5.73785 	 81.3229
| 41> *
| 42>
| 43>                          ****END OF INPUT****

CARTESIAN COORDINATES (ANGSTROEM)
---------------------------------
  S     18.155500   -9.825690   79.877700
  C     17.085600  -10.999500   80.540800
  C     17.540200  -11.582600   81.641700
  C     18.830200  -11.059400   82.045700
  C     19.233900  -10.039200   81.258400
  H     19.412700  -11.252100   82.915800
  C     16.775100  -12.618200   82.408000
  H     15.712500  -12.666300   81.919400
  H     16.508800  -12.321500   83.422300
  C     17.392000  -14.029700   82.439000
  H     18.431900  -14.051200   82.712000
  H     16.907900  -14.576000   83.224900
  C     17.209700  -14.891600   81.151700
  H     17.611500  -14.332100   80.317200
  H     17.732700  -15.842100   81.089600
  H     16.158000  -15.231900   81.026800
  S     19.862000   -7.425730   80.943200
  C     21.418100   -6.767130   81.417800
  C     22.187000   -7.806750   81.907900
  C     21.506400   -9.097670   81.934700
  C     20.214000   -9.012300   81.484600
  H     23.197700   -7.683670   82.215100
  C     22.270300  -10.400700   82.329700
  H     23.343000  -10.376600   81.988400
  H     21.797800  -11.254700   81.833700
  C     22.156400  -10.677300   83.879700
  H     21.179800  -10.691300   84.196500
  H     22.798600   -9.873610   84.294800
  C     22.703000  -12.084900   84.131400
  H     22.426600  -12.363000   85.166200
  H     23.779000  -12.243500   84.020000
  H     22.406800  -12.882100   83.520900
  H     16.147200  -11.259200   80.144700
  H     21.741900   -5.737850   81.322900

 Total Charge           Charge          ....    0
 Multiplicity           Mult            ....    1
 Number of Electrons    NEL             ....  134
 Basis Dimension        Dim             ....  322

ORBITAL ENERGIES
----------------

  NO   OCC          E(Eh)            E(eV)
   0   2.0000     -88.963717     -2420.8258
   1   2.0000     -88.961994     -2420.7789
   2   2.0000     -10.326661      -281.0027
   3   2.0000     -10.322067      -280.8777
   4   2.0000     -10.319162      -280.7987
   5   2.0000     -10.303152      -280.3630
   6   2.0000     -10.302313      -280.3402
   7   2.0000     -10.300497      -280.2908
   8   2.0000     -10.299319      -280.2587
   9   2.0000     -10.296339      -280.1776
  10   2.0000     -10.294745      -280.1342
  11   2.0000     -10.292465      -280.0722
  12   2.0000     -10.288953      -279.9766
  13   2.0000     -10.286162      -279.9007
  14   2.0000     -10.277174      -279.6561
  15   2.0000     -10.275241      -279.6035
  16   2.0000      -8.079046      -219.8420
  17   2.0000      -8.077646      -219.8039
  18   2.0000      -6.037707      -164.2944
  19   2.0000      -6.036183      -164.2529
  20   2.0000      -6.033291      -164.1742
  21   2.0000      -6.032173      -164.1438
  22   2.0000      -6.029752      -164.0779
  23   2.0000      -6.028154      -164.0344
  24   2.0000      -1.015929       -27.6448
  25   2.0000      -0.989236       -26.9185
  26   2.0000      -0.909889       -24.7593
  27   2.0000      -0.906338       -24.6627
  28   2.0000      -0.874976       -23.8093
  29   2.0000      -0.852316       -23.1927
  30   2.0000      -0.842180       -22.9169
  31   2.0000      -0.822103       -22.3706
  32   2.0000      -0.780396       -21.2356
  33   2.0000      -0.772708       -21.0265
  34   2.0000      -0.713325       -19.4105
  35   2.0000      -0.703483       -19.1427
  36   2.0000      -0.695632       -18.9291
  37   2.0000      -0.668457       -18.1896
  38   2.0000      -0.647025       -17.6065
  39   2.0000      -0.621002       -16.8983
  40   2.0000      -0.593671       -16.1546
  41   2.0000      -0.573200       -15.5976
  42   2.0000      -0.572252       -15.5718
  43   2.0000      -0.547075       -14.8867
  44   2.0000      -0.539197       -14.6723
  45   2.0000      -0.525629       -14.3031
  46   2.0000      -0.516941       -14.0667
  47   2.0000      -0.513274       -13.9669
  48   2.0000      -0.509378       -13.8609
  49   2.0000      -0.498285       -13.5590
  50   2.0000      -0.497273       -13.5315
  51   2.0000      -0.481888       -13.1128
  52   2.0000      -0.473971       -12.8974
  53   2.0000      -0.462145       -12.5756
  54   2.0000      -0.457772       -12.4566
  55   2.0000      -0.450803       -12.2670
  56   2.0000      -0.443277       -12.0622
  57   2.0000      -0.439547       -11.9607
  58   2.0000      -0.431891       -11.7524
  59   2.0000      -0.427693       -11.6381
  60   2.0000      -0.420600       -11.4451
  61   2.0000      -0.415342       -11.3020
  62   2.0000      -0.408067       -11.1041
  63   2.0000      -0.361618        -9.8401
  64   2.0000      -0.331015        -9.0074
  65   2.0000      -0.327232        -8.9044
  66   2.0000      -0.292383        -7.9561
  67   0.0000       0.030183         0.8213
  68   0.0000       0.079644         2.1672
  69   0.0000       0.115115         3.1324
  70   0.0000       0.123258         3.3540
  71   0.0000       0.128219         3.4890

MULLIKEN ATOMIC CHARGES
-----------------------
   0 S :    0.098954
   1 C :   -0.089966
   2 C :   -0.060143
   3 C :    0.041661
   4 C :   -0.132228
   5 H :   -0.021322
   6 C :    0.036936
   7 H :    0.023557
   8 H :    0.036637
   9 C :   -0.051439
  10 H :    0.026562
  11 H :    0.018994
  12 C :   -0.068127
  13 H :    0.036738
  14 H :    0.027617
  15 H :    0.032693
  16 S :    0.100094
  17 C :   -0.091651
  18 C :   -0.014047
  19 C :   -0.049083
  20 C :   -0.124427
  21 H :    0.006398
  22 C :    0.004462
  23 H :    0.043374
  24 H :    0.025167
  25 C :   -0.033727
  26 H :    0.026222
  27 H :    0.043110
  28 C :   -0.043254
  29 H :    0.032598
  30 H :    0.021827
  31 H :    0.013445
  32 H :    0.019519
  33 H :    0.062848
Sum of atomic charges:    0.0000000

LOEWDIN ATOMIC CHARGES
----------------------
   0 S :    0.394563
   1 C :   -0.188549
   2 C :   -0.067857
   3 C :   -0.058000
   4 C :   -0.170228
   5 H :    0.025733
   6 C :   -0.033034
   7 H :    0.039185
   8 H :    0.031901
   9 C :   -0.039852
  10 H :    0.021636
  11 H :    0.021733
  12 C :   -0.072106
  13 H :    0.024564
  14 H :    0.025644
  15 H :    0.027384
  16 S :    0.417360
  17 C :   -0.187342
  18 C :   -0.066116
  19 C :   -0.060276
  20 C :   -0.212747
  21 H :    0.023573
  22 C :   -0.031069
  23 H :    0.035954
  24 H :    0.024535
  25 C :   -0.025916
  26 H :    0.011057
  27 H :    0.033728
  28 C :   -0.072381
  29 H :    0.028609
  30 H :    0.026929
  31 H :    0.017543
  32 H :    0.019546
  33 H :    0.034294

  Mayer bond orders larger than 0.100000
B(  0-S ,  1-C ) :   1.1106 B(  0-S ,  4-C ) :   1.1251 B(  1-C ,  2-C ) :   1.6825
B(  1-C , 32-H ) :   0.9646 B(  2-C ,  3-C ) :   1.1727 B(  2-C ,  6-C ) :   1.0294
B(  3-C ,  4-C ) :   1.6236 B(  3-C ,  5-H ) :   1.0000 B(  4-C , 20-C ) :   1.0548
B(  6-C ,  7-H ) :   0.9417 B(  6-C ,  8-H ) :   0.9407 B(  6-C ,  9-C ) :   1.0594
B(  9-C , 10-H ) :   0.9605 B(  9-C , 11-H ) :   0.9550 B(  9-C , 12-C ) :   1.0741
B( 12-C , 13-H ) :   0.9786 B( 12-C , 14-H ) :   0.9748 B( 12-C , 15-H ) :   0.9758
B( 16-S , 17-C ) :   1.1448 B( 16-S , 20-C ) :   1.1392 B( 17-C , 18-C ) :   1.5948
B( 17-C , 33-H ) :   0.9733 B( 18-C , 19-C ) :   1.2502 B( 18-C , 21-H ) :   0.9930
B( 19-C , 20-C ) :   1.5923 B( 19-C , 22-C ) :   1.0366 B( 22-C , 23-H ) :   0.9477
B( 22-C , 24-H ) :   0.9379 B( 22-C , 25-C ) :   1.0568 B( 25-C , 26-H ) :   0.9590
B( 25-C , 27-H ) :   0.9550 B( 25-C , 28-C ) :   1.0758 B( 28-C , 29-H ) :   0.9759
B( 28-C , 30-H ) :   0.9714 B( 28-C , 31-H ) :   0.9731

Dispersion correction           -0.014309455
FINAL SINGLE POINT ENERGY     -1339.874189010582

DIPOLE MOMENT
-------------
                                X             Y             Z
Electronic contribution:     -4.54324      26.79479     -14.16302
Nuclear contribution   :      4.78132     -27.21915      14.60288
                        -----------------------------------------
Total Dipole Moment    :      0.23808      -0.42435       0.43986
                        -----------------------------------------
Magnitude (a.u.)       :      0.65592
Magnitude (Debye)      :      1.66722

Rotational constants in cm-1:     0.018301     0.009492     0.006632
Rotational constants in MHz :   548.638441   284.576649   198.810790

                             ****ORCA TERMINATED NORMALLY****
TOTAL RUN TIME: 0 days 0 hours 0 minutes 29 seconds 91 msec
