                         Program Version 4.2.1 -  RELEASE  -
|  1> ! wB97X-D3 SP def2-SVP
|  2> %pal
|  3> nprocs 16
|  4> end
|  5>
|  6> * xyz 0 1
|  7> S 	 -23.1633 	 51.3607 	 64.1378
|  8> C 	 -21.9114 	 50.7948 	 62.9535
|  9> C 	 -21.6375 	 49.4475 	 63.1473
| 10> C 	 -22.4158 	 48.8774 	 64.21
| 11> C 	 -23.206 	 49.773 	 64.907
| 12> H 	 -22.3291 	 47.8736 	 64.5515
| 13> C 	 -20.6643 	 48.7468 	 62.3396
| 14> H 	 -19.7965 	 48.7474 	 62.8741
| 15> H 	 -20.4733 	 49.2202 	 61.4078
| 16> C 	 -21.0283 	 47.2315 	 61.8693
| 17> H 	 -20.2548 	 46.6897 	 61.3122
| 18> H 	 -20.9921 	 46.6545 	 62.809
| 19> C 	 -22.4084 	 47.1217 	 61.1834
| 20> H 	 -23.1821 	 47.434 	 61.8951
| 21> H 	 -22.4639 	 47.794 	 60.3161
| 22> H 	 -22.6082 	 46.0495 	 60.8414
| 23> S 	 -23.8807 	 50.4902 	 67.48
| 24> C 	 -25.1258 	 49.4704 	 68.2663
| 25> C 	 -25.513 	 48.3937 	 67.5218
| 26> C 	 -24.9123 	 48.3864 	 66.2186
| 27> C 	 -24.0329 	 49.4202 	 66.0665
| 28> H 	 -26.3514 	 47.7938 	 67.9015
| 29> C 	 -25.2638 	 47.352 	 65.1222
| 30> H 	 -24.8779 	 47.7649 	 64.1622
| 31> H 	 -26.2871 	 47.4505 	 65.1815
| 32> C 	 -24.7702 	 46.0048 	 65.5849
| 33> H 	 -25.3075 	 45.8318 	 66.5271
| 34> H 	 -23.7747 	 46.0823 	 65.7169
| 35> C 	 -25.1688 	 44.8428 	 64.7313
| 36> H 	 -26.1717 	 44.9385 	 64.5188
| 37> H 	 -25.0628 	 43.9152 	 65.2343
| 38> H 	 -24.6089 	 44.9315 	 63.7473
| 39> H 	 -21.4432 	 51.3641 	 62.1599
| 40> H 	 -25.4023 	 49.4586 	 69.2779
| 41> *
| 42>
| 43>                          ****END OF INPUT****

CARTESIAN COORDINATES (ANGSTROEM)
---------------------------------
  S    -23.163300   51.360700   64.137800
  C    -21.911400   50.794800   62.953500
  C    -21.637500   49.447500   63.147300
  C    -22.415800   48.877400   64.210000
  C    -23.206000   49.773000   64.907000
  H    -22.329100   47.873600   64.551500
  C    -20.664300   48.746800   62.339600
  H    -19.796500   48.747400   62.874100
  H    -20.473300   49.220200   61.407800
  C    -21.028300   47.231500   61.869300
  H    -20.254800   46.689700   61.312200
  H    -20.992100   46.654500   62.809000
  C    -22.408400   47.121700   61.183400
  H    -23.182100   47.434000   61.895100
  H    -22.463900   47.794000   60.316100
  H    -22.608200   46.049500   60.841400
  S    -23.880700   50.490200   67.480000
  C    -25.125800   49.470400   68.266300
  C    -25.513000   48.393700   67.521800
  C    -24.912300   48.386400   66.218600
  C    -24.032900   49.420200   66.066500
  H    -26.351400   47.793800   67.901500
  C    -25.263800   47.352000   65.122200
  H    -24.877900   47.764900   64.162200
  H    -26.287100   47.450500   65.181500
  C    -24.770200   46.004800   65.584900
  H    -25.307500   45.831800   66.527100
  H    -23.774700   46.082300   65.716900
  C    -25.168800   44.842800   64.731300
  H    -26.171700   44.938500   64.518800
  H    -25.062800   43.915200   65.234300
  H    -24.608900   44.931500   63.747300
  H    -21.443200   51.364100   62.159900
  H    -25.402300   49.458600   69.277900

 Total Charge           Charge          ....    0
 Multiplicity           Mult            ....    1
 Number of Electrons    NEL             ....  134
 Basis Dimension        Dim             ....  322

ORBITAL ENERGIES
----------------

  NO   OCC          E(Eh)            E(eV)
   0   2.0000     -88.967229     -2420.9214
   1   2.0000     -88.967148     -2420.9192
   2   2.0000     -10.331665      -281.1389
   3   2.0000     -10.326117      -280.9879
   4   2.0000     -10.317005      -280.7400
   5   2.0000     -10.314904      -280.6828
   6   2.0000     -10.303320      -280.3676
   7   2.0000     -10.300321      -280.2860
   8   2.0000     -10.296343      -280.1777
   9   2.0000     -10.295555      -280.1563
  10   2.0000     -10.291946      -280.0581
  11   2.0000     -10.287426      -279.9351
  12   2.0000     -10.286312      -279.9048
  13   2.0000     -10.284246      -279.8486
  14   2.0000     -10.275949      -279.6228
  15   2.0000     -10.270611      -279.4775
  16   2.0000      -8.080940      -219.8936
  17   2.0000      -8.080463      -219.8806
  18   2.0000      -6.039538      -164.3442
  19   2.0000      -6.039117      -164.3327
  20   2.0000      -6.035826      -164.2432
  21   2.0000      -6.035248      -164.2275
  22   2.0000      -6.031423      -164.1234
  23   2.0000      -6.031059      -164.1135
  24   2.0000      -1.002075       -27.2678
  25   2.0000      -0.979118       -26.6432
  26   2.0000      -0.921090       -25.0641
  27   2.0000      -0.910420       -24.7738
  28   2.0000      -0.866675       -23.5834
  29   2.0000      -0.854950       -23.2644
  30   2.0000      -0.841474       -22.8977
  31   2.0000      -0.819459       -22.2986
  32   2.0000      -0.786854       -21.4114
  33   2.0000      -0.773434       -21.0462
  34   2.0000      -0.710755       -19.3406
  35   2.0000      -0.703718       -19.1491
  36   2.0000      -0.696739       -18.9592
  37   2.0000      -0.662265       -18.0212
  38   2.0000      -0.638794       -17.3825
  39   2.0000      -0.621709       -16.9176
  40   2.0000      -0.589779       -16.0487
  41   2.0000      -0.580579       -15.7983
  42   2.0000      -0.562387       -15.3033
  43   2.0000      -0.559880       -15.2351
  44   2.0000      -0.537356       -14.6222
  45   2.0000      -0.535411       -14.5693
  46   2.0000      -0.520997       -14.1770
  47   2.0000      -0.514952       -14.0125
  48   2.0000      -0.505164       -13.7462
  49   2.0000      -0.495360       -13.4794
  50   2.0000      -0.494064       -13.4442
  51   2.0000      -0.480979       -13.0881
  52   2.0000      -0.469838       -12.7849
  53   2.0000      -0.464732       -12.6460
  54   2.0000      -0.456562       -12.4237
  55   2.0000      -0.453043       -12.3279
  56   2.0000      -0.445402       -12.1200
  57   2.0000      -0.441669       -12.0184
  58   2.0000      -0.440498       -11.9866
  59   2.0000      -0.427499       -11.6328
  60   2.0000      -0.421961       -11.4821
  61   2.0000      -0.415090       -11.2952
  62   2.0000      -0.404027       -10.9941
  63   2.0000      -0.346276        -9.4226
  64   2.0000      -0.334133        -9.0922
  65   2.0000      -0.329356        -8.9622
  66   2.0000      -0.293221        -7.9789
  67   0.0000       0.030537         0.8310
  68   0.0000       0.068938         1.8759
  69   0.0000       0.103987         2.8296
  70   0.0000       0.115445         3.1414
  71   0.0000       0.123887         3.3711

MULLIKEN ATOMIC CHARGES
-----------------------
   0 S :    0.103284
   1 C :   -0.128272
   2 C :   -0.080684
   3 C :    0.022056
   4 C :   -0.135383
   5 H :   -0.003139
   6 C :    0.109665
   7 H :    0.025831
   8 H :    0.014011
   9 C :   -0.115170
  10 H :    0.032484
  11 H :    0.022246
  12 C :   -0.067354
  13 H :    0.044663
  14 H :    0.037019
  15 H :    0.048671
  16 S :    0.103209
  17 C :   -0.057711
  18 C :   -0.067645
  19 C :   -0.071553
  20 C :   -0.173036
  21 H :    0.035299
  22 C :    0.123357
  23 H :    0.043896
  24 H :    0.004179
  25 C :   -0.074109
  26 H :    0.021843
  27 H :    0.006439
  28 C :    0.030396
  29 H :    0.000314
  30 H :    0.029820
  31 H :    0.032946
  32 H :    0.045627
  33 H :    0.036798
Sum of atomic charges:    0.0000000

LOEWDIN ATOMIC CHARGES
----------------------
   0 S :    0.373270
   1 C :   -0.181663
   2 C :   -0.059000
   3 C :   -0.065391
   4 C :   -0.183611
   5 H :    0.024367
   6 C :   -0.022620
   7 H :    0.025930
   8 H :    0.026722
   9 C :   -0.044873
  10 H :    0.025228
  11 H :    0.018915
  12 C :   -0.071961
  13 H :    0.025972
  14 H :    0.026171
  15 H :    0.035195
  16 S :    0.371980
  17 C :   -0.162129
  18 C :   -0.073048
  19 C :   -0.046571
  20 C :   -0.189018
  21 H :    0.038318
  22 C :   -0.016705
  23 H :    0.033642
  24 H :    0.020149
  25 C :   -0.031269
  26 H :    0.029617
  27 H :    0.006704
  28 C :   -0.054563
  29 H :    0.014025
  30 H :    0.023378
  31 H :    0.032752
  32 H :    0.029547
  33 H :    0.020541

  Mayer bond orders larger than 0.100000
B(  0-S ,  1-C ) :   1.1083 B(  0-S ,  4-C ) :   1.1457 B(  1-C ,  2-C ) :   1.6247
B(  1-C , 32-H ) :   0.9683 B(  2-C ,  3-C ) :   1.2138 B(  2-C ,  6-C ) :   1.0354
B(  3-C ,  4-C ) :   1.5759 B(  3-C ,  5-H ) :   1.0013 B(  4-C , 20-C ) :   1.0338
B(  6-C ,  7-H ) :   0.9288 B(  6-C ,  8-H ) :   0.9405 B(  6-C ,  9-C ) :   1.0560
B(  9-C , 10-H ) :   0.9619 B(  9-C , 11-H ) :   0.9533 B(  9-C , 12-C ) :   1.0701
B( 12-C , 13-H ) :   0.9710 B( 12-C , 14-H ) :   0.9756 B( 12-C , 15-H ) :   0.9731
B( 16-S , 17-C ) :   1.1231 B( 16-S , 20-C ) :   1.1155 B( 17-C , 18-C ) :   1.6902
B( 17-C , 33-H ) :   0.9616 B( 18-C , 19-C ) :   1.1931 B( 18-C , 21-H ) :   0.9758
B( 19-C , 20-C ) :   1.6612 B( 19-C , 22-C ) :   1.0114 B( 22-C , 23-H ) :   0.9312
B( 22-C , 24-H ) :   0.9170 B( 22-C , 25-C ) :   1.0716 B( 25-C , 26-H ) :   0.9479
B( 25-C , 27-H ) :   0.9601 B( 25-C , 28-C ) :   1.0942 B( 28-C , 29-H ) :   0.9662
B( 28-C , 30-H ) :   0.9720 B( 28-C , 31-H ) :   0.9691

Dispersion correction           -0.015338786
FINAL SINGLE POINT ENERGY     -1339.854759867106

DIPOLE MOMENT
-------------
                                X             Y             Z
Electronic contribution:     -0.75358      27.33150      15.64211
Nuclear contribution   :      0.73968     -28.08505     -15.81797
                        -----------------------------------------
Total Dipole Moment    :     -0.01390      -0.75354      -0.17586
                        -----------------------------------------
Magnitude (a.u.)       :      0.77391
Magnitude (Debye)      :      1.96714

Rotational constants in cm-1:     0.016582     0.010873     0.007097
Rotational constants in MHz :   497.102749   325.951901   212.764614

                             ****ORCA TERMINATED NORMALLY****
TOTAL RUN TIME: 0 days 0 hours 0 minutes 36 seconds 284 msec
