                         Program Version 4.2.1 -  RELEASE  -
|  1> ! wB97X-D3 SP def2-SVP
|  2> %pal
|  3> nprocs 16
|  4> end
|  5>
|  6> * xyz 0 1
|  7> S 	 6.54067 	 -13.36 	 55.6068
|  8> C 	 6.74497 	 -12.8624 	 57.2352
|  9> C 	 6.03231 	 -13.7828 	 58.0451
| 10> C 	 5.19935 	 -14.7697 	 57.3337
| 11> C 	 5.41177 	 -14.5841 	 55.9713
| 12> H 	 4.53583 	 -15.4537 	 57.8308
| 13> C 	 6.12983 	 -13.7831 	 59.5528
| 14> H 	 5.21856 	 -13.6381 	 60.0624
| 15> H 	 6.79005 	 -12.9631 	 59.8306
| 16> C 	 6.85263 	 -14.9375 	 60.2147
| 17> H 	 6.20334 	 -15.8491 	 60.0181
| 18> H 	 7.70123 	 -15.1011 	 59.6162
| 19> C 	 7.15001 	 -14.8066 	 61.6491
| 20> H 	 7.2728 	 -15.7832 	 62.2015
| 21> H 	 7.74814 	 -13.9775 	 61.9939
| 22> H 	 6.20899 	 -14.4832 	 62.1128
| 23> S 	 3.80024 	 -14.7943 	 53.6826
| 24> C 	 3.6656 	 -16.3589 	 52.8849
| 25> C 	 4.30079 	 -17.3569 	 53.6271
| 26> C 	 5.0396 	 -16.8319 	 54.7721
| 27> C 	 4.88006 	 -15.4716 	 54.9347
| 28> H 	 4.18629 	 -18.3491 	 53.3312
| 29> C 	 5.8163 	 -17.7492 	 55.6865
| 30> H 	 5.28833 	 -18.7281 	 55.9643
| 31> H 	 5.90078 	 -17.2248 	 56.6548
| 32> C 	 7.23615 	 -17.9521 	 55.1474
| 33> H 	 7.24781 	 -18.5527 	 54.2339
| 34> H 	 7.68855 	 -18.563 	 55.9651
| 35> C 	 8.05758 	 -16.6934 	 55.0763
| 36> H 	 7.72846 	 -15.9273 	 54.3042
| 37> H 	 9.14726 	 -16.8453 	 54.9883
| 38> H 	 7.88407 	 -16.1642 	 55.9863
| 39> H 	 7.31083 	 -12.0924 	 57.6141
| 40> H 	 2.89076 	 -16.5121 	 52.1258
| 41> *
| 42>
| 43>                          ****END OF INPUT****

CARTESIAN COORDINATES (ANGSTROEM)
---------------------------------
  S      6.540670  -13.360000   55.606800
  C      6.744970  -12.862400   57.235200
  C      6.032310  -13.782800   58.045100
  C      5.199350  -14.769700   57.333700
  C      5.411770  -14.584100   55.971300
  H      4.535830  -15.453700   57.830800
  C      6.129830  -13.783100   59.552800
  H      5.218560  -13.638100   60.062400
  H      6.790050  -12.963100   59.830600
  C      6.852630  -14.937500   60.214700
  H      6.203340  -15.849100   60.018100
  H      7.701230  -15.101100   59.616200
  C      7.150010  -14.806600   61.649100
  H      7.272800  -15.783200   62.201500
  H      7.748140  -13.977500   61.993900
  H      6.208990  -14.483200   62.112800
  S      3.800240  -14.794300   53.682600
  C      3.665600  -16.358900   52.884900
  C      4.300790  -17.356900   53.627100
  C      5.039600  -16.831900   54.772100
  C      4.880060  -15.471600   54.934700
  H      4.186290  -18.349100   53.331200
  C      5.816300  -17.749200   55.686500
  H      5.288330  -18.728100   55.964300
  H      5.900780  -17.224800   56.654800
  C      7.236150  -17.952100   55.147400
  H      7.247810  -18.552700   54.233900
  H      7.688550  -18.563000   55.965100
  C      8.057580  -16.693400   55.076300
  H      7.728460  -15.927300   54.304200
  H      9.147260  -16.845300   54.988300
  H      7.884070  -16.164200   55.986300
  H      7.310830  -12.092400   57.614100
  H      2.890760  -16.512100   52.125800

 Total Charge           Charge          ....    0
 Multiplicity           Mult            ....    1
 Number of Electrons    NEL             ....  134
 Basis Dimension        Dim             ....  322

ORBITAL ENERGIES
----------------

  NO   OCC          E(Eh)            E(eV)
   0   2.0000     -88.970685     -2421.0154
   1   2.0000     -88.962884     -2420.8032
   2   2.0000     -10.331228      -281.1270
   3   2.0000     -10.327646      -281.0295
   4   2.0000     -10.321421      -280.8601
   5   2.0000     -10.313491      -280.6444
   6   2.0000     -10.308635      -280.5122
   7   2.0000     -10.306142      -280.4444
   8   2.0000     -10.301802      -280.3263
   9   2.0000     -10.295828      -280.1637
  10   2.0000     -10.295164      -280.1457
  11   2.0000     -10.284707      -279.8611
  12   2.0000     -10.282765      -279.8083
  13   2.0000     -10.281220      -279.7662
  14   2.0000     -10.280582      -279.7489
  15   2.0000     -10.271221      -279.4941
  16   2.0000      -8.086187      -220.0363
  17   2.0000      -8.077100      -219.7891
  18   2.0000      -6.044576      -164.4813
  19   2.0000      -6.040407      -164.3678
  20   2.0000      -6.037172      -164.2798
  21   2.0000      -6.035658      -164.2386
  22   2.0000      -6.031683      -164.1305
  23   2.0000      -6.027846      -164.0260
  24   2.0000      -1.008577       -27.4448
  25   2.0000      -0.980741       -26.6873
  26   2.0000      -0.921255       -25.0686
  27   2.0000      -0.909904       -24.7597
  28   2.0000      -0.871031       -23.7020
  29   2.0000      -0.853776       -23.2324
  30   2.0000      -0.841783       -22.9061
  31   2.0000      -0.815635       -22.1946
  32   2.0000      -0.783420       -21.3179
  33   2.0000      -0.771012       -20.9803
  34   2.0000      -0.706689       -19.2300
  35   2.0000      -0.697479       -18.9794
  36   2.0000      -0.690118       -18.7791
  37   2.0000      -0.659243       -17.9389
  38   2.0000      -0.649993       -17.6872
  39   2.0000      -0.622746       -16.9458
  40   2.0000      -0.596633       -16.2352
  41   2.0000      -0.578302       -15.7364
  42   2.0000      -0.568613       -15.4727
  43   2.0000      -0.551060       -14.9951
  44   2.0000      -0.539657       -14.6848
  45   2.0000      -0.523246       -14.2382
  46   2.0000      -0.522008       -14.2046
  47   2.0000      -0.512466       -13.9449
  48   2.0000      -0.509424       -13.8621
  49   2.0000      -0.503446       -13.6995
  50   2.0000      -0.492608       -13.4046
  51   2.0000      -0.480433       -13.0732
  52   2.0000      -0.475591       -12.9415
  53   2.0000      -0.465801       -12.6751
  54   2.0000      -0.456432       -12.4201
  55   2.0000      -0.449865       -12.2415
  56   2.0000      -0.437533       -11.9059
  57   2.0000      -0.435341       -11.8462
  58   2.0000      -0.426699       -11.6111
  59   2.0000      -0.422050       -11.4846
  60   2.0000      -0.415236       -11.2992
  61   2.0000      -0.409296       -11.1375
  62   2.0000      -0.404862       -11.0169
  63   2.0000      -0.341601        -9.2954
  64   2.0000      -0.329358        -8.9623
  65   2.0000      -0.326009        -8.8712
  66   2.0000      -0.302171        -8.2225
  67   0.0000       0.034502         0.9389
  68   0.0000       0.063015         1.7147
  69   0.0000       0.107676         2.9300
  70   0.0000       0.114473         3.1150
  71   0.0000       0.127530         3.4703

MULLIKEN ATOMIC CHARGES
-----------------------
   0 S :    0.137832
   1 C :   -0.069176
   2 C :   -0.134993
   3 C :    0.061250
   4 C :   -0.157786
   5 H :    0.026026
   6 C :    0.065475
   7 H :    0.018513
   8 H :   -0.001780
   9 C :   -0.061039
  10 H :    0.019090
  11 H :    0.013261
  12 C :   -0.025826
  13 H :    0.048644
  14 H :    0.032012
  15 H :    0.000824
  16 S :    0.094138
  17 C :   -0.100147
  18 C :   -0.015069
  19 C :   -0.019016
  20 C :   -0.174665
  21 H :    0.001295
  22 C :    0.036944
  23 H :    0.046445
  24 H :    0.012077
  25 C :   -0.060431
  26 H :    0.034262
  27 H :    0.030000
  28 C :   -0.055984
  29 H :    0.045245
  30 H :    0.042099
  31 H :    0.018815
  32 H :    0.019772
  33 H :    0.071895
Sum of atomic charges:    0.0000000

LOEWDIN ATOMIC CHARGES
----------------------
   0 S :    0.458670
   1 C :   -0.204736
   2 C :   -0.051050
   3 C :   -0.057073
   4 C :   -0.208156
   5 H :    0.034155
   6 C :   -0.036137
   7 H :    0.020120
   8 H :    0.026213
   9 C :   -0.045249
  10 H :    0.025377
  11 H :    0.014396
  12 C :   -0.077841
  13 H :    0.041468
  14 H :    0.026470
  15 H :    0.027272
  16 S :    0.381030
  17 C :   -0.179825
  18 C :   -0.060684
  19 C :   -0.049112
  20 C :   -0.196698
  21 H :    0.021379
  22 C :   -0.040937
  23 H :    0.040540
  24 H :    0.028441
  25 C :   -0.041457
  26 H :    0.021095
  27 H :    0.029960
  28 C :   -0.073634
  29 H :    0.028260
  30 H :    0.030163
  31 H :    0.019567
  32 H :    0.015548
  33 H :    0.032463

  Mayer bond orders larger than 0.100000
B(  0-S ,  1-C ) :   1.1393 B(  0-S ,  4-C ) :   1.2002 B(  1-C ,  2-C ) :   1.5792
B(  1-C , 32-H ) :   0.9831 B(  2-C ,  3-C ) :   1.2393 B(  2-C ,  6-C ) :   1.0500
B(  3-C ,  4-C ) :   1.5318 B(  3-C ,  5-H ) :   0.9974 B(  4-C , 20-C ) :   1.0097
B(  6-C ,  7-H ) :   0.9350 B(  6-C ,  8-H ) :   0.9392 B(  6-C ,  9-C ) :   1.0609
B(  9-C , 10-H ) :   0.9467 B(  9-C , 11-H ) :   0.9526 B(  9-C , 12-C ) :   1.0953
B( 12-C , 13-H ) :   0.9681 B( 12-C , 14-H ) :   0.9703 B( 12-C , 15-H ) :   0.9585
B( 16-S , 17-C ) :   1.1531 B( 16-S , 20-C ) :   1.1320 B( 17-C , 18-C ) :   1.6163
B( 17-C , 33-H ) :   0.9633 B( 18-C , 19-C ) :   1.2090 B( 18-C , 21-H ) :   1.0011
B( 19-C , 20-C ) :   1.6179 B( 19-C , 22-C ) :   1.0399 B( 22-C , 23-H ) :   0.9401
B( 22-C , 24-H ) :   0.9266 B( 22-C , 25-C ) :   1.0733 B( 25-C , 26-H ) :   0.9582
B( 25-C , 27-H ) :   0.9511 B( 25-C , 28-C ) :   1.0791 B( 28-C , 29-H ) :   0.9678
B( 28-C , 30-H ) :   0.9725 B( 28-C , 31-H ) :   0.9672

Dispersion correction           -0.015857737
FINAL SINGLE POINT ENERGY     -1339.869502421000

DIPOLE MOMENT
-------------
                                X             Y             Z
Electronic contribution:    -12.58416      11.31220     -22.13868
Nuclear contribution   :     12.61199     -11.72884      22.71294
                        -----------------------------------------
Total Dipole Moment    :      0.02783      -0.41665       0.57426
                        -----------------------------------------
Magnitude (a.u.)       :      0.71003
Magnitude (Debye)      :      1.80476

Rotational constants in cm-1:     0.022067     0.008511     0.007447
Rotational constants in MHz :   661.547373   255.143780   223.256486

                             ****ORCA TERMINATED NORMALLY****
TOTAL RUN TIME: 0 days 0 hours 0 minutes 30 seconds 279 msec
