                         Program Version 4.2.1 -  RELEASE  -
|  1> ! wB97X-D3 SP def2-SVP
|  2> %pal
|  3> nprocs 16
|  4> end
|  5>
|  6> * xyz 0 1
|  7> S 	 -77.3078 	 46.6278 	 124.92
|  8> C 	 -77.237 	 44.9089 	 124.784
|  9> C 	 -75.9534 	 44.3944 	 124.857
| 10> C 	 -74.9764 	 45.3838 	 124.975
| 11> C 	 -75.5036 	 46.6816 	 125.025
| 12> H 	 -73.938 	 45.1538 	 125.142
| 13> C 	 -75.5643 	 42.9321 	 124.835
| 14> H 	 -76.464 	 42.2462 	 124.896
| 15> H 	 -74.9052 	 42.7566 	 125.677
| 16> C 	 -74.7448 	 42.5392 	 123.648
| 17> H 	 -73.7617 	 42.9836 	 123.748
| 18> H 	 -74.6592 	 41.4337 	 123.639
| 19> C 	 -75.4798 	 42.8567 	 122.301
| 20> H 	 -74.8348 	 42.6696 	 121.466
| 21> H 	 -76.2922 	 42.1969 	 122.103
| 22> H 	 -75.9685 	 43.7707 	 122.237
| 23> S 	 -75.4208 	 49.0666 	 126.216
| 24> C 	 -73.977 	 50.0103 	 126.134
| 25> C 	 -73.0176 	 49.4956 	 125.328
| 26> C 	 -73.4217 	 48.2004 	 124.841
| 27> C 	 -74.702 	 47.872 	 125.186
| 28> H 	 -72.2126 	 50.0471 	 125.082
| 29> C 	 -72.3987 	 47.3314 	 123.98
| 30> H 	 -71.963 	 48.0121 	 123.269
| 31> H 	 -72.9473 	 46.7186 	 123.329
| 32> C 	 -71.2735 	 46.431 	 124.711
| 33> H 	 -71.6969 	 45.7082 	 125.409
| 34> H 	 -70.5933 	 46.9148 	 125.357
| 35> C 	 -70.3088 	 45.7555 	 123.733
| 36> H 	 -69.9994 	 44.7981 	 124.086
| 37> H 	 -69.5091 	 46.4355 	 123.622
| 38> H 	 -70.5977 	 45.691 	 122.682
| 39> H 	 -78.2037 	 44.4077 	 124.925
| 40> H 	 -73.8025 	 50.8505 	 126.712
| 41> *
| 42>
| 43>                          ****END OF INPUT****

CARTESIAN COORDINATES (ANGSTROEM)
---------------------------------
  S    -77.307800   46.627800  124.920000
  C    -77.237000   44.908900  124.784000
  C    -75.953400   44.394400  124.857000
  C    -74.976400   45.383800  124.975000
  C    -75.503600   46.681600  125.025000
  H    -73.938000   45.153800  125.142000
  C    -75.564300   42.932100  124.835000
  H    -76.464000   42.246200  124.896000
  H    -74.905200   42.756600  125.677000
  C    -74.744800   42.539200  123.648000
  H    -73.761700   42.983600  123.748000
  H    -74.659200   41.433700  123.639000
  C    -75.479800   42.856700  122.301000
  H    -74.834800   42.669600  121.466000
  H    -76.292200   42.196900  122.103000
  H    -75.968500   43.770700  122.237000
  S    -75.420800   49.066600  126.216000
  C    -73.977000   50.010300  126.134000
  C    -73.017600   49.495600  125.328000
  C    -73.421700   48.200400  124.841000
  C    -74.702000   47.872000  125.186000
  H    -72.212600   50.047100  125.082000
  C    -72.398700   47.331400  123.980000
  H    -71.963000   48.012100  123.269000
  H    -72.947300   46.718600  123.329000
  C    -71.273500   46.431000  124.711000
  H    -71.696900   45.708200  125.409000
  H    -70.593300   46.914800  125.357000
  C    -70.308800   45.755500  123.733000
  H    -69.999400   44.798100  124.086000
  H    -69.509100   46.435500  123.622000
  H    -70.597700   45.691000  122.682000
  H    -78.203700   44.407700  124.925000
  H    -73.802500   50.850500  126.712000

 Total Charge           Charge          ....    0
 Multiplicity           Mult            ....    1
 Number of Electrons    NEL             ....  134
 Basis Dimension        Dim             ....  322

ORBITAL ENERGIES
----------------

  NO   OCC          E(Eh)            E(eV)
   0   2.0000     -88.967963     -2420.9414
   1   2.0000     -88.962541     -2420.7938
   2   2.0000     -10.333212      -281.1810
   3   2.0000     -10.322248      -280.8826
   4   2.0000     -10.312436      -280.6157
   5   2.0000     -10.307120      -280.4710
   6   2.0000     -10.306899      -280.4650
   7   2.0000     -10.298731      -280.2427
   8   2.0000     -10.297437      -280.2075
   9   2.0000     -10.291464      -280.0450
  10   2.0000     -10.290853      -280.0283
  11   2.0000     -10.290537      -280.0197
  12   2.0000     -10.286763      -279.9170
  13   2.0000     -10.284602      -279.8582
  14   2.0000     -10.273618      -279.5594
  15   2.0000     -10.262314      -279.2518
  16   2.0000      -8.082219      -219.9284
  17   2.0000      -8.078558      -219.8287
  18   2.0000      -6.040757      -164.3774
  19   2.0000      -6.036987      -164.2748
  20   2.0000      -6.036864      -164.2714
  21   2.0000      -6.032997      -164.1662
  22   2.0000      -6.032939      -164.1646
  23   2.0000      -6.029217      -164.0633
  24   2.0000      -1.009865       -27.4798
  25   2.0000      -0.986045       -26.8317
  26   2.0000      -0.914418       -24.8826
  27   2.0000      -0.899346       -24.4724
  28   2.0000      -0.873571       -23.7711
  29   2.0000      -0.856726       -23.3127
  30   2.0000      -0.846046       -23.0221
  31   2.0000      -0.812901       -22.1202
  32   2.0000      -0.786143       -21.3920
  33   2.0000      -0.776076       -21.1181
  34   2.0000      -0.712688       -19.3932
  35   2.0000      -0.704936       -19.1823
  36   2.0000      -0.693819       -18.8798
  37   2.0000      -0.671342       -18.2681
  38   2.0000      -0.639495       -17.4016
  39   2.0000      -0.625471       -17.0199
  40   2.0000      -0.596224       -16.2241
  41   2.0000      -0.566409       -15.4128
  42   2.0000      -0.561141       -15.2694
  43   2.0000      -0.553596       -15.0641
  44   2.0000      -0.546288       -14.8652
  45   2.0000      -0.528224       -14.3737
  46   2.0000      -0.523270       -14.2389
  47   2.0000      -0.505985       -13.7686
  48   2.0000      -0.501918       -13.6579
  49   2.0000      -0.495936       -13.4951
  50   2.0000      -0.491468       -13.3735
  51   2.0000      -0.481564       -13.1040
  52   2.0000      -0.469120       -12.7654
  53   2.0000      -0.465896       -12.6777
  54   2.0000      -0.457865       -12.4591
  55   2.0000      -0.454073       -12.3560
  56   2.0000      -0.448245       -12.1974
  57   2.0000      -0.439360       -11.9556
  58   2.0000      -0.433861       -11.8060
  59   2.0000      -0.427640       -11.6367
  60   2.0000      -0.418888       -11.3985
  61   2.0000      -0.414863       -11.2890
  62   2.0000      -0.412114       -11.2142
  63   2.0000      -0.358197        -9.7470
  64   2.0000      -0.335277        -9.1234
  65   2.0000      -0.330570        -8.9953
  66   2.0000      -0.282608        -7.6902
  67   0.0000       0.025260         0.6874
  68   0.0000       0.076534         2.0826
  69   0.0000       0.107238         2.9181
  70   0.0000       0.122098         3.3225
  71   0.0000       0.128444         3.4952

MULLIKEN ATOMIC CHARGES
-----------------------
   0 S :    0.103529
   1 C :   -0.151209
   2 C :   -0.056205
   3 C :    0.003887
   4 C :   -0.114928
   5 H :   -0.006299
   6 C :    0.070847
   7 H :    0.027553
   8 H :    0.027589
   9 C :   -0.087333
  10 H :    0.030558
  11 H :    0.036655
  12 C :   -0.019584
  13 H :    0.024277
  14 H :    0.005631
  15 H :    0.029884
  16 S :    0.097757
  17 C :   -0.054195
  18 C :    0.018048
  19 C :   -0.068767
  20 C :   -0.126862
  21 H :   -0.025401
  22 C :    0.087035
  23 H :    0.016040
  24 H :    0.011361
  25 C :   -0.046569
  26 H :    0.023706
  27 H :    0.013726
  28 C :   -0.038387
  29 H :    0.034336
  30 H :    0.018551
  31 H :    0.024122
  32 H :    0.062919
  33 H :    0.027727
Sum of atomic charges:    0.0000000

LOEWDIN ATOMIC CHARGES
----------------------
   0 S :    0.390078
   1 C :   -0.210483
   2 C :   -0.063765
   3 C :   -0.058591
   4 C :   -0.172156
   5 H :    0.029467
   6 C :   -0.033760
   7 H :    0.033827
   8 H :    0.031311
   9 C :   -0.037785
  10 H :    0.019308
  11 H :    0.031036
  12 C :   -0.062725
  13 H :    0.024076
  14 H :    0.022521
  15 H :    0.017318
  16 S :    0.414146
  17 C :   -0.170365
  18 C :   -0.053420
  19 C :   -0.052125
  20 C :   -0.199052
  21 H :    0.014782
  22 C :   -0.021562
  23 H :    0.028478
  24 H :    0.021580
  25 C :   -0.036415
  26 H :    0.019741
  27 H :    0.020231
  28 C :   -0.062717
  29 H :    0.025310
  30 H :    0.022162
  31 H :    0.025820
  32 H :    0.029527
  33 H :    0.014200

  Mayer bond orders larger than 0.100000
B(  0-S ,  1-C ) :   1.1412 B(  0-S ,  4-C ) :   1.1459 B(  1-C ,  2-C ) :   1.5819
B(  1-C ,  4-C ) :   0.1024 B(  1-C , 32-H ) :   0.9626 B(  2-C ,  3-C ) :   1.2654
B(  2-C ,  6-C ) :   1.0295 B(  3-C ,  4-C ) :   1.5433 B(  3-C ,  5-H ) :   0.9962
B(  4-C , 20-C ) :   1.0657 B(  6-C ,  7-H ) :   0.9435 B(  6-C ,  8-H ) :   0.9351
B(  6-C ,  9-C ) :   1.0844 B(  9-C , 10-H ) :   0.9559 B(  9-C , 11-H ) :   0.9560
B(  9-C , 12-C ) :   1.0661 B( 12-C , 13-H ) :   0.9744 B( 12-C , 14-H ) :   0.9700
B( 12-C , 15-H ) :   0.9770 B( 16-S , 17-C ) :   1.1545 B( 16-S , 20-C ) :   1.1272
B( 17-C , 18-C ) :   1.6308 B( 17-C , 33-H ) :   0.9720 B( 18-C , 19-C ) :   1.2107
B( 18-C , 21-H ) :   1.0131 B( 19-C , 20-C ) :   1.6398 B( 19-C , 22-C ) :   1.0209
B( 22-C , 23-H ) :   0.9417 B( 22-C , 24-H ) :   0.9379 B( 22-C , 25-C ) :   1.0415
B( 25-C , 26-H ) :   0.9630 B( 25-C , 27-H ) :   0.9598 B( 25-C , 28-C ) :   1.0606
B( 28-C , 29-H ) :   0.9759 B( 28-C , 30-H ) :   0.9810 B( 28-C , 31-H ) :   0.9773

Dispersion correction           -0.014586788
FINAL SINGLE POINT ENERGY     -1339.855869329418

DIPOLE MOMENT
-------------
                                X             Y             Z
Electronic contribution:    -20.15262      21.61063      12.33407
Nuclear contribution   :     20.79082     -21.94208     -12.37589
                        -----------------------------------------
Total Dipole Moment    :      0.63820      -0.33145      -0.04182
                        -----------------------------------------
Magnitude (a.u.)       :      0.72036
Magnitude (Debye)      :      1.83100

Rotational constants in cm-1:     0.016289     0.010708     0.006891
Rotational constants in MHz :   488.328068   321.028580   206.573616

                             ****ORCA TERMINATED NORMALLY****
TOTAL RUN TIME: 0 days 0 hours 0 minutes 35 seconds 109 msec
