                         Program Version 4.2.1 -  RELEASE  -
|  1> ! wB97X-D3 SP def2-SVP
|  2> %pal
|  3> nprocs 16
|  4> end
|  5>
|  6> * xyz 0 1
|  7> S 	 4.44836 	 19.1073 	 50.5552
|  8> C 	 4.11299 	 18.3481 	 52.0566
|  9> C 	 4.80848 	 17.1787 	 52.2189
| 10> C 	 5.48387 	 16.7694 	 51.0065
| 11> C 	 5.37655 	 17.7429 	 49.9966
| 12> H 	 5.98983 	 15.8665 	 50.8408
| 13> C 	 4.71639 	 16.2564 	 53.4526
| 14> H 	 4.20083 	 16.7788 	 54.245
| 15> H 	 5.74006 	 16.0422 	 53.7021
| 16> C 	 3.98966 	 14.9463 	 53.3142
| 17> H 	 2.94001 	 15.0299 	 53.1539
| 18> H 	 4.25664 	 14.337 	 52.4569
| 19> C 	 4.22882 	 14.0498 	 54.5976
| 20> H 	 3.76761 	 13.0618 	 54.4325
| 21> H 	 5.30515 	 14.1221 	 54.7594
| 22> H 	 3.73867 	 14.5664 	 55.3541
| 23> S 	 7.69659 	 17.4595 	 48.6224
| 24> C 	 7.68521 	 17.3725 	 46.9079
| 25> C 	 6.42535 	 17.5631 	 46.3954
| 26> C 	 5.43548 	 17.7788 	 47.4119
| 27> C 	 5.98867 	 17.7438 	 48.7028
| 28> H 	 6.28238 	 17.5131 	 45.36
| 29> C 	 3.95952 	 17.9029 	 47.0282
| 30> H 	 3.48066 	 17.6365 	 47.9858
| 31> H 	 3.73411 	 17.0798 	 46.4064
| 32> C 	 3.35229 	 19.3199 	 46.7153
| 33> H 	 2.27389 	 19.4334 	 46.7306
| 34> H 	 3.63369 	 19.5455 	 45.6606
| 35> C 	 3.84775 	 20.4281 	 47.6118
| 36> H 	 3.30109 	 20.3436 	 48.5382
| 37> H 	 3.69079 	 21.4432 	 47.23
| 38> H 	 4.91047 	 20.3812 	 47.7771
| 39> H 	 3.42089 	 18.6707 	 52.729
| 40> H 	 8.57384 	 17.373 	 46.3429
| 41> *
| 42>
| 43>                          ****END OF INPUT****

CARTESIAN COORDINATES (ANGSTROEM)
---------------------------------
  S      4.448360   19.107300   50.555200
  C      4.112990   18.348100   52.056600
  C      4.808480   17.178700   52.218900
  C      5.483870   16.769400   51.006500
  C      5.376550   17.742900   49.996600
  H      5.989830   15.866500   50.840800
  C      4.716390   16.256400   53.452600
  H      4.200830   16.778800   54.245000
  H      5.740060   16.042200   53.702100
  C      3.989660   14.946300   53.314200
  H      2.940010   15.029900   53.153900
  H      4.256640   14.337000   52.456900
  C      4.228820   14.049800   54.597600
  H      3.767610   13.061800   54.432500
  H      5.305150   14.122100   54.759400
  H      3.738670   14.566400   55.354100
  S      7.696590   17.459500   48.622400
  C      7.685210   17.372500   46.907900
  C      6.425350   17.563100   46.395400
  C      5.435480   17.778800   47.411900
  C      5.988670   17.743800   48.702800
  H      6.282380   17.513100   45.360000
  C      3.959520   17.902900   47.028200
  H      3.480660   17.636500   47.985800
  H      3.734110   17.079800   46.406400
  C      3.352290   19.319900   46.715300
  H      2.273890   19.433400   46.730600
  H      3.633690   19.545500   45.660600
  C      3.847750   20.428100   47.611800
  H      3.301090   20.343600   48.538200
  H      3.690790   21.443200   47.230000
  H      4.910470   20.381200   47.777100
  H      3.420890   18.670700   52.729000
  H      8.573840   17.373000   46.342900

 Total Charge           Charge          ....    0
 Multiplicity           Mult            ....    1
 Number of Electrons    NEL             ....  134
 Basis Dimension        Dim             ....  322

ORBITAL ENERGIES
----------------

  NO   OCC          E(Eh)            E(eV)
   0   2.0000     -88.965067     -2420.8625
   1   2.0000     -88.964949     -2420.8593
   2   2.0000     -10.328017      -281.0396
   3   2.0000     -10.324041      -280.9314
   4   2.0000     -10.311027      -280.5773
   5   2.0000     -10.306465      -280.4532
   6   2.0000     -10.302325      -280.3405
   7   2.0000     -10.300636      -280.2946
   8   2.0000     -10.294090      -280.1164
   9   2.0000     -10.291067      -280.0342
  10   2.0000     -10.289562      -279.9932
  11   2.0000     -10.288699      -279.9697
  12   2.0000     -10.286872      -279.9200
  13   2.0000     -10.280034      -279.7339
  14   2.0000     -10.276826      -279.6466
  15   2.0000     -10.264888      -279.3218
  16   2.0000      -8.080605      -219.8844
  17   2.0000      -8.079953      -219.8667
  18   2.0000      -6.038945      -164.3280
  19   2.0000      -6.038350      -164.3118
  20   2.0000      -6.034878      -164.2174
  21   2.0000      -6.034325      -164.2023
  22   2.0000      -6.031601      -164.1282
  23   2.0000      -6.030896      -164.1090
  24   2.0000      -1.010018       -27.4840
  25   2.0000      -0.987043       -26.8588
  26   2.0000      -0.913224       -24.8501
  27   2.0000      -0.903791       -24.5934
  28   2.0000      -0.874962       -23.8089
  29   2.0000      -0.850331       -23.1387
  30   2.0000      -0.847217       -23.0540
  31   2.0000      -0.814406       -22.1611
  32   2.0000      -0.784953       -21.3596
  33   2.0000      -0.770460       -20.9653
  34   2.0000      -0.710979       -19.3467
  35   2.0000      -0.701865       -19.0987
  36   2.0000      -0.691363       -18.8130
  37   2.0000      -0.666494       -18.1362
  38   2.0000      -0.647354       -17.6154
  39   2.0000      -0.618751       -16.8371
  40   2.0000      -0.591234       -16.0883
  41   2.0000      -0.576017       -15.6742
  42   2.0000      -0.566727       -15.4214
  43   2.0000      -0.554434       -15.0869
  44   2.0000      -0.553029       -15.0487
  45   2.0000      -0.529900       -14.4193
  46   2.0000      -0.518643       -14.1130
  47   2.0000      -0.511917       -13.9300
  48   2.0000      -0.506170       -13.7736
  49   2.0000      -0.499953       -13.6044
  50   2.0000      -0.485512       -13.2114
  51   2.0000      -0.478312       -13.0155
  52   2.0000      -0.470000       -12.7894
  53   2.0000      -0.465005       -12.6534
  54   2.0000      -0.456342       -12.4177
  55   2.0000      -0.450753       -12.2656
  56   2.0000      -0.449888       -12.2421
  57   2.0000      -0.440770       -11.9940
  58   2.0000      -0.438212       -11.9244
  59   2.0000      -0.421506       -11.4698
  60   2.0000      -0.421206       -11.4616
  61   2.0000      -0.410845       -11.1797
  62   2.0000      -0.394872       -10.7450
  63   2.0000      -0.342314        -9.3148
  64   2.0000      -0.335008        -9.1160
  65   2.0000      -0.326150        -8.8750
  66   2.0000      -0.295720        -8.0470
  67   0.0000       0.032088         0.8732
  68   0.0000       0.073535         2.0010
  69   0.0000       0.112951         3.0736
  70   0.0000       0.118999         3.2381
  71   0.0000       0.135643         3.6910

MULLIKEN ATOMIC CHARGES
-----------------------
   0 S :    0.113008
   1 C :   -0.072194
   2 C :   -0.082158
   3 C :    0.040608
   4 C :   -0.164422
   5 H :   -0.003959
   6 C :    0.087260
   7 H :    0.014530
   8 H :    0.025367
   9 C :   -0.089545
  10 H :    0.016379
  11 H :    0.019397
  12 C :   -0.028418
  13 H :    0.048265
  14 H :    0.030741
  15 H :    0.014995
  16 S :    0.121918
  17 C :   -0.080446
  18 C :   -0.010118
  19 C :   -0.061909
  20 C :   -0.166753
  21 H :   -0.000459
  22 C :    0.087637
  23 H :    0.017425
  24 H :    0.027412
  25 C :   -0.050881
  26 H :    0.033490
  27 H :    0.021516
  28 C :   -0.068348
  29 H :    0.038514
  30 H :    0.029744
  31 H :    0.040080
  32 H :    0.005231
  33 H :    0.046092
Sum of atomic charges:    0.0000000

LOEWDIN ATOMIC CHARGES
----------------------
   0 S :    0.453129
   1 C :   -0.196386
   2 C :   -0.056583
   3 C :   -0.054304
   4 C :   -0.198360
   5 H :    0.021643
   6 C :   -0.026995
   7 H :    0.029269
   8 H :    0.030629
   9 C :   -0.041687
  10 H :    0.017120
  11 H :    0.018139
  12 C :   -0.053424
  13 H :    0.032179
  14 H :    0.025467
  15 H :    0.013128
  16 S :    0.435658
  17 C :   -0.187016
  18 C :   -0.064987
  19 C :   -0.049707
  20 C :   -0.216255
  21 H :    0.023495
  22 C :   -0.034052
  23 H :    0.031338
  24 H :    0.027818
  25 C :   -0.038889
  26 H :    0.026452
  27 H :    0.019303
  28 C :   -0.074503
  29 H :    0.010806
  30 H :    0.028761
  31 H :    0.019709
  32 H :    0.008206
  33 H :    0.020901

  Mayer bond orders larger than 0.100000
B(  0-S ,  1-C ) :   1.1406 B(  0-S ,  4-C ) :   1.1607 B(  1-C ,  2-C ) :   1.6128
B(  1-C , 32-H ) :   0.9788 B(  2-C ,  3-C ) :   1.2310 B(  2-C ,  6-C ) :   1.0290
B(  3-C ,  4-C ) :   1.5580 B(  3-C ,  5-H ) :   1.0054 B(  4-C , 20-C ) :   1.0480
B(  6-C ,  7-H ) :   0.9431 B(  6-C ,  8-H ) :   0.9318 B(  6-C ,  9-C ) :   1.0690
B(  9-C , 10-H ) :   0.9544 B(  9-C , 11-H ) :   0.9568 B(  9-C , 12-C ) :   1.0680
B( 12-C , 13-H ) :   0.9738 B( 12-C , 14-H ) :   0.9781 B( 12-C , 15-H ) :   0.9794
B( 16-S , 17-C ) :   1.1723 B( 16-S , 20-C ) :   1.1614 B( 17-C , 18-C ) :   1.5828
B( 17-C , 33-H ) :   0.9719 B( 18-C , 19-C ) :   1.2546 B( 18-C , 21-H ) :   1.0044
B( 19-C , 20-C ) :   1.5457 B( 19-C , 22-C ) :   1.0371 B( 22-C , 23-H ) :   0.9254
B( 22-C , 24-H ) :   0.9454 B( 22-C , 25-C ) :   1.0421 B( 25-C , 26-H ) :   0.9620
B( 25-C , 27-H ) :   0.9593 B( 25-C , 28-C ) :   1.0820 B( 28-C , 29-H ) :   0.9690
B( 28-C , 30-H ) :   0.9676 B( 28-C , 31-H ) :   0.9708

Dispersion correction           -0.014808178
FINAL SINGLE POINT ENERGY     -1339.872217959290

DIPOLE MOMENT
-------------
                                X             Y             Z
Electronic contribution:     13.31054       6.89506      -7.13705
Nuclear contribution   :    -13.57349      -7.15723       7.10651
                        -----------------------------------------
Total Dipole Moment    :     -0.26295      -0.26217      -0.03054
                        -----------------------------------------
Magnitude (a.u.)       :      0.37257
Magnitude (Debye)      :      0.94700

Rotational constants in cm-1:     0.021881     0.007977     0.006714
Rotational constants in MHz :   655.966543   239.155875   201.283401

                             ****ORCA TERMINATED NORMALLY****
TOTAL RUN TIME: 0 days 0 hours 0 minutes 35 seconds 674 msec
