                         Program Version 4.2.1 -  RELEASE  -
|  1> ! wB97X-D3 SP def2-SVP
|  2> %pal
|  3> nprocs 16
|  4> end
|  5>
|  6> * xyz 0 1
|  7> S 	 34.1146 	 0.309186 	 70.2724
|  8> C 	 34.4618 	 1.83154 	 69.3097
|  9> C 	 33.2776 	 2.44335 	 69.0366
| 10> C 	 32.1065 	 1.80093 	 69.6221
| 11> C 	 32.4332 	 0.777718 	 70.4716
| 12> H 	 31.0433 	 2.05157 	 69.5011
| 13> C 	 33.236 	 3.73643 	 68.296
| 14> H 	 34.2386 	 4.1033 	 67.9225
| 15> H 	 32.8576 	 4.46946 	 69.0106
| 16> C 	 32.2257 	 3.98837 	 67.182
| 17> H 	 31.1802 	 4.1628 	 67.4956
| 18> H 	 32.6178 	 4.83823 	 66.7104
| 19> C 	 32.2252 	 2.80577 	 66.1599
| 20> H 	 31.9833 	 1.83655 	 66.693
| 21> H 	 31.4401 	 3.01602 	 65.4138
| 22> H 	 33.2619 	 2.65282 	 65.7841
| 23> S 	 31.9916 	 -1.89328 	 71.2804
| 24> C 	 30.4413 	 -2.19685 	 72.0062
| 25> C 	 29.6976 	 -1.02281 	 72.2039
| 26> C 	 30.3961 	 0.180345 	 71.8425
| 27> C 	 31.5495 	 -0.137413 	 71.1566
| 28> H 	 28.7825 	 -1.08895 	 72.6558
| 29> C 	 29.813 	 1.53312 	 72.129
| 30> H 	 28.9472 	 1.5379 	 71.4528
| 31> H 	 30.5578 	 2.25089 	 71.8987
| 32> C 	 29.3578 	 1.81806 	 73.6493
| 33> H 	 30.1922 	 1.64606 	 74.3852
| 34> H 	 28.5409 	 1.16691 	 73.9372
| 35> C 	 28.9986 	 3.29008 	 73.7915
| 36> H 	 28.068 	 3.59473 	 73.3017
| 37> H 	 29.8388 	 3.92353 	 73.4841
| 38> H 	 28.7339 	 3.47524 	 74.8252
| 39> H 	 35.4072 	 2.11819 	 68.8447
| 40> H 	 30.0635 	 -3.10006 	 72.4214
| 41> *
| 42>
| 43>                          ****END OF INPUT****

CARTESIAN COORDINATES (ANGSTROEM)
---------------------------------
  S     34.114600    0.309186   70.272400
  C     34.461800    1.831540   69.309700
  C     33.277600    2.443350   69.036600
  C     32.106500    1.800930   69.622100
  C     32.433200    0.777718   70.471600
  H     31.043300    2.051570   69.501100
  C     33.236000    3.736430   68.296000
  H     34.238600    4.103300   67.922500
  H     32.857600    4.469460   69.010600
  C     32.225700    3.988370   67.182000
  H     31.180200    4.162800   67.495600
  H     32.617800    4.838230   66.710400
  C     32.225200    2.805770   66.159900
  H     31.983300    1.836550   66.693000
  H     31.440100    3.016020   65.413800
  H     33.261900    2.652820   65.784100
  S     31.991600   -1.893280   71.280400
  C     30.441300   -2.196850   72.006200
  C     29.697600   -1.022810   72.203900
  C     30.396100    0.180345   71.842500
  C     31.549500   -0.137413   71.156600
  H     28.782500   -1.088950   72.655800
  C     29.813000    1.533120   72.129000
  H     28.947200    1.537900   71.452800
  H     30.557800    2.250890   71.898700
  C     29.357800    1.818060   73.649300
  H     30.192200    1.646060   74.385200
  H     28.540900    1.166910   73.937200
  C     28.998600    3.290080   73.791500
  H     28.068000    3.594730   73.301700
  H     29.838800    3.923530   73.484100
  H     28.733900    3.475240   74.825200
  H     35.407200    2.118190   68.844700
  H     30.063500   -3.100060   72.421400

 Total Charge           Charge          ....    0
 Multiplicity           Mult            ....    1
 Number of Electrons    NEL             ....  134
 Basis Dimension        Dim             ....  322

ORBITAL ENERGIES
----------------

  NO   OCC          E(Eh)            E(eV)
   0   2.0000     -88.969689     -2420.9883
   1   2.0000     -88.959102     -2420.7002
   2   2.0000     -10.329769      -281.0873
   3   2.0000     -10.327855      -281.0352
   4   2.0000     -10.317417      -280.7512
   5   2.0000     -10.316488      -280.7259
   6   2.0000     -10.304003      -280.3862
   7   2.0000     -10.303837      -280.3816
   8   2.0000     -10.297935      -280.2211
   9   2.0000     -10.297802      -280.2174
  10   2.0000     -10.296918      -280.1934
  11   2.0000     -10.292538      -280.0742
  12   2.0000     -10.288570      -279.9662
  13   2.0000     -10.284180      -279.8468
  14   2.0000     -10.280615      -279.7498
  15   2.0000     -10.279948      -279.7316
  16   2.0000      -8.083357      -219.9593
  17   2.0000      -8.073068      -219.6794
  18   2.0000      -6.042000      -164.4112
  19   2.0000      -6.038235      -164.3087
  20   2.0000      -6.033813      -164.1884
  21   2.0000      -6.031842      -164.1348
  22   2.0000      -6.027970      -164.0294
  23   2.0000      -6.023306      -163.9025
  24   2.0000      -1.002526       -27.2801
  25   2.0000      -0.977216       -26.5914
  26   2.0000      -0.914037       -24.8722
  27   2.0000      -0.907061       -24.6824
  28   2.0000      -0.869430       -23.6584
  29   2.0000      -0.857367       -23.3301
  30   2.0000      -0.833068       -22.6689
  31   2.0000      -0.814643       -22.1676
  32   2.0000      -0.783804       -21.3284
  33   2.0000      -0.772262       -21.0143
  34   2.0000      -0.708854       -19.2889
  35   2.0000      -0.701438       -19.0871
  36   2.0000      -0.692995       -18.8574
  37   2.0000      -0.659393       -17.9430
  38   2.0000      -0.635779       -17.3004
  39   2.0000      -0.616904       -16.7868
  40   2.0000      -0.594756       -16.1841
  41   2.0000      -0.572089       -15.5673
  42   2.0000      -0.564642       -15.3647
  43   2.0000      -0.553769       -15.0688
  44   2.0000      -0.536305       -14.5936
  45   2.0000      -0.525539       -14.3006
  46   2.0000      -0.519970       -14.1491
  47   2.0000      -0.518626       -14.1125
  48   2.0000      -0.504089       -13.7170
  49   2.0000      -0.501388       -13.6435
  50   2.0000      -0.484063       -13.1720
  51   2.0000      -0.479752       -13.0547
  52   2.0000      -0.473342       -12.8803
  53   2.0000      -0.465024       -12.6539
  54   2.0000      -0.455235       -12.3876
  55   2.0000      -0.452512       -12.3135
  56   2.0000      -0.442500       -12.0410
  57   2.0000      -0.436891       -11.8884
  58   2.0000      -0.430887       -11.7250
  59   2.0000      -0.426184       -11.5970
  60   2.0000      -0.421347       -11.4654
  61   2.0000      -0.412173       -11.2158
  62   2.0000      -0.411382       -11.1943
  63   2.0000      -0.353179        -9.6105
  64   2.0000      -0.331603        -9.0234
  65   2.0000      -0.322093        -8.7646
  66   2.0000      -0.285391        -7.7659
  67   0.0000       0.020797         0.5659
  68   0.0000       0.074962         2.0398
  69   0.0000       0.093033         2.5316
  70   0.0000       0.116029         3.1573
  71   0.0000       0.133294         3.6271

MULLIKEN ATOMIC CHARGES
-----------------------
   0 S :    0.057476
   1 C :   -0.120940
   2 C :   -0.064963
   3 C :    0.008075
   4 C :   -0.128200
   5 H :    0.028169
   6 C :    0.033089
   7 H :    0.029437
   8 H :    0.038422
   9 C :   -0.074003
  10 H :    0.034082
  11 H :    0.022185
  12 C :   -0.085903
  13 H :    0.048482
  14 H :    0.044090
  15 H :    0.033422
  16 S :    0.112602
  17 C :   -0.066813
  18 C :   -0.013109
  19 C :   -0.052587
  20 C :   -0.137032
  21 H :   -0.019350
  22 C :    0.067918
  23 H :    0.049335
  24 H :    0.019935
  25 C :   -0.094474
  26 H :    0.048200
  27 H :    0.032046
  28 C :   -0.043352
  29 H :    0.027004
  30 H :    0.042669
  31 H :    0.027521
  32 H :    0.051788
  33 H :    0.044779
Sum of atomic charges:   -0.0000000

LOEWDIN ATOMIC CHARGES
----------------------
   0 S :    0.347398
   1 C :   -0.174261
   2 C :   -0.060535
   3 C :   -0.072429
   4 C :   -0.171474
   5 H :    0.036016
   6 C :   -0.040579
   7 H :    0.035353
   8 H :    0.039788
   9 C :   -0.041507
  10 H :    0.023016
  11 H :    0.020607
  12 C :   -0.074800
  13 H :    0.031443
  14 H :    0.026079
  15 H :    0.026771
  16 S :    0.382204
  17 C :   -0.178934
  18 C :   -0.059399
  19 C :   -0.048852
  20 C :   -0.184019
  21 H :    0.012633
  22 C :   -0.028050
  23 H :    0.040253
  24 H :    0.023774
  25 C :   -0.035230
  26 H :    0.034703
  27 H :    0.019788
  28 C :   -0.068845
  29 H :    0.024468
  30 H :    0.028778
  31 H :    0.026523
  32 H :    0.033702
  33 H :    0.025617

  Mayer bond orders larger than 0.100000
B(  0-S ,  1-C ) :   1.0824 B(  0-S ,  4-C ) :   1.1242 B(  1-C ,  2-C ) :   1.6636
B(  1-C , 32-H ) :   0.9693 B(  2-C ,  3-C ) :   1.1681 B(  2-C ,  6-C ) :   1.0367
B(  3-C ,  4-C ) :   1.6046 B(  3-C ,  5-H ) :   0.9874 B(  4-C , 20-C ) :   1.0836
B(  6-C ,  7-H ) :   0.9491 B(  6-C ,  8-H ) :   0.9313 B(  6-C ,  9-C ) :   1.0684
B(  9-C , 10-H ) :   0.9540 B(  9-C , 11-H ) :   0.9541 B(  9-C , 12-C ) :   1.0828
B( 12-C , 13-H ) :   0.9706 B( 12-C , 14-H ) :   0.9767 B( 12-C , 15-H ) :   0.9751
B( 16-S , 17-C ) :   1.1425 B( 16-S , 20-C ) :   1.1026 B( 17-C , 18-C ) :   1.6357
B( 17-C , 33-H ) :   0.9679 B( 18-C , 19-C ) :   1.2091 B( 18-C , 21-H ) :   0.9986
B( 19-C , 20-C ) :   1.6121 B( 19-C , 22-C ) :   1.0480 B( 22-C , 23-H ) :   0.9314
B( 22-C , 24-H ) :   0.9295 B( 22-C , 25-C ) :   1.0546 B( 25-C , 26-H ) :   0.9587
B( 25-C , 27-H ) :   0.9536 B( 25-C , 28-C ) :   1.0934 B( 28-C , 29-H ) :   0.9728
B( 28-C , 30-H ) :   0.9740 B( 28-C , 31-H ) :   0.9717

Dispersion correction           -0.013919282
FINAL SINGLE POINT ENERGY     -1339.863536238367

DIPOLE MOMENT
-------------
                                X             Y             Z
Electronic contribution:     13.56448     -23.14865       4.00671
Nuclear contribution   :    -14.20013      23.75851      -3.93099
                        -----------------------------------------
Total Dipole Moment    :     -0.63565       0.60986       0.07572
                        -----------------------------------------
Magnitude (a.u.)       :      0.88415
Magnitude (Debye)      :      2.24732

Rotational constants in cm-1:     0.016693     0.008939     0.006811
Rotational constants in MHz :   500.429062   267.981716   204.196120

                             ****ORCA TERMINATED NORMALLY****
TOTAL RUN TIME: 0 days 0 hours 0 minutes 28 seconds 99 msec
