                         Program Version 4.2.1 -  RELEASE  -
|  1> ! wB97X-D3 SP def2-SVP
|  2> %pal
|  3> nprocs 16
|  4> end
|  5>
|  6> * xyz 0 1
|  7> S 	 -100.355 	 40.7506 	 118.735
|  8> C 	 -98.8035 	 40.1883 	 118.251
|  9> C 	 -97.7874 	 40.8289 	 118.981
| 10> C 	 -98.2633 	 41.8399 	 119.858
| 11> C 	 -99.6421 	 41.9197 	 119.854
| 12> H 	 -97.649 	 42.5021 	 120.473
| 13> C 	 -96.3349 	 40.5066 	 118.849
| 14> H 	 -96.2337 	 39.6412 	 118.167
| 15> H 	 -95.9711 	 40.0861 	 119.785
| 16> C 	 -95.4626 	 41.6396 	 118.257
| 17> H 	 -96.0259 	 42.1878 	 117.505
| 18> H 	 -95.3892 	 42.4362 	 118.876
| 19> C 	 -94.0104 	 41.2176 	 117.911
| 20> H 	 -93.253 	 41.9593 	 117.663
| 21> H 	 -93.62 	 40.741 	 118.845
| 22> H 	 -93.9893 	 40.3892 	 117.077
| 23> S 	 -102.046 	 43.3578 	 119.864
| 24> C 	 -102.558 	 44.0649 	 121.317
| 25> C 	 -101.528 	 44.0114 	 122.281
| 26> C 	 -100.355 	 43.2617 	 121.894
| 27> C 	 -100.456 	 42.8219 	 120.593
| 28> H 	 -101.751 	 44.5178 	 123.221
| 29> C 	 -99.3122 	 42.9258 	 122.841
| 30> H 	 -99.3319 	 43.7719 	 123.489
| 31> H 	 -98.356 	 42.9805 	 122.35
| 32> C 	 -99.5107 	 41.7093 	 123.819
| 33> H 	 -99.2511 	 40.7586 	 123.316
| 34> H 	 -100.52 	 41.6088 	 124.276
| 35> C 	 -98.5927 	 41.9631 	 125.05
| 36> H 	 -97.6421 	 42.2724 	 124.605
| 37> H 	 -98.1834 	 41.1661 	 125.666
| 38> H 	 -99.1083 	 42.736 	 125.581
| 39> H 	 -98.6413 	 39.2822 	 117.727
| 40> H 	 -103.493 	 44.4632 	 121.525
| 41> *
| 42>
| 43>                          ****END OF INPUT****

CARTESIAN COORDINATES (ANGSTROEM)
---------------------------------
  S    -100.355000   40.750600  118.735000
  C    -98.803500   40.188300  118.251000
  C    -97.787400   40.828900  118.981000
  C    -98.263300   41.839900  119.858000
  C    -99.642100   41.919700  119.854000
  H    -97.649000   42.502100  120.473000
  C    -96.334900   40.506600  118.849000
  H    -96.233700   39.641200  118.167000
  H    -95.971100   40.086100  119.785000
  C    -95.462600   41.639600  118.257000
  H    -96.025900   42.187800  117.505000
  H    -95.389200   42.436200  118.876000
  C    -94.010400   41.217600  117.911000
  H    -93.253000   41.959300  117.663000
  H    -93.620000   40.741000  118.845000
  H    -93.989300   40.389200  117.077000
  S    -102.046000   43.357800  119.864000
  C    -102.558000   44.064900  121.317000
  C    -101.528000   44.011400  122.281000
  C    -100.355000   43.261700  121.894000
  C    -100.456000   42.821900  120.593000
  H    -101.751000   44.517800  123.221000
  C    -99.312200   42.925800  122.841000
  H    -99.331900   43.771900  123.489000
  H    -98.356000   42.980500  122.350000
  C    -99.510700   41.709300  123.819000
  H    -99.251100   40.758600  123.316000
  H    -100.520000   41.608800  124.276000
  C    -98.592700   41.963100  125.050000
  H    -97.642100   42.272400  124.605000
  H    -98.183400   41.166100  125.666000
  H    -99.108300   42.736000  125.581000
  H    -98.641300   39.282200  117.727000
  H    -103.493000   44.463200  121.525000

 Total Charge           Charge          ....    0
 Multiplicity           Mult            ....    1
 Number of Electrons    NEL             ....  134
 Basis Dimension        Dim             ....  322

ORBITAL ENERGIES
----------------

  NO   OCC          E(Eh)            E(eV)
   0   2.0000     -88.967259     -2420.9222
   1   2.0000     -88.964544     -2420.8483
   2   2.0000     -10.329484      -281.0796
   3   2.0000     -10.326398      -280.9956
   4   2.0000     -10.313923      -280.6561
   5   2.0000     -10.310573      -280.5650
   6   2.0000     -10.302226      -280.3378
   7   2.0000     -10.301485      -280.3176
   8   2.0000     -10.296292      -280.1764
   9   2.0000     -10.296197      -280.1738
  10   2.0000     -10.295120      -280.1444
  11   2.0000     -10.292984      -280.0863
  12   2.0000     -10.292539      -280.0742
  13   2.0000     -10.289167      -279.9825
  14   2.0000     -10.281632      -279.7774
  15   2.0000     -10.277576      -279.6671
  16   2.0000      -8.082121      -219.9257
  17   2.0000      -8.079143      -219.8446
  18   2.0000      -6.040573      -164.3724
  19   2.0000      -6.037624      -164.2921
  20   2.0000      -6.036547      -164.2628
  21   2.0000      -6.033627      -164.1833
  22   2.0000      -6.032996      -164.1662
  23   2.0000      -6.029980      -164.0841
  24   2.0000      -1.007525       -27.4161
  25   2.0000      -0.983490       -26.7621
  26   2.0000      -0.915918       -24.9234
  27   2.0000      -0.910842       -24.7853
  28   2.0000      -0.873693       -23.7744
  29   2.0000      -0.855696       -23.2847
  30   2.0000      -0.848291       -23.0832
  31   2.0000      -0.811548       -22.0833
  32   2.0000      -0.783538       -21.3212
  33   2.0000      -0.766893       -20.8682
  34   2.0000      -0.716718       -19.5029
  35   2.0000      -0.706263       -19.2184
  36   2.0000      -0.699831       -19.0434
  37   2.0000      -0.665163       -18.1000
  38   2.0000      -0.643706       -17.5161
  39   2.0000      -0.624922       -17.0050
  40   2.0000      -0.597743       -16.2654
  41   2.0000      -0.573636       -15.6094
  42   2.0000      -0.564501       -15.3608
  43   2.0000      -0.555597       -15.1186
  44   2.0000      -0.532415       -14.4878
  45   2.0000      -0.524257       -14.2658
  46   2.0000      -0.519578       -14.1384
  47   2.0000      -0.511761       -13.9257
  48   2.0000      -0.507365       -13.8061
  49   2.0000      -0.504062       -13.7162
  50   2.0000      -0.497705       -13.5432
  51   2.0000      -0.475817       -12.9476
  52   2.0000      -0.473375       -12.8812
  53   2.0000      -0.459152       -12.4942
  54   2.0000      -0.455395       -12.3919
  55   2.0000      -0.451821       -12.2947
  56   2.0000      -0.447700       -12.1825
  57   2.0000      -0.437342       -11.9007
  58   2.0000      -0.430673       -11.7192
  59   2.0000      -0.428345       -11.6559
  60   2.0000      -0.422609       -11.4998
  61   2.0000      -0.413797       -11.2600
  62   2.0000      -0.409526       -11.1438
  63   2.0000      -0.359774        -9.7900
  64   2.0000      -0.332762        -9.0549
  65   2.0000      -0.326465        -8.8836
  66   2.0000      -0.280839        -7.6420
  67   0.0000       0.019852         0.5402
  68   0.0000       0.075428         2.0525
  69   0.0000       0.105040         2.8583
  70   0.0000       0.113180         3.0798
  71   0.0000       0.141123         3.8402

MULLIKEN ATOMIC CHARGES
-----------------------
   0 S :    0.116449
   1 C :   -0.094456
   2 C :   -0.113508
   3 C :   -0.001339
   4 C :   -0.130880
   5 H :    0.022657
   6 C :    0.074019
   7 H :    0.008162
   8 H :    0.029984
   9 C :   -0.020881
  10 H :    0.024123
  11 H :   -0.005423
  12 C :   -0.090953
  13 H :    0.044962
  14 H :    0.030583
  15 H :    0.046146
  16 S :    0.101941
  17 C :   -0.064854
  18 C :   -0.062719
  19 C :   -0.025810
  20 C :   -0.147605
  21 H :    0.018801
  22 C :    0.085523
  23 H :    0.002766
  24 H :    0.010987
  25 C :   -0.053794
  26 H :    0.042618
  27 H :    0.041678
  28 C :   -0.062896
  29 H :    0.018665
  30 H :    0.037201
  31 H :    0.039236
  32 H :    0.043312
  33 H :    0.035305
Sum of atomic charges:   -0.0000000

LOEWDIN ATOMIC CHARGES
----------------------
   0 S :    0.415549
   1 C :   -0.207695
   2 C :   -0.059540
   3 C :   -0.066070
   4 C :   -0.180553
   5 H :    0.032714
   6 C :   -0.031697
   7 H :    0.029906
   8 H :    0.030073
   9 C :   -0.042265
  10 H :    0.029339
  11 H :    0.009229
  12 C :   -0.074545
  13 H :    0.026735
  14 H :    0.029079
  15 H :    0.033109
  16 S :    0.392347
  17 C :   -0.188596
  18 C :   -0.074449
  19 C :   -0.055151
  20 C :   -0.175915
  21 H :    0.029735
  22 C :   -0.033595
  23 H :    0.031619
  24 H :    0.028555
  25 C :   -0.029186
  26 H :    0.026343
  27 H :    0.029783
  28 C :   -0.071126
  29 H :    0.024029
  30 H :    0.027534
  31 H :    0.023191
  32 H :    0.022852
  33 H :    0.018664

  Mayer bond orders larger than 0.100000
B(  0-S ,  1-C ) :   1.1387 B(  0-S ,  4-C ) :   1.1530 B(  1-C ,  2-C ) :   1.5926
B(  1-C , 32-H ) :   0.9656 B(  2-C ,  3-C ) :   1.2548 B(  2-C ,  6-C ) :   1.0435
B(  3-C ,  4-C ) :   1.5457 B(  3-C ,  5-H ) :   0.9897 B(  4-C , 20-C ) :   1.1112
B(  6-C ,  7-H ) :   0.9409 B(  6-C ,  8-H ) :   0.9316 B(  6-C ,  9-C ) :   1.0441
B(  9-C , 10-H ) :   0.9528 B(  9-C , 11-H ) :   0.9476 B(  9-C , 12-C ) :   1.0686
B( 12-C , 13-H ) :   0.9770 B( 12-C , 14-H ) :   0.9722 B( 12-C , 15-H ) :   0.9781
B( 16-S , 17-C ) :   1.1653 B( 16-S , 20-C ) :   1.1114 B( 17-C , 18-C ) :   1.6052
B( 17-C , 33-H ) :   0.9744 B( 18-C , 19-C ) :   1.2247 B( 18-C , 21-H ) :   0.9892
B( 19-C , 20-C ) :   1.5812 B( 19-C , 22-C ) :   1.0620 B( 22-C , 23-H ) :   0.9218
B( 22-C , 24-H ) :   0.9177 B( 22-C , 25-C ) :   1.0414 B( 25-C , 26-H ) :   0.9579
B( 25-C , 27-H ) :   0.9656 B( 25-C , 28-C ) :   1.0542 B( 28-C , 29-H ) :   0.9741
B( 28-C , 30-H ) :   0.9745 B( 28-C , 31-H ) :   0.9815

Dispersion correction           -0.013683893
FINAL SINGLE POINT ENERGY     -1339.857676574770

DIPOLE MOMENT
-------------
                                X             Y             Z
Electronic contribution:    -26.94290       3.12641     -12.14094
Nuclear contribution   :     27.41297      -3.13786      12.72076
                        -----------------------------------------
Total Dipole Moment    :      0.47007      -0.01145       0.57982
                        -----------------------------------------
Magnitude (a.u.)       :      0.74652
Magnitude (Debye)      :      1.89749

Rotational constants in cm-1:     0.017607     0.008412     0.006485
Rotational constants in MHz :   527.851373   252.192605   194.420407

                             ****ORCA TERMINATED NORMALLY****
TOTAL RUN TIME: 0 days 0 hours 0 minutes 33 seconds 531 msec
