                         Program Version 4.2.1 -  RELEASE  -
|  1> ! wB97X-D3 SP def2-SVP
|  2> %pal
|  3> nprocs 16
|  4> end
|  5>
|  6> * xyz 0 1
|  7> S 	 50.393 	 5.83944 	 82.9614
|  8> C 	 51.9909 	 6.30345 	 83.4943
|  9> C 	 51.8454 	 6.97644 	 84.7028
| 10> C 	 50.5406 	 6.90499 	 85.2706
| 11> C 	 49.7154 	 6.19198 	 84.4569
| 12> H 	 50.2725 	 7.26328 	 86.1967
| 13> C 	 53.0276 	 7.65431 	 85.3924
| 14> H 	 53.8454 	 7.56211 	 84.7144
| 15> H 	 53.2829 	 7.25227 	 86.3073
| 16> C 	 52.9075 	 9.1976 	 85.5413
| 17> H 	 52.8253 	 9.60094 	 84.5733
| 18> H 	 51.9675 	 9.35944 	 86.1192
| 19> C 	 54.1155 	 9.94345 	 86.1941
| 20> H 	 54.4666 	 9.52676 	 87.1072
| 21> H 	 55.01 	 9.94036 	 85.5082
| 22> H 	 53.9648 	 11.0647 	 86.3719
| 23> S 	 47.0949 	 6.60829 	 83.5581
| 24> C 	 45.7371 	 5.91852 	 84.4052
| 25> C 	 46.1656 	 5.40656 	 85.5869
| 26> C 	 47.612 	 5.50235 	 85.822
| 27> C 	 48.2967 	 5.92017 	 84.6914
| 28> H 	 45.4916 	 5.04232 	 86.3029
| 29> C 	 48.0938 	 4.892 	 87.1217
| 30> H 	 49.1941 	 4.82541 	 87.0737
| 31> H 	 47.7217 	 3.86381 	 87.056
| 32> C 	 47.6853 	 5.56356 	 88.5346
| 33> H 	 46.5809 	 5.49828 	 88.7509
| 34> H 	 47.9272 	 6.67534 	 88.6155
| 35> C 	 48.5682 	 4.97217 	 89.6236
| 36> H 	 49.5868 	 5.08788 	 89.4254
| 37> H 	 48.294 	 3.90334 	 89.9006
| 38> H 	 48.4049 	 5.43399 	 90.5881
| 39> H 	 52.9165 	 6.46217 	 83.0617
| 40> H 	 44.7006 	 5.98906 	 84.081
| 41> *
| 42>
| 43>                          ****END OF INPUT****

CARTESIAN COORDINATES (ANGSTROEM)
---------------------------------
  S     50.393000    5.839440   82.961400
  C     51.990900    6.303450   83.494300
  C     51.845400    6.976440   84.702800
  C     50.540600    6.904990   85.270600
  C     49.715400    6.191980   84.456900
  H     50.272500    7.263280   86.196700
  C     53.027600    7.654310   85.392400
  H     53.845400    7.562110   84.714400
  H     53.282900    7.252270   86.307300
  C     52.907500    9.197600   85.541300
  H     52.825300    9.600940   84.573300
  H     51.967500    9.359440   86.119200
  C     54.115500    9.943450   86.194100
  H     54.466600    9.526760   87.107200
  H     55.010000    9.940360   85.508200
  H     53.964800   11.064700   86.371900
  S     47.094900    6.608290   83.558100
  C     45.737100    5.918520   84.405200
  C     46.165600    5.406560   85.586900
  C     47.612000    5.502350   85.822000
  C     48.296700    5.920170   84.691400
  H     45.491600    5.042320   86.302900
  C     48.093800    4.892000   87.121700
  H     49.194100    4.825410   87.073700
  H     47.721700    3.863810   87.056000
  C     47.685300    5.563560   88.534600
  H     46.580900    5.498280   88.750900
  H     47.927200    6.675340   88.615500
  C     48.568200    4.972170   89.623600
  H     49.586800    5.087880   89.425400
  H     48.294000    3.903340   89.900600
  H     48.404900    5.433990   90.588100
  H     52.916500    6.462170   83.061700
  H     44.700600    5.989060   84.081000

 Total Charge           Charge          ....    0
 Multiplicity           Mult            ....    1
 Number of Electrons    NEL             ....  134
 Basis Dimension        Dim             ....  322

ORBITAL ENERGIES
----------------

  NO   OCC          E(Eh)            E(eV)
   0   2.0000     -88.969556     -2420.9847
   1   2.0000     -88.959303     -2420.7057
   2   2.0000     -10.330104      -281.0964
   3   2.0000     -10.325330      -280.9665
   4   2.0000     -10.316560      -280.7279
   5   2.0000     -10.308210      -280.5006
   6   2.0000     -10.306522      -280.4547
   7   2.0000     -10.305765      -280.4341
   8   2.0000     -10.300013      -280.2776
   9   2.0000     -10.299978      -280.2767
  10   2.0000     -10.288809      -279.9727
  11   2.0000     -10.288058      -279.9523
  12   2.0000     -10.288018      -279.9512
  13   2.0000     -10.286708      -279.9156
  14   2.0000     -10.284579      -279.8576
  15   2.0000     -10.279191      -279.7110
  16   2.0000      -8.085278      -220.0116
  17   2.0000      -8.074008      -219.7049
  18   2.0000      -6.043822      -164.4608
  19   2.0000      -6.039587      -164.3455
  20   2.0000      -6.035974      -164.2472
  21   2.0000      -6.032801      -164.1609
  22   2.0000      -6.028584      -164.0461
  23   2.0000      -6.024398      -163.9322
  24   2.0000      -1.015553       -27.6346
  25   2.0000      -0.985487       -26.8165
  26   2.0000      -0.911721       -24.8092
  27   2.0000      -0.900944       -24.5159
  28   2.0000      -0.871242       -23.7077
  29   2.0000      -0.853627       -23.2284
  30   2.0000      -0.846615       -23.0376
  31   2.0000      -0.820000       -22.3133
  32   2.0000      -0.782787       -21.3007
  33   2.0000      -0.771303       -20.9882
  34   2.0000      -0.711267       -19.3546
  35   2.0000      -0.699424       -19.0323
  36   2.0000      -0.695932       -18.9373
  37   2.0000      -0.660983       -17.9863
  38   2.0000      -0.644094       -17.5267
  39   2.0000      -0.626781       -17.0556
  40   2.0000      -0.595276       -16.1983
  41   2.0000      -0.579303       -15.7636
  42   2.0000      -0.565924       -15.3996
  43   2.0000      -0.560074       -15.2404
  44   2.0000      -0.525608       -14.3025
  45   2.0000      -0.519981       -14.1494
  46   2.0000      -0.518827       -14.1180
  47   2.0000      -0.511546       -13.9199
  48   2.0000      -0.507677       -13.8146
  49   2.0000      -0.502479       -13.6731
  50   2.0000      -0.499356       -13.5882
  51   2.0000      -0.479040       -13.0353
  52   2.0000      -0.469080       -12.7643
  53   2.0000      -0.466112       -12.6835
  54   2.0000      -0.464648       -12.6437
  55   2.0000      -0.454453       -12.3663
  56   2.0000      -0.446247       -12.1430
  57   2.0000      -0.436978       -11.8908
  58   2.0000      -0.431709       -11.7474
  59   2.0000      -0.424831       -11.5602
  60   2.0000      -0.418972       -11.4008
  61   2.0000      -0.415703       -11.3119
  62   2.0000      -0.409987       -11.1563
  63   2.0000      -0.348743        -9.4898
  64   2.0000      -0.332898        -9.0586
  65   2.0000      -0.321942        -8.7605
  66   2.0000      -0.299321        -8.1449
  67   0.0000       0.031786         0.8650
  68   0.0000       0.071575         1.9477
  69   0.0000       0.111980         3.0471
  70   0.0000       0.115999         3.1565
  71   0.0000       0.131152         3.5688

MULLIKEN ATOMIC CHARGES
-----------------------
   0 S :    0.129130
   1 C :   -0.046855
   2 C :   -0.150800
   3 C :    0.081498
   4 C :   -0.154752
   5 H :   -0.025402
   6 C :    0.117153
   7 H :   -0.007207
   8 H :    0.015497
   9 C :   -0.083823
  10 H :    0.023777
  11 H :    0.036017
  12 C :   -0.076223
  13 H :    0.024398
  14 H :    0.030899
  15 H :    0.049228
  16 S :    0.077623
  17 C :   -0.074155
  18 C :   -0.019043
  19 C :   -0.022376
  20 C :   -0.121374
  21 H :   -0.000638
  22 C :    0.016806
  23 H :    0.022712
  24 H :    0.047479
  25 C :   -0.094612
  26 H :    0.044635
  27 H :    0.042940
  28 C :   -0.047555
  29 H :    0.028860
  30 H :    0.034550
  31 H :    0.023739
  32 H :    0.013800
  33 H :    0.064074
Sum of atomic charges:   -0.0000000

LOEWDIN ATOMIC CHARGES
----------------------
   0 S :    0.449820
   1 C :   -0.201008
   2 C :   -0.050455
   3 C :   -0.052693
   4 C :   -0.209074
   5 H :    0.018135
   6 C :   -0.021066
   7 H :    0.022226
   8 H :    0.017149
   9 C :   -0.035345
  10 H :    0.019190
  11 H :    0.023834
  12 C :   -0.075505
  13 H :    0.015427
  14 H :    0.028295
  15 H :    0.037969
  16 S :    0.376748
  17 C :   -0.179060
  18 C :   -0.068442
  19 C :   -0.055806
  20 C :   -0.187735
  21 H :    0.020420
  22 C :   -0.036413
  23 H :    0.029122
  24 H :    0.039514
  25 C :   -0.044003
  26 H :    0.028253
  27 H :    0.033067
  28 C :   -0.069719
  29 H :    0.017684
  30 H :    0.030933
  31 H :    0.024947
  32 H :    0.018200
  33 H :    0.035392

  Mayer bond orders larger than 0.100000
B(  0-S ,  1-C ) :   1.1255 B(  0-S ,  4-C ) :   1.1841 B(  1-C ,  2-C ) :   1.6175
B(  1-C , 32-H ) :   0.9675 B(  2-C ,  3-C ) :   1.2368 B(  2-C ,  6-C ) :   1.0361
B(  3-C ,  4-C ) :   1.5435 B(  3-C ,  5-H ) :   1.0161 B(  4-C , 20-C ) :   1.0108
B(  6-C ,  7-H ) :   0.9355 B(  6-C ,  8-H ) :   0.9434 B(  6-C ,  9-C ) :   1.0546
B(  9-C , 10-H ) :   0.9583 B(  9-C , 11-H ) :   0.9616 B(  9-C , 12-C ) :   1.0751
B( 12-C , 13-H ) :   0.9773 B( 12-C , 14-H ) :   0.9752 B( 12-C , 15-H ) :   0.9752
B( 16-S , 17-C ) :   1.1334 B( 16-S , 20-C ) :   1.1219 B( 17-C , 18-C ) :   1.6333
B( 17-C , 33-H ) :   0.9689 B( 18-C , 19-C ) :   1.1989 B( 18-C , 21-H ) :   0.9986
B( 19-C , 20-C ) :   1.6275 B( 19-C , 22-C ) :   1.0470 B( 22-C , 23-H ) :   0.9451
B( 22-C , 24-H ) :   0.9421 B( 22-C , 25-C ) :   1.0354 B( 25-C , 26-H ) :   0.9561
B( 25-C , 27-H ) :   0.9590 B( 25-C , 28-C ) :   1.0846 B( 28-C , 29-H ) :   0.9752
B( 28-C , 30-H ) :   0.9729 B( 28-C , 31-H ) :   0.9726

Dispersion correction           -0.013372917
FINAL SINGLE POINT ENERGY     -1339.854404187172

DIPOLE MOMENT
-------------
                                X             Y             Z
Electronic contribution:    -13.96836      -7.16054     -25.74580
Nuclear contribution   :     14.08776       7.32432      26.49132
                        -----------------------------------------
Total Dipole Moment    :      0.11940       0.16378       0.74552
                        -----------------------------------------
Magnitude (a.u.)       :      0.77258
Magnitude (Debye)      :      1.96374

Rotational constants in cm-1:     0.016388     0.008392     0.006327
Rotational constants in MHz :   491.301012   251.584567   189.673577

                             ****ORCA TERMINATED NORMALLY****
TOTAL RUN TIME: 0 days 0 hours 0 minutes 29 seconds 767 msec
