                         Program Version 4.2.1 -  RELEASE  -
|  1> ! wB97X-D3 SP def2-SVP
|  2> %pal
|  3> nprocs 16
|  4> end
|  5>
|  6> * xyz 0 1
|  7> S 	 -29.4794 	 75.9874 	 162.375
|  8> C 	 -28.2426 	 75.575 	 161.184
|  9> C 	 -28.8528 	 75.1175 	 160.017
| 10> C 	 -30.2918 	 75.162 	 160.102
| 11> C 	 -30.7841 	 75.5416 	 161.312
| 12> H 	 -31.0242 	 74.8473 	 159.37
| 13> C 	 -28.0425 	 74.5759 	 158.858
| 14> H 	 -27.1096 	 75.1849 	 158.77
| 15> H 	 -28.6596 	 74.6 	 157.919
| 16> C 	 -27.5466 	 73.11 	 158.985
| 17> H 	 -26.6526 	 73.1537 	 159.662
| 18> H 	 -28.3078 	 72.4369 	 159.496
| 19> C 	 -26.9938 	 72.6273 	 157.733
| 20> H 	 -26.3618 	 71.8197 	 157.997
| 21> H 	 -27.7238 	 72.2726 	 157.103
| 22> H 	 -26.326 	 73.3414 	 157.209
| 23> S 	 -32.5024 	 77.3459 	 162.392
| 24> C 	 -34.2172 	 76.9462 	 162.459
| 25> C 	 -34.4443 	 75.6687 	 162.057
| 26> C 	 -33.2794 	 74.9635 	 161.675
| 27> C 	 -32.1821 	 75.7671 	 161.701
| 28> H 	 -35.43 	 75.191 	 162.177
| 29> C 	 -33.362 	 73.5887 	 161.085
| 30> H 	 -32.6383 	 73.4979 	 160.252
| 31> H 	 -34.337 	 73.5523 	 160.642
| 32> C 	 -33.2196 	 72.3983 	 162.032
| 33> H 	 -33.453 	 71.4397 	 161.414
| 34> H 	 -33.9901 	 72.3487 	 162.739
| 35> C 	 -31.8416 	 72.1852 	 162.619
| 36> H 	 -31.8877 	 71.2894 	 163.212
| 37> H 	 -31.4452 	 72.9474 	 163.312
| 38> H 	 -31.117 	 72.0053 	 161.766
| 39> H 	 -27.2039 	 75.533 	 161.326
| 40> H 	 -35.0307 	 77.5523 	 162.755
| 41> *
| 42>
| 43>                          ****END OF INPUT****

CARTESIAN COORDINATES (ANGSTROEM)
---------------------------------
  S    -29.479400   75.987400  162.375000
  C    -28.242600   75.575000  161.184000
  C    -28.852800   75.117500  160.017000
  C    -30.291800   75.162000  160.102000
  C    -30.784100   75.541600  161.312000
  H    -31.024200   74.847300  159.370000
  C    -28.042500   74.575900  158.858000
  H    -27.109600   75.184900  158.770000
  H    -28.659600   74.600000  157.919000
  C    -27.546600   73.110000  158.985000
  H    -26.652600   73.153700  159.662000
  H    -28.307800   72.436900  159.496000
  C    -26.993800   72.627300  157.733000
  H    -26.361800   71.819700  157.997000
  H    -27.723800   72.272600  157.103000
  H    -26.326000   73.341400  157.209000
  S    -32.502400   77.345900  162.392000
  C    -34.217200   76.946200  162.459000
  C    -34.444300   75.668700  162.057000
  C    -33.279400   74.963500  161.675000
  C    -32.182100   75.767100  161.701000
  H    -35.430000   75.191000  162.177000
  C    -33.362000   73.588700  161.085000
  H    -32.638300   73.497900  160.252000
  H    -34.337000   73.552300  160.642000
  C    -33.219600   72.398300  162.032000
  H    -33.453000   71.439700  161.414000
  H    -33.990100   72.348700  162.739000
  C    -31.841600   72.185200  162.619000
  H    -31.887700   71.289400  163.212000
  H    -31.445200   72.947400  163.312000
  H    -31.117000   72.005300  161.766000
  H    -27.203900   75.533000  161.326000
  H    -35.030700   77.552300  162.755000

 Total Charge           Charge          ....    0
 Multiplicity           Mult            ....    1
 Number of Electrons    NEL             ....  134
 Basis Dimension        Dim             ....  322

ORBITAL ENERGIES
----------------

  NO   OCC          E(Eh)            E(eV)
   0   2.0000     -88.966137     -2420.8917
   1   2.0000     -88.964510     -2420.8474
   2   2.0000     -10.326647      -281.0023
   3   2.0000     -10.324496      -280.9438
   4   2.0000     -10.312187      -280.6089
   5   2.0000     -10.311308      -280.5850
   6   2.0000     -10.303336      -280.3680
   7   2.0000     -10.297151      -280.1997
   8   2.0000     -10.296503      -280.1821
   9   2.0000     -10.291860      -280.0558
  10   2.0000     -10.290279      -280.0127
  11   2.0000     -10.289322      -279.9867
  12   2.0000     -10.288589      -279.9667
  13   2.0000     -10.286904      -279.9209
  14   2.0000     -10.275298      -279.6051
  15   2.0000     -10.266353      -279.3617
  16   2.0000      -8.080686      -219.8867
  17   2.0000      -8.079034      -219.8417
  18   2.0000      -6.039249      -164.3363
  19   2.0000      -6.037695      -164.2940
  20   2.0000      -6.035319      -164.2294
  21   2.0000      -6.033440      -164.1782
  22   2.0000      -6.031280      -164.1195
  23   2.0000      -6.029761      -164.0781
  24   2.0000      -1.009928       -27.4815
  25   2.0000      -0.985134       -26.8069
  26   2.0000      -0.917926       -24.9780
  27   2.0000      -0.910445       -24.7745
  28   2.0000      -0.874752       -23.8032
  29   2.0000      -0.853011       -23.2116
  30   2.0000      -0.847107       -23.0510
  31   2.0000      -0.820152       -22.3175
  32   2.0000      -0.783519       -21.3206
  33   2.0000      -0.772381       -21.0176
  34   2.0000      -0.705270       -19.1914
  35   2.0000      -0.694891       -18.9089
  36   2.0000      -0.690981       -18.8026
  37   2.0000      -0.663711       -18.0605
  38   2.0000      -0.645136       -17.5550
  39   2.0000      -0.615663       -16.7530
  40   2.0000      -0.596199       -16.2234
  41   2.0000      -0.574569       -15.6348
  42   2.0000      -0.567244       -15.4355
  43   2.0000      -0.554202       -15.0806
  44   2.0000      -0.541205       -14.7269
  45   2.0000      -0.523157       -14.2358
  46   2.0000      -0.518751       -14.1159
  47   2.0000      -0.509811       -13.8727
  48   2.0000      -0.508479       -13.8364
  49   2.0000      -0.502246       -13.6668
  50   2.0000      -0.497828       -13.5466
  51   2.0000      -0.476598       -12.9689
  52   2.0000      -0.471042       -12.8177
  53   2.0000      -0.465603       -12.6697
  54   2.0000      -0.461350       -12.5540
  55   2.0000      -0.450366       -12.2551
  56   2.0000      -0.444322       -12.0906
  57   2.0000      -0.434801       -11.8315
  58   2.0000      -0.430207       -11.7065
  59   2.0000      -0.425157       -11.5691
  60   2.0000      -0.418666       -11.3925
  61   2.0000      -0.411373       -11.1940
  62   2.0000      -0.407761       -11.0958
  63   2.0000      -0.348997        -9.4967
  64   2.0000      -0.332882        -9.0582
  65   2.0000      -0.327119        -8.9014
  66   2.0000      -0.294157        -8.0044
  67   0.0000       0.034797         0.9469
  68   0.0000       0.068985         1.8772
  69   0.0000       0.109390         2.9766
  70   0.0000       0.118921         3.2360
  71   0.0000       0.128939         3.5086

MULLIKEN ATOMIC CHARGES
-----------------------
   0 S :    0.101732
   1 C :   -0.098740
   2 C :   -0.071672
   3 C :    0.034601
   4 C :   -0.146303
   5 H :    0.010797
   6 C :    0.021668
   7 H :    0.036892
   8 H :    0.031706
   9 C :   -0.112541
  10 H :    0.020055
  11 H :    0.046966
  12 C :    0.015909
  13 H :    0.018769
  14 H :    0.017687
  15 H :    0.028671
  16 S :    0.112199
  17 C :   -0.065413
  18 C :   -0.048332
  19 C :   -0.018641
  20 C :   -0.173666
  21 H :    0.026292
  22 C :    0.083113
  23 H :    0.016465
  24 H :    0.011986
  25 C :   -0.065181
  26 H :    0.029144
  27 H :    0.008112
  28 C :   -0.051094
  29 H :    0.025212
  30 H :    0.047231
  31 H :    0.038200
  32 H :    0.030218
  33 H :    0.037957
Sum of atomic charges:    0.0000000

LOEWDIN ATOMIC CHARGES
----------------------
   0 S :    0.399070
   1 C :   -0.187428
   2 C :   -0.059448
   3 C :   -0.069991
   4 C :   -0.192161
   5 H :    0.030068
   6 C :   -0.039246
   7 H :    0.036530
   8 H :    0.031837
   9 C :   -0.048304
  10 H :    0.023900
  11 H :    0.031635
  12 C :   -0.060178
  13 H :    0.026547
  14 H :    0.013878
  15 H :    0.032196
  16 S :    0.400547
  17 C :   -0.175841
  18 C :   -0.071518
  19 C :   -0.062319
  20 C :   -0.190481
  21 H :    0.035927
  22 C :   -0.030274
  23 H :    0.030725
  24 H :    0.029804
  25 C :   -0.040594
  26 H :    0.034449
  27 H :    0.011893
  28 C :   -0.070018
  29 H :    0.023948
  30 H :    0.028226
  31 H :    0.032487
  32 H :    0.019585
  33 H :    0.024549

  Mayer bond orders larger than 0.100000
B(  0-S ,  1-C ) :   1.1270 B(  0-S ,  4-C ) :   1.1470 B(  1-C ,  2-C ) :   1.6087
B(  1-C , 32-H ) :   0.9774 B(  2-C ,  3-C ) :   1.2224 B(  2-C ,  6-C ) :   1.0324
B(  3-C ,  4-C ) :   1.6025 B(  3-C ,  5-H ) :   0.9916 B(  4-C , 20-C ) :   1.0093
B(  6-C ,  7-H ) :   0.9364 B(  6-C ,  8-H ) :   0.9492 B(  6-C ,  9-C ) :   1.0583
B(  9-C , 10-H ) :   0.9555 B(  9-C , 11-H ) :   0.9545 B(  9-C , 12-C ) :   1.0929
B( 12-C , 13-H ) :   0.9675 B( 12-C , 14-H ) :   0.9703 B( 12-C , 15-H ) :   0.9643
B( 16-S , 17-C ) :   1.1341 B( 16-S , 20-C ) :   1.1354 B( 17-C , 18-C ) :   1.6457
B( 17-C , 33-H ) :   0.9688 B( 18-C , 19-C ) :   1.2359 B( 18-C , 21-H ) :   0.9769
B( 19-C , 20-C ) :   1.6251 B( 19-C , 22-C ) :   1.0275 B( 22-C , 23-H ) :   0.9380
B( 22-C , 24-H ) :   0.9260 B( 22-C , 25-C ) :   1.0850 B( 25-C , 26-H ) :   0.9498
B( 25-C , 27-H ) :   0.9532 B( 25-C , 28-C ) :   1.0813 B( 28-C , 29-H ) :   0.9704
B( 28-C , 30-H ) :   0.9734 B( 28-C , 31-H ) :   0.9726

Dispersion correction           -0.014665060
FINAL SINGLE POINT ENERGY     -1339.879291858070

DIPOLE MOMENT
-------------
                                X             Y             Z
Electronic contribution:     -7.59555      24.67906      13.38761
Nuclear contribution   :      7.49206     -25.30120     -13.75079
                        -----------------------------------------
Total Dipole Moment    :     -0.10349      -0.62214      -0.36319
                        -----------------------------------------
Magnitude (a.u.)       :      0.72779
Magnitude (Debye)      :      1.84989

Rotational constants in cm-1:     0.021245     0.008390     0.006918
Rotational constants in MHz :   636.917535   251.528541   207.399571

                             ****ORCA TERMINATED NORMALLY****
TOTAL RUN TIME: 0 days 0 hours 0 minutes 33 seconds 849 msec
