                         Program Version 4.2.1 -  RELEASE  -
|  1> ! wB97X-D3 SP def2-SVP
|  2> %pal
|  3> nprocs 16
|  4> end
|  5>
|  6> * xyz 0 1
|  7> S 	 -1.65626 	 -15.0002 	 70.2177
|  8> C 	 -2.92862 	 -16.25 	 70.4424
|  9> C 	 -4.10905 	 -15.6446 	 70.9458
| 10> C 	 -3.95723 	 -14.2506 	 71.0843
| 11> C 	 -2.71141 	 -13.7267 	 70.721
| 12> H 	 -4.68327 	 -13.5705 	 71.4434
| 13> C 	 -5.34738 	 -16.3457 	 71.2689
| 14> H 	 -5.37164 	 -16.3817 	 72.3137
| 15> H 	 -5.07818 	 -17.3721 	 70.893
| 16> C 	 -6.60696 	 -15.8619 	 70.5746
| 17> H 	 -6.93449 	 -14.8772 	 70.7965
| 18> H 	 -6.45418 	 -15.8113 	 69.5058
| 19> C 	 -7.85917 	 -16.7496 	 70.7726
| 20> H 	 -8.1708 	 -16.6913 	 71.8187
| 21> H 	 -8.60603 	 -16.3009 	 70.1575
| 22> H 	 -7.84125 	 -17.7895 	 70.471
| 23> S 	 -1.29648 	 -11.6904 	 72.0487
| 24> C 	 -1.3738 	 -10.092 	 71.3237
| 25> C 	 -2.11543 	 -10.0614 	 70.1598
| 26> C 	 -2.77006 	 -11.2674 	 69.9141
| 27> C 	 -2.40671 	 -12.3067 	 70.8083
| 28> H 	 -2.15542 	 -9.11326 	 69.6497
| 29> C 	 -3.66859 	 -11.4589 	 68.6952
| 30> H 	 -4.57423 	 -10.865 	 68.8587
| 31> H 	 -4.07884 	 -12.4687 	 68.6441
| 32> C 	 -3.03572 	 -11.0793 	 67.3347
| 33> H 	 -1.99453 	 -11.3579 	 67.1999
| 34> H 	 -2.99444 	 -9.95101 	 67.4304
| 35> C 	 -3.91229 	 -11.6637 	 66.2058
| 36> H 	 -4.93021 	 -11.2556 	 66.2806
| 37> H 	 -3.96346 	 -12.7908 	 66.1451
| 38> H 	 -3.51 	 -11.5159 	 65.2419
| 39> H 	 -2.94449 	 -17.2919 	 70.1649
| 40> H 	 -0.676523 	 -9.2763 	 71.579
| 41> *
| 42>
| 43>                          ****END OF INPUT****

CARTESIAN COORDINATES (ANGSTROEM)
---------------------------------
  S     -1.656260  -15.000200   70.217700
  C     -2.928620  -16.250000   70.442400
  C     -4.109050  -15.644600   70.945800
  C     -3.957230  -14.250600   71.084300
  C     -2.711410  -13.726700   70.721000
  H     -4.683270  -13.570500   71.443400
  C     -5.347380  -16.345700   71.268900
  H     -5.371640  -16.381700   72.313700
  H     -5.078180  -17.372100   70.893000
  C     -6.606960  -15.861900   70.574600
  H     -6.934490  -14.877200   70.796500
  H     -6.454180  -15.811300   69.505800
  C     -7.859170  -16.749600   70.772600
  H     -8.170800  -16.691300   71.818700
  H     -8.606030  -16.300900   70.157500
  H     -7.841250  -17.789500   70.471000
  S     -1.296480  -11.690400   72.048700
  C     -1.373800  -10.092000   71.323700
  C     -2.115430  -10.061400   70.159800
  C     -2.770060  -11.267400   69.914100
  C     -2.406710  -12.306700   70.808300
  H     -2.155420   -9.113260   69.649700
  C     -3.668590  -11.458900   68.695200
  H     -4.574230  -10.865000   68.858700
  H     -4.078840  -12.468700   68.644100
  C     -3.035720  -11.079300   67.334700
  H     -1.994530  -11.357900   67.199900
  H     -2.994440   -9.951010   67.430400
  C     -3.912290  -11.663700   66.205800
  H     -4.930210  -11.255600   66.280600
  H     -3.963460  -12.790800   66.145100
  H     -3.510000  -11.515900   65.241900
  H     -2.944490  -17.291900   70.164900
  H     -0.676523   -9.276300   71.579000

 Total Charge           Charge          ....    0
 Multiplicity           Mult            ....    1
 Number of Electrons    NEL             ....  134
 Basis Dimension        Dim             ....  322

ORBITAL ENERGIES
----------------

  NO   OCC          E(Eh)            E(eV)
   0   2.0000     -88.969808     -2420.9916
   1   2.0000     -88.966827     -2420.9104
   2   2.0000     -10.327581      -281.0278
   3   2.0000     -10.325859      -280.9809
   4   2.0000     -10.317917      -280.7648
   5   2.0000     -10.317912      -280.7647
   6   2.0000     -10.304513      -280.4001
   7   2.0000     -10.296872      -280.1921
   8   2.0000     -10.292019      -280.0601
   9   2.0000     -10.290758      -280.0258
  10   2.0000     -10.287876      -279.9473
  11   2.0000     -10.287734      -279.9435
  12   2.0000     -10.285761      -279.8898
  13   2.0000     -10.285093      -279.8716
  14   2.0000     -10.280549      -279.7480
  15   2.0000     -10.275845      -279.6200
  16   2.0000      -8.083443      -219.9617
  17   2.0000      -8.080968      -219.8943
  18   2.0000      -6.042069      -164.4131
  19   2.0000      -6.039386      -164.3400
  20   2.0000      -6.037934      -164.3005
  21   2.0000      -6.035541      -164.2354
  22   2.0000      -6.034301      -164.2017
  23   2.0000      -6.031886      -164.1360
  24   2.0000      -1.001007       -27.2388
  25   2.0000      -0.980362       -26.6770
  26   2.0000      -0.918343       -24.9894
  27   2.0000      -0.903980       -24.5985
  28   2.0000      -0.868033       -23.6204
  29   2.0000      -0.849458       -23.1149
  30   2.0000      -0.847888       -23.0722
  31   2.0000      -0.812162       -22.1000
  32   2.0000      -0.783223       -21.3126
  33   2.0000      -0.768298       -20.9065
  34   2.0000      -0.713285       -19.4095
  35   2.0000      -0.701658       -19.0931
  36   2.0000      -0.697568       -18.9818
  37   2.0000      -0.652354       -17.7515
  38   2.0000      -0.637824       -17.3561
  39   2.0000      -0.618238       -16.8231
  40   2.0000      -0.596516       -16.2320
  41   2.0000      -0.576459       -15.6863
  42   2.0000      -0.565195       -15.3797
  43   2.0000      -0.555526       -15.1166
  44   2.0000      -0.535344       -14.5675
  45   2.0000      -0.524022       -14.2594
  46   2.0000      -0.517496       -14.0818
  47   2.0000      -0.507931       -13.8215
  48   2.0000      -0.501829       -13.6555
  49   2.0000      -0.494523       -13.4566
  50   2.0000      -0.490130       -13.3371
  51   2.0000      -0.474956       -12.9242
  52   2.0000      -0.470591       -12.8054
  53   2.0000      -0.469345       -12.7715
  54   2.0000      -0.457540       -12.4503
  55   2.0000      -0.445888       -12.1332
  56   2.0000      -0.442838       -12.0502
  57   2.0000      -0.439194       -11.9511
  58   2.0000      -0.435302       -11.8452
  59   2.0000      -0.430146       -11.7049
  60   2.0000      -0.424342       -11.5469
  61   2.0000      -0.417340       -11.3564
  62   2.0000      -0.402255       -10.9459
  63   2.0000      -0.337805        -9.1921
  64   2.0000      -0.329316        -8.9611
  65   2.0000      -0.322550        -8.7770
  66   2.0000      -0.298478        -8.1220
  67   0.0000       0.035978         0.9790
  68   0.0000       0.054140         1.4732
  69   0.0000       0.120781         3.2866
  70   0.0000       0.124317         3.3828
  71   0.0000       0.128672         3.5014

MULLIKEN ATOMIC CHARGES
-----------------------
   0 S :    0.126052
   1 C :   -0.125363
   2 C :   -0.111638
   3 C :    0.042826
   4 C :   -0.163745
   5 H :   -0.005349
   6 C :    0.130094
   7 H :    0.031509
   8 H :    0.008666
   9 C :   -0.075398
  10 H :    0.021087
  11 H :    0.023544
  12 C :   -0.040657
  13 H :    0.030883
  14 H :    0.022600
  15 H :    0.032079
  16 S :    0.112568
  17 C :   -0.107190
  18 C :   -0.050972
  19 C :    0.008133
  20 C :   -0.191918
  21 H :    0.022078
  22 C :    0.063972
  23 H :    0.030844
  24 H :    0.019415
  25 C :   -0.092830
  26 H :    0.038384
  27 H :    0.036545
  28 C :   -0.044125
  29 H :    0.036563
  30 H :    0.040804
  31 H :    0.018708
  32 H :    0.044568
  33 H :    0.067261
Sum of atomic charges:    0.0000000

LOEWDIN ATOMIC CHARGES
----------------------
   0 S :    0.409225
   1 C :   -0.198668
   2 C :   -0.060530
   3 C :   -0.057707
   4 C :   -0.207994
   5 H :    0.023616
   6 C :   -0.031275
   7 H :    0.029592
   8 H :    0.037985
   9 C :   -0.035798
  10 H :    0.020555
  11 H :    0.026566
  12 C :   -0.060857
  13 H :    0.024733
  14 H :    0.024126
  15 H :    0.022560
  16 S :    0.398692
  17 C :   -0.185070
  18 C :   -0.076299
  19 C :   -0.047120
  20 C :   -0.201814
  21 H :    0.034085
  22 C :   -0.034551
  23 H :    0.032781
  24 H :    0.026077
  25 C :   -0.041340
  26 H :    0.024509
  27 H :    0.028298
  28 C :   -0.069176
  29 H :    0.028146
  30 H :    0.036110
  31 H :    0.018543
  32 H :    0.027757
  33 H :    0.034242

  Mayer bond orders larger than 0.100000
B(  0-S ,  1-C ) :   1.1363 B(  0-S ,  4-C ) :   1.1583 B(  1-C ,  2-C ) :   1.5798
B(  1-C ,  4-C ) :   0.1042 B(  1-C , 32-H ) :   0.9627 B(  2-C ,  3-C ) :   1.2561
B(  2-C ,  6-C ) :   1.0311 B(  3-C ,  4-C ) :   1.5492 B(  3-C ,  5-H ) :   1.0005
B(  4-C , 20-C ) :   1.0473 B(  6-C ,  7-H ) :   0.9259 B(  6-C ,  8-H ) :   0.9304
B(  6-C ,  9-C ) :   1.0641 B(  9-C , 10-H ) :   0.9513 B(  9-C , 11-H ) :   0.9563
B(  9-C , 12-C ) :   1.0928 B( 12-C , 13-H ) :   0.9755 B( 12-C , 14-H ) :   0.9743
B( 12-C , 15-H ) :   0.9769 B( 16-S , 17-C ) :   1.1670 B( 16-S , 20-C ) :   1.1416
B( 17-C , 18-C ) :   1.6089 B( 17-C , 20-C ) :   0.1059 B( 17-C , 33-H ) :   0.9578
B( 18-C , 19-C ) :   1.2522 B( 18-C , 21-H ) :   0.9920 B( 19-C , 20-C ) :   1.5725
B( 19-C , 22-C ) :   1.0424 B( 22-C , 23-H ) :   0.9301 B( 22-C , 24-H ) :   0.9384
B( 22-C , 25-C ) :   1.0418 B( 25-C , 26-H ) :   0.9644 B( 25-C , 27-H ) :   0.9525
B( 25-C , 28-C ) :   1.0813 B( 28-C , 29-H ) :   0.9739 B( 28-C , 30-H ) :   0.9722
B( 28-C , 31-H ) :   0.9732

Dispersion correction           -0.013914496
FINAL SINGLE POINT ENERGY     -1339.869650653783

DIPOLE MOMENT
-------------
                                X             Y             Z
Electronic contribution:     24.33383       4.03926      14.70187
Nuclear contribution   :    -24.88449      -3.94800     -15.07979
                        -----------------------------------------
Total Dipole Moment    :     -0.55066       0.09126      -0.37791
                        -----------------------------------------
Magnitude (a.u.)       :      0.67407
Magnitude (Debye)      :      1.71335

Rotational constants in cm-1:     0.017019     0.008305     0.006883
Rotational constants in MHz :   510.214853   248.968114   206.353751

                             ****ORCA TERMINATED NORMALLY****
TOTAL RUN TIME: 0 days 0 hours 0 minutes 34 seconds 193 msec
