                         Program Version 4.2.1 -  RELEASE  -
|  1> ! wB97X-D3 SP def2-SVP
|  2> %pal
|  3> nprocs 16
|  4> end
|  5>
|  6> * xyz 0 1
|  7> S 	 59.0401 	 3.57822 	 75.9391
|  8> C 	 58.2039 	 4.59216 	 77.1357
|  9> C 	 57.3188 	 5.44902 	 76.5124
| 10> C 	 57.2421 	 5.27811 	 75.1008
| 11> C 	 58.1594 	 4.32274 	 74.6381
| 12> H 	 56.7275 	 5.67132 	 74.3258
| 13> C 	 56.3499 	 6.46548 	 77.1053
| 14> H 	 56.5614 	 6.18616 	 78.1467
| 15> H 	 55.4428 	 5.97273 	 77.0203
| 16> C 	 56.5511 	 7.9457 	 76.8591
| 17> H 	 57.5668 	 8.09495 	 77.1394
| 18> H 	 56.2295 	 8.17822 	 75.8212
| 19> C 	 55.8579 	 8.85564 	 77.8418
| 20> H 	 54.7975 	 8.82375 	 77.4861
| 21> H 	 56.0357 	 8.51425 	 78.8541
| 22> H 	 56.03 	 9.94648 	 77.8563
| 23> S 	 58.1184 	 2.10852 	 72.9689
| 24> C 	 58.0131 	 2.27662 	 71.2185
| 25> C 	 58.0186 	 3.60497 	 70.8865
| 26> C 	 58.1436 	 4.49446 	 71.9987
| 27> C 	 58.3024 	 3.88819 	 73.2246
| 28> H 	 57.8065 	 3.92121 	 69.8751
| 29> C 	 58.1264 	 6.03119 	 71.8514
| 30> H 	 58.2875 	 6.45684 	 72.8598
| 31> H 	 57.0867 	 6.22774 	 71.6064
| 32> C 	 59.1478 	 6.58882 	 70.87
| 33> H 	 59.1403 	 5.92392 	 70.02
| 34> H 	 60.1136 	 6.5356 	 71.277
| 35> C 	 58.7984 	 8.03092 	 70.6111
| 36> H 	 57.7163 	 7.99453 	 70.1941
| 37> H 	 59.3922 	 8.4889 	 69.8492
| 38> H 	 58.8099 	 8.70602 	 71.4377
| 39> H 	 58.2749 	 4.49875 	 78.183
| 40> H 	 57.797 	 1.40841 	 70.5889
| 41> *
| 42>
| 43>                          ****END OF INPUT****

CARTESIAN COORDINATES (ANGSTROEM)
---------------------------------
  S     59.040100    3.578220   75.939100
  C     58.203900    4.592160   77.135700
  C     57.318800    5.449020   76.512400
  C     57.242100    5.278110   75.100800
  C     58.159400    4.322740   74.638100
  H     56.727500    5.671320   74.325800
  C     56.349900    6.465480   77.105300
  H     56.561400    6.186160   78.146700
  H     55.442800    5.972730   77.020300
  C     56.551100    7.945700   76.859100
  H     57.566800    8.094950   77.139400
  H     56.229500    8.178220   75.821200
  C     55.857900    8.855640   77.841800
  H     54.797500    8.823750   77.486100
  H     56.035700    8.514250   78.854100
  H     56.030000    9.946480   77.856300
  S     58.118400    2.108520   72.968900
  C     58.013100    2.276620   71.218500
  C     58.018600    3.604970   70.886500
  C     58.143600    4.494460   71.998700
  C     58.302400    3.888190   73.224600
  H     57.806500    3.921210   69.875100
  C     58.126400    6.031190   71.851400
  H     58.287500    6.456840   72.859800
  H     57.086700    6.227740   71.606400
  C     59.147800    6.588820   70.870000
  H     59.140300    5.923920   70.020000
  H     60.113600    6.535600   71.277000
  C     58.798400    8.030920   70.611100
  H     57.716300    7.994530   70.194100
  H     59.392200    8.488900   69.849200
  H     58.809900    8.706020   71.437700
  H     58.274900    4.498750   78.183000
  H     57.797000    1.408410   70.588900

 Total Charge           Charge          ....    0
 Multiplicity           Mult            ....    1
 Number of Electrons    NEL             ....  134
 Basis Dimension        Dim             ....  322

ORBITAL ENERGIES
----------------

  NO   OCC          E(Eh)            E(eV)
   0   2.0000     -88.968649     -2420.9600
   1   2.0000     -88.958406     -2420.6813
   2   2.0000     -10.332374      -281.1582
   3   2.0000     -10.330380      -281.1039
   4   2.0000     -10.322800      -280.8977
   5   2.0000     -10.315344      -280.6948
   6   2.0000     -10.305207      -280.4190
   7   2.0000     -10.303891      -280.3831
   8   2.0000     -10.296169      -280.1730
   9   2.0000     -10.291614      -280.0491
  10   2.0000     -10.290059      -280.0067
  11   2.0000     -10.285880      -279.8930
  12   2.0000     -10.284982      -279.8686
  13   2.0000     -10.281583      -279.7761
  14   2.0000     -10.280281      -279.7407
  15   2.0000     -10.279119      -279.7090
  16   2.0000      -8.082914      -219.9473
  17   2.0000      -8.072731      -219.6702
  18   2.0000      -6.041526      -164.3983
  19   2.0000      -6.037431      -164.2869
  20   2.0000      -6.033657      -164.1842
  21   2.0000      -6.031320      -164.1206
  22   2.0000      -6.027297      -164.0111
  23   2.0000      -6.023397      -163.9050
  24   2.0000      -1.002778       -27.2870
  25   2.0000      -0.981779       -26.7156
  26   2.0000      -0.919128       -25.0108
  27   2.0000      -0.913803       -24.8659
  28   2.0000      -0.871909       -23.7259
  29   2.0000      -0.856191       -23.2981
  30   2.0000      -0.844770       -22.9874
  31   2.0000      -0.817093       -22.2342
  32   2.0000      -0.782578       -21.2950
  33   2.0000      -0.771933       -21.0054
  34   2.0000      -0.710499       -19.3337
  35   2.0000      -0.704464       -19.1694
  36   2.0000      -0.698954       -19.0195
  37   2.0000      -0.661278       -17.9943
  38   2.0000      -0.651521       -17.7288
  39   2.0000      -0.614169       -16.7124
  40   2.0000      -0.596873       -16.2418
  41   2.0000      -0.586327       -15.9548
  42   2.0000      -0.569812       -15.5054
  43   2.0000      -0.561837       -15.2884
  44   2.0000      -0.530549       -14.4370
  45   2.0000      -0.525270       -14.2933
  46   2.0000      -0.520746       -14.1702
  47   2.0000      -0.516240       -14.0476
  48   2.0000      -0.512566       -13.9476
  49   2.0000      -0.502932       -13.6855
  50   2.0000      -0.493174       -13.4200
  51   2.0000      -0.483179       -13.1480
  52   2.0000      -0.475981       -12.9521
  53   2.0000      -0.472454       -12.8561
  54   2.0000      -0.455005       -12.3813
  55   2.0000      -0.448858       -12.2140
  56   2.0000      -0.446675       -12.1546
  57   2.0000      -0.435290       -11.8449
  58   2.0000      -0.428900       -11.6709
  59   2.0000      -0.422991       -11.5102
  60   2.0000      -0.418618       -11.3912
  61   2.0000      -0.404316       -11.0020
  62   2.0000      -0.402416       -10.9503
  63   2.0000      -0.349458        -9.5092
  64   2.0000      -0.333413        -9.0726
  65   2.0000      -0.328020        -8.9259
  66   2.0000      -0.293816        -7.9951
  67   0.0000       0.027680         0.7532
  68   0.0000       0.072065         1.9610
  69   0.0000       0.109982         2.9928
  70   0.0000       0.121022         3.2932
  71   0.0000       0.128580         3.4988

MULLIKEN ATOMIC CHARGES
-----------------------
   0 S :    0.112650
   1 C :   -0.102406
   2 C :   -0.117627
   3 C :    0.079265
   4 C :   -0.168934
   5 H :   -0.038181
   6 C :    0.099320
   7 H :   -0.016492
   8 H :    0.017413
   9 C :   -0.000147
  10 H :    0.025128
  11 H :    0.042054
  12 C :   -0.075881
  13 H :    0.029147
  14 H :    0.032945
  15 H :    0.040843
  16 S :    0.062268
  17 C :   -0.093674
  18 C :   -0.022097
  19 C :   -0.081466
  20 C :   -0.107924
  21 H :    0.021166
  22 C :    0.017748
  23 H :    0.032339
  24 H :    0.033492
  25 C :   -0.008804
  26 H :    0.021487
  27 H :    0.022338
  28 C :   -0.045223
  29 H :    0.026738
  30 H :    0.027141
  31 H :    0.031684
  32 H :    0.030983
  33 H :    0.072707
Sum of atomic charges:    0.0000000

LOEWDIN ATOMIC CHARGES
----------------------
   0 S :    0.404008
   1 C :   -0.191968
   2 C :   -0.053515
   3 C :   -0.054156
   4 C :   -0.188675
   5 H :    0.012501
   6 C :   -0.034187
   7 H :    0.029302
   8 H :    0.024444
   9 C :   -0.036752
  10 H :    0.028572
  11 H :    0.030151
  12 C :   -0.070772
  13 H :    0.028949
  14 H :    0.023713
  15 H :    0.029424
  16 S :    0.367428
  17 C :   -0.170332
  18 C :   -0.080121
  19 C :   -0.058009
  20 C :   -0.182469
  21 H :    0.030845
  22 C :   -0.030416
  23 H :    0.031798
  24 H :    0.028174
  25 C :   -0.033710
  26 H :    0.022679
  27 H :    0.022466
  28 C :   -0.062109
  29 H :    0.032981
  30 H :    0.020520
  31 H :    0.022532
  32 H :    0.021048
  33 H :    0.035657

  Mayer bond orders larger than 0.100000
B(  0-S ,  1-C ) :   1.1188 B(  0-S ,  4-C ) :   1.1635 B(  1-C ,  2-C ) :   1.6270
B(  1-C , 32-H ) :   0.9712 B(  2-C ,  3-C ) :   1.2050 B(  2-C ,  6-C ) :   1.0031
B(  3-C ,  4-C ) :   1.5717 B(  3-C ,  5-H ) :   1.0094 B(  4-C , 20-C ) :   1.0104
B(  6-C ,  7-H ) :   0.9253 B(  6-C ,  8-H ) :   0.9306 B(  6-C ,  9-C ) :   1.0490
B(  9-C , 10-H ) :   0.9497 B(  9-C , 11-H ) :   0.9572 B(  9-C , 12-C ) :   1.0828
B( 12-C , 13-H ) :   0.9766 B( 12-C , 14-H ) :   0.9741 B( 12-C , 15-H ) :   0.9770
B( 16-S , 17-C ) :   1.1610 B( 16-S , 20-C ) :   1.1128 B( 17-C , 18-C ) :   1.5993
B( 17-C , 33-H ) :   0.9669 B( 18-C , 19-C ) :   1.2334 B( 18-C , 21-H ) :   0.9909
B( 19-C , 20-C ) :   1.6387 B( 19-C , 22-C ) :   1.0173 B( 22-C , 23-H ) :   0.9384
B( 22-C , 24-H ) :   0.9366 B( 22-C , 25-C ) :   1.0609 B( 25-C , 26-H ) :   0.9579
B( 25-C , 27-H ) :   0.9477 B( 25-C , 28-C ) :   1.0818 B( 28-C , 29-H ) :   0.9761
B( 28-C , 30-H ) :   0.9728 B( 28-C , 31-H ) :   0.9743

Dispersion correction           -0.013393563
FINAL SINGLE POINT ENERGY     -1339.845649492799

DIPOLE MOMENT
-------------
                                X             Y             Z
Electronic contribution:      7.93897     -29.94704       1.20887
Nuclear contribution   :     -8.35365      30.56463      -1.39381
                        -----------------------------------------
Total Dipole Moment    :     -0.41468       0.61759      -0.18493
                        -----------------------------------------
Magnitude (a.u.)       :      0.76654
Magnitude (Debye)      :      1.94838

Rotational constants in cm-1:     0.016452     0.008713     0.006236
Rotational constants in MHz :   493.229885   261.217709   186.937144

                             ****ORCA TERMINATED NORMALLY****
TOTAL RUN TIME: 0 days 0 hours 0 minutes 30 seconds 1 msec
