                         Program Version 4.2.1 -  RELEASE  -
|  1> ! wB97X-D3 SP def2-SVP
|  2> %pal
|  3> nprocs 16
|  4> end
|  5>
|  6> * xyz 0 1
|  7> S 	 1.4408 	 32.4018 	 39.9711
|  8> C 	 2.13246 	 33.3683 	 38.7375
|  9> C 	 1.2161 	 33.8095 	 37.7956
| 10> C 	 -0.143286 	 33.3677 	 38.1326
| 11> C 	 -0.132582 	 32.639 	 39.328
| 12> H 	 -1.01043 	 33.447 	 37.411
| 13> C 	 1.50859 	 34.6095 	 36.5099
| 14> H 	 2.36404 	 35.1113 	 36.7679
| 15> H 	 0.855227 	 35.4623 	 36.4906
| 16> C 	 1.6102 	 33.8136 	 35.1839
| 17> H 	 2.58437 	 33.2918 	 35.2466
| 18> H 	 0.752086 	 33.1331 	 35.119
| 19> C 	 1.55697 	 34.7874 	 34.0201
| 20> H 	 0.576199 	 35.1746 	 34.0369
| 21> H 	 2.15607 	 35.6831 	 34.1207
| 22> H 	 1.83816 	 34.3335 	 33.1637
| 23> S 	 -1.77814 	 32.2381 	 41.5246
| 24> C 	 -3.27636 	 31.3138 	 41.3168
| 25> C 	 -3.37881 	 30.7712 	 40.0653
| 26> C 	 -2.23761 	 31.1156 	 39.2549
| 27> C 	 -1.31673 	 31.9525 	 39.8839
| 28> H 	 -4.17028 	 30.0874 	 39.7231
| 29> C 	 -2.10095 	 30.6127 	 37.8827
| 30> H 	 -2.00447 	 29.5743 	 37.8232
| 31> H 	 -1.12394 	 31.0333 	 37.5737
| 32> C 	 -3.1931 	 31.1268 	 36.9206
| 33> H 	 -3.06029 	 32.2453 	 36.991
| 34> H 	 -4.24273 	 30.9215 	 37.1542
| 35> C 	 -2.93355 	 30.7653 	 35.3951
| 36> H 	 -1.89073 	 30.8957 	 35.0472
| 37> H 	 -3.49127 	 31.4175 	 34.7612
| 38> H 	 -3.20218 	 29.7285 	 35.2578
| 39> H 	 3.19852 	 33.5467 	 38.7936
| 40> H 	 -3.89482 	 31.1711 	 42.2179
| 41> *
| 42>
| 43>                          ****END OF INPUT****

CARTESIAN COORDINATES (ANGSTROEM)
---------------------------------
  S      1.440800   32.401800   39.971100
  C      2.132460   33.368300   38.737500
  C      1.216100   33.809500   37.795600
  C     -0.143286   33.367700   38.132600
  C     -0.132582   32.639000   39.328000
  H     -1.010430   33.447000   37.411000
  C      1.508590   34.609500   36.509900
  H      2.364040   35.111300   36.767900
  H      0.855227   35.462300   36.490600
  C      1.610200   33.813600   35.183900
  H      2.584370   33.291800   35.246600
  H      0.752086   33.133100   35.119000
  C      1.556970   34.787400   34.020100
  H      0.576199   35.174600   34.036900
  H      2.156070   35.683100   34.120700
  H      1.838160   34.333500   33.163700
  S     -1.778140   32.238100   41.524600
  C     -3.276360   31.313800   41.316800
  C     -3.378810   30.771200   40.065300
  C     -2.237610   31.115600   39.254900
  C     -1.316730   31.952500   39.883900
  H     -4.170280   30.087400   39.723100
  C     -2.100950   30.612700   37.882700
  H     -2.004470   29.574300   37.823200
  H     -1.123940   31.033300   37.573700
  C     -3.193100   31.126800   36.920600
  H     -3.060290   32.245300   36.991000
  H     -4.242730   30.921500   37.154200
  C     -2.933550   30.765300   35.395100
  H     -1.890730   30.895700   35.047200
  H     -3.491270   31.417500   34.761200
  H     -3.202180   29.728500   35.257800
  H      3.198520   33.546700   38.793600
  H     -3.894820   31.171100   42.217900

 Total Charge           Charge          ....    0
 Multiplicity           Mult            ....    1
 Number of Electrons    NEL             ....  134
 Basis Dimension        Dim             ....  322

ORBITAL ENERGIES
----------------

  NO   OCC          E(Eh)            E(eV)
   0   2.0000     -88.967866     -2420.9387
   1   2.0000     -88.960528     -2420.7390
   2   2.0000     -10.329250      -281.0732
   3   2.0000     -10.322673      -280.8942
   4   2.0000     -10.320109      -280.8245
   5   2.0000     -10.312734      -280.6238
   6   2.0000     -10.305251      -280.4201
   7   2.0000     -10.302828      -280.3542
   8   2.0000     -10.296950      -280.1942
   9   2.0000     -10.296078      -280.1705
  10   2.0000     -10.294433      -280.1258
  11   2.0000     -10.292366      -280.0695
  12   2.0000     -10.284265      -279.8491
  13   2.0000     -10.280955      -279.7590
  14   2.0000     -10.279547      -279.7207
  15   2.0000     -10.266456      -279.3645
  16   2.0000      -8.083917      -219.9746
  17   2.0000      -8.075769      -219.7529
  18   2.0000      -6.042273      -164.4186
  19   2.0000      -6.038242      -164.3089
  20   2.0000      -6.034776      -164.2146
  21   2.0000      -6.034253      -164.2004
  22   2.0000      -6.030188      -164.0898
  23   2.0000      -6.026559      -163.9910
  24   2.0000      -1.007431       -27.4136
  25   2.0000      -0.984672       -26.7943
  26   2.0000      -0.913898       -24.8684
  27   2.0000      -0.906651       -24.6712
  28   2.0000      -0.869054       -23.6482
  29   2.0000      -0.852759       -23.2047
  30   2.0000      -0.844649       -22.9841
  31   2.0000      -0.814418       -22.1614
  32   2.0000      -0.784721       -21.3534
  33   2.0000      -0.768758       -20.9190
  34   2.0000      -0.709205       -19.2984
  35   2.0000      -0.700836       -19.0707
  36   2.0000      -0.690065       -18.7776
  37   2.0000      -0.661666       -18.0048
  38   2.0000      -0.642589       -17.4857
  39   2.0000      -0.617623       -16.8064
  40   2.0000      -0.597361       -16.2550
  41   2.0000      -0.574388       -15.6299
  42   2.0000      -0.565451       -15.3867
  43   2.0000      -0.557444       -15.1688
  44   2.0000      -0.535333       -14.5672
  45   2.0000      -0.524212       -14.2645
  46   2.0000      -0.519789       -14.1442
  47   2.0000      -0.508423       -13.8349
  48   2.0000      -0.506100       -13.7717
  49   2.0000      -0.500879       -13.6296
  50   2.0000      -0.490393       -13.3443
  51   2.0000      -0.477984       -13.0066
  52   2.0000      -0.468471       -12.7478
  53   2.0000      -0.465593       -12.6694
  54   2.0000      -0.459556       -12.5052
  55   2.0000      -0.450092       -12.2476
  56   2.0000      -0.443974       -12.0811
  57   2.0000      -0.442864       -12.0509
  58   2.0000      -0.432955       -11.7813
  59   2.0000      -0.422953       -11.5091
  60   2.0000      -0.422206       -11.4888
  61   2.0000      -0.419146       -11.4056
  62   2.0000      -0.415155       -11.2969
  63   2.0000      -0.344698        -9.3797
  64   2.0000      -0.330713        -8.9992
  65   2.0000      -0.325957        -8.8697
  66   2.0000      -0.295656        -8.0452
  67   0.0000       0.037466         1.0195
  68   0.0000       0.073495         1.9999
  69   0.0000       0.112911         3.0725
  70   0.0000       0.116927         3.1818
  71   0.0000       0.124622         3.3911

MULLIKEN ATOMIC CHARGES
-----------------------
   0 S :    0.130151
   1 C :   -0.132764
   2 C :   -0.117627
   3 C :    0.010040
   4 C :   -0.158339
   5 H :    0.040221
   6 C :    0.093257
   7 H :   -0.014365
   8 H :    0.011810
   9 C :   -0.060579
  10 H :    0.038252
  11 H :    0.036863
  12 C :    0.020664
  13 H :    0.016771
  14 H :    0.017879
  15 H :    0.014218
  16 S :    0.092507
  17 C :   -0.110142
  18 C :   -0.005625
  19 C :   -0.058749
  20 C :   -0.148325
  21 H :    0.031074
  22 C :    0.098804
  23 H :    0.017679
  24 H :    0.021504
  25 C :   -0.126958
  26 H :    0.027921
  27 H :    0.040596
  28 C :   -0.038134
  29 H :    0.028458
  30 H :    0.029779
  31 H :    0.033934
  32 H :    0.048013
  33 H :    0.071212
Sum of atomic charges:   -0.0000000

LOEWDIN ATOMIC CHARGES
----------------------
   0 S :    0.439049
   1 C :   -0.210922
   2 C :   -0.058798
   3 C :   -0.066502
   4 C :   -0.209455
   5 H :    0.041553
   6 C :   -0.032370
   7 H :    0.018597
   8 H :    0.027572
   9 C :   -0.028494
  10 H :    0.029149
  11 H :    0.025898
  12 C :   -0.051119
  13 H :    0.023563
  14 H :    0.025901
  15 H :    0.011434
  16 S :    0.398559
  17 C :   -0.174800
  18 C :   -0.070158
  19 C :   -0.057299
  20 C :   -0.212026
  21 H :    0.038679
  22 C :   -0.034884
  23 H :    0.020910
  24 H :    0.036065
  25 C :   -0.039373
  26 H :    0.024272
  27 H :    0.023113
  28 C :   -0.064990
  29 H :    0.026176
  30 H :    0.021844
  31 H :    0.022684
  32 H :    0.024656
  33 H :    0.031517

  Mayer bond orders larger than 0.100000
B(  0-S ,  1-C ) :   1.1481 B(  0-S ,  4-C ) :   1.1861 B(  1-C ,  2-C ) :   1.6070
B(  1-C , 32-H ) :   0.9714 B(  2-C ,  3-C ) :   1.2441 B(  2-C ,  6-C ) :   1.0116
B(  3-C ,  4-C ) :   1.5523 B(  3-C ,  5-H ) :   0.9844 B(  4-C , 20-C ) :   1.0012
B(  6-C ,  7-H ) :   0.9245 B(  6-C ,  8-H ) :   0.9413 B(  6-C ,  9-C ) :   1.0473
B(  9-C , 10-H ) :   0.9547 B(  9-C , 11-H ) :   0.9629 B(  9-C , 12-C ) :   1.0781
B( 12-C , 13-H ) :   0.9740 B( 12-C , 14-H ) :   0.9725 B( 12-C , 15-H ) :   0.9724
B( 16-S , 17-C ) :   1.1573 B( 16-S , 20-C ) :   1.1410 B( 17-C , 18-C ) :   1.5916
B( 17-C , 33-H ) :   0.9673 B( 18-C , 19-C ) :   1.2327 B( 18-C , 21-H ) :   0.9898
B( 19-C , 20-C ) :   1.6012 B( 19-C , 22-C ) :   1.0616 B( 22-C , 23-H ) :   0.9281
B( 22-C , 24-H ) :   0.9279 B( 22-C , 25-C ) :   1.0452 B( 25-C , 26-H ) :   0.9563
B( 25-C , 27-H ) :   0.9593 B( 25-C , 28-C ) :   1.0762 B( 28-C , 29-H ) :   0.9762
B( 28-C , 30-H ) :   0.9773 B( 28-C , 31-H ) :   0.9768

Dispersion correction           -0.014454759
FINAL SINGLE POINT ENERGY     -1339.874900979389

DIPOLE MOMENT
-------------
                                X             Y             Z
Electronic contribution:      2.57943      -2.68898      32.93265
Nuclear contribution   :     -2.61837       2.64579     -33.62327
                        -----------------------------------------
Total Dipole Moment    :     -0.03893      -0.04318      -0.69061
                        -----------------------------------------
Magnitude (a.u.)       :      0.69306
Magnitude (Debye)      :      1.76161

Rotational constants in cm-1:     0.017759     0.009247     0.006531
Rotational constants in MHz :   532.395731   277.225590   195.802682

                             ****ORCA TERMINATED NORMALLY****
TOTAL RUN TIME: 0 days 0 hours 0 minutes 35 seconds 441 msec
