                         Program Version 4.2.1 -  RELEASE  -
|  1> ! wB97X-D3 SP def2-SVP
|  2> %pal
|  3> nprocs 16
|  4> end
|  5>
|  6> * xyz 0 1
|  7> S 	 55.7725 	 3.06038 	 82.2321
|  8> C 	 54.4111 	 4.13796 	 82.1566
|  9> C 	 53.3556 	 3.49105 	 82.8372
| 10> C 	 53.6239 	 2.12548 	 83.2207
| 11> C 	 54.9056 	 1.69445 	 82.9671
| 12> H 	 53.008 	 1.39709 	 83.7433
| 13> C 	 51.9944 	 4.07284 	 82.8648
| 14> H 	 52.0537 	 4.98893 	 83.4172
| 15> H 	 51.3371 	 3.4549 	 83.4486
| 16> C 	 51.2425 	 4.3101 	 81.5119
| 17> H 	 50.3903 	 4.86007 	 81.728
| 18> H 	 51.8788 	 4.93191 	 80.813
| 19> C 	 51.0057 	 3.00996 	 80.7514
| 20> H 	 52.0106 	 2.47943 	 80.5582
| 21> H 	 50.3295 	 2.36186 	 81.2191
| 22> H 	 50.6042 	 3.23258 	 79.6789
| 23> S 	 54.9847 	 -0.527237 	 84.595
| 24> C 	 56.1846 	 -1.76059 	 84.3521
| 25> C 	 56.8885 	 -1.57487 	 83.2312
| 26> C 	 56.4489 	 -0.385501 	 82.5141
| 27> C 	 55.4889 	 0.398437 	 83.1454
| 28> H 	 57.7348 	 -2.27888 	 82.9559
| 29> C 	 57.1191 	 0.0306737 	 81.2039
| 30> H 	 58.0884 	 0.47552 	 81.3798
| 31> H 	 56.5276 	 0.773526 	 80.8472
| 32> C 	 57.3466 	 -0.937966 	 80.0328
| 33> H 	 56.3243 	 -1.34961 	 79.7309
| 34> H 	 58.1125 	 -1.75094 	 80.1804
| 35> C 	 57.8743 	 -0.297947 	 78.7269
| 36> H 	 58.2153 	 -1.04799 	 77.9534
| 37> H 	 58.7861 	 0.261105 	 79.0336
| 38> H 	 57.2235 	 0.42046 	 78.2269
| 39> H 	 54.4186 	 5.07101 	 81.6197
| 40> H 	 56.4386 	 -2.52833 	 85.0691
| 41> *
| 42>
| 43>                          ****END OF INPUT****

CARTESIAN COORDINATES (ANGSTROEM)
---------------------------------
  S     55.772500    3.060380   82.232100
  C     54.411100    4.137960   82.156600
  C     53.355600    3.491050   82.837200
  C     53.623900    2.125480   83.220700
  C     54.905600    1.694450   82.967100
  H     53.008000    1.397090   83.743300
  C     51.994400    4.072840   82.864800
  H     52.053700    4.988930   83.417200
  H     51.337100    3.454900   83.448600
  C     51.242500    4.310100   81.511900
  H     50.390300    4.860070   81.728000
  H     51.878800    4.931910   80.813000
  C     51.005700    3.009960   80.751400
  H     52.010600    2.479430   80.558200
  H     50.329500    2.361860   81.219100
  H     50.604200    3.232580   79.678900
  S     54.984700   -0.527237   84.595000
  C     56.184600   -1.760590   84.352100
  C     56.888500   -1.574870   83.231200
  C     56.448900   -0.385501   82.514100
  C     55.488900    0.398437   83.145400
  H     57.734800   -2.278880   82.955900
  C     57.119100    0.030674   81.203900
  H     58.088400    0.475520   81.379800
  H     56.527600    0.773526   80.847200
  C     57.346600   -0.937966   80.032800
  H     56.324300   -1.349610   79.730900
  H     58.112500   -1.750940   80.180400
  C     57.874300   -0.297947   78.726900
  H     58.215300   -1.047990   77.953400
  H     58.786100    0.261105   79.033600
  H     57.223500    0.420460   78.226900
  H     54.418600    5.071010   81.619700
  H     56.438600   -2.528330   85.069100

 Total Charge           Charge          ....    0
 Multiplicity           Mult            ....    1
 Number of Electrons    NEL             ....  134
 Basis Dimension        Dim             ....  322

ORBITAL ENERGIES
----------------

  NO   OCC          E(Eh)            E(eV)
   0   2.0000     -88.965873     -2420.8845
   1   2.0000     -88.962878     -2420.8030
   2   2.0000     -10.335253      -281.2365
   3   2.0000     -10.334956      -281.2285
   4   2.0000     -10.320116      -280.8246
   5   2.0000     -10.317353      -280.7494
   6   2.0000     -10.313081      -280.6332
   7   2.0000     -10.307185      -280.4728
   8   2.0000     -10.299117      -280.2532
   9   2.0000     -10.298525      -280.2371
  10   2.0000     -10.295557      -280.1564
  11   2.0000     -10.287817      -279.9457
  12   2.0000     -10.284118      -279.8451
  13   2.0000     -10.283409      -279.8258
  14   2.0000     -10.282985      -279.8142
  15   2.0000     -10.281749      -279.7806
  16   2.0000      -8.079988      -219.8677
  17   2.0000      -8.077714      -219.8058
  18   2.0000      -6.038550      -164.3173
  19   2.0000      -6.036435      -164.2597
  20   2.0000      -6.034310      -164.2019
  21   2.0000      -6.032231      -164.1453
  22   2.0000      -6.030966      -164.1109
  23   2.0000      -6.028213      -164.0360
  24   2.0000      -1.008022       -27.4297
  25   2.0000      -0.985998       -26.8304
  26   2.0000      -0.912113       -24.8199
  27   2.0000      -0.905518       -24.6404
  28   2.0000      -0.877834       -23.8871
  29   2.0000      -0.849592       -23.1186
  30   2.0000      -0.841611       -22.9014
  31   2.0000      -0.821265       -22.3478
  32   2.0000      -0.781701       -21.2712
  33   2.0000      -0.769259       -20.9326
  34   2.0000      -0.709031       -19.2937
  35   2.0000      -0.703902       -19.1542
  36   2.0000      -0.690414       -18.7871
  37   2.0000      -0.661460       -17.9992
  38   2.0000      -0.639688       -17.4068
  39   2.0000      -0.610720       -16.6185
  40   2.0000      -0.596172       -16.2227
  41   2.0000      -0.579176       -15.7602
  42   2.0000      -0.570581       -15.5263
  43   2.0000      -0.550375       -14.9765
  44   2.0000      -0.546042       -14.8586
  45   2.0000      -0.528506       -14.3814
  46   2.0000      -0.521941       -14.2027
  47   2.0000      -0.514154       -13.9908
  48   2.0000      -0.510136       -13.8815
  49   2.0000      -0.494840       -13.4653
  50   2.0000      -0.485497       -13.2110
  51   2.0000      -0.479554       -13.0493
  52   2.0000      -0.472805       -12.8657
  53   2.0000      -0.464556       -12.6412
  54   2.0000      -0.460173       -12.5219
  55   2.0000      -0.454559       -12.3692
  56   2.0000      -0.438900       -11.9431
  57   2.0000      -0.432211       -11.7611
  58   2.0000      -0.425921       -11.5899
  59   2.0000      -0.421200       -11.4614
  60   2.0000      -0.417066       -11.3489
  61   2.0000      -0.407531       -11.0895
  62   2.0000      -0.404587       -11.0094
  63   2.0000      -0.363574        -9.8934
  64   2.0000      -0.329919        -8.9776
  65   2.0000      -0.327285        -8.9059
  66   2.0000      -0.289667        -7.8822
  67   0.0000       0.017322         0.4714
  68   0.0000       0.077123         2.0986
  69   0.0000       0.104368         2.8400
  70   0.0000       0.122101         3.3225
  71   0.0000       0.130066         3.5393

MULLIKEN ATOMIC CHARGES
-----------------------
   0 S :    0.101392
   1 C :   -0.128401
   2 C :   -0.086054
   3 C :    0.014445
   4 C :   -0.136682
   5 H :    0.018989
   6 C :    0.069326
   7 H :    0.027283
   8 H :    0.007709
   9 C :   -0.037555
  10 H :    0.019650
  11 H :    0.024231
  12 C :   -0.095542
  13 H :    0.058822
  14 H :    0.026515
  15 H :    0.042823
  16 S :    0.072394
  17 C :   -0.070335
  18 C :   -0.037046
  19 C :   -0.065444
  20 C :   -0.119675
  21 H :    0.049493
  22 C :    0.112969
  23 H :    0.028414
  24 H :   -0.011993
  25 C :   -0.106958
  26 H :    0.040093
  27 H :    0.039217
  28 C :   -0.090319
  29 H :    0.047513
  30 H :    0.024049
  31 H :    0.038295
  32 H :    0.063701
  33 H :    0.058681
Sum of atomic charges:   -0.0000000

LOEWDIN ATOMIC CHARGES
----------------------
   0 S :    0.411773
   1 C :   -0.198254
   2 C :   -0.062938
   3 C :   -0.068996
   4 C :   -0.184258
   5 H :    0.031038
   6 C :   -0.036563
   7 H :    0.030930
   8 H :    0.025248
   9 C :   -0.032010
  10 H :    0.014339
  11 H :    0.025391
  12 C :   -0.073113
  13 H :    0.039462
  14 H :    0.011656
  15 H :    0.035054
  16 S :    0.382916
  17 C :   -0.175852
  18 C :   -0.080302
  19 C :   -0.045091
  20 C :   -0.183074
  21 H :    0.048340
  22 C :   -0.035454
  23 H :    0.031625
  24 H :    0.007562
  25 C :   -0.047635
  26 H :    0.029989
  27 H :    0.027510
  28 C :   -0.074648
  29 H :    0.034213
  30 H :    0.023475
  31 H :    0.021375
  32 H :    0.032551
  33 H :    0.033740

  Mayer bond orders larger than 0.100000
B(  0-S ,  1-C ) :   1.1520 B(  0-S ,  4-C ) :   1.1417 B(  1-C ,  2-C ) :   1.5439
B(  1-C ,  4-C ) :   0.1026 B(  1-C , 32-H ) :   0.9805 B(  2-C ,  3-C ) :   1.2472
B(  2-C ,  6-C ) :   1.0476 B(  3-C ,  4-C ) :   1.5566 B(  3-C ,  5-H ) :   0.9904
B(  4-C , 20-C ) :   1.0798 B(  6-C ,  7-H ) :   0.9287 B(  6-C ,  8-H ) :   0.9416
B(  6-C ,  9-C ) :   1.0701 B(  9-C , 10-H ) :   0.9554 B(  9-C , 11-H ) :   0.9570
B(  9-C , 12-C ) :   1.0700 B( 12-C , 13-H ) :   0.9724 B( 12-C , 14-H ) :   0.9788
B( 12-C , 15-H ) :   0.9734 B( 16-S , 17-C ) :   1.1452 B( 16-S , 20-C ) :   1.0983
B( 17-C , 18-C ) :   1.6533 B( 17-C , 33-H ) :   0.9617 B( 18-C , 19-C ) :   1.1999
B( 18-C , 21-H ) :   0.9820 B( 19-C , 20-C ) :   1.6098 B( 19-C , 22-C ) :   1.0473
B( 22-C , 23-H ) :   0.9279 B( 22-C , 24-H ) :   0.9234 B( 22-C , 25-C ) :   1.0662
B( 25-C , 26-H ) :   0.9562 B( 25-C , 27-H ) :   0.9546 B( 25-C , 28-C ) :   1.0759
B( 28-C , 29-H ) :   0.9758 B( 28-C , 30-H ) :   0.9727 B( 28-C , 31-H ) :   0.9767

Dispersion correction           -0.013938808
FINAL SINGLE POINT ENERGY     -1339.864077092036

DIPOLE MOMENT
-------------
                                X             Y             Z
Electronic contribution:      5.58408      -2.11772      19.67362
Nuclear contribution   :     -5.62352       2.10172     -19.92832
                        -----------------------------------------
Total Dipole Moment    :     -0.03944      -0.01600      -0.25470
                        -----------------------------------------
Magnitude (a.u.)       :      0.25824
Magnitude (Debye)      :      0.65638

Rotational constants in cm-1:     0.018416     0.008264     0.006723
Rotational constants in MHz :   552.083498   247.757119   201.547006

                             ****ORCA TERMINATED NORMALLY****
TOTAL RUN TIME: 0 days 0 hours 0 minutes 30 seconds 630 msec
