                         Program Version 4.2.1 -  RELEASE  -
|  1> ! wB97X-D3 SP def2-SVP
|  2> %pal
|  3> nprocs 16
|  4> end
|  5>
|  6> * xyz 0 1
|  7> S 	 -53.6336 	 7.90073 	 91.3476
|  8> C 	 -52.9159 	 6.85712 	 92.5186
|  9> C 	 -52.0094 	 7.51257 	 93.298
| 10> C 	 -51.9367 	 8.89665 	 92.8377
| 11> C 	 -52.6955 	 9.28167 	 91.7726
| 12> H 	 -51.2313 	 9.62615 	 93.21
| 13> C 	 -51.3242 	 7.06132 	 94.5893
| 14> H 	 -52.0496 	 7.05264 	 95.4388
| 15> H 	 -50.5361 	 7.6934 	 94.9037
| 16> C 	 -50.7276 	 5.64381 	 94.4782
| 17> H 	 -50.5655 	 5.23369 	 95.4793
| 18> H 	 -51.5545 	 5.00866 	 94.1513
| 19> C 	 -49.4928 	 5.4671 	 93.54
| 20> H 	 -49.4079 	 4.44291 	 93.2153
| 21> H 	 -49.5159 	 6.05972 	 92.7259
| 22> H 	 -48.5977 	 5.77578 	 94.104
| 23> S 	 -52.004 	 10.9898 	 89.72
| 24> C 	 -52.6875 	 12.6268 	 89.6216
| 25> C 	 -53.6205 	 12.7917 	 90.6354
| 26> C 	 -53.7809 	 11.6092 	 91.4288
| 27> C 	 -52.9412 	 10.5337 	 91.1528
| 28> H 	 -54.3021 	 13.7163 	 90.7817
| 29> C 	 -54.7554 	 11.6421 	 92.5554
| 30> H 	 -54.7555 	 10.6892 	 93.0115
| 31> H 	 -55.8044 	 11.8446 	 92.229
| 32> C 	 -54.323 	 12.6151 	 93.6764
| 33> H 	 -55.1781 	 12.9842 	 94.268
| 34> H 	 -53.9216 	 13.5446 	 93.2582
| 35> C 	 -53.2304 	 12.0305 	 94.6209
| 36> H 	 -53.5668 	 11.4163 	 95.4831
| 37> H 	 -52.6429 	 12.69 	 95.232
| 38> H 	 -52.5044 	 11.4129 	 94.0754
| 39> H 	 -53.0171 	 5.77544 	 92.6462
| 40> H 	 -52.355 	 13.3067 	 88.8239
| 41> *
| 42>
| 43>                          ****END OF INPUT****

CARTESIAN COORDINATES (ANGSTROEM)
---------------------------------
  S    -53.633600    7.900730   91.347600
  C    -52.915900    6.857120   92.518600
  C    -52.009400    7.512570   93.298000
  C    -51.936700    8.896650   92.837700
  C    -52.695500    9.281670   91.772600
  H    -51.231300    9.626150   93.210000
  C    -51.324200    7.061320   94.589300
  H    -52.049600    7.052640   95.438800
  H    -50.536100    7.693400   94.903700
  C    -50.727600    5.643810   94.478200
  H    -50.565500    5.233690   95.479300
  H    -51.554500    5.008660   94.151300
  C    -49.492800    5.467100   93.540000
  H    -49.407900    4.442910   93.215300
  H    -49.515900    6.059720   92.725900
  H    -48.597700    5.775780   94.104000
  S    -52.004000   10.989800   89.720000
  C    -52.687500   12.626800   89.621600
  C    -53.620500   12.791700   90.635400
  C    -53.780900   11.609200   91.428800
  C    -52.941200   10.533700   91.152800
  H    -54.302100   13.716300   90.781700
  C    -54.755400   11.642100   92.555400
  H    -54.755500   10.689200   93.011500
  H    -55.804400   11.844600   92.229000
  C    -54.323000   12.615100   93.676400
  H    -55.178100   12.984200   94.268000
  H    -53.921600   13.544600   93.258200
  C    -53.230400   12.030500   94.620900
  H    -53.566800   11.416300   95.483100
  H    -52.642900   12.690000   95.232000
  H    -52.504400   11.412900   94.075400
  H    -53.017100    5.775440   92.646200
  H    -52.355000   13.306700   88.823900

 Total Charge           Charge          ....    0
 Multiplicity           Mult            ....    1
 Number of Electrons    NEL             ....  134
 Basis Dimension        Dim             ....  322

ORBITAL ENERGIES
----------------

  NO   OCC          E(Eh)            E(eV)
   0   2.0000     -88.963032     -2420.8072
   1   2.0000     -88.961821     -2420.7742
   2   2.0000     -10.328642      -281.0567
   3   2.0000     -10.328534      -281.0537
   4   2.0000     -10.324364      -280.9402
   5   2.0000     -10.314731      -280.6781
   6   2.0000     -10.305291      -280.4212
   7   2.0000     -10.304570      -280.4016
   8   2.0000     -10.303393      -280.3696
   9   2.0000     -10.297138      -280.1994
  10   2.0000     -10.294404      -280.1250
  11   2.0000     -10.289572      -279.9935
  12   2.0000     -10.289436      -279.9898
  13   2.0000     -10.286408      -279.9074
  14   2.0000     -10.274447      -279.5819
  15   2.0000     -10.271400      -279.4990
  16   2.0000      -8.078753      -219.8340
  17   2.0000      -8.076219      -219.7651
  18   2.0000      -6.037335      -164.2842
  19   2.0000      -6.034808      -164.2155
  20   2.0000      -6.032890      -164.1633
  21   2.0000      -6.030630      -164.1018
  22   2.0000      -6.029560      -164.0727
  23   2.0000      -6.027033      -164.0039
  24   2.0000      -1.012179       -27.5428
  25   2.0000      -0.985983       -26.8300
  26   2.0000      -0.912682       -24.8354
  27   2.0000      -0.905514       -24.6403
  28   2.0000      -0.874620       -23.7996
  29   2.0000      -0.843083       -22.9414
  30   2.0000      -0.839165       -22.8348
  31   2.0000      -0.816090       -22.2069
  32   2.0000      -0.788771       -21.4635
  33   2.0000      -0.773548       -21.0493
  34   2.0000      -0.710983       -19.3468
  35   2.0000      -0.707617       -19.2552
  36   2.0000      -0.699612       -19.0374
  37   2.0000      -0.657129       -17.8814
  38   2.0000      -0.643714       -17.5163
  39   2.0000      -0.611441       -16.6381
  40   2.0000      -0.599706       -16.3188
  41   2.0000      -0.580058       -15.7842
  42   2.0000      -0.557263       -15.1639
  43   2.0000      -0.551704       -15.0126
  44   2.0000      -0.540273       -14.7016
  45   2.0000      -0.527389       -14.3510
  46   2.0000      -0.514323       -13.9954
  47   2.0000      -0.511009       -13.9053
  48   2.0000      -0.509279       -13.8582
  49   2.0000      -0.499357       -13.5882
  50   2.0000      -0.490399       -13.3444
  51   2.0000      -0.480675       -13.0798
  52   2.0000      -0.475486       -12.9386
  53   2.0000      -0.461610       -12.5611
  54   2.0000      -0.460317       -12.5259
  55   2.0000      -0.443389       -12.0652
  56   2.0000      -0.438736       -11.9386
  57   2.0000      -0.434220       -11.8157
  58   2.0000      -0.432380       -11.7657
  59   2.0000      -0.423322       -11.5192
  60   2.0000      -0.418479       -11.3874
  61   2.0000      -0.415979       -11.3194
  62   2.0000      -0.407100       -11.0778
  63   2.0000      -0.333411        -9.0726
  64   2.0000      -0.327980        -8.9248
  65   2.0000      -0.324394        -8.8272
  66   2.0000      -0.317192        -8.6312
  67   0.0000       0.044992         1.2243
  68   0.0000       0.050930         1.3859
  69   0.0000       0.114030         3.1029
  70   0.0000       0.117769         3.2047
  71   0.0000       0.128645         3.5006

MULLIKEN ATOMIC CHARGES
-----------------------
   0 S :    0.121110
   1 C :   -0.119927
   2 C :   -0.094308
   3 C :    0.036203
   4 C :   -0.186464
   5 H :    0.017771
   6 C :    0.088240
   7 H :    0.050473
   8 H :    0.012765
   9 C :   -0.116753
  10 H :    0.023864
  11 H :    0.011812
  12 C :    0.007269
  13 H :    0.034689
  14 H :    0.012598
  15 H :    0.030264
  16 S :    0.091044
  17 C :   -0.109108
  18 C :   -0.036780
  19 C :   -0.039737
  20 C :   -0.158316
  21 H :    0.059825
  22 C :    0.079199
  23 H :    0.016786
  24 H :    0.042290
  25 C :   -0.061613
  26 H :    0.029258
  27 H :    0.025759
  28 C :   -0.056374
  29 H :    0.024397
  30 H :    0.015960
  31 H :    0.016383
  32 H :    0.053362
  33 H :    0.078059
Sum of atomic charges:    0.0000000

LOEWDIN ATOMIC CHARGES
----------------------
   0 S :    0.431345
   1 C :   -0.200982
   2 C :   -0.070198
   3 C :   -0.054307
   4 C :   -0.218446
   5 H :    0.026189
   6 C :   -0.025631
   7 H :    0.042302
   8 H :    0.022548
   9 C :   -0.044036
  10 H :    0.023661
  11 H :    0.016431
  12 C :   -0.052506
  13 H :    0.029306
  14 H :    0.010223
  15 H :    0.030663
  16 S :    0.388497
  17 C :   -0.170904
  18 C :   -0.083778
  19 C :   -0.051477
  20 C :   -0.206802
  21 H :    0.050261
  22 C :   -0.031326
  23 H :    0.025054
  24 H :    0.038627
  25 C :   -0.037455
  26 H :    0.025754
  27 H :    0.021478
  28 C :   -0.078677
  29 H :    0.027953
  30 H :    0.022674
  31 H :    0.023402
  32 H :    0.033870
  33 H :    0.036292

  Mayer bond orders larger than 0.100000
B(  0-S ,  1-C ) :   1.1578 B(  0-S ,  4-C ) :   1.1389 B(  1-C ,  2-C ) :   1.6170
B(  1-C , 32-H ) :   0.9587 B(  2-C ,  3-C ) :   1.2297 B(  2-C ,  6-C ) :   1.0136
B(  3-C ,  4-C ) :   1.6203 B(  3-C ,  5-H ) :   0.9870 B(  4-C , 20-C ) :   1.0174
B(  6-C ,  7-H ) :   0.9389 B(  6-C ,  8-H ) :   0.9461 B(  6-C ,  9-C ) :   1.0748
B(  9-C , 10-H ) :   0.9558 B(  9-C , 11-H ) :   0.9583 B(  9-C , 12-C ) :   1.0632
B( 12-C , 13-H ) :   0.9752 B( 12-C , 14-H ) :   0.9786 B( 12-C , 15-H ) :   0.9747
B( 16-S , 17-C ) :   1.1691 B( 16-S , 20-C ) :   1.1250 B( 17-C , 18-C ) :   1.5762
B( 17-C , 20-C ) :   0.1050 B( 17-C , 33-H ) :   0.9684 B( 18-C , 19-C ) :   1.2508
B( 18-C , 21-H ) :   0.9708 B( 19-C , 20-C ) :   1.5972 B( 19-C , 22-C ) :   1.0633
B( 22-C , 23-H ) :   0.9335 B( 22-C , 24-H ) :   0.9359 B( 22-C , 25-C ) :   1.0544
B( 25-C , 26-H ) :   0.9568 B( 25-C , 27-H ) :   0.9634 B( 25-C , 28-C ) :   1.0617
B( 28-C , 29-H ) :   0.9731 B( 28-C , 30-H ) :   0.9713 B( 28-C , 31-H ) :   0.9759

Dispersion correction           -0.015125649
FINAL SINGLE POINT ENERGY     -1339.871048195302

DIPOLE MOMENT
-------------
                                X             Y             Z
Electronic contribution:     -5.56778       3.52198     -22.33208
Nuclear contribution   :      5.59634      -3.40124      22.89383
                        -----------------------------------------
Total Dipole Moment    :      0.02856       0.12074       0.56175
                        -----------------------------------------
Magnitude (a.u.)       :      0.57529
Magnitude (Debye)      :      1.46226

Rotational constants in cm-1:     0.022347     0.008001     0.006986
Rotational constants in MHz :   669.948248   239.852089   209.447646

                             ****ORCA TERMINATED NORMALLY****
TOTAL RUN TIME: 0 days 0 hours 0 minutes 30 seconds 587 msec
