                         Program Version 4.2.1 -  RELEASE  -
|  1> ! wB97X-D3 SP def2-SVP
|  2> %pal
|  3> nprocs 16
|  4> end
|  5>
|  6> * xyz 0 1
|  7> S 	 9.90098 	 -4.53098 	 88.2547
|  8> C 	 9.7476 	 -2.9198 	 87.5725
|  9> C 	 8.39921 	 -2.53007 	 87.3664
| 10> C 	 7.50912 	 -3.61955 	 87.7476
| 11> C 	 8.17527 	 -4.67743 	 88.3449
| 12> H 	 6.4321 	 -3.67397 	 87.6201
| 13> C 	 7.94194 	 -1.25573 	 86.6667
| 14> H 	 8.71042 	 -1.05735 	 85.9032
| 15> H 	 8.01086 	 -0.491987 	 87.4991
| 16> C 	 6.56703 	 -1.20783 	 86.061
| 17> H 	 6.68501 	 -1.70674 	 85.1177
| 18> H 	 5.79724 	 -1.70482 	 86.6405
| 19> C 	 6.19683 	 0.261149 	 85.7968
| 20> H 	 5.2903 	 0.424553 	 85.1652
| 21> H 	 6.07274 	 0.931816 	 86.7588
| 22> H 	 6.98112 	 0.695229 	 85.1588
| 23> S 	 8.39969 	 -7.48475 	 88.6317
| 24> C 	 7.22966 	 -8.34028 	 89.5275
| 25> C 	 6.11134 	 -7.55256 	 89.8446
| 26> C 	 6.33057 	 -6.19147 	 89.4864
| 27> C 	 7.58957 	 -5.90946 	 88.8868
| 28> H 	 5.23747 	 -7.97704 	 90.3393
| 29> C 	 5.29915 	 -5.16508 	 89.8694
| 30> H 	 5.81165 	 -4.25531 	 89.7839
| 31> H 	 5.06323 	 -5.27265 	 90.9087
| 32> C 	 3.98423 	 -5.2406 	 88.9499
| 33> H 	 3.4574 	 -6.08979 	 89.2494
| 34> H 	 4.18455 	 -5.29595 	 87.8612
| 35> C 	 3.04012 	 -3.99566 	 89.1634
| 36> H 	 3.53022 	 -3.03134 	 88.8969
| 37> H 	 2.66119 	 -3.87626 	 90.2073
| 38> H 	 2.24588 	 -3.99232 	 88.4254
| 39> H 	 10.6533 	 -2.26039 	 87.4251
| 40> H 	 7.40577 	 -9.40208 	 89.6627
| 41> *
| 42>
| 43>                          ****END OF INPUT****

CARTESIAN COORDINATES (ANGSTROEM)
---------------------------------
  S      9.900980   -4.530980   88.254700
  C      9.747600   -2.919800   87.572500
  C      8.399210   -2.530070   87.366400
  C      7.509120   -3.619550   87.747600
  C      8.175270   -4.677430   88.344900
  H      6.432100   -3.673970   87.620100
  C      7.941940   -1.255730   86.666700
  H      8.710420   -1.057350   85.903200
  H      8.010860   -0.491987   87.499100
  C      6.567030   -1.207830   86.061000
  H      6.685010   -1.706740   85.117700
  H      5.797240   -1.704820   86.640500
  C      6.196830    0.261149   85.796800
  H      5.290300    0.424553   85.165200
  H      6.072740    0.931816   86.758800
  H      6.981120    0.695229   85.158800
  S      8.399690   -7.484750   88.631700
  C      7.229660   -8.340280   89.527500
  C      6.111340   -7.552560   89.844600
  C      6.330570   -6.191470   89.486400
  C      7.589570   -5.909460   88.886800
  H      5.237470   -7.977040   90.339300
  C      5.299150   -5.165080   89.869400
  H      5.811650   -4.255310   89.783900
  H      5.063230   -5.272650   90.908700
  C      3.984230   -5.240600   88.949900
  H      3.457400   -6.089790   89.249400
  H      4.184550   -5.295950   87.861200
  C      3.040120   -3.995660   89.163400
  H      3.530220   -3.031340   88.896900
  H      2.661190   -3.876260   90.207300
  H      2.245880   -3.992320   88.425400
  H     10.653300   -2.260390   87.425100
  H      7.405770   -9.402080   89.662700

 Total Charge           Charge          ....    0
 Multiplicity           Mult            ....    1
 Number of Electrons    NEL             ....  134
 Basis Dimension        Dim             ....  322

ORBITAL ENERGIES
----------------

  NO   OCC          E(Eh)            E(eV)
   0   2.0000     -88.967907     -2420.9398
   1   2.0000     -88.963518     -2420.8204
   2   2.0000     -10.330711      -281.1129
   3   2.0000     -10.330561      -281.1089
   4   2.0000     -10.320388      -280.8320
   5   2.0000     -10.318132      -280.7707
   6   2.0000     -10.310338      -280.5585
   7   2.0000     -10.304403      -280.3971
   8   2.0000     -10.298635      -280.2401
   9   2.0000     -10.297360      -280.2054
  10   2.0000     -10.296376      -280.1786
  11   2.0000     -10.294477      -280.1270
  12   2.0000     -10.293294      -280.0948
  13   2.0000     -10.289355      -279.9876
  14   2.0000     -10.285897      -279.8935
  15   2.0000     -10.285760      -279.8898
  16   2.0000      -8.082698      -219.9414
  17   2.0000      -8.078634      -219.8308
  18   2.0000      -6.041170      -164.3886
  19   2.0000      -6.037268      -164.2824
  20   2.0000      -6.037005      -164.2753
  21   2.0000      -6.033440      -164.1782
  22   2.0000      -6.033015      -164.1667
  23   2.0000      -6.029609      -164.0740
  24   2.0000      -1.002333       -27.2749
  25   2.0000      -0.980234       -26.6735
  26   2.0000      -0.917861       -24.9763
  27   2.0000      -0.902205       -24.5502
  28   2.0000      -0.865057       -23.5394
  29   2.0000      -0.850624       -23.1467
  30   2.0000      -0.843209       -22.9449
  31   2.0000      -0.809282       -22.0217
  32   2.0000      -0.780087       -21.2272
  33   2.0000      -0.765615       -20.8335
  34   2.0000      -0.711086       -19.3496
  35   2.0000      -0.704460       -19.1693
  36   2.0000      -0.686280       -18.6746
  37   2.0000      -0.657597       -17.8941
  38   2.0000      -0.636186       -17.3115
  39   2.0000      -0.620426       -16.8827
  40   2.0000      -0.594657       -16.1814
  41   2.0000      -0.577519       -15.7151
  42   2.0000      -0.565297       -15.3825
  43   2.0000      -0.560419       -15.2498
  44   2.0000      -0.526228       -14.3194
  45   2.0000      -0.521139       -14.1809
  46   2.0000      -0.509883       -13.8746
  47   2.0000      -0.504945       -13.7403
  48   2.0000      -0.502146       -13.6641
  49   2.0000      -0.494739       -13.4625
  50   2.0000      -0.490600       -13.3499
  51   2.0000      -0.476576       -12.9683
  52   2.0000      -0.467914       -12.7326
  53   2.0000      -0.465224       -12.6594
  54   2.0000      -0.459750       -12.5104
  55   2.0000      -0.454038       -12.3550
  56   2.0000      -0.441613       -12.0169
  57   2.0000      -0.438201       -11.9240
  58   2.0000      -0.434765       -11.8305
  59   2.0000      -0.431114       -11.7312
  60   2.0000      -0.428524       -11.6607
  61   2.0000      -0.422971       -11.5096
  62   2.0000      -0.411889       -11.2081
  63   2.0000      -0.351227        -9.5574
  64   2.0000      -0.330055        -8.9813
  65   2.0000      -0.328116        -8.9285
  66   2.0000      -0.280281        -7.6268
  67   0.0000       0.022244         0.6053
  68   0.0000       0.076467         2.0808
  69   0.0000       0.104635         2.8473
  70   0.0000       0.121369         3.3026
  71   0.0000       0.122967         3.3461

MULLIKEN ATOMIC CHARGES
-----------------------
   0 S :    0.113953
   1 C :   -0.154414
   2 C :   -0.085140
   3 C :    0.002412
   4 C :   -0.138733
   5 H :    0.010992
   6 C :    0.025761
   7 H :    0.041428
   8 H :    0.047881
   9 C :   -0.041332
  10 H :    0.032728
  11 H :    0.040170
  12 C :   -0.101055
  13 H :    0.038786
  14 H :    0.054031
  15 H :    0.029633
  16 S :    0.093273
  17 C :   -0.101029
  18 C :   -0.025674
  19 C :   -0.068836
  20 C :   -0.120329
  21 H :    0.027442
  22 C :    0.084378
  23 H :    0.001180
  24 H :    0.026531
  25 C :   -0.067501
  26 H :    0.023072
  27 H :    0.044375
  28 C :   -0.070909
  29 H :    0.024834
  30 H :    0.044071
  31 H :    0.031124
  32 H :    0.071220
  33 H :    0.065679
Sum of atomic charges:    0.0000000

LOEWDIN ATOMIC CHARGES
----------------------
   0 S :    0.412834
   1 C :   -0.214791
   2 C :   -0.056921
   3 C :   -0.070879
   4 C :   -0.194228
   5 H :    0.030376
   6 C :   -0.037712
   7 H :    0.036827
   8 H :    0.040751
   9 C :   -0.042443
  10 H :    0.029275
  11 H :    0.022774
  12 C :   -0.076401
  13 H :    0.027636
  14 H :    0.036942
  15 H :    0.025298
  16 S :    0.406542
  17 C :   -0.191521
  18 C :   -0.077011
  19 C :   -0.052916
  20 C :   -0.197303
  21 H :    0.035073
  22 C :   -0.025397
  23 H :    0.018551
  24 H :    0.030027
  25 C :   -0.027951
  26 H :    0.014996
  27 H :    0.029911
  28 C :   -0.074893
  29 H :    0.024302
  30 H :    0.029111
  31 H :    0.023768
  32 H :    0.037923
  33 H :    0.027451

  Mayer bond orders larger than 0.100000
B(  0-S ,  1-C ) :   1.1381 B(  0-S ,  4-C ) :   1.1616 B(  1-C ,  2-C ) :   1.6052
B(  1-C , 32-H ) :   0.9633 B(  2-C ,  3-C ) :   1.2393 B(  2-C ,  6-C ) :   0.9986
B(  3-C ,  4-C ) :   1.5619 B(  3-C ,  5-H ) :   0.9848 B(  4-C , 20-C ) :   1.0573
B(  6-C ,  7-H ) :   0.9457 B(  6-C ,  8-H ) :   0.9351 B(  6-C ,  9-C ) :   1.0785
B(  9-C , 10-H ) :   0.9491 B(  9-C , 11-H ) :   0.9507 B(  9-C , 12-C ) :   1.0819
B( 12-C , 13-H ) :   0.9733 B( 12-C , 14-H ) :   0.9746 B( 12-C , 15-H ) :   0.9716
B( 16-S , 17-C ) :   1.1942 B( 16-S , 20-C ) :   1.1322 B( 17-C , 18-C ) :   1.5440
B( 17-C , 20-C ) :   0.1043 B( 17-C , 33-H ) :   0.9691 B( 18-C , 19-C ) :   1.2688
B( 18-C , 21-H ) :   0.9961 B( 19-C , 20-C ) :   1.5561 B( 19-C , 22-C ) :   1.0519
B( 22-C , 23-H ) :   0.9382 B( 22-C , 24-H ) :   0.9366 B( 22-C , 25-C ) :   1.0402
B( 25-C , 26-H ) :   0.9571 B( 25-C , 27-H ) :   0.9607 B( 25-C , 28-C ) :   1.0813
B( 28-C , 29-H ) :   0.9761 B( 28-C , 30-H ) :   0.9752 B( 28-C , 31-H ) :   0.9755

Dispersion correction           -0.013921502
FINAL SINGLE POINT ENERGY     -1339.878878249247

DIPOLE MOMENT
-------------
                                X             Y             Z
Electronic contribution:     24.64050     -22.46525       5.63803
Nuclear contribution   :    -25.20902      22.81524      -5.78456
                        -----------------------------------------
Total Dipole Moment    :     -0.56852       0.34999      -0.14654
                        -----------------------------------------
Magnitude (a.u.)       :      0.68350
Magnitude (Debye)      :      1.73733

Rotational constants in cm-1:     0.016661     0.009475     0.006326
Rotational constants in MHz :   499.469316   284.047072   189.645869

                             ****ORCA TERMINATED NORMALLY****
TOTAL RUN TIME: 0 days 0 hours 0 minutes 33 seconds 320 msec
