                         Program Version 4.2.1 -  RELEASE  -
|  1> ! wB97X-D3 SP def2-SVP
|  2> %pal
|  3> nprocs 16
|  4> end
|  5>
|  6> * xyz 0 1
|  7> S 	 -38.1446 	 57.5821 	 103.898
|  8> C 	 -39.8219 	 58.0711 	 104.081
|  9> C 	 -40.6517 	 56.9485 	 103.939
| 10> C 	 -39.9485 	 55.7102 	 103.827
| 11> C 	 -38.5597 	 55.8697 	 103.776
| 12> H 	 -40.3902 	 54.7275 	 103.825
| 13> C 	 -42.1695 	 56.9341 	 103.754
| 14> H 	 -42.3302 	 56.3965 	 102.767
| 15> H 	 -42.4958 	 58.0328 	 103.555
| 16> C 	 -43.0358 	 56.3632 	 104.922
| 17> H 	 -42.721 	 56.6033 	 105.92
| 18> H 	 -44.0195 	 56.916 	 104.85
| 19> C 	 -43.1547 	 54.806 	 104.928
| 20> H 	 -42.2219 	 54.3043 	 105.182
| 21> H 	 -43.7829 	 54.5348 	 105.791
| 22> H 	 -43.6044 	 54.429 	 103.966
| 23> S 	 -36.7075 	 54.7809 	 101.946
| 24> C 	 -35.694 	 53.3995 	 102.548
| 25> C 	 -35.9951 	 53.0406 	 103.843
| 26> C 	 -37.1219 	 53.8204 	 104.384
| 27> C 	 -37.5331 	 54.8606 	 103.552
| 28> H 	 -35.4721 	 52.2824 	 104.3
| 29> C 	 -37.7231 	 53.4284 	 105.776
| 30> H 	 -38.4717 	 54.2102 	 106.022
| 31> H 	 -37.0291 	 53.5117 	 106.606
| 32> C 	 -38.2684 	 51.9678 	 105.961
| 33> H 	 -37.4766 	 51.2193 	 105.992
| 34> H 	 -38.9098 	 51.7853 	 105.07
| 35> C 	 -39.1754 	 51.7191 	 107.166
| 36> H 	 -39.7493 	 50.7706 	 107.146
| 37> H 	 -39.8477 	 52.5718 	 107.21
| 38> H 	 -38.6189 	 51.7845 	 108.086
| 39> H 	 -40.2517 	 59.1102 	 104.042
| 40> H 	 -34.823 	 52.9689 	 102.106
| 41> *
| 42>
| 43>                          ****END OF INPUT****

CARTESIAN COORDINATES (ANGSTROEM)
---------------------------------
  S    -38.144600   57.582100  103.898000
  C    -39.821900   58.071100  104.081000
  C    -40.651700   56.948500  103.939000
  C    -39.948500   55.710200  103.827000
  C    -38.559700   55.869700  103.776000
  H    -40.390200   54.727500  103.825000
  C    -42.169500   56.934100  103.754000
  H    -42.330200   56.396500  102.767000
  H    -42.495800   58.032800  103.555000
  C    -43.035800   56.363200  104.922000
  H    -42.721000   56.603300  105.920000
  H    -44.019500   56.916000  104.850000
  C    -43.154700   54.806000  104.928000
  H    -42.221900   54.304300  105.182000
  H    -43.782900   54.534800  105.791000
  H    -43.604400   54.429000  103.966000
  S    -36.707500   54.780900  101.946000
  C    -35.694000   53.399500  102.548000
  C    -35.995100   53.040600  103.843000
  C    -37.121900   53.820400  104.384000
  C    -37.533100   54.860600  103.552000
  H    -35.472100   52.282400  104.300000
  C    -37.723100   53.428400  105.776000
  H    -38.471700   54.210200  106.022000
  H    -37.029100   53.511700  106.606000
  C    -38.268400   51.967800  105.961000
  H    -37.476600   51.219300  105.992000
  H    -38.909800   51.785300  105.070000
  C    -39.175400   51.719100  107.166000
  H    -39.749300   50.770600  107.146000
  H    -39.847700   52.571800  107.210000
  H    -38.618900   51.784500  108.086000
  H    -40.251700   59.110200  104.042000
  H    -34.823000   52.968900  102.106000

 Total Charge           Charge          ....    0
 Multiplicity           Mult            ....    1
 Number of Electrons    NEL             ....  134
 Basis Dimension        Dim             ....  322

ORBITAL ENERGIES
----------------

  NO   OCC          E(Eh)            E(eV)
   0   2.0000     -88.968099     -2420.9451
   1   2.0000     -88.967994     -2420.9422
   2   2.0000     -10.334572      -281.2180
   3   2.0000     -10.332629      -281.1651
   4   2.0000     -10.321712      -280.8681
   5   2.0000     -10.321452      -280.8610
   6   2.0000     -10.315611      -280.7020
   7   2.0000     -10.306817      -280.4628
   8   2.0000     -10.303175      -280.3636
   9   2.0000     -10.298758      -280.2434
  10   2.0000     -10.296188      -280.1735
  11   2.0000     -10.295616      -280.1580
  12   2.0000     -10.293858      -280.1101
  13   2.0000     -10.291650      -280.0500
  14   2.0000     -10.287613      -279.9402
  15   2.0000     -10.279874      -279.7296
  16   2.0000      -8.082060      -219.9240
  17   2.0000      -8.080888      -219.8921
  18   2.0000      -6.040649      -164.3744
  19   2.0000      -6.039734      -164.3495
  20   2.0000      -6.036558      -164.2631
  21   2.0000      -6.035835      -164.2434
  22   2.0000      -6.032853      -164.1623
  23   2.0000      -6.031212      -164.1176
  24   2.0000      -0.997044       -27.1310
  25   2.0000      -0.972083       -26.4517
  26   2.0000      -0.902186       -24.5497
  27   2.0000      -0.899808       -24.4850
  28   2.0000      -0.867608       -23.6088
  29   2.0000      -0.845755       -23.0142
  30   2.0000      -0.842545       -22.9268
  31   2.0000      -0.814876       -22.1739
  32   2.0000      -0.780353       -21.2345
  33   2.0000      -0.767759       -20.8918
  34   2.0000      -0.703997       -19.1567
  35   2.0000      -0.698971       -19.0200
  36   2.0000      -0.693499       -18.8711
  37   2.0000      -0.660061       -17.9612
  38   2.0000      -0.637498       -17.3472
  39   2.0000      -0.614970       -16.7342
  40   2.0000      -0.589980       -16.0542
  41   2.0000      -0.570084       -15.5128
  42   2.0000      -0.564651       -15.3649
  43   2.0000      -0.539451       -14.6792
  44   2.0000      -0.531556       -14.4644
  45   2.0000      -0.523683       -14.2501
  46   2.0000      -0.520538       -14.1646
  47   2.0000      -0.513105       -13.9623
  48   2.0000      -0.505995       -13.7688
  49   2.0000      -0.493926       -13.4404
  50   2.0000      -0.484348       -13.1798
  51   2.0000      -0.483829       -13.1656
  52   2.0000      -0.471568       -12.8320
  53   2.0000      -0.463837       -12.6217
  54   2.0000      -0.454992       -12.3810
  55   2.0000      -0.448422       -12.2022
  56   2.0000      -0.441401       -12.0111
  57   2.0000      -0.434218       -11.8157
  58   2.0000      -0.430255       -11.7078
  59   2.0000      -0.424298       -11.5457
  60   2.0000      -0.419018       -11.4021
  61   2.0000      -0.414248       -11.2722
  62   2.0000      -0.409197       -11.1348
  63   2.0000      -0.338720        -9.2171
  64   2.0000      -0.328538        -8.9400
  65   2.0000      -0.327204        -8.9037
  66   2.0000      -0.303204        -8.2506
  67   0.0000       0.031925         0.8687
  68   0.0000       0.056850         1.5470
  69   0.0000       0.106773         2.9054
  70   0.0000       0.110043         2.9944
  71   0.0000       0.119524         3.2524

MULLIKEN ATOMIC CHARGES
-----------------------
   0 S :    0.116926
   1 C :   -0.123727
   2 C :   -0.100025
   3 C :    0.057324
   4 C :   -0.190048
   5 H :    0.012982
   6 C :   -0.005690
   7 H :    0.055481
   8 H :    0.030685
   9 C :   -0.056669
  10 H :    0.025808
  11 H :    0.038966
  12 C :   -0.079663
  13 H :    0.039524
  14 H :    0.035043
  15 H :    0.047752
  16 S :    0.099514
  17 C :   -0.074020
  18 C :   -0.000639
  19 C :   -0.007781
  20 C :   -0.162441
  21 H :   -0.005268
  22 C :    0.049937
  23 H :    0.028613
  24 H :    0.027673
  25 C :   -0.096737
  26 H :    0.033314
  27 H :    0.034070
  28 C :   -0.045454
  29 H :    0.051390
  30 H :    0.019796
  31 H :    0.023370
  32 H :    0.069753
  33 H :    0.050240
Sum of atomic charges:   -0.0000000

LOEWDIN ATOMIC CHARGES
----------------------
   0 S :    0.406672
   1 C :   -0.212534
   2 C :   -0.069950
   3 C :   -0.057094
   4 C :   -0.194651
   5 H :    0.030928
   6 C :   -0.042797
   7 H :    0.041588
   8 H :    0.035086
   9 C :   -0.044700
  10 H :    0.023422
  11 H :    0.032194
  12 C :   -0.072980
  13 H :    0.023533
  14 H :    0.029946
  15 H :    0.029943
  16 S :    0.355942
  17 C :   -0.157101
  18 C :   -0.054651
  19 C :   -0.041116
  20 C :   -0.189659
  21 H :    0.019123
  22 C :   -0.036857
  23 H :    0.031557
  24 H :    0.028935
  25 C :   -0.044064
  26 H :    0.020423
  27 H :    0.025919
  28 C :   -0.066076
  29 H :    0.034271
  30 H :    0.022977
  31 H :    0.020403
  32 H :    0.043733
  33 H :    0.027635

  Mayer bond orders larger than 0.100000
B(  0-S ,  1-C ) :   1.1375 B(  0-S ,  4-C ) :   1.1595 B(  1-C ,  2-C ) :   1.6114
B(  1-C ,  4-C ) :   0.1010 B(  1-C , 32-H ) :   0.9569 B(  2-C ,  3-C ) :   1.2461
B(  2-C ,  6-C ) :   1.0168 B(  3-C ,  4-C ) :   1.5633 B(  3-C ,  5-H ) :   0.9940
B(  4-C , 20-C ) :   1.0360 B(  6-C ,  7-H ) :   0.9491 B(  6-C ,  8-H ) :   0.9467
B(  6-C ,  9-C ) :   1.0446 B(  9-C , 10-H ) :   0.9580 B(  9-C , 11-H ) :   0.9605
B(  9-C , 12-C ) :   1.0751 B( 12-C , 13-H ) :   0.9708 B( 12-C , 14-H ) :   0.9712
B( 12-C , 15-H ) :   0.9774 B( 16-S , 17-C ) :   1.1156 B( 16-S , 20-C ) :   1.1065
B( 17-C , 18-C ) :   1.6823 B( 17-C , 33-H ) :   0.9632 B( 18-C , 19-C ) :   1.1761
B( 18-C , 21-H ) :   0.9983 B( 19-C , 20-C ) :   1.6522 B( 19-C , 22-C ) :   1.0470
B( 22-C , 23-H ) :   0.9360 B( 22-C , 24-H ) :   0.9392 B( 22-C , 25-C ) :   1.0461
B( 25-C , 26-H ) :   0.9545 B( 25-C , 27-H ) :   0.9599 B( 25-C , 28-C ) :   1.0852
B( 28-C , 29-H ) :   0.9747 B( 28-C , 30-H ) :   0.9739 B( 28-C , 31-H ) :   0.9745

Dispersion correction           -0.014262337
FINAL SINGLE POINT ENERGY     -1339.868311024191

DIPOLE MOMENT
-------------
                                X             Y             Z
Electronic contribution:     21.75570      14.34490     -16.90141
Nuclear contribution   :    -22.16730     -14.73661      17.28382
                        -----------------------------------------
Total Dipole Moment    :     -0.41160      -0.39172       0.38241
                        -----------------------------------------
Magnitude (a.u.)       :      0.68490
Magnitude (Debye)      :      1.74089

Rotational constants in cm-1:     0.015408     0.009801     0.006844
Rotational constants in MHz :   461.930538   293.833283   205.180538

                             ****ORCA TERMINATED NORMALLY****
TOTAL RUN TIME: 0 days 0 hours 0 minutes 29 seconds 695 msec
