                         Program Version 4.2.1 -  RELEASE  -
|  1> ! wB97X-D3 SP def2-SVP
|  2> %pal
|  3> nprocs 16
|  4> end
|  5>
|  6> * xyz 0 1
|  7> S 	 -19.3659 	 34.8689 	 36.7017
|  8> C 	 -20.5504 	 35.06 	 35.4402
|  9> C 	 -20.8947 	 33.8847 	 34.8166
| 10> C 	 -20.3925 	 32.7866 	 35.5659
| 11> C 	 -19.5845 	 33.1139 	 36.595
| 12> H 	 -20.6478 	 31.7306 	 35.3742
| 13> C 	 -21.5641 	 33.7849 	 33.4431
| 14> H 	 -22.2782 	 34.5917 	 33.2399
| 15> H 	 -22.1002 	 32.7901 	 33.3434
| 16> C 	 -20.5632 	 34.0365 	 32.265
| 17> H 	 -21.0529 	 34.2858 	 31.3591
| 18> H 	 -20.0272 	 34.9831 	 32.3827
| 19> C 	 -19.6507 	 32.9059 	 32.1658
| 20> H 	 -19.1463 	 32.8837 	 31.1796
| 21> H 	 -19.0226 	 32.7202 	 32.9974
| 22> H 	 -20.29 	 31.9841 	 32.1001
| 23> S 	 -19.7629 	 32.4002 	 39.2001
| 24> C 	 -18.9529 	 30.9207 	 39.6684
| 25> C 	 -18.0354 	 30.5384 	 38.6942
| 26> C 	 -18.0086 	 31.4091 	 37.5401
| 27> C 	 -19.062 	 32.2745 	 37.6527
| 28> H 	 -17.3821 	 29.7534 	 38.8895
| 29> C 	 -17.0367 	 31.2446 	 36.3858
| 30> H 	 -16.1031 	 31.1351 	 36.8683
| 31> H 	 -16.9526 	 32.2756 	 35.9404
| 32> C 	 -17.3449 	 30.2917 	 35.2178
| 33> H 	 -16.6579 	 30.4009 	 34.3615
| 34> H 	 -18.3764 	 30.5266 	 34.7657
| 35> C 	 -17.4642 	 28.7718 	 35.5796
| 36> H 	 -18.2315 	 28.6333 	 36.3391
| 37> H 	 -16.5834 	 28.2099 	 35.896
| 38> H 	 -17.8068 	 28.3075 	 34.6349
| 39> H 	 -20.7362 	 36.0516 	 35.0059
| 40> H 	 -19.1948 	 30.4657 	 40.5506
| 41> *
| 42>
| 43>                          ****END OF INPUT****

CARTESIAN COORDINATES (ANGSTROEM)
---------------------------------
  S    -19.365900   34.868900   36.701700
  C    -20.550400   35.060000   35.440200
  C    -20.894700   33.884700   34.816600
  C    -20.392500   32.786600   35.565900
  C    -19.584500   33.113900   36.595000
  H    -20.647800   31.730600   35.374200
  C    -21.564100   33.784900   33.443100
  H    -22.278200   34.591700   33.239900
  H    -22.100200   32.790100   33.343400
  C    -20.563200   34.036500   32.265000
  H    -21.052900   34.285800   31.359100
  H    -20.027200   34.983100   32.382700
  C    -19.650700   32.905900   32.165800
  H    -19.146300   32.883700   31.179600
  H    -19.022600   32.720200   32.997400
  H    -20.290000   31.984100   32.100100
  S    -19.762900   32.400200   39.200100
  C    -18.952900   30.920700   39.668400
  C    -18.035400   30.538400   38.694200
  C    -18.008600   31.409100   37.540100
  C    -19.062000   32.274500   37.652700
  H    -17.382100   29.753400   38.889500
  C    -17.036700   31.244600   36.385800
  H    -16.103100   31.135100   36.868300
  H    -16.952600   32.275600   35.940400
  C    -17.344900   30.291700   35.217800
  H    -16.657900   30.400900   34.361500
  H    -18.376400   30.526600   34.765700
  C    -17.464200   28.771800   35.579600
  H    -18.231500   28.633300   36.339100
  H    -16.583400   28.209900   35.896000
  H    -17.806800   28.307500   34.634900
  H    -20.736200   36.051600   35.005900
  H    -19.194800   30.465700   40.550600

 Total Charge           Charge          ....    0
 Multiplicity           Mult            ....    1
 Number of Electrons    NEL             ....  134
 Basis Dimension        Dim             ....  322

ORBITAL ENERGIES
----------------

  NO   OCC          E(Eh)            E(eV)
   0   2.0000     -88.963100     -2420.8090
   1   2.0000     -88.962996     -2420.8062
   2   2.0000     -10.321958      -280.8747
   3   2.0000     -10.316161      -280.7170
   4   2.0000     -10.312214      -280.6096
   5   2.0000     -10.310879      -280.5733
   6   2.0000     -10.301100      -280.3072
   7   2.0000     -10.300988      -280.3041
   8   2.0000     -10.300548      -280.2922
   9   2.0000     -10.299475      -280.2630
  10   2.0000     -10.293643      -280.1043
  11   2.0000     -10.293204      -280.0923
  12   2.0000     -10.291223      -280.0384
  13   2.0000     -10.280524      -279.7473
  14   2.0000     -10.279054      -279.7073
  15   2.0000     -10.271271      -279.4955
  16   2.0000      -8.079108      -219.8437
  17   2.0000      -8.077954      -219.8123
  18   2.0000      -6.037426      -164.2867
  19   2.0000      -6.036328      -164.2568
  20   2.0000      -6.033593      -164.1824
  21   2.0000      -6.032614      -164.1558
  22   2.0000      -6.029832      -164.0801
  23   2.0000      -6.028673      -164.0485
  24   2.0000      -1.012049       -27.5393
  25   2.0000      -0.987139       -26.8614
  26   2.0000      -0.915836       -24.9212
  27   2.0000      -0.903750       -24.5923
  28   2.0000      -0.870183       -23.6789
  29   2.0000      -0.849802       -23.1243
  30   2.0000      -0.847050       -23.0494
  31   2.0000      -0.816052       -22.2059
  32   2.0000      -0.785994       -21.3880
  33   2.0000      -0.770881       -20.9767
  34   2.0000      -0.705307       -19.1924
  35   2.0000      -0.704311       -19.1653
  36   2.0000      -0.691651       -18.8208
  37   2.0000      -0.668987       -18.2041
  38   2.0000      -0.642768       -17.4906
  39   2.0000      -0.614879       -16.7317
  40   2.0000      -0.593455       -16.1487
  41   2.0000      -0.571482       -15.5508
  42   2.0000      -0.554532       -15.0896
  43   2.0000      -0.549831       -14.9617
  44   2.0000      -0.545359       -14.8400
  45   2.0000      -0.536949       -14.6111
  46   2.0000      -0.522378       -14.2146
  47   2.0000      -0.506177       -13.7738
  48   2.0000      -0.502120       -13.6634
  49   2.0000      -0.493502       -13.4289
  50   2.0000      -0.491780       -13.3820
  51   2.0000      -0.480054       -13.0629
  52   2.0000      -0.477254       -12.9867
  53   2.0000      -0.461143       -12.5483
  54   2.0000      -0.457466       -12.4483
  55   2.0000      -0.449879       -12.2418
  56   2.0000      -0.443956       -12.0806
  57   2.0000      -0.440265       -11.9802
  58   2.0000      -0.437187       -11.8965
  59   2.0000      -0.418316       -11.3830
  60   2.0000      -0.415596       -11.3089
  61   2.0000      -0.414542       -11.2803
  62   2.0000      -0.410302       -11.1649
  63   2.0000      -0.342184        -9.3113
  64   2.0000      -0.328128        -8.9288
  65   2.0000      -0.321525        -8.7491
  66   2.0000      -0.303223        -8.2511
  67   0.0000       0.041783         1.1370
  68   0.0000       0.056586         1.5398
  69   0.0000       0.110396         3.0040
  70   0.0000       0.115429         3.1410
  71   0.0000       0.129550         3.5252

MULLIKEN ATOMIC CHARGES
-----------------------
   0 S :    0.103449
   1 C :   -0.122377
   2 C :   -0.072030
   3 C :    0.037622
   4 C :   -0.189604
   5 H :    0.022258
   6 C :    0.023950
   7 H :    0.026746
   8 H :    0.042624
   9 C :   -0.038118
  10 H :    0.012465
  11 H :    0.017476
  12 C :   -0.038678
  13 H :    0.031943
  14 H :    0.045438
  15 H :    0.008131
  16 S :    0.126956
  17 C :   -0.067691
  18 C :   -0.004160
  19 C :   -0.047408
  20 C :   -0.178581
  21 H :   -0.006370
  22 C :    0.115459
  23 H :    0.019420
  24 H :    0.029412
  25 C :   -0.079980
  26 H :    0.039343
  27 H :    0.034622
  28 C :   -0.073346
  29 H :    0.037487
  30 H :    0.035189
  31 H :    0.033207
  32 H :    0.051440
  33 H :    0.023707
Sum of atomic charges:    0.0000000

LOEWDIN ATOMIC CHARGES
----------------------
   0 S :    0.389888
   1 C :   -0.190851
   2 C :   -0.067984
   3 C :   -0.061242
   4 C :   -0.187765
   5 H :    0.036181
   6 C :   -0.029322
   7 H :    0.032347
   8 H :    0.034835
   9 C :   -0.043174
  10 H :    0.019498
  11 H :    0.024938
  12 C :   -0.068518
  13 H :    0.029611
  14 H :    0.021649
  15 H :    0.025652
  16 S :    0.425794
  17 C :   -0.168315
  18 C :   -0.057164
  19 C :   -0.054610
  20 C :   -0.217427
  21 H :    0.018445
  22 C :   -0.035246
  23 H :    0.028306
  24 H :    0.041126
  25 C :   -0.041387
  26 H :    0.027387
  27 H :    0.033556
  28 C :   -0.074299
  29 H :    0.023650
  30 H :    0.021266
  31 H :    0.029772
  32 H :    0.026247
  33 H :    0.007159

  Mayer bond orders larger than 0.100000
B(  0-S ,  1-C ) :   1.1433 B(  0-S ,  4-C ) :   1.1366 B(  1-C ,  2-C ) :   1.6332
B(  1-C , 32-H ) :   0.9599 B(  2-C ,  3-C ) :   1.2184 B(  2-C ,  6-C ) :   1.0268
B(  3-C ,  4-C ) :   1.6341 B(  3-C ,  5-H ) :   0.9853 B(  4-C , 20-C ) :   1.0010
B(  6-C ,  7-H ) :   0.9385 B(  6-C ,  8-H ) :   0.9496 B(  6-C ,  9-C ) :   1.0671
B(  9-C , 10-H ) :   0.9524 B(  9-C , 11-H ) :   0.9449 B(  9-C , 12-C ) :   1.0881
B( 12-C , 13-H ) :   0.9670 B( 12-C , 14-H ) :   0.9734 B( 12-C , 15-H ) :   0.9692
B( 16-S , 17-C ) :   1.1454 B( 16-S , 20-C ) :   1.1687 B( 17-C , 18-C ) :   1.6040
B( 17-C , 33-H ) :   0.9858 B( 18-C , 19-C ) :   1.2168 B( 18-C , 21-H ) :   0.9999
B( 19-C , 20-C ) :   1.6040 B( 19-C , 22-C ) :   1.0383 B( 22-C , 23-H ) :   0.9331
B( 22-C , 24-H ) :   0.9210 B( 22-C , 25-C ) :   1.0669 B( 25-C , 26-H ) :   0.9569
B( 25-C , 27-H ) :   0.9508 B( 25-C , 28-C ) :   1.0703 B( 28-C , 29-H ) :   0.9746
B( 28-C , 30-H ) :   0.9780 B( 28-C , 31-H ) :   0.9753

Dispersion correction           -0.015905886
FINAL SINGLE POINT ENERGY     -1339.867186345190

DIPOLE MOMENT
-------------
                                X             Y             Z
Electronic contribution:     -4.35078      13.01269      25.39973
Nuclear contribution   :      4.45740     -13.29630     -25.94376
                        -----------------------------------------
Total Dipole Moment    :      0.10662      -0.28360      -0.54404
                        -----------------------------------------
Magnitude (a.u.)       :      0.62272
Magnitude (Debye)      :      1.58282

Rotational constants in cm-1:     0.018651     0.010234     0.007407
Rotational constants in MHz :   559.134792   306.793465   222.065145

                             ****ORCA TERMINATED NORMALLY****
TOTAL RUN TIME: 0 days 0 hours 0 minutes 35 seconds 394 msec
