                         Program Version 4.2.1 -  RELEASE  -
|  1> ! wB97X-D3 SP def2-SVP
|  2> %pal
|  3> nprocs 16
|  4> end
|  5>
|  6> * xyz 0 1
|  7> S 	 -44.3657 	 16.5295 	 83.3135
|  8> C 	 -43.212 	 15.7769 	 82.2268
|  9> C 	 -42.7336 	 16.6183 	 81.268
| 10> C 	 -43.4101 	 17.8618 	 81.2457
| 11> C 	 -44.3255 	 17.9989 	 82.2067
| 12> H 	 -43.169 	 18.6581 	 80.6364
| 13> C 	 -41.8746 	 16.159 	 80.0799
| 14> H 	 -41.9813 	 16.7363 	 79.2109
| 15> H 	 -42.4324 	 15.307 	 79.7872
| 16> C 	 -40.3349 	 15.9879 	 80.2901
| 17> H 	 -39.9261 	 16.9635 	 80.5931
| 18> H 	 -40.1596 	 15.3051 	 81.0829
| 19> C 	 -39.5036 	 15.3557 	 79.0663
| 20> H 	 -38.5243 	 14.9385 	 79.4317
| 21> H 	 -40.0874 	 14.5814 	 78.5819
| 22> H 	 -39.3683 	 16.1487 	 78.2942
| 23> S 	 -46.748 	 19.1271 	 82.8421
| 24> C 	 -46.908 	 20.7693 	 83.3918
| 25> C 	 -45.6759 	 21.3493 	 83.3855
| 26> C 	 -44.6072 	 20.5446 	 82.9099
| 27> C 	 -45.0221 	 19.1989 	 82.6275
| 28> H 	 -45.5897 	 22.2898 	 83.8479
| 29> C 	 -43.1845 	 21.0248 	 82.8773
| 30> H 	 -42.538 	 20.2274 	 82.5545
| 31> H 	 -42.9014 	 21.3256 	 83.9023
| 32> C 	 -43.0365 	 22.2959 	 82.0172
| 33> H 	 -43.7423 	 23.1158 	 82.2549
| 34> H 	 -43.2032 	 21.8711 	 81.0537
| 35> C 	 -41.6136 	 22.8219 	 81.9937
| 36> H 	 -41.4114 	 23.6493 	 81.2601
| 37> H 	 -40.8525 	 22.03 	 81.9155
| 38> H 	 -41.3456 	 23.3838 	 82.9462
| 39> H 	 -42.768 	 14.8091 	 82.3746
| 40> H 	 -47.7798 	 21.2553 	 83.8715
| 41> *
| 42>
| 43>                          ****END OF INPUT****

CARTESIAN COORDINATES (ANGSTROEM)
---------------------------------
  S    -44.365700   16.529500   83.313500
  C    -43.212000   15.776900   82.226800
  C    -42.733600   16.618300   81.268000
  C    -43.410100   17.861800   81.245700
  C    -44.325500   17.998900   82.206700
  H    -43.169000   18.658100   80.636400
  C    -41.874600   16.159000   80.079900
  H    -41.981300   16.736300   79.210900
  H    -42.432400   15.307000   79.787200
  C    -40.334900   15.987900   80.290100
  H    -39.926100   16.963500   80.593100
  H    -40.159600   15.305100   81.082900
  C    -39.503600   15.355700   79.066300
  H    -38.524300   14.938500   79.431700
  H    -40.087400   14.581400   78.581900
  H    -39.368300   16.148700   78.294200
  S    -46.748000   19.127100   82.842100
  C    -46.908000   20.769300   83.391800
  C    -45.675900   21.349300   83.385500
  C    -44.607200   20.544600   82.909900
  C    -45.022100   19.198900   82.627500
  H    -45.589700   22.289800   83.847900
  C    -43.184500   21.024800   82.877300
  H    -42.538000   20.227400   82.554500
  H    -42.901400   21.325600   83.902300
  C    -43.036500   22.295900   82.017200
  H    -43.742300   23.115800   82.254900
  H    -43.203200   21.871100   81.053700
  C    -41.613600   22.821900   81.993700
  H    -41.411400   23.649300   81.260100
  H    -40.852500   22.030000   81.915500
  H    -41.345600   23.383800   82.946200
  H    -42.768000   14.809100   82.374600
  H    -47.779800   21.255300   83.871500

 Total Charge           Charge          ....    0
 Multiplicity           Mult            ....    1
 Number of Electrons    NEL             ....  134
 Basis Dimension        Dim             ....  322

ORBITAL ENERGIES
----------------

  NO   OCC          E(Eh)            E(eV)
   0   2.0000     -88.966883     -2420.9120
   1   2.0000     -88.962263     -2420.7863
   2   2.0000     -10.331315      -281.1294
   3   2.0000     -10.328715      -281.0586
   4   2.0000     -10.316517      -280.7267
   5   2.0000     -10.313598      -280.6473
   6   2.0000     -10.306406      -280.4516
   7   2.0000     -10.299410      -280.2612
   8   2.0000     -10.292667      -280.0777
   9   2.0000     -10.291088      -280.0347
  10   2.0000     -10.290160      -280.0095
  11   2.0000     -10.288142      -279.9546
  12   2.0000     -10.287733      -279.9434
  13   2.0000     -10.287036      -279.9245
  14   2.0000     -10.286276      -279.9038
  15   2.0000     -10.285581      -279.8849
  16   2.0000      -8.080495      -219.8815
  17   2.0000      -8.077307      -219.7947
  18   2.0000      -6.039072      -164.3315
  19   2.0000      -6.035782      -164.2420
  20   2.0000      -6.035427      -164.2323
  21   2.0000      -6.031551      -164.1269
  22   2.0000      -6.030964      -164.1109
  23   2.0000      -6.028288      -164.0381
  24   2.0000      -1.006176       -27.3794
  25   2.0000      -0.985588       -26.8192
  26   2.0000      -0.912746       -24.8371
  27   2.0000      -0.903137       -24.5756
  28   2.0000      -0.871827       -23.7236
  29   2.0000      -0.851434       -23.1687
  30   2.0000      -0.845269       -23.0009
  31   2.0000      -0.820829       -22.3359
  32   2.0000      -0.780737       -21.2449
  33   2.0000      -0.766873       -20.8677
  34   2.0000      -0.707579       -19.2542
  35   2.0000      -0.706578       -19.2270
  36   2.0000      -0.696207       -18.9448
  37   2.0000      -0.658215       -17.9109
  38   2.0000      -0.645015       -17.5517
  39   2.0000      -0.627156       -17.0658
  40   2.0000      -0.596684       -16.2366
  41   2.0000      -0.573957       -15.6182
  42   2.0000      -0.569608       -15.4998
  43   2.0000      -0.554607       -15.0916
  44   2.0000      -0.528735       -14.3876
  45   2.0000      -0.523714       -14.2510
  46   2.0000      -0.516606       -14.0576
  47   2.0000      -0.512268       -13.9395
  48   2.0000      -0.504754       -13.7350
  49   2.0000      -0.503922       -13.7124
  50   2.0000      -0.487170       -13.2566
  51   2.0000      -0.481145       -13.0926
  52   2.0000      -0.474390       -12.9088
  53   2.0000      -0.464008       -12.6263
  54   2.0000      -0.458522       -12.4770
  55   2.0000      -0.449735       -12.2379
  56   2.0000      -0.445077       -12.1112
  57   2.0000      -0.439319       -11.9545
  58   2.0000      -0.438897       -11.9430
  59   2.0000      -0.421505       -11.4697
  60   2.0000      -0.418999       -11.4015
  61   2.0000      -0.415090       -11.2952
  62   2.0000      -0.409992       -11.1565
  63   2.0000      -0.349190        -9.5020
  64   2.0000      -0.335148        -9.1199
  65   2.0000      -0.326104        -8.8737
  66   2.0000      -0.294320        -8.0088
  67   0.0000       0.027692         0.7535
  68   0.0000       0.065298         1.7769
  69   0.0000       0.106906         2.9091
  70   0.0000       0.120670         3.2836
  71   0.0000       0.128204         3.4886

MULLIKEN ATOMIC CHARGES
-----------------------
   0 S :    0.099978
   1 C :   -0.094851
   2 C :   -0.077992
   3 C :    0.049981
   4 C :   -0.116442
   5 H :   -0.015405
   6 C :    0.059270
   7 H :    0.001274
   8 H :    0.024074
   9 C :   -0.063794
  10 H :    0.034356
  11 H :    0.019991
  12 C :   -0.083512
  13 H :    0.054506
  14 H :    0.033751
  15 H :    0.040806
  16 S :    0.101599
  17 C :   -0.097706
  18 C :   -0.034898
  19 C :   -0.014530
  20 C :   -0.175761
  21 H :    0.003251
  22 C :    0.068817
  23 H :    0.020167
  24 H :    0.029635
  25 C :   -0.075729
  26 H :    0.047105
  27 H :    0.021171
  28 C :   -0.073888
  29 H :    0.042035
  30 H :    0.032327
  31 H :    0.025863
  32 H :    0.042590
  33 H :    0.071959
Sum of atomic charges:    0.0000000

LOEWDIN ATOMIC CHARGES
----------------------
   0 S :    0.365753
   1 C :   -0.180114
   2 C :   -0.063554
   3 C :   -0.046850
   4 C :   -0.161629
   5 H :    0.023290
   6 C :   -0.031777
   7 H :    0.021455
   8 H :    0.031258
   9 C :   -0.034976
  10 H :    0.025723
  11 H :    0.014570
  12 C :   -0.070455
  13 H :    0.034940
  14 H :    0.022823
  15 H :    0.027046
  16 S :    0.417129
  17 C :   -0.195533
  18 C :   -0.073609
  19 C :   -0.051287
  20 C :   -0.211244
  21 H :    0.024129
  22 C :   -0.028552
  23 H :    0.026872
  24 H :    0.031671
  25 C :   -0.041719
  26 H :    0.030324
  27 H :    0.021478
  28 C :   -0.079038
  29 H :    0.030938
  30 H :    0.024856
  31 H :    0.026834
  32 H :    0.026485
  33 H :    0.042765

  Mayer bond orders larger than 0.100000
B(  0-S ,  1-C ) :   1.1280 B(  0-S ,  4-C ) :   1.1095 B(  1-C ,  2-C ) :   1.6606
B(  1-C , 32-H ) :   0.9615 B(  2-C ,  3-C ) :   1.2005 B(  2-C ,  6-C ) :   0.9998
B(  3-C ,  4-C ) :   1.6207 B(  3-C ,  5-H ) :   1.0166 B(  4-C , 20-C ) :   1.0424
B(  6-C ,  7-H ) :   0.9503 B(  6-C ,  8-H ) :   0.9468 B(  6-C ,  9-C ) :   1.0458
B(  9-C , 10-H ) :   0.9599 B(  9-C , 11-H ) :   0.9657 B(  9-C , 12-C ) :   1.0645
B( 12-C , 13-H ) :   0.9783 B( 12-C , 14-H ) :   0.9782 B( 12-C , 15-H ) :   0.9787
B( 16-S , 17-C ) :   1.1606 B( 16-S , 20-C ) :   1.1573 B( 17-C , 18-C ) :   1.5996
B( 17-C , 20-C ) :   0.1022 B( 17-C , 33-H ) :   0.9614 B( 18-C , 19-C ) :   1.2593
B( 18-C , 21-H ) :   0.9928 B( 19-C , 20-C ) :   1.5309 B( 19-C , 22-C ) :   1.0574
B( 22-C , 23-H ) :   0.9354 B( 22-C , 24-H ) :   0.9331 B( 22-C , 25-C ) :   1.0484
B( 25-C , 26-H ) :   0.9570 B( 25-C , 27-H ) :   0.9543 B( 25-C , 28-C ) :   1.0893
B( 28-C , 29-H ) :   0.9740 B( 28-C , 30-H ) :   0.9707 B( 28-C , 31-H ) :   0.9712

Dispersion correction           -0.013501230
FINAL SINGLE POINT ENERGY     -1339.864624758624

DIPOLE MOMENT
-------------
                                X             Y             Z
Electronic contribution:    -27.49148      -7.15991      13.37482
Nuclear contribution   :     28.06256       7.44103     -13.55239
                        -----------------------------------------
Total Dipole Moment    :      0.57108       0.28112      -0.17758
                        -----------------------------------------
Magnitude (a.u.)       :      0.66083
Magnitude (Debye)      :      1.67969

Rotational constants in cm-1:     0.017665     0.008066     0.005914
Rotational constants in MHz :   529.580770   241.827395   177.308916

                             ****ORCA TERMINATED NORMALLY****
TOTAL RUN TIME: 0 days 0 hours 0 minutes 29 seconds 501 msec
