                         Program Version 4.2.1 -  RELEASE  -
|  1> ! wB97X-D3 SP def2-SVP
|  2> %pal
|  3> nprocs 16
|  4> end
|  5>
|  6> * xyz 0 1
|  7> S 	 -2.43214 	 77.4508 	 49.7071
|  8> C 	 -1.38609 	 76.4277 	 48.7575
|  9> C 	 -0.353324 	 75.8866 	 49.5714
| 10> C 	 -0.524182 	 76.2597 	 50.9188
| 11> C 	 -1.60712 	 77.0398 	 51.2256
| 12> H 	 -0.00177508 	 75.9673 	 51.8281
| 13> C 	 0.873537 	 75.0617 	 48.9904
| 14> H 	 1.23473 	 75.5656 	 48.0182
| 15> H 	 0.607548 	 74.0469 	 48.7943
| 16> C 	 2.01125 	 74.9746 	 49.9627
| 17> H 	 2.51014 	 75.9574 	 50.1464
| 18> H 	 1.83968 	 74.5692 	 50.9518
| 19> C 	 3.21025 	 74.2127 	 49.4233
| 20> H 	 4.17562 	 74.5081 	 49.9118
| 21> H 	 3.17733 	 73.1085 	 49.6593
| 22> H 	 3.45764 	 74.3605 	 48.3464
| 23> S 	 -2.96454 	 79.1594 	 52.4999
| 24> C 	 -3.03837 	 79.1895 	 54.2257
| 25> C 	 -2.20633 	 78.1601 	 54.7689
| 26> C 	 -1.73799 	 77.231 	 53.8308
| 27> C 	 -2.00328 	 77.6357 	 52.4853
| 28> H 	 -1.9971 	 78.1297 	 55.8234
| 29> C 	 -1.0283 	 75.9834 	 54.2804
| 30> H 	 -0.716212 	 75.3769 	 53.496
| 31> H 	 -1.69382 	 75.4048 	 54.8999
| 32> C 	 0.252157 	 76.2028 	 55.1988
| 33> H 	 0.552433 	 75.3054 	 55.6488
| 34> H 	 0.010613 	 76.7864 	 56.0831
| 35> C 	 1.51677 	 76.7371 	 54.5879
| 36> H 	 1.96281 	 76.0842 	 53.845
| 37> H 	 2.27335 	 76.7632 	 55.3948
| 38> H 	 1.3581 	 77.6862 	 54.0538
| 39> H 	 -1.56079 	 76.2077 	 47.7138
| 40> H 	 -3.64412 	 79.9128 	 54.8214
| 41> *
| 42>
| 43>                          ****END OF INPUT****

CARTESIAN COORDINATES (ANGSTROEM)
---------------------------------
  S     -2.432140   77.450800   49.707100
  C     -1.386090   76.427700   48.757500
  C     -0.353324   75.886600   49.571400
  C     -0.524182   76.259700   50.918800
  C     -1.607120   77.039800   51.225600
  H     -0.001775   75.967300   51.828100
  C      0.873537   75.061700   48.990400
  H      1.234730   75.565600   48.018200
  H      0.607548   74.046900   48.794300
  C      2.011250   74.974600   49.962700
  H      2.510140   75.957400   50.146400
  H      1.839680   74.569200   50.951800
  C      3.210250   74.212700   49.423300
  H      4.175620   74.508100   49.911800
  H      3.177330   73.108500   49.659300
  H      3.457640   74.360500   48.346400
  S     -2.964540   79.159400   52.499900
  C     -3.038370   79.189500   54.225700
  C     -2.206330   78.160100   54.768900
  C     -1.737990   77.231000   53.830800
  C     -2.003280   77.635700   52.485300
  H     -1.997100   78.129700   55.823400
  C     -1.028300   75.983400   54.280400
  H     -0.716212   75.376900   53.496000
  H     -1.693820   75.404800   54.899900
  C      0.252157   76.202800   55.198800
  H      0.552433   75.305400   55.648800
  H      0.010613   76.786400   56.083100
  C      1.516770   76.737100   54.587900
  H      1.962810   76.084200   53.845000
  H      2.273350   76.763200   55.394800
  H      1.358100   77.686200   54.053800
  H     -1.560790   76.207700   47.713800
  H     -3.644120   79.912800   54.821400

 Total Charge           Charge          ....    0
 Multiplicity           Mult            ....    1
 Number of Electrons    NEL             ....  134
 Basis Dimension        Dim             ....  322

ORBITAL ENERGIES
----------------

  NO   OCC          E(Eh)            E(eV)
   0   2.0000     -88.971346     -2421.0334
   1   2.0000     -88.964827     -2420.8560
   2   2.0000     -10.336584      -281.2728
   3   2.0000     -10.329946      -281.0921
   4   2.0000     -10.326320      -280.9935
   5   2.0000     -10.318764      -280.7879
   6   2.0000     -10.310558      -280.5646
   7   2.0000     -10.307763      -280.4885
   8   2.0000     -10.304067      -280.3879
   9   2.0000     -10.296357      -280.1781
  10   2.0000     -10.292802      -280.0814
  11   2.0000     -10.292239      -280.0661
  12   2.0000     -10.286883      -279.9203
  13   2.0000     -10.285047      -279.8704
  14   2.0000     -10.284992      -279.8688
  15   2.0000     -10.278277      -279.6861
  16   2.0000      -8.085196      -220.0094
  17   2.0000      -8.079214      -219.8466
  18   2.0000      -6.043704      -164.4575
  19   2.0000      -6.039730      -164.3494
  20   2.0000      -6.037687      -164.2938
  21   2.0000      -6.036116      -164.2511
  22   2.0000      -6.033683      -164.1849
  23   2.0000      -6.030130      -164.0882
  24   2.0000      -1.002646       -27.2834
  25   2.0000      -0.979799       -26.6617
  26   2.0000      -0.912881       -24.8408
  27   2.0000      -0.910749       -24.7827
  28   2.0000      -0.868631       -23.6367
  29   2.0000      -0.857913       -23.3450
  30   2.0000      -0.844062       -22.9681
  31   2.0000      -0.810098       -22.0439
  32   2.0000      -0.788428       -21.4542
  33   2.0000      -0.769854       -20.9488
  34   2.0000      -0.709990       -19.3198
  35   2.0000      -0.699913       -19.0456
  36   2.0000      -0.688998       -18.7486
  37   2.0000      -0.657824       -17.9003
  38   2.0000      -0.645876       -17.5752
  39   2.0000      -0.619047       -16.8451
  40   2.0000      -0.599430       -16.3113
  41   2.0000      -0.572861       -15.5883
  42   2.0000      -0.562629       -15.3099
  43   2.0000      -0.555536       -15.1169
  44   2.0000      -0.542947       -14.7743
  45   2.0000      -0.525194       -14.2913
  46   2.0000      -0.516125       -14.0445
  47   2.0000      -0.507736       -13.8162
  48   2.0000      -0.503525       -13.7016
  49   2.0000      -0.499943       -13.6041
  50   2.0000      -0.489285       -13.3141
  51   2.0000      -0.481607       -13.1052
  52   2.0000      -0.478265       -13.0143
  53   2.0000      -0.469774       -12.7832
  54   2.0000      -0.461521       -12.5586
  55   2.0000      -0.450204       -12.2507
  56   2.0000      -0.444543       -12.0966
  57   2.0000      -0.440384       -11.9835
  58   2.0000      -0.435520       -11.8511
  59   2.0000      -0.422871       -11.5069
  60   2.0000      -0.415588       -11.3087
  61   2.0000      -0.409474       -11.1424
  62   2.0000      -0.408634       -11.1195
  63   2.0000      -0.358045        -9.7429
  64   2.0000      -0.334962        -9.1148
  65   2.0000      -0.331129        -9.0105
  66   2.0000      -0.274769        -7.4769
  67   0.0000       0.013973         0.3802
  68   0.0000       0.077498         2.1088
  69   0.0000       0.098073         2.6687
  70   0.0000       0.118546         3.2258
  71   0.0000       0.126706         3.4479

MULLIKEN ATOMIC CHARGES
-----------------------
   0 S :    0.096643
   1 C :   -0.127155
   2 C :   -0.064293
   3 C :    0.004545
   4 C :   -0.138000
   5 H :   -0.013654
   6 C :    0.092994
   7 H :    0.051216
   8 H :    0.034581
   9 C :   -0.106918
  10 H :    0.036895
  11 H :    0.037069
  12 C :   -0.094357
  13 H :    0.029904
  14 H :    0.036662
  15 H :    0.034747
  16 S :    0.114471
  17 C :   -0.115848
  18 C :   -0.047679
  19 C :   -0.032660
  20 C :   -0.129080
  21 H :    0.018760
  22 C :    0.105383
  23 H :    0.001686
  24 H :    0.033272
  25 C :   -0.074028
  26 H :    0.007082
  27 H :    0.019376
  28 C :   -0.051678
  29 H :    0.020627
  30 H :    0.036546
  31 H :    0.046915
  32 H :    0.054620
  33 H :    0.081358
Sum of atomic charges:   -0.0000000

LOEWDIN ATOMIC CHARGES
----------------------
   0 S :    0.395548
   1 C :   -0.195979
   2 C :   -0.061311
   3 C :   -0.075174
   4 C :   -0.182531
   5 H :    0.029889
   6 C :   -0.025144
   7 H :    0.045270
   8 H :    0.028520
   9 C :   -0.057272
  10 H :    0.031876
  11 H :    0.024706
  12 C :   -0.078667
  13 H :    0.028962
  14 H :    0.025395
  15 H :    0.026089
  16 S :    0.405188
  17 C :   -0.201161
  18 C :   -0.070061
  19 C :   -0.056468
  20 C :   -0.185319
  21 H :    0.028131
  22 C :   -0.019921
  23 H :    0.016806
  24 H :    0.037813
  25 C :   -0.037484
  26 H :    0.018214
  27 H :    0.021016
  28 C :   -0.068638
  29 H :    0.019217
  30 H :    0.033262
  31 H :    0.029200
  32 H :    0.029082
  33 H :    0.040942

  Mayer bond orders larger than 0.100000
B(  0-S ,  1-C ) :   1.1612 B(  0-S ,  4-C ) :   1.1357 B(  1-C ,  2-C ) :   1.5732
B(  1-C ,  4-C ) :   0.1093 B(  1-C , 32-H ) :   0.9760 B(  2-C ,  3-C ) :   1.2704
B(  2-C ,  6-C ) :   0.9912 B(  3-C ,  4-C ) :   1.5627 B(  3-C ,  5-H ) :   0.9809
B(  4-C , 20-C ) :   1.0999 B(  6-C ,  7-H ) :   0.9464 B(  6-C ,  8-H ) :   0.9378
B(  6-C ,  9-C ) :   1.0880 B(  9-C , 10-H ) :   0.9583 B(  9-C , 11-H ) :   0.9445
B(  9-C , 12-C ) :   1.0774 B( 12-C , 13-H ) :   0.9759 B( 12-C , 14-H ) :   0.9746
B( 12-C , 15-H ) :   0.9731 B( 16-S , 17-C ) :   1.1770 B( 16-S , 20-C ) :   1.1403
B( 17-C , 18-C ) :   1.5473 B( 17-C , 20-C ) :   0.1146 B( 17-C , 33-H ) :   0.9643
B( 18-C , 19-C ) :   1.2930 B( 18-C , 21-H ) :   0.9908 B( 19-C , 20-C ) :   1.5170
B( 19-C , 22-C ) :   1.0505 B( 22-C , 23-H ) :   0.9336 B( 22-C , 24-H ) :   0.9239
B( 22-C , 25-C ) :   1.0704 B( 25-C , 26-H ) :   0.9498 B( 25-C , 27-H ) :   0.9537
B( 25-C , 28-C ) :   1.0896 B( 28-C , 29-H ) :   0.9691 B( 28-C , 30-H ) :   0.9689
B( 28-C , 31-H ) :   0.9745

Dispersion correction           -0.014258072
FINAL SINGLE POINT ENERGY     -1339.866178021179

DIPOLE MOMENT
-------------
                                X             Y             Z
Electronic contribution:    -27.90664      17.25011      -6.34694
Nuclear contribution   :     28.43503     -17.68532       6.72251
                        -----------------------------------------
Total Dipole Moment    :      0.52839      -0.43521       0.37557
                        -----------------------------------------
Magnitude (a.u.)       :      0.78080
Magnitude (Debye)      :      1.98465

Rotational constants in cm-1:     0.017445     0.009617     0.006518
Rotational constants in MHz :   522.999302   288.320548   195.417870

                             ****ORCA TERMINATED NORMALLY****
TOTAL RUN TIME: 0 days 0 hours 0 minutes 32 seconds 765 msec
