                         Program Version 4.2.1 -  RELEASE  -
|  1> ! wB97X-D3 SP def2-SVP
|  2> %pal
|  3> nprocs 16
|  4> end
|  5>
|  6> * xyz 0 1
|  7> S 	 -49.2303 	 66.7526 	 125.515
|  8> C 	 -48.5787 	 66.0449 	 124.053
|  9> C 	 -47.9105 	 64.9066 	 124.218
| 10> C 	 -47.6788 	 64.7579 	 125.622
| 11> C 	 -48.2444 	 65.7013 	 126.391
| 12> H 	 -47.1627 	 63.8534 	 126.156
| 13> C 	 -47.6804 	 63.931 	 123.135
| 14> H 	 -48.3816 	 64.1031 	 122.322
| 15> H 	 -47.8957 	 62.9846 	 123.613
| 16> C 	 -46.315 	 63.943 	 122.632
| 17> H 	 -46.1425 	 64.7874 	 122.048
| 18> H 	 -45.5809 	 64.0401 	 123.491
| 19> C 	 -45.9904 	 62.6542 	 121.913
| 20> H 	 -46.5567 	 61.7719 	 122.291
| 21> H 	 -46.35 	 62.7469 	 120.914
| 22> H 	 -44.9688 	 62.4932 	 121.717
| 23> S 	 -46.5071 	 66.2958 	 128.418
| 24> C 	 -47.0566 	 66.2612 	 130.071
| 25> C 	 -48.3478 	 65.8263 	 130.133
| 26> C 	 -48.9899 	 65.6366 	 128.869
| 27> C 	 -48.1085 	 65.7998 	 127.808
| 28> H 	 -48.8878 	 65.764 	 131.059
| 29> C 	 -50.3966 	 65.1966 	 128.698
| 30> H 	 -50.746 	 64.6035 	 129.527
| 31> H 	 -50.4483 	 64.526 	 127.898
| 32> C 	 -51.3981 	 66.3323 	 128.5
| 33> H 	 -51.1342 	 66.8644 	 127.577
| 34> H 	 -51.4171 	 67.0812 	 129.231
| 35> C 	 -52.7962 	 65.8488 	 128.238
| 36> H 	 -53.5225 	 66.5525 	 127.929
| 37> H 	 -53.2539 	 65.3578 	 129.163
| 38> H 	 -52.7309 	 65.1445 	 127.42
| 39> H 	 -49.0755 	 66.2871 	 123.133
| 40> H 	 -46.4159 	 66.5672 	 130.903
| 41> *
| 42>
| 43>                          ****END OF INPUT****

CARTESIAN COORDINATES (ANGSTROEM)
---------------------------------
  S    -49.230300   66.752600  125.515000
  C    -48.578700   66.044900  124.053000
  C    -47.910500   64.906600  124.218000
  C    -47.678800   64.757900  125.622000
  C    -48.244400   65.701300  126.391000
  H    -47.162700   63.853400  126.156000
  C    -47.680400   63.931000  123.135000
  H    -48.381600   64.103100  122.322000
  H    -47.895700   62.984600  123.613000
  C    -46.315000   63.943000  122.632000
  H    -46.142500   64.787400  122.048000
  H    -45.580900   64.040100  123.491000
  C    -45.990400   62.654200  121.913000
  H    -46.556700   61.771900  122.291000
  H    -46.350000   62.746900  120.914000
  H    -44.968800   62.493200  121.717000
  S    -46.507100   66.295800  128.418000
  C    -47.056600   66.261200  130.071000
  C    -48.347800   65.826300  130.133000
  C    -48.989900   65.636600  128.869000
  C    -48.108500   65.799800  127.808000
  H    -48.887800   65.764000  131.059000
  C    -50.396600   65.196600  128.698000
  H    -50.746000   64.603500  129.527000
  H    -50.448300   64.526000  127.898000
  C    -51.398100   66.332300  128.500000
  H    -51.134200   66.864400  127.577000
  H    -51.417100   67.081200  129.231000
  C    -52.796200   65.848800  128.238000
  H    -53.522500   66.552500  127.929000
  H    -53.253900   65.357800  129.163000
  H    -52.730900   65.144500  127.420000
  H    -49.075500   66.287100  123.133000
  H    -46.415900   66.567200  130.903000

 Total Charge           Charge          ....    0
 Multiplicity           Mult            ....    1
 Number of Electrons    NEL             ....  134
 Basis Dimension        Dim             ....  322

ORBITAL ENERGIES
----------------

  NO   OCC          E(Eh)            E(eV)
   0   2.0000     -88.962043     -2420.7803
   1   2.0000     -88.960259     -2420.7317
   2   2.0000     -10.321413      -280.8599
   3   2.0000     -10.316390      -280.7232
   4   2.0000     -10.315257      -280.6924
   5   2.0000     -10.302037      -280.3327
   6   2.0000     -10.299282      -280.2577
   7   2.0000     -10.295839      -280.1640
   8   2.0000     -10.293341      -280.0960
   9   2.0000     -10.289197      -279.9833
  10   2.0000     -10.286204      -279.9018
  11   2.0000     -10.282184      -279.7925
  12   2.0000     -10.278164      -279.6831
  13   2.0000     -10.275984      -279.6237
  14   2.0000     -10.273023      -279.5432
  15   2.0000     -10.270985      -279.4877
  16   2.0000      -8.078279      -219.8211
  17   2.0000      -8.074830      -219.7273
  18   2.0000      -6.036557      -164.2631
  19   2.0000      -6.033358      -164.1760
  20   2.0000      -6.032956      -164.1651
  21   2.0000      -6.029295      -164.0655
  22   2.0000      -6.028794      -164.0518
  23   2.0000      -6.025644      -163.9661
  24   2.0000      -1.019228       -27.7346
  25   2.0000      -0.987927       -26.8829
  26   2.0000      -0.933065       -25.3900
  27   2.0000      -0.915024       -24.8991
  28   2.0000      -0.878112       -23.8946
  29   2.0000      -0.852235       -23.1905
  30   2.0000      -0.851648       -23.1745
  31   2.0000      -0.814962       -22.1762
  32   2.0000      -0.790048       -21.4983
  33   2.0000      -0.773387       -21.0449
  34   2.0000      -0.709290       -19.3008
  35   2.0000      -0.702342       -19.1117
  36   2.0000      -0.696632       -18.9563
  37   2.0000      -0.665421       -18.1070
  38   2.0000      -0.642697       -17.4887
  39   2.0000      -0.619878       -16.8677
  40   2.0000      -0.603687       -16.4271
  41   2.0000      -0.580598       -15.7989
  42   2.0000      -0.568969       -15.4824
  43   2.0000      -0.561113       -15.2686
  44   2.0000      -0.533049       -14.5050
  45   2.0000      -0.528653       -14.3854
  46   2.0000      -0.522275       -14.2118
  47   2.0000      -0.516705       -14.0602
  48   2.0000      -0.508656       -13.8412
  49   2.0000      -0.498210       -13.5570
  50   2.0000      -0.490058       -13.3352
  51   2.0000      -0.481766       -13.1095
  52   2.0000      -0.469208       -12.7678
  53   2.0000      -0.461305       -12.5527
  54   2.0000      -0.459730       -12.5099
  55   2.0000      -0.451886       -12.2964
  56   2.0000      -0.447563       -12.1788
  57   2.0000      -0.445331       -12.1181
  58   2.0000      -0.434776       -11.8309
  59   2.0000      -0.428634       -11.6637
  60   2.0000      -0.422242       -11.4898
  61   2.0000      -0.411890       -11.2081
  62   2.0000      -0.406566       -11.0632
  63   2.0000      -0.338290        -9.2053
  64   2.0000      -0.332835        -9.0569
  65   2.0000      -0.326735        -8.8909
  66   2.0000      -0.302247        -8.2246
  67   0.0000       0.042997         1.1700
  68   0.0000       0.066674         1.8143
  69   0.0000       0.096873         2.6361
  70   0.0000       0.125241         3.4080
  71   0.0000       0.135291         3.6815

MULLIKEN ATOMIC CHARGES
-----------------------
   0 S :    0.108765
   1 C :   -0.116959
   2 C :   -0.075998
   3 C :   -0.021199
   4 C :   -0.158371
   5 H :    0.045965
   6 C :    0.108473
   7 H :    0.020871
   8 H :    0.018616
   9 C :   -0.072466
  10 H :    0.013323
  11 H :    0.034740
  12 C :   -0.003085
  13 H :    0.032129
  14 H :    0.005156
  15 H :    0.024115
  16 S :    0.104851
  17 C :   -0.099192
  18 C :   -0.014628
  19 C :   -0.014144
  20 C :   -0.180467
  21 H :    0.008901
  22 C :    0.100730
  23 H :    0.008111
  24 H :    0.007451
  25 C :   -0.046286
  26 H :    0.013185
  27 H :    0.013412
  28 C :   -0.042381
  29 H :    0.026362
  30 H :    0.030997
  31 H :    0.019577
  32 H :    0.032657
  33 H :    0.066789
Sum of atomic charges:    0.0000000

LOEWDIN ATOMIC CHARGES
----------------------
   0 S :    0.429230
   1 C :   -0.187860
   2 C :   -0.060736
   3 C :   -0.071428
   4 C :   -0.223098
   5 H :    0.047681
   6 C :   -0.023826
   7 H :    0.032056
   8 H :    0.033620
   9 C :   -0.039518
  10 H :    0.018046
  11 H :    0.030383
  12 C :   -0.064655
  13 H :    0.030730
  14 H :    0.022461
  15 H :    0.021505
  16 S :    0.396696
  17 C :   -0.186625
  18 C :   -0.072432
  19 C :   -0.052403
  20 C :   -0.186839
  21 H :    0.028308
  22 C :   -0.026110
  23 H :    0.029465
  24 H :    0.025084
  25 C :   -0.037230
  26 H :    0.015346
  27 H :    0.014860
  28 C :   -0.064600
  29 H :    0.020558
  30 H :    0.027741
  31 H :    0.022849
  32 H :    0.016341
  33 H :    0.034397

  Mayer bond orders larger than 0.100000
B(  0-S ,  1-C ) :   1.1303 B(  0-S ,  4-C ) :   1.1494 B(  1-C ,  2-C ) :   1.6604
B(  1-C , 32-H ) :   0.9605 B(  2-C ,  3-C ) :   1.2038 B(  2-C ,  6-C ) :   1.0174
B(  3-C ,  4-C ) :   1.6196 B(  3-C ,  5-H ) :   0.9792 B(  4-C , 20-C ) :   1.0225
B(  6-C ,  7-H ) :   0.9320 B(  6-C ,  8-H ) :   0.9318 B(  6-C ,  9-C ) :   1.0717
B(  9-C , 10-H ) :   0.9477 B(  9-C , 11-H ) :   0.9608 B(  9-C , 12-C ) :   1.0798
B( 12-C , 13-H ) :   0.9754 B( 12-C , 14-H ) :   0.9638 B( 12-C , 15-H ) :   0.9709
B( 16-S , 17-C ) :   1.1555 B( 16-S , 20-C ) :   1.1392 B( 17-C , 18-C ) :   1.5973
B( 17-C , 33-H ) :   0.9675 B( 18-C , 19-C ) :   1.2442 B( 18-C , 21-H ) :   0.9914
B( 19-C , 20-C ) :   1.5956 B( 19-C , 22-C ) :   1.0574 B( 22-C , 23-H ) :   0.9311
B( 22-C , 24-H ) :   0.9212 B( 22-C , 25-C ) :   1.0624 B( 25-C , 26-H ) :   0.9436
B( 25-C , 27-H ) :   0.9561 B( 25-C , 28-C ) :   1.0902 B( 28-C , 29-H ) :   0.9729
B( 28-C , 30-H ) :   0.9728 B( 28-C , 31-H ) :   0.9719

Dispersion correction           -0.014150242
FINAL SINGLE POINT ENERGY     -1339.866370636496

DIPOLE MOMENT
-------------
                                X             Y             Z
Electronic contribution:      8.75439      12.43936      10.49316
Nuclear contribution   :     -9.03697     -12.84101     -10.69043
                        -----------------------------------------
Total Dipole Moment    :     -0.28258      -0.40165      -0.19727
                        -----------------------------------------
Magnitude (a.u.)       :      0.52923
Magnitude (Debye)      :      1.34520

Rotational constants in cm-1:     0.020485     0.008060     0.006507
Rotational constants in MHz :   614.135877   241.644499   195.067981

                             ****ORCA TERMINATED NORMALLY****
TOTAL RUN TIME: 0 days 0 hours 0 minutes 32 seconds 738 msec
