                         Program Version 4.2.1 -  RELEASE  -
|  1> ! wB97X-D3 SP def2-SVP
|  2> %pal
|  3> nprocs 16
|  4> end
|  5>
|  6> * xyz 0 1
|  7> S 	 -12.298 	 39.323 	 34.746
|  8> C 	 -13.5548 	 38.2113 	 35.4168
|  9> C 	 -14.6848 	 38.3849 	 34.7116
| 10> C 	 -14.5665 	 39.2333 	 33.5378
| 11> C 	 -13.2794 	 39.6178 	 33.3328
| 12> H 	 -15.3258 	 39.503 	 32.8744
| 13> C 	 -16.0676 	 37.8353 	 35.1392
| 14> H 	 -15.9196 	 36.9768 	 35.7917
| 15> H 	 -16.5177 	 37.6831 	 34.2122
| 16> C 	 -16.9736 	 38.7752 	 35.9759
| 17> H 	 -17.2222 	 39.6929 	 35.372
| 18> H 	 -17.9552 	 38.4291 	 36.103
| 19> C 	 -16.4757 	 39.2916 	 37.3385
| 20> H 	 -17.2175 	 39.8523 	 37.9518
| 21> H 	 -16.1613 	 38.3604 	 37.8949
| 22> H 	 -15.556 	 39.8745 	 37.1357
| 23> S 	 -12.1016 	 42.0491 	 32.7443
| 24> C 	 -11.8304 	 42.4285 	 31.0923
| 25> C 	 -12.4922 	 41.5836 	 30.175
| 26> C 	 -13.042 	 40.4213 	 30.8872
| 27> C 	 -12.8522 	 40.5209 	 32.2315
| 28> H 	 -12.4078 	 41.7826 	 29.0448
| 29> C 	 -13.6154 	 39.2398 	 30.1814
| 30> H 	 -14.3884 	 39.6327 	 29.489
| 31> H 	 -14.0681 	 38.7054 	 31.009
| 32> C 	 -12.6602 	 38.2838 	 29.4979
| 33> H 	 -11.816 	 38.0843 	 30.206
| 34> H 	 -12.1775 	 38.61 	 28.6418
| 35> C 	 -13.4292 	 36.9307 	 29.1348
| 36> H 	 -14.3408 	 37.1949 	 28.6433
| 37> H 	 -13.6196 	 36.3887 	 30.0557
| 38> H 	 -12.9234 	 36.287 	 28.4756
| 39> H 	 -13.4727 	 37.651 	 36.3736
| 40> H 	 -11.3327 	 43.2762 	 30.7756
| 41> *
| 42>
| 43>                          ****END OF INPUT****

CARTESIAN COORDINATES (ANGSTROEM)
---------------------------------
  S    -12.298000   39.323000   34.746000
  C    -13.554800   38.211300   35.416800
  C    -14.684800   38.384900   34.711600
  C    -14.566500   39.233300   33.537800
  C    -13.279400   39.617800   33.332800
  H    -15.325800   39.503000   32.874400
  C    -16.067600   37.835300   35.139200
  H    -15.919600   36.976800   35.791700
  H    -16.517700   37.683100   34.212200
  C    -16.973600   38.775200   35.975900
  H    -17.222200   39.692900   35.372000
  H    -17.955200   38.429100   36.103000
  C    -16.475700   39.291600   37.338500
  H    -17.217500   39.852300   37.951800
  H    -16.161300   38.360400   37.894900
  H    -15.556000   39.874500   37.135700
  S    -12.101600   42.049100   32.744300
  C    -11.830400   42.428500   31.092300
  C    -12.492200   41.583600   30.175000
  C    -13.042000   40.421300   30.887200
  C    -12.852200   40.520900   32.231500
  H    -12.407800   41.782600   29.044800
  C    -13.615400   39.239800   30.181400
  H    -14.388400   39.632700   29.489000
  H    -14.068100   38.705400   31.009000
  C    -12.660200   38.283800   29.497900
  H    -11.816000   38.084300   30.206000
  H    -12.177500   38.610000   28.641800
  C    -13.429200   36.930700   29.134800
  H    -14.340800   37.194900   28.643300
  H    -13.619600   36.388700   30.055700
  H    -12.923400   36.287000   28.475600
  H    -13.472700   37.651000   36.373600
  H    -11.332700   43.276200   30.775600

 Total Charge           Charge          ....    0
 Multiplicity           Mult            ....    1
 Number of Electrons    NEL             ....  134
 Basis Dimension        Dim             ....  322

ORBITAL ENERGIES
----------------

  NO   OCC          E(Eh)            E(eV)
   0   2.0000     -88.966532     -2420.9024
   1   2.0000     -88.963877     -2420.8302
   2   2.0000     -10.330678      -281.1120
   3   2.0000     -10.326213      -280.9906
   4   2.0000     -10.318347      -280.7765
   5   2.0000     -10.313778      -280.6522
   6   2.0000     -10.305310      -280.4217
   7   2.0000     -10.304108      -280.3890
   8   2.0000     -10.302443      -280.3437
   9   2.0000     -10.293722      -280.1064
  10   2.0000     -10.291387      -280.0429
  11   2.0000     -10.289209      -279.9836
  12   2.0000     -10.285421      -279.8805
  13   2.0000     -10.284889      -279.8661
  14   2.0000     -10.284242      -279.8485
  15   2.0000     -10.272872      -279.5391
  16   2.0000      -8.081636      -219.9125
  17   2.0000      -8.078195      -219.8189
  18   2.0000      -6.040071      -164.3587
  19   2.0000      -6.036945      -164.2736
  20   2.0000      -6.036287      -164.2557
  21   2.0000      -6.032991      -164.1660
  22   2.0000      -6.032263      -164.1462
  23   2.0000      -6.028478      -164.0432
  24   2.0000      -1.007091       -27.4043
  25   2.0000      -0.983477       -26.7618
  26   2.0000      -0.910938       -24.7879
  27   2.0000      -0.908117       -24.7111
  28   2.0000      -0.866540       -23.5798
  29   2.0000      -0.850985       -23.1565
  30   2.0000      -0.841262       -22.8919
  31   2.0000      -0.813227       -22.1290
  32   2.0000      -0.783413       -21.3178
  33   2.0000      -0.775993       -21.1158
  34   2.0000      -0.709826       -19.3154
  35   2.0000      -0.698583       -19.0094
  36   2.0000      -0.694753       -18.9052
  37   2.0000      -0.660375       -17.9697
  38   2.0000      -0.641590       -17.4585
  39   2.0000      -0.619256       -16.8508
  40   2.0000      -0.592934       -16.1346
  41   2.0000      -0.567971       -15.4553
  42   2.0000      -0.559660       -15.2291
  43   2.0000      -0.555386       -15.1128
  44   2.0000      -0.545192       -14.8354
  45   2.0000      -0.522864       -14.2279
  46   2.0000      -0.517057       -14.0698
  47   2.0000      -0.512242       -13.9388
  48   2.0000      -0.502884       -13.6842
  49   2.0000      -0.496298       -13.5049
  50   2.0000      -0.488506       -13.2929
  51   2.0000      -0.482656       -13.1337
  52   2.0000      -0.469047       -12.7634
  53   2.0000      -0.461482       -12.5576
  54   2.0000      -0.457758       -12.4562
  55   2.0000      -0.451794       -12.2939
  56   2.0000      -0.447988       -12.1904
  57   2.0000      -0.445125       -12.1125
  58   2.0000      -0.437802       -11.9132
  59   2.0000      -0.422221       -11.4892
  60   2.0000      -0.417136       -11.3508
  61   2.0000      -0.414591       -11.2816
  62   2.0000      -0.404227       -10.9996
  63   2.0000      -0.348506        -9.4833
  64   2.0000      -0.330468        -8.9925
  65   2.0000      -0.327619        -8.9150
  66   2.0000      -0.297581        -8.0976
  67   0.0000       0.030306         0.8247
  68   0.0000       0.069555         1.8927
  69   0.0000       0.098779         2.6879
  70   0.0000       0.117749         3.2041
  71   0.0000       0.128530         3.4975

MULLIKEN ATOMIC CHARGES
-----------------------
   0 S :    0.084194
   1 C :   -0.132352
   2 C :   -0.103098
   3 C :    0.058789
   4 C :   -0.149801
   5 H :    0.004261
   6 C :    0.127301
   7 H :    0.023675
   8 H :    0.012962
   9 C :   -0.079185
  10 H :    0.015442
  11 H :    0.016588
  12 C :   -0.084904
  13 H :    0.053342
  14 H :    0.023797
  15 H :    0.051555
  16 S :    0.110689
  17 C :   -0.063532
  18 C :   -0.062188
  19 C :   -0.071948
  20 C :   -0.147330
  21 H :    0.053305
  22 C :    0.080001
  23 H :    0.035480
  24 H :    0.005999
  25 C :   -0.049256
  26 H :    0.036555
  27 H :    0.010782
  28 C :   -0.036467
  29 H :    0.022045
  30 H :    0.038935
  31 H :    0.022397
  32 H :    0.063805
  33 H :    0.028164
Sum of atomic charges:   -0.0000000

LOEWDIN ATOMIC CHARGES
----------------------
   0 S :    0.371531
   1 C :   -0.183539
   2 C :   -0.062183
   3 C :   -0.058039
   4 C :   -0.184527
   5 H :    0.023851
   6 C :   -0.015996
   7 H :    0.029872
   8 H :    0.024691
   9 C :   -0.048221
  10 H :    0.023692
  11 H :    0.015832
  12 C :   -0.073636
  13 H :    0.033190
  14 H :    0.023708
  15 H :    0.029857
  16 S :    0.401232
  17 C :   -0.178551
  18 C :   -0.077918
  19 C :   -0.056268
  20 C :   -0.188589
  21 H :    0.047318
  22 C :   -0.036562
  23 H :    0.035905
  24 H :    0.030138
  25 C :   -0.029898
  26 H :    0.032140
  27 H :    0.009878
  28 C :   -0.055266
  29 H :    0.020771
  30 H :    0.027141
  31 H :    0.017755
  32 H :    0.039904
  33 H :    0.010790

  Mayer bond orders larger than 0.100000
B(  0-S ,  1-C ) :   1.0911 B(  0-S ,  4-C ) :   1.1461 B(  1-C ,  2-C ) :   1.6674
B(  1-C , 32-H ) :   0.9664 B(  2-C ,  3-C ) :   1.1901 B(  2-C ,  6-C ) :   1.0164
B(  3-C ,  4-C ) :   1.5919 B(  3-C ,  5-H ) :   1.0005 B(  4-C , 20-C ) :   1.0131
B(  6-C ,  7-H ) :   0.9441 B(  6-C ,  8-H ) :   0.9320 B(  6-C ,  9-C ) :   1.0750
B(  9-C , 10-H ) :   0.9503 B(  9-C , 11-H ) :   0.9569 B(  9-C , 12-C ) :   1.0699
B( 12-C , 13-H ) :   0.9732 B( 12-C , 14-H ) :   0.9750 B( 12-C , 15-H ) :   0.9753
B( 16-S , 17-C ) :   1.1563 B( 16-S , 20-C ) :   1.1221 B( 17-C , 18-C ) :   1.6384
B( 17-C , 33-H ) :   0.9744 B( 18-C , 19-C ) :   1.1870 B( 18-C , 21-H ) :   0.9781
B( 19-C , 20-C ) :   1.6661 B( 19-C , 22-C ) :   1.0524 B( 22-C , 23-H ) :   0.9206
B( 22-C , 24-H ) :   0.9242 B( 22-C , 25-C ) :   1.0689 B( 25-C , 26-H ) :   0.9558
B( 25-C , 27-H ) :   0.9579 B( 25-C , 28-C ) :   1.0719 B( 28-C , 29-H ) :   0.9762
B( 28-C , 30-H ) :   0.9794 B( 28-C , 31-H ) :   0.9773

Dispersion correction           -0.014265392
FINAL SINGLE POINT ENERGY     -1339.859164212220

DIPOLE MOMENT
-------------
                                X             Y             Z
Electronic contribution:     16.80593      14.54505       3.70184
Nuclear contribution   :    -17.31774     -14.69861      -3.99032
                        -----------------------------------------
Total Dipole Moment    :     -0.51182      -0.15356      -0.28847
                        -----------------------------------------
Magnitude (a.u.)       :      0.60725
Magnitude (Debye)      :      1.54351

Rotational constants in cm-1:     0.018635     0.008474     0.006850
Rotational constants in MHz :   558.657258   254.035085   205.363570

                             ****ORCA TERMINATED NORMALLY****
TOTAL RUN TIME: 0 days 0 hours 0 minutes 33 seconds 937 msec
