                         Program Version 4.2.1 -  RELEASE  -
|  1> ! wB97X-D3 SP def2-SVP
|  2> %pal
|  3> nprocs 16
|  4> end
|  5>
|  6> * xyz 0 1
|  7> S 	 -16.1108 	 37.7629 	 34.6532
|  8> C 	 -16.9877 	 37.8695 	 36.1701
|  9> C 	 -16.3986 	 37.0758 	 37.1729
| 10> C 	 -15.3416 	 36.2578 	 36.616
| 11> C 	 -15.1949 	 36.3461 	 35.2406
| 12> H 	 -14.5407 	 35.7445 	 37.1048
| 13> C 	 -16.684 	 37.144 	 38.6158
| 14> H 	 -16.8236 	 36.1616 	 39.0481
| 15> H 	 -17.6425 	 37.6135 	 38.6248
| 16> C 	 -15.7808 	 37.9452 	 39.5165
| 17> H 	 -15.4365 	 38.8326 	 38.9682
| 18> H 	 -16.4508 	 38.3376 	 40.3343
| 19> C 	 -14.7059 	 37.1064 	 40.2226
| 20> H 	 -15.228 	 36.3679 	 40.8842
| 21> H 	 -13.8731 	 36.7179 	 39.6178
| 22> H 	 -14.2641 	 37.7548 	 41.0597
| 23> S 	 -13.0992 	 36.8268 	 33.5161
| 24> C 	 -12.0837 	 35.5113 	 33.0464
| 25> C 	 -12.43 	 34.3249 	 33.674
| 26> C 	 -13.5917 	 34.4216 	 34.4741
| 27> C 	 -14.0675 	 35.7175 	 34.5656
| 28> H 	 -11.7933 	 33.4864 	 33.556
| 29> C 	 -14.2012 	 33.1317 	 34.9862
| 30> H 	 -13.9687 	 32.3844 	 34.2223
| 31> H 	 -15.2534 	 33.2583 	 35.0173
| 32> C 	 -13.7304 	 32.7887 	 36.3786
| 33> H 	 -14.1255 	 31.829 	 36.6478
| 34> H 	 -14.0748 	 33.5407 	 37.1225
| 35> C 	 -12.2005 	 32.7048 	 36.4762
| 36> H 	 -11.8813 	 32.4599 	 37.5076
| 37> H 	 -11.8391 	 33.7738 	 36.2694
| 38> H 	 -11.7026 	 32.0538 	 35.7549
| 39> H 	 -17.7836 	 38.6395 	 36.3357
| 40> H 	 -11.2249 	 35.675 	 32.5505
| 41> *
| 42>
| 43>                          ****END OF INPUT****

CARTESIAN COORDINATES (ANGSTROEM)
---------------------------------
  S    -16.110800   37.762900   34.653200
  C    -16.987700   37.869500   36.170100
  C    -16.398600   37.075800   37.172900
  C    -15.341600   36.257800   36.616000
  C    -15.194900   36.346100   35.240600
  H    -14.540700   35.744500   37.104800
  C    -16.684000   37.144000   38.615800
  H    -16.823600   36.161600   39.048100
  H    -17.642500   37.613500   38.624800
  C    -15.780800   37.945200   39.516500
  H    -15.436500   38.832600   38.968200
  H    -16.450800   38.337600   40.334300
  C    -14.705900   37.106400   40.222600
  H    -15.228000   36.367900   40.884200
  H    -13.873100   36.717900   39.617800
  H    -14.264100   37.754800   41.059700
  S    -13.099200   36.826800   33.516100
  C    -12.083700   35.511300   33.046400
  C    -12.430000   34.324900   33.674000
  C    -13.591700   34.421600   34.474100
  C    -14.067500   35.717500   34.565600
  H    -11.793300   33.486400   33.556000
  C    -14.201200   33.131700   34.986200
  H    -13.968700   32.384400   34.222300
  H    -15.253400   33.258300   35.017300
  C    -13.730400   32.788700   36.378600
  H    -14.125500   31.829000   36.647800
  H    -14.074800   33.540700   37.122500
  C    -12.200500   32.704800   36.476200
  H    -11.881300   32.459900   37.507600
  H    -11.839100   33.773800   36.269400
  H    -11.702600   32.053800   35.754900
  H    -17.783600   38.639500   36.335700
  H    -11.224900   35.675000   32.550500

 Total Charge           Charge          ....    0
 Multiplicity           Mult            ....    1
 Number of Electrons    NEL             ....  134
 Basis Dimension        Dim             ....  322

ORBITAL ENERGIES
----------------

  NO   OCC          E(Eh)            E(eV)
   0   2.0000     -88.968710     -2420.9617
   1   2.0000     -88.962821     -2420.8014
   2   2.0000     -10.330869      -281.1172
   3   2.0000     -10.330428      -281.1052
   4   2.0000     -10.323455      -280.9155
   5   2.0000     -10.307358      -280.4775
   6   2.0000     -10.305254      -280.4202
   7   2.0000     -10.301636      -280.3218
   8   2.0000     -10.293169      -280.0914
   9   2.0000     -10.291654      -280.0501
  10   2.0000     -10.290690      -280.0239
  11   2.0000     -10.288707      -279.9699
  12   2.0000     -10.286814      -279.9184
  13   2.0000     -10.285607      -279.8856
  14   2.0000     -10.282281      -279.7951
  15   2.0000     -10.281374      -279.7704
  16   2.0000      -8.082600      -219.9387
  17   2.0000      -8.077431      -219.7981
  18   2.0000      -6.041272      -164.3914
  19   2.0000      -6.037415      -164.2864
  20   2.0000      -6.035850      -164.2438
  21   2.0000      -6.033036      -164.1672
  22   2.0000      -6.032034      -164.1400
  23   2.0000      -6.028224      -164.0363
  24   2.0000      -1.002906       -27.2905
  25   2.0000      -0.981076       -26.6964
  26   2.0000      -0.918093       -24.9826
  27   2.0000      -0.914823       -24.8936
  28   2.0000      -0.869832       -23.6693
  29   2.0000      -0.849463       -23.1151
  30   2.0000      -0.843664       -22.9573
  31   2.0000      -0.814122       -22.1534
  32   2.0000      -0.785058       -21.3625
  33   2.0000      -0.772404       -21.0182
  34   2.0000      -0.707069       -19.2403
  35   2.0000      -0.699181       -19.0257
  36   2.0000      -0.689697       -18.7676
  37   2.0000      -0.668187       -18.1823
  38   2.0000      -0.642639       -17.4871
  39   2.0000      -0.614638       -16.7252
  40   2.0000      -0.596757       -16.2386
  41   2.0000      -0.576429       -15.6854
  42   2.0000      -0.561716       -15.2851
  43   2.0000      -0.549212       -14.9448
  44   2.0000      -0.545663       -14.8482
  45   2.0000      -0.541128       -14.7248
  46   2.0000      -0.520211       -14.1557
  47   2.0000      -0.507732       -13.8161
  48   2.0000      -0.501510       -13.6468
  49   2.0000      -0.494684       -13.4610
  50   2.0000      -0.491712       -13.3802
  51   2.0000      -0.480676       -13.0798
  52   2.0000      -0.475563       -12.9407
  53   2.0000      -0.463895       -12.6232
  54   2.0000      -0.454347       -12.3634
  55   2.0000      -0.446436       -12.1482
  56   2.0000      -0.439610       -11.9624
  57   2.0000      -0.438667       -11.9367
  58   2.0000      -0.431899       -11.7526
  59   2.0000      -0.426592       -11.6081
  60   2.0000      -0.421226       -11.4622
  61   2.0000      -0.415448       -11.3049
  62   2.0000      -0.408534       -11.1168
  63   2.0000      -0.352644        -9.5959
  64   2.0000      -0.331845        -9.0300
  65   2.0000      -0.325201        -8.8492
  66   2.0000      -0.286608        -7.7990
  67   0.0000       0.022371         0.6088
  68   0.0000       0.065226         1.7749
  69   0.0000       0.099697         2.7129
  70   0.0000       0.117315         3.1923
  71   0.0000       0.130298         3.5456

MULLIKEN ATOMIC CHARGES
-----------------------
   0 S :    0.098966
   1 C :   -0.133210
   2 C :   -0.091638
   3 C :   -0.001507
   4 C :   -0.112822
   5 H :    0.024045
   6 C :    0.103843
   7 H :    0.019226
   8 H :    0.002371
   9 C :   -0.070162
  10 H :    0.033766
  11 H :    0.032214
  12 C :   -0.084776
  13 H :    0.035533
  14 H :    0.058659
  15 H :    0.035773
  16 S :    0.084726
  17 C :   -0.040056
  18 C :   -0.037894
  19 C :   -0.074176
  20 C :   -0.171029
  21 H :    0.007058
  22 C :    0.113747
  23 H :    0.031631
  24 H :    0.022469
  25 C :   -0.051602
  26 H :    0.022819
  27 H :    0.031744
  28 C :   -0.099392
  29 H :    0.038696
  30 H :    0.051684
  31 H :    0.034598
  32 H :    0.069059
  33 H :    0.015637
Sum of atomic charges:    0.0000000

LOEWDIN ATOMIC CHARGES
----------------------
   0 S :    0.386125
   1 C :   -0.199801
   2 C :   -0.060344
   3 C :   -0.058494
   4 C :   -0.186646
   5 H :    0.026901
   6 C :   -0.040704
   7 H :    0.029743
   8 H :    0.030172
   9 C :   -0.043175
  10 H :    0.026458
  11 H :    0.034239
  12 C :   -0.078962
  13 H :    0.031074
  14 H :    0.026921
  15 H :    0.035247
  16 S :    0.384034
  17 C :   -0.167644
  18 C :   -0.066027
  19 C :   -0.057984
  20 C :   -0.174042
  21 H :    0.025411
  22 C :   -0.022998
  23 H :    0.034741
  24 H :    0.029342
  25 C :   -0.037751
  26 H :    0.018871
  27 H :    0.027794
  28 C :   -0.074529
  29 H :    0.026522
  30 H :    0.034258
  31 H :    0.020159
  32 H :    0.037731
  33 H :    0.003359

  Mayer bond orders larger than 0.100000
B(  0-S ,  1-C ) :   1.1358 B(  0-S ,  4-C ) :   1.1314 B(  1-C ,  2-C ) :   1.5972
B(  1-C , 32-H ) :   0.9605 B(  2-C ,  3-C ) :   1.2244 B(  2-C ,  6-C ) :   1.0550
B(  3-C ,  4-C ) :   1.5719 B(  3-C ,  5-H ) :   0.9867 B(  4-C , 20-C ) :   1.0669
B(  6-C ,  7-H ) :   0.9317 B(  6-C ,  8-H ) :   0.9221 B(  6-C ,  9-C ) :   1.0659
B(  9-C , 10-H ) :   0.9541 B(  9-C , 11-H ) :   0.9542 B(  9-C , 12-C ) :   1.0807
B( 12-C , 13-H ) :   0.9701 B( 12-C , 14-H ) :   0.9754 B( 12-C , 15-H ) :   0.9705
B( 16-S , 17-C ) :   1.1594 B( 16-S , 20-C ) :   1.1210 B( 17-C , 18-C ) :   1.6116
B( 17-C , 33-H ) :   0.9778 B( 18-C , 19-C ) :   1.2250 B( 18-C , 21-H ) :   0.9962
B( 19-C , 20-C ) :   1.6216 B( 19-C , 22-C ) :   1.0196 B( 22-C , 23-H ) :   0.9413
B( 22-C , 24-H ) :   0.9271 B( 22-C , 25-C ) :   1.0803 B( 25-C , 26-H ) :   0.9527
B( 25-C , 27-H ) :   0.9503 B( 25-C , 28-C ) :   1.0811 B( 28-C , 29-H ) :   0.9727
B( 28-C , 30-H ) :   0.9660 B( 28-C , 31-H ) :   0.9746

Dispersion correction           -0.014884229
FINAL SINGLE POINT ENERGY     -1339.866017790246

DIPOLE MOMENT
-------------
                                X             Y             Z
Electronic contribution:     -3.36219      12.49467     -24.85836
Nuclear contribution   :      3.47290     -12.72690      25.51163
                        -----------------------------------------
Total Dipole Moment    :      0.11071      -0.23223       0.65326
                        -----------------------------------------
Magnitude (a.u.)       :      0.70210
Magnitude (Debye)      :      1.78459

Rotational constants in cm-1:     0.017741     0.009626     0.007276
Rotational constants in MHz :   531.867829   288.594595   218.121877

                             ****ORCA TERMINATED NORMALLY****
TOTAL RUN TIME: 0 days 0 hours 0 minutes 32 seconds 392 msec
