                         Program Version 4.2.1 -  RELEASE  -
|  1> ! wB97X-D3 SP def2-SVP
|  2> %pal
|  3> nprocs 16
|  4> end
|  5>
|  6> * xyz 0 1
|  7> S 	 -43.7116 	 63.9252 	 141.591
|  8> C 	 -43.0796 	 62.3639 	 142
|  9> C 	 -43.6009 	 61.3856 	 141.221
| 10> C 	 -44.47 	 61.9342 	 140.241
| 11> C 	 -44.7283 	 63.2532 	 140.34
| 12> H 	 -44.9361 	 61.3741 	 139.486
| 13> C 	 -43.3219 	 59.9023 	 141.211
| 14> H 	 -42.268 	 59.6479 	 141.572
| 15> H 	 -43.2037 	 59.5649 	 140.159
| 16> C 	 -44.259 	 59.0993 	 142.081
| 17> H 	 -44.1642 	 59.4004 	 143.107
| 18> H 	 -45.3379 	 59.424 	 141.921
| 19> C 	 -44.1472 	 57.6257 	 141.905
| 20> H 	 -45.0366 	 57.0536 	 142.153
| 21> H 	 -44.0645 	 57.4208 	 140.791
| 22> H 	 -43.2329 	 57.2468 	 142.354
| 23> S 	 -46.7037 	 65.1289 	 140.15
| 24> C 	 -47.3407 	 65.6163 	 138.592
| 25> C 	 -46.6994 	 64.9618 	 137.584
| 26> C 	 -45.7232 	 64.0636 	 138.064
| 27> C 	 -45.5902 	 64.0249 	 139.433
| 28> H 	 -46.9811 	 65.0696 	 136.55
| 29> C 	 -44.826 	 63.3802 	 137.091
| 30> H 	 -44.1349 	 62.6905 	 137.521
| 31> H 	 -44.1608 	 64.0638 	 136.637
| 32> C 	 -45.4757 	 62.3938 	 136.047
| 33> H 	 -45.988 	 62.8448 	 135.219
| 34> H 	 -46.1431 	 61.6512 	 136.443
| 35> C 	 -44.4774 	 61.4604 	 135.312
| 36> H 	 -43.6837 	 62.0901 	 134.952
| 37> H 	 -45.0254 	 60.9697 	 134.473
| 38> H 	 -44.0661 	 60.6855 	 136.06
| 39> H 	 -42.2951 	 62.4428 	 142.697
| 40> H 	 -47.9959 	 66.3905 	 138.511
| 41> *
| 42>
| 43>                          ****END OF INPUT****

CARTESIAN COORDINATES (ANGSTROEM)
---------------------------------
  S    -43.711600   63.925200  141.591000
  C    -43.079600   62.363900  142.000000
  C    -43.600900   61.385600  141.221000
  C    -44.470000   61.934200  140.241000
  C    -44.728300   63.253200  140.340000
  H    -44.936100   61.374100  139.486000
  C    -43.321900   59.902300  141.211000
  H    -42.268000   59.647900  141.572000
  H    -43.203700   59.564900  140.159000
  C    -44.259000   59.099300  142.081000
  H    -44.164200   59.400400  143.107000
  H    -45.337900   59.424000  141.921000
  C    -44.147200   57.625700  141.905000
  H    -45.036600   57.053600  142.153000
  H    -44.064500   57.420800  140.791000
  H    -43.232900   57.246800  142.354000
  S    -46.703700   65.128900  140.150000
  C    -47.340700   65.616300  138.592000
  C    -46.699400   64.961800  137.584000
  C    -45.723200   64.063600  138.064000
  C    -45.590200   64.024900  139.433000
  H    -46.981100   65.069600  136.550000
  C    -44.826000   63.380200  137.091000
  H    -44.134900   62.690500  137.521000
  H    -44.160800   64.063800  136.637000
  C    -45.475700   62.393800  136.047000
  H    -45.988000   62.844800  135.219000
  H    -46.143100   61.651200  136.443000
  C    -44.477400   61.460400  135.312000
  H    -43.683700   62.090100  134.952000
  H    -45.025400   60.969700  134.473000
  H    -44.066100   60.685500  136.060000
  H    -42.295100   62.442800  142.697000
  H    -47.995900   66.390500  138.511000

 Total Charge           Charge          ....    0
 Multiplicity           Mult            ....    1
 Number of Electrons    NEL             ....  134
 Basis Dimension        Dim             ....  322

ORBITAL ENERGIES
----------------

  NO   OCC          E(Eh)            E(eV)
   0   2.0000     -88.961801     -2420.7737
   1   2.0000     -88.961353     -2420.7615
   2   2.0000     -10.325221      -280.9636
   3   2.0000     -10.324655      -280.9482
   4   2.0000     -10.311858      -280.5999
   5   2.0000     -10.310004      -280.5495
   6   2.0000     -10.300568      -280.2927
   7   2.0000     -10.298868      -280.2464
   8   2.0000     -10.298312      -280.2313
   9   2.0000     -10.290127      -280.0086
  10   2.0000     -10.285856      -279.8924
  11   2.0000     -10.285684      -279.8877
  12   2.0000     -10.284841      -279.8648
  13   2.0000     -10.284550      -279.8568
  14   2.0000     -10.283552      -279.8297
  15   2.0000     -10.279741      -279.7260
  16   2.0000      -8.077547      -219.8012
  17   2.0000      -8.076972      -219.7856
  18   2.0000      -6.036019      -164.2484
  19   2.0000      -6.035397      -164.2315
  20   2.0000      -6.031868      -164.1355
  21   2.0000      -6.031256      -164.1188
  22   2.0000      -6.028339      -164.0394
  23   2.0000      -6.027885      -164.0271
  24   2.0000      -1.014298       -27.6004
  25   2.0000      -0.993849       -27.0440
  26   2.0000      -0.916906       -24.9503
  27   2.0000      -0.907153       -24.6849
  28   2.0000      -0.876114       -23.8403
  29   2.0000      -0.856251       -23.2998
  30   2.0000      -0.851201       -23.1623
  31   2.0000      -0.821454       -22.3529
  32   2.0000      -0.780888       -21.2490
  33   2.0000      -0.772467       -21.0199
  34   2.0000      -0.702489       -19.1157
  35   2.0000      -0.700415       -19.0593
  36   2.0000      -0.696454       -18.9515
  37   2.0000      -0.668904       -18.2018
  38   2.0000      -0.655881       -17.8474
  39   2.0000      -0.627494       -17.0750
  40   2.0000      -0.609416       -16.5830
  41   2.0000      -0.571293       -15.5457
  42   2.0000      -0.566974       -15.4281
  43   2.0000      -0.557860       -15.1802
  44   2.0000      -0.532821       -14.4988
  45   2.0000      -0.529133       -14.3984
  46   2.0000      -0.523114       -14.2347
  47   2.0000      -0.518068       -14.0973
  48   2.0000      -0.510495       -13.8913
  49   2.0000      -0.506645       -13.7865
  50   2.0000      -0.489842       -13.3293
  51   2.0000      -0.479559       -13.0495
  52   2.0000      -0.469598       -12.7784
  53   2.0000      -0.464969       -12.6524
  54   2.0000      -0.459086       -12.4924
  55   2.0000      -0.453006       -12.3269
  56   2.0000      -0.448273       -12.1981
  57   2.0000      -0.434991       -11.8367
  58   2.0000      -0.432464       -11.7680
  59   2.0000      -0.422137       -11.4869
  60   2.0000      -0.416724       -11.3396
  61   2.0000      -0.412829       -11.2336
  62   2.0000      -0.403561       -10.9815
  63   2.0000      -0.352936        -9.6039
  64   2.0000      -0.332568        -9.0496
  65   2.0000      -0.331315        -9.0155
  66   2.0000      -0.296847        -8.0776
  67   0.0000       0.036257         0.9866
  68   0.0000       0.074564         2.0290
  69   0.0000       0.114294         3.1101
  70   0.0000       0.123336         3.3561
  71   0.0000       0.126629         3.4457

MULLIKEN ATOMIC CHARGES
-----------------------
   0 S :    0.094520
   1 C :   -0.132308
   2 C :   -0.015687
   3 C :    0.018855
   4 C :   -0.110599
   5 H :   -0.011652
   6 C :    0.025590
   7 H :    0.022173
   8 H :    0.028305
   9 C :   -0.064421
  10 H :    0.021865
  11 H :    0.026995
  12 C :   -0.027354
  13 H :    0.039893
  14 H :    0.020384
  15 H :    0.033749
  16 S :    0.092880
  17 C :   -0.051130
  18 C :   -0.014503
  19 C :   -0.018919
  20 C :   -0.153729
  21 H :    0.019296
  22 C :    0.096712
  23 H :   -0.006087
  24 H :    0.026636
  25 C :   -0.091328
  26 H :    0.020642
  27 H :    0.027141
  28 C :   -0.100066
  29 H :    0.030891
  30 H :    0.047863
  31 H :    0.044187
  32 H :    0.037031
  33 H :    0.022174
Sum of atomic charges:    0.0000000

LOEWDIN ATOMIC CHARGES
----------------------
   0 S :    0.405836
   1 C :   -0.178215
   2 C :   -0.065280
   3 C :   -0.054556
   4 C :   -0.194699
   5 H :    0.022743
   6 C :   -0.037445
   7 H :    0.033894
   8 H :    0.031887
   9 C :   -0.051680
  10 H :    0.023130
  11 H :    0.029354
  12 C :   -0.068064
  13 H :    0.029317
  14 H :    0.030183
  15 H :    0.024687
  16 S :    0.413127
  17 C :   -0.160821
  18 C :   -0.061623
  19 C :   -0.062622
  20 C :   -0.199791
  21 H :    0.033961
  22 C :   -0.029484
  23 H :    0.025865
  24 H :    0.030344
  25 C :   -0.042286
  26 H :    0.014652
  27 H :    0.022240
  28 C :   -0.068155
  29 H :    0.017484
  30 H :    0.032484
  31 H :    0.028603
  32 H :    0.016871
  33 H :    0.008061

  Mayer bond orders larger than 0.100000
B(  0-S ,  1-C ) :   1.1492 B(  0-S ,  4-C ) :   1.1452 B(  1-C ,  2-C ) :   1.5828
B(  1-C , 32-H ) :   0.9880 B(  2-C ,  3-C ) :   1.2366 B(  2-C ,  6-C ) :   1.0189
B(  3-C ,  4-C ) :   1.5911 B(  3-C ,  5-H ) :   1.0118 B(  4-C , 20-C ) :   1.0086
B(  6-C ,  7-H ) :   0.9400 B(  6-C ,  8-H ) :   0.9445 B(  6-C ,  9-C ) :   1.0556
B(  9-C , 10-H ) :   0.9487 B(  9-C , 11-H ) :   0.9552 B(  9-C , 12-C ) :   1.0819
B( 12-C , 13-H ) :   0.9729 B( 12-C , 14-H ) :   0.9720 B( 12-C , 15-H ) :   0.9724
B( 16-S , 17-C ) :   1.1605 B( 16-S , 20-C ) :   1.1487 B( 17-C , 18-C ) :   1.5854
B( 17-C , 33-H ) :   0.9832 B( 18-C , 19-C ) :   1.2465 B( 18-C , 21-H ) :   0.9977
B( 19-C , 20-C ) :   1.6008 B( 19-C , 22-C ) :   1.0572 B( 22-C , 23-H ) :   0.9332
B( 22-C , 24-H ) :   0.9293 B( 22-C , 25-C ) :   1.0396 B( 25-C , 26-H ) :   0.9579
B( 25-C , 27-H ) :   0.9627 B( 25-C , 28-C ) :   1.0813 B( 28-C , 29-H ) :   0.9768
B( 28-C , 30-H ) :   0.9762 B( 28-C , 31-H ) :   0.9749

Dispersion correction           -0.013626152
FINAL SINGLE POINT ENERGY     -1339.873055979427

DIPOLE MOMENT
-------------
                                X             Y             Z
Electronic contribution:     -5.26964      27.29702      13.08000
Nuclear contribution   :      5.42066     -27.73285     -13.51644
                        -----------------------------------------
Total Dipole Moment    :      0.15101      -0.43583      -0.43644
                        -----------------------------------------
Magnitude (a.u.)       :      0.63501
Magnitude (Debye)      :      1.61406

Rotational constants in cm-1:     0.016540     0.008723     0.006550
Rotational constants in MHz :   495.865447   261.519925   196.353944

                             ****ORCA TERMINATED NORMALLY****
TOTAL RUN TIME: 0 days 0 hours 0 minutes 34 seconds 359 msec
