                         Program Version 4.2.1 -  RELEASE  -
|  1> ! wB97X-D3 SP def2-SVP
|  2> %pal
|  3> nprocs 16
|  4> end
|  5>
|  6> * xyz 0 1
|  7> S 	 -12.3044 	 58.6973 	 56.8626
|  8> C 	 -11.7273 	 58.4508 	 55.2011
|  9> C 	 -10.7917 	 59.4051 	 54.8299
| 10> C 	 -10.6415 	 60.4063 	 55.8562
| 11> C 	 -11.4843 	 60.2329 	 56.9478
| 12> H 	 -9.89515 	 61.1637 	 55.8254
| 13> C 	 -10.0253 	 59.325 	 53.5487
| 14> H 	 -10.0903 	 60.2627 	 53.0882
| 15> H 	 -10.4499 	 58.616 	 52.9361
| 16> C 	 -8.56125 	 58.9998 	 53.6135
| 17> H 	 -8.08452 	 59.0977 	 52.6696
| 18> H 	 -8.01958 	 59.7144 	 54.2718
| 19> C 	 -8.25167 	 57.6619 	 54.2537
| 20> H 	 -8.86375 	 56.8684 	 53.8308
| 21> H 	 -7.15763 	 57.4106 	 54.2393
| 22> H 	 -8.63823 	 57.7083 	 55.3255
| 23> S 	 -11.2823 	 60.2583 	 59.6973
| 24> C 	 -11.0598 	 61.7955 	 60.6003
| 25> C 	 -11.161 	 62.8454 	 59.7366
| 26> C 	 -11.2991 	 62.4567 	 58.3332
| 27> C 	 -11.4377 	 61.0735 	 58.2011
| 28> H 	 -11.1822 	 63.8719 	 60.1243
| 29> C 	 -11.5529 	 63.5085 	 57.2546
| 30> H 	 -12.5103 	 63.8797 	 57.4549
| 31> H 	 -11.8534 	 63.0235 	 56.339
| 32> C 	 -10.4984 	 64.6479 	 57.0329
| 33> H 	 -10.401 	 65.0369 	 58.0496
| 34> H 	 -10.9264 	 65.3975 	 56.311
| 35> C 	 -9.16478 	 64.2801 	 56.4174
| 36> H 	 -8.76608 	 65.2176 	 56.0268
| 37> H 	 -9.36737 	 63.5829 	 55.6647
| 38> H 	 -8.4735 	 63.85 	 57.1978
| 39> H 	 -11.9788 	 57.5673 	 54.6696
| 40> H 	 -10.8532 	 61.9209 	 61.6609
| 41> *
| 42>
| 43>                          ****END OF INPUT****

CARTESIAN COORDINATES (ANGSTROEM)
---------------------------------
  S    -12.304400   58.697300   56.862600
  C    -11.727300   58.450800   55.201100
  C    -10.791700   59.405100   54.829900
  C    -10.641500   60.406300   55.856200
  C    -11.484300   60.232900   56.947800
  H     -9.895150   61.163700   55.825400
  C    -10.025300   59.325000   53.548700
  H    -10.090300   60.262700   53.088200
  H    -10.449900   58.616000   52.936100
  C     -8.561250   58.999800   53.613500
  H     -8.084520   59.097700   52.669600
  H     -8.019580   59.714400   54.271800
  C     -8.251670   57.661900   54.253700
  H     -8.863750   56.868400   53.830800
  H     -7.157630   57.410600   54.239300
  H     -8.638230   57.708300   55.325500
  S    -11.282300   60.258300   59.697300
  C    -11.059800   61.795500   60.600300
  C    -11.161000   62.845400   59.736600
  C    -11.299100   62.456700   58.333200
  C    -11.437700   61.073500   58.201100
  H    -11.182200   63.871900   60.124300
  C    -11.552900   63.508500   57.254600
  H    -12.510300   63.879700   57.454900
  H    -11.853400   63.023500   56.339000
  C    -10.498400   64.647900   57.032900
  H    -10.401000   65.036900   58.049600
  H    -10.926400   65.397500   56.311000
  C     -9.164780   64.280100   56.417400
  H     -8.766080   65.217600   56.026800
  H     -9.367370   63.582900   55.664700
  H     -8.473500   63.850000   57.197800
  H    -11.978800   57.567300   54.669600
  H    -10.853200   61.920900   61.660900

 Total Charge           Charge          ....    0
 Multiplicity           Mult            ....    1
 Number of Electrons    NEL             ....  134
 Basis Dimension        Dim             ....  322

ORBITAL ENERGIES
----------------

  NO   OCC          E(Eh)            E(eV)
   0   2.0000     -88.967985     -2420.9419
   1   2.0000     -88.965436     -2420.8726
   2   2.0000     -10.336045      -281.2581
   3   2.0000     -10.331185      -281.1258
   4   2.0000     -10.320340      -280.8307
   5   2.0000     -10.315025      -280.6861
   6   2.0000     -10.307249      -280.4745
   7   2.0000     -10.304107      -280.3890
   8   2.0000     -10.297821      -280.2180
   9   2.0000     -10.295652      -280.1589
  10   2.0000     -10.291627      -280.0494
  11   2.0000     -10.284833      -279.8645
  12   2.0000     -10.281803      -279.7821
  13   2.0000     -10.280550      -279.7480
  14   2.0000     -10.279035      -279.7068
  15   2.0000     -10.276973      -279.6506
  16   2.0000      -8.082479      -219.9354
  17   2.0000      -8.080263      -219.8751
  18   2.0000      -6.041025      -164.3846
  19   2.0000      -6.038961      -164.3285
  20   2.0000      -6.037135      -164.2788
  21   2.0000      -6.034748      -164.2138
  22   2.0000      -6.033111      -164.1693
  23   2.0000      -6.030812      -164.1067
  24   2.0000      -1.004322       -27.3290
  25   2.0000      -0.982546       -26.7364
  26   2.0000      -0.921686       -25.0804
  27   2.0000      -0.905515       -24.6403
  28   2.0000      -0.867219       -23.5982
  29   2.0000      -0.851026       -23.1576
  30   2.0000      -0.844804       -22.9883
  31   2.0000      -0.819470       -22.2989
  32   2.0000      -0.785923       -21.3860
  33   2.0000      -0.775818       -21.1111
  34   2.0000      -0.705436       -19.1959
  35   2.0000      -0.693439       -18.8694
  36   2.0000      -0.692328       -18.8392
  37   2.0000      -0.654804       -17.8181
  38   2.0000      -0.642456       -17.4821
  39   2.0000      -0.626308       -17.0427
  40   2.0000      -0.598663       -16.2905
  41   2.0000      -0.569501       -15.4969
  42   2.0000      -0.560084       -15.2407
  43   2.0000      -0.552664       -15.0388
  44   2.0000      -0.546680       -14.8759
  45   2.0000      -0.545848       -14.8533
  46   2.0000      -0.521559       -14.1923
  47   2.0000      -0.512695       -13.9511
  48   2.0000      -0.502099       -13.6628
  49   2.0000      -0.496188       -13.5020
  50   2.0000      -0.487501       -13.2656
  51   2.0000      -0.478948       -13.0328
  52   2.0000      -0.471786       -12.8380
  53   2.0000      -0.463411       -12.6101
  54   2.0000      -0.461040       -12.5455
  55   2.0000      -0.448549       -12.2056
  56   2.0000      -0.441376       -12.0104
  57   2.0000      -0.440447       -11.9852
  58   2.0000      -0.436621       -11.8811
  59   2.0000      -0.424346       -11.5470
  60   2.0000      -0.418671       -11.3926
  61   2.0000      -0.412822       -11.2334
  62   2.0000      -0.409990       -11.1564
  63   2.0000      -0.353852        -9.6288
  64   2.0000      -0.331616        -9.0237
  65   2.0000      -0.326387        -8.8814
  66   2.0000      -0.292414        -7.9570
  67   0.0000       0.028900         0.7864
  68   0.0000       0.073827         2.0089
  69   0.0000       0.102564         2.7909
  70   0.0000       0.119714         3.2576
  71   0.0000       0.127044         3.4570

MULLIKEN ATOMIC CHARGES
-----------------------
   0 S :    0.095850
   1 C :   -0.119639
   2 C :   -0.108088
   3 C :    0.034510
   4 C :   -0.124269
   5 H :   -0.002854
   6 C :    0.160984
   7 H :    0.014813
   8 H :   -0.005348
   9 C :   -0.071850
  10 H :    0.023985
  11 H :    0.023939
  12 C :   -0.089529
  13 H :    0.018307
  14 H :    0.050565
  15 H :    0.050606
  16 S :    0.095205
  17 C :   -0.100623
  18 C :   -0.035508
  19 C :   -0.057732
  20 C :   -0.128112
  21 H :    0.033603
  22 C :    0.070640
  23 H :    0.018499
  24 H :    0.002260
  25 C :   -0.101589
  26 H :    0.028119
  27 H :    0.038422
  28 C :   -0.025483
  29 H :    0.038095
  30 H :    0.023262
  31 H :    0.048184
  32 H :    0.038757
  33 H :    0.062020
Sum of atomic charges:    0.0000000

LOEWDIN ATOMIC CHARGES
----------------------
   0 S :    0.393868
   1 C :   -0.182044
   2 C :   -0.053872
   3 C :   -0.058156
   4 C :   -0.187980
   5 H :    0.024035
   6 C :   -0.020725
   7 H :    0.029679
   8 H :    0.021174
   9 C :   -0.041571
  10 H :    0.019630
  11 H :    0.025590
  12 C :   -0.074613
  13 H :    0.016499
  14 H :    0.032304
  15 H :    0.035800
  16 S :    0.398090
  17 C :   -0.176508
  18 C :   -0.070369
  19 C :   -0.062327
  20 C :   -0.204159
  21 H :    0.035445
  22 C :   -0.040230
  23 H :    0.030573
  24 H :    0.026105
  25 C :   -0.040436
  26 H :    0.020902
  27 H :    0.031869
  28 C :   -0.062748
  29 H :    0.030509
  30 H :    0.014920
  31 H :    0.034476
  32 H :    0.019313
  33 H :    0.034957

  Mayer bond orders larger than 0.100000
B(  0-S ,  1-C ) :   1.1304 B(  0-S ,  4-C ) :   1.1583 B(  1-C ,  2-C ) :   1.6007
B(  1-C , 32-H ) :   0.9737 B(  2-C ,  3-C ) :   1.2396 B(  2-C ,  6-C ) :   1.0347
B(  3-C ,  4-C ) :   1.5611 B(  3-C ,  5-H ) :   0.9989 B(  4-C , 20-C ) :   1.0096
B(  6-C ,  7-H ) :   0.9230 B(  6-C ,  8-H ) :   0.9327 B(  6-C ,  9-C ) :   1.0833
B(  9-C , 10-H ) :   0.9537 B(  9-C , 11-H ) :   0.9530 B(  9-C , 12-C ) :   1.0722
B( 12-C , 13-H ) :   0.9754 B( 12-C , 14-H ) :   0.9733 B( 12-C , 15-H ) :   0.9717
B( 16-S , 17-C ) :   1.1267 B( 16-S , 20-C ) :   1.1475 B( 17-C , 18-C ) :   1.6478
B( 17-C , 33-H ) :   0.9676 B( 18-C , 19-C ) :   1.2143 B( 18-C , 21-H ) :   0.9815
B( 19-C , 20-C ) :   1.6133 B( 19-C , 22-C ) :   1.0322 B( 22-C , 23-H ) :   0.9337
B( 22-C , 24-H ) :   0.9306 B( 22-C , 25-C ) :   1.0616 B( 25-C , 26-H ) :   0.9594
B( 25-C , 27-H ) :   0.9580 B( 25-C , 28-C ) :   1.0747 B( 28-C , 29-H ) :   0.9740
B( 28-C , 30-H ) :   0.9711 B( 28-C , 31-H ) :   0.9745

Dispersion correction           -0.014783522
FINAL SINGLE POINT ENERGY     -1339.874433791165

DIPOLE MOMENT
-------------
                                X             Y             Z
Electronic contribution:    -15.85388     -10.70004      17.91120
Nuclear contribution   :     16.17838      11.15618     -18.28941
                        -----------------------------------------
Total Dipole Moment    :      0.32449       0.45614      -0.37821
                        -----------------------------------------
Magnitude (a.u.)       :      0.67558
Magnitude (Debye)      :      1.71718

Rotational constants in cm-1:     0.018127     0.009203     0.007100
Rotational constants in MHz :   543.445869   275.893451   212.852592

                             ****ORCA TERMINATED NORMALLY****
TOTAL RUN TIME: 0 days 0 hours 0 minutes 34 seconds 428 msec
