                         Program Version 4.2.1 -  RELEASE  -
|  1> ! wB97X-D3 SP def2-SVP
|  2> %pal
|  3> nprocs 16
|  4> end
|  5>
|  6> * xyz 0 1
|  7> S 	 42.43 	 8.55981 	 87.9916
|  8> C 	 42.0848 	 7.15445 	 89.0907
|  9> C 	 40.8204 	 6.62115 	 88.912
| 10> C 	 40.242 	 7.20188 	 87.7702
| 11> C 	 40.9857 	 8.20264 	 87.1169
| 12> H 	 39.2744 	 6.92333 	 87.367
| 13> C 	 40.1671 	 5.5316 	 89.7067
| 14> H 	 40.4762 	 5.66032 	 90.7518
| 15> H 	 40.5923 	 4.56948 	 89.3591
| 16> C 	 38.6242 	 5.5272 	 89.6838
| 17> H 	 38.1502 	 5.24465 	 90.5832
| 18> H 	 38.4002 	 6.63144 	 89.6523
| 19> C 	 38.0827 	 4.54611 	 88.6013
| 20> H 	 37.0362 	 4.42101 	 88.7474
| 21> H 	 38.2606 	 4.89113 	 87.5498
| 22> H 	 38.4971 	 3.57629 	 88.7312
| 23> S 	 40.8718 	 10.7485 	 86.0226
| 24> C 	 39.8303 	 11.0033 	 84.625
| 25> C 	 39.5249 	 9.786 	 84.0378
| 26> C 	 40.0043 	 8.65291 	 84.6916
| 27> C 	 40.595 	 8.99329 	 85.9273
| 28> H 	 39.0834 	 9.62674 	 83.0515
| 29> C 	 39.7877 	 7.26516 	 84.1172
| 30> H 	 38.7115 	 6.97529 	 84.1991
| 31> H 	 40.3597 	 6.63588 	 84.8411
| 32> C 	 40.2653 	 6.95999 	 82.7056
| 33> H 	 39.5772 	 7.28121 	 81.8998
| 34> H 	 40.1703 	 5.87184 	 82.6601
| 35> C 	 41.7617 	 7.30069 	 82.5466
| 36> H 	 42.3907 	 6.8659 	 83.3896
| 37> H 	 41.9065 	 8.37481 	 82.4117
| 38> H 	 42.1095 	 6.88412 	 81.6552
| 39> H 	 42.7758 	 7.01302 	 89.9116
| 40> H 	 39.6889 	 11.9114 	 84.0236
| 41> *
| 42>
| 43>                          ****END OF INPUT****

CARTESIAN COORDINATES (ANGSTROEM)
---------------------------------
  S     42.430000    8.559810   87.991600
  C     42.084800    7.154450   89.090700
  C     40.820400    6.621150   88.912000
  C     40.242000    7.201880   87.770200
  C     40.985700    8.202640   87.116900
  H     39.274400    6.923330   87.367000
  C     40.167100    5.531600   89.706700
  H     40.476200    5.660320   90.751800
  H     40.592300    4.569480   89.359100
  C     38.624200    5.527200   89.683800
  H     38.150200    5.244650   90.583200
  H     38.400200    6.631440   89.652300
  C     38.082700    4.546110   88.601300
  H     37.036200    4.421010   88.747400
  H     38.260600    4.891130   87.549800
  H     38.497100    3.576290   88.731200
  S     40.871800   10.748500   86.022600
  C     39.830300   11.003300   84.625000
  C     39.524900    9.786000   84.037800
  C     40.004300    8.652910   84.691600
  C     40.595000    8.993290   85.927300
  H     39.083400    9.626740   83.051500
  C     39.787700    7.265160   84.117200
  H     38.711500    6.975290   84.199100
  H     40.359700    6.635880   84.841100
  C     40.265300    6.959990   82.705600
  H     39.577200    7.281210   81.899800
  H     40.170300    5.871840   82.660100
  C     41.761700    7.300690   82.546600
  H     42.390700    6.865900   83.389600
  H     41.906500    8.374810   82.411700
  H     42.109500    6.884120   81.655200
  H     42.775800    7.013020   89.911600
  H     39.688900   11.911400   84.023600

 Total Charge           Charge          ....    0
 Multiplicity           Mult            ....    1
 Number of Electrons    NEL             ....  134
 Basis Dimension        Dim             ....  322

ORBITAL ENERGIES
----------------

  NO   OCC          E(Eh)            E(eV)
   0   2.0000     -88.966983     -2420.9147
   1   2.0000     -88.966255     -2420.8949
   2   2.0000     -10.331773      -281.1418
   3   2.0000     -10.331324      -281.1296
   4   2.0000     -10.318253      -280.7739
   5   2.0000     -10.317167      -280.7444
   6   2.0000     -10.302931      -280.3570
   7   2.0000     -10.298581      -280.2386
   8   2.0000     -10.296148      -280.1724
   9   2.0000     -10.293837      -280.1096
  10   2.0000     -10.292294      -280.0676
  11   2.0000     -10.291696      -280.0513
  12   2.0000     -10.290378      -280.0154
  13   2.0000     -10.288044      -279.9519
  14   2.0000     -10.281697      -279.7792
  15   2.0000     -10.275652      -279.6147
  16   2.0000      -8.080907      -219.8927
  17   2.0000      -8.080556      -219.8831
  18   2.0000      -6.039514      -164.3435
  19   2.0000      -6.038952      -164.3282
  20   2.0000      -6.035638      -164.2381
  21   2.0000      -6.035291      -164.2286
  22   2.0000      -6.031508      -164.1257
  23   2.0000      -6.031321      -164.1206
  24   2.0000      -1.001860       -27.2620
  25   2.0000      -0.980964       -26.6934
  26   2.0000      -0.915025       -24.8991
  27   2.0000      -0.908504       -24.7216
  28   2.0000      -0.865837       -23.5606
  29   2.0000      -0.847645       -23.0656
  30   2.0000      -0.840663       -22.8756
  31   2.0000      -0.809656       -22.0319
  32   2.0000      -0.785503       -21.3746
  33   2.0000      -0.773573       -21.0500
  34   2.0000      -0.712332       -19.3835
  35   2.0000      -0.699995       -19.0478
  36   2.0000      -0.692391       -18.8409
  37   2.0000      -0.655639       -17.8408
  38   2.0000      -0.639864       -17.4116
  39   2.0000      -0.622414       -16.9367
  40   2.0000      -0.587401       -15.9840
  41   2.0000      -0.564218       -15.3532
  42   2.0000      -0.557065       -15.1585
  43   2.0000      -0.548418       -14.9232
  44   2.0000      -0.538489       -14.6530
  45   2.0000      -0.535196       -14.5634
  46   2.0000      -0.515839       -14.0367
  47   2.0000      -0.506600       -13.7853
  48   2.0000      -0.500004       -13.6058
  49   2.0000      -0.496140       -13.5007
  50   2.0000      -0.490954       -13.3595
  51   2.0000      -0.483364       -13.1530
  52   2.0000      -0.463505       -12.6126
  53   2.0000      -0.461852       -12.5676
  54   2.0000      -0.460707       -12.5365
  55   2.0000      -0.446774       -12.1573
  56   2.0000      -0.445167       -12.1136
  57   2.0000      -0.444601       -12.0982
  58   2.0000      -0.432627       -11.7724
  59   2.0000      -0.429779       -11.6949
  60   2.0000      -0.423937       -11.5359
  61   2.0000      -0.410698       -11.1757
  62   2.0000      -0.407689       -11.0938
  63   2.0000      -0.344460        -9.3732
  64   2.0000      -0.333342        -9.0707
  65   2.0000      -0.329764        -8.9733
  66   2.0000      -0.282999        -7.7008
  67   0.0000       0.021113         0.5745
  68   0.0000       0.066853         1.8192
  69   0.0000       0.095046         2.5863
  70   0.0000       0.121441         3.3046
  71   0.0000       0.136078         3.7029

MULLIKEN ATOMIC CHARGES
-----------------------
   0 S :    0.092087
   1 C :   -0.147141
   2 C :   -0.065982
   3 C :    0.012689
   4 C :   -0.135633
   5 H :    0.003602
   6 C :    0.077776
   7 H :    0.028122
   8 H :    0.046885
   9 C :   -0.093543
  10 H :    0.019910
  11 H :    0.044957
  12 C :   -0.034882
  13 H :    0.027779
  14 H :    0.040977
  15 H :    0.026562
  16 S :    0.097768
  17 C :   -0.077522
  18 C :   -0.044566
  19 C :   -0.041201
  20 C :   -0.166075
  21 H :    0.015747
  22 C :    0.034099
  23 H :    0.044397
  24 H :    0.027382
  25 C :   -0.083501
  26 H :    0.035048
  27 H :    0.027849
  28 C :   -0.033350
  29 H :    0.049865
  30 H :    0.042447
  31 H :    0.014557
  32 H :    0.046631
  33 H :    0.066262
Sum of atomic charges:    0.0000000

LOEWDIN ATOMIC CHARGES
----------------------
   0 S :    0.387271
   1 C :   -0.174461
   2 C :   -0.061914
   3 C :   -0.067457
   4 C :   -0.199504
   5 H :    0.027566
   6 C :   -0.031318
   7 H :    0.035126
   8 H :    0.037329
   9 C :   -0.044146
  10 H :    0.020005
  11 H :    0.036036
  12 C :   -0.059638
  13 H :    0.022529
  14 H :    0.027925
  15 H :    0.022925
  16 S :    0.390757
  17 C :   -0.192449
  18 C :   -0.073003
  19 C :   -0.064675
  20 C :   -0.185335
  21 H :    0.031541
  22 C :   -0.040165
  23 H :    0.035284
  24 H :    0.033322
  25 C :   -0.047592
  26 H :    0.025162
  27 H :    0.029539
  28 C :   -0.062558
  29 H :    0.039811
  30 H :    0.028694
  31 H :    0.015471
  32 H :    0.020710
  33 H :    0.037214

  Mayer bond orders larger than 0.100000
B(  0-S ,  1-C ) :   1.1329 B(  0-S ,  4-C ) :   1.1613 B(  1-C ,  2-C ) :   1.5936
B(  1-C ,  4-C ) :   0.1053 B(  1-C , 32-H ) :   0.9730 B(  2-C ,  3-C ) :   1.2571
B(  2-C ,  6-C ) :   1.0179 B(  3-C ,  4-C ) :   1.5476 B(  3-C ,  5-H ) :   0.9904
B(  4-C , 20-C ) :   1.0396 B(  6-C ,  7-H ) :   0.9348 B(  6-C ,  8-H ) :   0.9377
B(  6-C ,  9-C ) :   1.0608 B(  9-C , 10-H ) :   0.9595 B(  9-C , 11-H ) :   0.9596
B(  9-C , 12-C ) :   1.0625 B( 12-C , 13-H ) :   0.9740 B( 12-C , 14-H ) :   0.9778
B( 12-C , 15-H ) :   0.9721 B( 16-S , 17-C ) :   1.1446 B( 16-S , 20-C ) :   1.1420
B( 17-C , 18-C ) :   1.5841 B( 17-C , 20-C ) :   0.1112 B( 17-C , 33-H ) :   0.9629
B( 18-C , 19-C ) :   1.2877 B( 18-C , 21-H ) :   0.9778 B( 19-C , 20-C ) :   1.5558
B( 19-C , 22-C ) :   1.0338 B( 22-C , 23-H ) :   0.9353 B( 22-C , 24-H ) :   0.9316
B( 22-C , 25-C ) :   1.0829 B( 25-C , 26-H ) :   0.9504 B( 25-C , 27-H ) :   0.9513
B( 25-C , 28-C ) :   1.0738 B( 28-C , 29-H ) :   0.9729 B( 28-C , 30-H ) :   0.9724
B( 28-C , 31-H ) :   0.9727

Dispersion correction           -0.014471880
FINAL SINGLE POINT ENERGY     -1339.867700059590

DIPOLE MOMENT
-------------
                                X             Y             Z
Electronic contribution:     11.27595      22.14984       6.30783
Nuclear contribution   :    -11.66074     -22.81806      -6.43980
                        -----------------------------------------
Total Dipole Moment    :     -0.38479      -0.66822      -0.13197
                        -----------------------------------------
Magnitude (a.u.)       :      0.78230
Magnitude (Debye)      :      1.98845

Rotational constants in cm-1:     0.017822     0.008886     0.007341
Rotational constants in MHz :   534.301219   266.402855   220.077248

                             ****ORCA TERMINATED NORMALLY****
TOTAL RUN TIME: 0 days 0 hours 0 minutes 30 seconds 443 msec
