                         Program Version 4.2.1 -  RELEASE  -
|  1> ! wB97X-D3 SP def2-SVP
|  2> %pal
|  3> nprocs 16
|  4> end
|  5>
|  6> * xyz 0 1
|  7> S 	 43.3903 	 13.1397 	 73.7813
|  8> C 	 41.6314 	 12.7461 	 73.5344
|  9> C 	 40.8493 	 13.4265 	 74.4507
| 10> C 	 41.5745 	 14.2657 	 75.2909
| 11> C 	 42.9347 	 14.2603 	 75.0788
| 12> H 	 41.2698 	 14.9472 	 76.1065
| 13> C 	 39.3097 	 13.4644 	 74.426
| 14> H 	 38.9994 	 13.5679 	 73.3191
| 15> H 	 38.9254 	 14.2858 	 75.0575
| 16> C 	 38.7213 	 12.1739 	 75.0184
| 17> H 	 39.0288 	 11.2376 	 74.4225
| 18> H 	 39.1372 	 12.0905 	 76.0299
| 19> C 	 37.1542 	 12.2671 	 75.2265
| 20> H 	 36.4576 	 12.4427 	 74.372
| 21> H 	 36.7759 	 11.3063 	 75.6493
| 22> H 	 37.022 	 13.0545 	 75.9372
| 23> S 	 45.2424 	 14.2786 	 76.5472
| 24> C 	 46.1467 	 15.7383 	 76.7253
| 25> C 	 45.4564 	 16.8143 	 76.2531
| 26> C 	 44.2268 	 16.5427 	 75.6345
| 27> C 	 43.9463 	 15.1794 	 75.6873
| 28> H 	 45.8502 	 17.8337 	 76.3636
| 29> C 	 43.3366 	 17.5748 	 75.0095
| 30> H 	 43.2015 	 18.3329 	 75.7809
| 31> H 	 42.4138 	 17.1485 	 74.7778
| 32> C 	 43.883 	 18.3278 	 73.7749
| 33> H 	 44.1969 	 17.6229 	 72.9779
| 34> H 	 44.7612 	 18.8893 	 74.0916
| 35> C 	 42.9347 	 19.412 	 73.3137
| 36> H 	 42.1048 	 18.8887 	 72.8657
| 37> H 	 43.3499 	 20.0866 	 72.5876
| 38> H 	 42.6195 	 19.9295 	 74.2255
| 39> H 	 41.1932 	 12.1351 	 72.7678
| 40> H 	 46.8477 	 15.8254 	 77.5163
| 41> *
| 42>
| 43>                          ****END OF INPUT****

CARTESIAN COORDINATES (ANGSTROEM)
---------------------------------
  S     43.390300   13.139700   73.781300
  C     41.631400   12.746100   73.534400
  C     40.849300   13.426500   74.450700
  C     41.574500   14.265700   75.290900
  C     42.934700   14.260300   75.078800
  H     41.269800   14.947200   76.106500
  C     39.309700   13.464400   74.426000
  H     38.999400   13.567900   73.319100
  H     38.925400   14.285800   75.057500
  C     38.721300   12.173900   75.018400
  H     39.028800   11.237600   74.422500
  H     39.137200   12.090500   76.029900
  C     37.154200   12.267100   75.226500
  H     36.457600   12.442700   74.372000
  H     36.775900   11.306300   75.649300
  H     37.022000   13.054500   75.937200
  S     45.242400   14.278600   76.547200
  C     46.146700   15.738300   76.725300
  C     45.456400   16.814300   76.253100
  C     44.226800   16.542700   75.634500
  C     43.946300   15.179400   75.687300
  H     45.850200   17.833700   76.363600
  C     43.336600   17.574800   75.009500
  H     43.201500   18.332900   75.780900
  H     42.413800   17.148500   74.777800
  C     43.883000   18.327800   73.774900
  H     44.196900   17.622900   72.977900
  H     44.761200   18.889300   74.091600
  C     42.934700   19.412000   73.313700
  H     42.104800   18.888700   72.865700
  H     43.349900   20.086600   72.587600
  H     42.619500   19.929500   74.225500
  H     41.193200   12.135100   72.767800
  H     46.847700   15.825400   77.516300

 Total Charge           Charge          ....    0
 Multiplicity           Mult            ....    1
 Number of Electrons    NEL             ....  134
 Basis Dimension        Dim             ....  322

ORBITAL ENERGIES
----------------

  NO   OCC          E(Eh)            E(eV)
   0   2.0000     -88.968936     -2420.9678
   1   2.0000     -88.961848     -2420.7750
   2   2.0000     -10.332339      -281.1572
   3   2.0000     -10.331828      -281.1433
   4   2.0000     -10.318190      -280.7722
   5   2.0000     -10.310351      -280.5589
   6   2.0000     -10.305148      -280.4173
   7   2.0000     -10.302996      -280.3588
   8   2.0000     -10.301097      -280.3071
   9   2.0000     -10.297487      -280.2089
  10   2.0000     -10.293133      -280.0904
  11   2.0000     -10.292298      -280.0677
  12   2.0000     -10.288333      -279.9598
  13   2.0000     -10.285042      -279.8702
  14   2.0000     -10.284413      -279.8531
  15   2.0000     -10.274833      -279.5924
  16   2.0000      -8.081986      -219.9220
  17   2.0000      -8.076725      -219.7789
  18   2.0000      -6.040554      -164.3718
  19   2.0000      -6.036831      -164.2705
  20   2.0000      -6.035124      -164.2241
  21   2.0000      -6.032647      -164.1567
  22   2.0000      -6.031180      -164.1167
  23   2.0000      -6.027620      -164.0199
  24   2.0000      -1.003479       -27.3060
  25   2.0000      -0.982860       -26.7450
  26   2.0000      -0.915108       -24.9014
  27   2.0000      -0.905581       -24.6421
  28   2.0000      -0.863018       -23.4839
  29   2.0000      -0.857498       -23.3337
  30   2.0000      -0.842847       -22.9350
  31   2.0000      -0.812759       -22.1163
  32   2.0000      -0.783303       -21.3148
  33   2.0000      -0.770633       -20.9700
  34   2.0000      -0.702416       -19.1137
  35   2.0000      -0.697535       -18.9809
  36   2.0000      -0.691578       -18.8188
  37   2.0000      -0.660191       -17.9647
  38   2.0000      -0.641393       -17.4532
  39   2.0000      -0.614025       -16.7085
  40   2.0000      -0.599656       -16.3175
  41   2.0000      -0.574946       -15.6451
  42   2.0000      -0.571370       -15.5478
  43   2.0000      -0.554032       -15.0760
  44   2.0000      -0.530410       -14.4332
  45   2.0000      -0.520439       -14.1619
  46   2.0000      -0.515893       -14.0382
  47   2.0000      -0.510768       -13.8987
  48   2.0000      -0.503979       -13.7140
  49   2.0000      -0.496942       -13.5225
  50   2.0000      -0.489708       -13.3256
  51   2.0000      -0.478425       -13.0186
  52   2.0000      -0.468307       -12.7433
  53   2.0000      -0.465869       -12.6769
  54   2.0000      -0.460152       -12.5214
  55   2.0000      -0.448554       -12.2058
  56   2.0000      -0.440955       -11.9990
  57   2.0000      -0.433967       -11.8088
  58   2.0000      -0.431781       -11.7493
  59   2.0000      -0.426641       -11.6095
  60   2.0000      -0.420289       -11.4367
  61   2.0000      -0.418063       -11.3761
  62   2.0000      -0.417433       -11.3589
  63   2.0000      -0.338942        -9.2231
  64   2.0000      -0.336163        -9.1475
  65   2.0000      -0.330655        -8.9976
  66   2.0000      -0.297510        -8.0957
  67   0.0000       0.033983         0.9247
  68   0.0000       0.052708         1.4343
  69   0.0000       0.106765         2.9052
  70   0.0000       0.115528         3.1437
  71   0.0000       0.131623         3.5816

MULLIKEN ATOMIC CHARGES
-----------------------
   0 S :    0.114583
   1 C :   -0.121502
   2 C :   -0.052912
   3 C :    0.025214
   4 C :   -0.147667
   5 H :    0.024275
   6 C :    0.040245
   7 H :    0.051935
   8 H :    0.026207
   9 C :   -0.112162
  10 H :    0.045393
  11 H :    0.036823
  12 C :   -0.058672
  13 H :    0.039790
  14 H :    0.038736
  15 H :    0.025001
  16 S :    0.084793
  17 C :   -0.056450
  18 C :   -0.070745
  19 C :    0.009897
  20 C :   -0.221005
  21 H :    0.023618
  22 C :    0.107194
  23 H :    0.021031
  24 H :   -0.000906
  25 C :   -0.105709
  26 H :    0.044402
  27 H :    0.018933
  28 C :   -0.017174
  29 H :    0.027176
  30 H :    0.038582
  31 H :    0.024366
  32 H :    0.040295
  33 H :    0.056413
Sum of atomic charges:    0.0000000

LOEWDIN ATOMIC CHARGES
----------------------
   0 S :    0.377149
   1 C :   -0.176490
   2 C :   -0.066017
   3 C :   -0.074111
   4 C :   -0.190017
   5 H :    0.040249
   6 C :   -0.033432
   7 H :    0.040674
   8 H :    0.030657
   9 C :   -0.045120
  10 H :    0.028550
  11 H :    0.027879
  12 C :   -0.075243
  13 H :    0.027509
  14 H :    0.030339
  15 H :    0.019040
  16 S :    0.394667
  17 C :   -0.189377
  18 C :   -0.071405
  19 C :   -0.052901
  20 C :   -0.180918
  21 H :    0.033640
  22 C :   -0.022601
  23 H :    0.033880
  24 H :    0.019594
  25 C :   -0.039672
  26 H :    0.027939
  27 H :    0.019213
  28 C :   -0.059379
  29 H :    0.023370
  30 H :    0.025314
  31 H :    0.026411
  32 H :    0.026216
  33 H :    0.024392

  Mayer bond orders larger than 0.100000
B(  0-S ,  1-C ) :   1.1221 B(  0-S ,  4-C ) :   1.1460 B(  1-C ,  2-C ) :   1.6214
B(  1-C ,  4-C ) :   0.1046 B(  1-C , 32-H ) :   0.9700 B(  2-C ,  3-C ) :   1.2268
B(  2-C ,  6-C ) :   1.0072 B(  3-C ,  4-C ) :   1.6048 B(  3-C ,  5-H ) :   0.9901
B(  4-C , 20-C ) :   0.9953 B(  6-C ,  7-H ) :   0.9451 B(  6-C ,  8-H ) :   0.9464
B(  6-C ,  9-C ) :   1.0567 B(  9-C , 10-H ) :   0.9602 B(  9-C , 11-H ) :   0.9552
B(  9-C , 12-C ) :   1.0667 B( 12-C , 13-H ) :   0.9785 B( 12-C , 14-H ) :   0.9765
B( 12-C , 15-H ) :   0.9752 B( 16-S , 17-C ) :   1.1563 B( 16-S , 20-C ) :   1.1560
B( 17-C , 18-C ) :   1.6091 B( 17-C , 20-C ) :   0.1019 B( 17-C , 33-H ) :   0.9613
B( 18-C , 19-C ) :   1.2507 B( 18-C , 21-H ) :   0.9832 B( 19-C , 20-C ) :   1.5827
B( 19-C , 22-C ) :   1.0475 B( 22-C , 23-H ) :   0.9222 B( 22-C , 24-H ) :   0.9310
B( 22-C , 25-C ) :   1.0682 B( 25-C , 26-H ) :   0.9566 B( 25-C , 27-H ) :   0.9528
B( 25-C , 28-C ) :   1.0837 B( 28-C , 29-H ) :   0.9758 B( 28-C , 30-H ) :   0.9745
B( 28-C , 31-H ) :   0.9695

Dispersion correction           -0.013403910
FINAL SINGLE POINT ENERGY     -1339.874782229145

DIPOLE MOMENT
-------------
                                X             Y             Z
Electronic contribution:     23.22712     -11.69656       4.78587
Nuclear contribution   :    -23.74014      12.24482      -4.73621
                        -----------------------------------------
Total Dipole Moment    :     -0.51303       0.54826       0.04966
                        -----------------------------------------
Magnitude (a.u.)       :      0.75250
Magnitude (Debye)      :      1.91270

Rotational constants in cm-1:     0.018493     0.007505     0.006206
Rotational constants in MHz :   554.393042   225.001836   186.065053

                             ****ORCA TERMINATED NORMALLY****
TOTAL RUN TIME: 0 days 0 hours 0 minutes 28 seconds 973 msec
