                         Program Version 4.2.1 -  RELEASE  -
|  1> ! wB97X-D3 SP def2-SVP
|  2> %pal
|  3> nprocs 16
|  4> end
|  5>
|  6> * xyz 0 1
|  7> S 	 50.3032 	 13.2767 	 84.4182
|  8> C 	 48.6543 	 13.3363 	 83.6783
|  9> C 	 48.3791 	 12.1396 	 83.0089
| 10> C 	 49.4404 	 11.2322 	 83.153
| 11> C 	 50.6386 	 11.7615 	 83.6956
| 12> H 	 49.5025 	 10.2827 	 82.6472
| 13> C 	 47.0836 	 11.6809 	 82.3044
| 14> H 	 46.2701 	 12.4591 	 82.4997
| 15> H 	 46.7839 	 10.7511 	 82.7749
| 16> C 	 47.2043 	 11.3562 	 80.772
| 17> H 	 47.803 	 10.4647 	 80.5629
| 18> H 	 46.22 	 11.1038 	 80.4605
| 19> C 	 47.6736 	 12.5815 	 79.9544
| 20> H 	 47.7244 	 12.503 	 78.8619
| 21> H 	 47.2404 	 13.5533 	 80.2112
| 22> H 	 48.7114 	 12.8158 	 80.2241
| 23> S 	 53.3887 	 11.8655 	 83.4378
| 24> C 	 54.3703 	 10.6176 	 84.01
| 25> C 	 53.6129 	 9.69537 	 84.7652
| 26> C 	 52.2344 	 9.89162 	 84.6046
| 27> C 	 51.9031 	 11.085 	 83.9386
| 28> H 	 54.0463 	 8.93288 	 85.3087
| 29> C 	 51.3101 	 9.0786 	 85.4366
| 30> H 	 50.2779 	 9.37257 	 85.2073
| 31> H 	 51.5253 	 9.38842 	 86.3786
| 32> C 	 51.3802 	 7.54858 	 85.4192
| 33> H 	 51.0248 	 7.04291 	 86.2752
| 34> H 	 52.4218 	 7.30609 	 85.3827
| 35> C 	 50.7827 	 7.01501 	 84.0385
| 36> H 	 51.2057 	 7.60292 	 83.1259
| 37> H 	 49.7275 	 7.10597 	 84.0022
| 38> H 	 50.9712 	 5.90853 	 84.0845
| 39> H 	 47.9369 	 14.1287 	 83.6299
| 40> H 	 55.431 	 10.5645 	 84.1195
| 41> *
| 42>
| 43>                          ****END OF INPUT****

CARTESIAN COORDINATES (ANGSTROEM)
---------------------------------
  S     50.303200   13.276700   84.418200
  C     48.654300   13.336300   83.678300
  C     48.379100   12.139600   83.008900
  C     49.440400   11.232200   83.153000
  C     50.638600   11.761500   83.695600
  H     49.502500   10.282700   82.647200
  C     47.083600   11.680900   82.304400
  H     46.270100   12.459100   82.499700
  H     46.783900   10.751100   82.774900
  C     47.204300   11.356200   80.772000
  H     47.803000   10.464700   80.562900
  H     46.220000   11.103800   80.460500
  C     47.673600   12.581500   79.954400
  H     47.724400   12.503000   78.861900
  H     47.240400   13.553300   80.211200
  H     48.711400   12.815800   80.224100
  S     53.388700   11.865500   83.437800
  C     54.370300   10.617600   84.010000
  C     53.612900    9.695370   84.765200
  C     52.234400    9.891620   84.604600
  C     51.903100   11.085000   83.938600
  H     54.046300    8.932880   85.308700
  C     51.310100    9.078600   85.436600
  H     50.277900    9.372570   85.207300
  H     51.525300    9.388420   86.378600
  C     51.380200    7.548580   85.419200
  H     51.024800    7.042910   86.275200
  H     52.421800    7.306090   85.382700
  C     50.782700    7.015010   84.038500
  H     51.205700    7.602920   83.125900
  H     49.727500    7.105970   84.002200
  H     50.971200    5.908530   84.084500
  H     47.936900   14.128700   83.629900
  H     55.431000   10.564500   84.119500

 Total Charge           Charge          ....    0
 Multiplicity           Mult            ....    1
 Number of Electrons    NEL             ....  134
 Basis Dimension        Dim             ....  322

ORBITAL ENERGIES
----------------

  NO   OCC          E(Eh)            E(eV)
   0   2.0000     -88.970305     -2421.0051
   1   2.0000     -88.970004     -2420.9969
   2   2.0000     -10.331208      -281.1265
   3   2.0000     -10.327534      -281.0265
   4   2.0000     -10.317429      -280.7515
   5   2.0000     -10.315867      -280.7090
   6   2.0000     -10.305008      -280.4135
   7   2.0000     -10.302930      -280.3570
   8   2.0000     -10.301859      -280.3278
   9   2.0000     -10.292025      -280.0602
  10   2.0000     -10.290624      -280.0221
  11   2.0000     -10.287011      -279.9238
  12   2.0000     -10.286424      -279.9078
  13   2.0000     -10.284317      -279.8505
  14   2.0000     -10.277030      -279.6522
  15   2.0000     -10.275968      -279.6233
  16   2.0000      -8.085392      -220.0147
  17   2.0000      -8.084355      -219.9865
  18   2.0000      -6.043747      -164.4587
  19   2.0000      -6.042917      -164.4361
  20   2.0000      -6.039621      -164.3465
  21   2.0000      -6.038890      -164.3265
  22   2.0000      -6.036450      -164.2602
  23   2.0000      -6.035150      -164.2248
  24   2.0000      -1.010510       -27.4974
  25   2.0000      -0.985771       -26.8242
  26   2.0000      -0.913608       -24.8605
  27   2.0000      -0.907224       -24.6868
  28   2.0000      -0.867341       -23.6015
  29   2.0000      -0.849574       -23.1181
  30   2.0000      -0.841893       -22.9091
  31   2.0000      -0.808319       -21.9955
  32   2.0000      -0.783393       -21.3172
  33   2.0000      -0.774559       -21.0768
  34   2.0000      -0.713761       -19.4224
  35   2.0000      -0.704277       -19.1643
  36   2.0000      -0.700029       -19.0488
  37   2.0000      -0.662717       -18.0334
  38   2.0000      -0.635521       -17.2934
  39   2.0000      -0.619258       -16.8509
  40   2.0000      -0.596671       -16.2363
  41   2.0000      -0.570328       -15.5194
  42   2.0000      -0.561099       -15.2683
  43   2.0000      -0.549522       -14.9533
  44   2.0000      -0.538379       -14.6500
  45   2.0000      -0.535049       -14.5594
  46   2.0000      -0.516993       -14.0681
  47   2.0000      -0.509641       -13.8680
  48   2.0000      -0.507484       -13.8094
  49   2.0000      -0.497681       -13.5426
  50   2.0000      -0.484220       -13.1763
  51   2.0000      -0.477569       -12.9953
  52   2.0000      -0.470459       -12.8018
  53   2.0000      -0.458692       -12.4816
  54   2.0000      -0.457328       -12.4445
  55   2.0000      -0.455490       -12.3945
  56   2.0000      -0.444502       -12.0955
  57   2.0000      -0.438068       -11.9204
  58   2.0000      -0.432973       -11.7818
  59   2.0000      -0.425155       -11.5691
  60   2.0000      -0.422212       -11.4890
  61   2.0000      -0.415668       -11.3109
  62   2.0000      -0.413634       -11.2555
  63   2.0000      -0.340407        -9.2629
  64   2.0000      -0.333789        -9.0829
  65   2.0000      -0.329412        -8.9638
  66   2.0000      -0.291737        -7.9386
  67   0.0000       0.027321         0.7435
  68   0.0000       0.064050         1.7429
  69   0.0000       0.109631         2.9832
  70   0.0000       0.116536         3.1711
  71   0.0000       0.130262         3.5446

MULLIKEN ATOMIC CHARGES
-----------------------
   0 S :    0.118532
   1 C :   -0.111448
   2 C :   -0.086745
   3 C :    0.026481
   4 C :   -0.152609
   5 H :    0.008710
   6 C :    0.031873
   7 H :    0.036081
   8 H :    0.038640
   9 C :   -0.037719
  10 H :    0.035858
  11 H :    0.023154
  12 C :   -0.070622
  13 H :    0.039393
  14 H :    0.022283
  15 H :    0.030489
  16 S :    0.134294
  17 C :   -0.062701
  18 C :   -0.051995
  19 C :   -0.019314
  20 C :   -0.181425
  21 H :   -0.003502
  22 C :    0.097501
  23 H :    0.016158
  24 H :    0.012043
  25 C :   -0.043415
  26 H :    0.023845
  27 H :    0.010107
  28 C :   -0.098564
  29 H :    0.064045
  30 H :    0.024607
  31 H :    0.042093
  32 H :    0.032337
  33 H :    0.051535
Sum of atomic charges:    0.0000000

LOEWDIN ATOMIC CHARGES
----------------------
   0 S :    0.413116
   1 C :   -0.190679
   2 C :   -0.063273
   3 C :   -0.068956
   4 C :   -0.205382
   5 H :    0.025707
   6 C :   -0.026575
   7 H :    0.035955
   8 H :    0.034013
   9 C :   -0.034442
  10 H :    0.026667
  11 H :    0.020309
  12 C :   -0.079129
  13 H :    0.027155
  14 H :    0.025133
  15 H :    0.029211
  16 S :    0.448842
  17 C :   -0.201761
  18 C :   -0.064045
  19 C :   -0.048133
  20 C :   -0.217389
  21 H :    0.016615
  22 C :   -0.027313
  23 H :    0.029161
  24 H :    0.023074
  25 C :   -0.031382
  26 H :    0.020648
  27 H :    0.016731
  28 C :   -0.072110
  29 H :    0.041161
  30 H :    0.013066
  31 H :    0.030977
  32 H :    0.023974
  33 H :    0.029055

  Mayer bond orders larger than 0.100000
B(  0-S ,  1-C ) :   1.1301 B(  0-S ,  4-C ) :   1.1761 B(  1-C ,  2-C ) :   1.5981
B(  1-C ,  4-C ) :   0.1134 B(  1-C , 32-H ) :   0.9666 B(  2-C ,  3-C ) :   1.2688
B(  2-C ,  6-C ) :   1.0140 B(  3-C ,  4-C ) :   1.5439 B(  3-C ,  5-H ) :   0.9926
B(  4-C , 20-C ) :   1.0355 B(  6-C ,  7-H ) :   0.9467 B(  6-C ,  8-H ) :   0.9424
B(  6-C ,  9-C ) :   1.0725 B(  9-C , 10-H ) :   0.9560 B(  9-C , 11-H ) :   0.9563
B(  9-C , 12-C ) :   1.0626 B( 12-C , 13-H ) :   0.9778 B( 12-C , 14-H ) :   0.9760
B( 12-C , 15-H ) :   0.9703 B( 16-S , 17-C ) :   1.1988 B( 16-S , 20-C ) :   1.1558
B( 17-C , 18-C ) :   1.5472 B( 17-C , 20-C ) :   0.1092 B( 17-C , 33-H ) :   0.9669
B( 18-C , 19-C ) :   1.2915 B( 18-C , 21-H ) :   0.9976 B( 19-C , 20-C ) :   1.5221
B( 19-C , 22-C ) :   1.0442 B( 22-C , 23-H ) :   0.9337 B( 22-C , 24-H ) :   0.9284
B( 22-C , 25-C ) :   1.0726 B( 25-C , 26-H ) :   0.9559 B( 25-C , 27-H ) :   0.9568
B( 25-C , 28-C ) :   1.0627 B( 28-C , 29-H ) :   0.9740 B( 28-C , 30-H ) :   0.9787
B( 28-C , 31-H ) :   0.9760

Dispersion correction           -0.014700968
FINAL SINGLE POINT ENERGY     -1339.856047112956

DIPOLE MOMENT
-------------
                                X             Y             Z
Electronic contribution:     16.11469      16.88923       8.12384
Nuclear contribution   :    -16.33433     -17.38882      -7.99560
                        -----------------------------------------
Total Dipole Moment    :     -0.21965      -0.49959       0.12824
                        -----------------------------------------
Magnitude (a.u.)       :      0.56061
Magnitude (Debye)      :      1.42496

Rotational constants in cm-1:     0.018530     0.008718     0.007159
Rotational constants in MHz :   555.520337   261.347378   214.615314

                             ****ORCA TERMINATED NORMALLY****
TOTAL RUN TIME: 0 days 0 hours 0 minutes 30 seconds 88 msec
