                         Program Version 4.2.1 -  RELEASE  -
|  1> ! wB97X-D3 SP def2-SVP
|  2> %pal
|  3> nprocs 16
|  4> end
|  5>
|  6> * xyz 0 1
|  7> S 	 3.99545 	 -21.9522 	 86.0803
|  8> C 	 2.65138 	 -23.0674 	 85.7103
|  9> C 	 3.11276 	 -24.3434 	 85.3455
| 10> C 	 4.47273 	 -24.3973 	 85.5354
| 11> C 	 5.17121 	 -23.2543 	 85.8141
| 12> H 	 4.94656 	 -25.2875 	 85.3189
| 13> C 	 2.22888 	 -25.5637 	 85.2066
| 14> H 	 1.2688 	 -25.163 	 84.9213
| 15> H 	 2.09431 	 -25.8073 	 86.2938
| 16> C 	 2.5667 	 -26.7626 	 84.3445
| 17> H 	 2.61666 	 -26.4333 	 83.35
| 18> H 	 3.62697 	 -27.0829 	 84.5132
| 19> C 	 1.62387 	 -27.9059 	 84.5083
| 20> H 	 1.85971 	 -28.7409 	 83.8784
| 21> H 	 1.61777 	 -28.224 	 85.5417
| 22> H 	 0.621676 	 -27.5217 	 84.3148
| 23> S 	 7.45306 	 -24.8805 	 86.3864
| 24> C 	 9.02495 	 -24.1006 	 86.4316
| 25> C 	 8.94246 	 -22.6851 	 86.2266
| 26> C 	 7.55065 	 -22.1895 	 86.0401
| 27> C 	 6.63287 	 -23.3144 	 86.0116
| 28> H 	 9.80056 	 -21.9771 	 86.2022
| 29> C 	 7.1741 	 -20.7492 	 85.8208
| 30> H 	 8.03196 	 -20.1886 	 86.1157
| 31> H 	 6.42296 	 -20.4037 	 86.5701
| 32> C 	 6.84927 	 -20.3871 	 84.363
| 33> H 	 6.6968 	 -19.3242 	 84.1835
| 34> H 	 5.99007 	 -21.0106 	 84.0976
| 35> C 	 7.95371 	 -20.6514 	 83.3964
| 36> H 	 8.82766 	 -20.0969 	 83.5624
| 37> H 	 7.58606 	 -20.308 	 82.4893
| 38> H 	 8.13737 	 -21.7484 	 83.3052
| 39> H 	 1.6066 	 -22.7305 	 85.739
| 40> H 	 9.89509 	 -24.6818 	 86.5795
| 41> *
| 42>
| 43>                          ****END OF INPUT****

CARTESIAN COORDINATES (ANGSTROEM)
---------------------------------
  S      3.995450  -21.952200   86.080300
  C      2.651380  -23.067400   85.710300
  C      3.112760  -24.343400   85.345500
  C      4.472730  -24.397300   85.535400
  C      5.171210  -23.254300   85.814100
  H      4.946560  -25.287500   85.318900
  C      2.228880  -25.563700   85.206600
  H      1.268800  -25.163000   84.921300
  H      2.094310  -25.807300   86.293800
  C      2.566700  -26.762600   84.344500
  H      2.616660  -26.433300   83.350000
  H      3.626970  -27.082900   84.513200
  C      1.623870  -27.905900   84.508300
  H      1.859710  -28.740900   83.878400
  H      1.617770  -28.224000   85.541700
  H      0.621676  -27.521700   84.314800
  S      7.453060  -24.880500   86.386400
  C      9.024950  -24.100600   86.431600
  C      8.942460  -22.685100   86.226600
  C      7.550650  -22.189500   86.040100
  C      6.632870  -23.314400   86.011600
  H      9.800560  -21.977100   86.202200
  C      7.174100  -20.749200   85.820800
  H      8.031960  -20.188600   86.115700
  H      6.422960  -20.403700   86.570100
  C      6.849270  -20.387100   84.363000
  H      6.696800  -19.324200   84.183500
  H      5.990070  -21.010600   84.097600
  C      7.953710  -20.651400   83.396400
  H      8.827660  -20.096900   83.562400
  H      7.586060  -20.308000   82.489300
  H      8.137370  -21.748400   83.305200
  H      1.606600  -22.730500   85.739000
  H      9.895090  -24.681800   86.579500

 Total Charge           Charge          ....    0
 Multiplicity           Mult            ....    1
 Number of Electrons    NEL             ....  134
 Basis Dimension        Dim             ....  322

ORBITAL ENERGIES
----------------

  NO   OCC          E(Eh)            E(eV)
   0   2.0000     -88.972382     -2421.0616
   1   2.0000     -88.972359     -2421.0610
   2   2.0000     -10.338623      -281.3282
   3   2.0000     -10.330958      -281.1197
   4   2.0000     -10.324333      -280.9394
   5   2.0000     -10.318619      -280.7839
   6   2.0000     -10.313484      -280.6442
   7   2.0000     -10.310426      -280.5610
   8   2.0000     -10.298945      -280.2485
   9   2.0000     -10.295185      -280.1462
  10   2.0000     -10.290827      -280.0276
  11   2.0000     -10.285314      -279.8776
  12   2.0000     -10.278869      -279.7022
  13   2.0000     -10.277010      -279.6516
  14   2.0000     -10.276775      -279.6453
  15   2.0000     -10.260123      -279.1922
  16   2.0000      -8.085392      -220.0147
  17   2.0000      -8.085086      -220.0064
  18   2.0000      -6.044131      -164.4692
  19   2.0000      -6.043858      -164.4617
  20   2.0000      -6.040146      -164.3607
  21   2.0000      -6.039819      -164.3518
  22   2.0000      -6.036035      -164.2489
  23   2.0000      -6.035746      -164.2410
  24   2.0000      -0.999506       -27.1980
  25   2.0000      -0.970711       -26.4144
  26   2.0000      -0.918505       -24.9938
  27   2.0000      -0.912893       -24.8411
  28   2.0000      -0.867933       -23.6177
  29   2.0000      -0.854727       -23.2583
  30   2.0000      -0.848486       -23.0885
  31   2.0000      -0.807044       -21.9608
  32   2.0000      -0.786546       -21.4030
  33   2.0000      -0.770822       -20.9751
  34   2.0000      -0.712902       -19.3991
  35   2.0000      -0.697788       -18.9878
  36   2.0000      -0.684547       -18.6275
  37   2.0000      -0.668527       -18.1915
  38   2.0000      -0.635355       -17.2889
  39   2.0000      -0.616179       -16.7671
  40   2.0000      -0.593091       -16.1388
  41   2.0000      -0.570317       -15.5191
  42   2.0000      -0.563569       -15.3355
  43   2.0000      -0.560355       -15.2480
  44   2.0000      -0.549311       -14.9475
  45   2.0000      -0.530791       -14.4436
  46   2.0000      -0.512811       -13.9543
  47   2.0000      -0.511400       -13.9159
  48   2.0000      -0.502326       -13.6690
  49   2.0000      -0.491522       -13.3750
  50   2.0000      -0.487644       -13.2695
  51   2.0000      -0.480887       -13.0856
  52   2.0000      -0.474038       -12.8992
  53   2.0000      -0.465289       -12.6612
  54   2.0000      -0.457215       -12.4415
  55   2.0000      -0.452577       -12.3153
  56   2.0000      -0.442900       -12.0519
  57   2.0000      -0.437848       -11.9145
  58   2.0000      -0.435644       -11.8545
  59   2.0000      -0.424430       -11.5493
  60   2.0000      -0.418410       -11.3855
  61   2.0000      -0.414680       -11.2840
  62   2.0000      -0.411276       -11.1914
  63   2.0000      -0.354810        -9.6549
  64   2.0000      -0.333642        -9.0789
  65   2.0000      -0.329064        -8.9543
  66   2.0000      -0.274487        -7.4692
  67   0.0000       0.014423         0.3925
  68   0.0000       0.077882         2.1193
  69   0.0000       0.098398         2.6776
  70   0.0000       0.112718         3.0672
  71   0.0000       0.120368         3.2754

MULLIKEN ATOMIC CHARGES
-----------------------
   0 S :    0.103513
   1 C :   -0.157893
   2 C :   -0.035404
   3 C :   -0.024891
   4 C :   -0.068897
   5 H :   -0.023425
   6 C :    0.017122
   7 H :    0.009708
   8 H :    0.053407
   9 C :   -0.050697
  10 H :    0.018171
  11 H :    0.028345
  12 C :   -0.010015
  13 H :    0.037920
  14 H :    0.024743
  15 H :    0.022453
  16 S :    0.097274
  17 C :   -0.086564
  18 C :   -0.020236
  19 C :   -0.115644
  20 C :   -0.137475
  21 H :    0.035900
  22 C :    0.075457
  23 H :   -0.002325
  24 H :    0.048175
  25 C :   -0.065352
  26 H :    0.028714
  27 H :    0.035575
  28 C :   -0.014802
  29 H :    0.011568
  30 H :    0.008102
  31 H :    0.045935
  32 H :    0.056962
  33 H :    0.054575
Sum of atomic charges:    0.0000000

LOEWDIN ATOMIC CHARGES
----------------------
   0 S :    0.396974
   1 C :   -0.191561
   2 C :   -0.060260
   3 C :   -0.071675
   4 C :   -0.181922
   5 H :    0.008593
   6 C :   -0.033701
   7 H :    0.026573
   8 H :    0.045291
   9 C :   -0.043964
  10 H :    0.020111
  11 H :    0.025899
  12 C :   -0.054231
  13 H :    0.027498
  14 H :    0.025574
  15 H :    0.026235
  16 S :    0.393192
  17 C :   -0.184259
  18 C :   -0.067626
  19 C :   -0.052030
  20 C :   -0.173915
  21 H :    0.035896
  22 C :   -0.046624
  23 H :    0.025443
  24 H :    0.034476
  25 C :   -0.037167
  26 H :    0.027046
  27 H :    0.021431
  28 C :   -0.056481
  29 H :    0.014592
  30 H :    0.019020
  31 H :    0.031619
  32 H :    0.028854
  33 H :    0.021098

  Mayer bond orders larger than 0.100000
B(  0-S ,  1-C ) :   1.1424 B(  0-S ,  4-C ) :   1.1211 B(  1-C ,  2-C ) :   1.5568
B(  1-C , 32-H ) :   0.9645 B(  2-C ,  3-C ) :   1.2959 B(  2-C ,  6-C ) :   1.0210
B(  3-C ,  4-C ) :   1.5251 B(  3-C ,  5-H ) :   0.9943 B(  4-C , 20-C ) :   1.1166
B(  6-C ,  7-H ) :   0.9333 B(  6-C ,  8-H ) :   0.9431 B(  6-C ,  9-C ) :   1.0554
B(  9-C , 10-H ) :   0.9497 B(  9-C , 11-H ) :   0.9491 B(  9-C , 12-C ) :   1.0931
B( 12-C , 13-H ) :   0.9713 B( 12-C , 14-H ) :   0.9739 B( 12-C , 15-H ) :   0.9717
B( 16-S , 17-C ) :   1.1473 B( 16-S , 20-C ) :   1.1373 B( 17-C , 18-C ) :   1.5855
B( 17-C , 33-H ) :   0.9753 B( 18-C , 19-C ) :   1.2519 B( 18-C , 21-H ) :   0.9770
B( 19-C , 20-C ) :   1.5319 B( 19-C , 22-C ) :   1.0456 B( 22-C , 23-H ) :   0.9204
B( 22-C , 24-H ) :   0.9339 B( 22-C , 25-C ) :   1.0619 B( 25-C , 26-H ) :   0.9581
B( 25-C , 27-H ) :   0.9543 B( 25-C , 28-C ) :   1.0881 B( 28-C , 29-H ) :   0.9732
B( 28-C , 30-H ) :   0.9690 B( 28-C , 31-H ) :   0.9689

Dispersion correction           -0.014341085
FINAL SINGLE POINT ENERGY     -1339.861766319545

DIPOLE MOMENT
-------------
                                X             Y             Z
Electronic contribution:      6.41380       3.19104      11.66199
Nuclear contribution   :     -6.53604      -3.31218     -11.85585
                        -----------------------------------------
Total Dipole Moment    :     -0.12224      -0.12113      -0.19385
                        -----------------------------------------
Magnitude (a.u.)       :      0.25922
Magnitude (Debye)      :      0.65889

Rotational constants in cm-1:     0.020866     0.008053     0.006589
Rotational constants in MHz :   625.554425   241.413324   197.529263

                             ****ORCA TERMINATED NORMALLY****
TOTAL RUN TIME: 0 days 0 hours 0 minutes 37 seconds 134 msec
