                         Program Version 4.2.1 -  RELEASE  -
|  1> ! wB97X-D3 SP def2-SVP
|  2> %pal
|  3> nprocs 16
|  4> end
|  5>
|  6> * xyz 0 1
|  7> S 	 -16.4233 	 32.8391 	 35.566
|  8> C 	 -14.9885 	 33.7605 	 35.0754
|  9> C 	 -15.3263 	 35.0819 	 34.8059
| 10> C 	 -16.748 	 35.2472 	 34.8558
| 11> C 	 -17.5182 	 34.2105 	 35.2867
| 12> H 	 -17.2084 	 36.2193 	 34.5581
| 13> C 	 -14.4606 	 36.266 	 34.3843
| 14> H 	 -13.7544 	 36.4577 	 35.2263
| 15> H 	 -15.1172 	 37.1102 	 34.1222
| 16> C 	 -13.5518 	 36.058 	 33.1218
| 17> H 	 -12.6178 	 35.5066 	 33.3431
| 18> H 	 -13.9959 	 35.5096 	 32.2934
| 19> C 	 -13.245 	 37.3721 	 32.4974
| 20> H 	 -14.1678 	 37.843 	 32.2487
| 21> H 	 -12.7796 	 38.0709 	 33.2273
| 22> H 	 -12.7492 	 37.3324 	 31.5061
| 23> S 	 -19.6931 	 35.3293 	 36.4038
| 24> C 	 -21.2022 	 34.5004 	 36.2878
| 25> C 	 -21.1469 	 33.4714 	 35.3447
| 26> C 	 -19.8204 	 33.2574 	 34.8318
| 27> C 	 -18.9744 	 34.2336 	 35.3635
| 28> H 	 -22.0195 	 32.8487 	 35.1049
| 29> C 	 -19.5643 	 32.2362 	 33.7092
| 30> H 	 -19.8346 	 31.3678 	 34.1999
| 31> H 	 -18.4966 	 32.281 	 33.4103
| 32> C 	 -20.3661 	 32.3726 	 32.3684
| 33> H 	 -21.413 	 32.2866 	 32.4886
| 34> H 	 -20.1063 	 31.5155 	 31.6673
| 35> C 	 -19.995 	 33.605 	 31.6004
| 36> H 	 -20.4173 	 33.6049 	 30.622
| 37> H 	 -18.8924 	 33.6693 	 31.3338
| 38> H 	 -20.3164 	 34.4973 	 32.1149
| 39> H 	 -14.0502 	 33.3407 	 34.8488
| 40> H 	 -22.0799 	 34.7405 	 36.8977
| 41> *
| 42>
| 43>                          ****END OF INPUT****

CARTESIAN COORDINATES (ANGSTROEM)
---------------------------------
  S    -16.423300   32.839100   35.566000
  C    -14.988500   33.760500   35.075400
  C    -15.326300   35.081900   34.805900
  C    -16.748000   35.247200   34.855800
  C    -17.518200   34.210500   35.286700
  H    -17.208400   36.219300   34.558100
  C    -14.460600   36.266000   34.384300
  H    -13.754400   36.457700   35.226300
  H    -15.117200   37.110200   34.122200
  C    -13.551800   36.058000   33.121800
  H    -12.617800   35.506600   33.343100
  H    -13.995900   35.509600   32.293400
  C    -13.245000   37.372100   32.497400
  H    -14.167800   37.843000   32.248700
  H    -12.779600   38.070900   33.227300
  H    -12.749200   37.332400   31.506100
  S    -19.693100   35.329300   36.403800
  C    -21.202200   34.500400   36.287800
  C    -21.146900   33.471400   35.344700
  C    -19.820400   33.257400   34.831800
  C    -18.974400   34.233600   35.363500
  H    -22.019500   32.848700   35.104900
  C    -19.564300   32.236200   33.709200
  H    -19.834600   31.367800   34.199900
  H    -18.496600   32.281000   33.410300
  C    -20.366100   32.372600   32.368400
  H    -21.413000   32.286600   32.488600
  H    -20.106300   31.515500   31.667300
  C    -19.995000   33.605000   31.600400
  H    -20.417300   33.604900   30.622000
  H    -18.892400   33.669300   31.333800
  H    -20.316400   34.497300   32.114900
  H    -14.050200   33.340700   34.848800
  H    -22.079900   34.740500   36.897700

 Total Charge           Charge          ....    0
 Multiplicity           Mult            ....    1
 Number of Electrons    NEL             ....  134
 Basis Dimension        Dim             ....  322

ORBITAL ENERGIES
----------------

  NO   OCC          E(Eh)            E(eV)
   0   2.0000     -88.969868     -2420.9932
   1   2.0000     -88.965034     -2420.8616
   2   2.0000     -10.325411      -280.9687
   3   2.0000     -10.320435      -280.8333
   4   2.0000     -10.318393      -280.7778
   5   2.0000     -10.312629      -280.6209
   6   2.0000     -10.303767      -280.3798
   7   2.0000     -10.301441      -280.3165
   8   2.0000     -10.300735      -280.2972
   9   2.0000     -10.297326      -280.2045
  10   2.0000     -10.290079      -280.0073
  11   2.0000     -10.288366      -279.9607
  12   2.0000     -10.287772      -279.9445
  13   2.0000     -10.286242      -279.9029
  14   2.0000     -10.276102      -279.6269
  15   2.0000     -10.270691      -279.4797
  16   2.0000      -8.086317      -220.0399
  17   2.0000      -8.078452      -219.8258
  18   2.0000      -6.044547      -164.4805
  19   2.0000      -6.040580      -164.3725
  20   2.0000      -6.037260      -164.2822
  21   2.0000      -6.037187      -164.2802
  22   2.0000      -6.033095      -164.1689
  23   2.0000      -6.029082      -164.0597
  24   2.0000      -1.012043       -27.5391
  25   2.0000      -0.982638       -26.7389
  26   2.0000      -0.911662       -24.8076
  27   2.0000      -0.907744       -24.7010
  28   2.0000      -0.870435       -23.6857
  29   2.0000      -0.855047       -23.2670
  30   2.0000      -0.845310       -23.0020
  31   2.0000      -0.810483       -22.0544
  32   2.0000      -0.782272       -21.2867
  33   2.0000      -0.768840       -20.9212
  34   2.0000      -0.706090       -19.2137
  35   2.0000      -0.698101       -18.9963
  36   2.0000      -0.690388       -18.7864
  37   2.0000      -0.663268       -18.0484
  38   2.0000      -0.633513       -17.2388
  39   2.0000      -0.615318       -16.7437
  40   2.0000      -0.595598       -16.2070
  41   2.0000      -0.568051       -15.4575
  42   2.0000      -0.566207       -15.4073
  43   2.0000      -0.559332       -15.2202
  44   2.0000      -0.546313       -14.8659
  45   2.0000      -0.529671       -14.4131
  46   2.0000      -0.513656       -13.9773
  47   2.0000      -0.508642       -13.8409
  48   2.0000      -0.498504       -13.5650
  49   2.0000      -0.493375       -13.4254
  50   2.0000      -0.486468       -13.2375
  51   2.0000      -0.480057       -13.0630
  52   2.0000      -0.465404       -12.6643
  53   2.0000      -0.460166       -12.5218
  54   2.0000      -0.453861       -12.3502
  55   2.0000      -0.449798       -12.2396
  56   2.0000      -0.448217       -12.1966
  57   2.0000      -0.447343       -12.1728
  58   2.0000      -0.431741       -11.7483
  59   2.0000      -0.426665       -11.6102
  60   2.0000      -0.418781       -11.3956
  61   2.0000      -0.412125       -11.2145
  62   2.0000      -0.410631       -11.1738
  63   2.0000      -0.344447        -9.3729
  64   2.0000      -0.332303        -9.0424
  65   2.0000      -0.323590        -8.8053
  66   2.0000      -0.293238        -7.9794
  67   0.0000       0.032363         0.8806
  68   0.0000       0.069548         1.8925
  69   0.0000       0.108665         2.9569
  70   0.0000       0.118675         3.2293
  71   0.0000       0.135220         3.6795

MULLIKEN ATOMIC CHARGES
-----------------------
   0 S :    0.104819
   1 C :   -0.122571
   2 C :   -0.060829
   3 C :   -0.030112
   4 C :   -0.109487
   5 H :    0.019630
   6 C :    0.058082
   7 H :    0.056373
   8 H :    0.026135
   9 C :   -0.077159
  10 H :    0.033078
  11 H :    0.028305
  12 C :   -0.064935
  13 H :    0.013389
  14 H :    0.031721
  15 H :    0.040950
  16 S :    0.145771
  17 C :   -0.113840
  18 C :   -0.042951
  19 C :   -0.068534
  20 C :   -0.179435
  21 H :    0.026641
  22 C :    0.111173
  23 H :    0.017270
  24 H :    0.034973
  25 C :   -0.074729
  26 H :    0.018536
  27 H :    0.034061
  28 C :   -0.050982
  29 H :    0.020514
  30 H :    0.032931
  31 H :    0.040476
  32 H :    0.035264
  33 H :    0.065468
Sum of atomic charges:   -0.0000000

LOEWDIN ATOMIC CHARGES
----------------------
   0 S :    0.387774
   1 C :   -0.186270
   2 C :   -0.063120
   3 C :   -0.077935
   4 C :   -0.189174
   5 H :    0.030894
   6 C :   -0.027288
   7 H :    0.045320
   8 H :    0.032157
   9 C :   -0.048658
  10 H :    0.022924
  11 H :    0.025036
  12 C :   -0.071479
  13 H :    0.017657
  14 H :    0.025884
  15 H :    0.031601
  16 S :    0.463216
  17 C :   -0.201159
  18 C :   -0.070189
  19 C :   -0.055499
  20 C :   -0.229292
  21 H :    0.033347
  22 C :   -0.022927
  23 H :    0.023011
  24 H :    0.032766
  25 C :   -0.039485
  26 H :    0.014429
  27 H :    0.034432
  28 C :   -0.068675
  29 H :    0.021138
  30 H :    0.032762
  31 H :    0.024162
  32 H :    0.019879
  33 H :    0.032756

  Mayer bond orders larger than 0.100000
B(  0-S ,  1-C ) :   1.1357 B(  0-S ,  4-C ) :   1.1179 B(  1-C ,  2-C ) :   1.5973
B(  1-C , 32-H ) :   0.9762 B(  2-C ,  3-C ) :   1.2599 B(  2-C ,  6-C ) :   1.0206
B(  3-C ,  4-C ) :   1.5840 B(  3-C ,  5-H ) :   0.9823 B(  4-C , 20-C ) :   1.0291
B(  6-C ,  7-H ) :   0.9275 B(  6-C ,  8-H ) :   0.9524 B(  6-C ,  9-C ) :   1.0520
B(  9-C , 10-H ) :   0.9522 B(  9-C , 11-H ) :   0.9604 B(  9-C , 12-C ) :   1.0927
B( 12-C , 13-H ) :   0.9713 B( 12-C , 14-H ) :   0.9712 B( 12-C , 15-H ) :   0.9712
B( 16-S , 17-C ) :   1.1721 B( 16-S , 20-C ) :   1.1818 B( 17-C , 18-C ) :   1.5762
B( 17-C , 33-H ) :   0.9692 B( 18-C , 19-C ) :   1.2572 B( 18-C , 21-H ) :   0.9878
B( 19-C , 20-C ) :   1.5521 B( 19-C , 22-C ) :   1.0280 B( 22-C , 23-H ) :   0.9240
B( 22-C , 24-H ) :   0.9369 B( 22-C , 25-C ) :   1.0792 B( 25-C , 26-H ) :   0.9535
B( 25-C , 27-H ) :   0.9534 B( 25-C , 28-C ) :   1.0844 B( 28-C , 29-H ) :   0.9701
B( 28-C , 30-H ) :   0.9709 B( 28-C , 31-H ) :   0.9757

Dispersion correction           -0.014166498
FINAL SINGLE POINT ENERGY     -1339.871676070313

DIPOLE MOMENT
-------------
                                X             Y             Z
Electronic contribution:     -8.41110      -5.56526      22.16494
Nuclear contribution   :      8.31539       5.67427     -22.64999
                        -----------------------------------------
Total Dipole Moment    :     -0.09571       0.10900      -0.48505
                        -----------------------------------------
Magnitude (a.u.)       :      0.50628
Magnitude (Debye)      :      1.28685

Rotational constants in cm-1:     0.020010     0.007573     0.006966
Rotational constants in MHz :   599.881238   227.024267   208.822935

                             ****ORCA TERMINATED NORMALLY****
TOTAL RUN TIME: 0 days 0 hours 0 minutes 32 seconds 21 msec
