                         Program Version 4.2.1 -  RELEASE  -
|  1> ! wB97X-D3 SP def2-SVP
|  2> %pal
|  3> nprocs 16
|  4> end
|  5>
|  6> * xyz 0 1
|  7> S 	 12.3144 	 14.5451 	 82.8757
|  8> C 	 13.8278 	 15.2979 	 82.6673
|  9> C 	 14.538 	 14.6169 	 81.7289
| 10> C 	 13.9887 	 13.3479 	 81.3985
| 11> C 	 12.8325 	 13.0959 	 82.0828
| 12> H 	 14.4175 	 12.5314 	 80.9086
| 13> C 	 15.8873 	 15.1369 	 81.1715
| 14> H 	 16.6066 	 14.3099 	 81.1436
| 15> H 	 16.2005 	 15.8225 	 81.9363
| 16> C 	 15.7152 	 15.7739 	 79.7859
| 17> H 	 15.368 	 16.7911 	 79.8655
| 18> H 	 16.7141 	 15.9829 	 79.3076
| 19> C 	 14.9221 	 15.0505 	 78.7087
| 20> H 	 14.8032 	 15.7819 	 77.9049
| 21> H 	 15.5353 	 14.3602 	 78.1713
| 22> H 	 13.9592 	 14.6592 	 79.0428
| 23> S 	 10.2359 	 12.4543 	 81.4572
| 24> C 	 9.76893 	 10.7836 	 81.3283
| 25> C 	 10.857 	 9.96789 	 81.3763
| 26> C 	 12.1022 	 10.6457 	 81.5728
| 27> C 	 11.9406 	 11.9973 	 81.7973
| 28> H 	 10.7659 	 8.83946 	 81.2274
| 29> C 	 13.4179 	 9.92259 	 81.8727
| 30> H 	 13.1337 	 9.17546 	 82.5959
| 31> H 	 14.0222 	 10.6148 	 82.5135
| 32> C 	 14.0518 	 9.3976 	 80.683
| 33> H 	 13.3956 	 8.68248 	 80.2207
| 34> H 	 14.8793 	 8.85687 	 81.0659
| 35> C 	 14.6017 	 10.3618 	 79.5325
| 36> H 	 15.5039 	 10.8332 	 79.9137
| 37> H 	 13.8955 	 11.1364 	 78.9689
| 38> H 	 15.1351 	 9.82441 	 78.7702
| 39> H 	 14.1234 	 16.2629 	 82.891
| 40> H 	 8.82117 	 10.4407 	 81.0148
| 41> *
| 42>
| 43>                          ****END OF INPUT****

CARTESIAN COORDINATES (ANGSTROEM)
---------------------------------
  S     12.314400   14.545100   82.875700
  C     13.827800   15.297900   82.667300
  C     14.538000   14.616900   81.728900
  C     13.988700   13.347900   81.398500
  C     12.832500   13.095900   82.082800
  H     14.417500   12.531400   80.908600
  C     15.887300   15.136900   81.171500
  H     16.606600   14.309900   81.143600
  H     16.200500   15.822500   81.936300
  C     15.715200   15.773900   79.785900
  H     15.368000   16.791100   79.865500
  H     16.714100   15.982900   79.307600
  C     14.922100   15.050500   78.708700
  H     14.803200   15.781900   77.904900
  H     15.535300   14.360200   78.171300
  H     13.959200   14.659200   79.042800
  S     10.235900   12.454300   81.457200
  C      9.768930   10.783600   81.328300
  C     10.857000    9.967890   81.376300
  C     12.102200   10.645700   81.572800
  C     11.940600   11.997300   81.797300
  H     10.765900    8.839460   81.227400
  C     13.417900    9.922590   81.872700
  H     13.133700    9.175460   82.595900
  H     14.022200   10.614800   82.513500
  C     14.051800    9.397600   80.683000
  H     13.395600    8.682480   80.220700
  H     14.879300    8.856870   81.065900
  C     14.601700   10.361800   79.532500
  H     15.503900   10.833200   79.913700
  H     13.895500   11.136400   78.968900
  H     15.135100    9.824410   78.770200
  H     14.123400   16.262900   82.891000
  H      8.821170   10.440700   81.014800

 Total Charge           Charge          ....    0
 Multiplicity           Mult            ....    1
 Number of Electrons    NEL             ....  134
 Basis Dimension        Dim             ....  322

ORBITAL ENERGIES
----------------

  NO   OCC          E(Eh)            E(eV)
   0   2.0000     -88.963915     -2420.8312
   1   2.0000     -88.960301     -2420.7329
   2   2.0000     -10.326974      -281.0113
   3   2.0000     -10.323368      -280.9131
   4   2.0000     -10.310089      -280.5518
   5   2.0000     -10.301980      -280.3311
   6   2.0000     -10.298537      -280.2374
   7   2.0000     -10.296097      -280.1710
   8   2.0000     -10.295511      -280.1551
   9   2.0000     -10.292208      -280.0652
  10   2.0000     -10.291878      -280.0562
  11   2.0000     -10.289494      -279.9914
  12   2.0000     -10.286768      -279.9172
  13   2.0000     -10.285920      -279.8941
  14   2.0000     -10.283673      -279.8330
  15   2.0000     -10.272239      -279.5218
  16   2.0000      -8.079767      -219.8616
  17   2.0000      -8.074830      -219.7273
  18   2.0000      -6.038249      -164.3091
  19   2.0000      -6.034197      -164.1988
  20   2.0000      -6.033431      -164.1780
  21   2.0000      -6.030386      -164.0951
  22   2.0000      -6.029466      -164.0701
  23   2.0000      -6.025401      -163.9595
  24   2.0000      -1.014897       -27.6167
  25   2.0000      -0.987383       -26.8681
  26   2.0000      -0.917403       -24.9638
  27   2.0000      -0.909220       -24.7411
  28   2.0000      -0.875345       -23.8193
  29   2.0000      -0.849035       -23.1034
  30   2.0000      -0.841179       -22.8896
  31   2.0000      -0.819324       -22.2949
  32   2.0000      -0.788571       -21.4581
  33   2.0000      -0.779180       -21.2026
  34   2.0000      -0.712281       -19.3821
  35   2.0000      -0.700394       -19.0587
  36   2.0000      -0.695270       -18.9193
  37   2.0000      -0.658036       -17.9061
  38   2.0000      -0.644536       -17.5387
  39   2.0000      -0.613731       -16.7005
  40   2.0000      -0.598346       -16.2818
  41   2.0000      -0.569217       -15.4892
  42   2.0000      -0.555567       -15.1177
  43   2.0000      -0.552011       -15.0210
  44   2.0000      -0.546804       -14.8793
  45   2.0000      -0.539960       -14.6930
  46   2.0000      -0.519999       -14.1499
  47   2.0000      -0.510895       -13.9022
  48   2.0000      -0.505807       -13.7637
  49   2.0000      -0.496282       -13.5045
  50   2.0000      -0.489844       -13.3293
  51   2.0000      -0.479952       -13.0602
  52   2.0000      -0.475005       -12.9255
  53   2.0000      -0.466961       -12.7067
  54   2.0000      -0.463872       -12.6226
  55   2.0000      -0.448099       -12.1934
  56   2.0000      -0.446354       -12.1459
  57   2.0000      -0.440618       -11.9898
  58   2.0000      -0.431364       -11.7380
  59   2.0000      -0.419075       -11.4036
  60   2.0000      -0.415245       -11.2994
  61   2.0000      -0.404512       -11.0073
  62   2.0000      -0.403093       -10.9687
  63   2.0000      -0.357278        -9.7220
  64   2.0000      -0.329541        -8.9673
  65   2.0000      -0.327449        -8.9103
  66   2.0000      -0.289395        -7.8748
  67   0.0000       0.027562         0.7500
  68   0.0000       0.074177         2.0185
  69   0.0000       0.111691         3.0393
  70   0.0000       0.124010         3.3745
  71   0.0000       0.130576         3.5531

MULLIKEN ATOMIC CHARGES
-----------------------
   0 S :    0.106910
   1 C :   -0.043459
   2 C :   -0.152139
   3 C :    0.080487
   4 C :   -0.141763
   5 H :   -0.060725
   6 C :    0.120204
   7 H :    0.027286
   8 H :    0.012703
   9 C :   -0.095291
  10 H :    0.019098
  11 H :    0.022480
  12 C :   -0.028320
  13 H :    0.020247
  14 H :    0.017331
  15 H :    0.061659
  16 S :    0.080646
  17 C :   -0.062654
  18 C :   -0.058463
  19 C :   -0.054883
  20 C :   -0.145981
  21 H :    0.041122
  22 C :    0.043101
  23 H :    0.028108
  24 H :    0.032511
  25 C :   -0.020273
  26 H :    0.023958
  27 H :    0.018698
  28 C :   -0.076138
  29 H :    0.031011
  30 H :    0.078068
  31 H :    0.020218
  32 H :    0.013582
  33 H :    0.040661
Sum of atomic charges:    0.0000000

LOEWDIN ATOMIC CHARGES
----------------------
   0 S :    0.428899
   1 C :   -0.201765
   2 C :   -0.060283
   3 C :   -0.054384
   4 C :   -0.199074
   5 H :    0.019737
   6 C :   -0.025450
   7 H :    0.028913
   8 H :    0.027884
   9 C :   -0.049033
  10 H :    0.019983
  11 H :    0.029022
  12 C :   -0.066211
  13 H :    0.032070
  14 H :    0.020951
  15 H :    0.028623
  16 S :    0.377652
  17 C :   -0.183062
  18 C :   -0.080081
  19 C :   -0.065272
  20 C :   -0.170456
  21 H :    0.041736
  22 C :   -0.034742
  23 H :    0.035485
  24 H :    0.034612
  25 C :   -0.036734
  26 H :    0.023469
  27 H :    0.025932
  28 C :   -0.086340
  29 H :    0.024021
  30 H :    0.047453
  31 H :    0.026716
  32 H :    0.016996
  33 H :    0.022731

  Mayer bond orders larger than 0.100000
B(  0-S ,  1-C ) :   1.1382 B(  0-S ,  4-C ) :   1.1555 B(  1-C ,  2-C ) :   1.6225
B(  1-C , 32-H ) :   0.9669 B(  2-C ,  3-C ) :   1.2398 B(  2-C ,  6-C ) :   1.0114
B(  3-C ,  4-C ) :   1.5431 B(  3-C ,  5-H ) :   0.9958 B(  4-C , 20-C ) :   1.0657
B(  6-C ,  7-H ) :   0.9463 B(  6-C ,  8-H ) :   0.9407 B(  6-C ,  9-C ) :   1.0617
B(  9-C , 10-H ) :   0.9581 B(  9-C , 11-H ) :   0.9523 B(  9-C , 12-C ) :   1.0933
B( 12-C , 13-H ) :   0.9651 B( 12-C , 14-H ) :   0.9735 B( 12-C , 15-H ) :   0.9682
B( 16-S , 17-C ) :   1.1377 B( 16-S , 20-C ) :   1.1234 B( 17-C , 18-C ) :   1.6370
B( 17-C , 33-H ) :   0.9705 B( 18-C , 19-C ) :   1.2295 B( 18-C , 21-H ) :   0.9737
B( 19-C , 20-C ) :   1.6199 B( 19-C , 22-C ) :   1.0257 B( 22-C , 23-H ) :   0.9360
B( 22-C , 24-H ) :   0.9365 B( 22-C , 25-C ) :   1.0815 B( 25-C , 26-H ) :   0.9552
B( 25-C , 27-H ) :   0.9439 B( 25-C , 28-C ) :   1.0776 B( 28-C , 29-H ) :   0.9547
B( 28-C , 30-H ) :   0.9656 B( 28-C , 31-H ) :   0.9624

Dispersion correction           -0.015628655
FINAL SINGLE POINT ENERGY     -1339.850907162723

DIPOLE MOMENT
-------------
                                X             Y             Z
Electronic contribution:    -21.94678       4.44449      15.23327
Nuclear contribution   :     22.58858      -4.76773     -15.64356
                        -----------------------------------------
Total Dipole Moment    :      0.64180      -0.32324      -0.41029
                        -----------------------------------------
Magnitude (a.u.)       :      0.82748
Magnitude (Debye)      :      2.10329

Rotational constants in cm-1:     0.018891     0.010237     0.007899
Rotational constants in MHz :   566.343513   306.886777   236.811536

                             ****ORCA TERMINATED NORMALLY****
TOTAL RUN TIME: 0 days 0 hours 0 minutes 36 seconds 280 msec
