                         Program Version 4.2.1 -  RELEASE  -
|  1> ! wB97X-D3 SP def2-SVP
|  2> %pal
|  3> nprocs 16
|  4> end
|  5>
|  6> * xyz 0 1
|  7> S 	 62.0545 	 -7.26866 	 89.9409
|  8> C 	 61.6861 	 -5.88098 	 90.936
|  9> C 	 61.407 	 -4.74471 	 90.1996
| 10> C 	 61.3933 	 -5.0033 	 88.8094
| 11> C 	 61.7142 	 -6.3594 	 88.461
| 12> H 	 61.1414 	 -4.32585 	 88.0136
| 13> C 	 61.2548 	 -3.34749 	 90.7414
| 14> H 	 61.993 	 -2.67361 	 90.2547
| 15> H 	 61.3957 	 -3.34397 	 91.8178
| 16> C 	 59.8732 	 -2.75694 	 90.5242
| 17> H 	 60.0531 	 -1.72304 	 90.5158
| 18> H 	 59.4952 	 -3.11519 	 89.5453
| 19> C 	 58.9259 	 -3.088 	 91.6434
| 20> H 	 58.9961 	 -2.42285 	 92.5299
| 21> H 	 57.9916 	 -2.74509 	 91.2204
| 22> H 	 58.9583 	 -4.20056 	 91.8989
| 23> S 	 61.6479 	 -8.69768 	 86.9308
| 24> C 	 61.6343 	 -8.59728 	 85.2517
| 25> C 	 61.7963 	 -7.26938 	 84.8068
| 26> C 	 61.78 	 -6.27766 	 85.8189
| 27> C 	 61.6915 	 -6.89274 	 87.081
| 28> H 	 61.8804 	 -7.21783 	 83.7159
| 29> C 	 61.808 	 -4.82809 	 85.4832
| 30> H 	 62.5013 	 -4.43156 	 86.2446
| 31> H 	 60.7796 	 -4.44006 	 85.6988
| 32> C 	 62.3326 	 -4.40093 	 83.9894
| 33> H 	 62.102 	 -3.29637 	 83.9669
| 34> H 	 61.7858 	 -4.8181 	 83.1668
| 35> C 	 63.8647 	 -4.58532 	 83.7595
| 36> H 	 64.1193 	 -3.89498 	 83.0131
| 37> H 	 64.2546 	 -5.57996 	 83.525
| 38> H 	 64.3745 	 -4.14459 	 84.6214
| 39> H 	 62.0001 	 -5.82573 	 91.9683
| 40> H 	 61.6547 	 -9.4662 	 84.534
| 41> *
| 42>
| 43>                          ****END OF INPUT****

CARTESIAN COORDINATES (ANGSTROEM)
---------------------------------
  S     62.054500   -7.268660   89.940900
  C     61.686100   -5.880980   90.936000
  C     61.407000   -4.744710   90.199600
  C     61.393300   -5.003300   88.809400
  C     61.714200   -6.359400   88.461000
  H     61.141400   -4.325850   88.013600
  C     61.254800   -3.347490   90.741400
  H     61.993000   -2.673610   90.254700
  H     61.395700   -3.343970   91.817800
  C     59.873200   -2.756940   90.524200
  H     60.053100   -1.723040   90.515800
  H     59.495200   -3.115190   89.545300
  C     58.925900   -3.088000   91.643400
  H     58.996100   -2.422850   92.529900
  H     57.991600   -2.745090   91.220400
  H     58.958300   -4.200560   91.898900
  S     61.647900   -8.697680   86.930800
  C     61.634300   -8.597280   85.251700
  C     61.796300   -7.269380   84.806800
  C     61.780000   -6.277660   85.818900
  C     61.691500   -6.892740   87.081000
  H     61.880400   -7.217830   83.715900
  C     61.808000   -4.828090   85.483200
  H     62.501300   -4.431560   86.244600
  H     60.779600   -4.440060   85.698800
  C     62.332600   -4.400930   83.989400
  H     62.102000   -3.296370   83.966900
  H     61.785800   -4.818100   83.166800
  C     63.864700   -4.585320   83.759500
  H     64.119300   -3.894980   83.013100
  H     64.254600   -5.579960   83.525000
  H     64.374500   -4.144590   84.621400
  H     62.000100   -5.825730   91.968300
  H     61.654700   -9.466200   84.534000

 Total Charge           Charge          ....    0
 Multiplicity           Mult            ....    1
 Number of Electrons    NEL             ....  134
 Basis Dimension        Dim             ....  322

ORBITAL ENERGIES
----------------

  NO   OCC          E(Eh)            E(eV)
   0   2.0000     -88.969293     -2420.9775
   1   2.0000     -88.967135     -2420.9188
   2   2.0000     -10.338884      -281.3353
   3   2.0000     -10.334636      -281.2197
   4   2.0000     -10.317855      -280.7631
   5   2.0000     -10.310555      -280.5645
   6   2.0000     -10.308625      -280.5120
   7   2.0000     -10.306517      -280.4546
   8   2.0000     -10.304586      -280.4020
   9   2.0000     -10.299088      -280.2524
  10   2.0000     -10.293401      -280.0977
  11   2.0000     -10.292998      -280.0867
  12   2.0000     -10.287847      -279.9466
  13   2.0000     -10.279414      -279.7171
  14   2.0000     -10.278819      -279.7009
  15   2.0000     -10.278298      -279.6867
  16   2.0000      -8.083311      -219.9581
  17   2.0000      -8.082064      -219.9241
  18   2.0000      -6.041952      -164.4099
  19   2.0000      -6.040449      -164.3690
  20   2.0000      -6.037924      -164.3003
  21   2.0000      -6.036563      -164.2632
  22   2.0000      -6.033989      -164.1932
  23   2.0000      -6.032951      -164.1649
  24   2.0000      -1.001406       -27.2497
  25   2.0000      -0.982148       -26.7256
  26   2.0000      -0.917703       -24.9720
  27   2.0000      -0.904756       -24.6197
  28   2.0000      -0.865629       -23.5550
  29   2.0000      -0.855717       -23.2852
  30   2.0000      -0.844155       -22.9706
  31   2.0000      -0.806142       -21.9362
  32   2.0000      -0.786110       -21.3911
  33   2.0000      -0.772756       -21.0278
  34   2.0000      -0.713547       -19.4166
  35   2.0000      -0.697552       -18.9814
  36   2.0000      -0.687826       -18.7167
  37   2.0000      -0.651629       -17.7317
  38   2.0000      -0.633078       -17.2269
  39   2.0000      -0.623173       -16.9574
  40   2.0000      -0.593049       -16.1377
  41   2.0000      -0.573561       -15.6074
  42   2.0000      -0.557316       -15.1653
  43   2.0000      -0.552241       -15.0272
  44   2.0000      -0.536025       -14.5860
  45   2.0000      -0.531819       -14.4715
  46   2.0000      -0.524060       -14.2604
  47   2.0000      -0.508308       -13.8318
  48   2.0000      -0.500887       -13.6298
  49   2.0000      -0.490157       -13.3378
  50   2.0000      -0.487367       -13.2619
  51   2.0000      -0.485939       -13.2231
  52   2.0000      -0.474382       -12.9086
  53   2.0000      -0.461628       -12.5615
  54   2.0000      -0.455977       -12.4078
  55   2.0000      -0.447521       -12.1777
  56   2.0000      -0.445550       -12.1240
  57   2.0000      -0.438620       -11.9354
  58   2.0000      -0.434445       -11.8218
  59   2.0000      -0.427298       -11.6274
  60   2.0000      -0.420983       -11.4555
  61   2.0000      -0.415052       -11.2941
  62   2.0000      -0.410651       -11.1744
  63   2.0000      -0.358160        -9.7460
  64   2.0000      -0.332871        -9.0579
  65   2.0000      -0.330111        -8.9828
  66   2.0000      -0.274611        -7.4725
  67   0.0000       0.017724         0.4823
  68   0.0000       0.082463         2.2439
  69   0.0000       0.099589         2.7100
  70   0.0000       0.119249         3.2449
  71   0.0000       0.137057         3.7295

MULLIKEN ATOMIC CHARGES
-----------------------
   0 S :    0.108410
   1 C :   -0.119798
   2 C :   -0.074714
   3 C :   -0.019472
   4 C :   -0.119105
   5 H :   -0.004022
   6 C :    0.059530
   7 H :    0.039667
   8 H :    0.008861
   9 C :   -0.062137
  10 H :    0.013631
  11 H :    0.033421
  12 C :   -0.062436
  13 H :    0.034190
  14 H :    0.025143
  15 H :    0.057461
  16 S :    0.110591
  17 C :   -0.106577
  18 C :   -0.076025
  19 C :   -0.018712
  20 C :   -0.156684
  21 H :    0.020317
  22 C :   -0.001456
  23 H :    0.047135
  24 H :    0.069046
  25 C :   -0.080347
  26 H :    0.038092
  27 H :    0.036857
  28 C :   -0.027070
  29 H :    0.020473
  30 H :    0.053192
  31 H :    0.025525
  32 H :    0.052046
  33 H :    0.074970
Sum of atomic charges:    0.0000000

LOEWDIN ATOMIC CHARGES
----------------------
   0 S :    0.399159
   1 C :   -0.208237
   2 C :   -0.062596
   3 C :   -0.073915
   4 C :   -0.180228
   5 H :    0.023160
   6 C :   -0.030597
   7 H :    0.035635
   8 H :    0.026001
   9 C :   -0.040460
  10 H :    0.018687
  11 H :    0.025245
  12 C :   -0.073314
  13 H :    0.027957
  14 H :    0.027097
  15 H :    0.036795
  16 S :    0.412165
  17 C :   -0.217080
  18 C :   -0.084119
  19 C :   -0.056731
  20 C :   -0.181599
  21 H :    0.032444
  22 C :   -0.039964
  23 H :    0.037243
  24 H :    0.041521
  25 C :   -0.033640
  26 H :    0.034227
  27 H :    0.019212
  28 C :   -0.064743
  29 H :    0.022374
  30 H :    0.028792
  31 H :    0.029330
  32 H :    0.027744
  33 H :    0.042435

  Mayer bond orders larger than 0.100000
B(  0-S ,  1-C ) :   1.1297 B(  0-S ,  4-C ) :   1.1563 B(  1-C ,  2-C ) :   1.6041
B(  1-C , 32-H ) :   0.9580 B(  2-C ,  3-C ) :   1.2602 B(  2-C ,  6-C ) :   1.0383
B(  3-C ,  4-C ) :   1.5269 B(  3-C ,  5-H ) :   0.9855 B(  4-C , 20-C ) :   1.1028
B(  6-C ,  7-H ) :   0.9421 B(  6-C ,  8-H ) :   0.9376 B(  6-C ,  9-C ) :   1.0615
B(  9-C , 10-H ) :   0.9478 B(  9-C , 11-H ) :   0.9626 B(  9-C , 12-C ) :   1.0886
B( 12-C , 13-H ) :   0.9702 B( 12-C , 14-H ) :   0.9703 B( 12-C , 15-H ) :   0.9734
B( 16-S , 17-C ) :   1.1828 B( 16-S , 20-C ) :   1.1376 B( 17-C , 18-C ) :   1.5884
B( 17-C , 20-C ) :   0.1007 B( 17-C , 33-H ) :   0.9554 B( 18-C , 19-C ) :   1.2638
B( 18-C , 21-H ) :   0.9870 B( 19-C , 20-C ) :   1.5446 B( 19-C , 22-C ) :   1.0283
B( 22-C , 23-H ) :   0.9256 B( 22-C , 24-H ) :   0.9273 B( 22-C , 25-C ) :   1.0626
B( 25-C , 26-H ) :   0.9564 B( 25-C , 27-H ) :   0.9544 B( 25-C , 28-C ) :   1.0735
B( 28-C , 29-H ) :   0.9724 B( 28-C , 30-H ) :   0.9775 B( 28-C , 31-H ) :   0.9712

Dispersion correction           -0.013722435
FINAL SINGLE POINT ENERGY     -1339.865692306481

DIPOLE MOMENT
-------------
                                X             Y             Z
Electronic contribution:      3.07793     -26.26387       4.56986
Nuclear contribution   :     -2.99033      27.01883      -5.02026
                        -----------------------------------------
Total Dipole Moment    :      0.08760       0.75496      -0.45040
                        -----------------------------------------
Magnitude (a.u.)       :      0.88346
Magnitude (Debye)      :      2.24557

Rotational constants in cm-1:     0.018852     0.008150     0.006286
Rotational constants in MHz :   565.170674   244.338372   188.461801

                             ****ORCA TERMINATED NORMALLY****
TOTAL RUN TIME: 0 days 0 hours 0 minutes 29 seconds 853 msec
