                         Program Version 4.2.1 -  RELEASE  -
|  1> ! wB97X-D3 SP def2-SVP
|  2> %pal
|  3> nprocs 16
|  4> end
|  5>
|  6> * xyz 0 1
|  7> S 	 -6.09155 	 -7.08725 	 83.4705
|  8> C 	 -6.84752 	 -8.65641 	 83.5796
|  9> C 	 -6.65575 	 -9.25276 	 84.7981
| 10> C 	 -5.8258 	 -8.41809 	 85.6085
| 11> C 	 -5.3185 	 -7.32335 	 84.9745
| 12> H 	 -5.44789 	 -8.6963 	 86.6049
| 13> C 	 -7.0646 	 -10.7023 	 85.2613
| 14> H 	 -8.04063 	 -10.9729 	 85.0423
| 15> H 	 -6.87313 	 -10.7884 	 86.3296
| 16> C 	 -5.98972 	 -11.6253 	 84.7127
| 17> H 	 -6.05707 	 -11.6594 	 83.6471
| 18> H 	 -5.06028 	 -11.2063 	 85.0629
| 19> C 	 -6.12171 	 -13.0657 	 85.075
| 20> H 	 -5.34281 	 -13.689 	 84.6105
| 21> H 	 -5.92559 	 -13.265 	 86.09
| 22> H 	 -7.08068 	 -13.5696 	 84.88
| 23> S 	 -4.71448 	 -5.52842 	 87.0278
| 24> C 	 -3.17586 	 -4.66811 	 87.0184
| 25> C 	 -2.41927 	 -5.10618 	 85.9173
| 26> C 	 -3.02691 	 -6.13524 	 85.103
| 27> C 	 -4.34934 	 -6.35465 	 85.4718
| 28> H 	 -1.46466 	 -4.61679 	 85.7873
| 29> C 	 -2.2342 	 -6.71936 	 83.947
| 30> H 	 -1.51639 	 -5.96164 	 83.5631
| 31> H 	 -2.92213 	 -6.98005 	 83.153
| 32> C 	 -1.49365 	 -8.06989 	 84.3446
| 33> H 	 -2.23561 	 -8.79987 	 84.361
| 34> H 	 -1.16167 	 -8.03469 	 85.3484
| 35> C 	 -0.264567 	 -8.40834 	 83.4573
| 36> H 	 -0.486236 	 -8.5513 	 82.4231
| 37> H 	 0.23281 	 -9.36429 	 83.6944
| 38> H 	 0.468985 	 -7.66122 	 83.7063
| 39> H 	 -7.37081 	 -9.18036 	 82.8174
| 40> H 	 -2.84114 	 -3.89609 	 87.7129
| 41> *
| 42>
| 43>                          ****END OF INPUT****

CARTESIAN COORDINATES (ANGSTROEM)
---------------------------------
  S     -6.091550   -7.087250   83.470500
  C     -6.847520   -8.656410   83.579600
  C     -6.655750   -9.252760   84.798100
  C     -5.825800   -8.418090   85.608500
  C     -5.318500   -7.323350   84.974500
  H     -5.447890   -8.696300   86.604900
  C     -7.064600  -10.702300   85.261300
  H     -8.040630  -10.972900   85.042300
  H     -6.873130  -10.788400   86.329600
  C     -5.989720  -11.625300   84.712700
  H     -6.057070  -11.659400   83.647100
  H     -5.060280  -11.206300   85.062900
  C     -6.121710  -13.065700   85.075000
  H     -5.342810  -13.689000   84.610500
  H     -5.925590  -13.265000   86.090000
  H     -7.080680  -13.569600   84.880000
  S     -4.714480   -5.528420   87.027800
  C     -3.175860   -4.668110   87.018400
  C     -2.419270   -5.106180   85.917300
  C     -3.026910   -6.135240   85.103000
  C     -4.349340   -6.354650   85.471800
  H     -1.464660   -4.616790   85.787300
  C     -2.234200   -6.719360   83.947000
  H     -1.516390   -5.961640   83.563100
  H     -2.922130   -6.980050   83.153000
  C     -1.493650   -8.069890   84.344600
  H     -2.235610   -8.799870   84.361000
  H     -1.161670   -8.034690   85.348400
  C     -0.264567   -8.408340   83.457300
  H     -0.486236   -8.551300   82.423100
  H      0.232810   -9.364290   83.694400
  H      0.468985   -7.661220   83.706300
  H     -7.370810   -9.180360   82.817400
  H     -2.841140   -3.896090   87.712900

 Total Charge           Charge          ....    0
 Multiplicity           Mult            ....    1
 Number of Electrons    NEL             ....  134
 Basis Dimension        Dim             ....  322

ORBITAL ENERGIES
----------------

  NO   OCC          E(Eh)            E(eV)
   0   2.0000     -88.967184     -2420.9201
   1   2.0000     -88.964789     -2420.8550
   2   2.0000     -10.330295      -281.1016
   3   2.0000     -10.323239      -280.9096
   4   2.0000     -10.322445      -280.8880
   5   2.0000     -10.309234      -280.5285
   6   2.0000     -10.308478      -280.5079
   7   2.0000     -10.302470      -280.3445
   8   2.0000     -10.295882      -280.1652
   9   2.0000     -10.295218      -280.1471
  10   2.0000     -10.292301      -280.0677
  11   2.0000     -10.291592      -280.0484
  12   2.0000     -10.280006      -279.7332
  13   2.0000     -10.279912      -279.7306
  14   2.0000     -10.276491      -279.6375
  15   2.0000     -10.272196      -279.5207
  16   2.0000      -8.082534      -219.9369
  17   2.0000      -8.078419      -219.8250
  18   2.0000      -6.040967      -164.3831
  19   2.0000      -6.037045      -164.2763
  20   2.0000      -6.037024      -164.2758
  21   2.0000      -6.033261      -164.1734
  22   2.0000      -6.033041      -164.1674
  23   2.0000      -6.029155      -164.0617
  24   2.0000      -1.009443       -27.4683
  25   2.0000      -0.979860       -26.6633
  26   2.0000      -0.919779       -25.0285
  27   2.0000      -0.900477       -24.5032
  28   2.0000      -0.869423       -23.6582
  29   2.0000      -0.849438       -23.1144
  30   2.0000      -0.846080       -23.0230
  31   2.0000      -0.810478       -22.0542
  32   2.0000      -0.788252       -21.4494
  33   2.0000      -0.773843       -21.0574
  34   2.0000      -0.709528       -19.3072
  35   2.0000      -0.700253       -19.0549
  36   2.0000      -0.694933       -18.9101
  37   2.0000      -0.662158       -18.0182
  38   2.0000      -0.640326       -17.4242
  39   2.0000      -0.619968       -16.8702
  40   2.0000      -0.591916       -16.1068
  41   2.0000      -0.579366       -15.7653
  42   2.0000      -0.567530       -15.4433
  43   2.0000      -0.564262       -15.3544
  44   2.0000      -0.525249       -14.2928
  45   2.0000      -0.520671       -14.1682
  46   2.0000      -0.519985       -14.1495
  47   2.0000      -0.512106       -13.9351
  48   2.0000      -0.506649       -13.7866
  49   2.0000      -0.500192       -13.6109
  50   2.0000      -0.493684       -13.4338
  51   2.0000      -0.476254       -12.9595
  52   2.0000      -0.467709       -12.7270
  53   2.0000      -0.464811       -12.6482
  54   2.0000      -0.463377       -12.6091
  55   2.0000      -0.447313       -12.1720
  56   2.0000      -0.446086       -12.1386
  57   2.0000      -0.437474       -11.9043
  58   2.0000      -0.427884       -11.6433
  59   2.0000      -0.425864       -11.5883
  60   2.0000      -0.424933       -11.5630
  61   2.0000      -0.417705       -11.3663
  62   2.0000      -0.415372       -11.3028
  63   2.0000      -0.337012        -9.1706
  64   2.0000      -0.332836        -9.0569
  65   2.0000      -0.326999        -8.8981
  66   2.0000      -0.301165        -8.1951
  67   0.0000       0.034758         0.9458
  68   0.0000       0.064914         1.7664
  69   0.0000       0.110787         3.0147
  70   0.0000       0.119914         3.2630
  71   0.0000       0.128048         3.4844

MULLIKEN ATOMIC CHARGES
-----------------------
   0 S :    0.129268
   1 C :   -0.113055
   2 C :   -0.101077
   3 C :    0.019134
   4 C :   -0.173307
   5 H :    0.016280
   6 C :    0.116256
   7 H :    0.013671
   8 H :    0.017926
   9 C :   -0.066745
  10 H :    0.021137
  11 H :    0.028109
  12 C :   -0.025197
  13 H :    0.028045
  14 H :    0.005482
  15 H :    0.029426
  16 S :    0.100172
  17 C :   -0.103077
  18 C :   -0.042876
  19 C :   -0.017600
  20 C :   -0.158048
  21 H :    0.019230
  22 C :    0.064016
  23 H :    0.032426
  24 H :    0.023159
  25 C :   -0.038287
  26 H :    0.013998
  27 H :    0.018673
  28 C :   -0.046828
  29 H :    0.032469
  30 H :    0.027637
  31 H :    0.034474
  32 H :    0.028143
  33 H :    0.066967
Sum of atomic charges:    0.0000000

LOEWDIN ATOMIC CHARGES
----------------------
   0 S :    0.431655
   1 C :   -0.198373
   2 C :   -0.054681
   3 C :   -0.069728
   4 C :   -0.212989
   5 H :    0.031594
   6 C :   -0.011638
   7 H :    0.016721
   8 H :    0.031922
   9 C :   -0.036934
  10 H :    0.020087
  11 H :    0.027229
  12 C :   -0.070692
  13 H :    0.031086
  14 H :    0.014375
  15 H :    0.027282
  16 S :    0.382811
  17 C :   -0.184721
  18 C :   -0.073240
  19 C :   -0.048224
  20 C :   -0.191139
  21 H :    0.028969
  22 C :   -0.026588
  23 H :    0.032824
  24 H :    0.026489
  25 C :   -0.026532
  26 H :    0.014565
  27 H :    0.018984
  28 C :   -0.065717
  29 H :    0.021766
  30 H :    0.029677
  31 H :    0.025789
  32 H :    0.021591
  33 H :    0.035778

  Mayer bond orders larger than 0.100000
B(  0-S ,  1-C ) :   1.1389 B(  0-S ,  4-C ) :   1.1642 B(  1-C ,  2-C ) :   1.6309
B(  1-C , 32-H ) :   0.9686 B(  2-C ,  3-C ) :   1.2474 B(  2-C ,  6-C ) :   1.0199
B(  3-C ,  4-C ) :   1.5945 B(  3-C ,  5-H ) :   0.9887 B(  4-C , 20-C ) :   1.0113
B(  6-C ,  7-H ) :   0.9439 B(  6-C ,  8-H ) :   0.9427 B(  6-C ,  9-C ) :   1.0631
B(  9-C , 10-H ) :   0.9577 B(  9-C , 11-H ) :   0.9539 B(  9-C , 12-C ) :   1.0944
B( 12-C , 13-H ) :   0.9689 B( 12-C , 14-H ) :   0.9682 B( 12-C , 15-H ) :   0.9710
B( 16-S , 17-C ) :   1.1492 B( 16-S , 20-C ) :   1.1249 B( 17-C , 18-C ) :   1.6226
B( 17-C , 33-H ) :   0.9662 B( 18-C , 19-C ) :   1.2199 B( 18-C , 21-H ) :   0.9883
B( 19-C , 20-C ) :   1.6012 B( 19-C , 22-C ) :   1.0513 B( 22-C , 23-H ) :   0.9472
B( 22-C , 24-H ) :   0.9296 B( 22-C , 25-C ) :   1.0399 B( 25-C , 26-H ) :   0.9571
B( 25-C , 27-H ) :   0.9633 B( 25-C , 28-C ) :   1.0779 B( 28-C , 29-H ) :   0.9768
B( 28-C , 30-H ) :   0.9731 B( 28-C , 31-H ) :   0.9781

Dispersion correction           -0.014168861
FINAL SINGLE POINT ENERGY     -1339.870455019913

DIPOLE MOMENT
-------------
                                X             Y             Z
Electronic contribution:    -12.08603      24.75229       4.98405
Nuclear contribution   :     12.49399     -25.29424      -4.99456
                        -----------------------------------------
Total Dipole Moment    :      0.40795      -0.54195      -0.01052
                        -----------------------------------------
Magnitude (a.u.)       :      0.67841
Magnitude (Debye)      :      1.72439

Rotational constants in cm-1:     0.016989     0.008536     0.007056
Rotational constants in MHz :   509.317931   255.890565   211.532163

                             ****ORCA TERMINATED NORMALLY****
TOTAL RUN TIME: 0 days 0 hours 0 minutes 30 seconds 785 msec
