                         Program Version 4.2.1 -  RELEASE  -
|  1> ! wB97X-D3 SP def2-SVP
|  2> %pal
|  3> nprocs 16
|  4> end
|  5>
|  6> * xyz 0 1
|  7> S 	 -11.6481 	 -10.9984 	 87.7817
|  8> C 	 -12.1645 	 -10.4028 	 86.2473
|  9> C 	 -11.8193 	 -9.05975 	 86.0892
| 10> C 	 -11.1456 	 -8.49413 	 87.264
| 11> C 	 -10.9492 	 -9.4168 	 88.2729
| 12> H 	 -10.9025 	 -7.50398 	 87.3032
| 13> C 	 -12.0726 	 -8.08172 	 84.919
| 14> H 	 -11.6952 	 -8.43238 	 83.9696
| 15> H 	 -11.5971 	 -7.0771 	 85.1522
| 16> C 	 -13.6134 	 -7.95749 	 84.6586
| 17> H 	 -13.9595 	 -8.91248 	 84.229
| 18> H 	 -14.1449 	 -7.77028 	 85.6191
| 19> C 	 -13.9175 	 -6.78464 	 83.7016
| 20> H 	 -14.9907 	 -6.52633 	 83.3826
| 21> H 	 -13.4631 	 -5.94388 	 84.2248
| 22> H 	 -13.2551 	 -6.70588 	 82.8238
| 23> S 	 -11.0665 	 -8.05865 	 90.7579
| 24> C 	 -9.72705 	 -8.3506 	 91.8832
| 25> C 	 -8.85904 	 -9.24267 	 91.3736
| 26> C 	 -9.21027 	 -9.91224 	 90.1673
| 27> C 	 -10.3566 	 -9.22933 	 89.6222
| 28> H 	 -8.04606 	 -9.43445 	 92.0147
| 29> C 	 -8.34465 	 -11.0232 	 89.5297
| 30> H 	 -8.93335 	 -11.3039 	 88.6358
| 31> H 	 -8.32461 	 -12.0229 	 89.997
| 32> C 	 -6.87872 	 -10.6533 	 89.1535
| 33> H 	 -6.9728 	 -9.73133 	 88.6507
| 34> H 	 -6.4 	 -11.3316 	 88.4112
| 35> C 	 -5.86957 	 -10.6701 	 90.3165
| 36> H 	 -5.69888 	 -11.6326 	 90.7092
| 37> H 	 -6.17531 	 -10.0157 	 91.1187
| 38> H 	 -4.9197 	 -10.2504 	 89.9203
| 39> H 	 -12.7473 	 -10.996 	 85.5707
| 40> H 	 -9.57815 	 -7.69094 	 92.6753
| 41> *
| 42>
| 43>                          ****END OF INPUT****

CARTESIAN COORDINATES (ANGSTROEM)
---------------------------------
  S    -11.648100  -10.998400   87.781700
  C    -12.164500  -10.402800   86.247300
  C    -11.819300   -9.059750   86.089200
  C    -11.145600   -8.494130   87.264000
  C    -10.949200   -9.416800   88.272900
  H    -10.902500   -7.503980   87.303200
  C    -12.072600   -8.081720   84.919000
  H    -11.695200   -8.432380   83.969600
  H    -11.597100   -7.077100   85.152200
  C    -13.613400   -7.957490   84.658600
  H    -13.959500   -8.912480   84.229000
  H    -14.144900   -7.770280   85.619100
  C    -13.917500   -6.784640   83.701600
  H    -14.990700   -6.526330   83.382600
  H    -13.463100   -5.943880   84.224800
  H    -13.255100   -6.705880   82.823800
  S    -11.066500   -8.058650   90.757900
  C     -9.727050   -8.350600   91.883200
  C     -8.859040   -9.242670   91.373600
  C     -9.210270   -9.912240   90.167300
  C    -10.356600   -9.229330   89.622200
  H     -8.046060   -9.434450   92.014700
  C     -8.344650  -11.023200   89.529700
  H     -8.933350  -11.303900   88.635800
  H     -8.324610  -12.022900   89.997000
  C     -6.878720  -10.653300   89.153500
  H     -6.972800   -9.731330   88.650700
  H     -6.400000  -11.331600   88.411200
  C     -5.869570  -10.670100   90.316500
  H     -5.698880  -11.632600   90.709200
  H     -6.175310  -10.015700   91.118700
  H     -4.919700  -10.250400   89.920300
  H    -12.747300  -10.996000   85.570700
  H     -9.578150   -7.690940   92.675300

 Total Charge           Charge          ....    0
 Multiplicity           Mult            ....    1
 Number of Electrons    NEL             ....  134
 Basis Dimension        Dim             ....  322

ORBITAL ENERGIES
----------------

  NO   OCC          E(Eh)            E(eV)
   0   2.0000     -88.967897     -2420.9396
   1   2.0000     -88.966568     -2420.9034
   2   2.0000     -10.339262      -281.3456
   3   2.0000     -10.335808      -281.2516
   4   2.0000     -10.317322      -280.7486
   5   2.0000     -10.314623      -280.6752
   6   2.0000     -10.311145      -280.5805
   7   2.0000     -10.307907      -280.4924
   8   2.0000     -10.302315      -280.3402
   9   2.0000     -10.296223      -280.1745
  10   2.0000     -10.294593      -280.1301
  11   2.0000     -10.293474      -280.0997
  12   2.0000     -10.287549      -279.9385
  13   2.0000     -10.285330      -279.8781
  14   2.0000     -10.284637      -279.8592
  15   2.0000     -10.274871      -279.5934
  16   2.0000      -8.081838      -219.9180
  17   2.0000      -8.080697      -219.8869
  18   2.0000      -6.040332      -164.3658
  19   2.0000      -6.039254      -164.3364
  20   2.0000      -6.036488      -164.2612
  21   2.0000      -6.035160      -164.2251
  22   2.0000      -6.032640      -164.1565
  23   2.0000      -6.031555      -164.1269
  24   2.0000      -0.998276       -27.1645
  25   2.0000      -0.979636       -26.6573
  26   2.0000      -0.905492       -24.6397
  27   2.0000      -0.901393       -24.5282
  28   2.0000      -0.867931       -23.6176
  29   2.0000      -0.848514       -23.0893
  30   2.0000      -0.844469       -22.9792
  31   2.0000      -0.815656       -22.1951
  32   2.0000      -0.782416       -21.2906
  33   2.0000      -0.767224       -20.8772
  34   2.0000      -0.707109       -19.2414
  35   2.0000      -0.697946       -18.9921
  36   2.0000      -0.693324       -18.8663
  37   2.0000      -0.658354       -17.9147
  38   2.0000      -0.648738       -17.6531
  39   2.0000      -0.621658       -16.9162
  40   2.0000      -0.602412       -16.3925
  41   2.0000      -0.564976       -15.3738
  42   2.0000      -0.561365       -15.2755
  43   2.0000      -0.548974       -14.9383
  44   2.0000      -0.540813       -14.7163
  45   2.0000      -0.519263       -14.1299
  46   2.0000      -0.512161       -13.9366
  47   2.0000      -0.509781       -13.8718
  48   2.0000      -0.506040       -13.7701
  49   2.0000      -0.495637       -13.4870
  50   2.0000      -0.487182       -13.2569
  51   2.0000      -0.484390       -13.1809
  52   2.0000      -0.477580       -12.9956
  53   2.0000      -0.466740       -12.7006
  54   2.0000      -0.454978       -12.3806
  55   2.0000      -0.445531       -12.1235
  56   2.0000      -0.434505       -11.8235
  57   2.0000      -0.433932       -11.8079
  58   2.0000      -0.429007       -11.6739
  59   2.0000      -0.426479       -11.6051
  60   2.0000      -0.420716       -11.4483
  61   2.0000      -0.417093       -11.3497
  62   2.0000      -0.409933       -11.1548
  63   2.0000      -0.344035        -9.3617
  64   2.0000      -0.337086        -9.1726
  65   2.0000      -0.324037        -8.8175
  66   2.0000      -0.296663        -8.0726
  67   0.0000       0.029045         0.7903
  68   0.0000       0.061447         1.6721
  69   0.0000       0.109500         2.9796
  70   0.0000       0.112330         3.0567
  71   0.0000       0.130782         3.5588

MULLIKEN ATOMIC CHARGES
-----------------------
   0 S :    0.107371
   1 C :   -0.121430
   2 C :   -0.079603
   3 C :    0.062123
   4 C :   -0.147260
   5 H :   -0.022142
   6 C :    0.034591
   7 H :    0.035619
   8 H :    0.035203
   9 C :   -0.096645
  10 H :    0.035105
  11 H :    0.047641
  12 C :   -0.059051
  13 H :    0.061707
  14 H :    0.011248
  15 H :    0.018284
  16 S :    0.104177
  17 C :   -0.084131
  18 C :   -0.014103
  19 C :   -0.012350
  20 C :   -0.159844
  21 H :    0.008602
  22 C :    0.060752
  23 H :    0.013679
  24 H :    0.036590
  25 C :   -0.072511
  26 H :    0.025085
  27 H :    0.034079
  28 C :   -0.031686
  29 H :    0.025991
  30 H :    0.018816
  31 H :    0.034430
  32 H :    0.047367
  33 H :    0.042297
Sum of atomic charges:    0.0000000

LOEWDIN ATOMIC CHARGES
----------------------
   0 S :    0.404732
   1 C :   -0.202084
   2 C :   -0.057935
   3 C :   -0.047362
   4 C :   -0.178561
   5 H :    0.015492
   6 C :   -0.029496
   7 H :    0.029514
   8 H :    0.033310
   9 C :   -0.040478
  10 H :    0.020720
  11 H :    0.029250
  12 C :   -0.087464
  13 H :    0.037353
  14 H :    0.024307
  15 H :    0.024151
  16 S :    0.386641
  17 C :   -0.168024
  18 C :   -0.066446
  19 C :   -0.047049
  20 C :   -0.188099
  21 H :    0.025200
  22 C :   -0.043082
  23 H :    0.026760
  24 H :    0.034826
  25 C :   -0.038323
  26 H :    0.019413
  27 H :    0.031685
  28 C :   -0.060674
  29 H :    0.018287
  30 H :    0.017723
  31 H :    0.032748
  32 H :    0.025673
  33 H :    0.017293

  Mayer bond orders larger than 0.100000
B(  0-S ,  1-C ) :   1.1470 B(  0-S ,  4-C ) :   1.1389 B(  1-C ,  2-C ) :   1.6015
B(  1-C , 32-H ) :   0.9746 B(  2-C ,  3-C ) :   1.2363 B(  2-C ,  6-C ) :   1.0196
B(  3-C ,  4-C ) :   1.5824 B(  3-C ,  5-H ) :   1.0108 B(  4-C , 20-C ) :   1.0224
B(  6-C ,  7-H ) :   0.9392 B(  6-C ,  8-H ) :   0.9528 B(  6-C ,  9-C ) :   1.0443
B(  9-C , 10-H ) :   0.9568 B(  9-C , 11-H ) :   0.9633 B(  9-C , 12-C ) :   1.0685
B( 12-C , 13-H ) :   0.9744 B( 12-C , 14-H ) :   0.9699 B( 12-C , 15-H ) :   0.9693
B( 16-S , 17-C ) :   1.1260 B( 16-S , 20-C ) :   1.1651 B( 17-C , 18-C ) :   1.6510
B( 17-C , 33-H ) :   0.9701 B( 18-C , 19-C ) :   1.2231 B( 18-C , 21-H ) :   0.9846
B( 19-C , 20-C ) :   1.5553 B( 19-C , 22-C ) :   1.0456 B( 22-C , 23-H ) :   0.9177
B( 22-C , 24-H ) :   0.9413 B( 22-C , 25-C ) :   1.0618 B( 25-C , 26-H ) :   0.9590
B( 25-C , 27-H ) :   0.9564 B( 25-C , 28-C ) :   1.0760 B( 28-C , 29-H ) :   0.9755
B( 28-C , 30-H ) :   0.9753 B( 28-C , 31-H ) :   0.9706

Dispersion correction           -0.013773292
FINAL SINGLE POINT ENERGY     -1339.862460002015

DIPOLE MOMENT
-------------
                                X             Y             Z
Electronic contribution:     -8.02581      -3.65357      14.58419
Nuclear contribution   :      8.33479       3.83870     -14.86210
                        -----------------------------------------
Total Dipole Moment    :      0.30898       0.18514      -0.27791
                        -----------------------------------------
Magnitude (a.u.)       :      0.45495
Magnitude (Debye)      :      1.15639

Rotational constants in cm-1:     0.023078     0.006720     0.005998
Rotational constants in MHz :   691.858539   201.459743   179.818324

                             ****ORCA TERMINATED NORMALLY****
TOTAL RUN TIME: 0 days 0 hours 0 minutes 32 seconds 434 msec
