                         Program Version 4.2.1 -  RELEASE  -
|  1> ! wB97X-D3 SP def2-SVP
|  2> %pal
|  3> nprocs 16
|  4> end
|  5>
|  6> * xyz 0 1
|  7> S 	 44.8426 	 14.194 	 81.0419
|  8> C 	 44.7884 	 15.7526 	 80.2589
|  9> C 	 43.7532 	 16.5733 	 80.7479
| 10> C 	 43.0567 	 15.8754 	 81.7735
| 11> C 	 43.4663 	 14.5333 	 81.9976
| 12> H 	 42.2257 	 16.3546 	 82.4034
| 13> C 	 43.4242 	 17.94 	 80.2288
| 14> H 	 44.373 	 18.3802 	 79.9159
| 15> H 	 42.9548 	 18.5901 	 80.9319
| 16> C 	 42.6769 	 17.7915 	 78.8559
| 17> H 	 43.1804 	 17.1264 	 78.1501
| 18> H 	 41.68 	 17.39 	 79.0737
| 19> C 	 42.2238 	 19.1681 	 78.1941
| 20> H 	 41.5839 	 19.7696 	 78.7818
| 21> H 	 43.0552 	 19.8577 	 78.0013
| 22> H 	 41.6254 	 19.0201 	 77.2554
| 23> S 	 41.2622 	 13.1583 	 82.8735
| 24> C 	 41.2769 	 11.8312 	 84.0441
| 25> C 	 42.5146 	 11.9261 	 84.6551
| 26> C 	 43.4685 	 12.8284 	 84.0339
| 27> C 	 42.9299 	 13.5435 	 82.9729
| 28> H 	 42.7552 	 11.225 	 85.4504
| 29> C 	 44.9196 	 12.8843 	 84.4776
| 30> H 	 45.4841 	 13.3241 	 83.7537
| 31> H 	 45.3133 	 11.8901 	 84.8205
| 32> C 	 45.0278 	 13.8952 	 85.6545
| 33> H 	 45.9805 	 13.897 	 85.9483
| 34> H 	 44.4715 	 13.5784 	 86.5118
| 35> C 	 44.6871 	 15.3439 	 85.3579
| 36> H 	 43.7308 	 15.4092 	 84.9721
| 37> H 	 45.3291 	 15.6442 	 84.6113
| 38> H 	 44.9283 	 15.9603 	 86.2476
| 39> H 	 45.296 	 15.9379 	 79.3174
| 40> H 	 40.4689 	 11.2032 	 84.4409
| 41> *
| 42>
| 43>                          ****END OF INPUT****

CARTESIAN COORDINATES (ANGSTROEM)
---------------------------------
  S     44.842600   14.194000   81.041900
  C     44.788400   15.752600   80.258900
  C     43.753200   16.573300   80.747900
  C     43.056700   15.875400   81.773500
  C     43.466300   14.533300   81.997600
  H     42.225700   16.354600   82.403400
  C     43.424200   17.940000   80.228800
  H     44.373000   18.380200   79.915900
  H     42.954800   18.590100   80.931900
  C     42.676900   17.791500   78.855900
  H     43.180400   17.126400   78.150100
  H     41.680000   17.390000   79.073700
  C     42.223800   19.168100   78.194100
  H     41.583900   19.769600   78.781800
  H     43.055200   19.857700   78.001300
  H     41.625400   19.020100   77.255400
  S     41.262200   13.158300   82.873500
  C     41.276900   11.831200   84.044100
  C     42.514600   11.926100   84.655100
  C     43.468500   12.828400   84.033900
  C     42.929900   13.543500   82.972900
  H     42.755200   11.225000   85.450400
  C     44.919600   12.884300   84.477600
  H     45.484100   13.324100   83.753700
  H     45.313300   11.890100   84.820500
  C     45.027800   13.895200   85.654500
  H     45.980500   13.897000   85.948300
  H     44.471500   13.578400   86.511800
  C     44.687100   15.343900   85.357900
  H     43.730800   15.409200   84.972100
  H     45.329100   15.644200   84.611300
  H     44.928300   15.960300   86.247600
  H     45.296000   15.937900   79.317400
  H     40.468900   11.203200   84.440900

 Total Charge           Charge          ....    0
 Multiplicity           Mult            ....    1
 Number of Electrons    NEL             ....  134
 Basis Dimension        Dim             ....  322

ORBITAL ENERGIES
----------------

  NO   OCC          E(Eh)            E(eV)
   0   2.0000     -88.973654     -2421.0962
   1   2.0000     -88.960671     -2420.7429
   2   2.0000     -10.337173      -281.2888
   3   2.0000     -10.329224      -281.0725
   4   2.0000     -10.321461      -280.8612
   5   2.0000     -10.316649      -280.7303
   6   2.0000     -10.307536      -280.4823
   7   2.0000     -10.305443      -280.4254
   8   2.0000     -10.304320      -280.3948
   9   2.0000     -10.297287      -280.2034
  10   2.0000     -10.296675      -280.1868
  11   2.0000     -10.295521      -280.1554
  12   2.0000     -10.285826      -279.8916
  13   2.0000     -10.282264      -279.7946
  14   2.0000     -10.264575      -279.3133
  15   2.0000     -10.256613      -279.0966
  16   2.0000      -8.088383      -220.0961
  17   2.0000      -8.075667      -219.7501
  18   2.0000      -6.046683      -164.5386
  19   2.0000      -6.042729      -164.4310
  20   2.0000      -6.039526      -164.3438
  21   2.0000      -6.034348      -164.2030
  22   2.0000      -6.029915      -164.0823
  23   2.0000      -6.026403      -163.9868
  24   2.0000      -1.008586       -27.4450
  25   2.0000      -0.987338       -26.8668
  26   2.0000      -0.912372       -24.8269
  27   2.0000      -0.910625       -24.7794
  28   2.0000      -0.865383       -23.5483
  29   2.0000      -0.848734       -23.0952
  30   2.0000      -0.841724       -22.9045
  31   2.0000      -0.813053       -22.1243
  32   2.0000      -0.784915       -21.3586
  33   2.0000      -0.774125       -21.0650
  34   2.0000      -0.706176       -19.2160
  35   2.0000      -0.702861       -19.1258
  36   2.0000      -0.695307       -18.9203
  37   2.0000      -0.660433       -17.9713
  38   2.0000      -0.637260       -17.3407
  39   2.0000      -0.618480       -16.8297
  40   2.0000      -0.596741       -16.2381
  41   2.0000      -0.576103       -15.6766
  42   2.0000      -0.560583       -15.2542
  43   2.0000      -0.552346       -15.0301
  44   2.0000      -0.544694       -14.8219
  45   2.0000      -0.522950       -14.2302
  46   2.0000      -0.519873       -14.1465
  47   2.0000      -0.511259       -13.9121
  48   2.0000      -0.508162       -13.8278
  49   2.0000      -0.498085       -13.5536
  50   2.0000      -0.492216       -13.3939
  51   2.0000      -0.477451       -12.9921
  52   2.0000      -0.471151       -12.8207
  53   2.0000      -0.464025       -12.6268
  54   2.0000      -0.460234       -12.5236
  55   2.0000      -0.452964       -12.3258
  56   2.0000      -0.440212       -11.9788
  57   2.0000      -0.436278       -11.8717
  58   2.0000      -0.433583       -11.7984
  59   2.0000      -0.432686       -11.7740
  60   2.0000      -0.420602       -11.4452
  61   2.0000      -0.413213       -11.2441
  62   2.0000      -0.404541       -11.0081
  63   2.0000      -0.345924        -9.4131
  64   2.0000      -0.334391        -9.0992
  65   2.0000      -0.321338        -8.7441
  66   2.0000      -0.295808        -8.0493
  67   0.0000       0.031584         0.8595
  68   0.0000       0.062035         1.6880
  69   0.0000       0.109600         2.9824
  70   0.0000       0.124231         3.3805
  71   0.0000       0.129375         3.5205

MULLIKEN ATOMIC CHARGES
-----------------------
   0 S :    0.135909
   1 C :   -0.133849
   2 C :   -0.100635
   3 C :    0.011007
   4 C :   -0.169635
   5 H :    0.040207
   6 C :    0.102360
   7 H :    0.026277
   8 H :    0.026061
   9 C :   -0.098260
  10 H :    0.042904
  11 H :    0.034956
  12 C :   -0.058093
  13 H :    0.016831
  14 H :    0.025198
  15 H :    0.044196
  16 S :    0.094700
  17 C :   -0.096570
  18 C :   -0.042141
  19 C :   -0.073800
  20 C :   -0.144958
  21 H :    0.021579
  22 C :    0.127730
  23 H :   -0.019775
  24 H :    0.037691
  25 C :   -0.044964
  26 H :   -0.011910
  27 H :    0.010323
  28 C :    0.004041
  29 H :    0.022989
  30 H :    0.003689
  31 H :    0.037430
  32 H :    0.055995
  33 H :    0.072516
Sum of atomic charges:   -0.0000000

LOEWDIN ATOMIC CHARGES
----------------------
   0 S :    0.448698
   1 C :   -0.209112
   2 C :   -0.058047
   3 C :   -0.074391
   4 C :   -0.213575
   5 H :    0.042123
   6 C :   -0.025827
   7 H :    0.034403
   8 H :    0.029128
   9 C :   -0.033146
  10 H :    0.025915
  11 H :    0.027044
  12 C :   -0.075051
  13 H :    0.017022
  14 H :    0.020469
  15 H :    0.034295
  16 S :    0.414609
  17 C :   -0.189245
  18 C :   -0.072912
  19 C :   -0.060885
  20 C :   -0.216031
  21 H :    0.029066
  22 C :   -0.017959
  23 H :    0.005831
  24 H :    0.038596
  25 C :   -0.024683
  26 H :    0.003680
  27 H :    0.015626
  28 C :   -0.048091
  29 H :    0.014126
  30 H :    0.014459
  31 H :    0.034522
  32 H :    0.026793
  33 H :    0.042548

  Mayer bond orders larger than 0.100000
B(  0-S ,  1-C ) :   1.1668 B(  0-S ,  4-C ) :   1.1936 B(  1-C ,  2-C ) :   1.5587
B(  1-C ,  4-C ) :   0.1121 B(  1-C , 32-H ) :   0.9623 B(  2-C ,  3-C ) :   1.2992
B(  2-C ,  6-C ) :   1.0344 B(  3-C ,  4-C ) :   1.5243 B(  3-C ,  5-H ) :   0.9781
B(  4-C , 20-C ) :   0.9989 B(  6-C ,  7-H ) :   0.9353 B(  6-C ,  8-H ) :   0.9463
B(  6-C ,  9-C ) :   1.0475 B(  9-C , 10-H ) :   0.9632 B(  9-C , 11-H ) :   0.9602
B(  9-C , 12-C ) :   1.0649 B( 12-C , 13-H ) :   0.9763 B( 12-C , 14-H ) :   0.9767
B( 12-C , 15-H ) :   0.9765 B( 16-S , 17-C ) :   1.1461 B( 16-S , 20-C ) :   1.1533
B( 17-C , 18-C ) :   1.6065 B( 17-C , 33-H ) :   0.9668 B( 18-C , 19-C ) :   1.2452
B( 18-C , 21-H ) :   0.9834 B( 19-C , 20-C ) :   1.5752 B( 19-C , 22-C ) :   1.0584
B( 22-C , 23-H ) :   0.9223 B( 22-C , 24-H ) :   0.9373 B( 22-C , 25-C ) :   1.0740
B( 25-C , 26-H ) :   0.9505 B( 25-C , 27-H ) :   0.9553 B( 25-C , 28-C ) :   1.0822
B( 28-C , 29-H ) :   0.9743 B( 28-C , 30-H ) :   0.9698 B( 28-C , 31-H ) :   0.9700

Dispersion correction           -0.015116406
FINAL SINGLE POINT ENERGY     -1339.855464266088

DIPOLE MOMENT
-------------
                                X             Y             Z
Electronic contribution:     -3.73439     -18.26438       0.16831
Nuclear contribution   :      3.83927      18.54458      -0.06212
                        -----------------------------------------
Total Dipole Moment    :      0.10488       0.28020       0.10619
                        -----------------------------------------
Magnitude (a.u.)       :      0.31747
Magnitude (Debye)      :      0.80696

Rotational constants in cm-1:     0.023540     0.007561     0.006733
Rotational constants in MHz :   705.706101   226.677895   201.835880

                             ****ORCA TERMINATED NORMALLY****
TOTAL RUN TIME: 0 days 0 hours 0 minutes 30 seconds 484 msec
