                         Program Version 4.2.1 -  RELEASE  -
|  1> ! wB97X-D3 SP def2-SVP
|  2> %pal
|  3> nprocs 16
|  4> end
|  5>
|  6> * xyz 0 1
|  7> S 	 13.6132 	 -1.13188 	 63.1068
|  8> C 	 13.6847 	 -2.49346 	 61.9183
|  9> C 	 14.0912 	 -2.00918 	 60.6574
| 10> C 	 14.345 	 -0.599135 	 60.6316
| 11> C 	 14.1308 	 0.0134832 	 61.8781
| 12> H 	 14.7394 	 0.0166068 	 59.8401
| 13> C 	 14.1301 	 -2.85337 	 59.4289
| 14> H 	 14.5476 	 -2.21006 	 58.6075
| 15> H 	 13.1461 	 -3.18026 	 58.9925
| 16> C 	 14.9114 	 -4.17518 	 59.6016
| 17> H 	 15.8169 	 -3.91104 	 60.1744
| 18> H 	 14.3132 	 -4.8437 	 60.2587
| 19> C 	 15.3987 	 -4.86262 	 58.3446
| 20> H 	 16.1981 	 -4.36881 	 57.8302
| 21> H 	 15.7881 	 -5.83467 	 58.4764
| 22> H 	 14.5748 	 -4.87769 	 57.6404
| 23> S 	 15.5542 	 2.32035 	 61.7797
| 24> C 	 14.9303 	 3.74838 	 62.4686
| 25> C 	 13.7181 	 3.5215 	 63.0957
| 26> C 	 13.2243 	 2.21946 	 63.0159
| 27> C 	 14.1298 	 1.40835 	 62.2793
| 28> H 	 13.2294 	 4.36614 	 63.6455
| 29> C 	 11.936 	 1.80379 	 63.5858
| 30> H 	 12.0093 	 1.58995 	 64.6383
| 31> H 	 11.672 	 0.798621 	 63.2481
| 32> C 	 10.6476 	 2.60265 	 63.1284
| 33> H 	 9.92917 	 1.83205 	 63.3615
| 34> H 	 10.6256 	 2.78904 	 62.044
| 35> C 	 10.3036 	 3.83048 	 63.952
| 36> H 	 10.9589 	 4.12382 	 64.772
| 37> H 	 9.35785 	 3.53646 	 64.4301
| 38> H 	 10.3053 	 4.75392 	 63.2268
| 39> H 	 13.406 	 -3.46487 	 62.1467
| 40> H 	 15.5247 	 4.64706 	 62.6571
| 41> *
| 42>
| 43>                          ****END OF INPUT****

CARTESIAN COORDINATES (ANGSTROEM)
---------------------------------
  S     13.613200   -1.131880   63.106800
  C     13.684700   -2.493460   61.918300
  C     14.091200   -2.009180   60.657400
  C     14.345000   -0.599135   60.631600
  C     14.130800    0.013483   61.878100
  H     14.739400    0.016607   59.840100
  C     14.130100   -2.853370   59.428900
  H     14.547600   -2.210060   58.607500
  H     13.146100   -3.180260   58.992500
  C     14.911400   -4.175180   59.601600
  H     15.816900   -3.911040   60.174400
  H     14.313200   -4.843700   60.258700
  C     15.398700   -4.862620   58.344600
  H     16.198100   -4.368810   57.830200
  H     15.788100   -5.834670   58.476400
  H     14.574800   -4.877690   57.640400
  S     15.554200    2.320350   61.779700
  C     14.930300    3.748380   62.468600
  C     13.718100    3.521500   63.095700
  C     13.224300    2.219460   63.015900
  C     14.129800    1.408350   62.279300
  H     13.229400    4.366140   63.645500
  C     11.936000    1.803790   63.585800
  H     12.009300    1.589950   64.638300
  H     11.672000    0.798621   63.248100
  C     10.647600    2.602650   63.128400
  H      9.929170    1.832050   63.361500
  H     10.625600    2.789040   62.044000
  C     10.303600    3.830480   63.952000
  H     10.958900    4.123820   64.772000
  H      9.357850    3.536460   64.430100
  H     10.305300    4.753920   63.226800
  H     13.406000   -3.464870   62.146700
  H     15.524700    4.647060   62.657100

 Total Charge           Charge          ....    0
 Multiplicity           Mult            ....    1
 Number of Electrons    NEL             ....  134
 Basis Dimension        Dim             ....  322

ORBITAL ENERGIES
----------------

  NO   OCC          E(Eh)            E(eV)
   0   2.0000     -88.967020     -2420.9157
   1   2.0000     -88.966684     -2420.9065
   2   2.0000     -10.332697      -281.1670
   3   2.0000     -10.328464      -281.0518
   4   2.0000     -10.314884      -280.6823
   5   2.0000     -10.313476      -280.6439
   6   2.0000     -10.306755      -280.4611
   7   2.0000     -10.302500      -280.3453
   8   2.0000     -10.297638      -280.2130
   9   2.0000     -10.296258      -280.1754
  10   2.0000     -10.291949      -280.0582
  11   2.0000     -10.287726      -279.9433
  12   2.0000     -10.287613      -279.9402
  13   2.0000     -10.285915      -279.8940
  14   2.0000     -10.284364      -279.8518
  15   2.0000     -10.271144      -279.4920
  16   2.0000      -8.081937      -219.9207
  17   2.0000      -8.080310      -219.8764
  18   2.0000      -6.040238      -164.3632
  19   2.0000      -6.038864      -164.3258
  20   2.0000      -6.036289      -164.2558
  21   2.0000      -6.034908      -164.2182
  22   2.0000      -6.032991      -164.1660
  23   2.0000      -6.031224      -164.1179
  24   2.0000      -1.005677       -27.3659
  25   2.0000      -0.978548       -26.6276
  26   2.0000      -0.911327       -24.7985
  27   2.0000      -0.909607       -24.7517
  28   2.0000      -0.866620       -23.5819
  29   2.0000      -0.855234       -23.2721
  30   2.0000      -0.845379       -23.0039
  31   2.0000      -0.811537       -22.0831
  32   2.0000      -0.786651       -21.4058
  33   2.0000      -0.770045       -20.9540
  34   2.0000      -0.708357       -19.2754
  35   2.0000      -0.700322       -19.0567
  36   2.0000      -0.690187       -18.7810
  37   2.0000      -0.660157       -17.9638
  38   2.0000      -0.639228       -17.3943
  39   2.0000      -0.615815       -16.7572
  40   2.0000      -0.602677       -16.3997
  41   2.0000      -0.566839       -15.4245
  42   2.0000      -0.558025       -15.1846
  43   2.0000      -0.548677       -14.9302
  44   2.0000      -0.530570       -14.4375
  45   2.0000      -0.526003       -14.3133
  46   2.0000      -0.523609       -14.2481
  47   2.0000      -0.519857       -14.1460
  48   2.0000      -0.504180       -13.7194
  49   2.0000      -0.497522       -13.5383
  50   2.0000      -0.489636       -13.3237
  51   2.0000      -0.483524       -13.1574
  52   2.0000      -0.476127       -12.9561
  53   2.0000      -0.467681       -12.7263
  54   2.0000      -0.460959       -12.5433
  55   2.0000      -0.446212       -12.1420
  56   2.0000      -0.441770       -12.0212
  57   2.0000      -0.434773       -11.8308
  58   2.0000      -0.431540       -11.7428
  59   2.0000      -0.422422       -11.4947
  60   2.0000      -0.418247       -11.3811
  61   2.0000      -0.411185       -11.1889
  62   2.0000      -0.397302       -10.8111
  63   2.0000      -0.345054        -9.3894
  64   2.0000      -0.333918        -9.0864
  65   2.0000      -0.329204        -8.9581
  66   2.0000      -0.283425        -7.7124
  67   0.0000       0.023480         0.6389
  68   0.0000       0.071177         1.9368
  69   0.0000       0.106305         2.8927
  70   0.0000       0.114453         3.1144
  71   0.0000       0.130129         3.5410

MULLIKEN ATOMIC CHARGES
-----------------------
   0 S :    0.093935
   1 C :   -0.102135
   2 C :   -0.057921
   3 C :    0.038199
   4 C :   -0.154448
   5 H :    0.013429
   6 C :    0.034831
   7 H :    0.022468
   8 H :    0.047490
   9 C :   -0.117282
  10 H :    0.034620
  11 H :    0.035997
  12 C :   -0.002577
  13 H :    0.022437
  14 H :    0.025396
  15 H :    0.016529
  16 S :    0.115091
  17 C :   -0.090092
  18 C :   -0.077933
  19 C :    0.017936
  20 C :   -0.175398
  21 H :    0.031171
  22 C :    0.038987
  23 H :    0.035887
  24 H :    0.011452
  25 C :   -0.079799
  26 H :    0.028355
  27 H :    0.049353
  28 C :   -0.074160
  29 H :    0.036887
  30 H :    0.040415
  31 H :    0.051551
  32 H :    0.024150
  33 H :    0.065180
Sum of atomic charges:    0.0000000

LOEWDIN ATOMIC CHARGES
----------------------
   0 S :    0.397293
   1 C :   -0.174115
   2 C :   -0.055282
   3 C :   -0.068758
   4 C :   -0.183495
   5 H :    0.030919
   6 C :   -0.041738
   7 H :    0.031834
   8 H :    0.037078
   9 C :   -0.045750
  10 H :    0.025857
  11 H :    0.024266
  12 C :   -0.061979
  13 H :    0.024737
  14 H :    0.023745
  15 H :    0.022211
  16 S :    0.429027
  17 C :   -0.208056
  18 C :   -0.077983
  19 C :   -0.058365
  20 C :   -0.201066
  21 H :    0.038870
  22 C :   -0.043217
  23 H :    0.033791
  24 H :    0.023607
  25 C :   -0.036756
  26 H :    0.025580
  27 H :    0.032413
  28 C :   -0.083539
  29 H :    0.020617
  30 H :    0.033150
  31 H :    0.040330
  32 H :    0.010528
  33 H :    0.034247

  Mayer bond orders larger than 0.100000
B(  0-S ,  1-C ) :   1.1267 B(  0-S ,  4-C ) :   1.1580 B(  1-C ,  2-C ) :   1.5822
B(  1-C ,  4-C ) :   0.1027 B(  1-C , 32-H ) :   0.9852 B(  2-C ,  3-C ) :   1.2416
B(  2-C ,  6-C ) :   1.0352 B(  3-C ,  4-C ) :   1.5617 B(  3-C ,  5-H ) :   0.9881
B(  4-C , 20-C ) :   1.0340 B(  6-C ,  7-H ) :   0.9467 B(  6-C ,  8-H ) :   0.9321
B(  6-C ,  9-C ) :   1.0476 B(  9-C , 10-H ) :   0.9635 B(  9-C , 11-H ) :   0.9526
B(  9-C , 12-C ) :   1.0891 B( 12-C , 13-H ) :   0.9728 B( 12-C , 14-H ) :   0.9711
B( 12-C , 15-H ) :   0.9717 B( 16-S , 17-C ) :   1.1733 B( 16-S , 20-C ) :   1.1662
B( 17-C , 18-C ) :   1.5775 B( 17-C , 20-C ) :   0.1064 B( 17-C , 33-H ) :   0.9622
B( 18-C , 19-C ) :   1.2836 B( 18-C , 21-H ) :   0.9808 B( 19-C , 20-C ) :   1.5167
B( 19-C , 22-C ) :   1.0633 B( 22-C , 23-H ) :   0.9261 B( 22-C , 24-H ) :   0.9228
B( 22-C , 25-C ) :   1.0601 B( 25-C , 26-H ) :   0.9738 B( 25-C , 27-H ) :   0.9620
B( 25-C , 28-C ) :   1.0463 B( 28-C , 29-H ) :   0.9791 B( 28-C , 30-H ) :   0.9783
B( 28-C , 31-H ) :   0.9794

Dispersion correction           -0.013744921
FINAL SINGLE POINT ENERGY     -1339.864542735626

DIPOLE MOMENT
-------------
                                X             Y             Z
Electronic contribution:     10.90081       7.95906       7.32638
Nuclear contribution   :    -11.17113      -8.02310      -7.40856
                        -----------------------------------------
Total Dipole Moment    :     -0.27032      -0.06404      -0.08218
                        -----------------------------------------
Magnitude (a.u.)       :      0.28970
Magnitude (Debye)      :      0.73635

Rotational constants in cm-1:     0.025814     0.006614     0.005761
Rotational constants in MHz :   773.889275   198.272036   172.704603

                             ****ORCA TERMINATED NORMALLY****
TOTAL RUN TIME: 0 days 0 hours 0 minutes 33 seconds 932 msec
