                         Program Version 4.2.1 -  RELEASE  -
|  1> ! wB97X-D3 SP def2-SVP
|  2> %pal
|  3> nprocs 16
|  4> end
|  5>
|  6> * xyz 0 1
|  7> S 	 -43.1416 	 16.2296 	 80.9129
|  8> C 	 -43.9601 	 14.733 	 80.6314
|  9> C 	 -43.401 	 13.7359 	 81.4472
| 10> C 	 -42.5478 	 14.273 	 82.459
| 11> C 	 -42.1944 	 15.5572 	 82.2169
| 12> H 	 -42.0519 	 13.6911 	 83.1677
| 13> C 	 -43.7342 	 12.2464 	 81.4104
| 14> H 	 -42.7728 	 11.6832 	 81.6462
| 15> H 	 -44.0438 	 11.9799 	 80.3757
| 16> C 	 -44.8858 	 11.7472 	 82.3266
| 17> H 	 -44.8051 	 10.7089 	 82.5049
| 18> H 	 -44.7146 	 12.3492 	 83.178
| 19> C 	 -46.1307 	 12.0304 	 81.5078
| 20> H 	 -47.0344 	 11.837 	 82.1134
| 21> H 	 -46.2545 	 13.0974 	 81.1544
| 22> H 	 -46.286 	 11.332 	 80.6534
| 23> S 	 -41.4057 	 18.0082 	 83.2726
| 24> C 	 -39.7145 	 18.2423 	 83.6756
| 25> C 	 -38.9417 	 17.2022 	 83.3879
| 26> C 	 -39.6925 	 16.1036 	 82.9058
| 27> C 	 -41.0601 	 16.3327 	 82.8171
| 28> H 	 -37.8364 	 17.2019 	 83.4513
| 29> C 	 -38.9735 	 14.8668 	 82.4764
| 30> H 	 -39.5349 	 13.954 	 82.8195
| 31> H 	 -37.9559 	 14.8007 	 82.9095
| 32> C 	 -38.9153 	 14.5117 	 80.913
| 33> H 	 -39.9735 	 14.5132 	 80.5186
| 34> H 	 -38.5377 	 13.4963 	 80.7236
| 35> C 	 -37.9767 	 15.3804 	 80.1031
| 36> H 	 -37.8834 	 14.9599 	 79.0495
| 37> H 	 -37.0469 	 15.4502 	 80.6407
| 38> H 	 -38.3218 	 16.4068 	 80.0703
| 39> H 	 -44.5522 	 14.5915 	 79.7728
| 40> H 	 -39.3309 	 19.1237 	 84.0817
| 41> *
| 42>
| 43>                          ****END OF INPUT****

CARTESIAN COORDINATES (ANGSTROEM)
---------------------------------
  S    -43.141600   16.229600   80.912900
  C    -43.960100   14.733000   80.631400
  C    -43.401000   13.735900   81.447200
  C    -42.547800   14.273000   82.459000
  C    -42.194400   15.557200   82.216900
  H    -42.051900   13.691100   83.167700
  C    -43.734200   12.246400   81.410400
  H    -42.772800   11.683200   81.646200
  H    -44.043800   11.979900   80.375700
  C    -44.885800   11.747200   82.326600
  H    -44.805100   10.708900   82.504900
  H    -44.714600   12.349200   83.178000
  C    -46.130700   12.030400   81.507800
  H    -47.034400   11.837000   82.113400
  H    -46.254500   13.097400   81.154400
  H    -46.286000   11.332000   80.653400
  S    -41.405700   18.008200   83.272600
  C    -39.714500   18.242300   83.675600
  C    -38.941700   17.202200   83.387900
  C    -39.692500   16.103600   82.905800
  C    -41.060100   16.332700   82.817100
  H    -37.836400   17.201900   83.451300
  C    -38.973500   14.866800   82.476400
  H    -39.534900   13.954000   82.819500
  H    -37.955900   14.800700   82.909500
  C    -38.915300   14.511700   80.913000
  H    -39.973500   14.513200   80.518600
  H    -38.537700   13.496300   80.723600
  C    -37.976700   15.380400   80.103100
  H    -37.883400   14.959900   79.049500
  H    -37.046900   15.450200   80.640700
  H    -38.321800   16.406800   80.070300
  H    -44.552200   14.591500   79.772800
  H    -39.330900   19.123700   84.081700

 Total Charge           Charge          ....    0
 Multiplicity           Mult            ....    1
 Number of Electrons    NEL             ....  134
 Basis Dimension        Dim             ....  322

ORBITAL ENERGIES
----------------

  NO   OCC          E(Eh)            E(eV)
   0   2.0000     -88.966281     -2420.8956
   1   2.0000     -88.965496     -2420.8742
   2   2.0000     -10.331998      -281.1479
   3   2.0000     -10.331659      -281.1387
   4   2.0000     -10.313520      -280.6452
   5   2.0000     -10.310900      -280.5738
   6   2.0000     -10.305396      -280.4241
   7   2.0000     -10.304079      -280.3882
   8   2.0000     -10.297454      -280.2080
   9   2.0000     -10.296013      -280.1688
  10   2.0000     -10.291404      -280.0433
  11   2.0000     -10.289279      -279.9855
  12   2.0000     -10.288330      -279.9597
  13   2.0000     -10.282938      -279.8130
  14   2.0000     -10.282020      -279.7880
  15   2.0000     -10.273395      -279.5533
  16   2.0000      -8.081523      -219.9094
  17   2.0000      -8.080170      -219.8726
  18   2.0000      -6.039991      -164.3565
  19   2.0000      -6.038678      -164.3208
  20   2.0000      -6.035853      -164.2439
  21   2.0000      -6.034781      -164.2147
  22   2.0000      -6.032389      -164.1497
  23   2.0000      -6.030844      -164.1076
  24   2.0000      -1.010220       -27.4895
  25   2.0000      -0.990713       -26.9587
  26   2.0000      -0.913873       -24.8677
  27   2.0000      -0.901003       -24.5175
  28   2.0000      -0.870608       -23.6905
  29   2.0000      -0.853821       -23.2336
  30   2.0000      -0.847615       -23.0648
  31   2.0000      -0.818948       -22.2847
  32   2.0000      -0.775993       -21.1158
  33   2.0000      -0.767271       -20.8785
  34   2.0000      -0.709379       -19.3032
  35   2.0000      -0.699649       -19.0384
  36   2.0000      -0.684221       -18.6186
  37   2.0000      -0.663995       -18.0682
  38   2.0000      -0.650098       -17.6901
  39   2.0000      -0.625108       -17.0100
  40   2.0000      -0.594874       -16.1873
  41   2.0000      -0.576023       -15.6744
  42   2.0000      -0.552944       -15.0464
  43   2.0000      -0.549518       -14.9531
  44   2.0000      -0.541765       -14.7422
  45   2.0000      -0.537964       -14.6387
  46   2.0000      -0.514726       -14.0064
  47   2.0000      -0.509841       -13.8735
  48   2.0000      -0.498142       -13.5551
  49   2.0000      -0.494138       -13.4462
  50   2.0000      -0.487945       -13.2777
  51   2.0000      -0.483689       -13.1619
  52   2.0000      -0.475868       -12.9490
  53   2.0000      -0.471211       -12.8223
  54   2.0000      -0.460025       -12.5179
  55   2.0000      -0.450423       -12.2566
  56   2.0000      -0.439809       -11.9678
  57   2.0000      -0.431449       -11.7403
  58   2.0000      -0.427137       -11.6230
  59   2.0000      -0.424075       -11.5397
  60   2.0000      -0.421529       -11.4704
  61   2.0000      -0.411821       -11.2062
  62   2.0000      -0.409909       -11.1542
  63   2.0000      -0.351021        -9.5518
  64   2.0000      -0.334534        -9.1031
  65   2.0000      -0.329009        -8.9528
  66   2.0000      -0.294781        -8.0214
  67   0.0000       0.030163         0.8208
  68   0.0000       0.065309         1.7771
  69   0.0000       0.106322         2.8932
  70   0.0000       0.117221         3.1897
  71   0.0000       0.135801         3.6953

MULLIKEN ATOMIC CHARGES
-----------------------
   0 S :    0.113008
   1 C :   -0.094866
   2 C :   -0.119915
   3 C :    0.055428
   4 C :   -0.122509
   5 H :   -0.007285
   6 C :   -0.010738
   7 H :    0.033960
   8 H :    0.020201
   9 C :    0.029911
  10 H :    0.027759
  11 H :    0.024021
  12 C :   -0.112198
  13 H :    0.027124
  14 H :    0.047649
  15 H :    0.038855
  16 S :    0.093725
  17 C :   -0.051129
  18 C :   -0.033572
  19 C :   -0.002661
  20 C :   -0.164946
  21 H :    0.030441
  22 C :    0.014452
  23 H :    0.034882
  24 H :    0.026185
  25 C :   -0.098175
  26 H :    0.047302
  27 H :    0.027084
  28 C :   -0.044496
  29 H :    0.049096
  30 H :    0.014969
  31 H :    0.031986
  32 H :    0.044826
  33 H :    0.029627
Sum of atomic charges:    0.0000000

LOEWDIN ATOMIC CHARGES
----------------------
   0 S :    0.416212
   1 C :   -0.201429
   2 C :   -0.058565
   3 C :   -0.062200
   4 C :   -0.188024
   5 H :    0.022295
   6 C :   -0.036639
   7 H :    0.031959
   8 H :    0.026883
   9 C :   -0.028879
  10 H :    0.022916
  11 H :    0.022185
  12 C :   -0.076756
  13 H :    0.023060
  14 H :    0.032074
  15 H :    0.028747
  16 S :    0.392207
  17 C :   -0.162973
  18 C :   -0.074678
  19 C :   -0.058166
  20 C :   -0.190755
  21 H :    0.041270
  22 C :   -0.040082
  23 H :    0.038435
  24 H :    0.029027
  25 C :   -0.043036
  26 H :    0.030031
  27 H :    0.023337
  28 C :   -0.072916
  29 H :    0.035813
  30 H :    0.018900
  31 H :    0.022667
  32 H :    0.019121
  33 H :    0.017958

  Mayer bond orders larger than 0.100000
B(  0-S ,  1-C ) :   1.1423 B(  0-S ,  4-C ) :   1.1619 B(  1-C ,  2-C ) :   1.5920
B(  1-C , 32-H ) :   0.9700 B(  2-C ,  3-C ) :   1.2306 B(  2-C ,  6-C ) :   1.0448
B(  3-C ,  4-C ) :   1.5920 B(  3-C ,  5-H ) :   1.0022 B(  4-C , 20-C ) :   1.0071
B(  6-C ,  7-H ) :   0.9396 B(  6-C ,  8-H ) :   0.9431 B(  6-C ,  9-C ) :   1.0484
B(  9-C , 10-H ) :   0.9518 B(  9-C , 11-H ) :   0.9559 B(  9-C , 12-C ) :   1.0844
B( 12-C , 13-H ) :   0.9705 B( 12-C , 14-H ) :   0.9722 B( 12-C , 15-H ) :   0.9719
B( 16-S , 17-C ) :   1.1484 B( 16-S , 20-C ) :   1.1309 B( 17-C , 18-C ) :   1.6271
B( 17-C , 33-H ) :   0.9691 B( 18-C , 19-C ) :   1.2396 B( 18-C , 21-H ) :   0.9865
B( 19-C , 20-C ) :   1.6030 B( 19-C , 22-C ) :   1.0491 B( 22-C , 23-H ) :   0.9332
B( 22-C , 24-H ) :   0.9412 B( 22-C , 25-C ) :   1.0594 B( 25-C , 26-H ) :   0.9557
B( 25-C , 27-H ) :   0.9584 B( 25-C , 28-C ) :   1.0747 B( 28-C , 29-H ) :   0.9735
B( 28-C , 30-H ) :   0.9717 B( 28-C , 31-H ) :   0.9766

Dispersion correction           -0.015039949
FINAL SINGLE POINT ENERGY     -1339.873233172233

DIPOLE MOMENT
-------------
                                X             Y             Z
Electronic contribution:     -2.24330      22.63489       6.78532
Nuclear contribution   :      2.60357     -23.18603      -6.86957
                        -----------------------------------------
Total Dipole Moment    :      0.36027      -0.55114      -0.08426
                        -----------------------------------------
Magnitude (a.u.)       :      0.66381
Magnitude (Debye)      :      1.68727

Rotational constants in cm-1:     0.022257     0.008099     0.006980
Rotational constants in MHz :   667.235492   242.798395   209.240996

                             ****ORCA TERMINATED NORMALLY****
TOTAL RUN TIME: 0 days 0 hours 0 minutes 32 seconds 870 msec
