                         Program Version 4.2.1 -  RELEASE  -
|  1> ! wB97X-D3 SP def2-SVP
|  2> %pal
|  3> nprocs 16
|  4> end
|  5>
|  6> * xyz 0 1
|  7> S 	 33.9121 	 27.6165 	 54.5295
|  8> C 	 35.2112 	 28.6825 	 54.1745
|  9> C 	 35.9023 	 28.3016 	 53.0738
| 10> C 	 35.3579 	 27.2039 	 52.4209
| 11> C 	 34.2368 	 26.68 	 53.0613
| 12> H 	 35.6978 	 26.8703 	 51.4834
| 13> C 	 37.1356 	 29.0493 	 52.6122
| 14> H 	 37.5636 	 29.5616 	 53.4329
| 15> H 	 36.6538 	 29.8412 	 52.0021
| 16> C 	 38.2598 	 28.3269 	 51.884
| 17> H 	 38.0009 	 27.9415 	 50.8761
| 18> H 	 39.0962 	 29.0231 	 51.8535
| 19> C 	 38.7545 	 27.1067 	 52.7116
| 20> H 	 39.7805 	 26.7643 	 52.3967
| 21> H 	 38.8271 	 27.3436 	 53.7994
| 22> H 	 38.1427 	 26.2779 	 52.5455
| 23> S 	 33.2794 	 24.3578 	 54.0553
| 24> C 	 32.7538 	 23.1488 	 52.9847
| 25> C 	 32.7231 	 23.5393 	 51.6919
| 26> C 	 33.1981 	 24.8967 	 51.5212
| 27> C 	 33.5325 	 25.4559 	 52.719
| 28> H 	 32.4106 	 22.8469 	 50.9155
| 29> C 	 33.3042 	 25.6157 	 50.139
| 30> H 	 34.237 	 25.1891 	 49.7169
| 31> H 	 33.5326 	 26.6881 	 50.2721
| 32> C 	 31.9836 	 25.5031 	 49.2363
| 33> H 	 31.0678 	 25.8611 	 49.5919
| 34> H 	 31.8665 	 24.3634 	 49.0476
| 35> C 	 32.1456 	 26.3062 	 47.9813
| 36> H 	 31.2964 	 26.1731 	 47.3961
| 37> H 	 33.0279 	 26.0111 	 47.3834
| 38> H 	 32.3305 	 27.366 	 48.12
| 39> H 	 35.5227 	 29.4366 	 54.9054
| 40> H 	 32.3081 	 22.2502 	 53.3808
| 41> *
| 42>
| 43>                          ****END OF INPUT****

CARTESIAN COORDINATES (ANGSTROEM)
---------------------------------
  S     33.912100   27.616500   54.529500
  C     35.211200   28.682500   54.174500
  C     35.902300   28.301600   53.073800
  C     35.357900   27.203900   52.420900
  C     34.236800   26.680000   53.061300
  H     35.697800   26.870300   51.483400
  C     37.135600   29.049300   52.612200
  H     37.563600   29.561600   53.432900
  H     36.653800   29.841200   52.002100
  C     38.259800   28.326900   51.884000
  H     38.000900   27.941500   50.876100
  H     39.096200   29.023100   51.853500
  C     38.754500   27.106700   52.711600
  H     39.780500   26.764300   52.396700
  H     38.827100   27.343600   53.799400
  H     38.142700   26.277900   52.545500
  S     33.279400   24.357800   54.055300
  C     32.753800   23.148800   52.984700
  C     32.723100   23.539300   51.691900
  C     33.198100   24.896700   51.521200
  C     33.532500   25.455900   52.719000
  H     32.410600   22.846900   50.915500
  C     33.304200   25.615700   50.139000
  H     34.237000   25.189100   49.716900
  H     33.532600   26.688100   50.272100
  C     31.983600   25.503100   49.236300
  H     31.067800   25.861100   49.591900
  H     31.866500   24.363400   49.047600
  C     32.145600   26.306200   47.981300
  H     31.296400   26.173100   47.396100
  H     33.027900   26.011100   47.383400
  H     32.330500   27.366000   48.120000
  H     35.522700   29.436600   54.905400
  H     32.308100   22.250200   53.380800

 Total Charge           Charge          ....    0
 Multiplicity           Mult            ....    1
 Number of Electrons    NEL             ....  134
 Basis Dimension        Dim             ....  322

ORBITAL ENERGIES
----------------

  NO   OCC          E(Eh)            E(eV)
   0   2.0000     -88.964320     -2420.8422
   1   2.0000     -88.958976     -2420.6968
   2   2.0000     -10.328986      -281.0660
   3   2.0000     -10.319918      -280.8192
   4   2.0000     -10.308392      -280.5056
   5   2.0000     -10.305110      -280.4163
   6   2.0000     -10.303605      -280.3753
   7   2.0000     -10.303559      -280.3741
   8   2.0000     -10.294298      -280.1221
   9   2.0000     -10.291845      -280.0553
  10   2.0000     -10.291638      -280.0497
  11   2.0000     -10.291278      -280.0399
  12   2.0000     -10.288324      -279.9595
  13   2.0000     -10.286781      -279.9175
  14   2.0000     -10.276227      -279.6304
  15   2.0000     -10.271474      -279.5010
  16   2.0000      -8.079306      -219.8491
  17   2.0000      -8.075441      -219.7439
  18   2.0000      -6.037683      -164.2937
  19   2.0000      -6.033856      -164.1896
  20   2.0000      -6.033815      -164.1884
  21   2.0000      -6.030181      -164.0896
  22   2.0000      -6.029800      -164.0792
  23   2.0000      -6.026094      -163.9783
  24   2.0000      -1.011691       -27.5295
  25   2.0000      -0.990983       -26.9660
  26   2.0000      -0.912384       -24.8272
  27   2.0000      -0.903862       -24.5953
  28   2.0000      -0.872068       -23.7302
  29   2.0000      -0.856213       -23.2987
  30   2.0000      -0.845505       -23.0074
  31   2.0000      -0.816786       -22.2259
  32   2.0000      -0.782895       -21.3037
  33   2.0000      -0.770710       -20.9721
  34   2.0000      -0.709049       -19.2942
  35   2.0000      -0.701021       -19.0757
  36   2.0000      -0.690025       -18.7765
  37   2.0000      -0.659041       -17.9334
  38   2.0000      -0.638635       -17.3781
  39   2.0000      -0.627683       -17.0801
  40   2.0000      -0.597825       -16.2677
  41   2.0000      -0.568103       -15.4589
  42   2.0000      -0.559097       -15.2138
  43   2.0000      -0.550235       -14.9727
  44   2.0000      -0.540668       -14.7123
  45   2.0000      -0.538196       -14.6450
  46   2.0000      -0.515084       -14.0161
  47   2.0000      -0.509974       -13.8771
  48   2.0000      -0.503744       -13.7076
  49   2.0000      -0.498568       -13.5667
  50   2.0000      -0.489972       -13.3328
  51   2.0000      -0.475362       -12.9353
  52   2.0000      -0.473644       -12.8885
  53   2.0000      -0.468894       -12.7592
  54   2.0000      -0.458333       -12.4719
  55   2.0000      -0.455237       -12.3876
  56   2.0000      -0.443763       -12.0754
  57   2.0000      -0.438862       -11.9420
  58   2.0000      -0.432869       -11.7790
  59   2.0000      -0.430226       -11.7071
  60   2.0000      -0.423913       -11.5353
  61   2.0000      -0.414295       -11.2735
  62   2.0000      -0.403152       -10.9703
  63   2.0000      -0.352401        -9.5893
  64   2.0000      -0.331213        -9.0128
  65   2.0000      -0.329336        -8.9617
  66   2.0000      -0.287555        -7.8248
  67   0.0000       0.032172         0.8754
  68   0.0000       0.080745         2.1972
  69   0.0000       0.116558         3.1717
  70   0.0000       0.129475         3.5232
  71   0.0000       0.139299         3.7905

MULLIKEN ATOMIC CHARGES
-----------------------
   0 S :    0.107934
   1 C :   -0.145379
   2 C :   -0.084770
   3 C :    0.045456
   4 C :   -0.146553
   5 H :   -0.018531
   6 C :    0.071292
   7 H :    0.008312
   8 H :    0.047069
   9 C :   -0.062322
  10 H :    0.036629
  11 H :    0.035327
  12 C :   -0.067625
  13 H :    0.032122
  14 H :    0.038686
  15 H :    0.027155
  16 S :    0.099220
  17 C :   -0.084457
  18 C :   -0.041180
  19 C :   -0.043949
  20 C :   -0.137816
  21 H :    0.021004
  22 C :    0.029486
  23 H :    0.048091
  24 H :    0.032294
  25 C :   -0.071024
  26 H :    0.030255
  27 H :    0.040811
  28 C :   -0.025553
  29 H :    0.023035
  30 H :    0.018178
  31 H :    0.029737
  32 H :    0.052616
  33 H :    0.054449
Sum of atomic charges:   -0.0000000

LOEWDIN ATOMIC CHARGES
----------------------
   0 S :    0.408134
   1 C :   -0.211961
   2 C :   -0.068892
   3 C :   -0.059406
   4 C :   -0.181984
   5 H :    0.020823
   6 C :   -0.033275
   7 H :    0.024185
   8 H :    0.041560
   9 C :   -0.041348
  10 H :    0.025340
  11 H :    0.029111
  12 C :   -0.065729
  13 H :    0.028894
  14 H :    0.029562
  15 H :    0.014913
  16 S :    0.416278
  17 C :   -0.193271
  18 C :   -0.075895
  19 C :   -0.056227
  20 C :   -0.199431
  21 H :    0.032511
  22 C :   -0.031395
  23 H :    0.037077
  24 H :    0.028949
  25 C :   -0.034232
  26 H :    0.021656
  27 H :    0.031789
  28 C :   -0.064474
  29 H :    0.018820
  30 H :    0.024701
  31 H :    0.026120
  32 H :    0.030461
  33 H :    0.026635

  Mayer bond orders larger than 0.100000
B(  0-S ,  1-C ) :   1.1406 B(  0-S ,  4-C ) :   1.1670 B(  1-C ,  2-C ) :   1.6028
B(  1-C , 32-H ) :   0.9653 B(  2-C ,  3-C ) :   1.2876 B(  2-C ,  6-C ) :   0.9996
B(  3-C ,  4-C ) :   1.5263 B(  3-C ,  5-H ) :   0.9990 B(  4-C , 20-C ) :   1.0404
B(  6-C ,  7-H ) :   0.9403 B(  6-C ,  8-H ) :   0.9337 B(  6-C ,  9-C ) :   1.0839
B(  9-C , 10-H ) :   0.9510 B(  9-C , 11-H ) :   0.9557 B(  9-C , 12-C ) :   1.0742
B( 12-C , 13-H ) :   0.9756 B( 12-C , 14-H ) :   0.9762 B( 12-C , 15-H ) :   0.9750
B( 16-S , 17-C ) :   1.1641 B( 16-S , 20-C ) :   1.1322 B( 17-C , 18-C ) :   1.6270
B( 17-C , 33-H ) :   0.9653 B( 18-C , 19-C ) :   1.2097 B( 18-C , 21-H ) :   0.9940
B( 19-C , 20-C ) :   1.6450 B( 19-C , 22-C ) :   1.0220 B( 22-C , 23-H ) :   0.9369
B( 22-C , 24-H ) :   0.9435 B( 22-C , 25-C ) :   1.0451 B( 25-C , 26-H ) :   0.9622
B( 25-C , 27-H ) :   0.9528 B( 25-C , 28-C ) :   1.0916 B( 28-C , 29-H ) :   0.9725
B( 28-C , 30-H ) :   0.9708 B( 28-C , 31-H ) :   0.9710

Dispersion correction           -0.014032809
FINAL SINGLE POINT ENERGY     -1339.879501198253

DIPOLE MOMENT
-------------
                                X             Y             Z
Electronic contribution:    -11.49596      -5.56497      22.68027
Nuclear contribution   :     11.75898       5.64002     -23.26109
                        -----------------------------------------
Total Dipole Moment    :      0.26302       0.07505      -0.58082
                        -----------------------------------------
Magnitude (a.u.)       :      0.64200
Magnitude (Debye)      :      1.63184

Rotational constants in cm-1:     0.016388     0.009020     0.007217
Rotational constants in MHz :   491.287898   270.419251   216.371434

                             ****ORCA TERMINATED NORMALLY****
TOTAL RUN TIME: 0 days 0 hours 0 minutes 35 seconds 154 msec
