                         Program Version 4.2.1 -  RELEASE  -
|  1> ! wB97X-D3 SP def2-SVP
|  2> %pal
|  3> nprocs 16
|  4> end
|  5>
|  6> * xyz 0 1
|  7> S 	 54.4018 	 27.199 	 41.7405
|  8> C 	 55.2098 	 27.557 	 43.2503
|  9> C 	 56.0296 	 26.5794 	 43.6499
| 10> C 	 55.8013 	 25.3515 	 42.8868
| 11> C 	 54.8807 	 25.5003 	 41.8921
| 12> H 	 56.1349 	 24.3686 	 43.1461
| 13> C 	 56.8753 	 26.5681 	 44.8723
| 14> H 	 57.8576 	 26.9749 	 44.8035
| 15> H 	 56.8645 	 25.5055 	 45.1464
| 16> C 	 56.2892 	 27.1948 	 46.1796
| 17> H 	 56.9084 	 27.1745 	 47.1003
| 18> H 	 56.0924 	 28.2138 	 45.9317
| 19> C 	 54.9657 	 26.5512 	 46.5711
| 20> H 	 54.1984 	 26.5344 	 45.7472
| 21> H 	 55.1891 	 25.5178 	 46.914
| 22> H 	 54.5265 	 27.1253 	 47.3678
| 23> S 	 52.5839 	 24.2468 	 41.0812
| 24> C 	 52.6807 	 23.0056 	 39.7834
| 25> C 	 53.9948 	 22.7724 	 39.4558
| 26> C 	 54.9278 	 23.4525 	 40.2573
| 27> C 	 54.3243 	 24.4051 	 41.0971
| 28> H 	 54.1379 	 21.9116 	 38.8516
| 29> C 	 56.3651 	 23.3914 	 40.0071
| 30> H 	 56.6116 	 22.3419 	 40.1155
| 31> H 	 56.9724 	 23.812 	 40.7741
| 32> C 	 56.8379 	 23.9035 	 38.6937
| 33> H 	 56.7586 	 24.9816 	 38.8352
| 34> H 	 56.094 	 23.669 	 37.9467
| 35> C 	 58.2551 	 23.4239 	 38.3184
| 36> H 	 58.4012 	 23.6835 	 37.2809
| 37> H 	 58.5521 	 22.3579 	 38.441
| 38> H 	 58.9036 	 23.9684 	 39.0318
| 39> H 	 55.0923 	 28.4484 	 43.7696
| 40> H 	 51.873 	 22.3231 	 39.4609
| 41> *
| 42>
| 43>                          ****END OF INPUT****

CARTESIAN COORDINATES (ANGSTROEM)
---------------------------------
  S     54.401800   27.199000   41.740500
  C     55.209800   27.557000   43.250300
  C     56.029600   26.579400   43.649900
  C     55.801300   25.351500   42.886800
  C     54.880700   25.500300   41.892100
  H     56.134900   24.368600   43.146100
  C     56.875300   26.568100   44.872300
  H     57.857600   26.974900   44.803500
  H     56.864500   25.505500   45.146400
  C     56.289200   27.194800   46.179600
  H     56.908400   27.174500   47.100300
  H     56.092400   28.213800   45.931700
  C     54.965700   26.551200   46.571100
  H     54.198400   26.534400   45.747200
  H     55.189100   25.517800   46.914000
  H     54.526500   27.125300   47.367800
  S     52.583900   24.246800   41.081200
  C     52.680700   23.005600   39.783400
  C     53.994800   22.772400   39.455800
  C     54.927800   23.452500   40.257300
  C     54.324300   24.405100   41.097100
  H     54.137900   21.911600   38.851600
  C     56.365100   23.391400   40.007100
  H     56.611600   22.341900   40.115500
  H     56.972400   23.812000   40.774100
  C     56.837900   23.903500   38.693700
  H     56.758600   24.981600   38.835200
  H     56.094000   23.669000   37.946700
  C     58.255100   23.423900   38.318400
  H     58.401200   23.683500   37.280900
  H     58.552100   22.357900   38.441000
  H     58.903600   23.968400   39.031800
  H     55.092300   28.448400   43.769600
  H     51.873000   22.323100   39.460900

 Total Charge           Charge          ....    0
 Multiplicity           Mult            ....    1
 Number of Electrons    NEL             ....  134
 Basis Dimension        Dim             ....  322

ORBITAL ENERGIES
----------------

  NO   OCC          E(Eh)            E(eV)
   0   2.0000     -88.965128     -2420.8642
   1   2.0000     -88.964372     -2420.8436
   2   2.0000     -10.329230      -281.0726
   3   2.0000     -10.327999      -281.0391
   4   2.0000     -10.322348      -280.8854
   5   2.0000     -10.306086      -280.4429
   6   2.0000     -10.301371      -280.3145
   7   2.0000     -10.299044      -280.2512
   8   2.0000     -10.293147      -280.0908
   9   2.0000     -10.290519      -280.0193
  10   2.0000     -10.289091      -279.9804
  11   2.0000     -10.286348      -279.9058
  12   2.0000     -10.281786      -279.7816
  13   2.0000     -10.279336      -279.7150
  14   2.0000     -10.276252      -279.6310
  15   2.0000     -10.275306      -279.6053
  16   2.0000      -8.079155      -219.8450
  17   2.0000      -8.079085      -219.8431
  18   2.0000      -6.037777      -164.2963
  19   2.0000      -6.037675      -164.2935
  20   2.0000      -6.033797      -164.1880
  21   2.0000      -6.033674      -164.1846
  22   2.0000      -6.030009      -164.0849
  23   2.0000      -6.029460      -164.0699
  24   2.0000      -1.007172       -27.4065
  25   2.0000      -0.986157       -26.8347
  26   2.0000      -0.918413       -24.9913
  27   2.0000      -0.913895       -24.8683
  28   2.0000      -0.872117       -23.7315
  29   2.0000      -0.850745       -23.1500
  30   2.0000      -0.845950       -23.0195
  31   2.0000      -0.819010       -22.2864
  32   2.0000      -0.781592       -21.2682
  33   2.0000      -0.772199       -21.0126
  34   2.0000      -0.710122       -19.3234
  35   2.0000      -0.702522       -19.1166
  36   2.0000      -0.694084       -18.8870
  37   2.0000      -0.661399       -17.9976
  38   2.0000      -0.645172       -17.5560
  39   2.0000      -0.615041       -16.7361
  40   2.0000      -0.599485       -16.3128
  41   2.0000      -0.578794       -15.7498
  42   2.0000      -0.563401       -15.3309
  43   2.0000      -0.558132       -15.1875
  44   2.0000      -0.545360       -14.8400
  45   2.0000      -0.527903       -14.3650
  46   2.0000      -0.519788       -14.1442
  47   2.0000      -0.516163       -14.0455
  48   2.0000      -0.509493       -13.8640
  49   2.0000      -0.497023       -13.5247
  50   2.0000      -0.487994       -13.2790
  51   2.0000      -0.477585       -12.9957
  52   2.0000      -0.471044       -12.8178
  53   2.0000      -0.464404       -12.6371
  54   2.0000      -0.460929       -12.5425
  55   2.0000      -0.443537       -12.0692
  56   2.0000      -0.441568       -12.0157
  57   2.0000      -0.437164       -11.8958
  58   2.0000      -0.433178       -11.7874
  59   2.0000      -0.428077       -11.6486
  60   2.0000      -0.415314       -11.3013
  61   2.0000      -0.412508       -11.2249
  62   2.0000      -0.405491       -11.0340
  63   2.0000      -0.347472        -9.4552
  64   2.0000      -0.333062        -9.0631
  65   2.0000      -0.327010        -8.8984
  66   2.0000      -0.295927        -8.0526
  67   0.0000       0.028078         0.7640
  68   0.0000       0.069200         1.8830
  69   0.0000       0.109666         2.9842
  70   0.0000       0.114077         3.1042
  71   0.0000       0.132794         3.6135

MULLIKEN ATOMIC CHARGES
-----------------------
   0 S :    0.111753
   1 C :   -0.105435
   2 C :   -0.070128
   3 C :    0.033703
   4 C :   -0.143367
   5 H :    0.013542
   6 C :    0.097957
   7 H :    0.043962
   8 H :    0.014491
   9 C :   -0.104867
  10 H :    0.042035
  11 H :    0.015907
  12 C :   -0.079946
  13 H :    0.050474
  14 H :    0.033648
  15 H :    0.030334
  16 S :    0.102763
  17 C :   -0.111443
  18 C :   -0.031213
  19 C :   -0.014676
  20 C :   -0.181017
  21 H :    0.016413
  22 C :    0.090536
  23 H :    0.006713
  24 H :   -0.005616
  25 C :   -0.069313
  26 H :    0.032451
  27 H :    0.020102
  28 C :   -0.044756
  29 H :    0.039843
  30 H :    0.038664
  31 H :    0.034371
  32 H :    0.020511
  33 H :    0.071604
Sum of atomic charges:   -0.0000000

LOEWDIN ATOMIC CHARGES
----------------------
   0 S :    0.385380
   1 C :   -0.175908
   2 C :   -0.063681
   3 C :   -0.054909
   4 C :   -0.185857
   5 H :    0.028027
   6 C :   -0.030421
   7 H :    0.031197
   8 H :    0.031259
   9 C :   -0.042587
  10 H :    0.032023
  11 H :    0.011738
  12 C :   -0.070472
  13 H :    0.030596
  14 H :    0.025240
  15 H :    0.022399
  16 S :    0.390743
  17 C :   -0.172678
  18 C :   -0.070381
  19 C :   -0.052536
  20 C :   -0.197122
  21 H :    0.030275
  22 C :   -0.039759
  23 H :    0.028595
  24 H :    0.022682
  25 C :   -0.037799
  26 H :    0.031580
  27 H :    0.018342
  28 C :   -0.066220
  29 H :    0.027239
  30 H :    0.028921
  31 H :    0.030654
  32 H :    0.014779
  33 H :    0.038661

  Mayer bond orders larger than 0.100000
B(  0-S ,  1-C ) :   1.1131 B(  0-S ,  4-C ) :   1.1231 B(  1-C ,  2-C ) :   1.6619
B(  1-C , 32-H ) :   0.9749 B(  2-C ,  3-C ) :   1.1853 B(  2-C ,  6-C ) :   1.0117
B(  3-C ,  4-C ) :   1.6353 B(  3-C ,  5-H ) :   0.9890 B(  4-C , 20-C ) :   1.0432
B(  6-C ,  7-H ) :   0.9325 B(  6-C ,  8-H ) :   0.9483 B(  6-C ,  9-C ) :   1.0712
B(  9-C , 10-H ) :   0.9583 B(  9-C , 11-H ) :   0.9522 B(  9-C , 12-C ) :   1.0822
B( 12-C , 13-H ) :   0.9733 B( 12-C , 14-H ) :   0.9750 B( 12-C , 15-H ) :   0.9739
B( 16-S , 17-C ) :   1.1420 B( 16-S , 20-C ) :   1.1491 B( 17-C , 18-C ) :   1.6224
B( 17-C , 20-C ) :   0.1016 B( 17-C , 33-H ) :   0.9609 B( 18-C , 19-C ) :   1.2482
B( 18-C , 21-H ) :   0.9824 B( 19-C , 20-C ) :   1.5576 B( 19-C , 22-C ) :   1.0734
B( 22-C , 23-H ) :   0.9127 B( 22-C , 24-H ) :   0.9222 B( 22-C , 25-C ) :   1.0612
B( 25-C , 26-H ) :   0.9515 B( 25-C , 27-H ) :   0.9591 B( 25-C , 28-C ) :   1.0649
B( 28-C , 29-H ) :   0.9745 B( 28-C , 30-H ) :   0.9790 B( 28-C , 31-H ) :   0.9748

Dispersion correction           -0.014300141
FINAL SINGLE POINT ENERGY     -1339.862932656043

DIPOLE MOMENT
-------------
                                X             Y             Z
Electronic contribution:    -18.56423       3.49137      -7.29066
Nuclear contribution   :     19.00425      -3.82670       7.50871
                        -----------------------------------------
Total Dipole Moment    :      0.44002      -0.33533       0.21806
                        -----------------------------------------
Magnitude (a.u.)       :      0.59465
Magnitude (Debye)      :      1.51147

Rotational constants in cm-1:     0.020157     0.008089     0.006734
Rotational constants in MHz :   604.284747   242.500886   201.894409

                             ****ORCA TERMINATED NORMALLY****
TOTAL RUN TIME: 0 days 0 hours 0 minutes 30 seconds 630 msec
