                         Program Version 4.2.1 -  RELEASE  -
|  1> ! wB97X-D3 SP def2-SVP
|  2> %pal
|  3> nprocs 16
|  4> end
|  5>
|  6> * xyz 0 1
|  7> S 	 5.21403 	 -26.2232 	 80.4043
|  8> C 	 4.65409 	 -27.6883 	 81.1965
|  9> C 	 5.59963 	 -28.685 	 81.1986
| 10> C 	 6.8611 	 -28.2766 	 80.638
| 11> C 	 6.83535 	 -26.9923 	 80.1724
| 12> H 	 7.81636 	 -28.8559 	 80.6615
| 13> C 	 5.40284 	 -30.0287 	 81.7743
| 14> H 	 5.54259 	 -30.8732 	 81.0608
| 15> H 	 4.35323 	 -30.1223 	 82.0904
| 16> C 	 6.2837 	 -30.2939 	 83.0624
| 17> H 	 6.08312 	 -31.3407 	 83.3088
| 18> H 	 7.37293 	 -30.2643 	 82.7884
| 19> C 	 5.93975 	 -29.5092 	 84.3863
| 20> H 	 6.23734 	 -30.0626 	 85.278
| 21> H 	 6.60238 	 -28.6244 	 84.4075
| 22> H 	 4.85256 	 -29.2342 	 84.4629
| 23> S 	 8.31651 	 -24.6903 	 80.0452
| 24> C 	 9.52776 	 -24.5661 	 78.87
| 25> C 	 9.76355 	 -25.7063 	 78.235
| 26> C 	 8.90378 	 -26.7916 	 78.6796
| 27> C 	 7.89754 	 -26.3072 	 79.557
| 28> H 	 10.582 	 -25.6411 	 77.6162
| 29> C 	 9.05003 	 -28.125 	 78.0127
| 30> H 	 9.29752 	 -27.963 	 76.9541
| 31> H 	 8.05424 	 -28.5755 	 78.1218
| 32> C 	 10.0948 	 -29.0978 	 78.6698
| 33> H 	 9.64117 	 -29.5501 	 79.5329
| 34> H 	 10.9669 	 -28.508 	 78.8873
| 35> C 	 10.4787 	 -30.3173 	 77.825
| 36> H 	 11.5332 	 -30.5906 	 78.0145
| 37> H 	 10.2854 	 -30.0421 	 76.7823
| 38> H 	 9.98324 	 -31.2857 	 78.1298
| 39> H 	 3.67218 	 -27.6771 	 81.552
| 40> H 	 10.112 	 -23.6267 	 78.7439
| 41> *
| 42>
| 43>                          ****END OF INPUT****

CARTESIAN COORDINATES (ANGSTROEM)
---------------------------------
  S      5.214030  -26.223200   80.404300
  C      4.654090  -27.688300   81.196500
  C      5.599630  -28.685000   81.198600
  C      6.861100  -28.276600   80.638000
  C      6.835350  -26.992300   80.172400
  H      7.816360  -28.855900   80.661500
  C      5.402840  -30.028700   81.774300
  H      5.542590  -30.873200   81.060800
  H      4.353230  -30.122300   82.090400
  C      6.283700  -30.293900   83.062400
  H      6.083120  -31.340700   83.308800
  H      7.372930  -30.264300   82.788400
  C      5.939750  -29.509200   84.386300
  H      6.237340  -30.062600   85.278000
  H      6.602380  -28.624400   84.407500
  H      4.852560  -29.234200   84.462900
  S      8.316510  -24.690300   80.045200
  C      9.527760  -24.566100   78.870000
  C      9.763550  -25.706300   78.235000
  C      8.903780  -26.791600   78.679600
  C      7.897540  -26.307200   79.557000
  H     10.582000  -25.641100   77.616200
  C      9.050030  -28.125000   78.012700
  H      9.297520  -27.963000   76.954100
  H      8.054240  -28.575500   78.121800
  C     10.094800  -29.097800   78.669800
  H      9.641170  -29.550100   79.532900
  H     10.966900  -28.508000   78.887300
  C     10.478700  -30.317300   77.825000
  H     11.533200  -30.590600   78.014500
  H     10.285400  -30.042100   76.782300
  H      9.983240  -31.285700   78.129800
  H      3.672180  -27.677100   81.552000
  H     10.112000  -23.626700   78.743900

 Total Charge           Charge          ....    0
 Multiplicity           Mult            ....    1
 Number of Electrons    NEL             ....  134
 Basis Dimension        Dim             ....  322

ORBITAL ENERGIES
----------------

  NO   OCC          E(Eh)            E(eV)
   0   2.0000     -88.962731     -2420.7990
   1   2.0000     -88.959522     -2420.7117
   2   2.0000     -10.328145      -281.0431
   3   2.0000     -10.323568      -280.9186
   4   2.0000     -10.311703      -280.5957
   5   2.0000     -10.308203      -280.5005
   6   2.0000     -10.307660      -280.4857
   7   2.0000     -10.300375      -280.2874
   8   2.0000     -10.297506      -280.2094
   9   2.0000     -10.295965      -280.1675
  10   2.0000     -10.295270      -280.1485
  11   2.0000     -10.292091      -280.0620
  12   2.0000     -10.286027      -279.8970
  13   2.0000     -10.284912      -279.8667
  14   2.0000     -10.284041      -279.8430
  15   2.0000     -10.281270      -279.7676
  16   2.0000      -8.076980      -219.7858
  17   2.0000      -8.076071      -219.7611
  18   2.0000      -6.035554      -164.2358
  19   2.0000      -6.034435      -164.2053
  20   2.0000      -6.031719      -164.1314
  21   2.0000      -6.030327      -164.0935
  22   2.0000      -6.027542      -164.0178
  23   2.0000      -6.026876      -163.9996
  24   2.0000      -1.010616       -27.5003
  25   2.0000      -0.984944       -26.8017
  26   2.0000      -0.908482       -24.7210
  27   2.0000      -0.905902       -24.6509
  28   2.0000      -0.875279       -23.8176
  29   2.0000      -0.853081       -23.2135
  30   2.0000      -0.841712       -22.9041
  31   2.0000      -0.819503       -22.2998
  32   2.0000      -0.782330       -21.2883
  33   2.0000      -0.767701       -20.8902
  34   2.0000      -0.712150       -19.3786
  35   2.0000      -0.694785       -18.9061
  36   2.0000      -0.691354       -18.8127
  37   2.0000      -0.661156       -17.9910
  38   2.0000      -0.639794       -17.4097
  39   2.0000      -0.624589       -16.9959
  40   2.0000      -0.595046       -16.1920
  41   2.0000      -0.575600       -15.6629
  42   2.0000      -0.563885       -15.3441
  43   2.0000      -0.545919       -14.8552
  44   2.0000      -0.533535       -14.5182
  45   2.0000      -0.524960       -14.2849
  46   2.0000      -0.521765       -14.1980
  47   2.0000      -0.514809       -14.0087
  48   2.0000      -0.508230       -13.8296
  49   2.0000      -0.500523       -13.6199
  50   2.0000      -0.490172       -13.3383
  51   2.0000      -0.478165       -13.0115
  52   2.0000      -0.471472       -12.8294
  53   2.0000      -0.464439       -12.6380
  54   2.0000      -0.457024       -12.4363
  55   2.0000      -0.448459       -12.2032
  56   2.0000      -0.439447       -11.9579
  57   2.0000      -0.436453       -11.8765
  58   2.0000      -0.427655       -11.6371
  59   2.0000      -0.425801       -11.5866
  60   2.0000      -0.421263       -11.4632
  61   2.0000      -0.416625       -11.3369
  62   2.0000      -0.409030       -11.1303
  63   2.0000      -0.356478        -9.7002
  64   2.0000      -0.328747        -8.9457
  65   2.0000      -0.326697        -8.8899
  66   2.0000      -0.288092        -7.8394
  67   0.0000       0.025596         0.6965
  68   0.0000       0.079999         2.1769
  69   0.0000       0.108938         2.9644
  70   0.0000       0.119345         3.2475
  71   0.0000       0.130611         3.5541

MULLIKEN ATOMIC CHARGES
-----------------------
   0 S :    0.092078
   1 C :   -0.113515
   2 C :   -0.033872
   3 C :   -0.007176
   4 C :   -0.141346
   5 H :    0.026654
   6 C :    0.050404
   7 H :    0.043917
   8 H :    0.013014
   9 C :   -0.118135
  10 H :    0.027933
  11 H :    0.039641
  12 C :   -0.060627
  13 H :    0.036710
  14 H :    0.044082
  15 H :    0.043955
  16 S :    0.106770
  17 C :   -0.099965
  18 C :   -0.005573
  19 C :   -0.024929
  20 C :   -0.139841
  21 H :   -0.017135
  22 C :    0.030241
  23 H :    0.033629
  24 H :    0.031892
  25 C :   -0.059048
  26 H :    0.026921
  27 H :    0.031882
  28 C :   -0.066810
  29 H :    0.035153
  30 H :    0.035580
  31 H :    0.040023
  32 H :    0.030137
  33 H :    0.067358
Sum of atomic charges:   -0.0000000

LOEWDIN ATOMIC CHARGES
----------------------
   0 S :    0.369059
   1 C :   -0.176267
   2 C :   -0.066034
   3 C :   -0.061613
   4 C :   -0.171311
   5 H :    0.040107
   6 C :   -0.036371
   7 H :    0.037706
   8 H :    0.028939
   9 C :   -0.045302
  10 H :    0.021490
  11 H :    0.025071
  12 C :   -0.072256
  13 H :    0.027138
  14 H :    0.030892
  15 H :    0.031462
  16 S :    0.423327
  17 C :   -0.197540
  18 C :   -0.074421
  19 C :   -0.044455
  20 C :   -0.207961
  21 H :    0.020997
  22 C :   -0.036631
  23 H :    0.031384
  24 H :    0.032077
  25 C :   -0.037130
  26 H :    0.020465
  27 H :    0.021850
  28 C :   -0.072975
  29 H :    0.030097
  30 H :    0.024573
  31 H :    0.031155
  32 H :    0.014827
  33 H :    0.037652

  Mayer bond orders larger than 0.100000
B(  0-S ,  1-C ) :   1.1216 B(  0-S ,  4-C ) :   1.1214 B(  1-C ,  2-C ) :   1.6213
B(  1-C , 32-H ) :   0.9792 B(  2-C ,  3-C ) :   1.1940 B(  2-C ,  6-C ) :   1.0469
B(  3-C ,  4-C ) :   1.6081 B(  3-C ,  5-H ) :   0.9834 B(  4-C , 20-C ) :   1.0982
B(  6-C ,  7-H ) :   0.9380 B(  6-C ,  8-H ) :   0.9384 B(  6-C ,  9-C ) :   1.0666
B(  9-C , 10-H ) :   0.9614 B(  9-C , 11-H ) :   0.9606 B(  9-C , 12-C ) :   1.0548
B( 12-C , 13-H ) :   0.9783 B( 12-C , 14-H ) :   0.9779 B( 12-C , 15-H ) :   0.9764
B( 16-S , 17-C ) :   1.1548 B( 16-S , 20-C ) :   1.1447 B( 17-C , 18-C ) :   1.6380
B( 17-C , 33-H ) :   0.9581 B( 18-C , 19-C ) :   1.2018 B( 18-C , 21-H ) :   1.0070
B( 19-C , 20-C ) :   1.5551 B( 19-C , 22-C ) :   1.0604 B( 22-C , 23-H ) :   0.9379
B( 22-C , 24-H ) :   0.9304 B( 22-C , 25-C ) :   1.0659 B( 25-C , 26-H ) :   0.9521
B( 25-C , 27-H ) :   0.9623 B( 25-C , 28-C ) :   1.0710 B( 28-C , 29-H ) :   0.9748
B( 28-C , 30-H ) :   0.9763 B( 28-C , 31-H ) :   0.9799

Dispersion correction           -0.014221029
FINAL SINGLE POINT ENERGY     -1339.873284859151

DIPOLE MOMENT
-------------
                                X             Y             Z
Electronic contribution:     -7.95025      26.61058      -4.44218
Nuclear contribution   :      8.31136     -27.19233       4.48567
                        -----------------------------------------
Total Dipole Moment    :      0.36111      -0.58175       0.04349
                        -----------------------------------------
Magnitude (a.u.)       :      0.68609
Magnitude (Debye)      :      1.74391

Rotational constants in cm-1:     0.016523     0.009504     0.006956
Rotational constants in MHz :   495.340354   284.933869   208.543804

                             ****ORCA TERMINATED NORMALLY****
TOTAL RUN TIME: 0 days 0 hours 0 minutes 33 seconds 407 msec
