                         Program Version 4.2.1 -  RELEASE  -
|  1> ! wB97X-D3 SP def2-SVP
|  2> %pal
|  3> nprocs 16
|  4> end
|  5>
|  6> * xyz 0 1
|  7> S 	 -17.8944 	 42.9073 	 56.351
|  8> C 	 -16.8167 	 44.1361 	 55.68
|  9> C 	 -17.6317 	 45.1727 	 55.3153
| 10> C 	 -19.0047 	 45.1159 	 55.7996
| 11> C 	 -19.3561 	 43.9452 	 56.3598
| 12> H 	 -19.7562 	 45.903 	 55.8284
| 13> C 	 -17.1625 	 46.4445 	 54.6857
| 14> H 	 -17.8715 	 46.6541 	 53.9625
| 15> H 	 -16.1362 	 46.2223 	 54.2953
| 16> C 	 -17.2087 	 47.6987 	 55.6588
| 17> H 	 -16.8362 	 48.6235 	 55.2267
| 18> H 	 -18.2882 	 47.9691 	 55.9303
| 19> C 	 -16.378 	 47.4786 	 56.8978
| 20> H 	 -16.481 	 48.2239 	 57.6357
| 21> H 	 -16.5681 	 46.5018 	 57.3485
| 22> H 	 -15.3378 	 47.4786 	 56.6383
| 23> S 	 -20.684 	 43.1982 	 58.6297
| 24> C 	 -22.3447 	 42.6767 	 58.5681
| 25> C 	 -22.8135 	 42.8693 	 57.2981
| 26> C 	 -21.9144 	 43.4436 	 56.3948
| 27> C 	 -20.6642 	 43.5989 	 56.9292
| 28> H 	 -23.8762 	 42.7638 	 57.0559
| 29> C 	 -22.345 	 43.8599 	 55.0131
| 30> H 	 -21.4876 	 44.038 	 54.3482
| 31> H 	 -22.7872 	 44.8832 	 55.0944
| 32> C 	 -23.2724 	 42.9241 	 54.2205
| 33> H 	 -24.2376 	 42.7333 	 54.7786
| 34> H 	 -22.8059 	 41.9747 	 54.1027
| 35> C 	 -23.7038 	 43.4558 	 52.9073
| 36> H 	 -24.5047 	 42.7941 	 52.383
| 37> H 	 -22.9645 	 43.6599 	 52.123
| 38> H 	 -24.2293 	 44.3833 	 53.049
| 39> H 	 -15.7689 	 44.0474 	 55.523
| 40> H 	 -22.8055 	 42.3405 	 59.5211
| 41> *
| 42>
| 43>                          ****END OF INPUT****

CARTESIAN COORDINATES (ANGSTROEM)
---------------------------------
  S    -17.894400   42.907300   56.351000
  C    -16.816700   44.136100   55.680000
  C    -17.631700   45.172700   55.315300
  C    -19.004700   45.115900   55.799600
  C    -19.356100   43.945200   56.359800
  H    -19.756200   45.903000   55.828400
  C    -17.162500   46.444500   54.685700
  H    -17.871500   46.654100   53.962500
  H    -16.136200   46.222300   54.295300
  C    -17.208700   47.698700   55.658800
  H    -16.836200   48.623500   55.226700
  H    -18.288200   47.969100   55.930300
  C    -16.378000   47.478600   56.897800
  H    -16.481000   48.223900   57.635700
  H    -16.568100   46.501800   57.348500
  H    -15.337800   47.478600   56.638300
  S    -20.684000   43.198200   58.629700
  C    -22.344700   42.676700   58.568100
  C    -22.813500   42.869300   57.298100
  C    -21.914400   43.443600   56.394800
  C    -20.664200   43.598900   56.929200
  H    -23.876200   42.763800   57.055900
  C    -22.345000   43.859900   55.013100
  H    -21.487600   44.038000   54.348200
  H    -22.787200   44.883200   55.094400
  C    -23.272400   42.924100   54.220500
  H    -24.237600   42.733300   54.778600
  H    -22.805900   41.974700   54.102700
  C    -23.703800   43.455800   52.907300
  H    -24.504700   42.794100   52.383000
  H    -22.964500   43.659900   52.123000
  H    -24.229300   44.383300   53.049000
  H    -15.768900   44.047400   55.523000
  H    -22.805500   42.340500   59.521100

 Total Charge           Charge          ....    0
 Multiplicity           Mult            ....    1
 Number of Electrons    NEL             ....  134
 Basis Dimension        Dim             ....  322

ORBITAL ENERGIES
----------------

  NO   OCC          E(Eh)            E(eV)
   0   2.0000     -88.962337     -2420.7883
   1   2.0000     -88.958560     -2420.6855
   2   2.0000     -10.330496      -281.1071
   3   2.0000     -10.326277      -280.9923
   4   2.0000     -10.323107      -280.9060
   5   2.0000     -10.316531      -280.7271
   6   2.0000     -10.302735      -280.3517
   7   2.0000     -10.300352      -280.2868
   8   2.0000     -10.296123      -280.1718
   9   2.0000     -10.293157      -280.0910
  10   2.0000     -10.292149      -280.0636
  11   2.0000     -10.291938      -280.0579
  12   2.0000     -10.289361      -279.9877
  13   2.0000     -10.287877      -279.9474
  14   2.0000     -10.281965      -279.7865
  15   2.0000     -10.263562      -279.2857
  16   2.0000      -8.077836      -219.8091
  17   2.0000      -8.072687      -219.6690
  18   2.0000      -6.036220      -164.2539
  19   2.0000      -6.032133      -164.1427
  20   2.0000      -6.031519      -164.1260
  21   2.0000      -6.028771      -164.0512
  22   2.0000      -6.027237      -164.0094
  23   2.0000      -6.023122      -163.8975
  24   2.0000      -1.010816       -27.5057
  25   2.0000      -0.987929       -26.8829
  26   2.0000      -0.914551       -24.8862
  27   2.0000      -0.908709       -24.7272
  28   2.0000      -0.873665       -23.7736
  29   2.0000      -0.857655       -23.3380
  30   2.0000      -0.840703       -22.8767
  31   2.0000      -0.820960       -22.3395
  32   2.0000      -0.780955       -21.2509
  33   2.0000      -0.771656       -20.9978
  34   2.0000      -0.707161       -19.2428
  35   2.0000      -0.700887       -19.0721
  36   2.0000      -0.695411       -18.9231
  37   2.0000      -0.660576       -17.9752
  38   2.0000      -0.643685       -17.5156
  39   2.0000      -0.619144       -16.8478
  40   2.0000      -0.604562       -16.4510
  41   2.0000      -0.569188       -15.4884
  42   2.0000      -0.563964       -15.3462
  43   2.0000      -0.555104       -15.1052
  44   2.0000      -0.542013       -14.7489
  45   2.0000      -0.528785       -14.3890
  46   2.0000      -0.522783       -14.2256
  47   2.0000      -0.516414       -14.0523
  48   2.0000      -0.512776       -13.9533
  49   2.0000      -0.499858       -13.6018
  50   2.0000      -0.488646       -13.2967
  51   2.0000      -0.475484       -12.9386
  52   2.0000      -0.473831       -12.8936
  53   2.0000      -0.465221       -12.6593
  54   2.0000      -0.457137       -12.4393
  55   2.0000      -0.452755       -12.3201
  56   2.0000      -0.440198       -11.9784
  57   2.0000      -0.434417       -11.8211
  58   2.0000      -0.429529       -11.6881
  59   2.0000      -0.424153       -11.5418
  60   2.0000      -0.418889       -11.3985
  61   2.0000      -0.413622       -11.2552
  62   2.0000      -0.401524       -10.9260
  63   2.0000      -0.345956        -9.4139
  64   2.0000      -0.333645        -9.0789
  65   2.0000      -0.320688        -8.7264
  66   2.0000      -0.306019        -8.3272
  67   0.0000       0.032620         0.8876
  68   0.0000       0.069159         1.8819
  69   0.0000       0.118576         3.2266
  70   0.0000       0.121223         3.2986
  71   0.0000       0.134543         3.6611

MULLIKEN ATOMIC CHARGES
-----------------------
   0 S :    0.085374
   1 C :   -0.108922
   2 C :   -0.106638
   3 C :    0.016801
   4 C :   -0.119504
   5 H :    0.017474
   6 C :    0.118881
   7 H :    0.013278
   8 H :    0.026130
   9 C :   -0.106004
  10 H :    0.028797
  11 H :    0.034068
  12 C :   -0.028018
  13 H :    0.021923
  14 H :    0.040604
  15 H :    0.013326
  16 S :    0.102512
  17 C :   -0.109973
  18 C :   -0.030522
  19 C :    0.014981
  20 C :   -0.208776
  21 H :    0.024483
  22 C :    0.043420
  23 H :    0.026032
  24 H :    0.038898
  25 C :   -0.062823
  26 H :    0.031523
  27 H :    0.032363
  28 C :   -0.072370
  29 H :    0.041921
  30 H :    0.034838
  31 H :    0.018148
  32 H :    0.047275
  33 H :    0.080500
Sum of atomic charges:   -0.0000000

LOEWDIN ATOMIC CHARGES
----------------------
   0 S :    0.367781
   1 C :   -0.182407
   2 C :   -0.066429
   3 C :   -0.066191
   4 C :   -0.177293
   5 H :    0.033203
   6 C :   -0.025208
   7 H :    0.022747
   8 H :    0.033101
   9 C :   -0.041602
  10 H :    0.022813
  11 H :    0.026903
  12 C :   -0.066020
  13 H :    0.019417
  14 H :    0.026858
  15 H :    0.021055
  16 S :    0.415458
  17 C :   -0.181990
  18 C :   -0.078404
  19 C :   -0.056888
  20 C :   -0.200892
  21 H :    0.033963
  22 C :   -0.035368
  23 H :    0.033226
  24 H :    0.037655
  25 C :   -0.044926
  26 H :    0.029219
  27 H :    0.023525
  28 C :   -0.074246
  29 H :    0.038182
  30 H :    0.023677
  31 H :    0.020654
  32 H :    0.029687
  33 H :    0.038738

  Mayer bond orders larger than 0.100000
B(  0-S ,  1-C ) :   1.1137 B(  0-S ,  4-C ) :   1.1196 B(  1-C ,  2-C ) :   1.6262
B(  1-C , 32-H ) :   0.9791 B(  2-C ,  3-C ) :   1.1719 B(  2-C ,  6-C ) :   1.0432
B(  3-C ,  4-C ) :   1.6386 B(  3-C ,  5-H ) :   0.9935 B(  4-C , 20-C ) :   1.0243
B(  6-C ,  7-H ) :   0.9282 B(  6-C ,  8-H ) :   0.9459 B(  6-C ,  9-C ) :   1.0608
B(  9-C , 10-H ) :   0.9581 B(  9-C , 11-H ) :   0.9542 B(  9-C , 12-C ) :   1.0760
B( 12-C , 13-H ) :   0.9723 B( 12-C , 14-H ) :   0.9735 B( 12-C , 15-H ) :   0.9731
B( 16-S , 17-C ) :   1.1738 B( 16-S , 20-C ) :   1.1582 B( 17-C , 18-C ) :   1.5581
B( 17-C , 20-C ) :   0.1028 B( 17-C , 33-H ) :   0.9686 B( 18-C , 19-C ) :   1.2760
B( 18-C , 21-H ) :   0.9872 B( 19-C , 20-C ) :   1.5818 B( 19-C , 22-C ) :   1.0425
B( 22-C , 23-H ) :   0.9325 B( 22-C , 24-H ) :   0.9289 B( 22-C , 25-C ) :   1.0656
B( 25-C , 26-H ) :   0.9446 B( 25-C , 27-H ) :   0.9554 B( 25-C , 28-C ) :   1.0926
B( 28-C , 29-H ) :   0.9717 B( 28-C , 30-H ) :   0.9734 B( 28-C , 31-H ) :   0.9703

Dispersion correction           -0.014165068
FINAL SINGLE POINT ENERGY     -1339.876903236254

DIPOLE MOMENT
-------------
                                X             Y             Z
Electronic contribution:      4.65083     -14.84579      15.82119
Nuclear contribution   :     -4.99381      15.33917     -16.12550
                        -----------------------------------------
Total Dipole Moment    :     -0.34298       0.49338      -0.30431
                        -----------------------------------------
Magnitude (a.u.)       :      0.67355
Magnitude (Debye)      :      1.71202

Rotational constants in cm-1:     0.018477     0.008237     0.006851
Rotational constants in MHz :   553.915513   246.944641   205.380316

                             ****ORCA TERMINATED NORMALLY****
TOTAL RUN TIME: 0 days 0 hours 0 minutes 34 seconds 536 msec
