                         Program Version 4.2.1 -  RELEASE  -
|  1> ! wB97X-D3 SP def2-SVP
|  2> %pal
|  3> nprocs 16
|  4> end
|  5>
|  6> * xyz 0 1
|  7> S 	 -44.6276 	 36.5174 	 80.7959
|  8> C 	 -43.8177 	 37.9791 	 80.6281
|  9> C 	 -42.4903 	 37.8323 	 81.0525
| 10> C 	 -42.2285 	 36.5115 	 81.5792
| 11> C 	 -43.2865 	 35.6283 	 81.4608
| 12> H 	 -41.3032 	 36.188 	 81.8856
| 13> C 	 -41.4734 	 38.9518 	 81.179
| 14> H 	 -41.9214 	 39.9361 	 81.2392
| 15> H 	 -41.03 	 38.9319 	 80.1762
| 16> C 	 -40.3887 	 38.7405 	 82.2403
| 17> H 	 -40.8502 	 38.5827 	 83.1423
| 18> H 	 -39.7511 	 37.9354 	 82.0299
| 19> C 	 -39.4665 	 39.9288 	 82.4264
| 20> H 	 -38.7477 	 39.7395 	 83.2581
| 21> H 	 -38.9782 	 40.231 	 81.4982
| 22> H 	 -40.0365 	 40.8092 	 82.7081
| 23> S 	 -44.1595 	 33.1178 	 80.6397
| 24> C 	 -43.9557 	 31.8142 	 81.7755
| 25> C 	 -43.1659 	 32.1142 	 82.8569
| 26> C 	 -42.8099 	 33.5051 	 82.8663
| 27> C 	 -43.3719 	 34.2044 	 81.8037
| 28> H 	 -42.8082 	 31.2603 	 83.4672
| 29> C 	 -41.976 	 34.1363 	 83.9544
| 30> H 	 -42.4695 	 33.8316 	 84.8742
| 31> H 	 -42.087 	 35.1767 	 83.9003
| 32> C 	 -40.5704 	 33.6315 	 84.0531
| 33> H 	 -40.0232 	 33.9917 	 83.1987
| 34> H 	 -40.5242 	 32.5172 	 83.9111
| 35> C 	 -39.8388 	 34.1302 	 85.3027
| 36> H 	 -40.1861 	 33.8168 	 86.3261
| 37> H 	 -39.8848 	 35.2627 	 85.3781
| 38> H 	 -38.802 	 33.766 	 85.299
| 39> H 	 -44.3304 	 38.9074 	 80.4077
| 40> H 	 -44.3091 	 30.7439 	 81.5942
| 41> *
| 42>
| 43>                          ****END OF INPUT****

CARTESIAN COORDINATES (ANGSTROEM)
---------------------------------
  S    -44.627600   36.517400   80.795900
  C    -43.817700   37.979100   80.628100
  C    -42.490300   37.832300   81.052500
  C    -42.228500   36.511500   81.579200
  C    -43.286500   35.628300   81.460800
  H    -41.303200   36.188000   81.885600
  C    -41.473400   38.951800   81.179000
  H    -41.921400   39.936100   81.239200
  H    -41.030000   38.931900   80.176200
  C    -40.388700   38.740500   82.240300
  H    -40.850200   38.582700   83.142300
  H    -39.751100   37.935400   82.029900
  C    -39.466500   39.928800   82.426400
  H    -38.747700   39.739500   83.258100
  H    -38.978200   40.231000   81.498200
  H    -40.036500   40.809200   82.708100
  S    -44.159500   33.117800   80.639700
  C    -43.955700   31.814200   81.775500
  C    -43.165900   32.114200   82.856900
  C    -42.809900   33.505100   82.866300
  C    -43.371900   34.204400   81.803700
  H    -42.808200   31.260300   83.467200
  C    -41.976000   34.136300   83.954400
  H    -42.469500   33.831600   84.874200
  H    -42.087000   35.176700   83.900300
  C    -40.570400   33.631500   84.053100
  H    -40.023200   33.991700   83.198700
  H    -40.524200   32.517200   83.911100
  C    -39.838800   34.130200   85.302700
  H    -40.186100   33.816800   86.326100
  H    -39.884800   35.262700   85.378100
  H    -38.802000   33.766000   85.299000
  H    -44.330400   38.907400   80.407700
  H    -44.309100   30.743900   81.594200

 Total Charge           Charge          ....    0
 Multiplicity           Mult            ....    1
 Number of Electrons    NEL             ....  134
 Basis Dimension        Dim             ....  322

ORBITAL ENERGIES
----------------

  NO   OCC          E(Eh)            E(eV)
   0   2.0000     -88.966915     -2420.9128
   1   2.0000     -88.962230     -2420.7853
   2   2.0000     -10.328885      -281.0633
   3   2.0000     -10.328707      -281.0584
   4   2.0000     -10.320769      -280.8424
   5   2.0000     -10.309993      -280.5492
   6   2.0000     -10.304882      -280.4101
   7   2.0000     -10.303199      -280.3643
   8   2.0000     -10.296535      -280.1830
   9   2.0000     -10.291322      -280.0411
  10   2.0000     -10.290187      -280.0102
  11   2.0000     -10.289339      -279.9872
  12   2.0000     -10.288169      -279.9553
  13   2.0000     -10.282607      -279.8040
  14   2.0000     -10.279218      -279.7117
  15   2.0000     -10.276314      -279.6327
  16   2.0000      -8.081435      -219.9070
  17   2.0000      -8.078376      -219.8238
  18   2.0000      -6.039983      -164.3563
  19   2.0000      -6.036783      -164.2692
  20   2.0000      -6.036150      -164.2520
  21   2.0000      -6.032406      -164.1501
  22   2.0000      -6.031990      -164.1388
  23   2.0000      -6.029423      -164.0689
  24   2.0000      -1.008711       -27.4484
  25   2.0000      -0.986970       -26.8568
  26   2.0000      -0.916765       -24.9464
  27   2.0000      -0.915276       -24.9059
  28   2.0000      -0.871729       -23.7209
  29   2.0000      -0.853461       -23.2239
  30   2.0000      -0.847257       -23.0550
  31   2.0000      -0.817162       -22.2361
  32   2.0000      -0.782751       -21.2997
  33   2.0000      -0.768579       -20.9141
  34   2.0000      -0.714720       -19.4485
  35   2.0000      -0.702282       -19.1101
  36   2.0000      -0.689845       -18.7716
  37   2.0000      -0.658902       -17.9296
  38   2.0000      -0.642795       -17.4914
  39   2.0000      -0.624922       -17.0050
  40   2.0000      -0.596079       -16.2201
  41   2.0000      -0.577310       -15.7094
  42   2.0000      -0.569148       -15.4873
  43   2.0000      -0.560135       -15.2421
  44   2.0000      -0.531728       -14.4691
  45   2.0000      -0.527765       -14.3612
  46   2.0000      -0.516842       -14.0640
  47   2.0000      -0.511801       -13.9268
  48   2.0000      -0.506678       -13.7874
  49   2.0000      -0.499937       -13.6040
  50   2.0000      -0.489304       -13.3147
  51   2.0000      -0.483077       -13.1452
  52   2.0000      -0.470171       -12.7940
  53   2.0000      -0.461645       -12.5620
  54   2.0000      -0.457939       -12.4611
  55   2.0000      -0.453996       -12.3538
  56   2.0000      -0.448857       -12.2140
  57   2.0000      -0.444231       -12.0881
  58   2.0000      -0.435286       -11.8447
  59   2.0000      -0.429962       -11.6998
  60   2.0000      -0.423650       -11.5281
  61   2.0000      -0.416117       -11.3231
  62   2.0000      -0.412253       -11.2180
  63   2.0000      -0.354063        -9.6346
  64   2.0000      -0.331483        -9.0201
  65   2.0000      -0.324364        -8.8264
  66   2.0000      -0.287215        -7.8155
  67   0.0000       0.030579         0.8321
  68   0.0000       0.075536         2.0554
  69   0.0000       0.106830         2.9070
  70   0.0000       0.125390         3.4120
  71   0.0000       0.128117         3.4863

MULLIKEN ATOMIC CHARGES
-----------------------
   0 S :    0.115239
   1 C :   -0.126623
   2 C :   -0.104852
   3 C :    0.038184
   4 C :   -0.142080
   5 H :   -0.029612
   6 C :    0.067606
   7 H :    0.017567
   8 H :    0.035035
   9 C :   -0.042521
  10 H :    0.013615
  11 H :    0.026545
  12 C :   -0.046317
  13 H :    0.041970
  14 H :    0.027513
  15 H :    0.018616
  16 S :    0.113133
  17 C :   -0.114648
  18 C :   -0.051066
  19 C :   -0.045486
  20 C :   -0.140604
  21 H :    0.037340
  22 C :    0.107193
  23 H :    0.019443
  24 H :    0.007473
  25 C :   -0.064019
  26 H :    0.019762
  27 H :    0.034047
  28 C :   -0.074850
  29 H :    0.033515
  30 H :    0.038333
  31 H :    0.039271
  32 H :    0.055381
  33 H :    0.075896
Sum of atomic charges:   -0.0000000

LOEWDIN ATOMIC CHARGES
----------------------
   0 S :    0.441991
   1 C :   -0.226419
   2 C :   -0.060559
   3 C :   -0.063463
   4 C :   -0.197057
   5 H :    0.013010
   6 C :   -0.031924
   7 H :    0.027756
   8 H :    0.038483
   9 C :   -0.034370
  10 H :    0.015246
  11 H :    0.019827
  12 C :   -0.061639
  13 H :    0.032431
  14 H :    0.023378
  15 H :    0.020763
  16 S :    0.395211
  17 C :   -0.192915
  18 C :   -0.081442
  19 C :   -0.047823
  20 C :   -0.192727
  21 H :    0.041620
  22 C :   -0.029663
  23 H :    0.033803
  24 H :    0.021521
  25 C :   -0.042834
  26 H :    0.022305
  27 H :    0.030160
  28 C :   -0.076163
  29 H :    0.026890
  30 H :    0.031914
  31 H :    0.028604
  32 H :    0.031719
  33 H :    0.042365

  Mayer bond orders larger than 0.100000
B(  0-S ,  1-C ) :   1.1679 B(  0-S ,  4-C ) :   1.1779 B(  1-C ,  2-C ) :   1.5574
B(  1-C ,  4-C ) :   0.1002 B(  1-C , 32-H ) :   0.9751 B(  2-C ,  3-C ) :   1.2870
B(  2-C ,  6-C ) :   1.0077 B(  3-C ,  4-C ) :   1.5194 B(  3-C ,  5-H ) :   1.0064
B(  4-C , 20-C ) :   1.0411 B(  6-C ,  7-H ) :   0.9520 B(  6-C ,  8-H ) :   0.9199
B(  6-C ,  9-C ) :   1.0877 B(  9-C , 10-H ) :   0.9553 B(  9-C , 11-H ) :   0.9383
B(  9-C , 12-C ) :   1.0960 B( 12-C , 13-H ) :   0.9727 B( 12-C , 14-H ) :   0.9744
B( 12-C , 15-H ) :   0.9725 B( 16-S , 17-C ) :   1.1470 B( 16-S , 20-C ) :   1.1295
B( 17-C , 18-C ) :   1.6466 B( 17-C , 33-H ) :   0.9538 B( 18-C , 19-C ) :   1.2096
B( 18-C , 21-H ) :   0.9833 B( 19-C , 20-C ) :   1.6137 B( 19-C , 22-C ) :   1.0472
B( 22-C , 23-H ) :   0.9274 B( 22-C , 24-H ) :   0.9271 B( 22-C , 25-C ) :   1.0632
B( 25-C , 26-H ) :   0.9456 B( 25-C , 27-H ) :   0.9541 B( 25-C , 28-C ) :   1.0799
B( 28-C , 29-H ) :   0.9753 B( 28-C , 30-H ) :   0.9718 B( 28-C , 31-H ) :   0.9737

Dispersion correction           -0.013911852
FINAL SINGLE POINT ENERGY     -1339.881316658990

DIPOLE MOMENT
-------------
                                X             Y             Z
Electronic contribution:    -26.15702     -12.14049     -16.95270
Nuclear contribution   :     26.76156      12.27028      17.34296
                        -----------------------------------------
Total Dipole Moment    :      0.60453       0.12979       0.39026
                        -----------------------------------------
Magnitude (a.u.)       :      0.73117
Magnitude (Debye)      :      1.85848

Rotational constants in cm-1:     0.016416     0.009769     0.006407
Rotational constants in MHz :   492.137413   292.876206   192.063772

                             ****ORCA TERMINATED NORMALLY****
TOTAL RUN TIME: 0 days 0 hours 0 minutes 30 seconds 250 msec
