                         Program Version 4.2.1 -  RELEASE  -
|  1> ! wB97X-D3 SP def2-SVP
|  2> %pal
|  3> nprocs 16
|  4> end
|  5>
|  6> * xyz 0 1
|  7> S 	 -1.92535 	 -20.0173 	 85.0952
|  8> C 	 -2.65283 	 -19.6849 	 83.5713
|  9> C 	 -1.80541 	 -19.0024 	 82.6861
| 10> C 	 -0.460192 	 -19.1203 	 83.1135
| 11> C 	 -0.315189 	 -19.6454 	 84.407
| 12> H 	 0.403635 	 -18.784 	 82.4551
| 13> C 	 -2.32535 	 -18.3114 	 81.4347
| 14> H 	 -1.56882 	 -17.635 	 81.2259
| 15> H 	 -3.20498 	 -17.7636 	 81.6692
| 16> C 	 -2.56204 	 -19.2912 	 80.283
| 17> H 	 -1.77863 	 -19.939 	 80.0415
| 18> H 	 -3.35318 	 -19.9585 	 80.589
| 19> C 	 -2.99755 	 -18.6382 	 78.975
| 20> H 	 -2.16993 	 -18.1535 	 78.4374
| 21> H 	 -3.37557 	 -19.494 	 78.3693
| 22> H 	 -3.76831 	 -17.9219 	 79.1514
| 23> S 	 0.63307 	 -19.284 	 86.9225
| 24> C 	 2.33376 	 -19.3926 	 87.2294
| 25> C 	 2.96211 	 -19.9065 	 86.1671
| 26> C 	 2.11403 	 -20.1376 	 85.0086
| 27> C 	 0.824066 	 -19.7993 	 85.289
| 28> H 	 4.00342 	 -20.1889 	 86.2234
| 29> C 	 2.6967 	 -20.731 	 83.7113
| 30> H 	 3.44936 	 -20.0768 	 83.2986
| 31> H 	 2.06898 	 -20.8177 	 82.939
| 32> C 	 3.25059 	 -22.1244 	 83.8381
| 33> H 	 2.46619 	 -22.6909 	 84.2965
| 34> H 	 4.10116 	 -21.9857 	 84.6231
| 35> C 	 3.77679 	 -22.7975 	 82.5202
| 36> H 	 2.97937 	 -22.8978 	 81.8243
| 37> H 	 4.1318 	 -23.7585 	 82.71
| 38> H 	 4.56564 	 -22.2802 	 82.0444
| 39> H 	 -3.72282 	 -19.6586 	 83.5032
| 40> H 	 2.83041 	 -19.1643 	 88.1472
| 41> *
| 42>
| 43>                          ****END OF INPUT****

CARTESIAN COORDINATES (ANGSTROEM)
---------------------------------
  S     -1.925350  -20.017300   85.095200
  C     -2.652830  -19.684900   83.571300
  C     -1.805410  -19.002400   82.686100
  C     -0.460192  -19.120300   83.113500
  C     -0.315189  -19.645400   84.407000
  H      0.403635  -18.784000   82.455100
  C     -2.325350  -18.311400   81.434700
  H     -1.568820  -17.635000   81.225900
  H     -3.204980  -17.763600   81.669200
  C     -2.562040  -19.291200   80.283000
  H     -1.778630  -19.939000   80.041500
  H     -3.353180  -19.958500   80.589000
  C     -2.997550  -18.638200   78.975000
  H     -2.169930  -18.153500   78.437400
  H     -3.375570  -19.494000   78.369300
  H     -3.768310  -17.921900   79.151400
  S      0.633070  -19.284000   86.922500
  C      2.333760  -19.392600   87.229400
  C      2.962110  -19.906500   86.167100
  C      2.114030  -20.137600   85.008600
  C      0.824066  -19.799300   85.289000
  H      4.003420  -20.188900   86.223400
  C      2.696700  -20.731000   83.711300
  H      3.449360  -20.076800   83.298600
  H      2.068980  -20.817700   82.939000
  C      3.250590  -22.124400   83.838100
  H      2.466190  -22.690900   84.296500
  H      4.101160  -21.985700   84.623100
  C      3.776790  -22.797500   82.520200
  H      2.979370  -22.897800   81.824300
  H      4.131800  -23.758500   82.710000
  H      4.565640  -22.280200   82.044400
  H     -3.722820  -19.658600   83.503200
  H      2.830410  -19.164300   88.147200

 Total Charge           Charge          ....    0
 Multiplicity           Mult            ....    1
 Number of Electrons    NEL             ....  134
 Basis Dimension        Dim             ....  322

ORBITAL ENERGIES
----------------

  NO   OCC          E(Eh)            E(eV)
   0   2.0000     -88.964931     -2420.8588
   1   2.0000     -88.961602     -2420.7683
   2   2.0000     -10.333440      -281.1872
   3   2.0000     -10.322804      -280.8978
   4   2.0000     -10.309988      -280.5490
   5   2.0000     -10.308499      -280.5085
   6   2.0000     -10.303810      -280.3809
   7   2.0000     -10.302008      -280.3319
   8   2.0000     -10.300718      -280.2968
   9   2.0000     -10.289202      -279.9834
  10   2.0000     -10.289040      -279.9790
  11   2.0000     -10.285932      -279.8944
  12   2.0000     -10.278998      -279.7057
  13   2.0000     -10.278238      -279.6851
  14   2.0000     -10.277848      -279.6745
  15   2.0000     -10.272168      -279.5199
  16   2.0000      -8.079694      -219.8596
  17   2.0000      -8.077655      -219.8042
  18   2.0000      -6.038094      -164.3049
  19   2.0000      -6.036307      -164.2563
  20   2.0000      -6.034313      -164.2020
  21   2.0000      -6.032051      -164.1405
  22   2.0000      -6.030481      -164.0977
  23   2.0000      -6.028095      -164.0328
  24   2.0000      -1.011565       -27.5261
  25   2.0000      -0.985556       -26.8184
  26   2.0000      -0.915566       -24.9138
  27   2.0000      -0.911623       -24.8065
  28   2.0000      -0.872970       -23.7547
  29   2.0000      -0.853100       -23.2140
  30   2.0000      -0.844479       -22.9794
  31   2.0000      -0.817559       -22.2469
  32   2.0000      -0.790912       -21.5218
  33   2.0000      -0.774645       -21.0792
  34   2.0000      -0.705793       -19.2056
  35   2.0000      -0.702400       -19.1133
  36   2.0000      -0.697825       -18.9888
  37   2.0000      -0.661761       -18.0074
  38   2.0000      -0.637904       -17.3583
  39   2.0000      -0.622744       -16.9457
  40   2.0000      -0.606891       -16.5144
  41   2.0000      -0.568598       -15.4723
  42   2.0000      -0.565540       -15.3891
  43   2.0000      -0.561016       -15.2660
  44   2.0000      -0.533769       -14.5246
  45   2.0000      -0.522044       -14.2056
  46   2.0000      -0.518240       -14.1020
  47   2.0000      -0.514494       -14.0001
  48   2.0000      -0.506688       -13.7877
  49   2.0000      -0.498870       -13.5749
  50   2.0000      -0.493075       -13.4173
  51   2.0000      -0.485687       -13.2162
  52   2.0000      -0.472906       -12.8684
  53   2.0000      -0.466164       -12.6850
  54   2.0000      -0.464234       -12.6325
  55   2.0000      -0.452715       -12.3190
  56   2.0000      -0.447917       -12.1884
  57   2.0000      -0.440476       -11.9860
  58   2.0000      -0.434640       -11.8272
  59   2.0000      -0.424503       -11.5513
  60   2.0000      -0.422328       -11.4921
  61   2.0000      -0.417447       -11.3593
  62   2.0000      -0.409558       -11.1446
  63   2.0000      -0.357592        -9.7306
  64   2.0000      -0.333612        -9.0780
  65   2.0000      -0.326811        -8.8930
  66   2.0000      -0.284198        -7.7334
  67   0.0000       0.027642         0.7522
  68   0.0000       0.073116         1.9896
  69   0.0000       0.108100         2.9416
  70   0.0000       0.123579         3.3628
  71   0.0000       0.136329         3.7097

MULLIKEN ATOMIC CHARGES
-----------------------
   0 S :    0.096232
   1 C :   -0.099345
   2 C :   -0.150850
   3 C :    0.015150
   4 C :   -0.149501
   5 H :    0.037904
   6 C :    0.143096
   7 H :   -0.002400
   8 H :    0.020573
   9 C :   -0.067019
  10 H :    0.014723
  11 H :    0.017116
  12 C :   -0.040681
  13 H :    0.037272
  14 H :    0.039517
  15 H :    0.022921
  16 S :    0.097656
  17 C :   -0.070044
  18 C :   -0.034060
  19 C :   -0.057767
  20 C :   -0.122428
  21 H :    0.017792
  22 C :    0.156436
  23 H :    0.014282
  24 H :   -0.035729
  25 C :   -0.136386
  26 H :    0.034849
  27 H :    0.029636
  28 C :    0.015182
  29 H :    0.023015
  30 H :    0.022138
  31 H :    0.020525
  32 H :    0.043024
  33 H :    0.047170
Sum of atomic charges:    0.0000000

LOEWDIN ATOMIC CHARGES
----------------------
   0 S :    0.400716
   1 C :   -0.205196
   2 C :   -0.058573
   3 C :   -0.069207
   4 C :   -0.175454
   5 H :    0.043320
   6 C :   -0.018583
   7 H :    0.020398
   8 H :    0.029723
   9 C :   -0.035341
  10 H :    0.018404
  11 H :    0.023031
  12 C :   -0.062885
  13 H :    0.024963
  14 H :    0.033923
  15 H :    0.017733
  16 S :    0.411010
  17 C :   -0.184349
  18 C :   -0.067861
  19 C :   -0.053815
  20 C :   -0.205486
  21 H :    0.029608
  22 C :   -0.027855
  23 H :    0.028815
  24 H :    0.006824
  25 C :   -0.034875
  26 H :    0.022989
  27 H :    0.025125
  28 C :   -0.052196
  29 H :    0.023023
  30 H :    0.022756
  31 H :    0.021569
  32 H :    0.018236
  33 H :    0.029510

  Mayer bond orders larger than 0.100000
B(  0-S ,  1-C ) :   1.1576 B(  0-S ,  4-C ) :   1.1516 B(  1-C ,  2-C ) :   1.5853
B(  1-C ,  4-C ) :   0.1124 B(  1-C , 32-H ) :   0.9660 B(  2-C ,  3-C ) :   1.2778
B(  2-C ,  6-C ) :   1.0202 B(  3-C ,  4-C ) :   1.5521 B(  3-C ,  5-H ) :   0.9770
B(  4-C , 20-C ) :   1.0403 B(  6-C ,  7-H ) :   0.9328 B(  6-C ,  8-H ) :   0.9330
B(  6-C ,  9-C ) :   1.0692 B(  9-C , 10-H ) :   0.9561 B(  9-C , 11-H ) :   0.9550
B(  9-C , 12-C ) :   1.0867 B( 12-C , 13-H ) :   0.9766 B( 12-C , 14-H ) :   0.9741
B( 12-C , 15-H ) :   0.9738 B( 16-S , 17-C ) :   1.1329 B( 16-S , 20-C ) :   1.1320
B( 17-C , 18-C ) :   1.6468 B( 17-C , 33-H ) :   0.9706 B( 18-C , 19-C ) :   1.2079
B( 18-C , 21-H ) :   0.9886 B( 19-C , 20-C ) :   1.6400 B( 19-C , 22-C ) :   1.0423
B( 22-C , 23-H ) :   0.9266 B( 22-C , 24-H ) :   0.9241 B( 22-C , 25-C ) :   1.0549
B( 25-C , 26-H ) :   0.9572 B( 25-C , 27-H ) :   0.9586 B( 25-C , 28-C ) :   1.0799
B( 28-C , 29-H ) :   0.9728 B( 28-C , 30-H ) :   0.9727 B( 28-C , 31-H ) :   0.9744

Dispersion correction           -0.013260685
FINAL SINGLE POINT ENERGY     -1339.865224108774

DIPOLE MOMENT
-------------
                                X             Y             Z
Electronic contribution:     -5.66653       5.47862      28.40848
Nuclear contribution   :      5.92904      -5.42799     -29.01036
                        -----------------------------------------
Total Dipole Moment    :      0.26251       0.05062      -0.60188
                        -----------------------------------------
Magnitude (a.u.)       :      0.65859
Magnitude (Debye)      :      1.67400

Rotational constants in cm-1:     0.017922     0.007963     0.006019
Rotational constants in MHz :   537.301579   238.717152   180.437336

                             ****ORCA TERMINATED NORMALLY****
TOTAL RUN TIME: 0 days 0 hours 0 minutes 32 seconds 402 msec
