                         Program Version 4.2.1 -  RELEASE  -
|  1> ! wB97X-D3 SP def2-SVP
|  2> %pal
|  3> nprocs 16
|  4> end
|  5>
|  6> * xyz 0 1
|  7> S 	 -0.827837 	 -25.0622 	 58.0143
|  8> C 	 -1.88247 	 -23.6679 	 58.4674
|  9> C 	 -1.54844 	 -23.2145 	 59.7504
| 10> C 	 -0.45295 	 -23.961 	 60.2983
| 11> C 	 0.0255755 	 -25.0331 	 59.5234
| 12> H 	 0.0572702 	 -23.812 	 61.278
| 13> C 	 -2.16643 	 -22.07 	 60.5068
| 14> H 	 -2.30556 	 -21.2032 	 59.8058
| 15> H 	 -1.51428 	 -21.8306 	 61.3396
| 16> C 	 -3.51117 	 -22.3946 	 61.1899
| 17> H 	 -3.89012 	 -21.4825 	 61.7572
| 18> H 	 -4.18711 	 -22.6916 	 60.4016
| 19> C 	 -3.38033 	 -23.4672 	 62.2602
| 20> H 	 -2.95465 	 -24.3736 	 61.9425
| 21> H 	 -2.76131 	 -23.1163 	 63.1099
| 22> H 	 -4.32207 	 -23.6875 	 62.7345
| 23> S 	 0.887075 	 -27.6249 	 59.4851
| 24> C 	 2.42296 	 -28.0704 	 60.1876
| 25> C 	 3.10136 	 -26.9738 	 60.6458
| 26> C 	 2.38264 	 -25.767 	 60.3921
| 27> C 	 1.11818 	 -25.9739 	 59.7992
| 28> H 	 4.14745 	 -26.9869 	 61.0055
| 29> C 	 2.89911 	 -24.3995 	 60.7578
| 30> H 	 2.15101 	 -23.6535 	 60.655
| 31> H 	 3.70799 	 -24.1928 	 59.9899
| 32> C 	 3.43482 	 -24.3843 	 62.248
| 33> H 	 3.93933 	 -23.3944 	 62.3983
| 34> H 	 4.24731 	 -25.1116 	 62.3926
| 35> C 	 2.30926 	 -24.4627 	 63.2828
| 36> H 	 1.82939 	 -25.4146 	 63.2473
| 37> H 	 1.68784 	 -23.6175 	 63.3098
| 38> H 	 2.818 	 -24.6483 	 64.229
| 39> H 	 -2.61227 	 -23.1924 	 57.89
| 40> H 	 2.80676 	 -29.1034 	 60.3337
| 41> *
| 42>
| 43>                          ****END OF INPUT****

CARTESIAN COORDINATES (ANGSTROEM)
---------------------------------
  S     -0.827837  -25.062200   58.014300
  C     -1.882470  -23.667900   58.467400
  C     -1.548440  -23.214500   59.750400
  C     -0.452950  -23.961000   60.298300
  C      0.025576  -25.033100   59.523400
  H      0.057270  -23.812000   61.278000
  C     -2.166430  -22.070000   60.506800
  H     -2.305560  -21.203200   59.805800
  H     -1.514280  -21.830600   61.339600
  C     -3.511170  -22.394600   61.189900
  H     -3.890120  -21.482500   61.757200
  H     -4.187110  -22.691600   60.401600
  C     -3.380330  -23.467200   62.260200
  H     -2.954650  -24.373600   61.942500
  H     -2.761310  -23.116300   63.109900
  H     -4.322070  -23.687500   62.734500
  S      0.887075  -27.624900   59.485100
  C      2.422960  -28.070400   60.187600
  C      3.101360  -26.973800   60.645800
  C      2.382640  -25.767000   60.392100
  C      1.118180  -25.973900   59.799200
  H      4.147450  -26.986900   61.005500
  C      2.899110  -24.399500   60.757800
  H      2.151010  -23.653500   60.655000
  H      3.707990  -24.192800   59.989900
  C      3.434820  -24.384300   62.248000
  H      3.939330  -23.394400   62.398300
  H      4.247310  -25.111600   62.392600
  C      2.309260  -24.462700   63.282800
  H      1.829390  -25.414600   63.247300
  H      1.687840  -23.617500   63.309800
  H      2.818000  -24.648300   64.229000
  H     -2.612270  -23.192400   57.890000
  H      2.806760  -29.103400   60.333700

 Total Charge           Charge          ....    0
 Multiplicity           Mult            ....    1
 Number of Electrons    NEL             ....  134
 Basis Dimension        Dim             ....  322

ORBITAL ENERGIES
----------------

  NO   OCC          E(Eh)            E(eV)
   0   2.0000     -88.968541     -2420.9571
   1   2.0000     -88.967202     -2420.9206
   2   2.0000     -10.333993      -281.2023
   3   2.0000     -10.325334      -280.9666
   4   2.0000     -10.320889      -280.8457
   5   2.0000     -10.317177      -280.7447
   6   2.0000     -10.305859      -280.4367
   7   2.0000     -10.302235      -280.3381
   8   2.0000     -10.298175      -280.2276
   9   2.0000     -10.296593      -280.1845
  10   2.0000     -10.295269      -280.1485
  11   2.0000     -10.293728      -280.1066
  12   2.0000     -10.291405      -280.0434
  13   2.0000     -10.290270      -280.0125
  14   2.0000     -10.272709      -279.5346
  15   2.0000     -10.269528      -279.4481
  16   2.0000      -8.082878      -219.9463
  17   2.0000      -8.082405      -219.9334
  18   2.0000      -6.041316      -164.3926
  19   2.0000      -6.040979      -164.3834
  20   2.0000      -6.037131      -164.2787
  21   2.0000      -6.036950      -164.2738
  22   2.0000      -6.033775      -164.1874
  23   2.0000      -6.033215      -164.1721
  24   2.0000      -1.009374       -27.4665
  25   2.0000      -0.982333       -26.7306
  26   2.0000      -0.914362       -24.8811
  27   2.0000      -0.906679       -24.6720
  28   2.0000      -0.869825       -23.6691
  29   2.0000      -0.849875       -23.1263
  30   2.0000      -0.842005       -22.9121
  31   2.0000      -0.814549       -22.1650
  32   2.0000      -0.784232       -21.3400
  33   2.0000      -0.772611       -21.0238
  34   2.0000      -0.705986       -19.2108
  35   2.0000      -0.703269       -19.1369
  36   2.0000      -0.694113       -18.8878
  37   2.0000      -0.655244       -17.8301
  38   2.0000      -0.637965       -17.3599
  39   2.0000      -0.613520       -16.6947
  40   2.0000      -0.595032       -16.1917
  41   2.0000      -0.578195       -15.7335
  42   2.0000      -0.553051       -15.0493
  43   2.0000      -0.549705       -14.9582
  44   2.0000      -0.547204       -14.8902
  45   2.0000      -0.543725       -14.7955
  46   2.0000      -0.520867       -14.1735
  47   2.0000      -0.508517       -13.8375
  48   2.0000      -0.501424       -13.6444
  49   2.0000      -0.494723       -13.4621
  50   2.0000      -0.488262       -13.2863
  51   2.0000      -0.476345       -12.9620
  52   2.0000      -0.472917       -12.8687
  53   2.0000      -0.468618       -12.7518
  54   2.0000      -0.463610       -12.6155
  55   2.0000      -0.446512       -12.1502
  56   2.0000      -0.445075       -12.1111
  57   2.0000      -0.436463       -11.8768
  58   2.0000      -0.429353       -11.6833
  59   2.0000      -0.426870       -11.6157
  60   2.0000      -0.424110       -11.5406
  61   2.0000      -0.416964       -11.3462
  62   2.0000      -0.405600       -11.0369
  63   2.0000      -0.352319        -9.5871
  64   2.0000      -0.330791        -9.0013
  65   2.0000      -0.328971        -8.9518
  66   2.0000      -0.288008        -7.8371
  67   0.0000       0.027340         0.7440
  68   0.0000       0.071884         1.9561
  69   0.0000       0.104909         2.8547
  70   0.0000       0.119864         3.2617
  71   0.0000       0.126912         3.4535

MULLIKEN ATOMIC CHARGES
-----------------------
   0 S :    0.105791
   1 C :   -0.096357
   2 C :   -0.094684
   3 C :    0.011734
   4 C :   -0.152417
   5 H :    0.015292
   6 C :    0.064046
   7 H :    0.045622
   8 H :    0.015058
   9 C :   -0.073429
  10 H :    0.042331
  11 H :    0.028173
  12 C :   -0.045148
  13 H :    0.035354
  14 H :    0.018461
  15 H :    0.026848
  16 S :    0.117612
  17 C :   -0.098696
  18 C :   -0.044488
  19 C :   -0.076049
  20 C :   -0.141405
  21 H :    0.035961
  22 C :    0.080023
  23 H :    0.006825
  24 H :    0.049888
  25 C :   -0.121001
  26 H :    0.030933
  27 H :    0.030678
  28 C :   -0.007017
  29 H :    0.029156
  30 H :    0.044454
  31 H :    0.020930
  32 H :    0.024466
  33 H :    0.071057
Sum of atomic charges:    0.0000000

LOEWDIN ATOMIC CHARGES
----------------------
   0 S :    0.398102
   1 C :   -0.179396
   2 C :   -0.059778
   3 C :   -0.077130
   4 C :   -0.195292
   5 H :    0.033355
   6 C :   -0.034046
   7 H :    0.038476
   8 H :    0.027924
   9 C :   -0.038275
  10 H :    0.033235
  11 H :    0.019115
  12 C :   -0.065386
  13 H :    0.018651
  14 H :    0.026220
  15 H :    0.025484
  16 S :    0.434875
  17 C :   -0.191641
  18 C :   -0.079064
  19 C :   -0.057727
  20 C :   -0.227277
  21 H :    0.039450
  22 C :   -0.032804
  23 H :    0.020208
  24 H :    0.042234
  25 C :   -0.039964
  26 H :    0.026326
  27 H :    0.020541
  28 C :   -0.063632
  29 H :    0.026818
  30 H :    0.019308
  31 H :    0.033642
  32 H :    0.017492
  33 H :    0.039954

  Mayer bond orders larger than 0.100000
B(  0-S ,  1-C ) :   1.1285 B(  0-S ,  4-C ) :   1.1633 B(  1-C ,  2-C ) :   1.5937
B(  1-C ,  4-C ) :   0.1077 B(  1-C , 32-H ) :   0.9776 B(  2-C ,  3-C ) :   1.2489
B(  2-C ,  6-C ) :   1.0247 B(  3-C ,  4-C ) :   1.5666 B(  3-C ,  5-H ) :   0.9785
B(  4-C , 20-C ) :   1.0270 B(  6-C ,  7-H ) :   0.9403 B(  6-C ,  8-H ) :   0.9395
B(  6-C ,  9-C ) :   1.0704 B(  9-C , 10-H ) :   0.9561 B(  9-C , 11-H ) :   0.9573
B(  9-C , 12-C ) :   1.0788 B( 12-C , 13-H ) :   0.9759 B( 12-C , 14-H ) :   0.9716
B( 12-C , 15-H ) :   0.9716 B( 16-S , 17-C ) :   1.1680 B( 16-S , 20-C ) :   1.1581
B( 17-C , 18-C ) :   1.5853 B( 17-C , 33-H ) :   0.9619 B( 18-C , 19-C ) :   1.2747
B( 18-C , 21-H ) :   0.9824 B( 19-C , 20-C ) :   1.5519 B( 19-C , 22-C ) :   1.0409
B( 22-C , 23-H ) :   0.9393 B( 22-C , 24-H ) :   0.9293 B( 22-C , 25-C ) :   1.0624
B( 25-C , 26-H ) :   0.9567 B( 25-C , 27-H ) :   0.9584 B( 25-C , 28-C ) :   1.0798
B( 28-C , 29-H ) :   0.9691 B( 28-C , 30-H ) :   0.9712 B( 28-C , 31-H ) :   0.9636

Dispersion correction           -0.015130470
FINAL SINGLE POINT ENERGY     -1339.884564059812

DIPOLE MOMENT
-------------
                                X             Y             Z
Electronic contribution:      1.71966     -16.63336     -21.60746
Nuclear contribution   :     -1.48887      16.98694      22.16104
                        -----------------------------------------
Total Dipole Moment    :      0.23079       0.35358       0.55358
                        -----------------------------------------
Magnitude (a.u.)       :      0.69623
Magnitude (Debye)      :      1.76966

Rotational constants in cm-1:     0.019033     0.009294     0.007320
Rotational constants in MHz :   570.596430   278.628985   219.440364

                             ****ORCA TERMINATED NORMALLY****
TOTAL RUN TIME: 0 days 0 hours 0 minutes 36 seconds 500 msec
