                         Program Version 4.2.1 -  RELEASE  -
|  1> ! wB97X-D3 SP def2-SVP
|  2> %pal
|  3> nprocs 16
|  4> end
|  5>
|  6> * xyz 0 1
|  7> S 	 -55.7032 	 57.199 	 135.936
|  8> C 	 -54.256 	 57.4371 	 136.799
|  9> C 	 -54.455 	 57.8733 	 138.084
| 10> C 	 -55.8375 	 57.9085 	 138.443
| 11> C 	 -56.6324 	 57.4344 	 137.399
| 12> H 	 -56.236 	 58.268 	 139.453
| 13> C 	 -53.2528 	 58.3478 	 138.943
| 14> H 	 -52.4813 	 57.6214 	 139.053
| 15> H 	 -53.5226 	 58.4328 	 139.97
| 16> C 	 -52.7048 	 59.6971 	 138.527
| 17> H 	 -52.2013 	 59.5747 	 137.562
| 18> H 	 -53.5187 	 60.4326 	 138.284
| 19> C 	 -51.7885 	 60.3312 	 139.518
| 20> H 	 -51.414 	 59.6726 	 140.326
| 21> H 	 -50.9506 	 60.535 	 138.907
| 22> H 	 -52.1736 	 61.2919 	 139.838
| 23> S 	 -58.9193 	 58.0669 	 136.031
| 24> C 	 -60.4609 	 57.4172 	 136.677
| 25> C 	 -60.3436 	 56.7218 	 137.821
| 26> C 	 -58.9883 	 56.7074 	 138.285
| 27> C 	 -58.1025 	 57.3247 	 137.381
| 28> H 	 -61.1984 	 56.324 	 138.257
| 29> C 	 -58.5959 	 55.8423 	 139.481
| 30> H 	 -57.5691 	 55.6526 	 139.318
| 31> H 	 -59.2316 	 54.9532 	 139.478
| 32> C 	 -58.8177 	 56.4749 	 140.884
| 33> H 	 -59.9332 	 56.7305 	 140.973
| 34> H 	 -58.2929 	 57.3861 	 140.839
| 35> C 	 -58.3803 	 55.5729 	 142.047
| 36> H 	 -57.3627 	 55.6985 	 142.33
| 37> H 	 -58.43 	 54.5104 	 141.741
| 38> H 	 -58.9575 	 55.7289 	 142.896
| 39> H 	 -53.2491 	 57.5053 	 136.347
| 40> H 	 -61.3716 	 57.6699 	 136.226
| 41> *
| 42>
| 43>                          ****END OF INPUT****

CARTESIAN COORDINATES (ANGSTROEM)
---------------------------------
  S    -55.703200   57.199000  135.936000
  C    -54.256000   57.437100  136.799000
  C    -54.455000   57.873300  138.084000
  C    -55.837500   57.908500  138.443000
  C    -56.632400   57.434400  137.399000
  H    -56.236000   58.268000  139.453000
  C    -53.252800   58.347800  138.943000
  H    -52.481300   57.621400  139.053000
  H    -53.522600   58.432800  139.970000
  C    -52.704800   59.697100  138.527000
  H    -52.201300   59.574700  137.562000
  H    -53.518700   60.432600  138.284000
  C    -51.788500   60.331200  139.518000
  H    -51.414000   59.672600  140.326000
  H    -50.950600   60.535000  138.907000
  H    -52.173600   61.291900  139.838000
  S    -58.919300   58.066900  136.031000
  C    -60.460900   57.417200  136.677000
  C    -60.343600   56.721800  137.821000
  C    -58.988300   56.707400  138.285000
  C    -58.102500   57.324700  137.381000
  H    -61.198400   56.324000  138.257000
  C    -58.595900   55.842300  139.481000
  H    -57.569100   55.652600  139.318000
  H    -59.231600   54.953200  139.478000
  C    -58.817700   56.474900  140.884000
  H    -59.933200   56.730500  140.973000
  H    -58.292900   57.386100  140.839000
  C    -58.380300   55.572900  142.047000
  H    -57.362700   55.698500  142.330000
  H    -58.430000   54.510400  141.741000
  H    -58.957500   55.728900  142.896000
  H    -53.249100   57.505300  136.347000
  H    -61.371600   57.669900  136.226000

 Total Charge           Charge          ....    0
 Multiplicity           Mult            ....    1
 Number of Electrons    NEL             ....  134
 Basis Dimension        Dim             ....  322

ORBITAL ENERGIES
----------------

  NO   OCC          E(Eh)            E(eV)
   0   2.0000     -88.968819     -2420.9646
   1   2.0000     -88.964211     -2420.8393
   2   2.0000     -10.330993      -281.1206
   3   2.0000     -10.328042      -281.0403
   4   2.0000     -10.311087      -280.5790
   5   2.0000     -10.308506      -280.5087
   6   2.0000     -10.303590      -280.3749
   7   2.0000     -10.303337      -280.3681
   8   2.0000     -10.299775      -280.2711
   9   2.0000     -10.286954      -279.9222
  10   2.0000     -10.286739      -279.9164
  11   2.0000     -10.286556      -279.9114
  12   2.0000     -10.285289      -279.8770
  13   2.0000     -10.282777      -279.8086
  14   2.0000     -10.271864      -279.5116
  15   2.0000     -10.271663      -279.5062
  16   2.0000      -8.084288      -219.9847
  17   2.0000      -8.078754      -219.8341
  18   2.0000      -6.042675      -164.4295
  19   2.0000      -6.038794      -164.3240
  20   2.0000      -6.037279      -164.2827
  21   2.0000      -6.035029      -164.2215
  22   2.0000      -6.033437      -164.1782
  23   2.0000      -6.029362      -164.0673
  24   2.0000      -1.007945       -27.4276
  25   2.0000      -0.984571       -26.7915
  26   2.0000      -0.915861       -24.9219
  27   2.0000      -0.904419       -24.6105
  28   2.0000      -0.872506       -23.7421
  29   2.0000      -0.852872       -23.2078
  30   2.0000      -0.847789       -23.0695
  31   2.0000      -0.818399       -22.2698
  32   2.0000      -0.785013       -21.3613
  33   2.0000      -0.770075       -20.9548
  34   2.0000      -0.703261       -19.1367
  35   2.0000      -0.696089       -18.9415
  36   2.0000      -0.692057       -18.8318
  37   2.0000      -0.666484       -18.1360
  38   2.0000      -0.637003       -17.3337
  39   2.0000      -0.618359       -16.8264
  40   2.0000      -0.593747       -16.1567
  41   2.0000      -0.574439       -15.6313
  42   2.0000      -0.568069       -15.4579
  43   2.0000      -0.560742       -15.2586
  44   2.0000      -0.531325       -14.4581
  45   2.0000      -0.526560       -14.3284
  46   2.0000      -0.517839       -14.0911
  47   2.0000      -0.512334       -13.9413
  48   2.0000      -0.498017       -13.5517
  49   2.0000      -0.496186       -13.5019
  50   2.0000      -0.491540       -13.3755
  51   2.0000      -0.480620       -13.0783
  52   2.0000      -0.470607       -12.8059
  53   2.0000      -0.466993       -12.7075
  54   2.0000      -0.462329       -12.5806
  55   2.0000      -0.453599       -12.3431
  56   2.0000      -0.447233       -12.1698
  57   2.0000      -0.441735       -12.0202
  58   2.0000      -0.429478       -11.6867
  59   2.0000      -0.424880       -11.5616
  60   2.0000      -0.422001       -11.4832
  61   2.0000      -0.418482       -11.3875
  62   2.0000      -0.401981       -10.9384
  63   2.0000      -0.351695        -9.5701
  64   2.0000      -0.334161        -9.0930
  65   2.0000      -0.329184        -8.9575
  66   2.0000      -0.288459        -7.8494
  67   0.0000       0.030585         0.8322
  68   0.0000       0.072019         1.9597
  69   0.0000       0.105650         2.8749
  70   0.0000       0.127280         3.4635
  71   0.0000       0.131500         3.5783

MULLIKEN ATOMIC CHARGES
-----------------------
   0 S :    0.126021
   1 C :   -0.116938
   2 C :   -0.104211
   3 C :    0.011487
   4 C :   -0.166073
   5 H :    0.045326
   6 C :    0.091516
   7 H :    0.021478
   8 H :   -0.002882
   9 C :   -0.113002
  10 H :    0.019265
  11 H :    0.037004
  12 C :   -0.008753
  13 H :    0.037719
  14 H :    0.015664
  15 H :    0.036402
  16 S :    0.090323
  17 C :   -0.069652
  18 C :    0.008763
  19 C :   -0.034621
  20 C :   -0.151896
  21 H :   -0.004359
  22 C :    0.063745
  23 H :    0.022847
  24 H :    0.024755
  25 C :   -0.092110
  26 H :    0.032483
  27 H :    0.012140
  28 C :    0.004533
  29 H :    0.023507
  30 H :    0.025455
  31 H :    0.023649
  32 H :    0.058456
  33 H :    0.031963
Sum of atomic charges:   -0.0000000

LOEWDIN ATOMIC CHARGES
----------------------
   0 S :    0.430008
   1 C :   -0.217628
   2 C :   -0.063862
   3 C :   -0.068801
   4 C :   -0.198341
   5 H :    0.046041
   6 C :   -0.031521
   7 H :    0.026929
   8 H :    0.021999
   9 C :   -0.047542
  10 H :    0.017482
  11 H :    0.031720
  12 C :   -0.068210
  13 H :    0.029954
  14 H :    0.027321
  15 H :    0.029480
  16 S :    0.380156
  17 C :   -0.153152
  18 C :   -0.057719
  19 C :   -0.052781
  20 C :   -0.198146
  21 H :    0.025565
  22 C :   -0.026209
  23 H :    0.023541
  24 H :    0.029560
  25 C :   -0.038144
  26 H :    0.028786
  27 H :    0.011781
  28 C :   -0.060000
  29 H :    0.023591
  30 H :    0.030144
  31 H :    0.018959
  32 H :    0.034479
  33 H :    0.014560

  Mayer bond orders larger than 0.100000
B(  0-S ,  1-C ) :   1.1469 B(  0-S ,  4-C ) :   1.1690 B(  1-C ,  2-C ) :   1.6091
B(  1-C , 32-H ) :   0.9618 B(  2-C ,  3-C ) :   1.2724 B(  2-C ,  6-C ) :   1.0159
B(  3-C ,  4-C ) :   1.5400 B(  3-C ,  5-H ) :   0.9824 B(  4-C , 20-C ) :   1.0339
B(  6-C ,  7-H ) :   0.9379 B(  6-C ,  8-H ) :   0.9390 B(  6-C ,  9-C ) :   1.0632
B(  9-C , 10-H ) :   0.9650 B(  9-C , 11-H ) :   0.9579 B(  9-C , 12-C ) :   1.0649
B( 12-C , 13-H ) :   0.9751 B( 12-C , 14-H ) :   0.9731 B( 12-C , 15-H ) :   0.9773
B( 16-S , 17-C ) :   1.1258 B( 16-S , 20-C ) :   1.1415 B( 17-C , 18-C ) :   1.6514
B( 17-C , 33-H ) :   0.9720 B( 18-C , 19-C ) :   1.2038 B( 18-C , 21-H ) :   1.0021
B( 19-C , 20-C ) :   1.6051 B( 19-C , 22-C ) :   1.0493 B( 22-C , 23-H ) :   0.9337
B( 22-C , 24-H ) :   0.9360 B( 22-C , 25-C ) :   1.0647 B( 25-C , 26-H ) :   0.9599
B( 25-C , 27-H ) :   0.9564 B( 25-C , 28-C ) :   1.0716 B( 28-C , 29-H ) :   0.9733
B( 28-C , 30-H ) :   0.9736 B( 28-C , 31-H ) :   0.9757

Dispersion correction           -0.013662857
FINAL SINGLE POINT ENERGY     -1339.868320932094

DIPOLE MOMENT
-------------
                                X             Y             Z
Electronic contribution:    -12.43596      -1.85468     -25.76584
Nuclear contribution   :     12.59928       1.94747      26.31167
                        -----------------------------------------
Total Dipole Moment    :      0.16333       0.09279       0.54582
                        -----------------------------------------
Magnitude (a.u.)       :      0.57724
Magnitude (Debye)      :      1.46723

Rotational constants in cm-1:     0.017739     0.008205     0.006213
Rotational constants in MHz :   531.811228   245.993857   186.275536

                             ****ORCA TERMINATED NORMALLY****
TOTAL RUN TIME: 0 days 0 hours 0 minutes 33 seconds 742 msec
