                         Program Version 4.2.1 -  RELEASE  -
|  1> ! wB97X-D3 SP def2-SVP
|  2> %pal
|  3> nprocs 16
|  4> end
|  5>
|  6> * xyz 0 1
|  7> S 	 -41.9112 	 25.7601 	 88.1182
|  8> C 	 -42.1665 	 27.4784 	 88.4644
|  9> C 	 -42.5202 	 28.1965 	 87.314
| 10> C 	 -42.6981 	 27.3349 	 86.1785
| 11> C 	 -42.4313 	 26.0264 	 86.4475
| 12> H 	 -42.9793 	 27.7868 	 85.2112
| 13> C 	 -42.9803 	 29.6223 	 87.3651
| 14> H 	 -43.0099 	 29.8825 	 86.3667
| 15> H 	 -42.1913 	 30.3047 	 87.7418
| 16> C 	 -44.2726 	 29.9346 	 88.0413
| 17> H 	 -45.0686 	 29.2843 	 87.5773
| 18> H 	 -44.3427 	 29.7105 	 89.1045
| 19> C 	 -44.7343 	 31.3257 	 87.8734
| 20> H 	 -44.6752 	 31.6637 	 86.7868
| 21> H 	 -45.7495 	 31.3367 	 88.2108
| 22> H 	 -44.0859 	 31.9781 	 88.4457
| 23> S 	 -43.7951 	 24.6868 	 84.4775
| 24> C 	 -42.8859 	 23.5651 	 83.4585
| 25> C 	 -41.5998 	 23.3679 	 83.9102
| 26> C 	 -41.2748 	 24.1025 	 85.0834
| 27> C 	 -42.3122 	 25.018 	 85.4252
| 28> H 	 -41.0233 	 22.7027 	 83.3137
| 29> C 	 -39.8802 	 24.0107 	 85.6713
| 30> H 	 -39.509 	 22.9573 	 85.5785
| 31> H 	 -40.0791 	 24.0439 	 86.779
| 32> C 	 -38.9934 	 25.0899 	 85.1908
| 33> H 	 -37.9037 	 25.0092 	 85.4879
| 34> H 	 -39.2457 	 26.0191 	 85.7076
| 35> C 	 -39.1132 	 25.283 	 83.5899
| 36> H 	 -38.2207 	 25.779 	 83.3425
| 37> H 	 -40.0588 	 25.7636 	 83.2403
| 38> H 	 -39.0234 	 24.2869 	 83.0693
| 39> H 	 -42.1571 	 28.0224 	 89.3727
| 40> H 	 -43.2971 	 23.0348 	 82.6332
| 41> *
| 42>
| 43>                          ****END OF INPUT****

CARTESIAN COORDINATES (ANGSTROEM)
---------------------------------
  S    -41.911200   25.760100   88.118200
  C    -42.166500   27.478400   88.464400
  C    -42.520200   28.196500   87.314000
  C    -42.698100   27.334900   86.178500
  C    -42.431300   26.026400   86.447500
  H    -42.979300   27.786800   85.211200
  C    -42.980300   29.622300   87.365100
  H    -43.009900   29.882500   86.366700
  H    -42.191300   30.304700   87.741800
  C    -44.272600   29.934600   88.041300
  H    -45.068600   29.284300   87.577300
  H    -44.342700   29.710500   89.104500
  C    -44.734300   31.325700   87.873400
  H    -44.675200   31.663700   86.786800
  H    -45.749500   31.336700   88.210800
  H    -44.085900   31.978100   88.445700
  S    -43.795100   24.686800   84.477500
  C    -42.885900   23.565100   83.458500
  C    -41.599800   23.367900   83.910200
  C    -41.274800   24.102500   85.083400
  C    -42.312200   25.018000   85.425200
  H    -41.023300   22.702700   83.313700
  C    -39.880200   24.010700   85.671300
  H    -39.509000   22.957300   85.578500
  H    -40.079100   24.043900   86.779000
  C    -38.993400   25.089900   85.190800
  H    -37.903700   25.009200   85.487900
  H    -39.245700   26.019100   85.707600
  C    -39.113200   25.283000   83.589900
  H    -38.220700   25.779000   83.342500
  H    -40.058800   25.763600   83.240300
  H    -39.023400   24.286900   83.069300
  H    -42.157100   28.022400   89.372700
  H    -43.297100   23.034800   82.633200

 Total Charge           Charge          ....    0
 Multiplicity           Mult            ....    1
 Number of Electrons    NEL             ....  134
 Basis Dimension        Dim             ....  322

ORBITAL ENERGIES
----------------

  NO   OCC          E(Eh)            E(eV)
   0   2.0000     -88.973283     -2421.0861
   1   2.0000     -88.965425     -2420.8723
   2   2.0000     -10.330324      -281.1024
   3   2.0000     -10.329606      -281.0829
   4   2.0000     -10.313775      -280.6521
   5   2.0000     -10.311906      -280.6012
   6   2.0000     -10.305480      -280.4264
   7   2.0000     -10.298745      -280.2431
   8   2.0000     -10.296889      -280.1926
   9   2.0000     -10.291404      -280.0433
  10   2.0000     -10.289085      -279.9802
  11   2.0000     -10.288875      -279.9745
  12   2.0000     -10.284507      -279.8557
  13   2.0000     -10.283223      -279.8207
  14   2.0000     -10.278608      -279.6951
  15   2.0000     -10.277235      -279.6578
  16   2.0000      -8.086552      -220.0463
  17   2.0000      -8.079087      -219.8431
  18   2.0000      -6.045241      -164.4994
  19   2.0000      -6.041272      -164.3914
  20   2.0000      -6.037612      -164.2918
  21   2.0000      -6.037205      -164.2807
  22   2.0000      -6.033776      -164.1874
  23   2.0000      -6.029883      -164.0815
  24   2.0000      -1.002090       -27.2683
  25   2.0000      -0.977671       -26.6038
  26   2.0000      -0.923387       -25.1266
  27   2.0000      -0.906165       -24.6580
  28   2.0000      -0.872114       -23.7314
  29   2.0000      -0.855227       -23.2719
  30   2.0000      -0.834014       -22.6947
  31   2.0000      -0.813991       -22.1498
  32   2.0000      -0.783761       -21.3272
  33   2.0000      -0.770696       -20.9717
  34   2.0000      -0.712461       -19.3870
  35   2.0000      -0.698489       -19.0069
  36   2.0000      -0.686971       -18.6934
  37   2.0000      -0.661146       -17.9907
  38   2.0000      -0.633390       -17.2354
  39   2.0000      -0.621743       -16.9185
  40   2.0000      -0.585013       -15.9190
  41   2.0000      -0.572845       -15.5879
  42   2.0000      -0.566531       -15.4161
  43   2.0000      -0.551211       -14.9992
  44   2.0000      -0.545167       -14.8347
  45   2.0000      -0.536357       -14.5950
  46   2.0000      -0.517732       -14.0882
  47   2.0000      -0.507836       -13.8189
  48   2.0000      -0.505509       -13.7556
  49   2.0000      -0.493968       -13.4416
  50   2.0000      -0.488625       -13.2962
  51   2.0000      -0.471234       -12.8229
  52   2.0000      -0.468089       -12.7374
  53   2.0000      -0.461061       -12.5461
  54   2.0000      -0.454203       -12.3595
  55   2.0000      -0.449588       -12.2339
  56   2.0000      -0.443114       -12.0578
  57   2.0000      -0.441934       -12.0256
  58   2.0000      -0.436805       -11.8861
  59   2.0000      -0.424405       -11.5486
  60   2.0000      -0.411927       -11.2091
  61   2.0000      -0.409227       -11.1356
  62   2.0000      -0.402252       -10.9458
  63   2.0000      -0.346330        -9.4241
  64   2.0000      -0.333747        -9.0817
  65   2.0000      -0.329297        -8.9606
  66   2.0000      -0.287646        -7.8273
  67   0.0000       0.026484         0.7207
  68   0.0000       0.066619         1.8128
  69   0.0000       0.105416         2.8685
  70   0.0000       0.107232         2.9179
  71   0.0000       0.128396         3.4938

MULLIKEN ATOMIC CHARGES
-----------------------
   0 S :    0.120912
   1 C :   -0.094925
   2 C :   -0.109653
   3 C :    0.012788
   4 C :   -0.115759
   5 H :    0.027328
   6 C :    0.098467
   7 H :   -0.016136
   8 H :    0.023885
   9 C :   -0.076596
  10 H :    0.027158
  11 H :    0.024897
  12 C :   -0.036937
  13 H :    0.033228
  14 H :    0.036336
  15 H :    0.026137
  16 S :    0.099735
  17 C :   -0.086728
  18 C :   -0.038583
  19 C :   -0.044162
  20 C :   -0.174542
  21 H :    0.008716
  22 C :    0.064044
  23 H :    0.032407
  24 H :    0.025180
  25 C :   -0.067748
  26 H :    0.036039
  27 H :    0.036025
  28 C :   -0.065360
  29 H :    0.023961
  30 H :    0.068926
  31 H :    0.027726
  32 H :    0.029708
  33 H :    0.043527
Sum of atomic charges:   -0.0000000

LOEWDIN ATOMIC CHARGES
----------------------
   0 S :    0.403399
   1 C :   -0.184440
   2 C :   -0.060065
   3 C :   -0.059633
   4 C :   -0.194740
   5 H :    0.037873
   6 C :   -0.037855
   7 H :    0.019421
   8 H :    0.034483
   9 C :   -0.047368
  10 H :    0.029655
  11 H :    0.023468
  12 C :   -0.060748
  13 H :    0.030032
  14 H :    0.027389
  15 H :    0.021029
  16 S :    0.386361
  17 C :   -0.179288
  18 C :   -0.066037
  19 C :   -0.052788
  20 C :   -0.183117
  21 H :    0.027875
  22 C :   -0.048191
  23 H :    0.034593
  24 H :    0.027174
  25 C :   -0.044426
  26 H :    0.030322
  27 H :    0.028123
  28 C :   -0.067076
  29 H :    0.016659
  30 H :    0.036058
  31 H :    0.026782
  32 H :    0.022769
  33 H :    0.022307

  Mayer bond orders larger than 0.100000
B(  0-S ,  1-C ) :   1.1282 B(  0-S ,  4-C ) :   1.1280 B(  1-C ,  2-C ) :   1.6133
B(  1-C , 32-H ) :   0.9717 B(  2-C ,  3-C ) :   1.2576 B(  2-C ,  6-C ) :   1.0358
B(  3-C ,  4-C ) :   1.5585 B(  3-C ,  5-H ) :   0.9856 B(  4-C , 20-C ) :   1.0543
B(  6-C ,  7-H ) :   0.9255 B(  6-C ,  8-H ) :   0.9249 B(  6-C ,  9-C ) :   1.0752
B(  9-C , 10-H ) :   0.9503 B(  9-C , 11-H ) :   0.9488 B(  9-C , 12-C ) :   1.0934
B( 12-C , 13-H ) :   0.9731 B( 12-C , 14-H ) :   0.9713 B( 12-C , 15-H ) :   0.9720
B( 16-S , 17-C ) :   1.1388 B( 16-S , 20-C ) :   1.1454 B( 17-C , 18-C ) :   1.6305
B( 17-C , 20-C ) :   0.1056 B( 17-C , 33-H ) :   0.9690 B( 18-C , 19-C ) :   1.2185
B( 18-C , 21-H ) :   0.9963 B( 19-C , 20-C ) :   1.5637 B( 19-C , 22-C ) :   1.0377
B( 22-C , 23-H ) :   0.9357 B( 22-C , 24-H ) :   0.9280 B( 22-C , 25-C ) :   1.0718
B( 25-C , 26-H ) :   0.9595 B( 25-C , 27-H ) :   0.9504 B( 25-C , 28-C ) :   1.0622
B( 28-C , 29-H ) :   0.9747 B( 28-C , 30-H ) :   0.9695 B( 28-C , 31-H ) :   0.9760

Dispersion correction           -0.015158375
FINAL SINGLE POINT ENERGY     -1339.864732947793

DIPOLE MOMENT
-------------
                                X             Y             Z
Electronic contribution:     -6.37421     -16.67547       1.25862
Nuclear contribution   :      6.55682      17.03274      -1.33818
                        -----------------------------------------
Total Dipole Moment    :      0.18262       0.35727      -0.07956
                        -----------------------------------------
Magnitude (a.u.)       :      0.40905
Magnitude (Debye)      :      1.03972

Rotational constants in cm-1:     0.023184     0.007607     0.006855
Rotational constants in MHz :   695.029999   228.046309   205.509066

                             ****ORCA TERMINATED NORMALLY****
TOTAL RUN TIME: 0 days 0 hours 0 minutes 29 seconds 230 msec
