                         Program Version 4.2.1 -  RELEASE  -
|  1> ! wB97X-D3 SP def2-SVP
|  2> %pal
|  3> nprocs 16
|  4> end
|  5>
|  6> * xyz 0 1
|  7> S 	 -36.6761 	 74.3965 	 151.811
|  8> C 	 -35.7112 	 75.8202 	 151.814
|  9> C 	 -34.5088 	 75.6719 	 152.458
| 10> C 	 -34.2634 	 74.3323 	 152.718
| 11> C 	 -35.3614 	 73.4993 	 152.522
| 12> H 	 -33.3052 	 73.9925 	 153.174
| 13> C 	 -33.5206 	 76.8366 	 152.772
| 14> H 	 -33.9728 	 77.7813 	 152.491
| 15> H 	 -32.7438 	 76.8317 	 151.997
| 16> C 	 -32.8052 	 76.7128 	 154.14
| 17> H 	 -33.4197 	 76.5794 	 155.013
| 18> H 	 -32.1615 	 75.8231 	 154.087
| 19> C 	 -31.9343 	 77.9305 	 154.473
| 20> H 	 -31.5972 	 77.9652 	 155.526
| 21> H 	 -31.0665 	 77.9649 	 153.799
| 22> H 	 -32.5572 	 78.7726 	 154.323
| 23> S 	 -35.8996 	 71.1602 	 151.301
| 24> C 	 -35.9657 	 69.7059 	 152.251
| 25> C 	 -35.3654 	 69.8096 	 153.482
| 26> C 	 -35.0064 	 71.1943 	 153.735
| 27> C 	 -35.3162 	 72.0694 	 152.667
| 28> H 	 -35.21 	 68.983 	 154.211
| 29> C 	 -34.3292 	 71.4802 	 155.037
| 30> H 	 -34.8112 	 70.9511 	 155.843
| 31> H 	 -34.5596 	 72.5191 	 155.185
| 32> C 	 -32.8803 	 71.3018 	 155.178
| 33> H 	 -32.2753 	 71.6626 	 154.367
| 34> H 	 -32.7794 	 70.199 	 155.124
| 35> C 	 -32.1922 	 71.7587 	 156.47
| 36> H 	 -32.4847 	 71.0994 	 157.267
| 37> H 	 -32.421 	 72.7271 	 156.845
| 38> H 	 -31.1195 	 71.896 	 156.301
| 39> H 	 -36.0886 	 76.807 	 151.438
| 40> H 	 -36.2246 	 68.7294 	 151.77
| 41> *
| 42>
| 43>                          ****END OF INPUT****

CARTESIAN COORDINATES (ANGSTROEM)
---------------------------------
  S    -36.676100   74.396500  151.811000
  C    -35.711200   75.820200  151.814000
  C    -34.508800   75.671900  152.458000
  C    -34.263400   74.332300  152.718000
  C    -35.361400   73.499300  152.522000
  H    -33.305200   73.992500  153.174000
  C    -33.520600   76.836600  152.772000
  H    -33.972800   77.781300  152.491000
  H    -32.743800   76.831700  151.997000
  C    -32.805200   76.712800  154.140000
  H    -33.419700   76.579400  155.013000
  H    -32.161500   75.823100  154.087000
  C    -31.934300   77.930500  154.473000
  H    -31.597200   77.965200  155.526000
  H    -31.066500   77.964900  153.799000
  H    -32.557200   78.772600  154.323000
  S    -35.899600   71.160200  151.301000
  C    -35.965700   69.705900  152.251000
  C    -35.365400   69.809600  153.482000
  C    -35.006400   71.194300  153.735000
  C    -35.316200   72.069400  152.667000
  H    -35.210000   68.983000  154.211000
  C    -34.329200   71.480200  155.037000
  H    -34.811200   70.951100  155.843000
  H    -34.559600   72.519100  155.185000
  C    -32.880300   71.301800  155.178000
  H    -32.275300   71.662600  154.367000
  H    -32.779400   70.199000  155.124000
  C    -32.192200   71.758700  156.470000
  H    -32.484700   71.099400  157.267000
  H    -32.421000   72.727100  156.845000
  H    -31.119500   71.896000  156.301000
  H    -36.088600   76.807000  151.438000
  H    -36.224600   68.729400  151.770000

 Total Charge           Charge          ....    0
 Multiplicity           Mult            ....    1
 Number of Electrons    NEL             ....  134
 Basis Dimension        Dim             ....  322

ORBITAL ENERGIES
----------------

  NO   OCC          E(Eh)            E(eV)
   0   2.0000     -88.970299     -2421.0049
   1   2.0000     -88.963149     -2420.8104
   2   2.0000     -10.325992      -280.9845
   3   2.0000     -10.325510      -280.9714
   4   2.0000     -10.317107      -280.7427
   5   2.0000     -10.313019      -280.6315
   6   2.0000     -10.304405      -280.3971
   7   2.0000     -10.299729      -280.2699
   8   2.0000     -10.297560      -280.2109
   9   2.0000     -10.296532      -280.1829
  10   2.0000     -10.292137      -280.0633
  11   2.0000     -10.290598      -280.0214
  12   2.0000     -10.281440      -279.7722
  13   2.0000     -10.279240      -279.7123
  14   2.0000     -10.279108      -279.7087
  15   2.0000     -10.275291      -279.6049
  16   2.0000      -8.085361      -220.0139
  17   2.0000      -8.078518      -219.8276
  18   2.0000      -6.043755      -164.4589
  19   2.0000      -6.039851      -164.3527
  20   2.0000      -6.037005      -164.2752
  21   2.0000      -6.036187      -164.2530
  22   2.0000      -6.032979      -164.1657
  23   2.0000      -6.029219      -164.0634
  24   2.0000      -1.011081       -27.5129
  25   2.0000      -0.986485       -26.8436
  26   2.0000      -0.918125       -24.9834
  27   2.0000      -0.909940       -24.7607
  28   2.0000      -0.871621       -23.7180
  29   2.0000      -0.854484       -23.2517
  30   2.0000      -0.849943       -23.1281
  31   2.0000      -0.812419       -22.1071
  32   2.0000      -0.785945       -21.3867
  33   2.0000      -0.771652       -20.9977
  34   2.0000      -0.712012       -19.3748
  35   2.0000      -0.700139       -19.0517
  36   2.0000      -0.687688       -18.7130
  37   2.0000      -0.661704       -18.0059
  38   2.0000      -0.635864       -17.3027
  39   2.0000      -0.622666       -16.9436
  40   2.0000      -0.597038       -16.2462
  41   2.0000      -0.573110       -15.5951
  42   2.0000      -0.569445       -15.4954
  43   2.0000      -0.558310       -15.1924
  44   2.0000      -0.531208       -14.4549
  45   2.0000      -0.523101       -14.2343
  46   2.0000      -0.521882       -14.2011
  47   2.0000      -0.505289       -13.7496
  48   2.0000      -0.499503       -13.5922
  49   2.0000      -0.498587       -13.5672
  50   2.0000      -0.492274       -13.3954
  51   2.0000      -0.486723       -13.2444
  52   2.0000      -0.476580       -12.9684
  53   2.0000      -0.467487       -12.7210
  54   2.0000      -0.460294       -12.5252
  55   2.0000      -0.451087       -12.2747
  56   2.0000      -0.441862       -12.0237
  57   2.0000      -0.438468       -11.9313
  58   2.0000      -0.437084       -11.8937
  59   2.0000      -0.428556       -11.6616
  60   2.0000      -0.420723       -11.4484
  61   2.0000      -0.417348       -11.3566
  62   2.0000      -0.404636       -11.0107
  63   2.0000      -0.346782        -9.4364
  64   2.0000      -0.333725        -9.0811
  65   2.0000      -0.327726        -8.9179
  66   2.0000      -0.287676        -7.8281
  67   0.0000       0.028351         0.7715
  68   0.0000       0.074638         2.0310
  69   0.0000       0.110929         3.0185
  70   0.0000       0.122318         3.3284
  71   0.0000       0.124198         3.3796

MULLIKEN ATOMIC CHARGES
-----------------------
   0 S :    0.138276
   1 C :   -0.161149
   2 C :   -0.056243
   3 C :   -0.004056
   4 C :   -0.145944
   5 H :    0.024124
   6 C :    0.091368
   7 H :    0.004269
   8 H :    0.029344
   9 C :   -0.094155
  10 H :    0.035606
  11 H :    0.032283
  12 C :   -0.040213
  13 H :    0.040372
  14 H :    0.032747
  15 H :    0.021892
  16 S :    0.105969
  17 C :   -0.105215
  18 C :   -0.034270
  19 C :   -0.059269
  20 C :   -0.161979
  21 H :    0.038652
  22 C :    0.096751
  23 H :    0.012331
  24 H :    0.003557
  25 C :   -0.059201
  26 H :    0.019329
  27 H :    0.014004
  28 C :   -0.026049
  29 H :    0.029895
  30 H :    0.010786
  31 H :    0.035617
  32 H :    0.059580
  33 H :    0.070991
Sum of atomic charges:    0.0000000

LOEWDIN ATOMIC CHARGES
----------------------
   0 S :    0.429714
   1 C :   -0.212644
   2 C :   -0.068295
   3 C :   -0.061980
   4 C :   -0.208473
   5 H :    0.035734
   6 C :   -0.028831
   7 H :    0.025433
   8 H :    0.035628
   9 C :   -0.040835
  10 H :    0.023664
  11 H :    0.023705
  12 C :   -0.061421
  13 H :    0.030630
  14 H :    0.024981
  15 H :    0.019013
  16 S :    0.413492
  17 C :   -0.194221
  18 C :   -0.075605
  19 C :   -0.047066
  20 C :   -0.202958
  21 H :    0.040709
  22 C :   -0.039597
  23 H :    0.029180
  24 H :    0.024872
  25 C :   -0.042435
  26 H :    0.019525
  27 H :    0.025768
  28 C :   -0.063356
  29 H :    0.024584
  30 H :    0.018673
  31 H :    0.033519
  32 H :    0.034552
  33 H :    0.034341

  Mayer bond orders larger than 0.100000
B(  0-S ,  1-C ) :   1.1580 B(  0-S ,  4-C ) :   1.1569 B(  1-C ,  2-C ) :   1.5898
B(  1-C , 32-H ) :   0.9557 B(  2-C ,  3-C ) :   1.2867 B(  2-C ,  6-C ) :   1.0145
B(  3-C ,  4-C ) :   1.5351 B(  3-C ,  5-H ) :   0.9834 B(  4-C , 20-C ) :   1.0640
B(  6-C ,  7-H ) :   0.9432 B(  6-C ,  8-H ) :   0.9349 B(  6-C ,  9-C ) :   1.0444
B(  9-C , 10-H ) :   0.9649 B(  9-C , 11-H ) :   0.9506 B(  9-C , 12-C ) :   1.0880
B( 12-C , 13-H ) :   0.9753 B( 12-C , 14-H ) :   0.9756 B( 12-C , 15-H ) :   0.9760
B( 16-S , 17-C ) :   1.1614 B( 16-S , 20-C ) :   1.1424 B( 17-C , 18-C ) :   1.5976
B( 17-C , 33-H ) :   0.9578 B( 18-C , 19-C ) :   1.2436 B( 18-C , 21-H ) :   0.9849
B( 19-C , 20-C ) :   1.5790 B( 19-C , 22-C ) :   1.0602 B( 22-C , 23-H ) :   0.9275
B( 22-C , 24-H ) :   0.9161 B( 22-C , 25-C ) :   1.0743 B( 25-C , 26-H ) :   0.9540
B( 25-C , 27-H ) :   0.9482 B( 25-C , 28-C ) :   1.0827 B( 28-C , 29-H ) :   0.9750
B( 28-C , 30-H ) :   0.9735 B( 28-C , 31-H ) :   0.9741

Dispersion correction           -0.013832702
FINAL SINGLE POINT ENERGY     -1339.871308406956

DIPOLE MOMENT
-------------
                                X             Y             Z
Electronic contribution:    -23.51837     -10.84842     -21.21419
Nuclear contribution   :     24.03382      11.07002      21.62973
                        -----------------------------------------
Total Dipole Moment    :      0.51545       0.22161       0.41553
                        -----------------------------------------
Magnitude (a.u.)       :      0.69819
Magnitude (Debye)      :      1.77465

Rotational constants in cm-1:     0.016493     0.009634     0.006381
Rotational constants in MHz :   494.447669   288.818386   191.290154

                             ****ORCA TERMINATED NORMALLY****
TOTAL RUN TIME: 0 days 0 hours 0 minutes 34 seconds 177 msec
