                         Program Version 4.2.1 -  RELEASE  -
|  1> ! wB97X-D3 SP def2-SVP
|  2> %pal
|  3> nprocs 16
|  4> end
|  5>
|  6> * xyz 0 1
|  7> S 	 3.52761 	 -17.8787 	 83.8855
|  8> C 	 3.15054 	 -19.1323 	 85.1091
|  9> C 	 2.04288 	 -18.7036 	 85.8133
| 10> C 	 1.68679 	 -17.3527 	 85.5786
| 11> C 	 2.52928 	 -16.6572 	 84.7291
| 12> H 	 0.855097 	 -16.867 	 85.9761
| 13> C 	 1.15686 	 -19.663 	 86.6752
| 14> H 	 1.24105 	 -20.6389 	 86.2741
| 15> H 	 0.1169 	 -19.2864 	 86.6662
| 16> C 	 1.761 	 -19.8248 	 88.1171
| 17> H 	 2.82325 	 -20.0401 	 88.1085
| 18> H 	 1.66877 	 -18.8449 	 88.569
| 19> C 	 1.08139 	 -20.7293 	 89.1883
| 20> H 	 1.59734 	 -20.6206 	 90.1814
| 21> H 	 0.100649 	 -20.3431 	 89.3496
| 22> H 	 1.12961 	 -21.7827 	 88.9524
| 23> S 	 2.2368 	 -15.2494 	 82.5273
| 24> C 	 2.22936 	 -13.4866 	 82.5724
| 25> C 	 2.34008 	 -12.9627 	 83.7939
| 26> C 	 2.35482 	 -14.0311 	 84.7915
| 27> C 	 2.43436 	 -15.3135 	 84.2008
| 28> H 	 2.47765 	 -11.9695 	 83.9914
| 29> C 	 2.64061 	 -13.6928 	 86.3071
| 30> H 	 2.30588 	 -14.5524 	 86.8793
| 31> H 	 1.92208 	 -12.8862 	 86.6255
| 32> C 	 4.11646 	 -13.3613 	 86.6543
| 33> H 	 4.53693 	 -12.638 	 85.9048
| 34> H 	 4.59413 	 -14.3343 	 86.4551
| 35> C 	 4.46358 	 -12.9478 	 88.1104
| 36> H 	 3.84796 	 -12.0818 	 88.2797
| 37> H 	 5.52505 	 -12.6585 	 88.3307
| 38> H 	 4.27384 	 -13.7381 	 88.8816
| 39> H 	 3.47833 	 -20.1502 	 85.0321
| 40> H 	 2.18498 	 -12.8214 	 81.6738
| 41> *
| 42>
| 43>                          ****END OF INPUT****

CARTESIAN COORDINATES (ANGSTROEM)
---------------------------------
  S      3.527610  -17.878700   83.885500
  C      3.150540  -19.132300   85.109100
  C      2.042880  -18.703600   85.813300
  C      1.686790  -17.352700   85.578600
  C      2.529280  -16.657200   84.729100
  H      0.855097  -16.867000   85.976100
  C      1.156860  -19.663000   86.675200
  H      1.241050  -20.638900   86.274100
  H      0.116900  -19.286400   86.666200
  C      1.761000  -19.824800   88.117100
  H      2.823250  -20.040100   88.108500
  H      1.668770  -18.844900   88.569000
  C      1.081390  -20.729300   89.188300
  H      1.597340  -20.620600   90.181400
  H      0.100649  -20.343100   89.349600
  H      1.129610  -21.782700   88.952400
  S      2.236800  -15.249400   82.527300
  C      2.229360  -13.486600   82.572400
  C      2.340080  -12.962700   83.793900
  C      2.354820  -14.031100   84.791500
  C      2.434360  -15.313500   84.200800
  H      2.477650  -11.969500   83.991400
  C      2.640610  -13.692800   86.307100
  H      2.305880  -14.552400   86.879300
  H      1.922080  -12.886200   86.625500
  C      4.116460  -13.361300   86.654300
  H      4.536930  -12.638000   85.904800
  H      4.594130  -14.334300   86.455100
  C      4.463580  -12.947800   88.110400
  H      3.847960  -12.081800   88.279700
  H      5.525050  -12.658500   88.330700
  H      4.273840  -13.738100   88.881600
  H      3.478330  -20.150200   85.032100
  H      2.184980  -12.821400   81.673800

 Total Charge           Charge          ....    0
 Multiplicity           Mult            ....    1
 Number of Electrons    NEL             ....  134
 Basis Dimension        Dim             ....  322

ORBITAL ENERGIES
----------------

  NO   OCC          E(Eh)            E(eV)
   0   2.0000     -88.967146     -2420.9191
   1   2.0000     -88.964115     -2420.8366
   2   2.0000     -10.334880      -281.2264
   3   2.0000     -10.327959      -281.0381
   4   2.0000     -10.317643      -280.7574
   5   2.0000     -10.316522      -280.7268
   6   2.0000     -10.312017      -280.6043
   7   2.0000     -10.305612      -280.4300
   8   2.0000     -10.298886      -280.2469
   9   2.0000     -10.298505      -280.2366
  10   2.0000     -10.292374      -280.0697
  11   2.0000     -10.291447      -280.0445
  12   2.0000     -10.289126      -279.9814
  13   2.0000     -10.285995      -279.8962
  14   2.0000     -10.284428      -279.8535
  15   2.0000     -10.280034      -279.7340
  16   2.0000      -8.083088      -219.9520
  17   2.0000      -8.077849      -219.8095
  18   2.0000      -6.041625      -164.4010
  19   2.0000      -6.037481      -164.2882
  20   2.0000      -6.036576      -164.2636
  21   2.0000      -6.033665      -164.1844
  22   2.0000      -6.032684      -164.1577
  23   2.0000      -6.028226      -164.0364
  24   2.0000      -1.011943       -27.5364
  25   2.0000      -0.983696       -26.7677
  26   2.0000      -0.904522       -24.6133
  27   2.0000      -0.896579       -24.3972
  28   2.0000      -0.875979       -23.8366
  29   2.0000      -0.845818       -23.0159
  30   2.0000      -0.841836       -22.9075
  31   2.0000      -0.819858       -22.3095
  32   2.0000      -0.782012       -21.2796
  33   2.0000      -0.768248       -20.9051
  34   2.0000      -0.707150       -19.2425
  35   2.0000      -0.695888       -18.9361
  36   2.0000      -0.688511       -18.7353
  37   2.0000      -0.667229       -18.1562
  38   2.0000      -0.645332       -17.5604
  39   2.0000      -0.623095       -16.9553
  40   2.0000      -0.591615       -16.0987
  41   2.0000      -0.570158       -15.5148
  42   2.0000      -0.564582       -15.3631
  43   2.0000      -0.554735       -15.0951
  44   2.0000      -0.521116       -14.1803
  45   2.0000      -0.520015       -14.1503
  46   2.0000      -0.516347       -14.0505
  47   2.0000      -0.508822       -13.8457
  48   2.0000      -0.505231       -13.7480
  49   2.0000      -0.502672       -13.6784
  50   2.0000      -0.489643       -13.3239
  51   2.0000      -0.486487       -13.2380
  52   2.0000      -0.478416       -13.0184
  53   2.0000      -0.468915       -12.7598
  54   2.0000      -0.457886       -12.4597
  55   2.0000      -0.454673       -12.3723
  56   2.0000      -0.438596       -11.9348
  57   2.0000      -0.435786       -11.8584
  58   2.0000      -0.429308       -11.6821
  59   2.0000      -0.419288       -11.4094
  60   2.0000      -0.417524       -11.3614
  61   2.0000      -0.412295       -11.2191
  62   2.0000      -0.408632       -11.1194
  63   2.0000      -0.355514        -9.6740
  64   2.0000      -0.331257        -9.0140
  65   2.0000      -0.326684        -8.8895
  66   2.0000      -0.292419        -7.9571
  67   0.0000       0.023063         0.6276
  68   0.0000       0.063636         1.7316
  69   0.0000       0.102097         2.7782
  70   0.0000       0.121076         3.2946
  71   0.0000       0.130036         3.5385

MULLIKEN ATOMIC CHARGES
-----------------------
   0 S :    0.074965
   1 C :   -0.103435
   2 C :   -0.099430
   3 C :    0.069092
   4 C :   -0.143413
   5 H :   -0.009415
   6 C :    0.096933
   7 H :    0.015594
   8 H :    0.036733
   9 C :   -0.108445
  10 H :    0.030380
  11 H :    0.019000
  12 C :   -0.038359
  13 H :    0.037196
  14 H :    0.025945
  15 H :    0.034574
  16 S :    0.113985
  17 C :   -0.089020
  18 C :    0.012577
  19 C :   -0.066895
  20 C :   -0.150985
  21 H :   -0.010415
  22 C :    0.047041
  23 H :    0.016070
  24 H :    0.026224
  25 C :   -0.080891
  26 H :    0.037005
  27 H :    0.036117
  28 C :   -0.058659
  29 H :    0.027488
  30 H :    0.044887
  31 H :    0.041083
  32 H :    0.050935
  33 H :    0.065539
Sum of atomic charges:   -0.0000000

LOEWDIN ATOMIC CHARGES
----------------------
   0 S :    0.367944
   1 C :   -0.180252
   2 C :   -0.057065
   3 C :   -0.057152
   4 C :   -0.176160
   5 H :    0.021702
   6 C :   -0.020257
   7 H :    0.021858
   8 H :    0.034435
   9 C :   -0.045690
  10 H :    0.022100
  11 H :    0.021323
  12 C :   -0.066309
  13 H :    0.035086
  14 H :    0.020080
  15 H :    0.019638
  16 S :    0.427889
  17 C :   -0.182665
  18 C :   -0.056195
  19 C :   -0.052929
  20 C :   -0.218378
  21 H :    0.020355
  22 C :   -0.036837
  23 H :    0.025004
  24 H :    0.028068
  25 C :   -0.049058
  26 H :    0.027936
  27 H :    0.029019
  28 C :   -0.073867
  29 H :    0.020692
  30 H :    0.034220
  31 H :    0.030757
  32 H :    0.026882
  33 H :    0.037828

  Mayer bond orders larger than 0.100000
B(  0-S ,  1-C ) :   1.1253 B(  0-S ,  4-C ) :   1.1389 B(  1-C ,  2-C ) :   1.6074
B(  1-C ,  4-C ) :   0.1096 B(  1-C , 32-H ) :   0.9718 B(  2-C ,  3-C ) :   1.2489
B(  2-C ,  6-C ) :   1.0148 B(  3-C ,  4-C ) :   1.5589 B(  3-C ,  5-H ) :   1.0058
B(  4-C , 20-C ) :   1.0432 B(  6-C ,  7-H ) :   0.9423 B(  6-C ,  8-H ) :   0.9478
B(  6-C ,  9-C ) :   1.0511 B(  9-C , 10-H ) :   0.9614 B(  9-C , 11-H ) :   0.9593
B(  9-C , 12-C ) :   1.0821 B( 12-C , 13-H ) :   0.9730 B( 12-C , 14-H ) :   0.9757
B( 12-C , 15-H ) :   0.9777 B( 16-S , 17-C ) :   1.1300 B( 16-S , 20-C ) :   1.1638
B( 17-C , 18-C ) :   1.6503 B( 17-C , 33-H ) :   0.9580 B( 18-C , 19-C ) :   1.2118
B( 18-C , 21-H ) :   1.0058 B( 19-C , 20-C ) :   1.5930 B( 19-C , 22-C ) :   1.0534
B( 22-C , 23-H ) :   0.9372 B( 22-C , 24-H ) :   0.9373 B( 22-C , 25-C ) :   1.0473
B( 25-C , 26-H ) :   0.9600 B( 25-C , 27-H ) :   0.9555 B( 25-C , 28-C ) :   1.0689
B( 28-C , 29-H ) :   0.9770 B( 28-C , 30-H ) :   0.9749 B( 28-C , 31-H ) :   0.9758

Dispersion correction           -0.013378810
FINAL SINGLE POINT ENERGY     -1339.856744647762

DIPOLE MOMENT
-------------
                                X             Y             Z
Electronic contribution:      0.89199       1.69855     -29.43485
Nuclear contribution   :     -1.13122      -1.60668      29.88603
                        -----------------------------------------
Total Dipole Moment    :     -0.23923       0.09187       0.45119
                        -----------------------------------------
Magnitude (a.u.)       :      0.51888
Magnitude (Debye)      :      1.31890

Rotational constants in cm-1:     0.017597     0.007965     0.006163
Rotational constants in MHz :   527.544697   238.787216   184.749324

                             ****ORCA TERMINATED NORMALLY****
TOTAL RUN TIME: 0 days 0 hours 0 minutes 33 seconds 742 msec
