                         Program Version 4.2.1 -  RELEASE  -
|  1> ! wB97X-D3 SP def2-SVP
|  2> %pal
|  3> nprocs 16
|  4> end
|  5>
|  6> * xyz 0 1
|  7> S 	 -45.1134 	 25.0924 	 87.6179
|  8> C 	 -46.1129 	 26.142 	 86.717
|  9> C 	 -45.3563 	 27.1714 	 86.2323
| 10> C 	 -43.9808 	 27.0136 	 86.5368
| 11> C 	 -43.6685 	 25.9054 	 87.253
| 12> H 	 -43.2354 	 27.7173 	 86.179
| 13> C 	 -45.9359 	 28.2855 	 85.4677
| 14> H 	 -45.827 	 29.1416 	 86.0664
| 15> H 	 -46.9716 	 28.1952 	 85.3899
| 16> C 	 -45.3554 	 28.4894 	 84.0398
| 17> H 	 -45.7661 	 29.4079 	 83.6997
| 18> H 	 -44.3 	 28.6591 	 83.9012
| 19> C 	 -46.0176 	 27.4809 	 82.9857
| 20> H 	 -47.0674 	 27.7147 	 82.8943
| 21> H 	 -45.4866 	 27.5952 	 82.046
| 22> H 	 -45.7726 	 26.4826 	 83.43
| 23> S 	 -42.2722 	 23.6745 	 87.8855
| 24> C 	 -40.5309 	 23.7074 	 87.8753
| 25> C 	 -39.9994 	 25.0021 	 87.7693
| 26> C 	 -41.0472 	 26.0236 	 87.7382
| 27> C 	 -42.3429 	 25.417 	 87.6696
| 28> H 	 -38.9733 	 25.0875 	 87.7372
| 29> C 	 -40.6424 	 27.471 	 87.5634
| 30> H 	 -40.0955 	 27.6597 	 88.5481
| 31> H 	 -41.5421 	 28.0184 	 87.5028
| 32> C 	 -39.6745 	 27.7595 	 86.4918
| 33> H 	 -38.8257 	 27.0316 	 86.4989
| 34> H 	 -39.2963 	 28.7905 	 86.7781
| 35> C 	 -40.36 	 27.8207 	 85.0801
| 36> H 	 -39.7887 	 28.0867 	 84.2197
| 37> H 	 -41.124 	 28.6485 	 85.0331
| 38> H 	 -40.7749 	 26.8646 	 84.9005
| 39> H 	 -47.1913 	 26.1449 	 86.5242
| 40> H 	 -39.8319 	 22.8324 	 87.8976
| 41> *
| 42>
| 43>                          ****END OF INPUT****

CARTESIAN COORDINATES (ANGSTROEM)
---------------------------------
  S    -45.113400   25.092400   87.617900
  C    -46.112900   26.142000   86.717000
  C    -45.356300   27.171400   86.232300
  C    -43.980800   27.013600   86.536800
  C    -43.668500   25.905400   87.253000
  H    -43.235400   27.717300   86.179000
  C    -45.935900   28.285500   85.467700
  H    -45.827000   29.141600   86.066400
  H    -46.971600   28.195200   85.389900
  C    -45.355400   28.489400   84.039800
  H    -45.766100   29.407900   83.699700
  H    -44.300000   28.659100   83.901200
  C    -46.017600   27.480900   82.985700
  H    -47.067400   27.714700   82.894300
  H    -45.486600   27.595200   82.046000
  H    -45.772600   26.482600   83.430000
  S    -42.272200   23.674500   87.885500
  C    -40.530900   23.707400   87.875300
  C    -39.999400   25.002100   87.769300
  C    -41.047200   26.023600   87.738200
  C    -42.342900   25.417000   87.669600
  H    -38.973300   25.087500   87.737200
  C    -40.642400   27.471000   87.563400
  H    -40.095500   27.659700   88.548100
  H    -41.542100   28.018400   87.502800
  C    -39.674500   27.759500   86.491800
  H    -38.825700   27.031600   86.498900
  H    -39.296300   28.790500   86.778100
  C    -40.360000   27.820700   85.080100
  H    -39.788700   28.086700   84.219700
  H    -41.124000   28.648500   85.033100
  H    -40.774900   26.864600   84.900500
  H    -47.191300   26.144900   86.524200
  H    -39.831900   22.832400   87.897600

 Total Charge           Charge          ....    0
 Multiplicity           Mult            ....    1
 Number of Electrons    NEL             ....  134
 Basis Dimension        Dim             ....  322

ORBITAL ENERGIES
----------------

  NO   OCC          E(Eh)            E(eV)
   0   2.0000     -88.967971     -2420.9416
   1   2.0000     -88.961793     -2420.7735
   2   2.0000     -10.334746      -281.2227
   3   2.0000     -10.325588      -280.9735
   4   2.0000     -10.322775      -280.8970
   5   2.0000     -10.313563      -280.6463
   6   2.0000     -10.306185      -280.4456
   7   2.0000     -10.298086      -280.2252
   8   2.0000     -10.294485      -280.1272
   9   2.0000     -10.292932      -280.0849
  10   2.0000     -10.289269      -279.9852
  11   2.0000     -10.284657      -279.8597
  12   2.0000     -10.284329      -279.8508
  13   2.0000     -10.281459      -279.7727
  14   2.0000     -10.280758      -279.7536
  15   2.0000     -10.279922      -279.7309
  16   2.0000      -8.082636      -219.9397
  17   2.0000      -8.078275      -219.8210
  18   2.0000      -6.041201      -164.3894
  19   2.0000      -6.037168      -164.2797
  20   2.0000      -6.036804      -164.2698
  21   2.0000      -6.033331      -164.1753
  22   2.0000      -6.032431      -164.1508
  23   2.0000      -6.029016      -164.0579
  24   2.0000      -1.016325       -27.6556
  25   2.0000      -0.984687       -26.7947
  26   2.0000      -0.920535       -25.0490
  27   2.0000      -0.913411       -24.8552
  28   2.0000      -0.868026       -23.6202
  29   2.0000      -0.848609       -23.0918
  30   2.0000      -0.841647       -22.9024
  31   2.0000      -0.817823       -22.2541
  32   2.0000      -0.786259       -21.3952
  33   2.0000      -0.775545       -21.1036
  34   2.0000      -0.715987       -19.4830
  35   2.0000      -0.699495       -19.0342
  36   2.0000      -0.690927       -18.8011
  37   2.0000      -0.658792       -17.9266
  38   2.0000      -0.637902       -17.3582
  39   2.0000      -0.628964       -17.1150
  40   2.0000      -0.597280       -16.2528
  41   2.0000      -0.573453       -15.6045
  42   2.0000      -0.560594       -15.2545
  43   2.0000      -0.555093       -15.1049
  44   2.0000      -0.543674       -14.7941
  45   2.0000      -0.536896       -14.6097
  46   2.0000      -0.520364       -14.1598
  47   2.0000      -0.508537       -13.8380
  48   2.0000      -0.506004       -13.7691
  49   2.0000      -0.500458       -13.6181
  50   2.0000      -0.493547       -13.4301
  51   2.0000      -0.474759       -12.9189
  52   2.0000      -0.470811       -12.8114
  53   2.0000      -0.467613       -12.7244
  54   2.0000      -0.462227       -12.5778
  55   2.0000      -0.452102       -12.3023
  56   2.0000      -0.447099       -12.1662
  57   2.0000      -0.441926       -12.0254
  58   2.0000      -0.438026       -11.9193
  59   2.0000      -0.427949       -11.6451
  60   2.0000      -0.423112       -11.5135
  61   2.0000      -0.409358       -11.1392
  62   2.0000      -0.401006       -10.9119
  63   2.0000      -0.359382        -9.7793
  64   2.0000      -0.332630        -9.0513
  65   2.0000      -0.323371        -8.7994
  66   2.0000      -0.283147        -7.7048
  67   0.0000       0.025173         0.6850
  68   0.0000       0.086398         2.3510
  69   0.0000       0.105946         2.8829
  70   0.0000       0.117200         3.1892
  71   0.0000       0.130658         3.5554

MULLIKEN ATOMIC CHARGES
-----------------------
   0 S :    0.105032
   1 C :   -0.111041
   2 C :   -0.117655
   3 C :   -0.004745
   4 C :   -0.082481
   5 H :   -0.021079
   6 C :    0.132845
   7 H :    0.021875
   8 H :   -0.017008
   9 C :   -0.086382
  10 H :    0.007404
  11 H :    0.032254
  12 C :   -0.066296
  13 H :    0.039594
  14 H :    0.037708
  15 H :    0.049906
  16 S :    0.105369
  17 C :   -0.097448
  18 C :   -0.039387
  19 C :   -0.070366
  20 C :   -0.123954
  21 H :   -0.004474
  22 C :    0.077868
  23 H :    0.049580
  24 H :    0.010515
  25 C :   -0.076219
  26 H :    0.042020
  27 H :    0.038751
  28 C :   -0.051578
  29 H :    0.028320
  30 H :    0.031933
  31 H :    0.040657
  32 H :    0.047146
  33 H :    0.071338
Sum of atomic charges:   -0.0000000

LOEWDIN ATOMIC CHARGES
----------------------
   0 S :    0.433906
   1 C :   -0.219255
   2 C :   -0.066616
   3 C :   -0.076906
   4 C :   -0.204988
   5 H :    0.024241
   6 C :   -0.024062
   7 H :    0.030402
   8 H :    0.022436
   9 C :   -0.037264
  10 H :    0.017072
  11 H :    0.020464
  12 C :   -0.061176
  13 H :    0.022709
  14 H :    0.025183
  15 H :    0.031375
  16 S :    0.407810
  17 C :   -0.192115
  18 C :   -0.067201
  19 C :   -0.048456
  20 C :   -0.195366
  21 H :    0.016847
  22 C :   -0.036332
  23 H :    0.049554
  24 H :    0.022554
  25 C :   -0.040062
  26 H :    0.028005
  27 H :    0.032051
  28 C :   -0.067436
  29 H :    0.023033
  30 H :    0.028678
  31 H :    0.023783
  32 H :    0.037180
  33 H :    0.039953

  Mayer bond orders larger than 0.100000
B(  0-S ,  1-C ) :   1.1344 B(  0-S ,  4-C ) :   1.1661 B(  1-C ,  2-C ) :   1.5970
B(  1-C , 32-H ) :   0.9640 B(  2-C ,  3-C ) :   1.2688 B(  2-C ,  6-C ) :   1.0450
B(  3-C ,  4-C ) :   1.5525 B(  3-C ,  5-H ) :   0.9946 B(  4-C , 20-C ) :   1.0460
B(  6-C ,  7-H ) :   0.9239 B(  6-C ,  8-H ) :   0.9277 B(  6-C ,  9-C ) :   1.0685
B(  9-C , 10-H ) :   0.9533 B(  9-C , 11-H ) :   0.9643 B(  9-C , 12-C ) :   1.0588
B( 12-C , 13-H ) :   0.9780 B( 12-C , 14-H ) :   0.9767 B( 12-C , 15-H ) :   0.9836
B( 16-S , 17-C ) :   1.1549 B( 16-S , 20-C ) :   1.1390 B( 17-C , 18-C ) :   1.6316
B( 17-C , 33-H ) :   0.9590 B( 18-C , 19-C ) :   1.2139 B( 18-C , 21-H ) :   0.9984
B( 19-C , 20-C ) :   1.5683 B( 19-C , 22-C ) :   1.0420 B( 22-C , 23-H ) :   0.9209
B( 22-C , 24-H ) :   0.9363 B( 22-C , 25-C ) :   1.0779 B( 25-C , 26-H ) :   0.9500
B( 25-C , 27-H ) :   0.9522 B( 25-C , 28-C ) :   1.0651 B( 28-C , 29-H ) :   0.9737
B( 28-C , 30-H ) :   0.9691 B( 28-C , 31-H ) :   0.9772

Dispersion correction           -0.014866500
FINAL SINGLE POINT ENERGY     -1339.858659228682

DIPOLE MOMENT
-------------
                                X             Y             Z
Electronic contribution:     -3.75675     -21.30478      19.22628
Nuclear contribution   :      4.09192      21.93778     -19.64396
                        -----------------------------------------
Total Dipole Moment    :      0.33517       0.63300      -0.41768
                        -----------------------------------------
Magnitude (a.u.)       :      0.82915
Magnitude (Debye)      :      2.10754

Rotational constants in cm-1:     0.018596     0.009741     0.007138
Rotational constants in MHz :   557.504478   292.015488   214.002620

                             ****ORCA TERMINATED NORMALLY****
TOTAL RUN TIME: 0 days 0 hours 0 minutes 31 seconds 463 msec
