                         Program Version 4.2.1 -  RELEASE  -
|  1> ! wB97X-D3 SP def2-SVP
|  2> %pal
|  3> nprocs 16
|  4> end
|  5>
|  6> * xyz 0 1
|  7> S 	 28.0099 	 32.0534 	 57.3986
|  8> C 	 27.2279 	 30.8559 	 56.3888
|  9> C 	 27.5365 	 30.9981 	 55.0548
| 10> C 	 28.259 	 32.2486 	 54.825
| 11> C 	 28.4289 	 32.9405 	 55.9696
| 12> H 	 28.6378 	 32.5348 	 53.8967
| 13> C 	 27.1242 	 30.1356 	 53.929
| 14> H 	 26.4069 	 30.7989 	 53.3995
| 15> H 	 26.5185 	 29.3572 	 54.3886
| 16> C 	 28.2138 	 29.6776 	 53.0081
| 17> H 	 28.5527 	 30.5997 	 52.4644
| 18> H 	 29.0965 	 29.3359 	 53.5043
| 19> C 	 27.7044 	 28.7158 	 51.9771
| 20> H 	 28.5564 	 28.2582 	 51.3597
| 21> H 	 27.2162 	 27.8658 	 52.4794
| 22> H 	 27.0321 	 29.1631 	 51.2092
| 23> S 	 28.1718 	 35.6888 	 56.2093
| 24> C 	 29.6407 	 36.7369 	 56.0517
| 25> C 	 30.7454 	 35.9617 	 56.0535
| 26> C 	 30.4984 	 34.5473 	 55.9683
| 27> C 	 29.1065 	 34.2701 	 56.0618
| 28> H 	 31.7149 	 36.4873 	 55.9409
| 29> C 	 31.5756 	 33.5634 	 55.6702
| 30> H 	 31.0717 	 32.5418 	 55.7446
| 31> H 	 32.259 	 33.7524 	 56.5436
| 32> C 	 32.3603 	 33.6267 	 54.3278
| 33> H 	 33.095 	 32.822 	 54.3837
| 34> H 	 32.9168 	 34.5629 	 54.3129
| 35> C 	 31.5426 	 33.4209 	 53.0539
| 36> H 	 32.1849 	 33.1453 	 52.2078
| 37> H 	 30.8433 	 34.214 	 52.7875
| 38> H 	 30.8489 	 32.5899 	 53.1083
| 39> H 	 26.5979 	 30.0579 	 56.7183
| 40> H 	 29.7794 	 37.7863 	 55.992
| 41> *
| 42>
| 43>                          ****END OF INPUT****

CARTESIAN COORDINATES (ANGSTROEM)
---------------------------------
  S     28.009900   32.053400   57.398600
  C     27.227900   30.855900   56.388800
  C     27.536500   30.998100   55.054800
  C     28.259000   32.248600   54.825000
  C     28.428900   32.940500   55.969600
  H     28.637800   32.534800   53.896700
  C     27.124200   30.135600   53.929000
  H     26.406900   30.798900   53.399500
  H     26.518500   29.357200   54.388600
  C     28.213800   29.677600   53.008100
  H     28.552700   30.599700   52.464400
  H     29.096500   29.335900   53.504300
  C     27.704400   28.715800   51.977100
  H     28.556400   28.258200   51.359700
  H     27.216200   27.865800   52.479400
  H     27.032100   29.163100   51.209200
  S     28.171800   35.688800   56.209300
  C     29.640700   36.736900   56.051700
  C     30.745400   35.961700   56.053500
  C     30.498400   34.547300   55.968300
  C     29.106500   34.270100   56.061800
  H     31.714900   36.487300   55.940900
  C     31.575600   33.563400   55.670200
  H     31.071700   32.541800   55.744600
  H     32.259000   33.752400   56.543600
  C     32.360300   33.626700   54.327800
  H     33.095000   32.822000   54.383700
  H     32.916800   34.562900   54.312900
  C     31.542600   33.420900   53.053900
  H     32.184900   33.145300   52.207800
  H     30.843300   34.214000   52.787500
  H     30.848900   32.589900   53.108300
  H     26.597900   30.057900   56.718300
  H     29.779400   37.786300   55.992000

 Total Charge           Charge          ....    0
 Multiplicity           Mult            ....    1
 Number of Electrons    NEL             ....  134
 Basis Dimension        Dim             ....  322

ORBITAL ENERGIES
----------------

  NO   OCC          E(Eh)            E(eV)
   0   2.0000     -88.965251     -2420.8675
   1   2.0000     -88.964804     -2420.8554
   2   2.0000     -10.325568      -280.9730
   3   2.0000     -10.324421      -280.9418
   4   2.0000     -10.314026      -280.6589
   5   2.0000     -10.308799      -280.5167
   6   2.0000     -10.301468      -280.3172
   7   2.0000     -10.297277      -280.2031
   8   2.0000     -10.295222      -280.1472
   9   2.0000     -10.291370      -280.0424
  10   2.0000     -10.291318      -280.0410
  11   2.0000     -10.290355      -280.0148
  12   2.0000     -10.289037      -279.9789
  13   2.0000     -10.287840      -279.9464
  14   2.0000     -10.287720      -279.9431
  15   2.0000     -10.278341      -279.6879
  16   2.0000      -8.079889      -219.8650
  17   2.0000      -8.079561      -219.8560
  18   2.0000      -6.038457      -164.3148
  19   2.0000      -6.038238      -164.3088
  20   2.0000      -6.034578      -164.2092
  21   2.0000      -6.034091      -164.1960
  22   2.0000      -6.030344      -164.0940
  23   2.0000      -6.030192      -164.0899
  24   2.0000      -1.005806       -27.3694
  25   2.0000      -0.983339       -26.7580
  26   2.0000      -0.922876       -25.1127
  27   2.0000      -0.904119       -24.6023
  28   2.0000      -0.870637       -23.6912
  29   2.0000      -0.851946       -23.1826
  30   2.0000      -0.846075       -23.0229
  31   2.0000      -0.822552       -22.3828
  32   2.0000      -0.780144       -21.2288
  33   2.0000      -0.768002       -20.8984
  34   2.0000      -0.712748       -19.3949
  35   2.0000      -0.699789       -19.0422
  36   2.0000      -0.691573       -18.8187
  37   2.0000      -0.650455       -17.6998
  38   2.0000      -0.643358       -17.5067
  39   2.0000      -0.623633       -16.9699
  40   2.0000      -0.584961       -15.9176
  41   2.0000      -0.577316       -15.7096
  42   2.0000      -0.564841       -15.3701
  43   2.0000      -0.547819       -14.9069
  44   2.0000      -0.543649       -14.7934
  45   2.0000      -0.528116       -14.3708
  46   2.0000      -0.517157       -14.0726
  47   2.0000      -0.514805       -14.0086
  48   2.0000      -0.509590       -13.8666
  49   2.0000      -0.497546       -13.5389
  50   2.0000      -0.491193       -13.3660
  51   2.0000      -0.476628       -12.9697
  52   2.0000      -0.464757       -12.6467
  53   2.0000      -0.461074       -12.5465
  54   2.0000      -0.458531       -12.4773
  55   2.0000      -0.452179       -12.3044
  56   2.0000      -0.442867       -12.0510
  57   2.0000      -0.439174       -11.9505
  58   2.0000      -0.437339       -11.9006
  59   2.0000      -0.426602       -11.6084
  60   2.0000      -0.419418       -11.4129
  61   2.0000      -0.417413       -11.3584
  62   2.0000      -0.413096       -11.2409
  63   2.0000      -0.340714        -9.2713
  64   2.0000      -0.328395        -8.9361
  65   2.0000      -0.316538        -8.6134
  66   2.0000      -0.304353        -8.2819
  67   0.0000       0.049018         1.3339
  68   0.0000       0.059278         1.6130
  69   0.0000       0.108640         2.9562
  70   0.0000       0.120198         3.2708
  71   0.0000       0.127689         3.4746

MULLIKEN ATOMIC CHARGES
-----------------------
   0 S :    0.124524
   1 C :   -0.115530
   2 C :   -0.098218
   3 C :    0.068119
   4 C :   -0.158583
   5 H :   -0.025345
   6 C :    0.073311
   7 H :    0.043043
   8 H :    0.006210
   9 C :   -0.069832
  10 H :    0.032168
  11 H :    0.032598
  12 C :   -0.067775
  13 H :    0.040771
  14 H :    0.034833
  15 H :    0.041754
  16 S :    0.114846
  17 C :   -0.082321
  18 C :   -0.048348
  19 C :   -0.022193
  20 C :   -0.183168
  21 H :    0.030615
  22 C :    0.012362
  23 H :    0.042371
  24 H :    0.043170
  25 C :   -0.033521
  26 H :    0.032095
  27 H :    0.026530
  28 C :   -0.051071
  29 H :    0.036189
  30 H :    0.042208
  31 H :    0.008685
  32 H :    0.030347
  33 H :    0.039158
Sum of atomic charges:    0.0000000

LOEWDIN ATOMIC CHARGES
----------------------
   0 S :    0.406223
   1 C :   -0.198688
   2 C :   -0.056812
   3 C :   -0.050140
   4 C :   -0.194147
   5 H :    0.017249
   6 C :   -0.037055
   7 H :    0.042214
   8 H :    0.026023
   9 C :   -0.045351
  10 H :    0.030100
  11 H :    0.024031
  12 C :   -0.071566
  13 H :    0.034214
  14 H :    0.025228
  15 H :    0.030011
  16 S :    0.404521
  17 C :   -0.169990
  18 C :   -0.075208
  19 C :   -0.065042
  20 C :   -0.221467
  21 H :    0.037334
  22 C :   -0.044126
  23 H :    0.037982
  24 H :    0.041764
  25 C :   -0.036186
  26 H :    0.029025
  27 H :    0.022249
  28 C :   -0.072200
  29 H :    0.031352
  30 H :    0.028373
  31 H :    0.020132
  32 H :    0.022163
  33 H :    0.027790

  Mayer bond orders larger than 0.100000
B(  0-S ,  1-C ) :   1.1146 B(  0-S ,  4-C ) :   1.1505 B(  1-C ,  2-C ) :   1.6547
B(  1-C , 32-H ) :   0.9653 B(  2-C ,  3-C ) :   1.1832 B(  2-C ,  6-C ) :   1.0324
B(  3-C ,  4-C ) :   1.6268 B(  3-C ,  5-H ) :   1.0069 B(  4-C , 20-C ) :   0.9817
B(  6-C ,  7-H ) :   0.9324 B(  6-C ,  8-H ) :   0.9361 B(  6-C ,  9-C ) :   1.0574
B(  9-C , 10-H ) :   0.9419 B(  9-C , 11-H ) :   0.9607 B(  9-C , 12-C ) :   1.0944
B( 12-C , 13-H ) :   0.9727 B( 12-C , 14-H ) :   0.9735 B( 12-C , 15-H ) :   0.9727
B( 16-S , 17-C ) :   1.1249 B( 16-S , 20-C ) :   1.1598 B( 17-C , 18-C ) :   1.6660
B( 17-C , 33-H ) :   0.9673 B( 18-C , 19-C ) :   1.2179 B( 18-C , 21-H ) :   0.9764
B( 19-C , 20-C ) :   1.5866 B( 19-C , 22-C ) :   1.0476 B( 22-C , 23-H ) :   0.9311
B( 22-C , 24-H ) :   0.9295 B( 22-C , 25-C ) :   1.0771 B( 25-C , 26-H ) :   0.9532
B( 25-C , 27-H ) :   0.9531 B( 25-C , 28-C ) :   1.0734 B( 28-C , 29-H ) :   0.9700
B( 28-C , 30-H ) :   0.9746 B( 28-C , 31-H ) :   0.9686

Dispersion correction           -0.015346261
FINAL SINGLE POINT ENERGY     -1339.876421463552

DIPOLE MOMENT
-------------
                                X             Y             Z
Electronic contribution:    -10.24659      15.83005      22.94148
Nuclear contribution   :     10.63149     -16.11049     -23.56217
                        -----------------------------------------
Total Dipole Moment    :      0.38490      -0.28044      -0.62070
                        -----------------------------------------
Magnitude (a.u.)       :      0.78234
Magnitude (Debye)      :      1.98856

Rotational constants in cm-1:     0.018917     0.009048     0.007148
Rotational constants in MHz :   567.119324   271.250519   214.287178

                             ****ORCA TERMINATED NORMALLY****
TOTAL RUN TIME: 0 days 0 hours 0 minutes 36 seconds 268 msec
