                         Program Version 4.2.1 -  RELEASE  -
|  1> ! wB97X-D3 SP def2-SVP
|  2> %pal
|  3> nprocs 16
|  4> end
|  5>
|  6> * xyz 0 1
|  7> S 	 -37.5489 	 17.1762 	 77.9047
|  8> C 	 -36.2865 	 16.0359 	 77.648
|  9> C 	 -36.7382 	 14.8032 	 77.2937
| 10> C 	 -38.1895 	 14.7334 	 77.356
| 11> C 	 -38.7216 	 15.9556 	 77.8161
| 12> H 	 -38.8605 	 13.86 	 77.2237
| 13> C 	 -35.8713 	 13.6367 	 76.9113
| 14> H 	 -36.452 	 12.7633 	 76.9888
| 15> H 	 -35.0388 	 13.536 	 77.7116
| 16> C 	 -35.1784 	 13.7491 	 75.645
| 17> H 	 -34.4518 	 14.5671 	 75.6237
| 18> H 	 -34.5959 	 12.8317 	 75.6255
| 19> C 	 -36.2333 	 14.0087 	 74.5558
| 20> H 	 -36.7554 	 14.9526 	 74.5781
| 21> H 	 -35.7875 	 13.9383 	 73.5568
| 22> H 	 -36.9754 	 13.1694 	 74.453
| 23> S 	 -40.7783 	 17.787 	 77.6281
| 24> C 	 -42.3797 	 17.2277 	 78.1953
| 25> C 	 -42.3997 	 15.9799 	 78.7204
| 26> C 	 -41.0578 	 15.4227 	 78.7725
| 27> C 	 -40.1739 	 16.2246 	 78.1727
| 28> H 	 -43.3055 	 15.4842 	 79.1436
| 29> C 	 -40.8514 	 14.1128 	 79.4313
| 30> H 	 -40.3443 	 13.4233 	 78.8014
| 31> H 	 -41.8114 	 13.6851 	 79.5853
| 32> C 	 -40.0149 	 14.1485 	 80.7129
| 33> H 	 -39.0276 	 14.5663 	 80.5675
| 34> H 	 -39.7105 	 13.1154 	 80.9615
| 35> C 	 -40.614 	 14.7703 	 81.9347
| 36> H 	 -40.6987 	 15.8271 	 81.7666
| 37> H 	 -40.0146 	 14.7356 	 82.8533
| 38> H 	 -41.5902 	 14.374 	 82.19
| 39> H 	 -35.2397 	 16.4163 	 77.6499
| 40> H 	 -43.1355 	 17.913 	 78.1369
| 41> *
| 42>
| 43>                          ****END OF INPUT****

CARTESIAN COORDINATES (ANGSTROEM)
---------------------------------
  S    -37.548900   17.176200   77.904700
  C    -36.286500   16.035900   77.648000
  C    -36.738200   14.803200   77.293700
  C    -38.189500   14.733400   77.356000
  C    -38.721600   15.955600   77.816100
  H    -38.860500   13.860000   77.223700
  C    -35.871300   13.636700   76.911300
  H    -36.452000   12.763300   76.988800
  H    -35.038800   13.536000   77.711600
  C    -35.178400   13.749100   75.645000
  H    -34.451800   14.567100   75.623700
  H    -34.595900   12.831700   75.625500
  C    -36.233300   14.008700   74.555800
  H    -36.755400   14.952600   74.578100
  H    -35.787500   13.938300   73.556800
  H    -36.975400   13.169400   74.453000
  S    -40.778300   17.787000   77.628100
  C    -42.379700   17.227700   78.195300
  C    -42.399700   15.979900   78.720400
  C    -41.057800   15.422700   78.772500
  C    -40.173900   16.224600   78.172700
  H    -43.305500   15.484200   79.143600
  C    -40.851400   14.112800   79.431300
  H    -40.344300   13.423300   78.801400
  H    -41.811400   13.685100   79.585300
  C    -40.014900   14.148500   80.712900
  H    -39.027600   14.566300   80.567500
  H    -39.710500   13.115400   80.961500
  C    -40.614000   14.770300   81.934700
  H    -40.698700   15.827100   81.766600
  H    -40.014600   14.735600   82.853300
  H    -41.590200   14.374000   82.190000
  H    -35.239700   16.416300   77.649900
  H    -43.135500   17.913000   78.136900

 Total Charge           Charge          ....    0
 Multiplicity           Mult            ....    1
 Number of Electrons    NEL             ....  134
 Basis Dimension        Dim             ....  322

ORBITAL ENERGIES
----------------

  NO   OCC          E(Eh)            E(eV)
   0   2.0000     -88.964007     -2420.8337
   1   2.0000     -88.962893     -2420.8034
   2   2.0000     -10.327905      -281.0366
   3   2.0000     -10.324165      -280.9348
   4   2.0000     -10.312368      -280.6138
   5   2.0000     -10.309335      -280.5313
   6   2.0000     -10.299017      -280.2505
   7   2.0000     -10.298131      -280.2264
   8   2.0000     -10.298062      -280.2245
   9   2.0000     -10.295539      -280.1558
  10   2.0000     -10.285634      -279.8863
  11   2.0000     -10.285105      -279.8719
  12   2.0000     -10.282639      -279.8048
  13   2.0000     -10.279680      -279.7243
  14   2.0000     -10.276069      -279.6260
  15   2.0000     -10.267663      -279.3973
  16   2.0000      -8.080510      -219.8818
  17   2.0000      -8.077611      -219.8030
  18   2.0000      -6.038829      -164.3249
  19   2.0000      -6.036123      -164.2512
  20   2.0000      -6.034768      -164.2144
  21   2.0000      -6.032476      -164.1520
  22   2.0000      -6.031406      -164.1229
  23   2.0000      -6.028036      -164.0312
  24   2.0000      -1.009534       -27.4708
  25   2.0000      -0.988085       -26.8872
  26   2.0000      -0.926285       -25.2055
  27   2.0000      -0.912828       -24.8393
  28   2.0000      -0.863436       -23.4953
  29   2.0000      -0.853268       -23.2186
  30   2.0000      -0.842663       -22.9300
  31   2.0000      -0.811207       -22.0741
  32   2.0000      -0.787370       -21.4254
  33   2.0000      -0.779072       -21.1996
  34   2.0000      -0.707106       -19.2413
  35   2.0000      -0.705201       -19.1895
  36   2.0000      -0.683168       -18.5899
  37   2.0000      -0.670321       -18.2404
  38   2.0000      -0.640189       -17.4204
  39   2.0000      -0.606763       -16.5108
  40   2.0000      -0.597995       -16.2723
  41   2.0000      -0.577581       -15.7168
  42   2.0000      -0.556045       -15.1308
  43   2.0000      -0.551576       -15.0092
  44   2.0000      -0.547754       -14.9052
  45   2.0000      -0.535877       -14.5820
  46   2.0000      -0.515734       -14.0338
  47   2.0000      -0.514097       -13.9893
  48   2.0000      -0.497420       -13.5355
  49   2.0000      -0.493427       -13.4268
  50   2.0000      -0.490611       -13.3502
  51   2.0000      -0.479156       -13.0385
  52   2.0000      -0.472669       -12.8620
  53   2.0000      -0.467696       -12.7267
  54   2.0000      -0.462226       -12.5778
  55   2.0000      -0.448755       -12.2113
  56   2.0000      -0.441108       -12.0032
  57   2.0000      -0.436075       -11.8662
  58   2.0000      -0.430811       -11.7229
  59   2.0000      -0.426177       -11.5969
  60   2.0000      -0.421134       -11.4596
  61   2.0000      -0.411131       -11.1874
  62   2.0000      -0.405557       -11.0358
  63   2.0000      -0.349335        -9.5059
  64   2.0000      -0.333365        -9.0713
  65   2.0000      -0.328285        -8.9331
  66   2.0000      -0.291413        -7.9298
  67   0.0000       0.032745         0.8910
  68   0.0000       0.077037         2.0963
  69   0.0000       0.093117         2.5339
  70   0.0000       0.119142         3.2420
  71   0.0000       0.138579         3.7709

MULLIKEN ATOMIC CHARGES
-----------------------
   0 S :    0.111263
   1 C :   -0.147549
   2 C :   -0.092796
   3 C :    0.008893
   4 C :   -0.153964
   5 H :    0.025450
   6 C :    0.066329
   7 H :    0.006089
   8 H :    0.035612
   9 C :   -0.026368
  10 H :    0.026378
  11 H :    0.028778
  12 C :   -0.074405
  13 H :    0.059805
  14 H :    0.021890
  15 H :    0.025174
  16 S :    0.079108
  17 C :   -0.053671
  18 C :   -0.021294
  19 C :   -0.079999
  20 C :   -0.124089
  21 H :    0.038667
  22 C :    0.137692
  23 H :    0.006651
  24 H :   -0.000610
  25 C :   -0.070644
  26 H :    0.030878
  27 H :    0.013706
  28 C :   -0.034530
  29 H :    0.028859
  30 H :    0.030453
  31 H :    0.018522
  32 H :    0.060405
  33 H :    0.019317
Sum of atomic charges:    0.0000000

LOEWDIN ATOMIC CHARGES
----------------------
   0 S :    0.432538
   1 C :   -0.213380
   2 C :   -0.062770
   3 C :   -0.073780
   4 C :   -0.206174
   5 H :    0.035243
   6 C :   -0.035395
   7 H :    0.020484
   8 H :    0.040277
   9 C :   -0.041757
  10 H :    0.024144
  11 H :    0.029420
  12 C :   -0.071192
  13 H :    0.031134
  14 H :    0.024217
  15 H :    0.028201
  16 S :    0.365302
  17 C :   -0.144918
  18 C :   -0.064501
  19 C :   -0.063132
  20 C :   -0.181745
  21 H :    0.042385
  22 C :   -0.022507
  23 H :    0.027719
  24 H :    0.025711
  25 C :   -0.040212
  26 H :    0.028017
  27 H :    0.023336
  28 C :   -0.068083
  29 H :    0.024648
  30 H :    0.029922
  31 H :    0.019678
  32 H :    0.032786
  33 H :    0.004384

  Mayer bond orders larger than 0.100000
B(  0-S ,  1-C ) :   1.1409 B(  0-S ,  4-C ) :   1.1904 B(  1-C ,  2-C ) :   1.6100
B(  1-C , 32-H ) :   0.9683 B(  2-C ,  3-C ) :   1.2291 B(  2-C ,  6-C ) :   1.0157
B(  3-C ,  4-C ) :   1.5581 B(  3-C ,  5-H ) :   0.9898 B(  4-C , 20-C ) :   0.9885
B(  6-C ,  7-H ) :   0.9399 B(  6-C ,  8-H ) :   0.9362 B(  6-C ,  9-C ) :   1.0866
B(  9-C , 10-H ) :   0.9514 B(  9-C , 11-H ) :   0.9527 B(  9-C , 12-C ) :   1.0666
B( 12-C , 13-H ) :   0.9709 B( 12-C , 14-H ) :   0.9723 B( 12-C , 15-H ) :   0.9751
B( 16-S , 17-C ) :   1.1261 B( 16-S , 20-C ) :   1.1174 B( 17-C , 18-C ) :   1.6552
B( 17-C , 33-H ) :   0.9825 B( 18-C , 19-C ) :   1.1786 B( 18-C , 21-H ) :   0.9824
B( 19-C , 20-C ) :   1.6981 B( 19-C , 22-C ) :   1.0493 B( 22-C , 23-H ) :   0.9196
B( 22-C , 24-H ) :   0.9257 B( 22-C , 25-C ) :   1.0775 B( 25-C , 26-H ) :   0.9517
B( 25-C , 27-H ) :   0.9514 B( 25-C , 28-C ) :   1.0843 B( 28-C , 29-H ) :   0.9737
B( 28-C , 30-H ) :   0.9708 B( 28-C , 31-H ) :   0.9733

Dispersion correction           -0.015252213
FINAL SINGLE POINT ENERGY     -1339.872564066547

DIPOLE MOMENT
-------------
                                X             Y             Z
Electronic contribution:     -6.75432      20.36285      -2.96937
Nuclear contribution   :      6.81498     -20.92705       3.05365
                        -----------------------------------------
Total Dipole Moment    :      0.06066      -0.56420       0.08428
                        -----------------------------------------
Magnitude (a.u.)       :      0.57368
Magnitude (Debye)      :      1.45817

Rotational constants in cm-1:     0.021328     0.008610     0.007430
Rotational constants in MHz :   639.398144   258.130798   222.756348

                             ****ORCA TERMINATED NORMALLY****
TOTAL RUN TIME: 0 days 0 hours 0 minutes 32 seconds 520 msec
