                         Program Version 4.2.1 -  RELEASE  -
|  1> ! wB97X-D3 SP def2-SVP
|  2> %pal
|  3> nprocs 16
|  4> end
|  5>
|  6> * xyz 0 1
|  7> S 	 -5.85262 	 43.5791 	 44.2818
|  8> C 	 -4.77237 	 42.7176 	 43.2689
|  9> C 	 -3.59972 	 42.3295 	 43.8784
| 10> C 	 -3.62442 	 42.7329 	 45.2313
| 11> C 	 -4.75999 	 43.4617 	 45.6589
| 12> H 	 -2.86152 	 42.5601 	 45.9335
| 13> C 	 -2.46742 	 41.6497 	 43.3059
| 14> H 	 -2.72243 	 41.2875 	 42.2996
| 15> H 	 -2.44484 	 40.6807 	 43.8657
| 16> C 	 -1.09862 	 42.3169 	 43.4405
| 17> H 	 -0.993636 	 42.4564 	 44.5376
| 18> H 	 -0.343557 	 41.5795 	 43.1876
| 19> C 	 -0.887069 	 43.6008 	 42.7607
| 20> H 	 -0.890107 	 43.5103 	 41.6301
| 21> H 	 -1.79988 	 44.2601 	 42.9554
| 22> H 	 0.0293015 	 44.1503 	 43.0671
| 23> S 	 -6.82659 	 43.4538 	 47.5435
| 24> C 	 -6.34128 	 44.0029 	 49.1438
| 25> C 	 -4.98673 	 44.0944 	 49.3365
| 26> C 	 -4.25539 	 44.0815 	 48.1018
| 27> C 	 -5.13611 	 43.7239 	 47.0993
| 28> H 	 -4.58846 	 44.2482 	 50.3395
| 29> C 	 -2.74681 	 44.2916 	 47.9287
| 30> H 	 -2.56462 	 45.2722 	 48.4859
| 31> H 	 -2.43805 	 44.5124 	 46.8807
| 32> C 	 -1.93243 	 43.1149 	 48.4986
| 33> H 	 -2.31847 	 42.1123 	 48.2618
| 34> H 	 -2.04021 	 43.2559 	 49.6305
| 35> C 	 -0.487974 	 43.1555 	 48.1057
| 36> H 	 0.212361 	 42.5245 	 48.6941
| 37> H 	 -0.181072 	 44.1078 	 48.3309
| 38> H 	 -0.444875 	 42.8794 	 47.0533
| 39> H 	 -4.982 	 42.4979 	 42.2275
| 40> H 	 -6.89537 	 43.9556 	 50.0457
| 41> *
| 42>
| 43>                          ****END OF INPUT****

CARTESIAN COORDINATES (ANGSTROEM)
---------------------------------
  S     -5.852620   43.579100   44.281800
  C     -4.772370   42.717600   43.268900
  C     -3.599720   42.329500   43.878400
  C     -3.624420   42.732900   45.231300
  C     -4.759990   43.461700   45.658900
  H     -2.861520   42.560100   45.933500
  C     -2.467420   41.649700   43.305900
  H     -2.722430   41.287500   42.299600
  H     -2.444840   40.680700   43.865700
  C     -1.098620   42.316900   43.440500
  H     -0.993636   42.456400   44.537600
  H     -0.343557   41.579500   43.187600
  C     -0.887069   43.600800   42.760700
  H     -0.890107   43.510300   41.630100
  H     -1.799880   44.260100   42.955400
  H      0.029302   44.150300   43.067100
  S     -6.826590   43.453800   47.543500
  C     -6.341280   44.002900   49.143800
  C     -4.986730   44.094400   49.336500
  C     -4.255390   44.081500   48.101800
  C     -5.136110   43.723900   47.099300
  H     -4.588460   44.248200   50.339500
  C     -2.746810   44.291600   47.928700
  H     -2.564620   45.272200   48.485900
  H     -2.438050   44.512400   46.880700
  C     -1.932430   43.114900   48.498600
  H     -2.318470   42.112300   48.261800
  H     -2.040210   43.255900   49.630500
  C     -0.487974   43.155500   48.105700
  H      0.212361   42.524500   48.694100
  H     -0.181072   44.107800   48.330900
  H     -0.444875   42.879400   47.053300
  H     -4.982000   42.497900   42.227500
  H     -6.895370   43.955600   50.045700

 Total Charge           Charge          ....    0
 Multiplicity           Mult            ....    1
 Number of Electrons    NEL             ....  134
 Basis Dimension        Dim             ....  322

ORBITAL ENERGIES
----------------

  NO   OCC          E(Eh)            E(eV)
   0   2.0000     -88.971782     -2421.0453
   1   2.0000     -88.966695     -2420.9068
   2   2.0000     -10.331623      -281.1377
   3   2.0000     -10.331073      -281.1228
   4   2.0000     -10.311026      -280.5773
   5   2.0000     -10.310088      -280.5517
   6   2.0000     -10.305111      -280.4163
   7   2.0000     -10.304237      -280.3925
   8   2.0000     -10.295429      -280.1529
   9   2.0000     -10.294563      -280.1293
  10   2.0000     -10.293726      -280.1065
  11   2.0000     -10.291560      -280.0476
  12   2.0000     -10.288698      -279.9697
  13   2.0000     -10.288290      -279.9586
  14   2.0000     -10.284884      -279.8659
  15   2.0000     -10.275676      -279.6154
  16   2.0000      -8.085813      -220.0261
  17   2.0000      -8.081630      -219.9123
  18   2.0000      -6.044337      -164.4748
  19   2.0000      -6.040830      -164.3793
  20   2.0000      -6.040082      -164.3590
  21   2.0000      -6.036182      -164.2529
  22   2.0000      -6.035987      -164.2476
  23   2.0000      -6.032594      -164.1552
  24   2.0000      -1.005318       -27.3561
  25   2.0000      -0.986865       -26.8540
  26   2.0000      -0.922380       -25.0992
  27   2.0000      -0.914705       -24.8904
  28   2.0000      -0.865797       -23.5595
  29   2.0000      -0.859447       -23.3867
  30   2.0000      -0.850669       -23.1479
  31   2.0000      -0.814190       -22.1552
  32   2.0000      -0.785656       -21.3788
  33   2.0000      -0.773774       -21.0555
  34   2.0000      -0.705893       -19.2083
  35   2.0000      -0.694928       -18.9100
  36   2.0000      -0.692048       -18.8316
  37   2.0000      -0.658836       -17.9278
  38   2.0000      -0.638105       -17.3637
  39   2.0000      -0.624708       -16.9992
  40   2.0000      -0.595843       -16.2137
  41   2.0000      -0.575103       -15.6493
  42   2.0000      -0.569190       -15.4884
  43   2.0000      -0.555505       -15.1161
  44   2.0000      -0.539138       -14.6707
  45   2.0000      -0.529673       -14.4131
  46   2.0000      -0.518388       -14.1061
  47   2.0000      -0.512294       -13.9402
  48   2.0000      -0.501277       -13.6404
  49   2.0000      -0.492590       -13.4041
  50   2.0000      -0.485923       -13.2226
  51   2.0000      -0.483022       -13.1437
  52   2.0000      -0.475501       -12.9390
  53   2.0000      -0.464309       -12.6345
  54   2.0000      -0.461704       -12.5636
  55   2.0000      -0.455290       -12.3891
  56   2.0000      -0.445370       -12.1191
  57   2.0000      -0.441383       -12.0106
  58   2.0000      -0.435284       -11.8447
  59   2.0000      -0.431010       -11.7284
  60   2.0000      -0.419625       -11.4186
  61   2.0000      -0.413175       -11.2431
  62   2.0000      -0.409911       -11.1542
  63   2.0000      -0.350542        -9.5387
  64   2.0000      -0.335810        -9.1379
  65   2.0000      -0.328039        -8.9264
  66   2.0000      -0.284806        -7.7500
  67   0.0000       0.027245         0.7414
  68   0.0000       0.079467         2.1624
  69   0.0000       0.097722         2.6591
  70   0.0000       0.118006         3.2111
  71   0.0000       0.122374         3.3300

MULLIKEN ATOMIC CHARGES
-----------------------
   0 S :    0.108803
   1 C :   -0.129148
   2 C :   -0.064036
   3 C :    0.024359
   4 C :   -0.137747
   5 H :   -0.044763
   6 C :    0.063600
   7 H :    0.007907
   8 H :    0.039148
   9 C :   -0.053693
  10 H :    0.021376
  11 H :    0.027599
  12 C :   -0.071577
  13 H :    0.033698
  14 H :    0.047154
  15 H :    0.048558
  16 S :    0.120248
  17 C :   -0.058318
  18 C :   -0.060417
  19 C :   -0.043340
  20 C :   -0.134993
  21 H :    0.023081
  22 C :    0.017285
  23 H :    0.046206
  24 H :    0.039610
  25 C :   -0.119723
  26 H :    0.048271
  27 H :    0.035805
  28 C :    0.004633
  29 H :    0.036037
  30 H :    0.008084
  31 H :    0.036833
  32 H :    0.041742
  33 H :    0.037718
Sum of atomic charges:   -0.0000000

LOEWDIN ATOMIC CHARGES
----------------------
   0 S :    0.413843
   1 C :   -0.206498
   2 C :   -0.074119
   3 C :   -0.057339
   4 C :   -0.191661
   5 H :    0.014802
   6 C :   -0.038273
   7 H :    0.027463
   8 H :    0.045737
   9 C :   -0.046792
  10 H :    0.025389
  11 H :    0.025676
  12 C :   -0.077882
  13 H :    0.029219
  14 H :    0.036450
  15 H :    0.031991
  16 S :    0.391343
  17 C :   -0.183344
  18 C :   -0.061704
  19 C :   -0.057791
  20 C :   -0.179783
  21 H :    0.032576
  22 C :   -0.037974
  23 H :    0.041468
  24 H :    0.031147
  25 C :   -0.049414
  26 H :    0.024170
  27 H :    0.030471
  28 C :   -0.059418
  29 H :    0.032723
  30 H :    0.014006
  31 H :    0.024791
  32 H :    0.026945
  33 H :    0.021781

  Mayer bond orders larger than 0.100000
B(  0-S ,  1-C ) :   1.1576 B(  0-S ,  4-C ) :   1.1561 B(  1-C ,  2-C ) :   1.5659
B(  1-C , 32-H ) :   0.9609 B(  2-C ,  3-C ) :   1.2686 B(  2-C ,  6-C ) :   1.0413
B(  3-C ,  4-C ) :   1.5330 B(  3-C ,  5-H ) :   0.9934 B(  4-C , 20-C ) :   1.0348
B(  6-C ,  7-H ) :   0.9329 B(  6-C ,  8-H ) :   0.9224 B(  6-C ,  9-C ) :   1.0745
B(  9-C , 10-H ) :   0.9458 B(  9-C , 11-H ) :   0.9455 B(  9-C , 12-C ) :   1.0865
B( 12-C , 13-H ) :   0.9694 B( 12-C , 14-H ) :   0.9694 B( 12-C , 15-H ) :   0.9704
B( 16-S , 17-C ) :   1.1202 B( 16-S , 20-C ) :   1.1321 B( 17-C , 18-C ) :   1.6803
B( 17-C , 33-H ) :   0.9608 B( 18-C , 19-C ) :   1.2028 B( 18-C , 21-H ) :   0.9815
B( 19-C , 20-C ) :   1.6375 B( 19-C , 22-C ) :   1.0370 B( 22-C , 23-H ) :   0.9271
B( 22-C , 24-H ) :   0.9412 B( 22-C , 25-C ) :   1.0414 B( 25-C , 26-H ) :   0.9601
B( 25-C , 27-H ) :   0.9477 B( 25-C , 28-C ) :   1.0882 B( 28-C , 29-H ) :   0.9687
B( 28-C , 30-H ) :   0.9653 B( 28-C , 31-H ) :   0.9735

Dispersion correction           -0.015313603
FINAL SINGLE POINT ENERGY     -1339.871038080960

DIPOLE MOMENT
-------------
                                X             Y             Z
Electronic contribution:    -31.65511       3.01884       1.73920
Nuclear contribution   :     32.39218      -3.28671      -1.53759
                        -----------------------------------------
Total Dipole Moment    :      0.73707      -0.26787       0.20162
                        -----------------------------------------
Magnitude (a.u.)       :      0.80974
Magnitude (Debye)      :      2.05819

Rotational constants in cm-1:     0.017766     0.010611     0.007077
Rotational constants in MHz :   532.599568   318.098571   212.174128

                             ****ORCA TERMINATED NORMALLY****
TOTAL RUN TIME: 0 days 0 hours 0 minutes 37 seconds 997 msec
