                         Program Version 4.2.1 -  RELEASE  -
|  1> ! wB97X-D3 SP def2-SVP
|  2> %pal
|  3> nprocs 16
|  4> end
|  5>
|  6> * xyz 0 1
|  7> S 	 6.38812 	 -15.6089 	 66.7838
|  8> C 	 6.61822 	 -17.3187 	 66.4671
|  9> C 	 7.84978 	 -17.7455 	 66.8278
| 10> C 	 8.73615 	 -16.6277 	 67.263
| 11> C 	 8.01344 	 -15.4506 	 67.4845
| 12> H 	 9.73349 	 -16.7174 	 67.5624
| 13> C 	 8.30368 	 -19.1926 	 66.7106
| 14> H 	 7.37888 	 -19.7878 	 66.437
| 15> H 	 8.67358 	 -19.6041 	 67.6799
| 16> C 	 9.31513 	 -19.3976 	 65.596
| 17> H 	 10.2356 	 -18.8526 	 65.9071
| 18> H 	 9.51018 	 -20.5087 	 65.5403
| 19> C 	 8.84129 	 -18.9485 	 64.2557
| 20> H 	 9.07807 	 -19.7518 	 63.5849
| 21> H 	 7.79321 	 -18.6967 	 64.2318
| 22> H 	 9.39815 	 -18.0332 	 63.8689
| 23> S 	 7.41432 	 -13.5787 	 69.3865
| 24> C 	 8.75384 	 -12.6598 	 70.0137
| 25> C 	 9.88516 	 -12.6943 	 69.2385
| 26> C 	 9.75491 	 -13.6281 	 68.1663
| 27> C 	 8.52273 	 -14.2997 	 68.2092
| 28> H 	 10.8067 	 -12.1479 	 69.4491
| 29> C 	 10.9044 	 -13.7888 	 67.2261
| 30> H 	 11.3185 	 -14.8314 	 67.1417
| 31> H 	 11.7925 	 -13.3223 	 67.6262
| 32> C 	 10.6554 	 -13.1352 	 65.794
| 33> H 	 11.6377 	 -13.0129 	 65.2677
| 34> H 	 10.35 	 -12.034 	 65.864
| 35> C 	 9.85633 	 -14.0118 	 64.7455
| 36> H 	 8.8149 	 -14.0858 	 64.9137
| 37> H 	 10.3757 	 -14.9795 	 64.6312
| 38> H 	 9.83484 	 -13.5127 	 63.7903
| 39> H 	 5.79234 	 -18.0052 	 66.2237
| 40> H 	 8.61292 	 -12.0967 	 70.8912
| 41> *
| 42>
| 43>                          ****END OF INPUT****

CARTESIAN COORDINATES (ANGSTROEM)
---------------------------------
  S      6.388120  -15.608900   66.783800
  C      6.618220  -17.318700   66.467100
  C      7.849780  -17.745500   66.827800
  C      8.736150  -16.627700   67.263000
  C      8.013440  -15.450600   67.484500
  H      9.733490  -16.717400   67.562400
  C      8.303680  -19.192600   66.710600
  H      7.378880  -19.787800   66.437000
  H      8.673580  -19.604100   67.679900
  C      9.315130  -19.397600   65.596000
  H     10.235600  -18.852600   65.907100
  H      9.510180  -20.508700   65.540300
  C      8.841290  -18.948500   64.255700
  H      9.078070  -19.751800   63.584900
  H      7.793210  -18.696700   64.231800
  H      9.398150  -18.033200   63.868900
  S      7.414320  -13.578700   69.386500
  C      8.753840  -12.659800   70.013700
  C      9.885160  -12.694300   69.238500
  C      9.754910  -13.628100   68.166300
  C      8.522730  -14.299700   68.209200
  H     10.806700  -12.147900   69.449100
  C     10.904400  -13.788800   67.226100
  H     11.318500  -14.831400   67.141700
  H     11.792500  -13.322300   67.626200
  C     10.655400  -13.135200   65.794000
  H     11.637700  -13.012900   65.267700
  H     10.350000  -12.034000   65.864000
  C      9.856330  -14.011800   64.745500
  H      8.814900  -14.085800   64.913700
  H     10.375700  -14.979500   64.631200
  H      9.834840  -13.512700   63.790300
  H      5.792340  -18.005200   66.223700
  H      8.612920  -12.096700   70.891200

 Total Charge           Charge          ....    0
 Multiplicity           Mult            ....    1
 Number of Electrons    NEL             ....  134
 Basis Dimension        Dim             ....  322

ORBITAL ENERGIES
----------------

  NO   OCC          E(Eh)            E(eV)
   0   2.0000     -88.967480     -2420.9282
   1   2.0000     -88.963710     -2420.8256
   2   2.0000     -10.333826      -281.1977
   3   2.0000     -10.329951      -281.0923
   4   2.0000     -10.314533      -280.6727
   5   2.0000     -10.311372      -280.5867
   6   2.0000     -10.306268      -280.4478
   7   2.0000     -10.302428      -280.3433
   8   2.0000     -10.299761      -280.2707
   9   2.0000     -10.299546      -280.2649
  10   2.0000     -10.296793      -280.1900
  11   2.0000     -10.295779      -280.1624
  12   2.0000     -10.294908      -280.1387
  13   2.0000     -10.287037      -279.9245
  14   2.0000     -10.271972      -279.5146
  15   2.0000     -10.271180      -279.4930
  16   2.0000      -8.082381      -219.9328
  17   2.0000      -8.077972      -219.8128
  18   2.0000      -6.040737      -164.3768
  19   2.0000      -6.037062      -164.2768
  20   2.0000      -6.036753      -164.2684
  21   2.0000      -6.033096      -164.1689
  22   2.0000      -6.032604      -164.1555
  23   2.0000      -6.028406      -164.0413
  24   2.0000      -1.003467       -27.3057
  25   2.0000      -0.980574       -26.6828
  26   2.0000      -0.914662       -24.8892
  27   2.0000      -0.899038       -24.4641
  28   2.0000      -0.870120       -23.6772
  29   2.0000      -0.846563       -23.0361
  30   2.0000      -0.839165       -22.8348
  31   2.0000      -0.812016       -22.0961
  32   2.0000      -0.782868       -21.3029
  33   2.0000      -0.773004       -21.0345
  34   2.0000      -0.707348       -19.2479
  35   2.0000      -0.691032       -18.8039
  36   2.0000      -0.683932       -18.6107
  37   2.0000      -0.664902       -18.0929
  38   2.0000      -0.637882       -17.3577
  39   2.0000      -0.617050       -16.7908
  40   2.0000      -0.599990       -16.3266
  41   2.0000      -0.565089       -15.3769
  42   2.0000      -0.552814       -15.0428
  43   2.0000      -0.546715       -14.8769
  44   2.0000      -0.541089       -14.7238
  45   2.0000      -0.536863       -14.6088
  46   2.0000      -0.512091       -13.9347
  47   2.0000      -0.503663       -13.7054
  48   2.0000      -0.500069       -13.6076
  49   2.0000      -0.494934       -13.4678
  50   2.0000      -0.493174       -13.4200
  51   2.0000      -0.482954       -13.1418
  52   2.0000      -0.464659       -12.6440
  53   2.0000      -0.462150       -12.5757
  54   2.0000      -0.453583       -12.3426
  55   2.0000      -0.447163       -12.1679
  56   2.0000      -0.442091       -12.0299
  57   2.0000      -0.434695       -11.8287
  58   2.0000      -0.432625       -11.7723
  59   2.0000      -0.419482       -11.4147
  60   2.0000      -0.416378       -11.3302
  61   2.0000      -0.411913       -11.2087
  62   2.0000      -0.407306       -11.0834
  63   2.0000      -0.352059        -9.5800
  64   2.0000      -0.334174        -9.0933
  65   2.0000      -0.325047        -8.8450
  66   2.0000      -0.286513        -7.7964
  67   0.0000       0.024351         0.6626
  68   0.0000       0.068889         1.8746
  69   0.0000       0.109793         2.9876
  70   0.0000       0.114588         3.1181
  71   0.0000       0.126855         3.4519

MULLIKEN ATOMIC CHARGES
-----------------------
   0 S :    0.092239
   1 C :   -0.124622
   2 C :   -0.098135
   3 C :    0.053385
   4 C :   -0.131279
   5 H :   -0.009665
   6 C :    0.029954
   7 H :    0.022284
   8 H :    0.044158
   9 C :   -0.099900
  10 H :    0.035498
  11 H :    0.040438
  12 C :   -0.037230
  13 H :    0.029053
  14 H :    0.029011
  15 H :    0.041451
  16 S :    0.110688
  17 C :   -0.073410
  18 C :   -0.023773
  19 C :   -0.013426
  20 C :   -0.166662
  21 H :    0.025961
  22 C :    0.061372
  23 H :    0.032955
  24 H :    0.007013
  25 C :   -0.118343
  26 H :    0.028806
  27 H :    0.042397
  28 C :   -0.025127
  29 H :    0.033340
  30 H :    0.037341
  31 H :    0.021134
  32 H :    0.062255
  33 H :    0.040840
Sum of atomic charges:   -0.0000000

LOEWDIN ATOMIC CHARGES
----------------------
   0 S :    0.374519
   1 C :   -0.204927
   2 C :   -0.057879
   3 C :   -0.054156
   4 C :   -0.176183
   5 H :    0.017065
   6 C :   -0.036961
   7 H :    0.030558
   8 H :    0.034089
   9 C :   -0.050687
  10 H :    0.025172
  11 H :    0.030183
  12 C :   -0.071488
  13 H :    0.025562
  14 H :    0.022869
  15 H :    0.037218
  16 S :    0.404994
  17 C :   -0.171605
  18 C :   -0.067614
  19 C :   -0.052963
  20 C :   -0.189611
  21 H :    0.036289
  22 C :   -0.039149
  23 H :    0.035742
  24 H :    0.028725
  25 C :   -0.044942
  26 H :    0.025572
  27 H :    0.031924
  28 C :   -0.065616
  29 H :    0.017846
  30 H :    0.028705
  31 H :    0.025275
  32 H :    0.034913
  33 H :    0.016563

  Mayer bond orders larger than 0.100000
B(  0-S ,  1-C ) :   1.0976 B(  0-S ,  4-C ) :   1.1253 B(  1-C ,  2-C ) :   1.6827
B(  1-C , 32-H ) :   0.9536 B(  2-C ,  3-C ) :   1.1803 B(  2-C ,  6-C ) :   1.0285
B(  3-C ,  4-C ) :   1.6049 B(  3-C ,  5-H ) :   0.9974 B(  4-C , 20-C ) :   1.0758
B(  6-C ,  7-H ) :   0.9437 B(  6-C ,  8-H ) :   0.9417 B(  6-C ,  9-C ) :   1.0747
B(  9-C , 10-H ) :   0.9568 B(  9-C , 11-H ) :   0.9642 B(  9-C , 12-C ) :   1.0575
B( 12-C , 13-H ) :   0.9761 B( 12-C , 14-H ) :   0.9788 B( 12-C , 15-H ) :   0.9722
B( 16-S , 17-C ) :   1.1607 B( 16-S , 20-C ) :   1.1339 B( 17-C , 18-C ) :   1.5969
B( 17-C , 20-C ) :   0.1003 B( 17-C , 33-H ) :   0.9751 B( 18-C , 19-C ) :   1.2463
B( 18-C , 21-H ) :   0.9892 B( 19-C , 20-C ) :   1.5732 B( 19-C , 22-C ) :   1.0473
B( 22-C , 23-H ) :   0.9354 B( 22-C , 24-H ) :   0.9292 B( 22-C , 25-C ) :   1.0606
B( 25-C , 26-H ) :   0.9579 B( 25-C , 27-H ) :   0.9569 B( 25-C , 28-C ) :   1.0697
B( 28-C , 29-H ) :   0.9757 B( 28-C , 30-H ) :   0.9743 B( 28-C , 31-H ) :   0.9705

Dispersion correction           -0.015724400
FINAL SINGLE POINT ENERGY     -1339.871797651115

DIPOLE MOMENT
-------------
                                X             Y             Z
Electronic contribution:    -16.49076      11.78865      18.10767
Nuclear contribution   :     17.11045     -11.98263     -18.13233
                        -----------------------------------------
Total Dipole Moment    :      0.61969      -0.19397      -0.02466
                        -----------------------------------------
Magnitude (a.u.)       :      0.64981
Magnitude (Debye)      :      1.65168

Rotational constants in cm-1:     0.020755     0.009264     0.007651
Rotational constants in MHz :   622.232079   277.713175   229.365138

                             ****ORCA TERMINATED NORMALLY****
TOTAL RUN TIME: 0 days 0 hours 0 minutes 37 seconds 277 msec
