                         Program Version 4.2.1 -  RELEASE  -
|  1> ! wB97X-D3 SP def2-SVP
|  2> %pal
|  3> nprocs 16
|  4> end
|  5>
|  6> * xyz 0 1
|  7> S 	 0.910022 	 -2.04917 	 79.1382
|  8> C 	 -0.422447 	 -2.66123 	 80.0667
|  9> C 	 0.0798633 	 -3.29159 	 81.1949
| 10> C 	 1.53379 	 -3.39626 	 81.1814
| 11> C 	 2.13871 	 -2.91853 	 80.0164
| 12> H 	 2.0904 	 -3.94532 	 81.9127
| 13> C 	 -0.729273 	 -3.96968 	 82.228
| 14> H 	 -1.31996 	 -3.18416 	 82.7895
| 15> H 	 -0.0318131 	 -4.35523 	 83.0099
| 16> C 	 -1.74994 	 -4.94644 	 81.7477
| 17> H 	 -2.39279 	 -5.33021 	 82.5784
| 18> H 	 -2.51792 	 -4.46866 	 81.1823
| 19> C 	 -1.17763 	 -6.12898 	 80.9449
| 20> H 	 -0.621792 	 -5.94104 	 80.0236
| 21> H 	 -0.51349 	 -6.76313 	 81.5529
| 22> H 	 -1.88699 	 -6.79709 	 80.5668
| 23> S 	 4.35253 	 -4.47842 	 79.6458
| 24> C 	 5.57741 	 -3.9855 	 78.5153
| 25> C 	 5.46486 	 -2.62608 	 78.2751
| 26> C 	 4.32879 	 -2.05426 	 78.8575
| 27> C 	 3.48724 	 -2.98124 	 79.5171
| 28> H 	 6.08842 	 -1.95353 	 77.7156
| 29> C 	 3.99738 	 -0.566533 	 78.6184
| 30> H 	 4.77117 	 0.0930223 	 78.9446
| 31> H 	 3.0978 	 -0.253055 	 79.2309
| 32> C 	 3.56197 	 -0.136303 	 77.2102
| 33> H 	 3.15495 	 -1.00515 	 76.6399
| 34> H 	 4.44102 	 0.0965928 	 76.6467
| 35> C 	 2.60938 	 1.07174 	 76.9997
| 36> H 	 2.89065 	 1.97115 	 77.4837
| 37> H 	 1.69801 	 0.758096 	 77.5003
| 38> H 	 2.37827 	 1.28264 	 75.9691
| 39> H 	 -1.45115 	 -2.55201 	 79.7277
| 40> H 	 6.33413 	 -4.69167 	 78.1928
| 41> *
| 42>
| 43>                          ****END OF INPUT****

CARTESIAN COORDINATES (ANGSTROEM)
---------------------------------
  S      0.910022   -2.049170   79.138200
  C     -0.422447   -2.661230   80.066700
  C      0.079863   -3.291590   81.194900
  C      1.533790   -3.396260   81.181400
  C      2.138710   -2.918530   80.016400
  H      2.090400   -3.945320   81.912700
  C     -0.729273   -3.969680   82.228000
  H     -1.319960   -3.184160   82.789500
  H     -0.031813   -4.355230   83.009900
  C     -1.749940   -4.946440   81.747700
  H     -2.392790   -5.330210   82.578400
  H     -2.517920   -4.468660   81.182300
  C     -1.177630   -6.128980   80.944900
  H     -0.621792   -5.941040   80.023600
  H     -0.513490   -6.763130   81.552900
  H     -1.886990   -6.797090   80.566800
  S      4.352530   -4.478420   79.645800
  C      5.577410   -3.985500   78.515300
  C      5.464860   -2.626080   78.275100
  C      4.328790   -2.054260   78.857500
  C      3.487240   -2.981240   79.517100
  H      6.088420   -1.953530   77.715600
  C      3.997380   -0.566533   78.618400
  H      4.771170    0.093022   78.944600
  H      3.097800   -0.253055   79.230900
  C      3.561970   -0.136303   77.210200
  H      3.154950   -1.005150   76.639900
  H      4.441020    0.096593   76.646700
  C      2.609380    1.071740   76.999700
  H      2.890650    1.971150   77.483700
  H      1.698010    0.758096   77.500300
  H      2.378270    1.282640   75.969100
  H     -1.451150   -2.552010   79.727700
  H      6.334130   -4.691670   78.192800

 Total Charge           Charge          ....    0
 Multiplicity           Mult            ....    1
 Number of Electrons    NEL             ....  134
 Basis Dimension        Dim             ....  322

ORBITAL ENERGIES
----------------

  NO   OCC          E(Eh)            E(eV)
   0   2.0000     -88.967686     -2420.9338
   1   2.0000     -88.963020     -2420.8068
   2   2.0000     -10.333462      -281.1878
   3   2.0000     -10.330466      -281.1063
   4   2.0000     -10.322456      -280.8883
   5   2.0000     -10.314662      -280.6762
   6   2.0000     -10.305225      -280.4194
   7   2.0000     -10.302754      -280.3522
   8   2.0000     -10.296714      -280.1878
   9   2.0000     -10.294561      -280.1293
  10   2.0000     -10.293167      -280.0913
  11   2.0000     -10.292330      -280.0685
  12   2.0000     -10.288751      -279.9712
  13   2.0000     -10.281400      -279.7711
  14   2.0000     -10.270926      -279.4861
  15   2.0000     -10.269455      -279.4461
  16   2.0000      -8.083024      -219.9503
  17   2.0000      -8.077889      -219.8105
  18   2.0000      -6.041392      -164.3946
  19   2.0000      -6.037448      -164.2873
  20   2.0000      -6.036519      -164.2620
  21   2.0000      -6.033888      -164.1905
  22   2.0000      -6.032205      -164.1446
  23   2.0000      -6.028695      -164.0491
  24   2.0000      -1.010772       -27.5045
  25   2.0000      -0.988598       -26.9011
  26   2.0000      -0.917363       -24.9627
  27   2.0000      -0.902827       -24.5672
  28   2.0000      -0.872036       -23.7293
  29   2.0000      -0.851344       -23.1662
  30   2.0000      -0.842897       -22.9364
  31   2.0000      -0.813594       -22.1390
  32   2.0000      -0.785789       -21.3824
  33   2.0000      -0.774376       -21.0719
  34   2.0000      -0.711141       -19.3511
  35   2.0000      -0.704170       -19.1614
  36   2.0000      -0.693362       -18.8673
  37   2.0000      -0.667011       -18.1503
  38   2.0000      -0.642951       -17.4956
  39   2.0000      -0.610859       -16.6223
  40   2.0000      -0.602990       -16.4082
  41   2.0000      -0.574773       -15.6404
  42   2.0000      -0.559081       -15.2134
  43   2.0000      -0.555836       -15.1251
  44   2.0000      -0.541743       -14.7416
  45   2.0000      -0.523119       -14.2348
  46   2.0000      -0.519420       -14.1341
  47   2.0000      -0.515173       -14.0186
  48   2.0000      -0.505877       -13.7656
  49   2.0000      -0.496056       -13.4984
  50   2.0000      -0.493955       -13.4412
  51   2.0000      -0.474525       -12.9125
  52   2.0000      -0.473068       -12.8728
  53   2.0000      -0.466417       -12.6919
  54   2.0000      -0.460068       -12.5191
  55   2.0000      -0.452912       -12.3244
  56   2.0000      -0.441709       -12.0195
  57   2.0000      -0.436482       -11.8773
  58   2.0000      -0.431964       -11.7543
  59   2.0000      -0.422696       -11.5022
  60   2.0000      -0.417704       -11.3663
  61   2.0000      -0.410129       -11.1602
  62   2.0000      -0.399029       -10.8581
  63   2.0000      -0.355592        -9.6761
  64   2.0000      -0.333690        -9.0802
  65   2.0000      -0.324052        -8.8179
  66   2.0000      -0.285610        -7.7719
  67   0.0000       0.021434         0.5833
  68   0.0000       0.063822         1.7367
  69   0.0000       0.099406         2.7050
  70   0.0000       0.129113         3.5134
  71   0.0000       0.136262         3.7079

MULLIKEN ATOMIC CHARGES
-----------------------
   0 S :    0.097776
   1 C :   -0.131647
   2 C :   -0.086705
   3 C :    0.031268
   4 C :   -0.141630
   5 H :    0.003783
   6 C :    0.060219
   7 H :    0.040434
   8 H :    0.025584
   9 C :   -0.051924
  10 H :    0.029688
  11 H :    0.013393
  12 C :   -0.041165
  13 H :    0.038229
  14 H :    0.022546
  15 H :    0.010843
  16 S :    0.111470
  17 C :   -0.095021
  18 C :    0.009309
  19 C :   -0.046063
  20 C :   -0.142539
  21 H :    0.010988
  22 C :    0.046463
  23 H :    0.028960
  24 H :    0.023815
  25 C :   -0.096526
  26 H :    0.035392
  27 H :    0.012001
  28 C :   -0.024864
  29 H :    0.021549
  30 H :    0.020676
  31 H :    0.035163
  32 H :    0.060076
  33 H :    0.068458
Sum of atomic charges:   -0.0000000

LOEWDIN ATOMIC CHARGES
----------------------
   0 S :    0.423994
   1 C :   -0.201243
   2 C :   -0.062905
   3 C :   -0.067759
   4 C :   -0.188291
   5 H :    0.024438
   6 C :   -0.042615
   7 H :    0.042591
   8 H :    0.032933
   9 C :   -0.042583
  10 H :    0.033578
  11 H :    0.018973
  12 C :   -0.071529
  13 H :    0.030257
  14 H :    0.025828
  15 H :    0.018237
  16 S :    0.428982
  17 C :   -0.183879
  18 C :   -0.066363
  19 C :   -0.056781
  20 C :   -0.205517
  21 H :    0.031998
  22 C :   -0.041094
  23 H :    0.028591
  24 H :    0.028168
  25 C :   -0.050143
  26 H :    0.028385
  27 H :    0.012463
  28 C :   -0.059421
  29 H :    0.017691
  30 H :    0.021869
  31 H :    0.028287
  32 H :    0.032107
  33 H :    0.030752

  Mayer bond orders larger than 0.100000
B(  0-S ,  1-C ) :   1.1439 B(  0-S ,  4-C ) :   1.1586 B(  1-C ,  2-C ) :   1.5713
B(  1-C , 32-H ) :   0.9774 B(  2-C ,  3-C ) :   1.2429 B(  2-C ,  6-C ) :   1.0345
B(  3-C ,  4-C ) :   1.5466 B(  3-C ,  5-H ) :   0.9959 B(  4-C , 20-C ) :   1.0605
B(  6-C ,  7-H ) :   0.9239 B(  6-C ,  8-H ) :   0.9448 B(  6-C ,  9-C ) :   1.0880
B(  9-C , 10-H ) :   0.9486 B(  9-C , 11-H ) :   0.9483 B(  9-C , 12-C ) :   1.0724
B( 12-C , 13-H ) :   0.9734 B( 12-C , 14-H ) :   0.9759 B( 12-C , 15-H ) :   0.9718
B( 16-S , 17-C ) :   1.1769 B( 16-S , 20-C ) :   1.1612 B( 17-C , 18-C ) :   1.5183
B( 17-C , 20-C ) :   0.1111 B( 17-C , 33-H ) :   0.9750 B( 18-C , 19-C ) :   1.3074
B( 18-C , 21-H ) :   0.9954 B( 19-C , 20-C ) :   1.5194 B( 19-C , 22-C ) :   1.0533
B( 22-C , 23-H ) :   0.9330 B( 22-C , 24-H ) :   0.9415 B( 22-C , 25-C ) :   1.0402
B( 25-C , 26-H ) :   0.9595 B( 25-C , 27-H ) :   0.9528 B( 25-C , 28-C ) :   1.0876
B( 28-C , 29-H ) :   0.9768 B( 28-C , 30-H ) :   0.9716 B( 28-C , 31-H ) :   0.9737

Dispersion correction           -0.014779880
FINAL SINGLE POINT ENERGY     -1339.872812240792

DIPOLE MOMENT
-------------
                                X             Y             Z
Electronic contribution:     11.69532      -4.48245       0.87959
Nuclear contribution   :    -11.84444       4.45949      -0.86315
                        -----------------------------------------
Total Dipole Moment    :     -0.14912      -0.02296       0.01644
                        -----------------------------------------
Magnitude (a.u.)       :      0.15177
Magnitude (Debye)      :      0.38577

Rotational constants in cm-1:     0.020994     0.008659     0.006560
Rotational constants in MHz :   629.394833   259.592689   196.649328

                             ****ORCA TERMINATED NORMALLY****
TOTAL RUN TIME: 0 days 0 hours 0 minutes 34 seconds 82 msec
