                         Program Version 4.2.1 -  RELEASE  -
|  1> ! wB97X-D3 SP def2-SVP
|  2> %pal
|  3> nprocs 16
|  4> end
|  5>
|  6> * xyz 0 1
|  7> S 	 -76.2296 	 42.8389 	 120.157
|  8> C 	 -76.7333 	 41.2944 	 119.588
|  9> C 	 -76.1989 	 40.2341 	 120.277
| 10> C 	 -75.3266 	 40.6956 	 121.281
| 11> C 	 -75.0105 	 42.0729 	 121.205
| 12> H 	 -74.9001 	 40.1114 	 122.043
| 13> C 	 -76.5089 	 38.7723 	 120.055
| 14> H 	 -77.4034 	 38.8499 	 119.465
| 15> H 	 -76.6895 	 38.2345 	 121.004
| 16> C 	 -75.4387 	 38.0115 	 119.183
| 17> H 	 -75.7872 	 36.9762 	 118.826
| 18> H 	 -75.2826 	 38.4989 	 118.294
| 19> C 	 -74.1143 	 37.8369 	 119.926
| 20> H 	 -73.7652 	 38.8131 	 120.192
| 21> H 	 -74.2599 	 37.2836 	 120.873
| 22> H 	 -73.4405 	 37.3341 	 119.24
| 23> S 	 -74.9175 	 44.3565 	 122.756
| 24> C 	 -73.4233 	 44.7909 	 123.472
| 25> C 	 -72.3898 	 43.9696 	 123.158
| 26> C 	 -72.8569 	 42.845 	 122.422
| 27> C 	 -74.1865 	 42.9868 	 121.996
| 28> H 	 -71.3655 	 44.1109 	 123.337
| 29> C 	 -71.9348 	 41.7556 	 122.033
| 30> H 	 -72.5394 	 40.9408 	 121.615
| 31> H 	 -71.4796 	 41.2626 	 122.825
| 32> C 	 -70.9743 	 42.1169 	 120.846
| 33> H 	 -71.5075 	 42.4903 	 119.973
| 34> H 	 -70.3355 	 41.226 	 120.545
| 35> C 	 -69.9934 	 43.1286 	 121.089
| 36> H 	 -69.1908 	 43.1487 	 120.334
| 37> H 	 -69.4902 	 43.0264 	 122.053
| 38> H 	 -70.3856 	 44.1536 	 120.982
| 39> H 	 -77.3654 	 41.1394 	 118.726
| 40> H 	 -73.2096 	 45.7482 	 124.004
| 41> *
| 42>
| 43>                          ****END OF INPUT****

CARTESIAN COORDINATES (ANGSTROEM)
---------------------------------
  S    -76.229600   42.838900  120.157000
  C    -76.733300   41.294400  119.588000
  C    -76.198900   40.234100  120.277000
  C    -75.326600   40.695600  121.281000
  C    -75.010500   42.072900  121.205000
  H    -74.900100   40.111400  122.043000
  C    -76.508900   38.772300  120.055000
  H    -77.403400   38.849900  119.465000
  H    -76.689500   38.234500  121.004000
  C    -75.438700   38.011500  119.183000
  H    -75.787200   36.976200  118.826000
  H    -75.282600   38.498900  118.294000
  C    -74.114300   37.836900  119.926000
  H    -73.765200   38.813100  120.192000
  H    -74.259900   37.283600  120.873000
  H    -73.440500   37.334100  119.240000
  S    -74.917500   44.356500  122.756000
  C    -73.423300   44.790900  123.472000
  C    -72.389800   43.969600  123.158000
  C    -72.856900   42.845000  122.422000
  C    -74.186500   42.986800  121.996000
  H    -71.365500   44.110900  123.337000
  C    -71.934800   41.755600  122.033000
  H    -72.539400   40.940800  121.615000
  H    -71.479600   41.262600  122.825000
  C    -70.974300   42.116900  120.846000
  H    -71.507500   42.490300  119.973000
  H    -70.335500   41.226000  120.545000
  C    -69.993400   43.128600  121.089000
  H    -69.190800   43.148700  120.334000
  H    -69.490200   43.026400  122.053000
  H    -70.385600   44.153600  120.982000
  H    -77.365400   41.139400  118.726000
  H    -73.209600   45.748200  124.004000

 Total Charge           Charge          ....    0
 Multiplicity           Mult            ....    1
 Number of Electrons    NEL             ....  134
 Basis Dimension        Dim             ....  322

ORBITAL ENERGIES
----------------

  NO   OCC          E(Eh)            E(eV)
   0   2.0000     -88.968272     -2420.9498
   1   2.0000     -88.965861     -2420.8842
   2   2.0000     -10.334663      -281.2205
   3   2.0000     -10.325597      -280.9738
   4   2.0000     -10.314111      -280.6612
   5   2.0000     -10.311161      -280.5810
   6   2.0000     -10.298332      -280.2319
   7   2.0000     -10.297950      -280.2215
   8   2.0000     -10.295532      -280.1557
   9   2.0000     -10.294299      -280.1221
  10   2.0000     -10.286722      -279.9159
  11   2.0000     -10.285279      -279.8767
  12   2.0000     -10.283431      -279.8264
  13   2.0000     -10.283169      -279.8192
  14   2.0000     -10.274682      -279.5883
  15   2.0000     -10.269592      -279.4498
  16   2.0000      -8.083882      -219.9736
  17   2.0000      -8.080817      -219.8902
  18   2.0000      -6.042353      -164.4208
  19   2.0000      -6.039214      -164.3354
  20   2.0000      -6.038285      -164.3101
  21   2.0000      -6.035394      -164.2314
  22   2.0000      -6.034613      -164.2102
  23   2.0000      -6.031603      -164.1283
  24   2.0000      -1.011761       -27.5314
  25   2.0000      -0.990064       -26.9410
  26   2.0000      -0.917585       -24.9687
  27   2.0000      -0.910603       -24.7788
  28   2.0000      -0.870762       -23.6946
  29   2.0000      -0.860344       -23.4112
  30   2.0000      -0.847270       -23.0554
  31   2.0000      -0.819211       -22.2919
  32   2.0000      -0.788630       -21.4597
  33   2.0000      -0.769403       -20.9365
  34   2.0000      -0.703924       -19.1548
  35   2.0000      -0.701058       -19.0768
  36   2.0000      -0.685847       -18.6629
  37   2.0000      -0.666341       -18.1321
  38   2.0000      -0.641792       -17.4640
  39   2.0000      -0.620295       -16.8791
  40   2.0000      -0.603430       -16.4202
  41   2.0000      -0.575420       -15.6580
  42   2.0000      -0.556644       -15.1471
  43   2.0000      -0.550727       -14.9861
  44   2.0000      -0.545808       -14.8522
  45   2.0000      -0.539993       -14.6940
  46   2.0000      -0.522521       -14.2185
  47   2.0000      -0.514123       -13.9900
  48   2.0000      -0.500432       -13.6174
  49   2.0000      -0.497348       -13.5335
  50   2.0000      -0.491563       -13.3761
  51   2.0000      -0.485824       -13.2199
  52   2.0000      -0.475188       -12.9305
  53   2.0000      -0.467187       -12.7128
  54   2.0000      -0.463679       -12.6173
  55   2.0000      -0.447828       -12.1860
  56   2.0000      -0.442016       -12.0279
  57   2.0000      -0.433424       -11.7941
  58   2.0000      -0.429402       -11.6846
  59   2.0000      -0.427544       -11.6341
  60   2.0000      -0.421274       -11.4634
  61   2.0000      -0.413880       -11.2622
  62   2.0000      -0.407744       -11.0953
  63   2.0000      -0.351450        -9.5634
  64   2.0000      -0.332646        -9.0518
  65   2.0000      -0.329695        -8.9714
  66   2.0000      -0.285072        -7.7572
  67   0.0000       0.025369         0.6903
  68   0.0000       0.068305         1.8587
  69   0.0000       0.109398         2.9769
  70   0.0000       0.119756         3.2587
  71   0.0000       0.128604         3.4995

MULLIKEN ATOMIC CHARGES
-----------------------
   0 S :    0.095577
   1 C :   -0.098783
   2 C :   -0.111884
   3 C :    0.051062
   4 C :   -0.175153
   5 H :   -0.000671
   6 C :    0.079548
   7 H :    0.012694
   8 H :    0.041789
   9 C :   -0.055943
  10 H :    0.032337
  11 H :    0.004974
  12 C :   -0.048322
  13 H :    0.034087
  14 H :    0.029375
  15 H :    0.038411
  16 S :    0.125355
  17 C :   -0.084896
  18 C :   -0.005743
  19 C :   -0.077650
  20 C :   -0.133380
  21 H :   -0.001908
  22 C :    0.111125
  23 H :    0.005658
  24 H :    0.014125
  25 C :   -0.066980
  26 H :    0.031942
  27 H :    0.034116
  28 C :   -0.067896
  29 H :    0.025878
  30 H :    0.023194
  31 H :    0.031880
  32 H :    0.039966
  33 H :    0.066115
Sum of atomic charges:    0.0000000

LOEWDIN ATOMIC CHARGES
----------------------
   0 S :    0.403234
   1 C :   -0.199712
   2 C :   -0.069758
   3 C :   -0.054421
   4 C :   -0.177544
   5 H :    0.021510
   6 C :   -0.025905
   7 H :    0.028450
   8 H :    0.035700
   9 C :   -0.033811
  10 H :    0.028708
  11 H :    0.009966
  12 C :   -0.063388
  13 H :    0.019308
  14 H :    0.025560
  15 H :    0.027427
  16 S :    0.430264
  17 C :   -0.201037
  18 C :   -0.063427
  19 C :   -0.053531
  20 C :   -0.216757
  21 H :    0.025144
  22 C :   -0.032970
  23 H :    0.034431
  24 H :    0.022906
  25 C :   -0.042733
  26 H :    0.031462
  27 H :    0.032528
  28 C :   -0.077190
  29 H :    0.028548
  30 H :    0.018721
  31 H :    0.024132
  32 H :    0.025709
  33 H :    0.038475

  Mayer bond orders larger than 0.100000
B(  0-S ,  1-C ) :   1.1530 B(  0-S ,  4-C ) :   1.1515 B(  1-C ,  2-C ) :   1.6165
B(  1-C ,  4-C ) :   0.1080 B(  1-C , 32-H ) :   0.9586 B(  2-C ,  3-C ) :   1.2498
B(  2-C ,  6-C ) :   1.0153 B(  3-C ,  4-C ) :   1.5433 B(  3-C ,  5-H ) :   0.9969
B(  4-C , 20-C ) :   1.0401 B(  6-C ,  7-H ) :   0.9321 B(  6-C ,  8-H ) :   0.9479
B(  6-C ,  9-C ) :   1.0679 B(  9-C , 10-H ) :   0.9573 B(  9-C , 11-H ) :   0.9517
B(  9-C , 12-C ) :   1.0816 B( 12-C , 13-H ) :   0.9735 B( 12-C , 14-H ) :   0.9743
B( 12-C , 15-H ) :   0.9704 B( 16-S , 17-C ) :   1.1602 B( 16-S , 20-C ) :   1.1460
B( 17-C , 18-C ) :   1.5983 B( 17-C , 33-H ) :   0.9552 B( 18-C , 19-C ) :   1.2579
B( 18-C , 21-H ) :   0.9951 B( 19-C , 20-C ) :   1.5829 B( 19-C , 22-C ) :   1.0611
B( 22-C , 23-H ) :   0.9188 B( 22-C , 24-H ) :   0.9274 B( 22-C , 25-C ) :   1.0715
B( 25-C , 26-H ) :   0.9483 B( 25-C , 27-H ) :   0.9536 B( 25-C , 28-C ) :   1.1109
B( 28-C , 29-H ) :   0.9644 B( 28-C , 30-H ) :   0.9655 B( 28-C , 31-H ) :   0.9647

Dispersion correction           -0.014919152
FINAL SINGLE POINT ENERGY     -1339.864800174941

DIPOLE MOMENT
-------------
                                X             Y             Z
Electronic contribution:    -17.59814      20.21358       7.13240
Nuclear contribution   :     17.97749     -20.64880      -7.23020
                        -----------------------------------------
Total Dipole Moment    :      0.37935      -0.43522      -0.09780
                        -----------------------------------------
Magnitude (a.u.)       :      0.58556
Magnitude (Debye)      :      1.48838

Rotational constants in cm-1:     0.019118     0.009490     0.007056
Rotational constants in MHz :   573.138347   284.494988   211.536990

                             ****ORCA TERMINATED NORMALLY****
TOTAL RUN TIME: 0 days 0 hours 0 minutes 35 seconds 122 msec
