                         Program Version 4.2.1 -  RELEASE  -
|  1> ! wB97X-D3 SP def2-SVP
|  2> %pal
|  3> nprocs 16
|  4> end
|  5>
|  6> * xyz 0 1
|  7> S 	 32.93 	 1.53371 	 65.1584
|  8> C 	 33.592 	 3.00435 	 64.5778
|  9> C 	 32.5927 	 3.88695 	 64.2508
| 10> C 	 31.288 	 3.39748 	 64.5459
| 11> C 	 31.2706 	 2.18337 	 65.2316
| 12> H 	 30.3798 	 3.83055 	 64.2738
| 13> C 	 32.8677 	 5.24079 	 63.5623
| 14> H 	 33.8508 	 5.45474 	 64.029
| 15> H 	 32.1323 	 5.91228 	 63.8609
| 16> C 	 32.9738 	 5.33941 	 62.0378
| 17> H 	 32.016 	 5.02958 	 61.623
| 18> H 	 33.0278 	 6.36354 	 61.7059
| 19> C 	 34.0764 	 4.55624 	 61.3029
| 20> H 	 34.2045 	 3.4949 	 61.4222
| 21> H 	 34.0235 	 4.55991 	 60.2607
| 22> H 	 35.0607 	 4.94343 	 61.5361
| 23> S 	 30.0833 	 -0.302405 	 65.3056
| 24> C 	 28.5166 	 -0.478278 	 66.1582
| 25> C 	 28.0251 	 0.738469 	 66.5006
| 26> C 	 28.9433 	 1.81676 	 66.27
| 27> C 	 30.1543 	 1.3984 	 65.6748
| 28> H 	 27.0939 	 0.765215 	 66.9015
| 29> C 	 28.586 	 3.16912 	 66.7225
| 30> H 	 29.4522 	 3.69106 	 67.1249
| 31> H 	 27.9674 	 2.89869 	 67.589
| 32> C 	 27.7846 	 4.03291 	 65.7282
| 33> H 	 26.8305 	 3.59298 	 65.4903
| 34> H 	 28.3609 	 4.15264 	 64.7969
| 35> C 	 27.6316 	 5.46794 	 66.3538
| 36> H 	 28.5346 	 5.79045 	 66.9301
| 37> H 	 26.7215 	 5.36047 	 67.0112
| 38> H 	 27.4727 	 6.23625 	 65.5666
| 39> H 	 34.6267 	 3.24522 	 64.5259
| 40> H 	 28.0011 	 -1.39425 	 66.4234
| 41> *
| 42>
| 43>                          ****END OF INPUT****

CARTESIAN COORDINATES (ANGSTROEM)
---------------------------------
  S     32.930000    1.533710   65.158400
  C     33.592000    3.004350   64.577800
  C     32.592700    3.886950   64.250800
  C     31.288000    3.397480   64.545900
  C     31.270600    2.183370   65.231600
  H     30.379800    3.830550   64.273800
  C     32.867700    5.240790   63.562300
  H     33.850800    5.454740   64.029000
  H     32.132300    5.912280   63.860900
  C     32.973800    5.339410   62.037800
  H     32.016000    5.029580   61.623000
  H     33.027800    6.363540   61.705900
  C     34.076400    4.556240   61.302900
  H     34.204500    3.494900   61.422200
  H     34.023500    4.559910   60.260700
  H     35.060700    4.943430   61.536100
  S     30.083300   -0.302405   65.305600
  C     28.516600   -0.478278   66.158200
  C     28.025100    0.738469   66.500600
  C     28.943300    1.816760   66.270000
  C     30.154300    1.398400   65.674800
  H     27.093900    0.765215   66.901500
  C     28.586000    3.169120   66.722500
  H     29.452200    3.691060   67.124900
  H     27.967400    2.898690   67.589000
  C     27.784600    4.032910   65.728200
  H     26.830500    3.592980   65.490300
  H     28.360900    4.152640   64.796900
  C     27.631600    5.467940   66.353800
  H     28.534600    5.790450   66.930100
  H     26.721500    5.360470   67.011200
  H     27.472700    6.236250   65.566600
  H     34.626700    3.245220   64.525900
  H     28.001100   -1.394250   66.423400

 Total Charge           Charge          ....    0
 Multiplicity           Mult            ....    1
 Number of Electrons    NEL             ....  134
 Basis Dimension        Dim             ....  322

ORBITAL ENERGIES
----------------

  NO   OCC          E(Eh)            E(eV)
   0   2.0000     -88.964171     -2420.8382
   1   2.0000     -88.963976     -2420.8329
   2   2.0000     -10.331969      -281.1472
   3   2.0000     -10.327167      -281.0165
   4   2.0000     -10.317180      -280.7447
   5   2.0000     -10.311201      -280.5820
   6   2.0000     -10.300829      -280.2998
   7   2.0000     -10.299636      -280.2673
   8   2.0000     -10.292346      -280.0690
   9   2.0000     -10.291900      -280.0568
  10   2.0000     -10.291832      -280.0550
  11   2.0000     -10.289574      -279.9935
  12   2.0000     -10.289133      -279.9815
  13   2.0000     -10.287314      -279.9321
  14   2.0000     -10.285236      -279.8755
  15   2.0000     -10.269209      -279.4394
  16   2.0000      -8.078956      -219.8396
  17   2.0000      -8.078475      -219.8265
  18   2.0000      -6.037513      -164.2891
  19   2.0000      -6.037155      -164.2793
  20   2.0000      -6.033401      -164.1772
  21   2.0000      -6.033107      -164.1692
  22   2.0000      -6.029674      -164.0758
  23   2.0000      -6.028999      -164.0574
  24   2.0000      -1.006758       -27.3953
  25   2.0000      -0.984635       -26.7933
  26   2.0000      -0.910844       -24.7853
  27   2.0000      -0.907807       -24.7027
  28   2.0000      -0.875893       -23.8343
  29   2.0000      -0.850360       -23.1395
  30   2.0000      -0.845405       -23.0046
  31   2.0000      -0.821260       -22.3476
  32   2.0000      -0.787454       -21.4277
  33   2.0000      -0.766373       -20.8541
  34   2.0000      -0.715406       -19.4672
  35   2.0000      -0.704206       -19.1624
  36   2.0000      -0.696289       -18.9470
  37   2.0000      -0.668139       -18.1810
  38   2.0000      -0.645580       -17.5671
  39   2.0000      -0.620647       -16.8887
  40   2.0000      -0.593221       -16.1424
  41   2.0000      -0.571335       -15.5468
  42   2.0000      -0.567581       -15.4447
  43   2.0000      -0.554644       -15.0926
  44   2.0000      -0.543616       -14.7925
  45   2.0000      -0.523634       -14.2488
  46   2.0000      -0.521399       -14.1880
  47   2.0000      -0.514345       -13.9960
  48   2.0000      -0.508555       -13.8385
  49   2.0000      -0.501410       -13.6441
  50   2.0000      -0.492159       -13.3923
  51   2.0000      -0.481966       -13.1149
  52   2.0000      -0.468999       -12.7621
  53   2.0000      -0.462797       -12.5933
  54   2.0000      -0.459286       -12.4978
  55   2.0000      -0.447533       -12.1780
  56   2.0000      -0.446738       -12.1564
  57   2.0000      -0.440780       -11.9942
  58   2.0000      -0.435576       -11.8526
  59   2.0000      -0.429627       -11.6907
  60   2.0000      -0.421764       -11.4768
  61   2.0000      -0.410062       -11.1583
  62   2.0000      -0.408436       -11.1141
  63   2.0000      -0.357692        -9.7333
  64   2.0000      -0.330466        -8.9924
  65   2.0000      -0.325770        -8.8646
  66   2.0000      -0.284445        -7.7401
  67   0.0000       0.019995         0.5441
  68   0.0000       0.075461         2.0534
  69   0.0000       0.105694         2.8761
  70   0.0000       0.126082         3.4309
  71   0.0000       0.130554         3.5525

MULLIKEN ATOMIC CHARGES
-----------------------
   0 S :    0.101749
   1 C :   -0.096432
   2 C :   -0.108995
   3 C :    0.062612
   4 C :   -0.153048
   5 H :   -0.037409
   6 C :    0.102185
   7 H :    0.021615
   8 H :    0.008689
   9 C :   -0.027219
  10 H :    0.014994
  11 H :    0.028139
  12 C :   -0.038938
  13 H :    0.023988
  14 H :    0.013098
  15 H :    0.013823
  16 S :    0.095110
  17 C :   -0.089186
  18 C :    0.003766
  19 C :   -0.039775
  20 C :   -0.117286
  21 H :   -0.021163
  22 C :    0.036786
  23 H :    0.029576
  24 H :    0.020941
  25 C :   -0.056553
  26 H :    0.028712
  27 H :    0.030068
  28 C :   -0.077561
  29 H :    0.044653
  30 H :    0.045103
  31 H :    0.041345
  32 H :    0.040737
  33 H :    0.055878
Sum of atomic charges:    0.0000000

LOEWDIN ATOMIC CHARGES
----------------------
   0 S :    0.405208
   1 C :   -0.197171
   2 C :   -0.066204
   3 C :   -0.051935
   4 C :   -0.180491
   5 H :    0.016476
   6 C :   -0.022960
   7 H :    0.033715
   8 H :    0.021753
   9 C :   -0.035457
  10 H :    0.023415
  11 H :    0.027672
  12 C :   -0.071690
  13 H :    0.025713
  14 H :    0.021866
  15 H :    0.021575
  16 S :    0.386734
  17 C :   -0.167200
  18 C :   -0.059877
  19 C :   -0.055965
  20 C :   -0.202289
  21 H :    0.016418
  22 C :   -0.039603
  23 H :    0.031816
  24 H :    0.034771
  25 C :   -0.033305
  26 H :    0.022694
  27 H :    0.019226
  28 C :   -0.072154
  29 H :    0.029363
  30 H :    0.032293
  31 H :    0.026604
  32 H :    0.026152
  33 H :    0.032837

  Mayer bond orders larger than 0.100000
B(  0-S ,  1-C ) :   1.1501 B(  0-S ,  4-C ) :   1.1428 B(  1-C ,  2-C ) :   1.5946
B(  1-C ,  4-C ) :   0.1004 B(  1-C , 32-H ) :   0.9702 B(  2-C ,  3-C ) :   1.2591
B(  2-C ,  6-C ) :   1.0104 B(  3-C ,  4-C ) :   1.5353 B(  3-C ,  5-H ) :   1.0049
B(  4-C , 20-C ) :   1.0901 B(  6-C ,  7-H ) :   0.9423 B(  6-C ,  8-H ) :   0.9353
B(  6-C ,  9-C ) :   1.0789 B(  9-C , 10-H ) :   0.9513 B(  9-C , 11-H ) :   0.9532
B(  9-C , 12-C ) :   1.0753 B( 12-C , 13-H ) :   0.9731 B( 12-C , 14-H ) :   0.9708
B( 12-C , 15-H ) :   0.9746 B( 16-S , 17-C ) :   1.1292 B( 16-S , 20-C ) :   1.1293
B( 17-C , 18-C ) :   1.6368 B( 17-C , 33-H ) :   0.9658 B( 18-C , 19-C ) :   1.2276
B( 18-C , 21-H ) :   1.0027 B( 19-C , 20-C ) :   1.5693 B( 19-C , 22-C ) :   1.0525
B( 22-C , 23-H ) :   0.9321 B( 22-C , 24-H ) :   0.9335 B( 22-C , 25-C ) :   1.0594
B( 25-C , 26-H ) :   0.9532 B( 25-C , 27-H ) :   0.9585 B( 25-C , 28-C ) :   1.0643
B( 28-C , 29-H ) :   0.9751 B( 28-C , 30-H ) :   0.9792 B( 28-C , 31-H ) :   0.9775

Dispersion correction           -0.014270801
FINAL SINGLE POINT ENERGY     -1339.865771190885

DIPOLE MOMENT
-------------
                                X             Y             Z
Electronic contribution:      4.41821     -25.76495       7.79940
Nuclear contribution   :     -4.78881      26.34256      -7.91088
                        -----------------------------------------
Total Dipole Moment    :     -0.37060       0.57761      -0.11149
                        -----------------------------------------
Magnitude (a.u.)       :      0.69528
Magnitude (Debye)      :      1.76725

Rotational constants in cm-1:     0.018387     0.008830     0.006554
Rotational constants in MHz :   551.219471   264.712632   196.487030

                             ****ORCA TERMINATED NORMALLY****
TOTAL RUN TIME: 0 days 0 hours 0 minutes 30 seconds 331 msec
