                         Program Version 4.2.1 -  RELEASE  -
|  1> ! wB97X-D3 SP def2-SVP
|  2> %pal
|  3> nprocs 16
|  4> end
|  5>
|  6> * xyz 0 1
|  7> S 	 9.27783 	 22.1573 	 62.9806
|  8> C 	 10.487 	 21.554 	 64.1935
|  9> C 	 10.3193 	 22.2975 	 65.3563
| 10> C 	 9.15763 	 23.1425 	 65.4263
| 11> C 	 8.43745 	 23.1317 	 64.2321
| 12> H 	 8.74298 	 23.6644 	 66.3443
| 13> C 	 11.208 	 22.2759 	 66.5838
| 14> H 	 10.94 	 23.1779 	 67.1768
| 15> H 	 12.226 	 22.458 	 66.313
| 16> C 	 11.0279 	 21.0747 	 67.5431
| 17> H 	 11.5082 	 21.3446 	 68.4833
| 18> H 	 10.0516 	 21.0748 	 67.8106
| 19> C 	 11.4153 	 19.6374 	 67.0651
| 20> H 	 12.5322 	 19.5684 	 66.7966
| 21> H 	 11.231 	 18.8949 	 67.7915
| 22> H 	 10.7879 	 19.3885 	 66.2301
| 23> S 	 5.8478 	 23.3464 	 65.0272
| 24> C 	 4.85911 	 24.6605 	 64.4466
| 25> C 	 5.4027 	 25.2956 	 63.346
| 26> C 	 6.77063 	 24.8079 	 63.0519
| 27> C 	 7.17423 	 23.7489 	 63.9334
| 28> H 	 4.87702 	 26.0978 	 62.8252
| 29> C 	 7.63347 	 25.4817 	 62.0331
| 30> H 	 8.60274 	 24.9583 	 61.9472
| 31> H 	 7.72543 	 26.5056 	 62.2935
| 32> C 	 7.01763 	 25.3999 	 60.667
| 33> H 	 5.95316 	 25.3987 	 60.8746
| 34> H 	 7.21629 	 24.4274 	 60.2921
| 35> C 	 7.50532 	 26.494 	 59.6614
| 36> H 	 6.77924 	 26.4584 	 58.8051
| 37> H 	 8.47612 	 26.3401 	 59.185
| 38> H 	 7.45578 	 27.4046 	 60.204
| 39> H 	 11.3376 	 20.9142 	 63.9372
| 40> H 	 3.87577 	 24.9026 	 64.8274
| 41> *
| 42>
| 43>                          ****END OF INPUT****

CARTESIAN COORDINATES (ANGSTROEM)
---------------------------------
  S      9.277830   22.157300   62.980600
  C     10.487000   21.554000   64.193500
  C     10.319300   22.297500   65.356300
  C      9.157630   23.142500   65.426300
  C      8.437450   23.131700   64.232100
  H      8.742980   23.664400   66.344300
  C     11.208000   22.275900   66.583800
  H     10.940000   23.177900   67.176800
  H     12.226000   22.458000   66.313000
  C     11.027900   21.074700   67.543100
  H     11.508200   21.344600   68.483300
  H     10.051600   21.074800   67.810600
  C     11.415300   19.637400   67.065100
  H     12.532200   19.568400   66.796600
  H     11.231000   18.894900   67.791500
  H     10.787900   19.388500   66.230100
  S      5.847800   23.346400   65.027200
  C      4.859110   24.660500   64.446600
  C      5.402700   25.295600   63.346000
  C      6.770630   24.807900   63.051900
  C      7.174230   23.748900   63.933400
  H      4.877020   26.097800   62.825200
  C      7.633470   25.481700   62.033100
  H      8.602740   24.958300   61.947200
  H      7.725430   26.505600   62.293500
  C      7.017630   25.399900   60.667000
  H      5.953160   25.398700   60.874600
  H      7.216290   24.427400   60.292100
  C      7.505320   26.494000   59.661400
  H      6.779240   26.458400   58.805100
  H      8.476120   26.340100   59.185000
  H      7.455780   27.404600   60.204000
  H     11.337600   20.914200   63.937200
  H      3.875770   24.902600   64.827400

 Total Charge           Charge          ....    0
 Multiplicity           Mult            ....    1
 Number of Electrons    NEL             ....  134
 Basis Dimension        Dim             ....  322

ORBITAL ENERGIES
----------------

  NO   OCC          E(Eh)            E(eV)
   0   2.0000     -88.966679     -2420.9064
   1   2.0000     -88.965461     -2420.8733
   2   2.0000     -10.335905      -281.2543
   3   2.0000     -10.330608      -281.1101
   4   2.0000     -10.323142      -280.9070
   5   2.0000     -10.320698      -280.8405
   6   2.0000     -10.313424      -280.6425
   7   2.0000     -10.305692      -280.4321
   8   2.0000     -10.303721      -280.3785
   9   2.0000     -10.302317      -280.3403
  10   2.0000     -10.290475      -280.0181
  11   2.0000     -10.281985      -279.7870
  12   2.0000     -10.280780      -279.7542
  13   2.0000     -10.280104      -279.7358
  14   2.0000     -10.279439      -279.7178
  15   2.0000     -10.276948      -279.6500
  16   2.0000      -8.081173      -219.8999
  17   2.0000      -8.078447      -219.8257
  18   2.0000      -6.039780      -164.3508
  19   2.0000      -6.037126      -164.2785
  20   2.0000      -6.035618      -164.2375
  21   2.0000      -6.033246      -164.1730
  22   2.0000      -6.031929      -164.1371
  23   2.0000      -6.029078      -164.0595
  24   2.0000      -0.998265       -27.1642
  25   2.0000      -0.974559       -26.5191
  26   2.0000      -0.915908       -24.9231
  27   2.0000      -0.906405       -24.6645
  28   2.0000      -0.867452       -23.6046
  29   2.0000      -0.844832       -22.9891
  30   2.0000      -0.840036       -22.8585
  31   2.0000      -0.810838       -22.0640
  32   2.0000      -0.784425       -21.3453
  33   2.0000      -0.771131       -20.9835
  34   2.0000      -0.708417       -19.2770
  35   2.0000      -0.703683       -19.1482
  36   2.0000      -0.694432       -18.8964
  37   2.0000      -0.660192       -17.9647
  38   2.0000      -0.634792       -17.2736
  39   2.0000      -0.615015       -16.7354
  40   2.0000      -0.598251       -16.2792
  41   2.0000      -0.572412       -15.5761
  42   2.0000      -0.565694       -15.3933
  43   2.0000      -0.541502       -14.7350
  44   2.0000      -0.535467       -14.5708
  45   2.0000      -0.522217       -14.2102
  46   2.0000      -0.517359       -14.0781
  47   2.0000      -0.512218       -13.9382
  48   2.0000      -0.507087       -13.7985
  49   2.0000      -0.499972       -13.6049
  50   2.0000      -0.487759       -13.2726
  51   2.0000      -0.482721       -13.1355
  52   2.0000      -0.469950       -12.7880
  53   2.0000      -0.463430       -12.6106
  54   2.0000      -0.459620       -12.5069
  55   2.0000      -0.452024       -12.3002
  56   2.0000      -0.441572       -12.0158
  57   2.0000      -0.436148       -11.8682
  58   2.0000      -0.433391       -11.7932
  59   2.0000      -0.423317       -11.5190
  60   2.0000      -0.419597       -11.4178
  61   2.0000      -0.411845       -11.2069
  62   2.0000      -0.408065       -11.1040
  63   2.0000      -0.339877        -9.2485
  64   2.0000      -0.332977        -9.0608
  65   2.0000      -0.326859        -8.8943
  66   2.0000      -0.294340        -8.0094
  67   0.0000       0.025260         0.6874
  68   0.0000       0.063247         1.7210
  69   0.0000       0.094035         2.5588
  70   0.0000       0.110280         3.0009
  71   0.0000       0.126086         3.4310

MULLIKEN ATOMIC CHARGES
-----------------------
   0 S :    0.086317
   1 C :   -0.125191
   2 C :   -0.098688
   3 C :    0.014449
   4 C :   -0.160209
   5 H :    0.050817
   6 C :    0.052030
   7 H :    0.019910
   8 H :    0.025024
   9 C :   -0.017068
  10 H :    0.021415
  11 H :   -0.006170
  12 C :   -0.053495
  13 H :    0.038878
  14 H :    0.028269
  15 H :    0.034727
  16 S :    0.109146
  17 C :   -0.090273
  18 C :   -0.038177
  19 C :   -0.066930
  20 C :   -0.154044
  21 H :    0.034909
  22 C :    0.116943
  23 H :    0.024187
  24 H :    0.018305
  25 C :   -0.097497
  26 H :    0.018291
  27 H :    0.015270
  28 C :   -0.031803
  29 H :    0.039115
  30 H :    0.043218
  31 H :    0.024983
  32 H :    0.065110
  33 H :    0.058232
Sum of atomic charges:    0.0000000

LOEWDIN ATOMIC CHARGES
----------------------
   0 S :    0.361249
   1 C :   -0.183656
   2 C :   -0.061661
   3 C :   -0.069431
   4 C :   -0.177923
   5 H :    0.047101
   6 C :   -0.030412
   7 H :    0.036001
   8 H :    0.024231
   9 C :   -0.031371
  10 H :    0.024618
  11 H :    0.010433
  12 C :   -0.065439
  13 H :    0.032179
  14 H :    0.021362
  15 H :    0.023485
  16 S :    0.407432
  17 C :   -0.183399
  18 C :   -0.076271
  19 C :   -0.040821
  20 C :   -0.207917
  21 H :    0.034638
  22 C :   -0.033324
  23 H :    0.029639
  24 H :    0.025335
  25 C :   -0.039213
  26 H :    0.020137
  27 H :    0.019400
  28 C :   -0.061395
  29 H :    0.034199
  30 H :    0.028366
  31 H :    0.018046
  32 H :    0.034731
  33 H :    0.029651

  Mayer bond orders larger than 0.100000
B(  0-S ,  1-C ) :   1.1078 B(  0-S ,  4-C ) :   1.1355 B(  1-C ,  2-C ) :   1.6264
B(  1-C ,  4-C ) :   0.1003 B(  1-C , 32-H ) :   0.9693 B(  2-C ,  3-C ) :   1.2182
B(  2-C ,  6-C ) :   1.0204 B(  3-C ,  4-C ) :   1.5930 B(  3-C ,  5-H ) :   0.9765
B(  4-C , 20-C ) :   1.0439 B(  6-C ,  7-H ) :   0.9391 B(  6-C ,  8-H ) :   0.9425
B(  6-C ,  9-C ) :   1.0727 B(  9-C , 10-H ) :   0.9538 B(  9-C , 11-H ) :   0.9472
B(  9-C , 12-C ) :   1.0786 B( 12-C , 13-H ) :   0.9775 B( 12-C , 14-H ) :   0.9735
B( 12-C , 15-H ) :   0.9718 B( 16-S , 17-C ) :   1.1574 B( 16-S , 20-C ) :   1.1302
B( 17-C , 18-C ) :   1.6244 B( 17-C , 33-H ) :   0.9651 B( 18-C , 19-C ) :   1.2163
B( 18-C , 21-H ) :   0.9814 B( 19-C , 20-C ) :   1.5764 B( 19-C , 22-C ) :   1.0661
B( 22-C , 23-H ) :   0.9278 B( 22-C , 24-H ) :   0.9292 B( 22-C , 25-C ) :   1.0542
B( 25-C , 26-H ) :   0.9667 B( 25-C , 27-H ) :   0.9482 B( 25-C , 28-C ) :   1.0660
B( 28-C , 29-H ) :   0.9746 B( 28-C , 30-H ) :   0.9761 B( 28-C , 31-H ) :   0.9783

Dispersion correction           -0.013979228
FINAL SINGLE POINT ENERGY     -1339.866064763207

DIPOLE MOMENT
-------------
                                X             Y             Z
Electronic contribution:    -10.82606      -2.90840       1.34211
Nuclear contribution   :     10.93515       3.24734      -1.14011
                        -----------------------------------------
Total Dipole Moment    :      0.10909       0.33894       0.20200
                        -----------------------------------------
Magnitude (a.u.)       :      0.40937
Magnitude (Debye)      :      1.04054

Rotational constants in cm-1:     0.023773     0.007189     0.005985
Rotational constants in MHz :   712.703002   215.505993   179.430025

                             ****ORCA TERMINATED NORMALLY****
TOTAL RUN TIME: 0 days 0 hours 0 minutes 34 seconds 965 msec
