                         Program Version 4.2.1 -  RELEASE  -
|  1> ! wB97X-D3 SP def2-SVP
|  2> %pal
|  3> nprocs 16
|  4> end
|  5>
|  6> * xyz 0 1
|  7> S 	 -72.8274 	 41.5568 	 137.625
|  8> C 	 -73.4465 	 40.3968 	 136.42
|  9> C 	 -72.4869 	 39.4352 	 136.086
| 10> C 	 -71.2743 	 39.7191 	 136.743
| 11> C 	 -71.2852 	 40.8014 	 137.553
| 12> H 	 -70.4124 	 39.1409 	 136.674
| 13> C 	 -72.6262 	 38.1254 	 135.216
| 14> H 	 -73.6715 	 37.787 	 135.344
| 15> H 	 -72.0161 	 37.3619 	 135.69
| 16> C 	 -72.204 	 38.2666 	 133.73
| 17> H 	 -72.7086 	 39.1619 	 133.334
| 18> H 	 -71.1933 	 38.602 	 133.564
| 19> C 	 -72.496 	 36.9858 	 132.961
| 20> H 	 -72.1111 	 36.9252 	 131.96
| 21> H 	 -72.0807 	 36.1504 	 133.431
| 22> H 	 -73.6224 	 36.9111 	 132.9
| 23> S 	 -68.8658 	 40.1034 	 138.635
| 24> C 	 -67.9594 	 41.2728 	 139.52
| 25> C 	 -68.6614 	 42.4337 	 139.75
| 26> C 	 -69.8729 	 42.4854 	 138.943
| 27> C 	 -70.1234 	 41.2663 	 138.32
| 28> H 	 -68.2949 	 43.2252 	 140.41
| 29> C 	 -70.7842 	 43.7327 	 138.841
| 30> H 	 -71.6483 	 43.6052 	 139.479
| 31> H 	 -71.16 	 43.8012 	 137.889
| 32> C 	 -70.0579 	 45.1316 	 139.183
| 33> H 	 -69.305 	 45.376 	 138.376
| 34> H 	 -69.5268 	 45.1346 	 140.124
| 35> C 	 -71.012 	 46.3217 	 139.186
| 36> H 	 -71.7175 	 46.1594 	 138.371
| 37> H 	 -70.5246 	 47.2321 	 138.962
| 38> H 	 -71.6031 	 46.5301 	 140.1
| 39> H 	 -74.5153 	 40.3472 	 136.135
| 40> H 	 -67.0839 	 41.0369 	 140.063
| 41> *
| 42>
| 43>                          ****END OF INPUT****

CARTESIAN COORDINATES (ANGSTROEM)
---------------------------------
  S    -72.827400   41.556800  137.625000
  C    -73.446500   40.396800  136.420000
  C    -72.486900   39.435200  136.086000
  C    -71.274300   39.719100  136.743000
  C    -71.285200   40.801400  137.553000
  H    -70.412400   39.140900  136.674000
  C    -72.626200   38.125400  135.216000
  H    -73.671500   37.787000  135.344000
  H    -72.016100   37.361900  135.690000
  C    -72.204000   38.266600  133.730000
  H    -72.708600   39.161900  133.334000
  H    -71.193300   38.602000  133.564000
  C    -72.496000   36.985800  132.961000
  H    -72.111100   36.925200  131.960000
  H    -72.080700   36.150400  133.431000
  H    -73.622400   36.911100  132.900000
  S    -68.865800   40.103400  138.635000
  C    -67.959400   41.272800  139.520000
  C    -68.661400   42.433700  139.750000
  C    -69.872900   42.485400  138.943000
  C    -70.123400   41.266300  138.320000
  H    -68.294900   43.225200  140.410000
  C    -70.784200   43.732700  138.841000
  H    -71.648300   43.605200  139.479000
  H    -71.160000   43.801200  137.889000
  C    -70.057900   45.131600  139.183000
  H    -69.305000   45.376000  138.376000
  H    -69.526800   45.134600  140.124000
  C    -71.012000   46.321700  139.186000
  H    -71.717500   46.159400  138.371000
  H    -70.524600   47.232100  138.962000
  H    -71.603100   46.530100  140.100000
  H    -74.515300   40.347200  136.135000
  H    -67.083900   41.036900  140.063000

 Total Charge           Charge          ....    0
 Multiplicity           Mult            ....    1
 Number of Electrons    NEL             ....  134
 Basis Dimension        Dim             ....  322

ORBITAL ENERGIES
----------------

  NO   OCC          E(Eh)            E(eV)
   0   2.0000     -88.969872     -2420.9933
   1   2.0000     -88.965372     -2420.8709
   2   2.0000     -10.325488      -280.9708
   3   2.0000     -10.324387      -280.9408
   4   2.0000     -10.318791      -280.7886
   5   2.0000     -10.311279      -280.5842
   6   2.0000     -10.306521      -280.4547
   7   2.0000     -10.305166      -280.4178
   8   2.0000     -10.301122      -280.3078
   9   2.0000     -10.296521      -280.1826
  10   2.0000     -10.294319      -280.1227
  11   2.0000     -10.292484      -280.0727
  12   2.0000     -10.286494      -279.9097
  13   2.0000     -10.279730      -279.7257
  14   2.0000     -10.276261      -279.6313
  15   2.0000     -10.273956      -279.5686
  16   2.0000      -8.084026      -219.9775
  17   2.0000      -8.080660      -219.8859
  18   2.0000      -6.042601      -164.4275
  19   2.0000      -6.039170      -164.3342
  20   2.0000      -6.038654      -164.3201
  21   2.0000      -6.035204      -164.2263
  22   2.0000      -6.034731      -164.2134
  23   2.0000      -6.031303      -164.1201
  24   2.0000      -1.009994       -27.4833
  25   2.0000      -0.984757       -26.7966
  26   2.0000      -0.907162       -24.6851
  27   2.0000      -0.900749       -24.5106
  28   2.0000      -0.868793       -23.6411
  29   2.0000      -0.856781       -23.3142
  30   2.0000      -0.845584       -23.0095
  31   2.0000      -0.811365       -22.0784
  32   2.0000      -0.783454       -21.3189
  33   2.0000      -0.772768       -21.0281
  34   2.0000      -0.707118       -19.2417
  35   2.0000      -0.703764       -19.1504
  36   2.0000      -0.694377       -18.8950
  37   2.0000      -0.663711       -18.0605
  38   2.0000      -0.634250       -17.2588
  39   2.0000      -0.619059       -16.8455
  40   2.0000      -0.600294       -16.3348
  41   2.0000      -0.565565       -15.3898
  42   2.0000      -0.561840       -15.2884
  43   2.0000      -0.556832       -15.1522
  44   2.0000      -0.527515       -14.3544
  45   2.0000      -0.523143       -14.2355
  46   2.0000      -0.518247       -14.1022
  47   2.0000      -0.510007       -13.8780
  48   2.0000      -0.506240       -13.7755
  49   2.0000      -0.501913       -13.6578
  50   2.0000      -0.488993       -13.3062
  51   2.0000      -0.474429       -12.9099
  52   2.0000      -0.469588       -12.7781
  53   2.0000      -0.466346       -12.6899
  54   2.0000      -0.462131       -12.5752
  55   2.0000      -0.455573       -12.3968
  56   2.0000      -0.449927       -12.2431
  57   2.0000      -0.441624       -12.0172
  58   2.0000      -0.430440       -11.7129
  59   2.0000      -0.426222       -11.5981
  60   2.0000      -0.423936       -11.5359
  61   2.0000      -0.415381       -11.3031
  62   2.0000      -0.412117       -11.2143
  63   2.0000      -0.358576        -9.7574
  64   2.0000      -0.335621        -9.1327
  65   2.0000      -0.329825        -8.9750
  66   2.0000      -0.282737        -7.6937
  67   0.0000       0.025629         0.6974
  68   0.0000       0.083238         2.2650
  69   0.0000       0.110691         3.0121
  70   0.0000       0.118548         3.2259
  71   0.0000       0.128795         3.5047

MULLIKEN ATOMIC CHARGES
-----------------------
   0 S :    0.094254
   1 C :   -0.148100
   2 C :   -0.056403
   3 C :   -0.012815
   4 C :   -0.095932
   5 H :   -0.012895
   6 C :    0.051067
   7 H :    0.029050
   8 H :    0.026944
   9 C :   -0.061068
  10 H :    0.024931
  11 H :    0.020849
  12 C :   -0.021132
  13 H :    0.029596
  14 H :    0.018190
  15 H :    0.036935
  16 S :    0.092389
  17 C :   -0.059818
  18 C :   -0.045542
  19 C :   -0.092328
  20 C :   -0.107388
  21 H :    0.028995
  22 C :    0.087665
  23 H :    0.042386
  24 H :    0.013859
  25 C :   -0.109330
  26 H :    0.045966
  27 H :    0.034582
  28 C :   -0.036154
  29 H :    0.021041
  30 H :    0.021357
  31 H :    0.037929
  32 H :    0.057989
  33 H :    0.042930
Sum of atomic charges:   -0.0000000

LOEWDIN ATOMIC CHARGES
----------------------
   0 S :    0.417670
   1 C :   -0.200066
   2 C :   -0.053226
   3 C :   -0.074913
   4 C :   -0.191096
   5 H :    0.012956
   6 C :   -0.022465
   7 H :    0.032390
   8 H :    0.028798
   9 C :   -0.045645
  10 H :    0.026543
  11 H :    0.022087
  12 C :   -0.061780
  13 H :    0.025106
  14 H :    0.017194
  15 H :    0.033663
  16 S :    0.420357
  17 C :   -0.187626
  18 C :   -0.067606
  19 C :   -0.057736
  20 C :   -0.193624
  21 H :    0.034443
  22 C :   -0.029854
  23 H :    0.029340
  24 H :    0.012615
  25 C :   -0.038550
  26 H :    0.034573
  27 H :    0.018226
  28 C :   -0.068738
  29 H :    0.025320
  30 H :    0.021022
  31 H :    0.027322
  32 H :    0.031918
  33 H :    0.021382

  Mayer bond orders larger than 0.100000
B(  0-S ,  1-C ) :   1.1278 B(  0-S ,  4-C ) :   1.1446 B(  1-C ,  2-C ) :   1.6097
B(  1-C , 32-H ) :   0.9649 B(  2-C ,  3-C ) :   1.2567 B(  2-C ,  6-C ) :   1.0046
B(  3-C ,  4-C ) :   1.5622 B(  3-C ,  5-H ) :   0.9988 B(  4-C , 20-C ) :   1.0658
B(  6-C ,  7-H ) :   0.9477 B(  6-C ,  8-H ) :   0.9456 B(  6-C ,  9-C ) :   1.0514
B(  9-C , 10-H ) :   0.9555 B(  9-C , 11-H ) :   0.9555 B(  9-C , 12-C ) :   1.0775
B( 12-C , 13-H ) :   0.9733 B( 12-C , 14-H ) :   0.9738 B( 12-C , 15-H ) :   0.9762
B( 16-S , 17-C ) :   1.1524 B( 16-S , 20-C ) :   1.1409 B( 17-C , 18-C ) :   1.6243
B( 17-C , 33-H ) :   0.9669 B( 18-C , 19-C ) :   1.2362 B( 18-C , 21-H ) :   0.9842
B( 19-C , 20-C ) :   1.5966 B( 19-C , 22-C ) :   1.0264 B( 22-C , 23-H ) :   0.9368
B( 22-C , 24-H ) :   0.9281 B( 22-C , 25-C ) :   1.0599 B( 25-C , 26-H ) :   0.9607
B( 25-C , 27-H ) :   0.9561 B( 25-C , 28-C ) :   1.0846 B( 28-C , 29-H ) :   0.9725
B( 28-C , 30-H ) :   0.9735 B( 28-C , 31-H ) :   0.9755

Dispersion correction           -0.013075082
FINAL SINGLE POINT ENERGY     -1339.879966183959

DIPOLE MOMENT
-------------
                                X             Y             Z
Electronic contribution:      4.95147      -4.44282      11.23708
Nuclear contribution   :     -4.95792       4.47291     -11.30859
                        -----------------------------------------
Total Dipole Moment    :     -0.00645       0.03010      -0.07151
                        -----------------------------------------
Magnitude (a.u.)       :      0.07785
Magnitude (Debye)      :      0.19789

Rotational constants in cm-1:     0.022733     0.006974     0.005696
Rotational constants in MHz :   681.516155   209.076053   170.753505

                             ****ORCA TERMINATED NORMALLY****
TOTAL RUN TIME: 0 days 0 hours 0 minutes 31 seconds 380 msec
