                         Program Version 4.2.1 -  RELEASE  -
|  1> ! wB97X-D3 SP def2-SVP
|  2> %pal
|  3> nprocs 16
|  4> end
|  5>
|  6> * xyz 0 1
|  7> S 	 6.9359 	 22.3255 	 65.0518
|  8> C 	 6.0032 	 21.9786 	 63.6545
|  9> C 	 5.08046 	 22.94 	 63.3262
| 10> C 	 5.07216 	 23.9963 	 64.3171
| 11> C 	 6.07118 	 23.9009 	 65.2472
| 12> H 	 4.53692 	 24.9475 	 64.301
| 13> C 	 4.17849 	 22.8882 	 62.1019
| 14> H 	 3.17249 	 23.1362 	 62.3146
| 15> H 	 4.36382 	 21.8749 	 61.8054
| 16> C 	 4.61345 	 23.807 	 60.8605
| 17> H 	 4.03122 	 23.5506 	 59.9354
| 18> H 	 4.35766 	 24.8439 	 61.0616
| 19> C 	 6.10382 	 23.7467 	 60.4267
| 20> H 	 6.41127 	 22.6903 	 60.1792
| 21> H 	 6.29164 	 24.2407 	 59.4747
| 22> H 	 6.74312 	 24.1148 	 61.1579
| 23> S 	 8.25746 	 25.334 	 65.7401
| 24> C 	 8.23822 	 26.6949 	 66.9008
| 25> C 	 6.95885 	 26.7814 	 67.4499
| 26> C 	 6.03632 	 25.8112 	 67.0332
| 27> C 	 6.5577 	 24.9778 	 66.0944
| 28> H 	 6.87343 	 27.5577 	 68.2133
| 29> C 	 4.5511 	 25.7992 	 67.4095
| 30> H 	 4.37725 	 25.6762 	 68.4793
| 31> H 	 4.05376 	 24.9839 	 66.8321
| 32> C 	 3.87688 	 27.1538 	 67.0452
| 33> H 	 4.34512 	 27.4925 	 66.1299
| 34> H 	 4.11755 	 27.9106 	 67.778
| 35> C 	 2.33977 	 26.9974 	 66.9183
| 36> H 	 1.78357 	 27.922 	 66.5588
| 37> H 	 1.88383 	 26.8376 	 67.8895
| 38> H 	 2.10553 	 26.1417 	 66.2534
| 39> H 	 6.21324 	 21.0699 	 63.1416
| 40> H 	 9.10605 	 27.2688 	 67.0506
| 41> *
| 42>
| 43>                          ****END OF INPUT****

CARTESIAN COORDINATES (ANGSTROEM)
---------------------------------
  S      6.935900   22.325500   65.051800
  C      6.003200   21.978600   63.654500
  C      5.080460   22.940000   63.326200
  C      5.072160   23.996300   64.317100
  C      6.071180   23.900900   65.247200
  H      4.536920   24.947500   64.301000
  C      4.178490   22.888200   62.101900
  H      3.172490   23.136200   62.314600
  H      4.363820   21.874900   61.805400
  C      4.613450   23.807000   60.860500
  H      4.031220   23.550600   59.935400
  H      4.357660   24.843900   61.061600
  C      6.103820   23.746700   60.426700
  H      6.411270   22.690300   60.179200
  H      6.291640   24.240700   59.474700
  H      6.743120   24.114800   61.157900
  S      8.257460   25.334000   65.740100
  C      8.238220   26.694900   66.900800
  C      6.958850   26.781400   67.449900
  C      6.036320   25.811200   67.033200
  C      6.557700   24.977800   66.094400
  H      6.873430   27.557700   68.213300
  C      4.551100   25.799200   67.409500
  H      4.377250   25.676200   68.479300
  H      4.053760   24.983900   66.832100
  C      3.876880   27.153800   67.045200
  H      4.345120   27.492500   66.129900
  H      4.117550   27.910600   67.778000
  C      2.339770   26.997400   66.918300
  H      1.783570   27.922000   66.558800
  H      1.883830   26.837600   67.889500
  H      2.105530   26.141700   66.253400
  H      6.213240   21.069900   63.141600
  H      9.106050   27.268800   67.050600

 Total Charge           Charge          ....    0
 Multiplicity           Mult            ....    1
 Number of Electrons    NEL             ....  134
 Basis Dimension        Dim             ....  322

ORBITAL ENERGIES
----------------

  NO   OCC          E(Eh)            E(eV)
   0   2.0000     -88.965535     -2420.8753
   1   2.0000     -88.960400     -2420.7356
   2   2.0000     -10.331282      -281.1285
   3   2.0000     -10.326325      -280.9936
   4   2.0000     -10.318836      -280.7898
   5   2.0000     -10.311713      -280.5960
   6   2.0000     -10.304615      -280.4028
   7   2.0000     -10.303096      -280.3615
   8   2.0000     -10.297224      -280.2017
   9   2.0000     -10.296676      -280.1868
  10   2.0000     -10.296279      -280.1760
  11   2.0000     -10.294302      -280.1222
  12   2.0000     -10.293698      -280.1058
  13   2.0000     -10.286836      -279.9190
  14   2.0000     -10.286434      -279.9081
  15   2.0000     -10.273337      -279.5517
  16   2.0000      -8.080303      -219.8762
  17   2.0000      -8.074682      -219.7233
  18   2.0000      -6.038825      -164.3248
  19   2.0000      -6.034859      -164.2169
  20   2.0000      -6.033164      -164.1707
  21   2.0000      -6.030988      -164.1115
  22   2.0000      -6.029204      -164.0630
  23   2.0000      -6.025522      -163.9628
  24   2.0000      -1.006558       -27.3898
  25   2.0000      -0.983266       -26.7560
  26   2.0000      -0.906055       -24.6550
  27   2.0000      -0.901464       -24.5301
  28   2.0000      -0.871096       -23.7037
  29   2.0000      -0.849024       -23.1031
  30   2.0000      -0.843580       -22.9550
  31   2.0000      -0.816529       -22.2189
  32   2.0000      -0.779402       -21.2086
  33   2.0000      -0.771500       -20.9936
  34   2.0000      -0.706712       -19.2306
  35   2.0000      -0.701458       -19.0876
  36   2.0000      -0.694358       -18.8944
  37   2.0000      -0.664078       -18.0705
  38   2.0000      -0.648602       -17.6494
  39   2.0000      -0.615834       -16.7577
  40   2.0000      -0.596259       -16.2250
  41   2.0000      -0.571083       -15.5399
  42   2.0000      -0.563282       -15.3277
  43   2.0000      -0.551914       -15.0183
  44   2.0000      -0.540603       -14.7106
  45   2.0000      -0.528758       -14.3882
  46   2.0000      -0.515499       -14.0274
  47   2.0000      -0.511469       -13.9178
  48   2.0000      -0.500031       -13.6065
  49   2.0000      -0.494452       -13.4547
  50   2.0000      -0.484376       -13.1805
  51   2.0000      -0.480444       -13.0735
  52   2.0000      -0.470459       -12.8018
  53   2.0000      -0.466192       -12.6857
  54   2.0000      -0.455881       -12.4051
  55   2.0000      -0.443920       -12.0797
  56   2.0000      -0.440611       -11.9896
  57   2.0000      -0.437466       -11.9041
  58   2.0000      -0.433729       -11.8024
  59   2.0000      -0.424094       -11.5402
  60   2.0000      -0.421978       -11.4826
  61   2.0000      -0.420311       -11.4372
  62   2.0000      -0.414885       -11.2896
  63   2.0000      -0.351248        -9.5579
  64   2.0000      -0.332527        -9.0485
  65   2.0000      -0.326497        -8.8844
  66   2.0000      -0.294567        -8.0156
  67   0.0000       0.032570         0.8863
  68   0.0000       0.064052         1.7429
  69   0.0000       0.112265         3.0549
  70   0.0000       0.116449         3.1687
  71   0.0000       0.128688         3.5018

MULLIKEN ATOMIC CHARGES
-----------------------
   0 S :    0.109692
   1 C :   -0.121053
   2 C :   -0.102522
   3 C :    0.045675
   4 C :   -0.164645
   5 H :    0.020287
   6 C :    0.130134
   7 H :    0.029631
   8 H :    0.012296
   9 C :   -0.108072
  10 H :    0.038279
  11 H :    0.029100
  12 C :   -0.051159
  13 H :    0.021245
  14 H :    0.031472
  15 H :    0.039639
  16 S :    0.080581
  17 C :   -0.094109
  18 C :   -0.043394
  19 C :    0.002305
  20 C :   -0.169891
  21 H :    0.025007
  22 C :    0.063765
  23 H :    0.033499
  24 H :    0.032319
  25 C :   -0.086988
  26 H :    0.032446
  27 H :    0.030608
  28 C :   -0.069266
  29 H :    0.043984
  30 H :    0.029912
  31 H :    0.037855
  32 H :    0.043487
  33 H :    0.047880
Sum of atomic charges:   -0.0000000

LOEWDIN ATOMIC CHARGES
----------------------
   0 S :    0.391908
   1 C :   -0.194660
   2 C :   -0.066178
   3 C :   -0.059533
   4 C :   -0.181756
   5 H :    0.034263
   6 C :   -0.019197
   7 H :    0.027952
   8 H :    0.028975
   9 C :   -0.041120
  10 H :    0.029416
  11 H :    0.018688
  12 C :   -0.066388
  13 H :    0.026781
  14 H :    0.027842
  15 H :    0.016508
  16 S :    0.378029
  17 C :   -0.161995
  18 C :   -0.070189
  19 C :   -0.064941
  20 C :   -0.180500
  21 H :    0.034125
  22 C :   -0.024432
  23 H :    0.031440
  24 H :    0.032570
  25 C :   -0.041007
  26 H :    0.020323
  27 H :    0.021617
  28 C :   -0.072470
  29 H :    0.033417
  30 H :    0.023600
  31 H :    0.026448
  32 H :    0.021216
  33 H :    0.019249

  Mayer bond orders larger than 0.100000
B(  0-S ,  1-C ) :   1.1435 B(  0-S ,  4-C ) :   1.1271 B(  1-C ,  2-C ) :   1.6249
B(  1-C , 32-H ) :   0.9663 B(  2-C ,  3-C ) :   1.2045 B(  2-C ,  6-C ) :   1.0273
B(  3-C ,  4-C ) :   1.6118 B(  3-C ,  5-H ) :   0.9867 B(  4-C , 20-C ) :   1.0291
B(  6-C ,  7-H ) :   0.9443 B(  6-C ,  8-H ) :   0.9369 B(  6-C ,  9-C ) :   1.0542
B(  9-C , 10-H ) :   0.9616 B(  9-C , 11-H ) :   0.9598 B(  9-C , 12-C ) :   1.0768
B( 12-C , 13-H ) :   0.9752 B( 12-C , 14-H ) :   0.9739 B( 12-C , 15-H ) :   0.9757
B( 16-S , 17-C ) :   1.1438 B( 16-S , 20-C ) :   1.1412 B( 17-C , 18-C ) :   1.6061
B( 17-C , 20-C ) :   0.1066 B( 17-C , 33-H ) :   0.9805 B( 18-C , 19-C ) :   1.2057
B( 18-C , 21-H ) :   0.9924 B( 19-C , 20-C ) :   1.6235 B( 19-C , 22-C ) :   1.0486
B( 22-C , 23-H ) :   0.9292 B( 22-C , 24-H ) :   0.9425 B( 22-C , 25-C ) :   1.0489
B( 25-C , 26-H ) :   0.9628 B( 25-C , 27-H ) :   0.9510 B( 25-C , 28-C ) :   1.0809
B( 28-C , 29-H ) :   0.9747 B( 28-C , 30-H ) :   0.9737 B( 28-C , 31-H ) :   0.9768

Dispersion correction           -0.014498477
FINAL SINGLE POINT ENERGY     -1339.881624812859

DIPOLE MOMENT
-------------
                                X             Y             Z
Electronic contribution:     20.06970      -8.74534      10.55487
Nuclear contribution   :    -20.48061       9.11703     -10.70971
                        -----------------------------------------
Total Dipole Moment    :     -0.41091       0.37168      -0.15484
                        -----------------------------------------
Magnitude (a.u.)       :      0.57530
Magnitude (Debye)      :      1.46230

Rotational constants in cm-1:     0.017282     0.009021     0.007250
Rotational constants in MHz :   518.105489   270.455868   217.354457

                             ****ORCA TERMINATED NORMALLY****
TOTAL RUN TIME: 0 days 0 hours 0 minutes 33 seconds 181 msec
