                         Program Version 4.2.1 -  RELEASE  -
|  1> ! wB97X-D3 SP def2-SVP
|  2> %pal
|  3> nprocs 16
|  4> end
|  5>
|  6> * xyz 0 1
|  7> S 	 43.4722 	 12.8232 	 103.253
|  8> C 	 44.7772 	 13.3343 	 104.344
|  9> C 	 45.8715 	 12.5905 	 104.057
| 10> C 	 45.6776 	 11.5976 	 102.995
| 11> C 	 44.3782 	 11.5784 	 102.496
| 12> H 	 46.3451 	 10.8682 	 102.685
| 13> C 	 47.1759 	 12.853 	 104.619
| 14> H 	 47.0486 	 13.0648 	 105.726
| 15> H 	 47.542 	 13.8105 	 104.236
| 16> C 	 48.2479 	 11.7494 	 104.434
| 17> H 	 48.2487 	 11.418 	 103.351
| 18> H 	 49.1664 	 12.3231 	 104.64
| 19> C 	 48.081 	 10.6018 	 105.405
| 20> H 	 47.1269 	 10.164 	 105.208
| 21> H 	 48.8284 	 9.82039 	 105.358
| 22> H 	 48.0097 	 11.0212 	 106.41
| 23> S 	 42.7555 	 9.38801 	 102.039
| 24> C 	 42.5749 	 8.74557 	 100.502
| 25> C 	 43.2122 	 9.54071 	 99.5772
| 26> C 	 43.9898 	 10.632 	 100.129
| 27> C 	 43.8391 	 10.6843 	 101.505
| 28> H 	 43.2508 	 9.29919 	 98.563
| 29> C 	 44.9483 	 11.5139 	 99.3436
| 30> H 	 45.9407 	 11.1497 	 99.6796
| 31> H 	 44.8384 	 12.4991 	 99.6876
| 32> C 	 44.9645 	 11.2767 	 97.783
| 33> H 	 45.0648 	 10.2248 	 97.5791
| 34> H 	 45.8194 	 11.8246 	 97.37
| 35> C 	 43.6428 	 11.8689 	 97.1931
| 36> H 	 43.6177 	 11.9231 	 96.0982
| 37> H 	 43.5363 	 12.9422 	 97.4685
| 38> H 	 42.8496 	 11.2672 	 97.6379
| 39> H 	 44.7087 	 14.2258 	 104.983
| 40> H 	 41.8568 	 7.98735 	 100.28
| 41> *
| 42>
| 43>                          ****END OF INPUT****

CARTESIAN COORDINATES (ANGSTROEM)
---------------------------------
  S     43.472200   12.823200  103.253000
  C     44.777200   13.334300  104.344000
  C     45.871500   12.590500  104.057000
  C     45.677600   11.597600  102.995000
  C     44.378200   11.578400  102.496000
  H     46.345100   10.868200  102.685000
  C     47.175900   12.853000  104.619000
  H     47.048600   13.064800  105.726000
  H     47.542000   13.810500  104.236000
  C     48.247900   11.749400  104.434000
  H     48.248700   11.418000  103.351000
  H     49.166400   12.323100  104.640000
  C     48.081000   10.601800  105.405000
  H     47.126900   10.164000  105.208000
  H     48.828400    9.820390  105.358000
  H     48.009700   11.021200  106.410000
  S     42.755500    9.388010  102.039000
  C     42.574900    8.745570  100.502000
  C     43.212200    9.540710   99.577200
  C     43.989800   10.632000  100.129000
  C     43.839100   10.684300  101.505000
  H     43.250800    9.299190   98.563000
  C     44.948300   11.513900   99.343600
  H     45.940700   11.149700   99.679600
  H     44.838400   12.499100   99.687600
  C     44.964500   11.276700   97.783000
  H     45.064800   10.224800   97.579100
  H     45.819400   11.824600   97.370000
  C     43.642800   11.868900   97.193100
  H     43.617700   11.923100   96.098200
  H     43.536300   12.942200   97.468500
  H     42.849600   11.267200   97.637900
  H     44.708700   14.225800  104.983000
  H     41.856800    7.987350  100.280000

 Total Charge           Charge          ....    0
 Multiplicity           Mult            ....    1
 Number of Electrons    NEL             ....  134
 Basis Dimension        Dim             ....  322

ORBITAL ENERGIES
----------------

  NO   OCC          E(Eh)            E(eV)
   0   2.0000     -88.961667     -2420.7700
   1   2.0000     -88.960409     -2420.7358
   2   2.0000     -10.326498      -280.9983
   3   2.0000     -10.322036      -280.8769
   4   2.0000     -10.313011      -280.6313
   5   2.0000     -10.312426      -280.6154
   6   2.0000     -10.306154      -280.4447
   7   2.0000     -10.297074      -280.1976
   8   2.0000     -10.293302      -280.0950
   9   2.0000     -10.293032      -280.0876
  10   2.0000     -10.290994      -280.0322
  11   2.0000     -10.290828      -280.0277
  12   2.0000     -10.289852      -280.0011
  13   2.0000     -10.288820      -279.9730
  14   2.0000     -10.279965      -279.7321
  15   2.0000     -10.273415      -279.5538
  16   2.0000      -8.077737      -219.8064
  17   2.0000      -8.075507      -219.7457
  18   2.0000      -6.036049      -164.2492
  19   2.0000      -6.034017      -164.1940
  20   2.0000      -6.031910      -164.1366
  21   2.0000      -6.029756      -164.0780
  22   2.0000      -6.028753      -164.0507
  23   2.0000      -6.026423      -163.9873
  24   2.0000      -1.009377       -27.4665
  25   2.0000      -0.988196       -26.8902
  26   2.0000      -0.918685       -24.9987
  27   2.0000      -0.908335       -24.7171
  28   2.0000      -0.875397       -23.8208
  29   2.0000      -0.846703       -23.0400
  30   2.0000      -0.839575       -22.8460
  31   2.0000      -0.817019       -22.2322
  32   2.0000      -0.784557       -21.3489
  33   2.0000      -0.773201       -21.0399
  34   2.0000      -0.713198       -19.4071
  35   2.0000      -0.703638       -19.1470
  36   2.0000      -0.689940       -18.7742
  37   2.0000      -0.656547       -17.8656
  38   2.0000      -0.641593       -17.4586
  39   2.0000      -0.625144       -17.0110
  40   2.0000      -0.605688       -16.4816
  41   2.0000      -0.569560       -15.4985
  42   2.0000      -0.556958       -15.1556
  43   2.0000      -0.549561       -14.9543
  44   2.0000      -0.540505       -14.7079
  45   2.0000      -0.531532       -14.4637
  46   2.0000      -0.524482       -14.2719
  47   2.0000      -0.520017       -14.1504
  48   2.0000      -0.509031       -13.8514
  49   2.0000      -0.500338       -13.6149
  50   2.0000      -0.494597       -13.4587
  51   2.0000      -0.478169       -13.0117
  52   2.0000      -0.473415       -12.8823
  53   2.0000      -0.471303       -12.8248
  54   2.0000      -0.458685       -12.4814
  55   2.0000      -0.448680       -12.2092
  56   2.0000      -0.442036       -12.0284
  57   2.0000      -0.437313       -11.8999
  58   2.0000      -0.435813       -11.8591
  59   2.0000      -0.424218       -11.5436
  60   2.0000      -0.418239       -11.3809
  61   2.0000      -0.416247       -11.3266
  62   2.0000      -0.406054       -11.0493
  63   2.0000      -0.331640        -9.0244
  64   2.0000      -0.328161        -8.9297
  65   2.0000      -0.321260        -8.7419
  66   2.0000      -0.308978        -8.4077
  67   0.0000       0.041751         1.1361
  68   0.0000       0.058427         1.5899
  69   0.0000       0.121414         3.3038
  70   0.0000       0.126474         3.4415
  71   0.0000       0.137346         3.7374

MULLIKEN ATOMIC CHARGES
-----------------------
   0 S :    0.104267
   1 C :   -0.140447
   2 C :   -0.056463
   3 C :    0.056719
   4 C :   -0.164223
   5 H :   -0.013697
   6 C :    0.003075
   7 H :    0.029751
   8 H :    0.042615
   9 C :   -0.094860
  10 H :    0.042192
  11 H :    0.027652
  12 C :   -0.005112
  13 H :    0.021956
  14 H :    0.039870
  15 H :    0.023050
  16 S :    0.120509
  17 C :   -0.063716
  18 C :   -0.042029
  19 C :   -0.042420
  20 C :   -0.205696
  21 H :   -0.002286
  22 C :    0.093415
  23 H :    0.038142
  24 H :    0.030364
  25 C :   -0.073121
  26 H :    0.034823
  27 H :    0.034792
  28 C :   -0.064094
  29 H :    0.037541
  30 H :    0.033122
  31 H :    0.037107
  32 H :    0.060124
  33 H :    0.057079
Sum of atomic charges:   -0.0000000

LOEWDIN ATOMIC CHARGES
----------------------
   0 S :    0.408580
   1 C :   -0.193015
   2 C :   -0.069770
   3 C :   -0.058959
   4 C :   -0.205829
   5 H :    0.016909
   6 C :   -0.042866
   7 H :    0.037422
   8 H :    0.036238
   9 C :   -0.044804
  10 H :    0.027672
  11 H :    0.025863
  12 C :   -0.061240
  13 H :    0.022997
  14 H :    0.025789
  15 H :    0.027236
  16 S :    0.434157
  17 C :   -0.199247
  18 C :   -0.080184
  19 C :   -0.043166
  20 C :   -0.210014
  21 H :    0.016530
  22 C :   -0.024068
  23 H :    0.040740
  24 H :    0.026292
  25 C :   -0.034544
  26 H :    0.020869
  27 H :    0.026927
  28 C :   -0.070920
  29 H :    0.023837
  30 H :    0.029853
  31 H :    0.024671
  32 H :    0.036754
  33 H :    0.029289

  Mayer bond orders larger than 0.100000
B(  0-S ,  1-C ) :   1.1197 B(  0-S ,  4-C ) :   1.1729 B(  1-C ,  2-C ) :   1.6151
B(  1-C , 32-H ) :   0.9760 B(  2-C ,  3-C ) :   1.2150 B(  2-C ,  6-C ) :   1.0310
B(  3-C ,  4-C ) :   1.5715 B(  3-C ,  5-H ) :   0.9986 B(  4-C , 20-C ) :   1.0275
B(  6-C ,  7-H ) :   0.9356 B(  6-C ,  8-H ) :   0.9330 B(  6-C ,  9-C ) :   1.0818
B(  9-C , 10-H ) :   0.9464 B(  9-C , 11-H ) :   0.9529 B(  9-C , 12-C ) :   1.0755
B( 12-C , 13-H ) :   0.9735 B( 12-C , 14-H ) :   0.9753 B( 12-C , 15-H ) :   0.9694
B( 16-S , 17-C ) :   1.1905 B( 16-S , 20-C ) :   1.1529 B( 17-C , 18-C ) :   1.5717
B( 17-C , 33-H ) :   0.9667 B( 18-C , 19-C ) :   1.2614 B( 18-C , 21-H ) :   0.9869
B( 19-C , 20-C ) :   1.5976 B( 19-C , 22-C ) :   1.0196 B( 22-C , 23-H ) :   0.9312
B( 22-C , 24-H ) :   0.9308 B( 22-C , 25-C ) :   1.0770 B( 25-C , 26-H ) :   0.9523
B( 25-C , 27-H ) :   0.9558 B( 25-C , 28-C ) :   1.0688 B( 28-C , 29-H ) :   0.9763
B( 28-C , 30-H ) :   0.9737 B( 28-C , 31-H ) :   0.9768

Dispersion correction           -0.014287960
FINAL SINGLE POINT ENERGY     -1339.880334964960

DIPOLE MOMENT
-------------
                                X             Y             Z
Electronic contribution:    -18.54912      -2.56328       7.52202
Nuclear contribution   :     19.13340       2.67060      -7.76936
                        -----------------------------------------
Total Dipole Moment    :      0.58428       0.10731      -0.24734
                        -----------------------------------------
Magnitude (a.u.)       :      0.64349
Magnitude (Debye)      :      1.63562

Rotational constants in cm-1:     0.019981     0.007800     0.007274
Rotational constants in MHz :   599.015557   233.843429   218.069905

                             ****ORCA TERMINATED NORMALLY****
TOTAL RUN TIME: 0 days 0 hours 0 minutes 30 seconds 358 msec
