                         Program Version 4.2.1 -  RELEASE  -
|  1> ! wB97X-D3 SP def2-SVP
|  2> %pal
|  3> nprocs 16
|  4> end
|  5>
|  6> * xyz 0 1
|  7> S 	 -4.63386 	 -22.623 	 87.132
|  8> C 	 -3.3477 	 -23.4916 	 86.3017
|  9> C 	 -2.61293 	 -22.5881 	 85.5196
| 10> C 	 -2.76346 	 -21.2606 	 86.0373
| 11> C 	 -3.78523 	 -21.1009 	 86.9701
| 12> H 	 -2.1227 	 -20.416 	 85.7448
| 13> C 	 -1.62255 	 -22.9717 	 84.4732
| 14> H 	 -1.66876 	 -22.3033 	 83.6112
| 15> H 	 -1.9008 	 -23.9356 	 83.9677
| 16> C 	 -0.144624 	 -23.0044 	 84.855
| 17> H 	 0.493518 	 -23.505 	 84.1721
| 18> H 	 0.286806 	 -22.0111 	 85.0742
| 19> C 	 0.0675722 	 -23.8672 	 86.1097
| 20> H 	 -0.650998 	 -23.7008 	 86.9138
| 21> H 	 0.0440471 	 -24.9695 	 85.8611
| 22> H 	 1.04703 	 -23.589 	 86.5718
| 23> S 	 -4.73816 	 -20.3354 	 89.3833
| 24> C 	 -4.84435 	 -18.6361 	 89.8024
| 25> C 	 -4.27937 	 -17.8718 	 88.7587
| 26> C 	 -4.03055 	 -18.5631 	 87.5339
| 27> C 	 -4.19396 	 -19.9354 	 87.7431
| 28> H 	 -4.21849 	 -16.7366 	 88.6748
| 29> C 	 -3.544 	 -17.8622 	 86.2791
| 30> H 	 -4.16706 	 -16.9443 	 86.191
| 31> H 	 -3.67957 	 -18.4983 	 85.4135
| 32> C 	 -2.07556 	 -17.2511 	 86.3713
| 33> H 	 -1.41859 	 -18.0894 	 86.5933
| 34> H 	 -1.96637 	 -16.4869 	 87.1146
| 35> C 	 -1.76221 	 -16.6765 	 84.9461
| 36> H 	 -0.628372 	 -16.4526 	 85.0069
| 37> H 	 -2.4334 	 -15.8094 	 84.8037
| 38> H 	 -1.90421 	 -17.298 	 84.0973
| 39> H 	 -3.48544 	 -24.5422 	 86.0784
| 40> H 	 -5.0266 	 -18.2016 	 90.7978
| 41> *
| 42>
| 43>                          ****END OF INPUT****

CARTESIAN COORDINATES (ANGSTROEM)
---------------------------------
  S     -4.633860  -22.623000   87.132000
  C     -3.347700  -23.491600   86.301700
  C     -2.612930  -22.588100   85.519600
  C     -2.763460  -21.260600   86.037300
  C     -3.785230  -21.100900   86.970100
  H     -2.122700  -20.416000   85.744800
  C     -1.622550  -22.971700   84.473200
  H     -1.668760  -22.303300   83.611200
  H     -1.900800  -23.935600   83.967700
  C     -0.144624  -23.004400   84.855000
  H      0.493518  -23.505000   84.172100
  H      0.286806  -22.011100   85.074200
  C      0.067572  -23.867200   86.109700
  H     -0.650998  -23.700800   86.913800
  H      0.044047  -24.969500   85.861100
  H      1.047030  -23.589000   86.571800
  S     -4.738160  -20.335400   89.383300
  C     -4.844350  -18.636100   89.802400
  C     -4.279370  -17.871800   88.758700
  C     -4.030550  -18.563100   87.533900
  C     -4.193960  -19.935400   87.743100
  H     -4.218490  -16.736600   88.674800
  C     -3.544000  -17.862200   86.279100
  H     -4.167060  -16.944300   86.191000
  H     -3.679570  -18.498300   85.413500
  C     -2.075560  -17.251100   86.371300
  H     -1.418590  -18.089400   86.593300
  H     -1.966370  -16.486900   87.114600
  C     -1.762210  -16.676500   84.946100
  H     -0.628372  -16.452600   85.006900
  H     -2.433400  -15.809400   84.803700
  H     -1.904210  -17.298000   84.097300
  H     -3.485440  -24.542200   86.078400
  H     -5.026600  -18.201600   90.797800

 Total Charge           Charge          ....    0
 Multiplicity           Mult            ....    1
 Number of Electrons    NEL             ....  134
 Basis Dimension        Dim             ....  322

ORBITAL ENERGIES
----------------

  NO   OCC          E(Eh)            E(eV)
   0   2.0000     -88.969531     -2420.9840
   1   2.0000     -88.963706     -2420.8255
   2   2.0000     -10.332415      -281.1593
   3   2.0000     -10.330560      -281.1088
   4   2.0000     -10.325371      -280.9676
   5   2.0000     -10.315702      -280.7045
   6   2.0000     -10.307141      -280.4716
   7   2.0000     -10.305551      -280.4283
   8   2.0000     -10.302857      -280.3550
   9   2.0000     -10.301252      -280.3113
  10   2.0000     -10.297858      -280.2189
  11   2.0000     -10.297000      -280.1956
  12   2.0000     -10.295711      -280.1605
  13   2.0000     -10.290062      -280.0068
  14   2.0000     -10.285288      -279.8769
  15   2.0000     -10.274710      -279.5891
  16   2.0000      -8.083491      -219.9630
  17   2.0000      -8.078532      -219.8280
  18   2.0000      -6.042082      -164.4134
  19   2.0000      -6.038050      -164.3037
  20   2.0000      -6.037033      -164.2760
  21   2.0000      -6.034229      -164.1997
  22   2.0000      -6.033202      -164.1718
  23   2.0000      -6.029107      -164.0603
  24   2.0000      -1.005691       -27.3662
  25   2.0000      -0.981539       -26.7090
  26   2.0000      -0.914065       -24.8730
  27   2.0000      -0.907151       -24.6848
  28   2.0000      -0.864964       -23.5369
  29   2.0000      -0.853642       -23.2288
  30   2.0000      -0.841350       -22.8943
  31   2.0000      -0.808118       -21.9900
  32   2.0000      -0.779819       -21.2200
  33   2.0000      -0.770709       -20.9721
  34   2.0000      -0.708485       -19.2789
  35   2.0000      -0.699323       -19.0295
  36   2.0000      -0.692701       -18.8494
  37   2.0000      -0.660633       -17.9767
  38   2.0000      -0.638967       -17.3872
  39   2.0000      -0.619454       -16.8562
  40   2.0000      -0.594574       -16.1792
  41   2.0000      -0.571538       -15.5523
  42   2.0000      -0.562025       -15.2935
  43   2.0000      -0.550299       -14.9744
  44   2.0000      -0.543864       -14.7993
  45   2.0000      -0.525297       -14.2941
  46   2.0000      -0.516802       -14.0629
  47   2.0000      -0.507072       -13.7981
  48   2.0000      -0.500559       -13.6209
  49   2.0000      -0.492909       -13.4127
  50   2.0000      -0.490404       -13.3446
  51   2.0000      -0.486490       -13.2381
  52   2.0000      -0.464511       -12.6400
  53   2.0000      -0.463942       -12.6245
  54   2.0000      -0.457153       -12.4398
  55   2.0000      -0.454540       -12.3687
  56   2.0000      -0.440847       -11.9960
  57   2.0000      -0.437432       -11.9031
  58   2.0000      -0.430596       -11.7171
  59   2.0000      -0.428115       -11.6496
  60   2.0000      -0.420521       -11.4430
  61   2.0000      -0.415968       -11.3191
  62   2.0000      -0.410870       -11.1803
  63   2.0000      -0.353411        -9.6168
  64   2.0000      -0.330519        -8.9939
  65   2.0000      -0.327719        -8.9177
  66   2.0000      -0.283921        -7.7259
  67   0.0000       0.016031         0.4362
  68   0.0000       0.071536         1.9466
  69   0.0000       0.093592         2.5468
  70   0.0000       0.110671         3.0115
  71   0.0000       0.121217         3.2985

MULLIKEN ATOMIC CHARGES
-----------------------
   0 S :    0.094762
   1 C :   -0.111966
   2 C :   -0.090987
   3 C :    0.002733
   4 C :   -0.127860
   5 H :    0.010037
   6 C :    0.051130
   7 H :    0.027854
   8 H :    0.027400
   9 C :   -0.044973
  10 H :    0.027568
  11 H :    0.032528
  12 C :   -0.112025
  13 H :    0.048388
  14 H :    0.035058
  15 H :    0.032507
  16 S :    0.108563
  17 C :   -0.087527
  18 C :   -0.063651
  19 C :   -0.037376
  20 C :   -0.130201
  21 H :    0.036434
  22 C :    0.020808
  23 H :    0.029841
  24 H :    0.035201
  25 C :   -0.075205
  26 H :    0.035840
  27 H :    0.037638
  28 C :   -0.063281
  29 H :    0.051553
  30 H :    0.036946
  31 H :    0.030196
  32 H :    0.056734
  33 H :    0.075332
Sum of atomic charges:    0.0000000

LOEWDIN ATOMIC CHARGES
----------------------
   0 S :    0.394908
   1 C :   -0.192339
   2 C :   -0.055859
   3 C :   -0.071461
   4 C :   -0.187855
   5 H :    0.031004
   6 C :   -0.042585
   7 H :    0.033690
   8 H :    0.036859
   9 C :   -0.040072
  10 H :    0.024475
  11 H :    0.024710
  12 C :   -0.076915
  13 H :    0.022247
  14 H :    0.026592
  15 H :    0.027548
  16 S :    0.406053
  17 C :   -0.196158
  18 C :   -0.075862
  19 C :   -0.059627
  20 C :   -0.191700
  21 H :    0.037025
  22 C :   -0.032468
  23 H :    0.035109
  24 H :    0.029647
  25 C :   -0.029313
  26 H :    0.019872
  27 H :    0.022945
  28 C :   -0.068533
  29 H :    0.038856
  30 H :    0.028316
  31 H :    0.017521
  32 H :    0.024643
  33 H :    0.038724

  Mayer bond orders larger than 0.100000
B(  0-S ,  1-C ) :   1.1366 B(  0-S ,  4-C ) :   1.1557 B(  1-C ,  2-C ) :   1.5755
B(  1-C ,  4-C ) :   0.1001 B(  1-C , 32-H ) :   0.9666 B(  2-C ,  3-C ) :   1.2334
B(  2-C ,  6-C ) :   1.0539 B(  3-C ,  4-C ) :   1.5648 B(  3-C ,  5-H ) :   0.9889
B(  4-C , 20-C ) :   1.0578 B(  6-C ,  7-H ) :   0.9340 B(  6-C ,  8-H ) :   0.9399
B(  6-C ,  9-C ) :   1.0717 B(  9-C , 10-H ) :   0.9554 B(  9-C , 11-H ) :   0.9583
B(  9-C , 12-C ) :   1.0688 B( 12-C , 13-H ) :   0.9735 B( 12-C , 14-H ) :   0.9783
B( 12-C , 15-H ) :   0.9748 B( 16-S , 17-C ) :   1.1473 B( 16-S , 20-C ) :   1.1423
B( 17-C , 18-C ) :   1.5891 B( 17-C , 20-C ) :   0.1020 B( 17-C , 33-H ) :   0.9659
B( 18-C , 19-C ) :   1.2700 B( 18-C , 21-H ) :   0.9660 B( 19-C , 20-C ) :   1.5694
B( 19-C , 22-C ) :   1.0497 B( 22-C , 23-H ) :   0.9269 B( 22-C , 24-H ) :   0.9437
B( 22-C , 25-C ) :   1.0552 B( 25-C , 26-H ) :   0.9601 B( 25-C , 27-H ) :   0.9544
B( 25-C , 28-C ) :   1.0702 B( 28-C , 29-H ) :   0.9747 B( 28-C , 30-H ) :   0.9751
B( 28-C , 31-H ) :   0.9785

Dispersion correction           -0.014328637
FINAL SINGLE POINT ENERGY     -1339.866350043352

DIPOLE MOMENT
-------------
                                X             Y             Z
Electronic contribution:    -22.33330      -7.09285      16.75284
Nuclear contribution   :     22.82300       7.52342     -17.21770
                        -----------------------------------------
Total Dipole Moment    :      0.48970       0.43057      -0.46486
                        -----------------------------------------
Magnitude (a.u.)       :      0.80081
Magnitude (Debye)      :      2.03549

Rotational constants in cm-1:     0.016707     0.009660     0.006846
Rotational constants in MHz :   500.873014   289.590496   205.247148

                             ****ORCA TERMINATED NORMALLY****
TOTAL RUN TIME: 0 days 0 hours 0 minutes 34 seconds 380 msec
