                         Program Version 4.2.1 -  RELEASE  -
|  1> ! wB97X-D3 SP def2-SVP
|  2> %pal
|  3> nprocs 16
|  4> end
|  5>
|  6> * xyz 0 1
|  7> S 	 8.93876 	 21.7466 	 41.4436
|  8> C 	 8.13985 	 21.0063 	 42.8134
|  9> C 	 9.01286 	 20.7384 	 43.8492
| 10> C 	 10.2898 	 21.2043 	 43.5356
| 11> C 	 10.4679 	 21.9367 	 42.3787
| 12> H 	 11.132 	 21.2609 	 44.2192
| 13> C 	 8.63916 	 20.1679 	 45.1935
| 14> H 	 7.57848 	 20.1244 	 45.3702
| 15> H 	 8.90396 	 20.8719 	 45.9993
| 16> C 	 9.33364 	 18.8437 	 45.5352
| 17> H 	 10.3683 	 19.0643 	 45.3379
| 18> H 	 9.12878 	 18.6023 	 46.6309
| 19> C 	 8.83553 	 17.6723 	 44.7893
| 20> H 	 8.4621 	 17.9143 	 43.8064
| 21> H 	 9.67622 	 16.9386 	 44.66
| 22> H 	 7.91207 	 17.2796 	 45.2579
| 23> S 	 12.7481 	 23.3749 	 43.0409
| 24> C 	 13.9513 	 23.6669 	 41.8253
| 25> C 	 13.513 	 23.2946 	 40.5579
| 26> C 	 12.2453 	 22.5928 	 40.5795
| 27> C 	 11.6994 	 22.5312 	 41.8693
| 28> H 	 14.2364 	 23.6337 	 39.7642
| 29> C 	 11.6363 	 22.0613 	 39.2837
| 30> H 	 10.9948 	 21.2506 	 39.5619
| 31> H 	 12.3386 	 21.6353 	 38.6556
| 32> C 	 10.9073 	 23.2009 	 38.4834
| 33> H 	 11.6227 	 23.9284 	 38.1556
| 34> H 	 10.1823 	 23.6769 	 39.0904
| 35> C 	 10.2785 	 22.6295 	 37.1879
| 36> H 	 9.60822 	 21.8192 	 37.408
| 37> H 	 11.0183 	 22.2627 	 36.4985
| 38> H 	 9.73155 	 23.4033 	 36.7208
| 39> H 	 7.14568 	 20.5757 	 42.9004
| 40> H 	 14.8543 	 24.2283 	 42.0134
| 41> *
| 42>
| 43>                          ****END OF INPUT****

CARTESIAN COORDINATES (ANGSTROEM)
---------------------------------
  S      8.938760   21.746600   41.443600
  C      8.139850   21.006300   42.813400
  C      9.012860   20.738400   43.849200
  C     10.289800   21.204300   43.535600
  C     10.467900   21.936700   42.378700
  H     11.132000   21.260900   44.219200
  C      8.639160   20.167900   45.193500
  H      7.578480   20.124400   45.370200
  H      8.903960   20.871900   45.999300
  C      9.333640   18.843700   45.535200
  H     10.368300   19.064300   45.337900
  H      9.128780   18.602300   46.630900
  C      8.835530   17.672300   44.789300
  H      8.462100   17.914300   43.806400
  H      9.676220   16.938600   44.660000
  H      7.912070   17.279600   45.257900
  S     12.748100   23.374900   43.040900
  C     13.951300   23.666900   41.825300
  C     13.513000   23.294600   40.557900
  C     12.245300   22.592800   40.579500
  C     11.699400   22.531200   41.869300
  H     14.236400   23.633700   39.764200
  C     11.636300   22.061300   39.283700
  H     10.994800   21.250600   39.561900
  H     12.338600   21.635300   38.655600
  C     10.907300   23.200900   38.483400
  H     11.622700   23.928400   38.155600
  H     10.182300   23.676900   39.090400
  C     10.278500   22.629500   37.187900
  H      9.608220   21.819200   37.408000
  H     11.018300   22.262700   36.498500
  H      9.731550   23.403300   36.720800
  H      7.145680   20.575700   42.900400
  H     14.854300   24.228300   42.013400

 Total Charge           Charge          ....    0
 Multiplicity           Mult            ....    1
 Number of Electrons    NEL             ....  134
 Basis Dimension        Dim             ....  322

ORBITAL ENERGIES
----------------

  NO   OCC          E(Eh)            E(eV)
   0   2.0000     -88.970350     -2421.0063
   1   2.0000     -88.967552     -2420.9302
   2   2.0000     -10.335613      -281.2463
   3   2.0000     -10.334927      -281.2277
   4   2.0000     -10.318166      -280.7716
   5   2.0000     -10.316028      -280.7134
   6   2.0000     -10.311716      -280.5961
   7   2.0000     -10.301504      -280.3182
   8   2.0000     -10.298724      -280.2425
   9   2.0000     -10.291219      -280.0383
  10   2.0000     -10.290868      -280.0287
  11   2.0000     -10.285377      -279.8793
  12   2.0000     -10.285112      -279.8721
  13   2.0000     -10.282211      -279.7932
  14   2.0000     -10.274250      -279.5766
  15   2.0000     -10.268899      -279.4309
  16   2.0000      -8.083570      -219.9651
  17   2.0000      -8.081924      -219.9203
  18   2.0000      -6.042259      -164.4182
  19   2.0000      -6.040462      -164.3693
  20   2.0000      -6.038282      -164.3100
  21   2.0000      -6.036508      -164.2617
  22   2.0000      -6.034234      -164.1999
  23   2.0000      -6.032661      -164.1571
  24   2.0000      -1.004167       -27.3248
  25   2.0000      -0.983451       -26.7611
  26   2.0000      -0.916663       -24.9437
  27   2.0000      -0.906307       -24.6619
  28   2.0000      -0.871399       -23.7120
  29   2.0000      -0.851788       -23.1783
  30   2.0000      -0.846312       -23.0293
  31   2.0000      -0.813673       -22.1412
  32   2.0000      -0.785723       -21.3806
  33   2.0000      -0.774761       -21.0823
  34   2.0000      -0.710824       -19.3425
  35   2.0000      -0.702087       -19.1048
  36   2.0000      -0.687291       -18.7021
  37   2.0000      -0.665059       -18.0972
  38   2.0000      -0.630498       -17.1567
  39   2.0000      -0.624905       -17.0045
  40   2.0000      -0.595266       -16.1980
  41   2.0000      -0.575117       -15.6497
  42   2.0000      -0.569116       -15.4864
  43   2.0000      -0.545557       -14.8454
  44   2.0000      -0.543498       -14.7893
  45   2.0000      -0.526337       -14.3223
  46   2.0000      -0.519369       -14.1328
  47   2.0000      -0.518054       -14.0970
  48   2.0000      -0.504034       -13.7155
  49   2.0000      -0.497772       -13.5451
  50   2.0000      -0.484175       -13.1751
  51   2.0000      -0.479755       -13.0548
  52   2.0000      -0.474782       -12.9195
  53   2.0000      -0.465787       -12.6747
  54   2.0000      -0.463113       -12.6020
  55   2.0000      -0.445944       -12.1348
  56   2.0000      -0.439273       -11.9532
  57   2.0000      -0.435741       -11.8571
  58   2.0000      -0.430238       -11.7074
  59   2.0000      -0.425491       -11.5782
  60   2.0000      -0.424827       -11.5601
  61   2.0000      -0.416195       -11.3252
  62   2.0000      -0.410518       -11.1708
  63   2.0000      -0.356340        -9.6965
  64   2.0000      -0.332322        -9.0429
  65   2.0000      -0.330525        -8.9940
  66   2.0000      -0.287513        -7.8236
  67   0.0000       0.021345         0.5808
  68   0.0000       0.074052         2.0151
  69   0.0000       0.107395         2.9224
  70   0.0000       0.109008         2.9663
  71   0.0000       0.125984         3.4282

MULLIKEN ATOMIC CHARGES
-----------------------
   0 S :    0.098004
   1 C :   -0.099381
   2 C :   -0.075375
   3 C :    0.005251
   4 C :   -0.134863
   5 H :    0.014210
   6 C :    0.058924
   7 H :    0.003597
   8 H :    0.034957
   9 C :   -0.084405
  10 H :    0.029131
  11 H :    0.041553
  12 C :   -0.039865
  13 H :    0.015908
  14 H :    0.047875
  15 H :    0.027144
  16 S :    0.100676
  17 C :   -0.105087
  18 C :   -0.058113
  19 C :   -0.048378
  20 C :   -0.142774
  21 H :    0.044130
  22 C :    0.104811
  23 H :    0.013757
  24 H :    0.000608
  25 C :   -0.067348
  26 H :    0.024669
  27 H :    0.024040
  28 C :   -0.012917
  29 H :    0.025027
  30 H :    0.024119
  31 H :    0.025637
  32 H :    0.045171
  33 H :    0.059306
Sum of atomic charges:    0.0000000

LOEWDIN ATOMIC CHARGES
----------------------
   0 S :    0.391478
   1 C :   -0.193424
   2 C :   -0.069981
   3 C :   -0.065959
   4 C :   -0.174301
   5 H :    0.024884
   6 C :   -0.033234
   7 H :    0.022835
   8 H :    0.037639
   9 C :   -0.046023
  10 H :    0.021387
  11 H :    0.034351
  12 C :   -0.073171
  13 H :    0.019073
  14 H :    0.036480
  15 H :    0.028769
  16 S :    0.399493
  17 C :   -0.190018
  18 C :   -0.079507
  19 C :   -0.048614
  20 C :   -0.187595
  21 H :    0.045367
  22 C :   -0.024584
  23 H :    0.019089
  24 H :    0.020615
  25 C :   -0.023498
  26 H :    0.021892
  27 H :    0.016050
  28 C :   -0.057128
  29 H :    0.022369
  30 H :    0.022278
  31 H :    0.021644
  32 H :    0.032661
  33 H :    0.028683

  Mayer bond orders larger than 0.100000
B(  0-S ,  1-C ) :   1.1409 B(  0-S ,  4-C ) :   1.1183 B(  1-C ,  2-C ) :   1.6064
B(  1-C , 32-H ) :   0.9575 B(  2-C ,  3-C ) :   1.2556 B(  2-C ,  6-C ) :   1.0263
B(  3-C ,  4-C ) :   1.5831 B(  3-C ,  5-H ) :   0.9771 B(  4-C , 20-C ) :   1.0672
B(  6-C ,  7-H ) :   0.9421 B(  6-C ,  8-H ) :   0.9381 B(  6-C ,  9-C ) :   1.0690
B(  9-C , 10-H ) :   0.9595 B(  9-C , 11-H ) :   0.9552 B(  9-C , 12-C ) :   1.0783
B( 12-C , 13-H ) :   0.9755 B( 12-C , 14-H ) :   0.9719 B( 12-C , 15-H ) :   0.9714
B( 16-S , 17-C ) :   1.1538 B( 16-S , 20-C ) :   1.1326 B( 17-C , 18-C ) :   1.6309
B( 17-C , 33-H ) :   0.9657 B( 18-C , 19-C ) :   1.2092 B( 18-C , 21-H ) :   0.9828
B( 19-C , 20-C ) :   1.5856 B( 19-C , 22-C ) :   1.0511 B( 22-C , 23-H ) :   0.9293
B( 22-C , 24-H ) :   0.9290 B( 22-C , 25-C ) :   1.0596 B( 25-C , 26-H ) :   0.9572
B( 25-C , 27-H ) :   0.9578 B( 25-C , 28-C ) :   1.0875 B( 28-C , 29-H ) :   0.9755
B( 28-C , 30-H ) :   0.9739 B( 28-C , 31-H ) :   0.9735

Dispersion correction           -0.014205134
FINAL SINGLE POINT ENERGY     -1339.875988353072

DIPOLE MOMENT
-------------
                                X             Y             Z
Electronic contribution:      6.72629      12.40115       4.34838
Nuclear contribution   :     -6.64703     -12.49819      -4.40028
                        -----------------------------------------
Total Dipole Moment    :      0.07927      -0.09705      -0.05191
                        -----------------------------------------
Magnitude (a.u.)       :      0.13563
Magnitude (Debye)      :      0.34475

Rotational constants in cm-1:     0.020071     0.008250     0.006434
Rotational constants in MHz :   601.718758   247.321847   192.885948

                             ****ORCA TERMINATED NORMALLY****
TOTAL RUN TIME: 0 days 0 hours 0 minutes 34 seconds 942 msec
