                         Program Version 4.2.1 -  RELEASE  -
|  1> ! wB97X-D3 SP def2-SVP
|  2> %pal
|  3> nprocs 16
|  4> end
|  5>
|  6> * xyz 0 1
|  7> S 	 -26.3275 	 63.1446 	 104.282
|  8> C 	 -27.4409 	 64.3393 	 103.714
|  9> C 	 -28.7347 	 63.9261 	 103.704
| 10> C 	 -28.7607 	 62.523 	 104.064
| 11> C 	 -27.5519 	 61.9523 	 104.241
| 12> H 	 -29.6098 	 61.7898 	 104.04
| 13> C 	 -29.9706 	 64.6909 	 103.428
| 14> H 	 -29.7796 	 65.7154 	 103.861
| 15> H 	 -30.8199 	 64.2752 	 103.966
| 16> C 	 -30.4026 	 64.742 	 101.963
| 17> H 	 -29.5102 	 65.237 	 101.559
| 18> H 	 -30.4649 	 63.8161 	 101.435
| 19> C 	 -31.5733 	 65.7312 	 101.75
| 20> H 	 -32.4448 	 65.6103 	 102.466
| 21> H 	 -31.3592 	 66.7872 	 101.816
| 22> H 	 -31.9587 	 65.5439 	 100.762
| 23> S 	 -26.9032 	 60.2032 	 106.285
| 24> C 	 -26.6084 	 58.5 	 105.914
| 25> C 	 -27.0927 	 58.2216 	 104.667
| 26> C 	 -27.542 	 59.3765 	 103.934
| 27> C 	 -27.3025 	 60.551 	 104.637
| 28> H 	 -27.1518 	 57.241 	 104.236
| 29> C 	 -28.1185 	 59.3103 	 102.52
| 30> H 	 -27.2853 	 58.9975 	 101.926
| 31> H 	 -28.2935 	 60.3309 	 102.04
| 32> C 	 -29.2836 	 58.3271 	 102.399
| 33> H 	 -28.9337 	 57.2782 	 102.553
| 34> H 	 -29.4528 	 58.308 	 101.39
| 35> C 	 -30.4192 	 58.7306 	 103.321
| 36> H 	 -30.0831 	 58.3917 	 104.262
| 37> H 	 -31.2169 	 58.0458 	 103.039
| 38> H 	 -30.7475 	 59.7279 	 103.34
| 39> H 	 -27.2159 	 65.3325 	 103.283
| 40> H 	 -26.1337 	 57.8304 	 106.617
| 41> *
| 42>
| 43>                          ****END OF INPUT****

CARTESIAN COORDINATES (ANGSTROEM)
---------------------------------
  S    -26.327500   63.144600  104.282000
  C    -27.440900   64.339300  103.714000
  C    -28.734700   63.926100  103.704000
  C    -28.760700   62.523000  104.064000
  C    -27.551900   61.952300  104.241000
  H    -29.609800   61.789800  104.040000
  C    -29.970600   64.690900  103.428000
  H    -29.779600   65.715400  103.861000
  H    -30.819900   64.275200  103.966000
  C    -30.402600   64.742000  101.963000
  H    -29.510200   65.237000  101.559000
  H    -30.464900   63.816100  101.435000
  C    -31.573300   65.731200  101.750000
  H    -32.444800   65.610300  102.466000
  H    -31.359200   66.787200  101.816000
  H    -31.958700   65.543900  100.762000
  S    -26.903200   60.203200  106.285000
  C    -26.608400   58.500000  105.914000
  C    -27.092700   58.221600  104.667000
  C    -27.542000   59.376500  103.934000
  C    -27.302500   60.551000  104.637000
  H    -27.151800   57.241000  104.236000
  C    -28.118500   59.310300  102.520000
  H    -27.285300   58.997500  101.926000
  H    -28.293500   60.330900  102.040000
  C    -29.283600   58.327100  102.399000
  H    -28.933700   57.278200  102.553000
  H    -29.452800   58.308000  101.390000
  C    -30.419200   58.730600  103.321000
  H    -30.083100   58.391700  104.262000
  H    -31.216900   58.045800  103.039000
  H    -30.747500   59.727900  103.340000
  H    -27.215900   65.332500  103.283000
  H    -26.133700   57.830400  106.617000

 Total Charge           Charge          ....    0
 Multiplicity           Mult            ....    1
 Number of Electrons    NEL             ....  134
 Basis Dimension        Dim             ....  322

ORBITAL ENERGIES
----------------

  NO   OCC          E(Eh)            E(eV)
   0   2.0000     -88.963626     -2420.8233
   1   2.0000     -88.959086     -2420.6998
   2   2.0000     -10.321238      -280.8552
   3   2.0000     -10.319082      -280.7965
   4   2.0000     -10.317432      -280.7516
   5   2.0000     -10.310953      -280.5753
   6   2.0000     -10.300335      -280.2864
   7   2.0000     -10.297009      -280.1958
   8   2.0000     -10.293386      -280.0973
   9   2.0000     -10.293085      -280.0891
  10   2.0000     -10.290821      -280.0275
  11   2.0000     -10.289671      -279.9962
  12   2.0000     -10.288510      -279.9646
  13   2.0000     -10.283115      -279.8178
  14   2.0000     -10.282276      -279.7949
  15   2.0000     -10.269409      -279.4448
  16   2.0000      -8.079595      -219.8570
  17   2.0000      -8.074300      -219.7129
  18   2.0000      -6.038120      -164.3056
  19   2.0000      -6.033970      -164.1927
  20   2.0000      -6.032823      -164.1615
  21   2.0000      -6.030219      -164.0906
  22   2.0000      -6.028875      -164.0540
  23   2.0000      -6.024878      -163.9453
  24   2.0000      -1.012143       -27.5418
  25   2.0000      -0.987744       -26.8779
  26   2.0000      -0.917144       -24.9568
  27   2.0000      -0.913135       -24.8477
  28   2.0000      -0.869754       -23.6672
  29   2.0000      -0.849168       -23.1070
  30   2.0000      -0.844622       -22.9833
  31   2.0000      -0.815343       -22.1866
  32   2.0000      -0.784784       -21.3551
  33   2.0000      -0.776585       -21.1320
  34   2.0000      -0.708778       -19.2868
  35   2.0000      -0.705259       -19.1911
  36   2.0000      -0.693932       -18.8829
  37   2.0000      -0.657114       -17.8810
  38   2.0000      -0.641269       -17.4498
  39   2.0000      -0.613225       -16.6867
  40   2.0000      -0.599458       -16.3121
  41   2.0000      -0.575123       -15.6499
  42   2.0000      -0.559153       -15.2153
  43   2.0000      -0.555797       -15.1240
  44   2.0000      -0.545809       -14.8522
  45   2.0000      -0.529134       -14.3985
  46   2.0000      -0.523752       -14.2520
  47   2.0000      -0.508190       -13.8286
  48   2.0000      -0.498815       -13.5734
  49   2.0000      -0.496086       -13.4992
  50   2.0000      -0.495037       -13.4706
  51   2.0000      -0.477027       -12.9806
  52   2.0000      -0.474443       -12.9102
  53   2.0000      -0.469998       -12.7893
  54   2.0000      -0.461955       -12.5704
  55   2.0000      -0.449472       -12.2308
  56   2.0000      -0.443424       -12.0662
  57   2.0000      -0.439265       -11.9530
  58   2.0000      -0.430670       -11.7191
  59   2.0000      -0.426317       -11.6007
  60   2.0000      -0.424457       -11.5501
  61   2.0000      -0.411216       -11.1898
  62   2.0000      -0.406520       -11.0620
  63   2.0000      -0.339010        -9.2249
  64   2.0000      -0.327698        -8.9171
  65   2.0000      -0.323981        -8.8160
  66   2.0000      -0.301345        -8.2000
  67   0.0000       0.042637         1.1602
  68   0.0000       0.066174         1.8007
  69   0.0000       0.114195         3.1074
  70   0.0000       0.116247         3.1632
  71   0.0000       0.134260         3.6534

MULLIKEN ATOMIC CHARGES
-----------------------
   0 S :    0.126686
   1 C :   -0.122915
   2 C :   -0.079303
   3 C :    0.030606
   4 C :   -0.186509
   5 H :    0.014678
   6 C :    0.040620
   7 H :    0.037957
   8 H :    0.023886
   9 C :   -0.053768
  10 H :    0.017518
  11 H :    0.033097
  12 C :   -0.047842
  13 H :    0.031773
  14 H :    0.034403
  15 H :    0.030638
  16 S :    0.101854
  17 C :   -0.094453
  18 C :   -0.010906
  19 C :   -0.050552
  20 C :   -0.168668
  21 H :    0.009861
  22 C :    0.032937
  23 H :    0.022850
  24 H :    0.041743
  25 C :   -0.055868
  26 H :    0.024144
  27 H :    0.001480
  28 C :    0.012126
  29 H :    0.028867
  30 H :    0.026646
  31 H :    0.037064
  32 H :    0.048708
  33 H :    0.060640
Sum of atomic charges:    0.0000000

LOEWDIN ATOMIC CHARGES
----------------------
   0 S :    0.427628
   1 C :   -0.205582
   2 C :   -0.068505
   3 C :   -0.064503
   4 C :   -0.213975
   5 H :    0.035813
   6 C :   -0.036562
   7 H :    0.039326
   8 H :    0.028436
   9 C :   -0.038420
  10 H :    0.027555
  11 H :    0.023586
  12 C :   -0.069380
  13 H :    0.028542
  14 H :    0.025206
  15 H :    0.025360
  16 S :    0.397235
  17 C :   -0.174731
  18 C :   -0.069596
  19 C :   -0.057795
  20 C :   -0.207761
  21 H :    0.027477
  22 C :   -0.038475
  23 H :    0.028246
  24 H :    0.039061
  25 C :   -0.035496
  26 H :    0.028546
  27 H :    0.010246
  28 C :   -0.051406
  29 H :    0.026743
  30 H :    0.030312
  31 H :    0.018728
  32 H :    0.034414
  33 H :    0.029730

  Mayer bond orders larger than 0.100000
B(  0-S ,  1-C ) :   1.1394 B(  0-S ,  4-C ) :   1.1484 B(  1-C ,  2-C ) :   1.6431
B(  1-C , 32-H ) :   0.9578 B(  2-C ,  3-C ) :   1.2067 B(  2-C ,  6-C ) :   1.0262
B(  3-C ,  4-C ) :   1.6275 B(  3-C ,  5-H ) :   0.9856 B(  4-C , 20-C ) :   0.9941
B(  6-C ,  7-H ) :   0.9451 B(  6-C ,  8-H ) :   0.9361 B(  6-C ,  9-C ) :   1.0513
B(  9-C , 10-H ) :   0.9536 B(  9-C , 11-H ) :   0.9629 B(  9-C , 12-C ) :   1.0713
B( 12-C , 13-H ) :   0.9752 B( 12-C , 14-H ) :   0.9769 B( 12-C , 15-H ) :   0.9747
B( 16-S , 17-C ) :   1.1435 B( 16-S , 20-C ) :   1.1581 B( 17-C , 18-C ) :   1.5981
B( 17-C , 33-H ) :   0.9748 B( 18-C , 19-C ) :   1.2356 B( 18-C , 21-H ) :   0.9937
B( 19-C , 20-C ) :   1.6060 B( 19-C , 22-C ) :   1.0288 B( 22-C , 23-H ) :   0.9313
B( 22-C , 24-H ) :   0.9402 B( 22-C , 25-C ) :   1.0791 B( 25-C , 26-H ) :   0.9492
B( 25-C , 27-H ) :   0.9526 B( 25-C , 28-C ) :   1.0611 B( 28-C , 29-H ) :   0.9682
B( 28-C , 30-H ) :   0.9693 B( 28-C , 31-H ) :   0.9762

Dispersion correction           -0.014861298
FINAL SINGLE POINT ENERGY     -1339.862088040604

DIPOLE MOMENT
-------------
                                X             Y             Z
Electronic contribution:     23.21011      -2.28845      17.31497
Nuclear contribution   :    -23.71593       2.14018     -17.86285
                        -----------------------------------------
Total Dipole Moment    :     -0.50582      -0.14827      -0.54788
                        -----------------------------------------
Magnitude (a.u.)       :      0.76027
Magnitude (Debye)      :      1.93244

Rotational constants in cm-1:     0.020008     0.008576     0.006634
Rotational constants in MHz :   599.839471   257.106925   198.875265

                             ****ORCA TERMINATED NORMALLY****
TOTAL RUN TIME: 0 days 0 hours 0 minutes 30 seconds 686 msec
