                         Program Version 4.2.1 -  RELEASE  -
|  1> ! wB97X-D3 SP def2-SVP
|  2> %pal
|  3> nprocs 16
|  4> end
|  5>
|  6> * xyz 0 1
|  7> S 	 50.1042 	 2.48453 	 82.8813
|  8> C 	 51.8831 	 2.8881 	 82.7339
|  9> C 	 52.4659 	 3.02201 	 83.9703
| 10> C 	 51.5189 	 2.91577 	 84.9851
| 11> C 	 50.2282 	 2.65389 	 84.626
| 12> H 	 51.6649 	 3.01657 	 86.0352
| 13> C 	 53.891 	 3.31691 	 84.2772
| 14> H 	 54.5913 	 2.75297 	 83.6933
| 15> H 	 54.0438 	 3.0565 	 85.3335
| 16> C 	 54.192 	 4.84652 	 84.1949
| 17> H 	 54.1897 	 5.10104 	 83.0814
| 18> H 	 53.385 	 5.54563 	 84.6044
| 19> C 	 55.6085 	 5.25031 	 84.7316
| 20> H 	 56.4115 	 4.59912 	 84.3227
| 21> H 	 55.8294 	 6.24752 	 84.4929
| 22> H 	 55.559 	 5.22521 	 85.7731
| 23> S 	 47.7583 	 1.70531 	 84.7884
| 24> C 	 46.7024 	 2.25451 	 85.9916
| 25> C 	 47.3513 	 2.90038 	 87.058
| 26> C 	 48.7513 	 3.03092 	 86.7409
| 27> C 	 49.0655 	 2.62145 	 85.4748
| 28> H 	 46.8487 	 3.33231 	 87.8892
| 29> C 	 49.6444 	 3.73517 	 87.752
| 30> H 	 48.9985 	 4.34704 	 88.2957
| 31> H 	 50.2349 	 4.40402 	 87.1377
| 32> C 	 50.5515 	 2.93046 	 88.6192
| 33> H 	 51.1095 	 2.16196 	 88.0309
| 34> H 	 49.9083 	 2.52125 	 89.3683
| 35> C 	 51.5504 	 3.82106 	 89.3918
| 36> H 	 52.1808 	 3.32751 	 90.159
| 37> H 	 50.9336 	 4.61275 	 89.8975
| 38> H 	 52.0512 	 4.50287 	 88.7277
| 39> H 	 52.4204 	 3.00459 	 81.7375
| 40> H 	 45.6324 	 2.05441 	 86.0155
| 41> *
| 42>
| 43>                          ****END OF INPUT****

CARTESIAN COORDINATES (ANGSTROEM)
---------------------------------
  S     50.104200    2.484530   82.881300
  C     51.883100    2.888100   82.733900
  C     52.465900    3.022010   83.970300
  C     51.518900    2.915770   84.985100
  C     50.228200    2.653890   84.626000
  H     51.664900    3.016570   86.035200
  C     53.891000    3.316910   84.277200
  H     54.591300    2.752970   83.693300
  H     54.043800    3.056500   85.333500
  C     54.192000    4.846520   84.194900
  H     54.189700    5.101040   83.081400
  H     53.385000    5.545630   84.604400
  C     55.608500    5.250310   84.731600
  H     56.411500    4.599120   84.322700
  H     55.829400    6.247520   84.492900
  H     55.559000    5.225210   85.773100
  S     47.758300    1.705310   84.788400
  C     46.702400    2.254510   85.991600
  C     47.351300    2.900380   87.058000
  C     48.751300    3.030920   86.740900
  C     49.065500    2.621450   85.474800
  H     46.848700    3.332310   87.889200
  C     49.644400    3.735170   87.752000
  H     48.998500    4.347040   88.295700
  H     50.234900    4.404020   87.137700
  C     50.551500    2.930460   88.619200
  H     51.109500    2.161960   88.030900
  H     49.908300    2.521250   89.368300
  C     51.550400    3.821060   89.391800
  H     52.180800    3.327510   90.159000
  H     50.933600    4.612750   89.897500
  H     52.051200    4.502870   88.727700
  H     52.420400    3.004590   81.737500
  H     45.632400    2.054410   86.015500

 Total Charge           Charge          ....    0
 Multiplicity           Mult            ....    1
 Number of Electrons    NEL             ....  134
 Basis Dimension        Dim             ....  322

ORBITAL ENERGIES
----------------

  NO   OCC          E(Eh)            E(eV)
   0   2.0000     -88.965973     -2420.8872
   1   2.0000     -88.965250     -2420.8675
   2   2.0000     -10.326813      -281.0069
   3   2.0000     -10.322529      -280.8903
   4   2.0000     -10.322098      -280.8786
   5   2.0000     -10.315250      -280.6922
   6   2.0000     -10.302909      -280.3564
   7   2.0000     -10.299730      -280.2699
   8   2.0000     -10.298528      -280.2372
   9   2.0000     -10.294452      -280.1263
  10   2.0000     -10.294049      -280.1153
  11   2.0000     -10.288537      -279.9653
  12   2.0000     -10.284829      -279.8644
  13   2.0000     -10.284688      -279.8606
  14   2.0000     -10.284044      -279.8431
  15   2.0000     -10.275250      -279.6038
  16   2.0000      -8.081599      -219.9115
  17   2.0000      -8.079398      -219.8516
  18   2.0000      -6.039982      -164.3563
  19   2.0000      -6.038092      -164.3048
  20   2.0000      -6.035993      -164.2477
  21   2.0000      -6.034269      -164.2008
  22   2.0000      -6.032292      -164.1470
  23   2.0000      -6.029845      -164.0804
  24   2.0000      -1.014231       -27.5986
  25   2.0000      -0.986036       -26.8314
  26   2.0000      -0.920966       -25.0608
  27   2.0000      -0.910876       -24.7862
  28   2.0000      -0.868566       -23.6349
  29   2.0000      -0.858189       -23.3525
  30   2.0000      -0.844301       -22.9746
  31   2.0000      -0.813660       -22.1408
  32   2.0000      -0.785953       -21.3869
  33   2.0000      -0.775999       -21.1160
  34   2.0000      -0.708322       -19.2744
  35   2.0000      -0.699485       -19.0340
  36   2.0000      -0.694181       -18.8896
  37   2.0000      -0.674318       -18.3491
  38   2.0000      -0.638470       -17.3736
  39   2.0000      -0.622163       -16.9299
  40   2.0000      -0.595946       -16.2165
  41   2.0000      -0.577506       -15.7147
  42   2.0000      -0.566455       -15.4140
  43   2.0000      -0.555935       -15.1278
  44   2.0000      -0.533150       -14.5078
  45   2.0000      -0.527014       -14.3408
  46   2.0000      -0.522926       -14.2295
  47   2.0000      -0.512281       -13.9399
  48   2.0000      -0.506216       -13.7748
  49   2.0000      -0.499142       -13.5824
  50   2.0000      -0.490415       -13.3449
  51   2.0000      -0.486938       -13.2502
  52   2.0000      -0.472459       -12.8563
  53   2.0000      -0.467761       -12.7284
  54   2.0000      -0.459941       -12.5156
  55   2.0000      -0.453978       -12.3534
  56   2.0000      -0.446660       -12.1542
  57   2.0000      -0.442365       -12.0374
  58   2.0000      -0.432465       -11.7680
  59   2.0000      -0.424278       -11.5452
  60   2.0000      -0.419912       -11.4264
  61   2.0000      -0.417820       -11.3695
  62   2.0000      -0.409321       -11.1382
  63   2.0000      -0.357532        -9.7289
  64   2.0000      -0.335404        -9.1268
  65   2.0000      -0.330407        -8.9908
  66   2.0000      -0.280946        -7.6449
  67   0.0000       0.019843         0.5400
  68   0.0000       0.076729         2.0879
  69   0.0000       0.095891         2.6093
  70   0.0000       0.124383         3.3846
  71   0.0000       0.126229         3.4349

MULLIKEN ATOMIC CHARGES
-----------------------
   0 S :    0.091800
   1 C :   -0.167778
   2 C :   -0.027430
   3 C :   -0.012613
   4 C :   -0.086534
   5 H :   -0.037936
   6 C :    0.104034
   7 H :    0.027650
   8 H :    0.019472
   9 C :   -0.155992
  10 H :    0.030010
  11 H :    0.049476
  12 C :   -0.001126
  13 H :    0.037716
  14 H :    0.021737
  15 H :    0.021340
  16 S :    0.107362
  17 C :   -0.081358
  18 C :   -0.031435
  19 C :   -0.082534
  20 C :   -0.110411
  21 H :    0.011573
  22 C :    0.061869
  23 H :   -0.005302
  24 H :    0.012187
  25 C :   -0.035602
  26 H :    0.049304
  27 H :    0.022177
  28 C :   -0.045169
  29 H :    0.057203
  30 H :    0.013706
  31 H :    0.013601
  32 H :    0.071133
  33 H :    0.057870
Sum of atomic charges:    0.0000000

LOEWDIN ATOMIC CHARGES
----------------------
   0 S :    0.363488
   1 C :   -0.180952
   2 C :   -0.063632
   3 C :   -0.070055
   4 C :   -0.182825
   5 H :    0.023550
   6 C :   -0.026715
   7 H :    0.029481
   8 H :    0.031307
   9 C :   -0.046149
  10 H :    0.023915
  11 H :    0.033157
  12 C :   -0.060049
  13 H :    0.031088
  14 H :    0.020854
  15 H :    0.016256
  16 S :    0.433271
  17 C :   -0.198444
  18 C :   -0.069077
  19 C :   -0.051887
  20 C :   -0.194680
  21 H :    0.027638
  22 C :   -0.029546
  23 H :    0.020515
  24 H :    0.026023
  25 C :   -0.039039
  26 H :    0.028019
  27 H :    0.024711
  28 C :   -0.072151
  29 H :    0.032729
  30 H :    0.029264
  31 H :    0.018825
  32 H :    0.042112
  33 H :    0.028999

  Mayer bond orders larger than 0.100000
B(  0-S ,  1-C ) :   1.1111 B(  0-S ,  4-C ) :   1.1226 B(  1-C ,  2-C ) :   1.6132
B(  1-C , 32-H ) :   0.9607 B(  2-C ,  3-C ) :   1.2290 B(  2-C ,  6-C ) :   1.0276
B(  3-C ,  4-C ) :   1.5972 B(  3-C ,  5-H ) :   0.9993 B(  4-C , 20-C ) :   1.0754
B(  6-C ,  7-H ) :   0.9343 B(  6-C ,  8-H ) :   0.9419 B(  6-C ,  9-C ) :   1.0454
B(  9-C , 10-H ) :   0.9586 B(  9-C , 11-H ) :   0.9596 B(  9-C , 12-C ) :   1.0747
B( 12-C , 13-H ) :   0.9733 B( 12-C , 14-H ) :   0.9729 B( 12-C , 15-H ) :   0.9769
B( 16-S , 17-C ) :   1.1779 B( 16-S , 20-C ) :   1.1307 B( 17-C , 18-C ) :   1.5866
B( 17-C , 33-H ) :   0.9660 B( 18-C , 19-C ) :   1.2437 B( 18-C , 21-H ) :   0.9964
B( 19-C , 20-C ) :   1.6013 B( 19-C , 22-C ) :   1.0317 B( 22-C , 23-H ) :   0.9251
B( 22-C , 24-H ) :   0.9350 B( 22-C , 25-C ) :   1.0665 B( 25-C , 26-H ) :   0.9529
B( 25-C , 27-H ) :   0.9465 B( 25-C , 28-C ) :   1.0792 B( 28-C , 29-H ) :   0.9743
B( 28-C , 30-H ) :   0.9660 B( 28-C , 31-H ) :   0.9719

Dispersion correction           -0.014022274
FINAL SINGLE POINT ENERGY     -1339.866486453043

DIPOLE MOMENT
-------------
                                X             Y             Z
Electronic contribution:    -24.80614     -13.95542     -17.44885
Nuclear contribution   :     25.17677      14.33685      17.98331
                        -----------------------------------------
Total Dipole Moment    :      0.37062       0.38143       0.53446
                        -----------------------------------------
Magnitude (a.u.)       :      0.75399
Magnitude (Debye)      :      1.91649

Rotational constants in cm-1:     0.017721     0.009483     0.006437
Rotational constants in MHz :   531.259104   284.287593   192.988642

                             ****ORCA TERMINATED NORMALLY****
TOTAL RUN TIME: 0 days 0 hours 0 minutes 28 seconds 986 msec
