                         Program Version 4.2.1 -  RELEASE  -
|  1> ! wB97X-D3 SP def2-SVP
|  2> %pal
|  3> nprocs 16
|  4> end
|  5>
|  6> * xyz 0 1
|  7> S 	 33.47 	 -1.65476 	 68.0492
|  8> C 	 33.1241 	 -0.00710928 	 67.5606
|  9> C 	 33.6095 	 0.876768 	 68.4611
| 10> C 	 34.318 	 0.220275 	 69.5121
| 11> C 	 34.4585 	 -1.15072 	 69.3385
| 12> H 	 34.8288 	 0.660063 	 70.3176
| 13> C 	 33.5308 	 2.40501 	 68.4454
| 14> H 	 33.4295 	 3.00325 	 69.3922
| 15> H 	 32.4649 	 2.62167 	 68.0264
| 16> C 	 34.7192 	 2.97774 	 67.6359
| 17> H 	 35.5592 	 2.3535 	 67.7278
| 18> H 	 34.4431 	 3.04121 	 66.6328
| 19> C 	 35.1365 	 4.41329 	 68.0796
| 20> H 	 35.7472 	 4.7984 	 67.2723
| 21> H 	 34.2312 	 5.12837 	 68.0781
| 22> H 	 35.5875 	 4.4303 	 69.0051
| 23> S 	 34.2617 	 -3.21486 	 71.1406
| 24> C 	 35.7535 	 -3.78 	 71.8668
| 25> C 	 36.8463 	 -3.08931 	 71.4027
| 26> C 	 36.5269 	 -2.04984 	 70.4674
| 27> C 	 35.1966 	 -2.08675 	 70.1569
| 28> H 	 37.8515 	 -3.3053 	 71.7124
| 29> C 	 37.5952 	 -1.06317 	 69.9255
| 30> H 	 38.3387 	 -0.893964 	 70.6664
| 31> H 	 37.1265 	 -0.0390314 	 69.8207
| 32> C 	 38.2665 	 -1.43691 	 68.5777
| 33> H 	 37.4897 	 -1.29254 	 67.7958
| 34> H 	 38.6349 	 -2.47455 	 68.5853
| 35> C 	 39.5082 	 -0.633216 	 68.2943
| 36> H 	 39.9194 	 -0.725621 	 67.2164
| 37> H 	 40.3445 	 -0.884622 	 68.9327
| 38> H 	 39.3158 	 0.486432 	 68.4115
| 39> H 	 32.4057 	 0.253155 	 66.771
| 40> H 	 35.7487 	 -4.54027 	 72.6617
| 41> *
| 42>
| 43>                          ****END OF INPUT****

CARTESIAN COORDINATES (ANGSTROEM)
---------------------------------
  S     33.470000   -1.654760   68.049200
  C     33.124100   -0.007109   67.560600
  C     33.609500    0.876768   68.461100
  C     34.318000    0.220275   69.512100
  C     34.458500   -1.150720   69.338500
  H     34.828800    0.660063   70.317600
  C     33.530800    2.405010   68.445400
  H     33.429500    3.003250   69.392200
  H     32.464900    2.621670   68.026400
  C     34.719200    2.977740   67.635900
  H     35.559200    2.353500   67.727800
  H     34.443100    3.041210   66.632800
  C     35.136500    4.413290   68.079600
  H     35.747200    4.798400   67.272300
  H     34.231200    5.128370   68.078100
  H     35.587500    4.430300   69.005100
  S     34.261700   -3.214860   71.140600
  C     35.753500   -3.780000   71.866800
  C     36.846300   -3.089310   71.402700
  C     36.526900   -2.049840   70.467400
  C     35.196600   -2.086750   70.156900
  H     37.851500   -3.305300   71.712400
  C     37.595200   -1.063170   69.925500
  H     38.338700   -0.893964   70.666400
  H     37.126500   -0.039031   69.820700
  C     38.266500   -1.436910   68.577700
  H     37.489700   -1.292540   67.795800
  H     38.634900   -2.474550   68.585300
  C     39.508200   -0.633216   68.294300
  H     39.919400   -0.725621   67.216400
  H     40.344500   -0.884622   68.932700
  H     39.315800    0.486432   68.411500
  H     32.405700    0.253155   66.771000
  H     35.748700   -4.540270   72.661700

 Total Charge           Charge          ....    0
 Multiplicity           Mult            ....    1
 Number of Electrons    NEL             ....  134
 Basis Dimension        Dim             ....  322

ORBITAL ENERGIES
----------------

  NO   OCC          E(Eh)            E(eV)
   0   2.0000     -88.966191     -2420.8931
   1   2.0000     -88.962358     -2420.7888
   2   2.0000     -10.323582      -280.9189
   3   2.0000     -10.321258      -280.8557
   4   2.0000     -10.320471      -280.8343
   5   2.0000     -10.311236      -280.5830
   6   2.0000     -10.305117      -280.4165
   7   2.0000     -10.302596      -280.3479
   8   2.0000     -10.299516      -280.2641
   9   2.0000     -10.298059      -280.2244
  10   2.0000     -10.294109      -280.1169
  11   2.0000     -10.289359      -279.9877
  12   2.0000     -10.286838      -279.9191
  13   2.0000     -10.285534      -279.8836
  14   2.0000     -10.279544      -279.7206
  15   2.0000     -10.279024      -279.7065
  16   2.0000      -8.080967      -219.8943
  17   2.0000      -8.078156      -219.8178
  18   2.0000      -6.039469      -164.3423
  19   2.0000      -6.036544      -164.2627
  20   2.0000      -6.035556      -164.2358
  21   2.0000      -6.032504      -164.1528
  22   2.0000      -6.031644      -164.1294
  23   2.0000      -6.028983      -164.0570
  24   2.0000      -1.011462       -27.5233
  25   2.0000      -0.987095       -26.8602
  26   2.0000      -0.909274       -24.7426
  27   2.0000      -0.905805       -24.6482
  28   2.0000      -0.871105       -23.7040
  29   2.0000      -0.852815       -23.2063
  30   2.0000      -0.844645       -22.9840
  31   2.0000      -0.810801       -22.0630
  32   2.0000      -0.781356       -21.2618
  33   2.0000      -0.771723       -20.9997
  34   2.0000      -0.704063       -19.1585
  35   2.0000      -0.700628       -19.0651
  36   2.0000      -0.689431       -18.7604
  37   2.0000      -0.664830       -18.0909
  38   2.0000      -0.644649       -17.5418
  39   2.0000      -0.616455       -16.7746
  40   2.0000      -0.598357       -16.2821
  41   2.0000      -0.569511       -15.4972
  42   2.0000      -0.565755       -15.3950
  43   2.0000      -0.562397       -15.3036
  44   2.0000      -0.520704       -14.1691
  45   2.0000      -0.520230       -14.1562
  46   2.0000      -0.517904       -14.0929
  47   2.0000      -0.514752       -14.0071
  48   2.0000      -0.503167       -13.6919
  49   2.0000      -0.498019       -13.5518
  50   2.0000      -0.492204       -13.3936
  51   2.0000      -0.482562       -13.1312
  52   2.0000      -0.474338       -12.9074
  53   2.0000      -0.462052       -12.5731
  54   2.0000      -0.456921       -12.4335
  55   2.0000      -0.453780       -12.3480
  56   2.0000      -0.441014       -12.0006
  57   2.0000      -0.435350       -11.8465
  58   2.0000      -0.429468       -11.6864
  59   2.0000      -0.424003       -11.5377
  60   2.0000      -0.422190       -11.4884
  61   2.0000      -0.416923       -11.3450
  62   2.0000      -0.409017       -11.1299
  63   2.0000      -0.340317        -9.2605
  64   2.0000      -0.333990        -9.0883
  65   2.0000      -0.328230        -8.9316
  66   2.0000      -0.300577        -8.1791
  67   0.0000       0.038096         1.0366
  68   0.0000       0.066847         1.8190
  69   0.0000       0.111336         3.0296
  70   0.0000       0.119114         3.2413
  71   0.0000       0.127704         3.4750

MULLIKEN ATOMIC CHARGES
-----------------------
   0 S :    0.111115
   1 C :   -0.130396
   2 C :   -0.067184
   3 C :    0.061604
   4 C :   -0.189323
   5 H :   -0.010659
   6 C :   -0.003823
   7 H :    0.039615
   8 H :    0.033801
   9 C :   -0.018912
  10 H :    0.028874
  11 H :    0.019532
  12 C :   -0.067777
  13 H :    0.033792
  14 H :    0.033610
  15 H :    0.032914
  16 S :    0.110491
  17 C :   -0.095599
  18 C :   -0.019024
  19 C :   -0.020294
  20 C :   -0.158095
  21 H :    0.009816
  22 C :    0.064425
  23 H :    0.008391
  24 H :    0.026679
  25 C :   -0.050839
  26 H :    0.048007
  27 H :    0.034501
  28 C :   -0.097108
  29 H :    0.048056
  30 H :    0.034155
  31 H :    0.031182
  32 H :    0.052936
  33 H :    0.065536
Sum of atomic charges:    0.0000000

LOEWDIN ATOMIC CHARGES
----------------------
   0 S :    0.423516
   1 C :   -0.202311
   2 C :   -0.065819
   3 C :   -0.060085
   4 C :   -0.210499
   5 H :    0.019767
   6 C :   -0.042396
   7 H :    0.034341
   8 H :    0.037108
   9 C :   -0.028267
  10 H :    0.019904
  11 H :    0.019101
  12 C :   -0.061203
  13 H :    0.027295
  14 H :    0.032162
  15 H :    0.011382
  16 S :    0.397689
  17 C :   -0.181150
  18 C :   -0.066663
  19 C :   -0.049660
  20 C :   -0.197757
  21 H :    0.028299
  22 C :   -0.029609
  23 H :    0.021850
  24 H :    0.036002
  25 C :   -0.043699
  26 H :    0.032454
  27 H :    0.028132
  28 C :   -0.079874
  29 H :    0.036743
  30 H :    0.021012
  31 H :    0.026385
  32 H :    0.033198
  33 H :    0.032652

  Mayer bond orders larger than 0.100000
B(  0-S ,  1-C ) :   1.1344 B(  0-S ,  4-C ) :   1.1729 B(  1-C ,  2-C ) :   1.6239
B(  1-C , 32-H ) :   0.9658 B(  2-C ,  3-C ) :   1.2380 B(  2-C ,  6-C ) :   1.0122
B(  3-C ,  4-C ) :   1.5667 B(  3-C ,  5-H ) :   1.0050 B(  4-C , 20-C ) :   1.0118
B(  6-C ,  7-H ) :   0.9616 B(  6-C ,  8-H ) :   0.9411 B(  6-C ,  9-C ) :   1.0324
B(  9-C , 10-H ) :   0.9632 B(  9-C , 11-H ) :   0.9543 B(  9-C , 12-C ) :   1.0881
B( 12-C , 13-H ) :   0.9750 B( 12-C , 14-H ) :   0.9739 B( 12-C , 15-H ) :   0.9803
B( 16-S , 17-C ) :   1.1440 B( 16-S , 20-C ) :   1.1443 B( 17-C , 18-C ) :   1.6181
B( 17-C , 33-H ) :   0.9669 B( 18-C , 19-C ) :   1.2262 B( 18-C , 21-H ) :   0.9922
B( 19-C , 20-C ) :   1.6349 B( 19-C , 22-C ) :   1.0384 B( 22-C , 23-H ) :   0.9377
B( 22-C , 24-H ) :   0.9259 B( 22-C , 25-C ) :   1.0632 B( 25-C , 26-H ) :   0.9544
B( 25-C , 27-H ) :   0.9567 B( 25-C , 28-C ) :   1.0806 B( 28-C , 29-H ) :   0.9724
B( 28-C , 30-H ) :   0.9746 B( 28-C , 31-H ) :   0.9720

Dispersion correction           -0.014210666
FINAL SINGLE POINT ENERGY     -1339.875152434502

DIPOLE MOMENT
-------------
                                X             Y             Z
Electronic contribution:    -17.98807     -24.68287       8.28596
Nuclear contribution   :     18.44556      25.17309      -8.19287
                        -----------------------------------------
Total Dipole Moment    :      0.45748       0.49022       0.09310
                        -----------------------------------------
Magnitude (a.u.)       :      0.67696
Magnitude (Debye)      :      1.72070

Rotational constants in cm-1:     0.016945     0.009237     0.006974
Rotational constants in MHz :   507.986773   276.912854   209.082228

                             ****ORCA TERMINATED NORMALLY****
TOTAL RUN TIME: 0 days 0 hours 0 minutes 30 seconds 70 msec
