                         Program Version 4.2.1 -  RELEASE  -
|  1> ! wB97X-D3 SP def2-SVP
|  2> %pal
|  3> nprocs 16
|  4> end
|  5>
|  6> * xyz 0 1
|  7> S 	 46.2487 	 23.3804 	 89.0591
|  8> C 	 46.6314 	 23.8671 	 90.6708
|  9> C 	 47.6748 	 24.7627 	 90.675
| 10> C 	 48.2724 	 24.9443 	 89.3777
| 11> C 	 47.6204 	 24.2386 	 88.4064
| 12> H 	 49.1413 	 25.4834 	 89.0857
| 13> C 	 48.366 	 25.3394 	 91.9005
| 14> H 	 49.4025 	 25.2161 	 91.7117
| 15> H 	 48.0722 	 24.7453 	 92.73
| 16> C 	 47.9723 	 26.7335 	 92.3172
| 17> H 	 48.7129 	 27.0531 	 93.013
| 18> H 	 48.1626 	 27.4278 	 91.5396
| 19> C 	 46.592 	 26.7976 	 92.9754
| 20> H 	 45.8027 	 26.2601 	 92.4089
| 21> H 	 46.5876 	 26.2668 	 93.9515
| 22> H 	 46.1375 	 27.7388 	 93.1358
| 23> S 	 46.4699 	 23.7885 	 85.9117
| 24> C 	 47.5225 	 23.5244 	 84.5473
| 25> C 	 48.8752 	 23.6192 	 84.9282
| 26> C 	 49.0977 	 23.9179 	 86.2936
| 27> C 	 47.9391 	 24.0796 	 86.9789
| 28> H 	 49.6137 	 23.6183 	 84.2239
| 29> C 	 50.4536 	 24.0788 	 86.9262
| 30> H 	 50.4211 	 24.743 	 87.7757
| 31> H 	 50.9716 	 24.6757 	 86.1883
| 32> C 	 51.1463 	 22.851 	 87.4166
| 33> H 	 50.8967 	 22.0619 	 86.6284
| 34> H 	 50.7287 	 22.6534 	 88.3605
| 35> C 	 52.6475 	 23.1197 	 87.4724
| 36> H 	 53.1039 	 22.1622 	 87.6419
| 37> H 	 52.8749 	 23.6439 	 88.4659
| 38> H 	 52.9382 	 23.7904 	 86.7048
| 39> H 	 46.0249 	 23.7223 	 91.5443
| 40> H 	 47.1772 	 23.3371 	 83.5438
| 41> *
| 42>
| 43>                          ****END OF INPUT****

CARTESIAN COORDINATES (ANGSTROEM)
---------------------------------
  S     46.248700   23.380400   89.059100
  C     46.631400   23.867100   90.670800
  C     47.674800   24.762700   90.675000
  C     48.272400   24.944300   89.377700
  C     47.620400   24.238600   88.406400
  H     49.141300   25.483400   89.085700
  C     48.366000   25.339400   91.900500
  H     49.402500   25.216100   91.711700
  H     48.072200   24.745300   92.730000
  C     47.972300   26.733500   92.317200
  H     48.712900   27.053100   93.013000
  H     48.162600   27.427800   91.539600
  C     46.592000   26.797600   92.975400
  H     45.802700   26.260100   92.408900
  H     46.587600   26.266800   93.951500
  H     46.137500   27.738800   93.135800
  S     46.469900   23.788500   85.911700
  C     47.522500   23.524400   84.547300
  C     48.875200   23.619200   84.928200
  C     49.097700   23.917900   86.293600
  C     47.939100   24.079600   86.978900
  H     49.613700   23.618300   84.223900
  C     50.453600   24.078800   86.926200
  H     50.421100   24.743000   87.775700
  H     50.971600   24.675700   86.188300
  C     51.146300   22.851000   87.416600
  H     50.896700   22.061900   86.628400
  H     50.728700   22.653400   88.360500
  C     52.647500   23.119700   87.472400
  H     53.103900   22.162200   87.641900
  H     52.874900   23.643900   88.465900
  H     52.938200   23.790400   86.704800
  H     46.024900   23.722300   91.544300
  H     47.177200   23.337100   83.543800

 Total Charge           Charge          ....    0
 Multiplicity           Mult            ....    1
 Number of Electrons    NEL             ....  134
 Basis Dimension        Dim             ....  322

ORBITAL ENERGIES
----------------

  NO   OCC          E(Eh)            E(eV)
   0   2.0000     -88.964802     -2420.8553
   1   2.0000     -88.963390     -2420.8169
   2   2.0000     -10.329301      -281.0746
   3   2.0000     -10.327728      -281.0318
   4   2.0000     -10.322147      -280.8799
   5   2.0000     -10.308423      -280.5065
   6   2.0000     -10.300002      -280.2773
   7   2.0000     -10.298677      -280.2412
   8   2.0000     -10.290466      -280.0178
   9   2.0000     -10.289070      -279.9798
  10   2.0000     -10.285848      -279.8922
  11   2.0000     -10.283569      -279.8301
  12   2.0000     -10.283072      -279.8166
  13   2.0000     -10.280664      -279.7511
  14   2.0000     -10.279858      -279.7292
  15   2.0000     -10.278415      -279.6899
  16   2.0000      -8.078711      -219.8329
  17   2.0000      -8.078580      -219.8293
  18   2.0000      -6.037289      -164.2830
  19   2.0000      -6.037146      -164.2791
  20   2.0000      -6.033275      -164.1738
  21   2.0000      -6.033109      -164.1692
  22   2.0000      -6.029376      -164.0677
  23   2.0000      -6.029295      -164.0655
  24   2.0000      -1.007248       -27.4086
  25   2.0000      -0.983196       -26.7541
  26   2.0000      -0.921064       -25.0634
  27   2.0000      -0.916792       -24.9472
  28   2.0000      -0.868251       -23.6263
  29   2.0000      -0.857739       -23.3403
  30   2.0000      -0.845993       -23.0207
  31   2.0000      -0.812852       -22.1188
  32   2.0000      -0.786587       -21.4041
  33   2.0000      -0.777245       -21.1499
  34   2.0000      -0.712776       -19.3956
  35   2.0000      -0.703744       -19.1498
  36   2.0000      -0.695032       -18.9128
  37   2.0000      -0.670291       -18.2395
  38   2.0000      -0.645558       -17.5665
  39   2.0000      -0.622816       -16.9477
  40   2.0000      -0.601823       -16.3764
  41   2.0000      -0.577426       -15.7126
  42   2.0000      -0.566497       -15.4152
  43   2.0000      -0.558733       -15.2039
  44   2.0000      -0.539294       -14.6749
  45   2.0000      -0.535785       -14.5795
  46   2.0000      -0.520299       -14.1580
  47   2.0000      -0.515377       -14.0241
  48   2.0000      -0.500858       -13.6290
  49   2.0000      -0.495845       -13.4926
  50   2.0000      -0.490595       -13.3498
  51   2.0000      -0.487798       -13.2737
  52   2.0000      -0.468780       -12.7561
  53   2.0000      -0.461071       -12.5464
  54   2.0000      -0.458373       -12.4730
  55   2.0000      -0.452035       -12.3005
  56   2.0000      -0.450201       -12.2506
  57   2.0000      -0.444227       -12.0880
  58   2.0000      -0.440247       -11.9797
  59   2.0000      -0.430190       -11.7061
  60   2.0000      -0.415126       -11.2962
  61   2.0000      -0.408589       -11.1183
  62   2.0000      -0.406477       -11.0608
  63   2.0000      -0.356201        -9.6927
  64   2.0000      -0.333198        -9.0668
  65   2.0000      -0.329596        -8.9688
  66   2.0000      -0.286998        -7.8096
  67   0.0000       0.026376         0.7177
  68   0.0000       0.072273         1.9666
  69   0.0000       0.101436         2.7602
  70   0.0000       0.114441         3.1141
  71   0.0000       0.142650         3.8817

MULLIKEN ATOMIC CHARGES
-----------------------
   0 S :    0.105284
   1 C :   -0.100538
   2 C :   -0.098267
   3 C :    0.000906
   4 C :   -0.107801
   5 H :    0.001746
   6 C :    0.082324
   7 H :    0.019225
   8 H :    0.000805
   9 C :   -0.000151
  10 H :    0.015328
  11 H :    0.010040
  12 C :   -0.061806
  13 H :    0.027069
  14 H :    0.028118
  15 H :    0.029014
  16 S :    0.079912
  17 C :   -0.081091
  18 C :   -0.000955
  19 C :   -0.027662
  20 C :   -0.146331
  21 H :   -0.022536
  22 C :    0.041202
  23 H :   -0.008803
  24 H :    0.017155
  25 C :   -0.046980
  26 H :    0.040493
  27 H :    0.029519
  28 C :   -0.024837
  29 H :    0.038834
  30 H :    0.025227
  31 H :    0.033548
  32 H :    0.042799
  33 H :    0.059210
Sum of atomic charges:    0.0000000

LOEWDIN ATOMIC CHARGES
----------------------
   0 S :    0.411554
   1 C :   -0.208110
   2 C :   -0.057354
   3 C :   -0.071809
   4 C :   -0.183628
   5 H :    0.024389
   6 C :   -0.022725
   7 H :    0.027938
   8 H :    0.025103
   9 C :   -0.036382
  10 H :    0.023745
  11 H :    0.018103
  12 C :   -0.068736
  13 H :    0.027388
  14 H :    0.028920
  15 H :    0.021829
  16 S :    0.365308
  17 C :   -0.174491
  18 C :   -0.061166
  19 C :   -0.055947
  20 C :   -0.161702
  21 H :    0.012976
  22 C :   -0.032098
  23 H :    0.023414
  24 H :    0.027545
  25 C :   -0.034600
  26 H :    0.030887
  27 H :    0.022941
  28 C :   -0.061070
  29 H :    0.028221
  30 H :    0.033111
  31 H :    0.020922
  32 H :    0.026609
  33 H :    0.028915

  Mayer bond orders larger than 0.100000
B(  0-S ,  1-C ) :   1.1273 B(  0-S ,  4-C ) :   1.1521 B(  1-C ,  2-C ) :   1.6321
B(  1-C , 32-H ) :   0.9639 B(  2-C ,  3-C ) :   1.2117 B(  2-C ,  6-C ) :   1.0202
B(  3-C ,  4-C ) :   1.5919 B(  3-C ,  5-H ) :   1.0013 B(  4-C , 20-C ) :   1.0367
B(  6-C ,  7-H ) :   0.9409 B(  6-C ,  8-H ) :   0.9391 B(  6-C ,  9-C ) :   1.0794
B(  9-C , 10-H ) :   0.9492 B(  9-C , 11-H ) :   0.9532 B(  9-C , 12-C ) :   1.0654
B( 12-C , 13-H ) :   0.9772 B( 12-C , 14-H ) :   0.9718 B( 12-C , 15-H ) :   0.9752
B( 16-S , 17-C ) :   1.1565 B( 16-S , 20-C ) :   1.1085 B( 17-C , 18-C ) :   1.5963
B( 17-C , 20-C ) :   0.1007 B( 17-C , 33-H ) :   0.9704 B( 18-C , 19-C ) :   1.2312
B( 18-C , 21-H ) :   1.0009 B( 19-C , 20-C ) :   1.6353 B( 19-C , 22-C ) :   1.0293
B( 22-C , 23-H ) :   0.9324 B( 22-C , 24-H ) :   0.9324 B( 22-C , 25-C ) :   1.0549
B( 25-C , 26-H ) :   0.9612 B( 25-C , 27-H ) :   0.9494 B( 25-C , 28-C ) :   1.0802
B( 28-C , 29-H ) :   0.9718 B( 28-C , 30-H ) :   0.9706 B( 28-C , 31-H ) :   0.9779

Dispersion correction           -0.014116046
FINAL SINGLE POINT ENERGY     -1339.864401134453

DIPOLE MOMENT
-------------
                                X             Y             Z
Electronic contribution:    -19.21878      -7.82412     -16.32010
Nuclear contribution   :     19.87264       8.04055      16.53381
                        -----------------------------------------
Total Dipole Moment    :      0.65386       0.21643       0.21371
                        -----------------------------------------
Magnitude (a.u.)       :      0.72114
Magnitude (Debye)      :      1.83299

Rotational constants in cm-1:     0.019000     0.008592     0.006521
Rotational constants in MHz :   569.612601   257.588654   195.499120

                             ****ORCA TERMINATED NORMALLY****
TOTAL RUN TIME: 0 days 0 hours 0 minutes 28 seconds 638 msec
