                         Program Version 4.2.1 -  RELEASE  -
|  1> ! wB97X-D3 SP def2-SVP
|  2> %pal
|  3> nprocs 16
|  4> end
|  5>
|  6> * xyz 0 1
|  7> S 	 -56.4049 	 59.4435 	 135.681
|  8> C 	 -55.5928 	 59.6998 	 134.09
|  9> C 	 -54.7864 	 60.8154 	 134.017
| 10> C 	 -54.6009 	 61.3204 	 135.35
| 11> C 	 -55.3518 	 60.6448 	 136.344
| 12> H 	 -53.9878 	 62.1213 	 135.601
| 13> C 	 -53.8767 	 61.2131 	 132.866
| 14> H 	 -54.0238 	 62.2838 	 132.658
| 15> H 	 -54.1944 	 60.6114 	 131.998
| 16> C 	 -52.3859 	 60.8737 	 133.163
| 17> H 	 -52.1719 	 61.3616 	 134.094
| 18> H 	 -52.4197 	 59.8031 	 133.259
| 19> C 	 -51.3595 	 61.3482 	 132.142
| 20> H 	 -50.3891 	 61.2052 	 132.441
| 21> H 	 -51.3811 	 60.7664 	 131.172
| 22> H 	 -51.5511 	 62.3442 	 131.859
| 23> S 	 -56.9803 	 62.0442 	 137.977
| 24> C 	 -56.4824 	 62.4384 	 139.568
| 25> C 	 -55.172 	 61.9672 	 139.876
| 26> C 	 -54.5926 	 61.2657 	 138.729
| 27> C 	 -55.4963 	 61.1635 	 137.677
| 28> H 	 -54.6548 	 62.2622 	 140.797
| 29> C 	 -53.2386 	 60.6305 	 138.759
| 30> H 	 -52.7116 	 61.0285 	 139.698
| 31> H 	 -52.682 	 61.0523 	 137.964
| 32> C 	 -53.1616 	 59.0848 	 138.715
| 33> H 	 -52.1072 	 58.8701 	 138.597
| 34> H 	 -53.6289 	 58.7783 	 137.773
| 35> C 	 -53.6376 	 58.3034 	 139.985
| 36> H 	 -54.6941 	 58.5476 	 140.278
| 37> H 	 -53.0246 	 58.4555 	 140.87
| 38> H 	 -53.5504 	 57.1877 	 139.955
| 39> H 	 -55.9603 	 59.167 	 133.224
| 40> H 	 -57.1654 	 62.8758 	 140.367
| 41> *
| 42>
| 43>                          ****END OF INPUT****

CARTESIAN COORDINATES (ANGSTROEM)
---------------------------------
  S    -56.404900   59.443500  135.681000
  C    -55.592800   59.699800  134.090000
  C    -54.786400   60.815400  134.017000
  C    -54.600900   61.320400  135.350000
  C    -55.351800   60.644800  136.344000
  H    -53.987800   62.121300  135.601000
  C    -53.876700   61.213100  132.866000
  H    -54.023800   62.283800  132.658000
  H    -54.194400   60.611400  131.998000
  C    -52.385900   60.873700  133.163000
  H    -52.171900   61.361600  134.094000
  H    -52.419700   59.803100  133.259000
  C    -51.359500   61.348200  132.142000
  H    -50.389100   61.205200  132.441000
  H    -51.381100   60.766400  131.172000
  H    -51.551100   62.344200  131.859000
  S    -56.980300   62.044200  137.977000
  C    -56.482400   62.438400  139.568000
  C    -55.172000   61.967200  139.876000
  C    -54.592600   61.265700  138.729000
  C    -55.496300   61.163500  137.677000
  H    -54.654800   62.262200  140.797000
  C    -53.238600   60.630500  138.759000
  H    -52.711600   61.028500  139.698000
  H    -52.682000   61.052300  137.964000
  C    -53.161600   59.084800  138.715000
  H    -52.107200   58.870100  138.597000
  H    -53.628900   58.778300  137.773000
  C    -53.637600   58.303400  139.985000
  H    -54.694100   58.547600  140.278000
  H    -53.024600   58.455500  140.870000
  H    -53.550400   57.187700  139.955000
  H    -55.960300   59.167000  133.224000
  H    -57.165400   62.875800  140.367000

 Total Charge           Charge          ....    0
 Multiplicity           Mult            ....    1
 Number of Electrons    NEL             ....  134
 Basis Dimension        Dim             ....  322

ORBITAL ENERGIES
----------------

  NO   OCC          E(Eh)            E(eV)
   0   2.0000     -88.970631     -2421.0139
   1   2.0000     -88.964747     -2420.8539
   2   2.0000     -10.327290      -281.0198
   3   2.0000     -10.321342      -280.8580
   4   2.0000     -10.318966      -280.7933
   5   2.0000     -10.318162      -280.7715
   6   2.0000     -10.304463      -280.3987
   7   2.0000     -10.302615      -280.3484
   8   2.0000     -10.299456      -280.2624
   9   2.0000     -10.298989      -280.2497
  10   2.0000     -10.293111      -280.0898
  11   2.0000     -10.291065      -280.0341
  12   2.0000     -10.287625      -279.9405
  13   2.0000     -10.286876      -279.9201
  14   2.0000     -10.281227      -279.7664
  15   2.0000     -10.274204      -279.5753
  16   2.0000      -8.084799      -219.9986
  17   2.0000      -8.080053      -219.8694
  18   2.0000      -6.043162      -164.4428
  19   2.0000      -6.039571      -164.3451
  20   2.0000      -6.038425      -164.3139
  21   2.0000      -6.035555      -164.2358
  22   2.0000      -6.034402      -164.2044
  23   2.0000      -6.031008      -164.1121
  24   2.0000      -1.004331       -27.3292
  25   2.0000      -0.978174       -26.6175
  26   2.0000      -0.914055       -24.8727
  27   2.0000      -0.902508       -24.5585
  28   2.0000      -0.867867       -23.6159
  29   2.0000      -0.848526       -23.0896
  30   2.0000      -0.841803       -22.9066
  31   2.0000      -0.805885       -21.9292
  32   2.0000      -0.786060       -21.3898
  33   2.0000      -0.772160       -21.0115
  34   2.0000      -0.710308       -19.3285
  35   2.0000      -0.701735       -19.0952
  36   2.0000      -0.685044       -18.6410
  37   2.0000      -0.658901       -17.9296
  38   2.0000      -0.642901       -17.4942
  39   2.0000      -0.617263       -16.7966
  40   2.0000      -0.585894       -15.9430
  41   2.0000      -0.575784       -15.6679
  42   2.0000      -0.556638       -15.1469
  43   2.0000      -0.544344       -14.8124
  44   2.0000      -0.537086       -14.6148
  45   2.0000      -0.528933       -14.3930
  46   2.0000      -0.514575       -14.0023
  47   2.0000      -0.507460       -13.8087
  48   2.0000      -0.501465       -13.6456
  49   2.0000      -0.493209       -13.4209
  50   2.0000      -0.481426       -13.1003
  51   2.0000      -0.476251       -12.9594
  52   2.0000      -0.470004       -12.7895
  53   2.0000      -0.464260       -12.6332
  54   2.0000      -0.455046       -12.3824
  55   2.0000      -0.453166       -12.3313
  56   2.0000      -0.446656       -12.1541
  57   2.0000      -0.439015       -11.9462
  58   2.0000      -0.433823       -11.8049
  59   2.0000      -0.430280       -11.7085
  60   2.0000      -0.421918       -11.4810
  61   2.0000      -0.414996       -11.2926
  62   2.0000      -0.413207       -11.2439
  63   2.0000      -0.337219        -9.1762
  64   2.0000      -0.327376        -8.9083
  65   2.0000      -0.326513        -8.8849
  66   2.0000      -0.296747        -8.0749
  67   0.0000       0.034003         0.9253
  68   0.0000       0.057858         1.5744
  69   0.0000       0.107418         2.9230
  70   0.0000       0.116802         3.1783
  71   0.0000       0.122319         3.3285

MULLIKEN ATOMIC CHARGES
-----------------------
   0 S :    0.114293
   1 C :   -0.125460
   2 C :   -0.058053
   3 C :    0.045127
   4 C :   -0.177094
   5 H :   -0.006389
   6 C :    0.045367
   7 H :    0.035584
   8 H :    0.022789
   9 C :   -0.076901
  10 H :    0.024828
  11 H :    0.032728
  12 C :    0.006347
  13 H :    0.019870
  14 H :    0.024098
  15 H :    0.018888
  16 S :    0.128041
  17 C :   -0.126936
  18 C :   -0.049992
  19 C :   -0.042428
  20 C :   -0.177017
  21 H :    0.030988
  22 C :    0.069384
  23 H :    0.019537
  24 H :    0.016889
  25 C :   -0.035188
  26 H :    0.022539
  27 H :    0.039590
  28 C :   -0.079152
  29 H :    0.048824
  30 H :    0.020614
  31 H :    0.036551
  32 H :    0.047638
  33 H :    0.084097
Sum of atomic charges:    0.0000000

LOEWDIN ATOMIC CHARGES
----------------------
   0 S :    0.397972
   1 C :   -0.176323
   2 C :   -0.059706
   3 C :   -0.044502
   4 C :   -0.211085
   5 H :    0.017372
   6 C :   -0.028063
   7 H :    0.030696
   8 H :    0.029592
   9 C :   -0.031656
  10 H :    0.020296
  11 H :    0.026329
  12 C :   -0.057580
  13 H :    0.016850
  14 H :    0.031999
  15 H :    0.019886
  16 S :    0.426909
  17 C :   -0.214860
  18 C :   -0.077260
  19 C :   -0.055857
  20 C :   -0.211083
  21 H :    0.034073
  22 C :   -0.035233
  23 H :    0.034964
  24 H :    0.027363
  25 C :   -0.034116
  26 H :    0.024893
  27 H :    0.027120
  28 C :   -0.079715
  29 H :    0.031110
  30 H :    0.022513
  31 H :    0.032104
  32 H :    0.021571
  33 H :    0.043428

  Mayer bond orders larger than 0.100000
B(  0-S ,  1-C ) :   1.1339 B(  0-S ,  4-C ) :   1.1455 B(  1-C ,  2-C ) :   1.6264
B(  1-C , 32-H ) :   0.9613 B(  2-C ,  3-C ) :   1.2201 B(  2-C ,  6-C ) :   1.0398
B(  3-C ,  4-C ) :   1.5755 B(  3-C ,  5-H ) :   0.9973 B(  4-C , 20-C ) :   1.0363
B(  6-C ,  7-H ) :   0.9321 B(  6-C ,  8-H ) :   0.9463 B(  6-C ,  9-C ) :   1.0564
B(  9-C , 10-H ) :   0.9563 B(  9-C , 11-H ) :   0.9576 B(  9-C , 12-C ) :   1.0866
B( 12-C , 13-H ) :   0.9727 B( 12-C , 14-H ) :   0.9713 B( 12-C , 15-H ) :   0.9730
B( 16-S , 17-C ) :   1.1785 B( 16-S , 20-C ) :   1.1499 B( 17-C , 18-C ) :   1.5920
B( 17-C , 33-H ) :   0.9557 B( 18-C , 19-C ) :   1.2449 B( 18-C , 21-H ) :   0.9842
B( 19-C , 20-C ) :   1.5914 B( 19-C , 22-C ) :   1.0490 B( 22-C , 23-H ) :   0.9347
B( 22-C , 24-H ) :   0.9200 B( 22-C , 25-C ) :   1.0784 B( 25-C , 26-H ) :   0.9523
B( 25-C , 27-H ) :   0.9563 B( 25-C , 28-C ) :   1.0622 B( 28-C , 29-H ) :   0.9790
B( 28-C , 30-H ) :   0.9734 B( 28-C , 31-H ) :   0.9755

Dispersion correction           -0.014608650
FINAL SINGLE POINT ENERGY     -1339.871925237867

DIPOLE MOMENT
-------------
                                X             Y             Z
Electronic contribution:    -24.36602       4.48634       5.29010
Nuclear contribution   :     24.95937      -4.34913      -5.48914
                        -----------------------------------------
Total Dipole Moment    :      0.59335       0.13721      -0.19904
                        -----------------------------------------
Magnitude (a.u.)       :      0.64071
Magnitude (Debye)      :      1.62856

Rotational constants in cm-1:     0.018774     0.008340     0.007333
Rotational constants in MHz :   562.830874   250.013352   219.831011

                             ****ORCA TERMINATED NORMALLY****
TOTAL RUN TIME: 0 days 0 hours 0 minutes 35 seconds 357 msec
