                         Program Version 4.2.1 -  RELEASE  -
|  1> ! wB97X-D3 SP def2-SVP
|  2> %pal
|  3> nprocs 16
|  4> end
|  5>
|  6> * xyz 0 1
|  7> S 	 -26.9563 	 67.0726 	 102.002
|  8> C 	 -26.4676 	 65.3552 	 101.811
|  9> C 	 -26.2157 	 64.7612 	 103.028
| 10> C 	 -26.3656 	 65.67 	 104.113
| 11> C 	 -26.7751 	 66.9456 	 103.746
| 12> H 	 -26.1903 	 65.4576 	 105.107
| 13> C 	 -25.486 	 63.3624 	 103.126
| 14> H 	 -26.0815 	 62.8821 	 102.374
| 15> H 	 -25.6341 	 62.7803 	 104.06
| 16> C 	 -23.9766 	 63.3372 	 102.994
| 17> H 	 -23.7074 	 63.946 	 102.082
| 18> H 	 -23.5476 	 63.7396 	 103.885
| 19> C 	 -23.5437 	 61.8687 	 102.642
| 20> H 	 -22.4386 	 61.9929 	 102.648
| 21> H 	 -23.6038 	 61.1667 	 103.418
| 22> H 	 -23.9446 	 61.3161 	 101.815
| 23> S 	 -26.1652 	 69.5158 	 104.588
| 24> C 	 -27.2577 	 70.2791 	 105.748
| 25> C 	 -28.2006 	 69.3434 	 106.233
| 26> C 	 -28.1326 	 68.0841 	 105.574
| 27> C 	 -27.149 	 68.0678 	 104.617
| 28> H 	 -28.7392 	 69.7362 	 107.048
| 29> C 	 -29.1893 	 66.9523 	 105.817
| 30> H 	 -29.241 	 66.5076 	 104.793
| 31> H 	 -30.1351 	 67.4309 	 105.962
| 32> C 	 -29.0601 	 65.989 	 107.009
| 33> H 	 -28.3038 	 65.2516 	 106.888
| 34> H 	 -29.9479 	 65.4214 	 107.128
| 35> C 	 -28.6325 	 66.589 	 108.371
| 36> H 	 -29.4486 	 67.3105 	 108.498
| 37> H 	 -27.7322 	 67.0333 	 108.223
| 38> H 	 -28.587 	 65.8472 	 109.208
| 39> H 	 -26.2478 	 64.823 	 100.901
| 40> H 	 -27.1571 	 71.267 	 106.248
| 41> *
| 42>
| 43>                          ****END OF INPUT****

CARTESIAN COORDINATES (ANGSTROEM)
---------------------------------
  S    -26.956300   67.072600  102.002000
  C    -26.467600   65.355200  101.811000
  C    -26.215700   64.761200  103.028000
  C    -26.365600   65.670000  104.113000
  C    -26.775100   66.945600  103.746000
  H    -26.190300   65.457600  105.107000
  C    -25.486000   63.362400  103.126000
  H    -26.081500   62.882100  102.374000
  H    -25.634100   62.780300  104.060000
  C    -23.976600   63.337200  102.994000
  H    -23.707400   63.946000  102.082000
  H    -23.547600   63.739600  103.885000
  C    -23.543700   61.868700  102.642000
  H    -22.438600   61.992900  102.648000
  H    -23.603800   61.166700  103.418000
  H    -23.944600   61.316100  101.815000
  S    -26.165200   69.515800  104.588000
  C    -27.257700   70.279100  105.748000
  C    -28.200600   69.343400  106.233000
  C    -28.132600   68.084100  105.574000
  C    -27.149000   68.067800  104.617000
  H    -28.739200   69.736200  107.048000
  C    -29.189300   66.952300  105.817000
  H    -29.241000   66.507600  104.793000
  H    -30.135100   67.430900  105.962000
  C    -29.060100   65.989000  107.009000
  H    -28.303800   65.251600  106.888000
  H    -29.947900   65.421400  107.128000
  C    -28.632500   66.589000  108.371000
  H    -29.448600   67.310500  108.498000
  H    -27.732200   67.033300  108.223000
  H    -28.587000   65.847200  109.208000
  H    -26.247800   64.823000  100.901000
  H    -27.157100   71.267000  106.248000

 Total Charge           Charge          ....    0
 Multiplicity           Mult            ....    1
 Number of Electrons    NEL             ....  134
 Basis Dimension        Dim             ....  322

ORBITAL ENERGIES
----------------

  NO   OCC          E(Eh)            E(eV)
   0   2.0000     -88.969101     -2420.9723
   1   2.0000     -88.967977     -2420.9417
   2   2.0000     -10.329747      -281.0867
   3   2.0000     -10.325855      -280.9808
   4   2.0000     -10.322321      -280.8846
   5   2.0000     -10.316155      -280.7168
   6   2.0000     -10.306907      -280.4652
   7   2.0000     -10.301658      -280.3224
   8   2.0000     -10.295485      -280.1544
   9   2.0000     -10.294933      -280.1394
  10   2.0000     -10.293176      -280.0916
  11   2.0000     -10.293083      -280.0890
  12   2.0000     -10.289165      -279.9824
  13   2.0000     -10.279123      -279.7091
  14   2.0000     -10.278371      -279.6887
  15   2.0000     -10.273686      -279.5612
  16   2.0000      -8.083325      -219.9585
  17   2.0000      -8.081670      -219.9134
  18   2.0000      -6.041791      -164.4055
  19   2.0000      -6.040251      -164.3636
  20   2.0000      -6.037967      -164.3014
  21   2.0000      -6.036347      -164.2574
  22   2.0000      -6.034098      -164.1961
  23   2.0000      -6.032383      -164.1495
  24   2.0000      -1.002863       -27.2893
  25   2.0000      -0.978872       -26.6365
  26   2.0000      -0.908942       -24.7336
  27   2.0000      -0.905201       -24.6318
  28   2.0000      -0.866609       -23.5816
  29   2.0000      -0.851060       -23.1585
  30   2.0000      -0.843080       -22.9414
  31   2.0000      -0.814244       -22.1567
  32   2.0000      -0.785697       -21.3799
  33   2.0000      -0.774932       -21.0870
  34   2.0000      -0.710076       -19.3221
  35   2.0000      -0.702036       -19.1034
  36   2.0000      -0.691221       -18.8091
  37   2.0000      -0.659942       -17.9579
  38   2.0000      -0.641846       -17.4655
  39   2.0000      -0.617168       -16.7940
  40   2.0000      -0.584510       -15.9053
  41   2.0000      -0.577830       -15.7235
  42   2.0000      -0.562681       -15.3113
  43   2.0000      -0.554023       -15.0757
  44   2.0000      -0.549098       -14.9417
  45   2.0000      -0.531631       -14.4664
  46   2.0000      -0.516420       -14.0525
  47   2.0000      -0.510629       -13.8949
  48   2.0000      -0.500661       -13.6237
  49   2.0000      -0.490600       -13.3499
  50   2.0000      -0.485586       -13.2135
  51   2.0000      -0.479294       -13.0423
  52   2.0000      -0.473717       -12.8905
  53   2.0000      -0.464758       -12.6467
  54   2.0000      -0.460172       -12.5219
  55   2.0000      -0.450845       -12.2681
  56   2.0000      -0.445070       -12.1110
  57   2.0000      -0.442216       -12.0333
  58   2.0000      -0.438405       -11.9296
  59   2.0000      -0.422407       -11.4943
  60   2.0000      -0.416861       -11.3434
  61   2.0000      -0.404054       -10.9949
  62   2.0000      -0.399940       -10.8829
  63   2.0000      -0.337492        -9.1836
  64   2.0000      -0.333619        -9.0782
  65   2.0000      -0.329990        -8.9795
  66   2.0000      -0.301910        -8.2154
  67   0.0000       0.032265         0.8780
  68   0.0000       0.061943         1.6855
  69   0.0000       0.112878         3.0716
  70   0.0000       0.116753         3.1770
  71   0.0000       0.125499         3.4150

MULLIKEN ATOMIC CHARGES
-----------------------
   0 S :    0.112788
   1 C :   -0.117868
   2 C :   -0.074542
   3 C :    0.082972
   4 C :   -0.180240
   5 H :   -0.024427
   6 C :    0.017296
   7 H :    0.025476
   8 H :    0.023755
   9 C :   -0.040226
  10 H :    0.038908
  11 H :    0.035616
  12 C :   -0.048948
  13 H :    0.032105
  14 H :    0.008321
  15 H :    0.041156
  16 S :    0.121290
  17 C :   -0.122950
  18 C :   -0.041886
  19 C :   -0.009319
  20 C :   -0.181056
  21 H :    0.007000
  22 C :    0.079330
  23 H :    0.050896
  24 H :    0.018465
  25 C :   -0.047305
  26 H :    0.007529
  27 H :    0.022423
  28 C :   -0.049027
  29 H :    0.024784
  30 H :    0.027607
  31 H :    0.047078
  32 H :    0.042707
  33 H :    0.070290
Sum of atomic charges:    0.0000000

LOEWDIN ATOMIC CHARGES
----------------------
   0 S :    0.389362
   1 C :   -0.183866
   2 C :   -0.062828
   3 C :   -0.051038
   4 C :   -0.191597
   5 H :    0.017297
   6 C :   -0.037876
   7 H :    0.026070
   8 H :    0.030582
   9 C :   -0.030587
  10 H :    0.030372
  11 H :    0.025983
  12 C :   -0.069753
  13 H :    0.035259
  14 H :    0.015649
  15 H :    0.027274
  16 S :    0.404120
  17 C :   -0.190763
  18 C :   -0.068129
  19 C :   -0.055081
  20 C :   -0.206891
  21 H :    0.025643
  22 C :   -0.026535
  23 H :    0.044148
  24 H :    0.027506
  25 C :   -0.037030
  26 H :    0.013399
  27 H :    0.020306
  28 C :   -0.053145
  29 H :    0.023239
  30 H :    0.009809
  31 H :    0.033993
  32 H :    0.026797
  33 H :    0.038308

  Mayer bond orders larger than 0.100000
B(  0-S ,  1-C ) :   1.1290 B(  0-S ,  4-C ) :   1.1457 B(  1-C ,  2-C ) :   1.6266
B(  1-C , 32-H ) :   0.9670 B(  2-C ,  3-C ) :   1.2313 B(  2-C ,  6-C ) :   0.9988
B(  3-C ,  4-C ) :   1.5814 B(  3-C ,  5-H ) :   1.0134 B(  4-C , 20-C ) :   1.0091
B(  6-C ,  7-H ) :   0.9495 B(  6-C ,  8-H ) :   0.9491 B(  6-C ,  9-C ) :   1.0584
B(  9-C , 10-H ) :   0.9592 B(  9-C , 11-H ) :   0.9547 B(  9-C , 12-C ) :   1.0641
B( 12-C , 13-H ) :   0.9726 B( 12-C , 14-H ) :   0.9732 B( 12-C , 15-H ) :   0.9799
B( 16-S , 17-C ) :   1.1460 B( 16-S , 20-C ) :   1.1525 B( 17-C , 18-C ) :   1.6292
B( 17-C , 20-C ) :   0.1011 B( 17-C , 33-H ) :   0.9610 B( 18-C , 19-C ) :   1.2141
B( 18-C , 21-H ) :   0.9979 B( 19-C , 20-C ) :   1.6083 B( 19-C , 22-C ) :   1.0143
B( 22-C , 23-H ) :   0.9360 B( 22-C , 24-H ) :   0.9407 B( 22-C , 25-C ) :   1.0635
B( 25-C , 26-H ) :   0.9550 B( 25-C , 27-H ) :   0.9572 B( 25-C , 28-C ) :   1.0723
B( 28-C , 29-H ) :   0.9811 B( 28-C , 30-H ) :   0.9738 B( 28-C , 31-H ) :   0.9744

Dispersion correction           -0.014496210
FINAL SINGLE POINT ENERGY     -1339.840998626448

DIPOLE MOMENT
-------------
                                X             Y             Z
Electronic contribution:     -1.40559      23.86452     -11.41321
Nuclear contribution   :      1.45640     -24.38609      11.86880
                        -----------------------------------------
Total Dipole Moment    :      0.05081      -0.52157       0.45559
                        -----------------------------------------
Magnitude (a.u.)       :      0.69439
Magnitude (Debye)      :      1.76501

Rotational constants in cm-1:     0.019692     0.007820     0.006505
Rotational constants in MHz :   590.359280   234.423492   195.027271

                             ****ORCA TERMINATED NORMALLY****
TOTAL RUN TIME: 0 days 0 hours 0 minutes 29 seconds 745 msec
