                         Program Version 4.2.1 -  RELEASE  -
|  1> ! wB97X-D3 SP def2-SVP
|  2> %pal
|  3> nprocs 16
|  4> end
|  5>
|  6> * xyz 0 1
|  7> S 	 6.16095 	 -14.7489 	 88.7951
|  8> C 	 5.13379 	 -15.3174 	 90.0711
|  9> C 	 5.22392 	 -16.6423 	 90.1962
| 10> C 	 6.10448 	 -17.2636 	 89.2858
| 11> C 	 6.66974 	 -16.3832 	 88.3803
| 12> H 	 6.38216 	 -18.282 	 89.2685
| 13> C 	 4.54972 	 -17.4204 	 91.2959
| 14> H 	 3.91126 	 -16.7161 	 91.8352
| 15> H 	 5.37662 	 -17.7121 	 91.9347
| 16> C 	 3.70284 	 -18.5079 	 90.6621
| 17> H 	 3.04687 	 -18.1436 	 89.9128
| 18> H 	 4.30504 	 -19.1918 	 90.0456
| 19> C 	 2.89593 	 -19.2759 	 91.8131
| 20> H 	 3.60233 	 -19.9945 	 92.2343
| 21> H 	 2.61693 	 -18.5464 	 92.5625
| 22> H 	 2.0494 	 -19.8133 	 91.4312
| 23> S 	 8.89951 	 -15.7027 	 86.9018
| 24> C 	 9.14197 	 -16.6375 	 85.4211
| 25> C 	 8.18769 	 -17.5793 	 85.2162
| 26> C 	 7.08812 	 -17.5035 	 86.1472
| 27> C 	 7.40587 	 -16.6648 	 87.1793
| 28> H 	 8.27689 	 -18.1989 	 84.3122
| 29> C 	 5.80609 	 -18.3233 	 86.0206
| 30> H 	 5.29894 	 -18.515 	 87.0192
| 31> H 	 6.32791 	 -19.2851 	 85.747
| 32> C 	 4.74198 	 -18.0322 	 84.906
| 33> H 	 5.19623 	 -18.0775 	 83.9069
| 34> H 	 4.38682 	 -17.0859 	 84.853
| 35> C 	 3.51451 	 -18.9803 	 84.9458
| 36> H 	 3.7971 	 -20.0224 	 84.8035
| 37> H 	 2.80142 	 -18.6881 	 84.1456
| 38> H 	 3.00451 	 -19.0847 	 85.8902
| 39> H 	 4.63062 	 -14.7311 	 90.8143
| 40> H 	 9.91842 	 -16.5284 	 84.6763
| 41> *
| 42>
| 43>                          ****END OF INPUT****

CARTESIAN COORDINATES (ANGSTROEM)
---------------------------------
  S      6.160950  -14.748900   88.795100
  C      5.133790  -15.317400   90.071100
  C      5.223920  -16.642300   90.196200
  C      6.104480  -17.263600   89.285800
  C      6.669740  -16.383200   88.380300
  H      6.382160  -18.282000   89.268500
  C      4.549720  -17.420400   91.295900
  H      3.911260  -16.716100   91.835200
  H      5.376620  -17.712100   91.934700
  C      3.702840  -18.507900   90.662100
  H      3.046870  -18.143600   89.912800
  H      4.305040  -19.191800   90.045600
  C      2.895930  -19.275900   91.813100
  H      3.602330  -19.994500   92.234300
  H      2.616930  -18.546400   92.562500
  H      2.049400  -19.813300   91.431200
  S      8.899510  -15.702700   86.901800
  C      9.141970  -16.637500   85.421100
  C      8.187690  -17.579300   85.216200
  C      7.088120  -17.503500   86.147200
  C      7.405870  -16.664800   87.179300
  H      8.276890  -18.198900   84.312200
  C      5.806090  -18.323300   86.020600
  H      5.298940  -18.515000   87.019200
  H      6.327910  -19.285100   85.747000
  C      4.741980  -18.032200   84.906000
  H      5.196230  -18.077500   83.906900
  H      4.386820  -17.085900   84.853000
  C      3.514510  -18.980300   84.945800
  H      3.797100  -20.022400   84.803500
  H      2.801420  -18.688100   84.145600
  H      3.004510  -19.084700   85.890200
  H      4.630620  -14.731100   90.814300
  H      9.918420  -16.528400   84.676300

 Total Charge           Charge          ....    0
 Multiplicity           Mult            ....    1
 Number of Electrons    NEL             ....  134
 Basis Dimension        Dim             ....  322

ORBITAL ENERGIES
----------------

  NO   OCC          E(Eh)            E(eV)
   0   2.0000     -88.965803     -2420.8826
   1   2.0000     -88.959465     -2420.7101
   2   2.0000     -10.325534      -280.9721
   3   2.0000     -10.325193      -280.9628
   4   2.0000     -10.317199      -280.7452
   5   2.0000     -10.308702      -280.5140
   6   2.0000     -10.305112      -280.4163
   7   2.0000     -10.302656      -280.3495
   8   2.0000     -10.295040      -280.1423
   9   2.0000     -10.289645      -279.9955
  10   2.0000     -10.287745      -279.9438
  11   2.0000     -10.287491      -279.9369
  12   2.0000     -10.287153      -279.9277
  13   2.0000     -10.285755      -279.8896
  14   2.0000     -10.280813      -279.7552
  15   2.0000     -10.279357      -279.7155
  16   2.0000      -8.079765      -219.8616
  17   2.0000      -8.074608      -219.7212
  18   2.0000      -6.038394      -164.3131
  19   2.0000      -6.034615      -164.2102
  20   2.0000      -6.033115      -164.1694
  21   2.0000      -6.030209      -164.0903
  22   2.0000      -6.029061      -164.0591
  23   2.0000      -6.025334      -163.9577
  24   2.0000      -1.008329       -27.4380
  25   2.0000      -0.985766       -26.8241
  26   2.0000      -0.913849       -24.8671
  27   2.0000      -0.901509       -24.5313
  28   2.0000      -0.872334       -23.7374
  29   2.0000      -0.853031       -23.2121
  30   2.0000      -0.841581       -22.9006
  31   2.0000      -0.818089       -22.2613
  32   2.0000      -0.780975       -21.2514
  33   2.0000      -0.770231       -20.9591
  34   2.0000      -0.719412       -19.5762
  35   2.0000      -0.708249       -19.2724
  36   2.0000      -0.697785       -18.9877
  37   2.0000      -0.658725       -17.9248
  38   2.0000      -0.642751       -17.4902
  39   2.0000      -0.622415       -16.9368
  40   2.0000      -0.593077       -16.1385
  41   2.0000      -0.567032       -15.4297
  42   2.0000      -0.561216       -15.2715
  43   2.0000      -0.550859       -14.9896
  44   2.0000      -0.529442       -14.4068
  45   2.0000      -0.526720       -14.3328
  46   2.0000      -0.516298       -14.0492
  47   2.0000      -0.508858       -13.8467
  48   2.0000      -0.505358       -13.7515
  49   2.0000      -0.503012       -13.6877
  50   2.0000      -0.490989       -13.3605
  51   2.0000      -0.482946       -13.1416
  52   2.0000      -0.468471       -12.7477
  53   2.0000      -0.463532       -12.6133
  54   2.0000      -0.458260       -12.4699
  55   2.0000      -0.451945       -12.2980
  56   2.0000      -0.449740       -12.2380
  57   2.0000      -0.444589       -12.0979
  58   2.0000      -0.439845       -11.9688
  59   2.0000      -0.427935       -11.6447
  60   2.0000      -0.424511       -11.5515
  61   2.0000      -0.410724       -11.1764
  62   2.0000      -0.405382       -11.0310
  63   2.0000      -0.345438        -9.3998
  64   2.0000      -0.331732        -9.0269
  65   2.0000      -0.328247        -8.9321
  66   2.0000      -0.294402        -8.0111
  67   0.0000       0.029512         0.8031
  68   0.0000       0.075504         2.0546
  69   0.0000       0.105346         2.8666
  70   0.0000       0.124064         3.3759
  71   0.0000       0.134242         3.6529

MULLIKEN ATOMIC CHARGES
-----------------------
   0 S :    0.099085
   1 C :   -0.106302
   2 C :   -0.116314
   3 C :    0.029363
   4 C :   -0.135379
   5 H :    0.001209
   6 C :    0.104760
   7 H :    0.009963
   8 H :    0.045517
   9 C :   -0.110624
  10 H :    0.023876
  11 H :    0.025419
  12 C :   -0.023022
  13 H :    0.033648
  14 H :    0.031915
  15 H :    0.034528
  16 S :    0.100358
  17 C :   -0.071651
  18 C :   -0.051010
  19 C :   -0.005075
  20 C :   -0.174121
  21 H :    0.026834
  22 C :    0.015741
  23 H :    0.039304
  24 H :    0.036028
  25 C :    0.004175
  26 H :    0.015660
  27 H :    0.008695
  28 C :   -0.067385
  29 H :    0.018972
  30 H :    0.045319
  31 H :    0.027187
  32 H :    0.033548
  33 H :    0.049778
Sum of atomic charges:    0.0000000

LOEWDIN ATOMIC CHARGES
----------------------
   0 S :    0.398189
   1 C :   -0.201892
   2 C :   -0.070472
   3 C :   -0.061355
   4 C :   -0.183502
   5 H :    0.024186
   6 C :   -0.024974
   7 H :    0.026807
   8 H :    0.035507
   9 C :   -0.037891
  10 H :    0.020310
  11 H :    0.021447
  12 C :   -0.059659
  13 H :    0.027446
  14 H :    0.023530
  15 H :    0.021879
  16 S :    0.369776
  17 C :   -0.172096
  18 C :   -0.076044
  19 C :   -0.050007
  20 C :   -0.184902
  21 H :    0.036069
  22 C :   -0.037403
  23 H :    0.036440
  24 H :    0.041179
  25 C :   -0.031746
  26 H :    0.027887
  27 H :    0.011344
  28 C :   -0.067114
  29 H :    0.022312
  30 H :    0.033970
  31 H :    0.022450
  32 H :    0.027412
  33 H :    0.030918

  Mayer bond orders larger than 0.100000
B(  0-S ,  1-C ) :   1.1211 B(  0-S ,  4-C ) :   1.1519 B(  1-C ,  2-C ) :   1.6491
B(  1-C , 32-H ) :   0.9645 B(  2-C ,  3-C ) :   1.2252 B(  2-C ,  6-C ) :   1.0137
B(  3-C ,  4-C ) :   1.5735 B(  3-C ,  5-H ) :   1.0061 B(  4-C , 20-C ) :   1.0461
B(  6-C ,  7-H ) :   0.9366 B(  6-C ,  8-H ) :   0.9394 B(  6-C ,  9-C ) :   1.0528
B(  9-C , 10-H ) :   0.9598 B(  9-C , 11-H ) :   0.9595 B(  9-C , 12-C ) :   1.0659
B( 12-C , 13-H ) :   0.9786 B( 12-C , 14-H ) :   0.9776 B( 12-C , 15-H ) :   0.9784
B( 16-S , 17-C ) :   1.1217 B( 16-S , 20-C ) :   1.1062 B( 17-C , 18-C ) :   1.6899
B( 17-C , 33-H ) :   0.9614 B( 18-C , 19-C ) :   1.1834 B( 18-C , 21-H ) :   0.9791
B( 19-C , 20-C ) :   1.6464 B( 19-C , 22-C ) :   1.0207 B( 22-C , 23-H ) :   0.9414
B( 22-C , 24-H ) :   0.9343 B( 22-C , 25-C ) :   1.0513 B( 25-C , 26-H ) :   0.9485
B( 25-C , 27-H ) :   0.9569 B( 25-C , 28-C ) :   1.0797 B( 28-C , 29-H ) :   0.9761
B( 28-C , 30-H ) :   0.9745 B( 28-C , 31-H ) :   0.9760

Dispersion correction           -0.013907201
FINAL SINGLE POINT ENERGY     -1339.868452444227

DIPOLE MOMENT
-------------
                                X             Y             Z
Electronic contribution:     23.29180      21.55546      -2.35700
Nuclear contribution   :    -23.66973     -22.16229       2.24509
                        -----------------------------------------
Total Dipole Moment    :     -0.37793      -0.60683      -0.11192
                        -----------------------------------------
Magnitude (a.u.)       :      0.72360
Magnitude (Debye)      :      1.83923

Rotational constants in cm-1:     0.016847     0.009196     0.006765
Rotational constants in MHz :   505.062519   275.695547   202.820395

                             ****ORCA TERMINATED NORMALLY****
TOTAL RUN TIME: 0 days 0 hours 0 minutes 34 seconds 815 msec
