                         Program Version 4.2.1 -  RELEASE  -
|  1> ! wB97X-D3 SP def2-SVP
|  2> %pal
|  3> nprocs 16
|  4> end
|  5>
|  6> * xyz 0 1
|  7> S 	 -38.5789 	 64.8931 	 145.468
|  8> C 	 -38.4538 	 64.8069 	 143.755
|  9> C 	 -39.4416 	 65.6253 	 143.189
| 10> C 	 -40.3737 	 66.0165 	 144.214
| 11> C 	 -40.1023 	 65.6718 	 145.475
| 12> H 	 -41.2954 	 66.5462 	 144.094
| 13> C 	 -39.6203 	 66.003 	 141.686
| 14> H 	 -40.4386 	 65.5552 	 141.262
| 15> H 	 -38.7891 	 65.3592 	 141.296
| 16> C 	 -39.3811 	 67.4275 	 141.162
| 17> H 	 -38.5966 	 67.8873 	 141.837
| 18> H 	 -39.0596 	 67.476 	 140.137
| 19> C 	 -40.6768 	 68.1932 	 141.29
| 20> H 	 -41.095 	 68.3652 	 142.3
| 21> H 	 -40.5884 	 69.1244 	 140.752
| 22> H 	 -41.4649 	 67.7 	 140.727
| 23> S 	 -41.5909 	 64.7838 	 147.554
| 24> C 	 -42.2903 	 65.9108 	 148.669
| 25> C 	 -41.6793 	 67.1289 	 148.588
| 26> C 	 -40.9364 	 67.3073 	 147.381
| 27> C 	 -40.7755 	 66.0796 	 146.678
| 28> H 	 -42.0026 	 67.9798 	 149.148
| 29> C 	 -40.3399 	 68.6111 	 147.031
| 30> H 	 -40.9485 	 69.4036 	 147.461
| 31> H 	 -40.3939 	 68.7753 	 145.952
| 32> C 	 -38.872 	 68.868 	 147.39
| 33> H 	 -38.2821 	 68.1964 	 146.747
| 34> H 	 -38.6124 	 68.5886 	 148.459
| 35> C 	 -38.541 	 70.2931 	 147.087
| 36> H 	 -38.4113 	 70.3303 	 145.993
| 37> H 	 -37.6092 	 70.7131 	 147.491
| 38> H 	 -39.2932 	 71.0259 	 147.288
| 39> H 	 -37.6205 	 64.3298 	 143.25
| 40> H 	 -43.0504 	 65.6224 	 149.446
| 41> *
| 42>
| 43>                          ****END OF INPUT****

CARTESIAN COORDINATES (ANGSTROEM)
---------------------------------
  S    -38.578900   64.893100  145.468000
  C    -38.453800   64.806900  143.755000
  C    -39.441600   65.625300  143.189000
  C    -40.373700   66.016500  144.214000
  C    -40.102300   65.671800  145.475000
  H    -41.295400   66.546200  144.094000
  C    -39.620300   66.003000  141.686000
  H    -40.438600   65.555200  141.262000
  H    -38.789100   65.359200  141.296000
  C    -39.381100   67.427500  141.162000
  H    -38.596600   67.887300  141.837000
  H    -39.059600   67.476000  140.137000
  C    -40.676800   68.193200  141.290000
  H    -41.095000   68.365200  142.300000
  H    -40.588400   69.124400  140.752000
  H    -41.464900   67.700000  140.727000
  S    -41.590900   64.783800  147.554000
  C    -42.290300   65.910800  148.669000
  C    -41.679300   67.128900  148.588000
  C    -40.936400   67.307300  147.381000
  C    -40.775500   66.079600  146.678000
  H    -42.002600   67.979800  149.148000
  C    -40.339900   68.611100  147.031000
  H    -40.948500   69.403600  147.461000
  H    -40.393900   68.775300  145.952000
  C    -38.872000   68.868000  147.390000
  H    -38.282100   68.196400  146.747000
  H    -38.612400   68.588600  148.459000
  C    -38.541000   70.293100  147.087000
  H    -38.411300   70.330300  145.993000
  H    -37.609200   70.713100  147.491000
  H    -39.293200   71.025900  147.288000
  H    -37.620500   64.329800  143.250000
  H    -43.050400   65.622400  149.446000

 Total Charge           Charge          ....    0
 Multiplicity           Mult            ....    1
 Number of Electrons    NEL             ....  134
 Basis Dimension        Dim             ....  322

ORBITAL ENERGIES
----------------

  NO   OCC          E(Eh)            E(eV)
   0   2.0000     -88.964098     -2420.8362
   1   2.0000     -88.960556     -2420.7398
   2   2.0000     -10.327318      -281.0206
   3   2.0000     -10.321284      -280.8564
   4   2.0000     -10.317848      -280.7629
   5   2.0000     -10.317593      -280.7560
   6   2.0000     -10.308410      -280.5061
   7   2.0000     -10.307023      -280.4683
   8   2.0000     -10.291614      -280.0491
   9   2.0000     -10.290406      -280.0162
  10   2.0000     -10.289508      -279.9917
  11   2.0000     -10.288135      -279.9544
  12   2.0000     -10.287654      -279.9413
  13   2.0000     -10.284164      -279.8463
  14   2.0000     -10.274686      -279.5884
  15   2.0000     -10.273955      -279.5685
  16   2.0000      -8.079170      -219.8454
  17   2.0000      -8.076794      -219.7807
  18   2.0000      -6.037539      -164.2898
  19   2.0000      -6.035195      -164.2260
  20   2.0000      -6.033580      -164.1821
  21   2.0000      -6.031049      -164.1132
  22   2.0000      -6.030098      -164.0873
  23   2.0000      -6.027580      -164.0188
  24   2.0000      -1.013680       -27.5836
  25   2.0000      -0.988929       -26.9101
  26   2.0000      -0.915926       -24.9236
  27   2.0000      -0.911710       -24.8089
  28   2.0000      -0.875843       -23.8329
  29   2.0000      -0.854905       -23.2631
  30   2.0000      -0.845131       -22.9972
  31   2.0000      -0.818389       -22.2695
  32   2.0000      -0.783664       -21.3246
  33   2.0000      -0.768987       -20.9252
  34   2.0000      -0.706416       -19.2226
  35   2.0000      -0.699994       -19.0478
  36   2.0000      -0.690423       -18.7874
  37   2.0000      -0.662164       -18.0184
  38   2.0000      -0.651689       -17.7333
  39   2.0000      -0.617167       -16.7940
  40   2.0000      -0.600961       -16.3530
  41   2.0000      -0.575260       -15.6536
  42   2.0000      -0.565138       -15.3782
  43   2.0000      -0.554227       -15.0813
  44   2.0000      -0.538552       -14.6547
  45   2.0000      -0.523068       -14.2334
  46   2.0000      -0.519222       -14.1288
  47   2.0000      -0.513310       -13.9679
  48   2.0000      -0.506079       -13.7711
  49   2.0000      -0.502626       -13.6771
  50   2.0000      -0.488087       -13.2815
  51   2.0000      -0.484426       -13.1819
  52   2.0000      -0.473321       -12.8797
  53   2.0000      -0.466265       -12.6877
  54   2.0000      -0.456524       -12.4226
  55   2.0000      -0.454434       -12.3658
  56   2.0000      -0.441669       -12.0184
  57   2.0000      -0.436419       -11.8756
  58   2.0000      -0.429958       -11.6998
  59   2.0000      -0.423852       -11.5336
  60   2.0000      -0.419068       -11.4034
  61   2.0000      -0.411175       -11.1886
  62   2.0000      -0.407438       -11.0869
  63   2.0000      -0.339192        -9.2299
  64   2.0000      -0.328161        -8.9297
  65   2.0000      -0.326806        -8.8928
  66   2.0000      -0.304641        -8.2897
  67   0.0000       0.039613         1.0779
  68   0.0000       0.057289         1.5589
  69   0.0000       0.117959         3.2098
  70   0.0000       0.121079         3.2947
  71   0.0000       0.125111         3.4045

MULLIKEN ATOMIC CHARGES
-----------------------
   0 S :    0.111353
   1 C :   -0.122838
   2 C :   -0.098086
   3 C :    0.037855
   4 C :   -0.142807
   5 H :   -0.003466
   6 C :    0.072982
   7 H :    0.013528
   8 H :    0.008461
   9 C :   -0.038600
  10 H :    0.040501
  11 H :    0.035182
  12 C :   -0.059002
  13 H :    0.042329
  14 H :    0.022978
  15 H :    0.015614
  16 S :    0.110191
  17 C :   -0.106814
  18 C :   -0.010022
  19 C :   -0.020391
  20 C :   -0.186476
  21 H :    0.015847
  22 C :    0.042640
  23 H :    0.010263
  24 H :    0.019550
  25 C :   -0.059323
  26 H :    0.033921
  27 H :    0.035599
  28 C :   -0.035763
  29 H :    0.021950
  30 H :    0.035190
  31 H :    0.020275
  32 H :    0.057684
  33 H :    0.079697
Sum of atomic charges:   -0.0000000

LOEWDIN ATOMIC CHARGES
----------------------
   0 S :    0.430493
   1 C :   -0.201975
   2 C :   -0.061518
   3 C :   -0.066822
   4 C :   -0.223027
   5 H :    0.026640
   6 C :   -0.030993
   7 H :    0.015875
   8 H :    0.035079
   9 C :   -0.036725
  10 H :    0.034231
  11 H :    0.027330
  12 C :   -0.071445
  13 H :    0.027366
  14 H :    0.022717
  15 H :    0.022038
  16 S :    0.414784
  17 C :   -0.187530
  18 C :   -0.075855
  19 C :   -0.043899
  20 C :   -0.202337
  21 H :    0.028511
  22 C :   -0.037131
  23 H :    0.026825
  24 H :    0.033696
  25 C :   -0.039474
  26 H :    0.026974
  27 H :    0.026401
  28 C :   -0.070600
  29 H :    0.029890
  30 H :    0.028612
  31 H :    0.019376
  32 H :    0.030730
  33 H :    0.041766

  Mayer bond orders larger than 0.100000
B(  0-S ,  1-C ) :   1.1656 B(  0-S ,  4-C ) :   1.1486 B(  1-C ,  2-C ) :   1.5843
B(  1-C , 32-H ) :   0.9692 B(  2-C ,  3-C ) :   1.2274 B(  2-C ,  6-C ) :   1.0153
B(  3-C ,  4-C ) :   1.6125 B(  3-C ,  5-H ) :   1.0023 B(  4-C , 20-C ) :   1.0127
B(  6-C ,  7-H ) :   0.9475 B(  6-C ,  8-H ) :   0.9324 B(  6-C ,  9-C ) :   1.0611
B(  9-C , 10-H ) :   0.9529 B(  9-C , 11-H ) :   0.9539 B(  9-C , 12-C ) :   1.0877
B( 12-C , 13-H ) :   0.9741 B( 12-C , 14-H ) :   0.9698 B( 12-C , 15-H ) :   0.9726
B( 16-S , 17-C ) :   1.1748 B( 16-S , 20-C ) :   1.1473 B( 17-C , 18-C ) :   1.5933
B( 17-C , 20-C ) :   0.1071 B( 17-C , 33-H ) :   0.9603 B( 18-C , 19-C ) :   1.2651
B( 18-C , 21-H ) :   0.9805 B( 19-C , 20-C ) :   1.5666 B( 19-C , 22-C ) :   1.0671
B( 22-C , 23-H ) :   0.9273 B( 22-C , 24-H ) :   0.9284 B( 22-C , 25-C ) :   1.0595
B( 25-C , 26-H ) :   0.9541 B( 25-C , 27-H ) :   0.9576 B( 25-C , 28-C ) :   1.0727
B( 28-C , 29-H ) :   0.9718 B( 28-C , 30-H ) :   0.9727 B( 28-C , 31-H ) :   0.9754

Dispersion correction           -0.014306051
FINAL SINGLE POINT ENERGY     -1339.866530966045

DIPOLE MOMENT
-------------
                                X             Y             Z
Electronic contribution:     -3.77957     -23.67881      14.70618
Nuclear contribution   :      3.69973      24.26448     -15.03647
                        -----------------------------------------
Total Dipole Moment    :     -0.07985       0.58567      -0.33029
                        -----------------------------------------
Magnitude (a.u.)       :      0.67711
Magnitude (Debye)      :      1.72108

Rotational constants in cm-1:     0.016882     0.009197     0.007499
Rotational constants in MHz :   506.120758   275.717401   224.827652

                             ****ORCA TERMINATED NORMALLY****
TOTAL RUN TIME: 0 days 0 hours 0 minutes 34 seconds 977 msec
