                         Program Version 4.2.1 -  RELEASE  -
|  1> ! wB97X-D3 SP def2-SVP
|  2> %pal
|  3> nprocs 16
|  4> end
|  5>
|  6> * xyz 0 1
|  7> S 	 -101.759 	 47.778 	 125.154
|  8> C 	 -103.093 	 46.7302 	 125.674
|  9> C 	 -103.738 	 46.0114 	 124.679
| 10> C 	 -102.957 	 46.1953 	 123.497
| 11> C 	 -101.857 	 47.0716 	 123.538
| 12> H 	 -103.206 	 45.7146 	 122.564
| 13> C 	 -105.067 	 45.239 	 124.934
| 14> H 	 -105.21 	 45.229 	 126.008
| 15> H 	 -104.879 	 44.1648 	 124.563
| 16> C 	 -106.265 	 45.8789 	 124.202
| 17> H 	 -106.281 	 46.9452 	 124.504
| 18> H 	 -106.183 	 45.8346 	 123.075
| 19> C 	 -107.565 	 45.1654 	 124.66
| 20> H 	 -107.92 	 44.5143 	 123.908
| 21> H 	 -107.454 	 44.5224 	 125.559
| 22> H 	 -108.446 	 45.8015 	 124.849
| 23> S 	 -100.377 	 48.97 	 122.43
| 24> C 	 -99.4394 	 48.6218 	 121.023
| 25> C 	 -99.5519 	 47.2908 	 120.617
| 26> C 	 -100.421 	 46.5343 	 121.471
| 27> C 	 -100.924 	 47.366 	 122.477
| 28> H 	 -99.1339 	 46.8828 	 119.755
| 29> C 	 -100.789 	 45.0729 	 121.184
| 30> H 	 -101.498 	 44.5429 	 121.787
| 31> H 	 -99.8101 	 44.5656 	 121.462
| 32> C 	 -101.002 	 44.7955 	 119.652
| 33> H 	 -100.964 	 43.7123 	 119.518
| 34> H 	 -100.078 	 44.9807 	 119.091
| 35> C 	 -102.288 	 45.4417 	 119.065
| 36> H 	 -103.171 	 45.2323 	 119.699
| 37> H 	 -102.401 	 44.9619 	 118.098
| 38> H 	 -102.081 	 46.4585 	 119.028
| 39> H 	 -103.41 	 46.7569 	 126.673
| 40> H 	 -98.7775 	 49.3357 	 120.53
| 41> *
| 42>
| 43>                          ****END OF INPUT****

CARTESIAN COORDINATES (ANGSTROEM)
---------------------------------
  S    -101.759000   47.778000  125.154000
  C    -103.093000   46.730200  125.674000
  C    -103.738000   46.011400  124.679000
  C    -102.957000   46.195300  123.497000
  C    -101.857000   47.071600  123.538000
  H    -103.206000   45.714600  122.564000
  C    -105.067000   45.239000  124.934000
  H    -105.210000   45.229000  126.008000
  H    -104.879000   44.164800  124.563000
  C    -106.265000   45.878900  124.202000
  H    -106.281000   46.945200  124.504000
  H    -106.183000   45.834600  123.075000
  C    -107.565000   45.165400  124.660000
  H    -107.920000   44.514300  123.908000
  H    -107.454000   44.522400  125.559000
  H    -108.446000   45.801500  124.849000
  S    -100.377000   48.970000  122.430000
  C    -99.439400   48.621800  121.023000
  C    -99.551900   47.290800  120.617000
  C    -100.421000   46.534300  121.471000
  C    -100.924000   47.366000  122.477000
  H    -99.133900   46.882800  119.755000
  C    -100.789000   45.072900  121.184000
  H    -101.498000   44.542900  121.787000
  H    -99.810100   44.565600  121.462000
  C    -101.002000   44.795500  119.652000
  H    -100.964000   43.712300  119.518000
  H    -100.078000   44.980700  119.091000
  C    -102.288000   45.441700  119.065000
  H    -103.171000   45.232300  119.699000
  H    -102.401000   44.961900  118.098000
  H    -102.081000   46.458500  119.028000
  H    -103.410000   46.756900  126.673000
  H    -98.777500   49.335700  120.530000

 Total Charge           Charge          ....    0
 Multiplicity           Mult            ....    1
 Number of Electrons    NEL             ....  134
 Basis Dimension        Dim             ....  322

ORBITAL ENERGIES
----------------

  NO   OCC          E(Eh)            E(eV)
   0   2.0000     -88.967869     -2420.9388
   1   2.0000     -88.965189     -2420.8659
   2   2.0000     -10.327815      -281.0341
   3   2.0000     -10.319646      -280.8118
   4   2.0000     -10.316690      -280.7314
   5   2.0000     -10.308989      -280.5219
   6   2.0000     -10.308053      -280.4964
   7   2.0000     -10.305012      -280.4136
   8   2.0000     -10.303036      -280.3599
   9   2.0000     -10.298593      -280.2390
  10   2.0000     -10.298492      -280.2362
  11   2.0000     -10.292203      -280.0651
  12   2.0000     -10.292019      -280.0601
  13   2.0000     -10.291256      -280.0393
  14   2.0000     -10.279213      -279.7116
  15   2.0000     -10.276840      -279.6470
  16   2.0000      -8.083968      -219.9760
  17   2.0000      -8.079321      -219.8495
  18   2.0000      -6.042265      -164.4184
  19   2.0000      -6.038352      -164.3119
  20   2.0000      -6.037854      -164.2984
  21   2.0000      -6.034821      -164.2158
  22   2.0000      -6.034052      -164.1949
  23   2.0000      -6.029981      -164.0841
  24   2.0000      -1.009375       -27.4665
  25   2.0000      -0.979570       -26.6554
  26   2.0000      -0.908523       -24.7222
  27   2.0000      -0.905426       -24.6379
  28   2.0000      -0.868117       -23.6227
  29   2.0000      -0.851090       -23.1593
  30   2.0000      -0.841474       -22.8977
  31   2.0000      -0.808964       -22.0130
  32   2.0000      -0.785395       -21.3717
  33   2.0000      -0.771648       -20.9976
  34   2.0000      -0.709838       -19.3157
  35   2.0000      -0.699322       -19.0295
  36   2.0000      -0.692000       -18.8303
  37   2.0000      -0.664180       -18.0733
  38   2.0000      -0.638410       -17.3720
  39   2.0000      -0.620146       -16.8750
  40   2.0000      -0.599857       -16.3229
  41   2.0000      -0.564483       -15.3604
  42   2.0000      -0.557877       -15.1806
  43   2.0000      -0.550945       -14.9920
  44   2.0000      -0.537748       -14.6329
  45   2.0000      -0.522891       -14.2286
  46   2.0000      -0.511649       -13.9227
  47   2.0000      -0.506771       -13.7899
  48   2.0000      -0.503629       -13.7044
  49   2.0000      -0.496190       -13.5020
  50   2.0000      -0.492354       -13.3976
  51   2.0000      -0.479740       -13.0544
  52   2.0000      -0.471086       -12.8189
  53   2.0000      -0.463536       -12.6135
  54   2.0000      -0.459333       -12.4991
  55   2.0000      -0.452927       -12.3248
  56   2.0000      -0.447367       -12.1735
  57   2.0000      -0.442308       -12.0358
  58   2.0000      -0.429643       -11.6912
  59   2.0000      -0.426852       -11.6152
  60   2.0000      -0.421737       -11.4760
  61   2.0000      -0.418637       -11.3917
  62   2.0000      -0.415119       -11.2960
  63   2.0000      -0.351271        -9.5586
  64   2.0000      -0.332657        -9.0521
  65   2.0000      -0.328866        -8.9489
  66   2.0000      -0.278112        -7.5678
  67   0.0000       0.028321         0.7706
  68   0.0000       0.075873         2.0646
  69   0.0000       0.103281         2.8104
  70   0.0000       0.121506         3.3063
  71   0.0000       0.130286         3.5453

MULLIKEN ATOMIC CHARGES
-----------------------
   0 S :    0.100030
   1 C :   -0.123461
   2 C :   -0.065205
   3 C :   -0.007013
   4 C :   -0.123956
   5 H :   -0.008308
   6 C :    0.056482
   7 H :    0.026582
   8 H :    0.048403
   9 C :   -0.092987
  10 H :    0.045638
  11 H :    0.051228
  12 C :   -0.047590
  13 H :    0.022083
  14 H :    0.033189
  15 H :    0.036072
  16 S :    0.122955
  17 C :   -0.086944
  18 C :   -0.010995
  19 C :   -0.038056
  20 C :   -0.161953
  21 H :   -0.011858
  22 C :    0.049305
  23 H :    0.027017
  24 H :    0.040687
  25 C :   -0.115164
  26 H :    0.015342
  27 H :    0.020620
  28 C :    0.000941
  29 H :    0.037993
  30 H :    0.038672
  31 H :    0.037088
  32 H :    0.024415
  33 H :    0.058746
Sum of atomic charges:   -0.0000000

LOEWDIN ATOMIC CHARGES
----------------------
   0 S :    0.380273
   1 C :   -0.180063
   2 C :   -0.062057
   3 C :   -0.067517
   4 C :   -0.190407
   5 H :    0.020470
   6 C :   -0.025592
   7 H :    0.029515
   8 H :    0.039152
   9 C :   -0.043799
  10 H :    0.030698
  11 H :    0.033391
  12 C :   -0.074153
  13 H :    0.020709
  14 H :    0.028546
  15 H :    0.029980
  16 S :    0.442179
  17 C :   -0.196435
  18 C :   -0.059434
  19 C :   -0.054659
  20 C :   -0.219265
  21 H :    0.018638
  22 C :   -0.033819
  23 H :    0.025159
  24 H :    0.045906
  25 C :   -0.045786
  26 H :    0.021380
  27 H :    0.021531
  28 C :   -0.054087
  29 H :    0.029735
  30 H :    0.029890
  31 H :    0.019897
  32 H :    0.009951
  33 H :    0.030072

  Mayer bond orders larger than 0.100000
B(  0-S ,  1-C ) :   1.1413 B(  0-S ,  4-C ) :   1.1318 B(  1-C ,  2-C ) :   1.6103
B(  1-C ,  4-C ) :   0.1025 B(  1-C , 32-H ) :   0.9681 B(  2-C ,  3-C ) :   1.2464
B(  2-C ,  6-C ) :   1.0143 B(  3-C ,  4-C ) :   1.5706 B(  3-C ,  5-H ) :   0.9935
B(  4-C , 20-C ) :   1.0662 B(  6-C ,  7-H ) :   0.9421 B(  6-C ,  8-H ) :   0.9384
B(  6-C ,  9-C ) :   1.0606 B(  9-C , 10-H ) :   0.9603 B(  9-C , 11-H ) :   0.9614
B(  9-C , 12-C ) :   1.0580 B( 12-C , 13-H ) :   0.9762 B( 12-C , 14-H ) :   0.9770
B( 12-C , 15-H ) :   0.9772 B( 16-S , 17-C ) :   1.1610 B( 16-S , 20-C ) :   1.1629
B( 17-C , 18-C ) :   1.5818 B( 17-C , 33-H ) :   0.9684 B( 18-C , 19-C ) :   1.2622
B( 18-C , 21-H ) :   0.9964 B( 19-C , 20-C ) :   1.5638 B( 19-C , 22-C ) :   1.0178
B( 22-C , 23-H ) :   0.9515 B( 22-C , 24-H ) :   0.9231 B( 22-C , 25-C ) :   1.0867
B( 25-C , 26-H ) :   0.9524 B( 25-C , 27-H ) :   0.9493 B( 25-C , 28-C ) :   1.0529
B( 28-C , 29-H ) :   0.9750 B( 28-C , 30-H ) :   0.9736 B( 28-C , 31-H ) :   0.9771

Dispersion correction           -0.014095770
FINAL SINGLE POINT ENERGY     -1339.871455559300

DIPOLE MOMENT
-------------
                                X             Y             Z
Electronic contribution:     19.77558      19.40682      10.37940
Nuclear contribution   :    -20.13105     -19.95151     -10.76080
                        -----------------------------------------
Total Dipole Moment    :     -0.35548      -0.54470      -0.38140
                        -----------------------------------------
Magnitude (a.u.)       :      0.75401
Magnitude (Debye)      :      1.91653

Rotational constants in cm-1:     0.018652     0.008473     0.006403
Rotational constants in MHz :   559.181006   254.021321   191.960933

                             ****ORCA TERMINATED NORMALLY****
TOTAL RUN TIME: 0 days 0 hours 0 minutes 32 seconds 634 msec
