                         Program Version 4.2.1 -  RELEASE  -
|  1> ! wB97X-D3 SP def2-SVP
|  2> %pal
|  3> nprocs 16
|  4> end
|  5>
|  6> * xyz 0 1
|  7> S 	 33.7766 	 25.5715 	 82.93
|  8> C 	 33.9576 	 27.0677 	 83.7756
|  9> C 	 35.1823 	 27.2532 	 84.4321
| 10> C 	 35.9512 	 26.0247 	 84.3439
| 11> C 	 35.4062 	 25.1101 	 83.407
| 12> H 	 36.8975 	 25.8092 	 84.8697
| 13> C 	 35.7586 	 28.5947 	 84.9279
| 14> H 	 36.0074 	 28.4016 	 85.9989
| 15> H 	 35.0083 	 29.4009 	 84.8249
| 16> C 	 37.0678 	 29.0305 	 84.2214
| 17> H 	 37.8551 	 28.3095 	 84.5936
| 18> H 	 36.9572 	 29.0247 	 83.1894
| 19> C 	 37.5577 	 30.4117 	 84.7251
| 20> H 	 38.5146 	 30.6713 	 84.308
| 21> H 	 36.8785 	 31.283 	 84.533
| 22> H 	 37.7579 	 30.3321 	 85.785
| 23> S 	 34.984 	 22.4317 	 82.6562
| 24> C 	 36.3056 	 21.5892 	 81.9465
| 25> C 	 37.4112 	 22.3712 	 81.8214
| 26> C 	 37.3244 	 23.6146 	 82.4846
| 27> C 	 36.0239 	 23.8394 	 82.9874
| 28> H 	 38.2822 	 22.052 	 81.2987
| 29> C 	 38.4406 	 24.6545 	 82.4949
| 30> H 	 37.9953 	 25.6174 	 82.2654
| 31> H 	 39.1817 	 24.4577 	 81.6896
| 32> C 	 39.1132 	 24.6231 	 83.8809
| 33> H 	 38.4116 	 24.4126 	 84.7549
| 34> H 	 39.5673 	 25.635 	 84.1541
| 35> C 	 40.2235 	 23.6021 	 83.904
| 36> H 	 39.9296 	 22.6436 	 83.4979
| 37> H 	 40.6132 	 23.4701 	 84.9474
| 38> H 	 41.0614 	 24.1244 	 83.3611
| 39> H 	 33.3657 	 27.9367 	 83.6275
| 40> H 	 36.3152 	 20.5681 	 81.6217
| 41> *
| 42>
| 43>                          ****END OF INPUT****

CARTESIAN COORDINATES (ANGSTROEM)
---------------------------------
  S     33.776600   25.571500   82.930000
  C     33.957600   27.067700   83.775600
  C     35.182300   27.253200   84.432100
  C     35.951200   26.024700   84.343900
  C     35.406200   25.110100   83.407000
  H     36.897500   25.809200   84.869700
  C     35.758600   28.594700   84.927900
  H     36.007400   28.401600   85.998900
  H     35.008300   29.400900   84.824900
  C     37.067800   29.030500   84.221400
  H     37.855100   28.309500   84.593600
  H     36.957200   29.024700   83.189400
  C     37.557700   30.411700   84.725100
  H     38.514600   30.671300   84.308000
  H     36.878500   31.283000   84.533000
  H     37.757900   30.332100   85.785000
  S     34.984000   22.431700   82.656200
  C     36.305600   21.589200   81.946500
  C     37.411200   22.371200   81.821400
  C     37.324400   23.614600   82.484600
  C     36.023900   23.839400   82.987400
  H     38.282200   22.052000   81.298700
  C     38.440600   24.654500   82.494900
  H     37.995300   25.617400   82.265400
  H     39.181700   24.457700   81.689600
  C     39.113200   24.623100   83.880900
  H     38.411600   24.412600   84.754900
  H     39.567300   25.635000   84.154100
  C     40.223500   23.602100   83.904000
  H     39.929600   22.643600   83.497900
  H     40.613200   23.470100   84.947400
  H     41.061400   24.124400   83.361100
  H     33.365700   27.936700   83.627500
  H     36.315200   20.568100   81.621700

 Total Charge           Charge          ....    0
 Multiplicity           Mult            ....    1
 Number of Electrons    NEL             ....  134
 Basis Dimension        Dim             ....  322

ORBITAL ENERGIES
----------------

  NO   OCC          E(Eh)            E(eV)
   0   2.0000     -88.970424     -2421.0083
   1   2.0000     -88.967937     -2420.9406
   2   2.0000     -10.334834      -281.2251
   3   2.0000     -10.329982      -281.0931
   4   2.0000     -10.312982      -280.6305
   5   2.0000     -10.308292      -280.5029
   6   2.0000     -10.305306      -280.4216
   7   2.0000     -10.304759      -280.4068
   8   2.0000     -10.302098      -280.3343
   9   2.0000     -10.299411      -280.2612
  10   2.0000     -10.295990      -280.1681
  11   2.0000     -10.295709      -280.1605
  12   2.0000     -10.291305      -280.0406
  13   2.0000     -10.288364      -279.9606
  14   2.0000     -10.282077      -279.7895
  15   2.0000     -10.281847      -279.7833
  16   2.0000      -8.084946      -220.0026
  17   2.0000      -8.082616      -219.9392
  18   2.0000      -6.043476      -164.4513
  19   2.0000      -6.041131      -164.3875
  20   2.0000      -6.039603      -164.3459
  21   2.0000      -6.037127      -164.2786
  22   2.0000      -6.035588      -164.2367
  23   2.0000      -6.033392      -164.1769
  24   2.0000      -1.004136       -27.3239
  25   2.0000      -0.982262       -26.7287
  26   2.0000      -0.913044       -24.8452
  27   2.0000      -0.908703       -24.7271
  28   2.0000      -0.866305       -23.5734
  29   2.0000      -0.852110       -23.1871
  30   2.0000      -0.845423       -23.0051
  31   2.0000      -0.810605       -22.0577
  32   2.0000      -0.782087       -21.2817
  33   2.0000      -0.769630       -20.9427
  34   2.0000      -0.705605       -19.2005
  35   2.0000      -0.696927       -18.9644
  36   2.0000      -0.685871       -18.6635
  37   2.0000      -0.660874       -17.9833
  38   2.0000      -0.635130       -17.2828
  39   2.0000      -0.615371       -16.7451
  40   2.0000      -0.598321       -16.2811
  41   2.0000      -0.575633       -15.6638
  42   2.0000      -0.560984       -15.2651
  43   2.0000      -0.557927       -15.1820
  44   2.0000      -0.545641       -14.8477
  45   2.0000      -0.520004       -14.1500
  46   2.0000      -0.515026       -14.0146
  47   2.0000      -0.507037       -13.7972
  48   2.0000      -0.497837       -13.5468
  49   2.0000      -0.494801       -13.4642
  50   2.0000      -0.491824       -13.3832
  51   2.0000      -0.483943       -13.1688
  52   2.0000      -0.469797       -12.7838
  53   2.0000      -0.464348       -12.6355
  54   2.0000      -0.459349       -12.4995
  55   2.0000      -0.451602       -12.2887
  56   2.0000      -0.440655       -11.9908
  57   2.0000      -0.437986       -11.9182
  58   2.0000      -0.430876       -11.7247
  59   2.0000      -0.429127       -11.6771
  60   2.0000      -0.425300       -11.5730
  61   2.0000      -0.422961       -11.5093
  62   2.0000      -0.409764       -11.1503
  63   2.0000      -0.351028        -9.5520
  64   2.0000      -0.334709        -9.1079
  65   2.0000      -0.327592        -8.9142
  66   2.0000      -0.281685        -7.6650
  67   0.0000       0.024047         0.6543
  68   0.0000       0.071787         1.9534
  69   0.0000       0.105358         2.8669
  70   0.0000       0.119245         3.2448
  71   0.0000       0.125606         3.4179

MULLIKEN ATOMIC CHARGES
-----------------------
   0 S :    0.122434
   1 C :   -0.091394
   2 C :   -0.096610
   3 C :   -0.004749
   4 C :   -0.143656
   5 H :    0.019716
   6 C :    0.039869
   7 H :    0.040839
   8 H :    0.026838
   9 C :   -0.073795
  10 H :    0.038075
  11 H :    0.031202
  12 C :   -0.050805
  13 H :    0.027898
  14 H :    0.041771
  15 H :    0.023171
  16 S :    0.107935
  17 C :   -0.075688
  18 C :   -0.024681
  19 C :   -0.066641
  20 C :   -0.155585
  21 H :    0.005511
  22 C :    0.096242
  23 H :    0.037186
  24 H :    0.029016
  25 C :   -0.147597
  26 H :    0.061721
  27 H :    0.034432
  28 C :   -0.046113
  29 H :    0.038999
  30 H :    0.036158
  31 H :    0.035365
  32 H :    0.032370
  33 H :    0.050567
Sum of atomic charges:   -0.0000000

LOEWDIN ATOMIC CHARGES
----------------------
   0 S :    0.410715
   1 C :   -0.209880
   2 C :   -0.059051
   3 C :   -0.067094
   4 C :   -0.186592
   5 H :    0.031945
   6 C :   -0.031880
   7 H :    0.037180
   8 H :    0.028869
   9 C :   -0.033283
  10 H :    0.032061
  11 H :    0.014616
  12 C :   -0.068024
  13 H :    0.023791
  14 H :    0.028581
  15 H :    0.023617
  16 S :    0.405339
  17 C :   -0.189742
  18 C :   -0.075140
  19 C :   -0.047454
  20 C :   -0.194066
  21 H :    0.026353
  22 C :   -0.027556
  23 H :    0.031710
  24 H :    0.034034
  25 C :   -0.054323
  26 H :    0.027453
  27 H :    0.025030
  28 C :   -0.068626
  29 H :    0.021550
  30 H :    0.029824
  31 H :    0.031123
  32 H :    0.019450
  33 H :    0.029470

  Mayer bond orders larger than 0.100000
B(  0-S ,  1-C ) :   1.1340 B(  0-S ,  4-C ) :   1.1461 B(  1-C ,  2-C ) :   1.6400
B(  1-C , 32-H ) :   0.9575 B(  2-C ,  3-C ) :   1.2216 B(  2-C ,  6-C ) :   1.0284
B(  3-C ,  4-C ) :   1.5651 B(  3-C ,  5-H ) :   0.9796 B(  4-C , 20-C ) :   1.0746
B(  6-C ,  7-H ) :   0.9344 B(  6-C ,  8-H ) :   0.9484 B(  6-C ,  9-C ) :   1.0608
B(  9-C , 10-H ) :   0.9490 B(  9-C , 11-H ) :   0.9632 B(  9-C , 12-C ) :   1.0854
B( 12-C , 13-H ) :   0.9737 B( 12-C , 14-H ) :   0.9756 B( 12-C , 15-H ) :   0.9736
B( 16-S , 17-C ) :   1.1587 B( 16-S , 20-C ) :   1.1407 B( 17-C , 18-C ) :   1.5897
B( 17-C , 33-H ) :   0.9665 B( 18-C , 19-C ) :   1.2846 B( 18-C , 21-H ) :   0.9913
B( 19-C , 20-C ) :   1.5489 B( 19-C , 22-C ) :   1.0390 B( 22-C , 23-H ) :   0.9254
B( 22-C , 24-H ) :   0.9449 B( 22-C , 25-C ) :   1.0399 B( 25-C , 26-H ) :   0.9512
B( 25-C , 27-H ) :   0.9564 B( 25-C , 28-C ) :   1.0740 B( 28-C , 29-H ) :   0.9744
B( 28-C , 30-H ) :   0.9716 B( 28-C , 31-H ) :   0.9746

Dispersion correction           -0.014914847
FINAL SINGLE POINT ENERGY     -1339.879255655526

DIPOLE MOMENT
-------------
                                X             Y             Z
Electronic contribution:    -25.25605     -18.71905      -8.36240
Nuclear contribution   :     25.98582      19.09558       8.30422
                        -----------------------------------------
Total Dipole Moment    :      0.72977       0.37653      -0.05818
                        -----------------------------------------
Magnitude (a.u.)       :      0.82323
Magnitude (Debye)      :      2.09250

Rotational constants in cm-1:     0.018346     0.009588     0.006621
Rotational constants in MHz :   550.010402   287.441869   198.479701

                             ****ORCA TERMINATED NORMALLY****
TOTAL RUN TIME: 0 days 0 hours 0 minutes 31 seconds 824 msec
