                         Program Version 4.2.1 -  RELEASE  -
|  1> ! wB97X-D3 SP def2-SVP
|  2> %pal
|  3> nprocs 16
|  4> end
|  5>
|  6> * xyz 0 1
|  7> S 	 -45.5565 	 63.102 	 134.337
|  8> C 	 -44.752 	 61.561 	 134.252
|  9> C 	 -45.4277 	 60.6357 	 135.05
| 10> C 	 -46.3273 	 61.2602 	 135.945
| 11> C 	 -46.3498 	 62.6646 	 135.8
| 12> H 	 -46.9272 	 60.791 	 136.636
| 13> C 	 -45.2093 	 59.2042 	 134.91
| 14> H 	 -44.1923 	 59.0256 	 134.465
| 15> H 	 -45.8322 	 58.9005 	 134.132
| 16> C 	 -45.4624 	 58.2814 	 136.092
| 17> H 	 -44.5987 	 58.4659 	 136.781
| 18> H 	 -46.4703 	 58.4359 	 136.585
| 19> C 	 -45.3468 	 56.7931 	 135.732
| 20> H 	 -45.712 	 56.1256 	 136.518
| 21> H 	 -45.7227 	 56.6091 	 134.732
| 22> H 	 -44.2525 	 56.6263 	 135.612
| 23> S 	 -48.3494 	 64.6455 	 135.737
| 24> C 	 -48.9283 	 65.4518 	 137.182
| 25> C 	 -48.2591 	 64.9234 	 138.263
| 26> C 	 -47.3267 	 63.8632 	 137.9
| 27> C 	 -47.2042 	 63.6152 	 136.532
| 28> H 	 -48.4769 	 65.2683 	 139.237
| 29> C 	 -46.405 	 63.2682 	 139.008
| 30> H 	 -46.0079 	 64.0908 	 139.641
| 31> H 	 -45.6035 	 62.6727 	 138.518
| 32> C 	 -47.0057 	 62.2298 	 139.962
| 33> H 	 -47.53 	 61.409 	 139.413
| 34> H 	 -47.863 	 62.7702 	 140.421
| 35> C 	 -45.9881 	 61.7035 	 140.985
| 36> H 	 -46.3895 	 61.1731 	 141.799
| 37> H 	 -45.5631 	 62.6005 	 141.369
| 38> H 	 -45.2115 	 61.1915 	 140.419
| 39> H 	 -44.0771 	 61.3654 	 133.459
| 40> H 	 -49.5416 	 66.3078 	 137.265
| 41> *
| 42>
| 43>                          ****END OF INPUT****

CARTESIAN COORDINATES (ANGSTROEM)
---------------------------------
  S    -45.556500   63.102000  134.337000
  C    -44.752000   61.561000  134.252000
  C    -45.427700   60.635700  135.050000
  C    -46.327300   61.260200  135.945000
  C    -46.349800   62.664600  135.800000
  H    -46.927200   60.791000  136.636000
  C    -45.209300   59.204200  134.910000
  H    -44.192300   59.025600  134.465000
  H    -45.832200   58.900500  134.132000
  C    -45.462400   58.281400  136.092000
  H    -44.598700   58.465900  136.781000
  H    -46.470300   58.435900  136.585000
  C    -45.346800   56.793100  135.732000
  H    -45.712000   56.125600  136.518000
  H    -45.722700   56.609100  134.732000
  H    -44.252500   56.626300  135.612000
  S    -48.349400   64.645500  135.737000
  C    -48.928300   65.451800  137.182000
  C    -48.259100   64.923400  138.263000
  C    -47.326700   63.863200  137.900000
  C    -47.204200   63.615200  136.532000
  H    -48.476900   65.268300  139.237000
  C    -46.405000   63.268200  139.008000
  H    -46.007900   64.090800  139.641000
  H    -45.603500   62.672700  138.518000
  C    -47.005700   62.229800  139.962000
  H    -47.530000   61.409000  139.413000
  H    -47.863000   62.770200  140.421000
  C    -45.988100   61.703500  140.985000
  H    -46.389500   61.173100  141.799000
  H    -45.563100   62.600500  141.369000
  H    -45.211500   61.191500  140.419000
  H    -44.077100   61.365400  133.459000
  H    -49.541600   66.307800  137.265000

 Total Charge           Charge          ....    0
 Multiplicity           Mult            ....    1
 Number of Electrons    NEL             ....  134
 Basis Dimension        Dim             ....  322

ORBITAL ENERGIES
----------------

  NO   OCC          E(Eh)            E(eV)
   0   2.0000     -88.967076     -2420.9172
   1   2.0000     -88.963076     -2420.8084
   2   2.0000     -10.334077      -281.2045
   3   2.0000     -10.330618      -281.1104
   4   2.0000     -10.316007      -280.7128
   5   2.0000     -10.311699      -280.5956
   6   2.0000     -10.306619      -280.4574
   7   2.0000     -10.302261      -280.3388
   8   2.0000     -10.295191      -280.1464
   9   2.0000     -10.293663      -280.1048
  10   2.0000     -10.293051      -280.0882
  11   2.0000     -10.292472      -280.0724
  12   2.0000     -10.288732      -279.9706
  13   2.0000     -10.285002      -279.8691
  14   2.0000     -10.282603      -279.8039
  15   2.0000     -10.272004      -279.5154
  16   2.0000      -8.082539      -219.9371
  17   2.0000      -8.078023      -219.8142
  18   2.0000      -6.040842      -164.3797
  19   2.0000      -6.037063      -164.2768
  20   2.0000      -6.036714      -164.2673
  21   2.0000      -6.033356      -164.1760
  22   2.0000      -6.032260      -164.1461
  23   2.0000      -6.028801      -164.0520
  24   2.0000      -1.009836       -27.4790
  25   2.0000      -0.987622       -26.8746
  26   2.0000      -0.921699       -25.0807
  27   2.0000      -0.904073       -24.6011
  28   2.0000      -0.872956       -23.7543
  29   2.0000      -0.853881       -23.2353
  30   2.0000      -0.842686       -22.9307
  31   2.0000      -0.822133       -22.3714
  32   2.0000      -0.782268       -21.2866
  33   2.0000      -0.769993       -20.9526
  34   2.0000      -0.712612       -19.3912
  35   2.0000      -0.691616       -18.8198
  36   2.0000      -0.688231       -18.7277
  37   2.0000      -0.659348       -17.9418
  38   2.0000      -0.649228       -17.6664
  39   2.0000      -0.628026       -17.0895
  40   2.0000      -0.593569       -16.1518
  41   2.0000      -0.578331       -15.7372
  42   2.0000      -0.572625       -15.5819
  43   2.0000      -0.564227       -15.3534
  44   2.0000      -0.536159       -14.5896
  45   2.0000      -0.525298       -14.2941
  46   2.0000      -0.519996       -14.1498
  47   2.0000      -0.513637       -13.9768
  48   2.0000      -0.510311       -13.8863
  49   2.0000      -0.501384       -13.6434
  50   2.0000      -0.494694       -13.4613
  51   2.0000      -0.485905       -13.2222
  52   2.0000      -0.468618       -12.7517
  53   2.0000      -0.466341       -12.6898
  54   2.0000      -0.462630       -12.5888
  55   2.0000      -0.453742       -12.3469
  56   2.0000      -0.445902       -12.1336
  57   2.0000      -0.432891       -11.7796
  58   2.0000      -0.428646       -11.6640
  59   2.0000      -0.425028       -11.5656
  60   2.0000      -0.420841       -11.4517
  61   2.0000      -0.409413       -11.1407
  62   2.0000      -0.406865       -11.0714
  63   2.0000      -0.347565        -9.4577
  64   2.0000      -0.328917        -8.9503
  65   2.0000      -0.325403        -8.8547
  66   2.0000      -0.293321        -7.9817
  67   0.0000       0.024343         0.6624
  68   0.0000       0.067717         1.8427
  69   0.0000       0.110152         2.9974
  70   0.0000       0.122194         3.3251
  71   0.0000       0.135348         3.6830

MULLIKEN ATOMIC CHARGES
-----------------------
   0 S :    0.114782
   1 C :   -0.109711
   2 C :   -0.067844
   3 C :    0.062404
   4 C :   -0.152508
   5 H :   -0.023849
   6 C :    0.071977
   7 H :    0.024666
   8 H :    0.020312
   9 C :   -0.124046
  10 H :    0.043387
  11 H :    0.051079
  12 C :   -0.038587
  13 H :    0.049739
  14 H :    0.024479
  15 H :    0.023161
  16 S :    0.092754
  17 C :   -0.073076
  18 C :   -0.017773
  19 C :   -0.038981
  20 C :   -0.127584
  21 H :    0.007204
  22 C :    0.012994
  23 H :    0.037372
  24 H :    0.030203
  25 C :   -0.114675
  26 H :    0.026752
  27 H :    0.014703
  28 C :    0.018690
  29 H :    0.033591
  30 H :    0.009117
  31 H :    0.032871
  32 H :    0.037872
  33 H :    0.048527
Sum of atomic charges:   -0.0000000

LOEWDIN ATOMIC CHARGES
----------------------
   0 S :    0.431484
   1 C :   -0.195287
   2 C :   -0.055640
   3 C :   -0.047395
   4 C :   -0.195766
   5 H :    0.016320
   6 C :   -0.041088
   7 H :    0.039829
   8 H :    0.027895
   9 C :   -0.048870
  10 H :    0.031730
  11 H :    0.028854
  12 C :   -0.067260
  13 H :    0.030625
  14 H :    0.021190
  15 H :    0.028293
  16 S :    0.405921
  17 C :   -0.179875
  18 C :   -0.065056
  19 C :   -0.060337
  20 C :   -0.206738
  21 H :    0.023989
  22 C :   -0.036264
  23 H :    0.032499
  24 H :    0.029395
  25 C :   -0.050051
  26 H :    0.019817
  27 H :    0.017254
  28 C :   -0.054701
  29 H :    0.022253
  30 H :    0.022124
  31 H :    0.028759
  32 H :    0.018561
  33 H :    0.027537

  Mayer bond orders larger than 0.100000
B(  0-S ,  1-C ) :   1.1543 B(  0-S ,  4-C ) :   1.1873 B(  1-C ,  2-C ) :   1.5486
B(  1-C ,  4-C ) :   0.1102 B(  1-C , 32-H ) :   0.9807 B(  2-C ,  3-C ) :   1.2763
B(  2-C ,  6-C ) :   1.0356 B(  3-C ,  4-C ) :   1.4962 B(  3-C ,  5-H ) :   1.0144
B(  4-C , 20-C ) :   1.0389 B(  6-C ,  7-H ) :   0.9352 B(  6-C ,  8-H ) :   0.9112
B(  6-C ,  9-C ) :   1.0710 B(  9-C , 10-H ) :   0.9623 B(  9-C , 11-H ) :   0.9487
B(  9-C , 12-C ) :   1.0769 B( 12-C , 13-H ) :   0.9741 B( 12-C , 14-H ) :   0.9750
B( 12-C , 15-H ) :   0.9754 B( 16-S , 17-C ) :   1.1504 B( 16-S , 20-C ) :   1.1356
B( 17-C , 18-C ) :   1.6063 B( 17-C , 33-H ) :   0.9724 B( 18-C , 19-C ) :   1.2406
B( 18-C , 21-H ) :   0.9965 B( 19-C , 20-C ) :   1.5972 B( 19-C , 22-C ) :   1.0412
B( 22-C , 23-H ) :   0.9426 B( 22-C , 24-H ) :   0.9395 B( 22-C , 25-C ) :   1.0554
B( 25-C , 26-H ) :   0.9539 B( 25-C , 27-H ) :   0.9553 B( 25-C , 28-C ) :   1.0718
B( 28-C , 29-H ) :   0.9739 B( 28-C , 30-H ) :   0.9695 B( 28-C , 31-H ) :   0.9745

Dispersion correction           -0.013566716
FINAL SINGLE POINT ENERGY     -1339.865790017363

DIPOLE MOMENT
-------------
                                X             Y             Z
Electronic contribution:     -7.19414      24.91544     -18.16657
Nuclear contribution   :      7.28214     -25.42694      18.46145
                        -----------------------------------------
Total Dipole Moment    :      0.08800      -0.51150       0.29488
                        -----------------------------------------
Magnitude (a.u.)       :      0.59693
Magnitude (Debye)      :      1.51728

Rotational constants in cm-1:     0.016570     0.008970     0.006428
Rotational constants in MHz :   496.769405   268.920796   192.708698

                             ****ORCA TERMINATED NORMALLY****
TOTAL RUN TIME: 0 days 0 hours 0 minutes 34 seconds 238 msec
