                         Program Version 4.2.1 -  RELEASE  -
|  1> ! wB97X-D3 SP def2-SVP
|  2> %pal
|  3> nprocs 16
|  4> end
|  5>
|  6> * xyz 0 1
|  7> S 	 -57.8642 	 54.4707 	 134.931
|  8> C 	 -56.252 	 54.9282 	 134.294
|  9> C 	 -55.4162 	 53.8417 	 134.241
| 10> C 	 -56.0376 	 52.7043 	 134.854
| 11> C 	 -57.1721 	 52.949 	 135.479
| 12> H 	 -55.6823 	 51.6413 	 134.925
| 13> C 	 -54.0773 	 53.7818 	 133.538
| 14> H 	 -54.0213 	 52.9918 	 132.824
| 15> H 	 -53.516 	 53.4376 	 134.355
| 16> C 	 -53.4819 	 55.1349 	 132.983
| 17> H 	 -53.5137 	 55.7948 	 133.852
| 18> H 	 -52.4782 	 55.0927 	 132.602
| 19> C 	 -54.2135 	 55.6253 	 131.76
| 20> H 	 -55.3227 	 55.4935 	 131.826
| 21> H 	 -53.8925 	 56.6923 	 131.492
| 22> H 	 -53.9517 	 54.9596 	 130.938
| 23> S 	 -59.6581 	 51.8147 	 135.538
| 24> C 	 -59.9682 	 50.457 	 136.581
| 25> C 	 -59.0065 	 50.2625 	 137.501
| 26> C 	 -57.8182 	 51.0813 	 137.232
| 27> C 	 -58.0081 	 52.0005 	 136.146
| 28> H 	 -59.0869 	 49.5142 	 138.263
| 29> C 	 -56.5443 	 50.971 	 138.073
| 30> H 	 -55.786 	 51.4766 	 137.444
| 31> H 	 -56.171 	 49.9735 	 138.23
| 32> C 	 -56.608 	 51.718 	 139.376
| 33> H 	 -57.5284 	 51.5844 	 139.938
| 34> H 	 -56.4267 	 52.7216 	 139.122
| 35> C 	 -55.434 	 51.3063 	 140.3
| 36> H 	 -54.5941 	 51.8635 	 139.793
| 37> H 	 -55.1717 	 50.2192 	 140.174
| 38> H 	 -55.5479 	 51.6009 	 141.413
| 39> H 	 -55.9608 	 55.9693 	 134.024
| 40> H 	 -60.9582 	 50.0474 	 136.612
| 41> *
| 42>
| 43>                          ****END OF INPUT****

CARTESIAN COORDINATES (ANGSTROEM)
---------------------------------
  S    -57.864200   54.470700  134.931000
  C    -56.252000   54.928200  134.294000
  C    -55.416200   53.841700  134.241000
  C    -56.037600   52.704300  134.854000
  C    -57.172100   52.949000  135.479000
  H    -55.682300   51.641300  134.925000
  C    -54.077300   53.781800  133.538000
  H    -54.021300   52.991800  132.824000
  H    -53.516000   53.437600  134.355000
  C    -53.481900   55.134900  132.983000
  H    -53.513700   55.794800  133.852000
  H    -52.478200   55.092700  132.602000
  C    -54.213500   55.625300  131.760000
  H    -55.322700   55.493500  131.826000
  H    -53.892500   56.692300  131.492000
  H    -53.951700   54.959600  130.938000
  S    -59.658100   51.814700  135.538000
  C    -59.968200   50.457000  136.581000
  C    -59.006500   50.262500  137.501000
  C    -57.818200   51.081300  137.232000
  C    -58.008100   52.000500  136.146000
  H    -59.086900   49.514200  138.263000
  C    -56.544300   50.971000  138.073000
  H    -55.786000   51.476600  137.444000
  H    -56.171000   49.973500  138.230000
  C    -56.608000   51.718000  139.376000
  H    -57.528400   51.584400  139.938000
  H    -56.426700   52.721600  139.122000
  C    -55.434000   51.306300  140.300000
  H    -54.594100   51.863500  139.793000
  H    -55.171700   50.219200  140.174000
  H    -55.547900   51.600900  141.413000
  H    -55.960800   55.969300  134.024000
  H    -60.958200   50.047400  136.612000

 Total Charge           Charge          ....    0
 Multiplicity           Mult            ....    1
 Number of Electrons    NEL             ....  134
 Basis Dimension        Dim             ....  322

ORBITAL ENERGIES
----------------

  NO   OCC          E(Eh)            E(eV)
   0   2.0000     -88.961940     -2420.7775
   1   2.0000     -88.961461     -2420.7644
   2   2.0000     -10.330751      -281.1140
   3   2.0000     -10.323738      -280.9232
   4   2.0000     -10.318799      -280.7888
   5   2.0000     -10.313626      -280.6480
   6   2.0000     -10.313250      -280.6378
   7   2.0000     -10.306320      -280.4492
   8   2.0000     -10.294694      -280.1329
   9   2.0000     -10.294086      -280.1163
  10   2.0000     -10.292027      -280.0603
  11   2.0000     -10.290799      -280.0269
  12   2.0000     -10.289695      -279.9968
  13   2.0000     -10.289309      -279.9863
  14   2.0000     -10.284188      -279.8470
  15   2.0000     -10.277038      -279.6524
  16   2.0000      -8.077062      -219.7880
  17   2.0000      -8.076115      -219.7623
  18   2.0000      -6.035636      -164.2380
  19   2.0000      -6.034770      -164.2144
  20   2.0000      -6.031541      -164.1266
  21   2.0000      -6.031090      -164.1143
  22   2.0000      -6.027698      -164.0220
  23   2.0000      -6.026244      -163.9824
  24   2.0000      -1.010873       -27.5073
  25   2.0000      -0.983329       -26.7577
  26   2.0000      -0.916385       -24.9361
  27   2.0000      -0.912976       -24.8433
  28   2.0000      -0.874088       -23.7851
  29   2.0000      -0.851941       -23.1825
  30   2.0000      -0.842370       -22.9221
  31   2.0000      -0.818644       -22.2764
  32   2.0000      -0.785007       -21.3611
  33   2.0000      -0.766231       -20.8502
  34   2.0000      -0.706522       -19.2254
  35   2.0000      -0.702066       -19.1042
  36   2.0000      -0.690262       -18.7830
  37   2.0000      -0.660973       -17.9860
  38   2.0000      -0.639623       -17.4050
  39   2.0000      -0.611937       -16.6517
  40   2.0000      -0.598747       -16.2927
  41   2.0000      -0.580659       -15.8005
  42   2.0000      -0.572102       -15.5677
  43   2.0000      -0.554563       -15.0904
  44   2.0000      -0.541097       -14.7240
  45   2.0000      -0.524360       -14.2686
  46   2.0000      -0.516805       -14.0630
  47   2.0000      -0.514706       -14.0059
  48   2.0000      -0.504501       -13.7282
  49   2.0000      -0.501244       -13.6396
  50   2.0000      -0.494416       -13.4537
  51   2.0000      -0.479914       -13.0591
  52   2.0000      -0.467479       -12.7207
  53   2.0000      -0.460985       -12.5440
  54   2.0000      -0.457626       -12.4526
  55   2.0000      -0.445382       -12.1195
  56   2.0000      -0.442342       -12.0367
  57   2.0000      -0.439190       -11.9510
  58   2.0000      -0.434096       -11.8123
  59   2.0000      -0.425966       -11.5911
  60   2.0000      -0.420445       -11.4409
  61   2.0000      -0.414943       -11.2912
  62   2.0000      -0.407616       -11.0918
  63   2.0000      -0.354499        -9.6464
  64   2.0000      -0.329773        -8.9736
  65   2.0000      -0.324602        -8.8329
  66   2.0000      -0.290980        -7.9180
  67   0.0000       0.028728         0.7817
  68   0.0000       0.063915         1.7392
  69   0.0000       0.100622         2.7381
  70   0.0000       0.119051         3.2395
  71   0.0000       0.133157         3.6234

MULLIKEN ATOMIC CHARGES
-----------------------
   0 S :    0.081653
   1 C :   -0.145177
   2 C :   -0.085461
   3 C :    0.000082
   4 C :   -0.131096
   5 H :    0.039954
   6 C :    0.093395
   7 H :    0.029494
   8 H :    0.019313
   9 C :   -0.061914
  10 H :    0.031080
  11 H :    0.031839
  12 C :   -0.089944
  13 H :    0.044291
  14 H :    0.052111
  15 H :    0.026449
  16 S :    0.086349
  17 C :   -0.080314
  18 C :   -0.002162
  19 C :   -0.064159
  20 C :   -0.150983
  21 H :    0.015643
  22 C :    0.053638
  23 H :    0.012237
  24 H :    0.020567
  25 C :   -0.037872
  26 H :    0.033182
  27 H :    0.027556
  28 C :   -0.107108
  29 H :    0.030381
  30 H :    0.036464
  31 H :    0.062557
  32 H :    0.071505
  33 H :    0.056452
Sum of atomic charges:   -0.0000000

LOEWDIN ATOMIC CHARGES
----------------------
   0 S :    0.364755
   1 C :   -0.187118
   2 C :   -0.057597
   3 C :   -0.066655
   4 C :   -0.187067
   5 H :    0.044285
   6 C :   -0.025229
   7 H :    0.029191
   8 H :    0.030550
   9 C :   -0.042235
  10 H :    0.022247
  11 H :    0.028555
  12 C :   -0.077232
  13 H :    0.026204
  14 H :    0.035489
  15 H :    0.024967
  16 S :    0.393386
  17 C :   -0.179082
  18 C :   -0.067174
  19 C :   -0.046703
  20 C :   -0.193103
  21 H :    0.030749
  22 C :   -0.035179
  23 H :    0.031934
  24 H :    0.023111
  25 C :   -0.038123
  26 H :    0.020564
  27 H :    0.022835
  28 C :   -0.080526
  29 H :    0.029906
  30 H :    0.023744
  31 H :    0.037356
  32 H :    0.037219
  33 H :    0.025977

  Mayer bond orders larger than 0.100000
B(  0-S ,  1-C ) :   1.1037 B(  0-S ,  4-C ) :   1.1100 B(  1-C ,  2-C ) :   1.6666
B(  1-C , 32-H ) :   0.9537 B(  2-C ,  3-C ) :   1.1874 B(  2-C ,  6-C ) :   0.9853
B(  3-C ,  4-C ) :   1.6497 B(  3-C ,  5-H ) :   0.9821 B(  4-C , 20-C ) :   1.0561
B(  6-C ,  7-H ) :   0.9441 B(  6-C ,  8-H ) :   0.9277 B(  6-C ,  9-C ) :   1.0835
B(  9-C , 10-H ) :   0.9556 B(  9-C , 11-H ) :   0.9571 B(  9-C , 12-C ) :   1.0616
B( 12-C , 13-H ) :   0.9763 B( 12-C , 14-H ) :   0.9724 B( 12-C , 15-H ) :   0.9721
B( 16-S , 17-C ) :   1.1495 B( 16-S , 20-C ) :   1.1307 B( 17-C , 18-C ) :   1.6303
B( 17-C , 33-H ) :   0.9659 B( 18-C , 19-C ) :   1.2180 B( 18-C , 21-H ) :   0.9949
B( 19-C , 20-C ) :   1.5967 B( 19-C , 22-C ) :   1.0476 B( 22-C , 23-H ) :   0.9285
B( 22-C , 24-H ) :   0.9422 B( 22-C , 25-C ) :   1.0612 B( 25-C , 26-H ) :   0.9645
B( 25-C , 27-H ) :   0.9595 B( 25-C , 28-C ) :   1.0594 B( 28-C , 29-H ) :   0.9787
B( 28-C , 30-H ) :   0.9763 B( 28-C , 31-H ) :   0.9732

Dispersion correction           -0.013684236
FINAL SINGLE POINT ENERGY     -1339.851937801647

DIPOLE MOMENT
-------------
                                X             Y             Z
Electronic contribution:    -23.63529      -1.33463      -4.44939
Nuclear contribution   :     24.23475       1.05836       4.51782
                        -----------------------------------------
Total Dipole Moment    :      0.59946      -0.27628       0.06843
                        -----------------------------------------
Magnitude (a.u.)       :      0.66360
Magnitude (Debye)      :      1.68674

Rotational constants in cm-1:     0.020404     0.007781     0.006194
Rotational constants in MHz :   611.710342   233.281524   185.683484

                             ****ORCA TERMINATED NORMALLY****
TOTAL RUN TIME: 0 days 0 hours 0 minutes 34 seconds 162 msec
