                         Program Version 4.2.1 -  RELEASE  -
|  1> ! wB97X-D3 SP def2-SVP
|  2> %pal
|  3> nprocs 16
|  4> end
|  5>
|  6> * xyz 0 1
|  7> S 	 -29.0326 	 58.0564 	 106.082
|  8> C 	 -27.8445 	 59.3721 	 105.754
|  9> C 	 -28.3427 	 60.6181 	 106.052
| 10> C 	 -29.6866 	 60.4991 	 106.53
| 11> C 	 -30.174 	 59.2048 	 106.678
| 12> H 	 -30.3766 	 61.3265 	 106.739
| 13> C 	 -27.7704 	 61.9531 	 105.595
| 14> H 	 -27.1746 	 61.8274 	 104.67
| 15> H 	 -27.194 	 62.2972 	 106.363
| 16> C 	 -28.7808 	 63.0544 	 105.187
| 17> H 	 -29.6617 	 62.5289 	 104.698
| 18> H 	 -29.1838 	 63.5129 	 106.189
| 19> C 	 -28.3753 	 64.1375 	 104.232
| 20> H 	 -29.2217 	 64.5107 	 103.727
| 21> H 	 -27.7999 	 64.9669 	 104.613
| 22> H 	 -27.6462 	 63.7388 	 103.513
| 23> S 	 -32.5631 	 58.1091 	 105.77
| 24> C 	 -33.9686 	 58.2917 	 106.736
| 25> C 	 -33.6611 	 58.8368 	 107.916
| 26> C 	 -32.3057 	 59.0965 	 108.173
| 27> C 	 -31.5709 	 58.9447 	 106.97
| 28> H 	 -34.5519 	 58.9933 	 108.432
| 29> C 	 -31.7781 	 59.5797 	 109.507
| 30> H 	 -32.1978 	 60.5796 	 109.575
| 31> H 	 -30.664 	 59.5757 	 109.592
| 32> C 	 -32.3219 	 58.9588 	 110.716
| 33> H 	 -31.9149 	 57.9368 	 110.837
| 34> H 	 -33.3946 	 58.8458 	 110.727
| 35> C 	 -32.1372 	 59.8319 	 111.972
| 36> H 	 -32.3342 	 60.8648 	 111.959
| 37> H 	 -31.0602 	 59.898 	 112.286
| 38> H 	 -32.7469 	 59.4449 	 112.806
| 39> H 	 -26.8823 	 59.3014 	 105.161
| 40> H 	 -35.0418 	 58.0576 	 106.374
| 41> *
| 42>
| 43>                          ****END OF INPUT****

CARTESIAN COORDINATES (ANGSTROEM)
---------------------------------
  S    -29.032600   58.056400  106.082000
  C    -27.844500   59.372100  105.754000
  C    -28.342700   60.618100  106.052000
  C    -29.686600   60.499100  106.530000
  C    -30.174000   59.204800  106.678000
  H    -30.376600   61.326500  106.739000
  C    -27.770400   61.953100  105.595000
  H    -27.174600   61.827400  104.670000
  H    -27.194000   62.297200  106.363000
  C    -28.780800   63.054400  105.187000
  H    -29.661700   62.528900  104.698000
  H    -29.183800   63.512900  106.189000
  C    -28.375300   64.137500  104.232000
  H    -29.221700   64.510700  103.727000
  H    -27.799900   64.966900  104.613000
  H    -27.646200   63.738800  103.513000
  S    -32.563100   58.109100  105.770000
  C    -33.968600   58.291700  106.736000
  C    -33.661100   58.836800  107.916000
  C    -32.305700   59.096500  108.173000
  C    -31.570900   58.944700  106.970000
  H    -34.551900   58.993300  108.432000
  C    -31.778100   59.579700  109.507000
  H    -32.197800   60.579600  109.575000
  H    -30.664000   59.575700  109.592000
  C    -32.321900   58.958800  110.716000
  H    -31.914900   57.936800  110.837000
  H    -33.394600   58.845800  110.727000
  C    -32.137200   59.831900  111.972000
  H    -32.334200   60.864800  111.959000
  H    -31.060200   59.898000  112.286000
  H    -32.746900   59.444900  112.806000
  H    -26.882300   59.301400  105.161000
  H    -35.041800   58.057600  106.374000

 Total Charge           Charge          ....    0
 Multiplicity           Mult            ....    1
 Number of Electrons    NEL             ....  134
 Basis Dimension        Dim             ....  322

ORBITAL ENERGIES
----------------

  NO   OCC          E(Eh)            E(eV)
   0   2.0000     -88.968953     -2420.9683
   1   2.0000     -88.959963     -2420.7236
   2   2.0000     -10.326860      -281.0082
   3   2.0000     -10.324624      -280.9473
   4   2.0000     -10.320202      -280.8270
   5   2.0000     -10.314333      -280.6673
   6   2.0000     -10.306829      -280.4631
   7   2.0000     -10.301656      -280.3223
   8   2.0000     -10.298406      -280.2339
   9   2.0000     -10.292364      -280.0695
  10   2.0000     -10.290680      -280.0236
  11   2.0000     -10.289344      -279.9873
  12   2.0000     -10.283074      -279.8167
  13   2.0000     -10.280728      -279.7528
  14   2.0000     -10.277572      -279.6670
  15   2.0000     -10.275961      -279.6231
  16   2.0000      -8.082960      -219.9485
  17   2.0000      -8.075430      -219.7436
  18   2.0000      -6.041601      -164.4003
  19   2.0000      -6.037607      -164.2916
  20   2.0000      -6.033833      -164.1890
  21   2.0000      -6.033564      -164.1816
  22   2.0000      -6.029853      -164.0807
  23   2.0000      -6.026233      -163.9821
  24   2.0000      -1.007644       -27.4194
  25   2.0000      -0.985325       -26.8121
  26   2.0000      -0.919795       -25.0289
  27   2.0000      -0.913192       -24.8492
  28   2.0000      -0.872662       -23.7464
  29   2.0000      -0.851019       -23.1574
  30   2.0000      -0.846557       -23.0360
  31   2.0000      -0.813509       -22.1367
  32   2.0000      -0.789556       -21.4849
  33   2.0000      -0.776440       -21.1280
  34   2.0000      -0.711169       -19.3519
  35   2.0000      -0.697675       -18.9847
  36   2.0000      -0.686867       -18.6906
  37   2.0000      -0.647301       -17.6139
  38   2.0000      -0.635063       -17.2809
  39   2.0000      -0.617810       -16.8115
  40   2.0000      -0.601716       -16.3735
  41   2.0000      -0.574562       -15.6346
  42   2.0000      -0.571373       -15.5478
  43   2.0000      -0.566765       -15.4225
  44   2.0000      -0.534764       -14.5517
  45   2.0000      -0.524871       -14.2825
  46   2.0000      -0.513044       -13.9606
  47   2.0000      -0.506732       -13.7889
  48   2.0000      -0.500574       -13.6213
  49   2.0000      -0.498394       -13.5620
  50   2.0000      -0.494204       -13.4480
  51   2.0000      -0.478306       -13.0154
  52   2.0000      -0.472493       -12.8572
  53   2.0000      -0.468739       -12.7550
  54   2.0000      -0.459100       -12.4928
  55   2.0000      -0.457393       -12.4463
  56   2.0000      -0.439906       -11.9704
  57   2.0000      -0.435043       -11.8381
  58   2.0000      -0.432227       -11.7615
  59   2.0000      -0.423530       -11.5248
  60   2.0000      -0.417092       -11.3496
  61   2.0000      -0.409476       -11.1424
  62   2.0000      -0.407943       -11.1007
  63   2.0000      -0.338669        -9.2156
  64   2.0000      -0.333899        -9.0858
  65   2.0000      -0.325963        -8.8699
  66   2.0000      -0.294355        -8.0098
  67   0.0000       0.033124         0.9013
  68   0.0000       0.067575         1.8388
  69   0.0000       0.111738         3.0405
  70   0.0000       0.130097         3.5401
  71   0.0000       0.135535         3.6881

MULLIKEN ATOMIC CHARGES
-----------------------
   0 S :    0.117131
   1 C :   -0.157967
   2 C :   -0.071947
   3 C :   -0.002853
   4 C :   -0.151178
   5 H :    0.023969
   6 C :    0.125373
   7 H :    0.023912
   8 H :    0.021751
   9 C :   -0.178831
  10 H :    0.049842
  11 H :    0.042445
  12 C :    0.003390
  13 H :    0.033522
  14 H :    0.026330
  15 H :    0.019043
  16 S :    0.102010
  17 C :   -0.132016
  18 C :   -0.026739
  19 C :    0.013098
  20 C :   -0.188510
  21 H :   -0.008672
  22 C :    0.104787
  23 H :    0.022693
  24 H :    0.045889
  25 C :   -0.080864
  26 H :    0.037627
  27 H :    0.022319
  28 C :   -0.066342
  29 H :    0.015653
  30 H :    0.025439
  31 H :    0.036924
  32 H :    0.067602
  33 H :    0.085170
Sum of atomic charges:    0.0000000

LOEWDIN ATOMIC CHARGES
----------------------
   0 S :    0.398885
   1 C :   -0.193915
   2 C :   -0.064886
   3 C :   -0.060132
   4 C :   -0.213623
   5 H :    0.033206
   6 C :   -0.024859
   7 H :    0.032400
   8 H :    0.020936
   9 C :   -0.053537
  10 H :    0.033489
  11 H :    0.030262
  12 C :   -0.065263
  13 H :    0.026618
  14 H :    0.024138
  15 H :    0.027635
  16 S :    0.402679
  17 C :   -0.203116
  18 C :   -0.082097
  19 C :   -0.046290
  20 C :   -0.195022
  21 H :    0.024298
  22 C :   -0.035574
  23 H :    0.037409
  24 H :    0.040610
  25 C :   -0.043161
  26 H :    0.029720
  27 H :    0.021978
  28 C :   -0.070538
  29 H :    0.017247
  30 H :    0.027714
  31 H :    0.030080
  32 H :    0.042105
  33 H :    0.050605

  Mayer bond orders larger than 0.100000
B(  0-S ,  1-C ) :   1.1289 B(  0-S ,  4-C ) :   1.1430 B(  1-C ,  2-C ) :   1.6415
B(  1-C , 32-H ) :   0.9547 B(  2-C ,  3-C ) :   1.2443 B(  2-C ,  6-C ) :   1.0070
B(  3-C ,  4-C ) :   1.5721 B(  3-C ,  5-H ) :   0.9851 B(  4-C , 20-C ) :   1.0588
B(  6-C ,  7-H ) :   0.9491 B(  6-C ,  8-H ) :   0.9201 B(  6-C ,  9-C ) :   1.0782
B(  9-C , 10-H ) :   0.9600 B(  9-C , 11-H ) :   0.9430 B(  9-C , 12-C ) :   1.0860
B( 12-C , 13-H ) :   0.9731 B( 12-C , 14-H ) :   0.9715 B( 12-C , 15-H ) :   0.9668
B( 16-S , 17-C ) :   1.1515 B( 16-S , 20-C ) :   1.1471 B( 17-C , 18-C ) :   1.6432
B( 17-C , 33-H ) :   0.9517 B( 18-C , 19-C ) :   1.1975 B( 18-C , 21-H ) :   1.0001
B( 19-C , 20-C ) :   1.5695 B( 19-C , 22-C ) :   1.0468 B( 22-C , 23-H ) :   0.9248
B( 22-C , 24-H ) :   0.9345 B( 22-C , 25-C ) :   1.0751 B( 25-C , 26-H ) :   0.9493
B( 25-C , 27-H ) :   0.9508 B( 25-C , 28-C ) :   1.0766 B( 28-C , 29-H ) :   0.9736
B( 28-C , 30-H ) :   0.9720 B( 28-C , 31-H ) :   0.9765

Dispersion correction           -0.013274017
FINAL SINGLE POINT ENERGY     -1339.845389883523

DIPOLE MOMENT
-------------
                                X             Y             Z
Electronic contribution:     -2.80125     -21.63001     -11.96961
Nuclear contribution   :      2.64633      22.30044      12.11931
                        -----------------------------------------
Total Dipole Moment    :     -0.15492       0.67044       0.14969
                        -----------------------------------------
Magnitude (a.u.)       :      0.70420
Magnitude (Debye)      :      1.78992

Rotational constants in cm-1:     0.016976     0.007641     0.006770
Rotational constants in MHz :   508.917110   229.057423   202.964080

                             ****ORCA TERMINATED NORMALLY****
TOTAL RUN TIME: 0 days 0 hours 0 minutes 28 seconds 952 msec
