                         Program Version 4.2.1 -  RELEASE  -
|  1> ! wB97X-D3 SP def2-SVP
|  2> %pal
|  3> nprocs 16
|  4> end
|  5>
|  6> * xyz 0 1
|  7> S 	 22.7596 	 7.44521 	 73.3225
|  8> C 	 22.5334 	 6.74623 	 71.6797
|  9> C 	 21.2965 	 7.03235 	 71.1707
| 10> C 	 20.5355 	 7.95826 	 71.9868
| 11> C 	 21.1732 	 8.23592 	 73.1922
| 12> H 	 19.5025 	 8.25604 	 71.8158
| 13> C 	 20.7082 	 6.36582 	 69.9326
| 14> H 	 19.6021 	 6.53151 	 70.086
| 15> H 	 20.83 	 5.30907 	 70.0013
| 16> C 	 21.1104 	 7.00605 	 68.6515
| 17> H 	 20.5736 	 6.57519 	 67.7708
| 18> H 	 20.7436 	 8.05895 	 68.7034
| 19> C 	 22.5615 	 6.95594 	 68.2391
| 20> H 	 22.9715 	 5.94772 	 68.1698
| 21> H 	 22.6073 	 7.37931 	 67.259
| 22> H 	 23.2195 	 7.64255 	 68.8884
| 23> S 	 19.202 	 7.99977 	 75.0103
| 24> C 	 19.174 	 9.0459 	 76.3748
| 25> C 	 19.9769 	 10.1495 	 76.2415
| 26> C 	 20.8235 	 9.97228 	 75.1508
| 27> C 	 20.4899 	 8.86333 	 74.3637
| 28> H 	 20.0677 	 10.9704 	 76.944
| 29> C 	 22.0773 	 10.8179 	 74.8617
| 30> H 	 22.861 	 10.0817 	 74.697
| 31> H 	 22.3157 	 11.4854 	 75.6615
| 32> C 	 21.9983 	 11.5821 	 73.5378
| 33> H 	 21.6165 	 10.8689 	 72.7559
| 34> H 	 23.0306 	 11.8122 	 73.2604
| 35> C 	 21.1901 	 12.8895 	 73.3761
| 36> H 	 20.085 	 12.7027 	 73.4969
| 37> H 	 21.3296 	 13.3374 	 72.3898
| 38> H 	 21.483 	 13.6466 	 74.0976
| 39> H 	 23.2287 	 6.12135 	 71.1752
| 40> H 	 18.5219 	 8.89587 	 77.2311
| 41> *
| 42>
| 43>                          ****END OF INPUT****

CARTESIAN COORDINATES (ANGSTROEM)
---------------------------------
  S     22.759600    7.445210   73.322500
  C     22.533400    6.746230   71.679700
  C     21.296500    7.032350   71.170700
  C     20.535500    7.958260   71.986800
  C     21.173200    8.235920   73.192200
  H     19.502500    8.256040   71.815800
  C     20.708200    6.365820   69.932600
  H     19.602100    6.531510   70.086000
  H     20.830000    5.309070   70.001300
  C     21.110400    7.006050   68.651500
  H     20.573600    6.575190   67.770800
  H     20.743600    8.058950   68.703400
  C     22.561500    6.955940   68.239100
  H     22.971500    5.947720   68.169800
  H     22.607300    7.379310   67.259000
  H     23.219500    7.642550   68.888400
  S     19.202000    7.999770   75.010300
  C     19.174000    9.045900   76.374800
  C     19.976900   10.149500   76.241500
  C     20.823500    9.972280   75.150800
  C     20.489900    8.863330   74.363700
  H     20.067700   10.970400   76.944000
  C     22.077300   10.817900   74.861700
  H     22.861000   10.081700   74.697000
  H     22.315700   11.485400   75.661500
  C     21.998300   11.582100   73.537800
  H     21.616500   10.868900   72.755900
  H     23.030600   11.812200   73.260400
  C     21.190100   12.889500   73.376100
  H     20.085000   12.702700   73.496900
  H     21.329600   13.337400   72.389800
  H     21.483000   13.646600   74.097600
  H     23.228700    6.121350   71.175200
  H     18.521900    8.895870   77.231100

 Total Charge           Charge          ....    0
 Multiplicity           Mult            ....    1
 Number of Electrons    NEL             ....  134
 Basis Dimension        Dim             ....  322

ORBITAL ENERGIES
----------------

  NO   OCC          E(Eh)            E(eV)
   0   2.0000     -88.968206     -2420.9480
   1   2.0000     -88.968186     -2420.9474
   2   2.0000     -10.335010      -281.2299
   3   2.0000     -10.317294      -280.7478
   4   2.0000     -10.313078      -280.6331
   5   2.0000     -10.313063      -280.6327
   6   2.0000     -10.300907      -280.3019
   7   2.0000     -10.297562      -280.2109
   8   2.0000     -10.297388      -280.2062
   9   2.0000     -10.290973      -280.0316
  10   2.0000     -10.290357      -280.0149
  11   2.0000     -10.287819      -279.9458
  12   2.0000     -10.287025      -279.9242
  13   2.0000     -10.280766      -279.7539
  14   2.0000     -10.279151      -279.7099
  15   2.0000     -10.275886      -279.6211
  16   2.0000      -8.084513      -219.9908
  17   2.0000      -8.081385      -219.9057
  18   2.0000      -6.042661      -164.4292
  19   2.0000      -6.040038      -164.3578
  20   2.0000      -6.038765      -164.3231
  21   2.0000      -6.036257      -164.2549
  22   2.0000      -6.035591      -164.2368
  23   2.0000      -6.031948      -164.1377
  24   2.0000      -1.013616       -27.5819
  25   2.0000      -0.981912       -26.7192
  26   2.0000      -0.915209       -24.9041
  27   2.0000      -0.903198       -24.5773
  28   2.0000      -0.869440       -23.6587
  29   2.0000      -0.848970       -23.1016
  30   2.0000      -0.841714       -22.9042
  31   2.0000      -0.813221       -22.1289
  32   2.0000      -0.786041       -21.3893
  33   2.0000      -0.774753       -21.0821
  34   2.0000      -0.701993       -19.1022
  35   2.0000      -0.691475       -18.8160
  36   2.0000      -0.680241       -18.5103
  37   2.0000      -0.667211       -18.1557
  38   2.0000      -0.637317       -17.3423
  39   2.0000      -0.614848       -16.7309
  40   2.0000      -0.595585       -16.2067
  41   2.0000      -0.572152       -15.5690
  42   2.0000      -0.548544       -14.9266
  43   2.0000      -0.546333       -14.8665
  44   2.0000      -0.543358       -14.7855
  45   2.0000      -0.536138       -14.5890
  46   2.0000      -0.519000       -14.1227
  47   2.0000      -0.514149       -13.9907
  48   2.0000      -0.498576       -13.5669
  49   2.0000      -0.491560       -13.3760
  50   2.0000      -0.486879       -13.2486
  51   2.0000      -0.477068       -12.9817
  52   2.0000      -0.470720       -12.8089
  53   2.0000      -0.467974       -12.7342
  54   2.0000      -0.462661       -12.5896
  55   2.0000      -0.447507       -12.1773
  56   2.0000      -0.446032       -12.1371
  57   2.0000      -0.438200       -11.9240
  58   2.0000      -0.436671       -11.8824
  59   2.0000      -0.421930       -11.4813
  60   2.0000      -0.415642       -11.3102
  61   2.0000      -0.406465       -11.0605
  62   2.0000      -0.405366       -11.0306
  63   2.0000      -0.342958        -9.3324
  64   2.0000      -0.332820        -9.0565
  65   2.0000      -0.324833        -8.8391
  66   2.0000      -0.297370        -8.0918
  67   0.0000       0.039514         1.0752
  68   0.0000       0.058324         1.5871
  69   0.0000       0.101648         2.7660
  70   0.0000       0.117550         3.1987
  71   0.0000       0.132032         3.5928

MULLIKEN ATOMIC CHARGES
-----------------------
   0 S :    0.102183
   1 C :   -0.107812
   2 C :   -0.113368
   3 C :    0.021643
   4 C :   -0.133670
   5 H :    0.021464
   6 C :    0.080158
   7 H :    0.024758
   8 H :    0.028903
   9 C :   -0.078196
  10 H :    0.032130
  11 H :    0.028846
  12 C :   -0.057815
  13 H :    0.032458
  14 H :    0.027239
  15 H :    0.047842
  16 S :    0.147803
  17 C :   -0.105211
  18 C :   -0.023690
  19 C :   -0.059450
  20 C :   -0.190844
  21 H :    0.017229
  22 C :    0.136754
  23 H :    0.022906
  24 H :    0.009127
  25 C :   -0.114613
  26 H :    0.045914
  27 H :    0.023236
  28 C :   -0.053673
  29 H :    0.038626
  30 H :    0.036388
  31 H :    0.022836
  32 H :    0.035567
  33 H :    0.054331
Sum of atomic charges:    0.0000000

LOEWDIN ATOMIC CHARGES
----------------------
   0 S :    0.374067
   1 C :   -0.177904
   2 C :   -0.058436
   3 C :   -0.070603
   4 C :   -0.180164
   5 H :    0.032557
   6 C :   -0.033893
   7 H :    0.039167
   8 H :    0.025840
   9 C :   -0.050723
  10 H :    0.028212
  11 H :    0.030892
  12 C :   -0.072191
  13 H :    0.023400
  14 H :    0.025121
  15 H :    0.033278
  16 S :    0.465239
  17 C :   -0.193064
  18 C :   -0.071437
  19 C :   -0.054180
  20 C :   -0.238141
  21 H :    0.034656
  22 C :   -0.024581
  23 H :    0.031849
  24 H :    0.022820
  25 C :   -0.047307
  26 H :    0.031978
  27 H :    0.021617
  28 C :   -0.072681
  29 H :    0.029100
  30 H :    0.028296
  31 H :    0.018784
  32 H :    0.021787
  33 H :    0.026646

  Mayer bond orders larger than 0.100000
B(  0-S ,  1-C ) :   1.1072 B(  0-S ,  4-C ) :   1.1430 B(  1-C ,  2-C ) :   1.6574
B(  1-C , 32-H ) :   0.9697 B(  2-C ,  3-C ) :   1.2140 B(  2-C ,  6-C ) :   1.0008
B(  3-C ,  4-C ) :   1.5955 B(  3-C ,  5-H ) :   0.9896 B(  4-C , 20-C ) :   1.0029
B(  6-C ,  7-H ) :   0.9372 B(  6-C ,  8-H ) :   0.9467 B(  6-C ,  9-C ) :   1.0819
B(  9-C , 10-H ) :   0.9526 B(  9-C , 11-H ) :   0.9476 B(  9-C , 12-C ) :   1.0931
B( 12-C , 13-H ) :   0.9724 B( 12-C , 14-H ) :   0.9696 B( 12-C , 15-H ) :   0.9677
B( 16-S , 17-C ) :   1.1965 B( 16-S , 20-C ) :   1.1758 B( 17-C , 18-C ) :   1.5506
B( 17-C , 33-H ) :   0.9667 B( 18-C , 19-C ) :   1.3026 B( 18-C , 21-H ) :   0.9925
B( 19-C , 20-C ) :   1.5482 B( 19-C , 22-C ) :   1.0376 B( 22-C , 23-H ) :   0.9227
B( 22-C , 24-H ) :   0.9377 B( 22-C , 25-C ) :   1.0707 B( 25-C , 26-H ) :   0.9544
B( 25-C , 27-H ) :   0.9551 B( 25-C , 28-C ) :   1.0791 B( 28-C , 29-H ) :   0.9756
B( 28-C , 30-H ) :   0.9734 B( 28-C , 31-H ) :   0.9741

Dispersion correction           -0.014939200
FINAL SINGLE POINT ENERGY     -1339.883888615619

DIPOLE MOMENT
-------------
                                X             Y             Z
Electronic contribution:     -4.60263     -10.61988      19.30572
Nuclear contribution   :      4.48901      10.65269     -19.53474
                        -----------------------------------------
Total Dipole Moment    :     -0.11362       0.03281      -0.22901
                        -----------------------------------------
Magnitude (a.u.)       :      0.25775
Magnitude (Debye)      :      0.65514

Rotational constants in cm-1:     0.021293     0.008189     0.007131
Rotational constants in MHz :   638.340753   245.488373   213.787577

                             ****ORCA TERMINATED NORMALLY****
TOTAL RUN TIME: 0 days 0 hours 0 minutes 35 seconds 947 msec
