                         Program Version 4.2.1 -  RELEASE  -
|  1> ! wB97X-D3 SP def2-SVP
|  2> %pal
|  3> nprocs 16
|  4> end
|  5>
|  6> * xyz 0 1
|  7> S 	 55.2721 	 14.0004 	 75.7359
|  8> C 	 56.6813 	 15.1301 	 75.5893
|  9> C 	 57.9249 	 14.4544 	 75.779
| 10> C 	 57.6568 	 13.0838 	 76.1864
| 11> C 	 56.3458 	 12.6683 	 76.1605
| 12> H 	 58.3875 	 12.3916 	 76.5936
| 13> C 	 59.2501 	 15.1273 	 75.7147
| 14> H 	 60.0647 	 14.6146 	 76.3641
| 15> H 	 59.0913 	 16.1143 	 76.2032
| 16> C 	 59.877 	 15.25 	 74.4155
| 17> H 	 59.8444 	 14.241 	 73.9349
| 18> H 	 59.2985 	 15.9848 	 73.8444
| 19> C 	 61.3108 	 15.8056 	 74.558
| 20> H 	 61.4664 	 16.6458 	 75.226
| 21> H 	 61.9576 	 15.061 	 74.9066
| 22> H 	 61.6942 	 16.0252 	 73.581
| 23> S 	 54.5856 	 11.3958 	 77.8653
| 24> C 	 54.5711 	 9.63146 	 77.8638
| 25> C 	 55.3765 	 9.14233 	 76.8511
| 26> C 	 56.093 	 10.1203 	 76.1144
| 27> C 	 55.8275 	 11.4137 	 76.6087
| 28> H 	 55.375 	 8.1556 	 76.6157
| 29> C 	 57.0009 	 9.71686 	 75.0484
| 30> H 	 57.0765 	 10.3843 	 74.2396
| 31> H 	 56.5322 	 8.87411 	 74.6021
| 32> C 	 58.3825 	 9.23385 	 75.6972
| 33> H 	 58.1709 	 8.40494 	 76.3845
| 34> H 	 58.8774 	 10.0711 	 76.2004
| 35> C 	 59.326 	 8.53458 	 74.6692
| 36> H 	 60.3623 	 8.48019 	 75.0783
| 37> H 	 59.4413 	 9.06437 	 73.6446
| 38> H 	 58.9465 	 7.55733 	 74.4454
| 39> H 	 56.6506 	 16.2019 	 75.2856
| 40> H 	 53.7276 	 9.04976 	 78.34
| 41> *
| 42>
| 43>                          ****END OF INPUT****

CARTESIAN COORDINATES (ANGSTROEM)
---------------------------------
  S     55.272100   14.000400   75.735900
  C     56.681300   15.130100   75.589300
  C     57.924900   14.454400   75.779000
  C     57.656800   13.083800   76.186400
  C     56.345800   12.668300   76.160500
  H     58.387500   12.391600   76.593600
  C     59.250100   15.127300   75.714700
  H     60.064700   14.614600   76.364100
  H     59.091300   16.114300   76.203200
  C     59.877000   15.250000   74.415500
  H     59.844400   14.241000   73.934900
  H     59.298500   15.984800   73.844400
  C     61.310800   15.805600   74.558000
  H     61.466400   16.645800   75.226000
  H     61.957600   15.061000   74.906600
  H     61.694200   16.025200   73.581000
  S     54.585600   11.395800   77.865300
  C     54.571100    9.631460   77.863800
  C     55.376500    9.142330   76.851100
  C     56.093000   10.120300   76.114400
  C     55.827500   11.413700   76.608700
  H     55.375000    8.155600   76.615700
  C     57.000900    9.716860   75.048400
  H     57.076500   10.384300   74.239600
  H     56.532200    8.874110   74.602100
  C     58.382500    9.233850   75.697200
  H     58.170900    8.404940   76.384500
  H     58.877400   10.071100   76.200400
  C     59.326000    8.534580   74.669200
  H     60.362300    8.480190   75.078300
  H     59.441300    9.064370   73.644600
  H     58.946500    7.557330   74.445400
  H     56.650600   16.201900   75.285600
  H     53.727600    9.049760   78.340000

 Total Charge           Charge          ....    0
 Multiplicity           Mult            ....    1
 Number of Electrons    NEL             ....  134
 Basis Dimension        Dim             ....  322

ORBITAL ENERGIES
----------------

  NO   OCC          E(Eh)            E(eV)
   0   2.0000     -88.967823     -2420.9375
   1   2.0000     -88.964990     -2420.8605
   2   2.0000     -10.326256      -280.9917
   3   2.0000     -10.325599      -280.9738
   4   2.0000     -10.325396      -280.9683
   5   2.0000     -10.321405      -280.8597
   6   2.0000     -10.308567      -280.5104
   7   2.0000     -10.300710      -280.2966
   8   2.0000     -10.296902      -280.1930
   9   2.0000     -10.296031      -280.1692
  10   2.0000     -10.293846      -280.1098
  11   2.0000     -10.287279      -279.9311
  12   2.0000     -10.286515      -279.9103
  13   2.0000     -10.286358      -279.9060
  14   2.0000     -10.286222      -279.9023
  15   2.0000     -10.273100      -279.5453
  16   2.0000      -8.081193      -219.9004
  17   2.0000      -8.079217      -219.8467
  18   2.0000      -6.039904      -164.3542
  19   2.0000      -6.037731      -164.2950
  20   2.0000      -6.035888      -164.2449
  21   2.0000      -6.033787      -164.1877
  22   2.0000      -6.031812      -164.1339
  23   2.0000      -6.030027      -164.0854
  24   2.0000      -1.001820       -27.2609
  25   2.0000      -0.975349       -26.5406
  26   2.0000      -0.924667       -25.1615
  27   2.0000      -0.908698       -24.7269
  28   2.0000      -0.869218       -23.6526
  29   2.0000      -0.849856       -23.1258
  30   2.0000      -0.843100       -22.9419
  31   2.0000      -0.813247       -22.1296
  32   2.0000      -0.784975       -21.3603
  33   2.0000      -0.768504       -20.9121
  34   2.0000      -0.704372       -19.1669
  35   2.0000      -0.699959       -19.0469
  36   2.0000      -0.694949       -18.9105
  37   2.0000      -0.666223       -18.1289
  38   2.0000      -0.639180       -17.3930
  39   2.0000      -0.614911       -16.7326
  40   2.0000      -0.597806       -16.2671
  41   2.0000      -0.577407       -15.7120
  42   2.0000      -0.568369       -15.4661
  43   2.0000      -0.560239       -15.2449
  44   2.0000      -0.527370       -14.3505
  45   2.0000      -0.525359       -14.2958
  46   2.0000      -0.521640       -14.1946
  47   2.0000      -0.509083       -13.8529
  48   2.0000      -0.505352       -13.7513
  49   2.0000      -0.495223       -13.4757
  50   2.0000      -0.493606       -13.4317
  51   2.0000      -0.472881       -12.8677
  52   2.0000      -0.468009       -12.7352
  53   2.0000      -0.459295       -12.4981
  54   2.0000      -0.456318       -12.4171
  55   2.0000      -0.450635       -12.2624
  56   2.0000      -0.444664       -12.0999
  57   2.0000      -0.439718       -11.9653
  58   2.0000      -0.431762       -11.7488
  59   2.0000      -0.429843       -11.6966
  60   2.0000      -0.425030       -11.5656
  61   2.0000      -0.423153       -11.5146
  62   2.0000      -0.410356       -11.1664
  63   2.0000      -0.341799        -9.3008
  64   2.0000      -0.328804        -8.9472
  65   2.0000      -0.327773        -8.9191
  66   2.0000      -0.290904        -7.9159
  67   0.0000       0.025443         0.6923
  68   0.0000       0.064263         1.7487
  69   0.0000       0.106392         2.8951
  70   0.0000       0.121032         3.2934
  71   0.0000       0.126948         3.4544

MULLIKEN ATOMIC CHARGES
-----------------------
   0 S :    0.105333
   1 C :   -0.136675
   2 C :   -0.062555
   3 C :    0.028431
   4 C :   -0.153848
   5 H :    0.011402
   6 C :   -0.008979
   7 H :    0.029780
   8 H :    0.035972
   9 C :   -0.059171
  10 H :    0.040501
  11 H :    0.023843
  12 C :   -0.014247
  13 H :    0.030871
  14 H :    0.014102
  15 H :    0.025549
  16 S :    0.105075
  17 C :   -0.108479
  18 C :   -0.002922
  19 C :   -0.025409
  20 C :   -0.174261
  21 H :   -0.022510
  22 C :    0.119999
  23 H :    0.018616
  24 H :    0.001607
  25 C :   -0.088819
  26 H :    0.038757
  27 H :    0.039225
  28 C :   -0.073939
  29 H :    0.044509
  30 H :    0.038572
  31 H :    0.030676
  32 H :    0.064804
  33 H :    0.084190
Sum of atomic charges:   -0.0000000

LOEWDIN ATOMIC CHARGES
----------------------
   0 S :    0.377684
   1 C :   -0.187782
   2 C :   -0.057502
   3 C :   -0.060075
   4 C :   -0.194154
   5 H :    0.029666
   6 C :   -0.051170
   7 H :    0.037026
   8 H :    0.035625
   9 C :   -0.041660
  10 H :    0.033760
  11 H :    0.022648
  12 C :   -0.060070
  13 H :    0.027239
  14 H :    0.018051
  15 H :    0.025468
  16 S :    0.394930
  17 C :   -0.191675
  18 C :   -0.058578
  19 C :   -0.046807
  20 C :   -0.199970
  21 H :    0.012854
  22 C :   -0.026169
  23 H :    0.025884
  24 H :    0.029239
  25 C :   -0.028819
  26 H :    0.029854
  27 H :    0.021847
  28 C :   -0.076683
  29 H :    0.030882
  30 H :    0.030314
  31 H :    0.018998
  32 H :    0.035588
  33 H :    0.043557

  Mayer bond orders larger than 0.100000
B(  0-S ,  1-C ) :   1.1278 B(  0-S ,  4-C ) :   1.1249 B(  1-C ,  2-C ) :   1.6126
B(  1-C , 32-H ) :   0.9601 B(  2-C ,  3-C ) :   1.2238 B(  2-C ,  6-C ) :   1.0199
B(  3-C ,  4-C ) :   1.5993 B(  3-C ,  5-H ) :   0.9871 B(  4-C , 20-C ) :   1.0675
B(  6-C ,  7-H ) :   0.9458 B(  6-C ,  8-H ) :   0.9347 B(  6-C ,  9-C ) :   1.0749
B(  9-C , 10-H ) :   0.9503 B(  9-C , 11-H ) :   0.9504 B(  9-C , 12-C ) :   1.0822
B( 12-C , 13-H ) :   0.9733 B( 12-C , 14-H ) :   0.9698 B( 12-C , 15-H ) :   0.9723
B( 16-S , 17-C ) :   1.1501 B( 16-S , 20-C ) :   1.1395 B( 17-C , 18-C ) :   1.5952
B( 17-C , 20-C ) :   0.1001 B( 17-C , 33-H ) :   0.9564 B( 18-C , 19-C ) :   1.2585
B( 18-C , 21-H ) :   0.9981 B( 19-C , 20-C ) :   1.5523 B( 19-C , 22-C ) :   1.0721
B( 22-C , 23-H ) :   0.9240 B( 22-C , 24-H ) :   0.9214 B( 22-C , 25-C ) :   1.0455
B( 25-C , 26-H ) :   0.9591 B( 25-C , 27-H ) :   0.9608 B( 25-C , 28-C ) :   1.0699
B( 28-C , 29-H ) :   0.9747 B( 28-C , 30-H ) :   0.9754 B( 28-C , 31-H ) :   0.9786

Dispersion correction           -0.013792984
FINAL SINGLE POINT ENERGY     -1339.864780433396

DIPOLE MOMENT
-------------
                                X             Y             Z
Electronic contribution:    -29.25781       2.68862      11.87438
Nuclear contribution   :     29.84353      -2.95753     -12.17062
                        -----------------------------------------
Total Dipole Moment    :      0.58572      -0.26891      -0.29624
                        -----------------------------------------
Magnitude (a.u.)       :      0.70933
Magnitude (Debye)      :      1.80297

Rotational constants in cm-1:     0.017682     0.008647     0.006215
Rotational constants in MHz :   530.097681   259.226047   186.326213

                             ****ORCA TERMINATED NORMALLY****
TOTAL RUN TIME: 0 days 0 hours 0 minutes 27 seconds 952 msec
