                         Program Version 4.2.1 -  RELEASE  -
|  1> ! wB97X-D3 SP def2-SVP
|  2> %pal
|  3> nprocs 16
|  4> end
|  5>
|  6> * xyz 0 1
|  7> S 	 0.57126 	 -7.97314 	 82.3755
|  8> C 	 -0.90956 	 -8.65738 	 81.7184
|  9> C 	 -1.63795 	 -9.29326 	 82.7552
| 10> C 	 -0.999234 	 -9.21242 	 84.0511
| 11> C 	 0.177675 	 -8.49364 	 84.0433
| 12> H 	 -1.33895 	 -9.7325 	 84.954
| 13> C 	 -2.79654 	 -10.2884 	 82.5915
| 14> H 	 -2.21928 	 -11.1851 	 82.4413
| 15> H 	 -3.27469 	 -10.0211 	 81.616
| 16> C 	 -3.8649 	 -10.5794 	 83.6905
| 17> H 	 -4.51949 	 -11.3428 	 83.3983
| 18> H 	 -3.36794 	 -10.9323 	 84.5227
| 19> C 	 -4.69029 	 -9.32199 	 84.0527
| 20> H 	 -5.32289 	 -9.58223 	 84.8621
| 21> H 	 -4.08471 	 -8.46357 	 84.4028
| 22> H 	 -5.20234 	 -8.9 	 83.1533
| 23> S 	 2.33583 	 -9.89886 	 84.9949
| 24> C 	 2.88916 	 -9.75461 	 86.6409
| 25> C 	 2.20132 	 -8.69782 	 87.2682
| 26> C 	 1.26547 	 -8.02287 	 86.408
| 27> C 	 1.14471 	 -8.54837 	 85.1394
| 28> H 	 2.53627 	 -8.43913 	 88.2055
| 29> C 	 0.386121 	 -6.91235 	 86.9726
| 30> H 	 0.361761 	 -7.04974 	 88.044
| 31> H 	 -0.644779 	 -7.04449 	 86.7319
| 32> C 	 0.847101 	 -5.4524 	 86.8435
| 33> H 	 0.282269 	 -4.98043 	 87.6613
| 34> H 	 0.572246 	 -5.18168 	 85.7643
| 35> C 	 2.3261 	 -5.15602 	 87.152
| 36> H 	 2.50502 	 -4.11814 	 87.0016
| 37> H 	 3.05359 	 -5.6987 	 86.5215
| 38> H 	 2.63592 	 -5.48476 	 88.1438
| 39> H 	 -1.27654 	 -8.68808 	 80.7288
| 40> H 	 3.6134 	 -10.295 	 87.1946
| 41> *
| 42>
| 43>                          ****END OF INPUT****

CARTESIAN COORDINATES (ANGSTROEM)
---------------------------------
  S      0.571260   -7.973140   82.375500
  C     -0.909560   -8.657380   81.718400
  C     -1.637950   -9.293260   82.755200
  C     -0.999234   -9.212420   84.051100
  C      0.177675   -8.493640   84.043300
  H     -1.338950   -9.732500   84.954000
  C     -2.796540  -10.288400   82.591500
  H     -2.219280  -11.185100   82.441300
  H     -3.274690  -10.021100   81.616000
  C     -3.864900  -10.579400   83.690500
  H     -4.519490  -11.342800   83.398300
  H     -3.367940  -10.932300   84.522700
  C     -4.690290   -9.321990   84.052700
  H     -5.322890   -9.582230   84.862100
  H     -4.084710   -8.463570   84.402800
  H     -5.202340   -8.900000   83.153300
  S      2.335830   -9.898860   84.994900
  C      2.889160   -9.754610   86.640900
  C      2.201320   -8.697820   87.268200
  C      1.265470   -8.022870   86.408000
  C      1.144710   -8.548370   85.139400
  H      2.536270   -8.439130   88.205500
  C      0.386121   -6.912350   86.972600
  H      0.361761   -7.049740   88.044000
  H     -0.644779   -7.044490   86.731900
  C      0.847101   -5.452400   86.843500
  H      0.282269   -4.980430   87.661300
  H      0.572246   -5.181680   85.764300
  C      2.326100   -5.156020   87.152000
  H      2.505020   -4.118140   87.001600
  H      3.053590   -5.698700   86.521500
  H      2.635920   -5.484760   88.143800
  H     -1.276540   -8.688080   80.728800
  H      3.613400  -10.295000   87.194600

 Total Charge           Charge          ....    0
 Multiplicity           Mult            ....    1
 Number of Electrons    NEL             ....  134
 Basis Dimension        Dim             ....  322

ORBITAL ENERGIES
----------------

  NO   OCC          E(Eh)            E(eV)
   0   2.0000     -88.970278     -2421.0044
   1   2.0000     -88.962196     -2420.7844
   2   2.0000     -10.334456      -281.2149
   3   2.0000     -10.330313      -281.1021
   4   2.0000     -10.318635      -280.7843
   5   2.0000     -10.318557      -280.7822
   6   2.0000     -10.308443      -280.5070
   7   2.0000     -10.306970      -280.4669
   8   2.0000     -10.297995      -280.2227
   9   2.0000     -10.296162      -280.1728
  10   2.0000     -10.291145      -280.0363
  11   2.0000     -10.289925      -280.0031
  12   2.0000     -10.284077      -279.8439
  13   2.0000     -10.283165      -279.8192
  14   2.0000     -10.278447      -279.6908
  15   2.0000     -10.273806      -279.5645
  16   2.0000      -8.083706      -219.9688
  17   2.0000      -8.076260      -219.7662
  18   2.0000      -6.042436      -164.4231
  19   2.0000      -6.038313      -164.3109
  20   2.0000      -6.034870      -164.2172
  21   2.0000      -6.034375      -164.2037
  22   2.0000      -6.030663      -164.1027
  23   2.0000      -6.027108      -164.0060
  24   2.0000      -0.998897       -27.1814
  25   2.0000      -0.976374       -26.5685
  26   2.0000      -0.907456       -24.6931
  27   2.0000      -0.904782       -24.6204
  28   2.0000      -0.870079       -23.6761
  29   2.0000      -0.845934       -23.0190
  30   2.0000      -0.841962       -22.9109
  31   2.0000      -0.814374       -22.1602
  32   2.0000      -0.784465       -21.3464
  33   2.0000      -0.773519       -21.0485
  34   2.0000      -0.714093       -19.4315
  35   2.0000      -0.703686       -19.1483
  36   2.0000      -0.684338       -18.6218
  37   2.0000      -0.665109       -18.0985
  38   2.0000      -0.636672       -17.3247
  39   2.0000      -0.618745       -16.8369
  40   2.0000      -0.587539       -15.9877
  41   2.0000      -0.569718       -15.5028
  42   2.0000      -0.558506       -15.1977
  43   2.0000      -0.554522       -15.0893
  44   2.0000      -0.541991       -14.7483
  45   2.0000      -0.537828       -14.6350
  46   2.0000      -0.522394       -14.2151
  47   2.0000      -0.514988       -14.0135
  48   2.0000      -0.509647       -13.8682
  49   2.0000      -0.490162       -13.3380
  50   2.0000      -0.485096       -13.2001
  51   2.0000      -0.479429       -13.0459
  52   2.0000      -0.470984       -12.8161
  53   2.0000      -0.467506       -12.7215
  54   2.0000      -0.453476       -12.3397
  55   2.0000      -0.448230       -12.1969
  56   2.0000      -0.440271       -11.9804
  57   2.0000      -0.432501       -11.7689
  58   2.0000      -0.430653       -11.7187
  59   2.0000      -0.427499       -11.6329
  60   2.0000      -0.417300       -11.3553
  61   2.0000      -0.409190       -11.1346
  62   2.0000      -0.406680       -11.0663
  63   2.0000      -0.339999        -9.2518
  64   2.0000      -0.327445        -8.9102
  65   2.0000      -0.319029        -8.6812
  66   2.0000      -0.305426        -8.3111
  67   0.0000       0.036018         0.9801
  68   0.0000       0.049037         1.3344
  69   0.0000       0.115421         3.1408
  70   0.0000       0.120059         3.2670
  71   0.0000       0.129491         3.5236

MULLIKEN ATOMIC CHARGES
-----------------------
   0 S :    0.113038
   1 C :   -0.096367
   2 C :   -0.103460
   3 C :    0.033849
   4 C :   -0.154890
   5 H :    0.031387
   6 C :    0.008015
   7 H :    0.049385
   8 H :    0.025095
   9 C :    0.000077
  10 H :    0.023600
  11 H :    0.006954
  12 C :   -0.070178
  13 H :    0.032914
  14 H :    0.035878
  15 H :    0.038283
  16 S :    0.097717
  17 C :   -0.070218
  18 C :   -0.029369
  19 C :   -0.031256
  20 C :   -0.158716
  21 H :   -0.010989
  22 C :    0.076661
  23 H :   -0.003216
  24 H :    0.023860
  25 C :   -0.081469
  26 H :    0.037501
  27 H :    0.050670
  28 C :   -0.045723
  29 H :    0.035671
  30 H :    0.037521
  31 H :    0.017577
  32 H :    0.035320
  33 H :    0.044878
Sum of atomic charges:    0.0000000

LOEWDIN ATOMIC CHARGES
----------------------
   0 S :    0.394271
   1 C :   -0.197585
   2 C :   -0.059207
   3 C :   -0.054049
   4 C :   -0.196427
   5 H :    0.037256
   6 C :   -0.035268
   7 H :    0.037482
   8 H :    0.029467
   9 C :   -0.028281
  10 H :    0.024556
  11 H :    0.012569
  12 C :   -0.066418
  13 H :    0.020801
  14 H :    0.028456
  15 H :    0.030585
  16 S :    0.390718
  17 C :   -0.177776
  18 C :   -0.068939
  19 C :   -0.051726
  20 C :   -0.185485
  21 H :    0.015124
  22 C :   -0.036900
  23 H :    0.024873
  24 H :    0.028227
  25 C :   -0.039086
  26 H :    0.030623
  27 H :    0.033801
  28 C :   -0.068798
  29 H :    0.024899
  30 H :    0.028948
  31 H :    0.021570
  32 H :    0.024524
  33 H :    0.027195

  Mayer bond orders larger than 0.100000
B(  0-S ,  1-C ) :   1.1322 B(  0-S ,  4-C ) :   1.1378 B(  1-C ,  2-C ) :   1.6096
B(  1-C , 32-H ) :   0.9725 B(  2-C ,  3-C ) :   1.2331 B(  2-C ,  6-C ) :   1.0062
B(  3-C ,  4-C ) :   1.5876 B(  3-C ,  5-H ) :   0.9870 B(  4-C , 20-C ) :   1.0174
B(  6-C ,  7-H ) :   0.9416 B(  6-C ,  8-H ) :   0.9444 B(  6-C ,  9-C ) :   1.0780
B(  9-C , 10-H ) :   0.9504 B(  9-C , 11-H ) :   0.9464 B(  9-C , 12-C ) :   1.0806
B( 12-C , 13-H ) :   0.9757 B( 12-C , 14-H ) :   0.9753 B( 12-C , 15-H ) :   0.9764
B( 16-S , 17-C ) :   1.1651 B( 16-S , 20-C ) :   1.1154 B( 17-C , 18-C ) :   1.6115
B( 17-C , 33-H ) :   0.9691 B( 18-C , 19-C ) :   1.2348 B( 18-C , 21-H ) :   1.0000
B( 19-C , 20-C ) :   1.6157 B( 19-C , 22-C ) :   1.0354 B( 22-C , 23-H ) :   0.9311
B( 22-C , 24-H ) :   0.9391 B( 22-C , 25-C ) :   1.0680 B( 25-C , 26-H ) :   0.9562
B( 25-C , 27-H ) :   0.9567 B( 25-C , 28-C ) :   1.0874 B( 28-C , 29-H ) :   0.9741
B( 28-C , 30-H ) :   0.9685 B( 28-C , 31-H ) :   0.9723

Dispersion correction           -0.014472065
FINAL SINGLE POINT ENERGY     -1339.855193567408

DIPOLE MOMENT
-------------
                                X             Y             Z
Electronic contribution:     16.61196      -6.76537     -10.51028
Nuclear contribution   :    -17.05083       6.51336      10.93973
                        -----------------------------------------
Total Dipole Moment    :     -0.43887      -0.25201       0.42944
                        -----------------------------------------
Magnitude (a.u.)       :      0.66373
Magnitude (Debye)      :      1.68706

Rotational constants in cm-1:     0.019134     0.007908     0.007407
Rotational constants in MHz :   573.615863   237.086607   222.070826

                             ****ORCA TERMINATED NORMALLY****
TOTAL RUN TIME: 0 days 0 hours 0 minutes 31 seconds 628 msec
