                         Program Version 4.2.1 -  RELEASE  -
|  1> ! wB97X-D3 SP def2-SVP
|  2> %pal
|  3> nprocs 16
|  4> end
|  5>
|  6> * xyz 0 1
|  7> S 	 48.2618 	 24.8612 	 42.8753
|  8> C 	 46.9672 	 25.2993 	 41.7043
|  9> C 	 45.691 	 25.141 	 42.2026
| 10> C 	 45.7772 	 24.9111 	 43.636
| 11> C 	 47.0816 	 24.7358 	 44.1475
| 12> H 	 44.9523 	 24.7712 	 44.3777
| 13> C 	 44.4507 	 25.286 	 41.329
| 14> H 	 44.7969 	 25.94 	 40.5242
| 15> H 	 43.6289 	 25.7568 	 41.8923
| 16> C 	 43.7527 	 24.0088 	 40.7188
| 17> H 	 43.4586 	 23.3397 	 41.4997
| 18> H 	 42.7862 	 24.4039 	 40.3314
| 19> C 	 44.6178 	 23.2474 	 39.6919
| 20> H 	 44.3899 	 22.2108 	 39.7029
| 21> H 	 44.48 	 23.687 	 38.7244
| 22> H 	 45.68 	 23.4013 	 39.97
| 23> S 	 48.3635 	 26.0802 	 46.1783
| 24> C 	 48.0064 	 25.6498 	 47.8461
| 25> C 	 47.3933 	 24.4485 	 47.9013
| 26> C 	 47.0911 	 23.9326 	 46.5829
| 27> C 	 47.4867 	 24.7491 	 45.5374
| 28> H 	 47.1963 	 24.2059 	 48.908
| 29> C 	 46.4817 	 22.5504 	 46.5083
| 30> H 	 45.5247 	 22.5236 	 46.008
| 31> H 	 46.2654 	 22.246 	 47.5418
| 32> C 	 47.4208 	 21.5189 	 45.9918
| 33> H 	 47.685 	 21.8101 	 44.9917
| 34> H 	 46.9209 	 20.6113 	 45.6993
| 35> C 	 48.6158 	 21.221 	 46.9892
| 36> H 	 49.4621 	 21.9144 	 47.2435
| 37> H 	 48.9437 	 20.2596 	 46.5951
| 38> H 	 48.0848 	 21.0157 	 47.936
| 39> H 	 47.0632 	 25.432 	 40.6147
| 40> H 	 48.3807 	 26.2077 	 48.7561
| 41> *
| 42>
| 43>                          ****END OF INPUT****

CARTESIAN COORDINATES (ANGSTROEM)
---------------------------------
  S     48.261800   24.861200   42.875300
  C     46.967200   25.299300   41.704300
  C     45.691000   25.141000   42.202600
  C     45.777200   24.911100   43.636000
  C     47.081600   24.735800   44.147500
  H     44.952300   24.771200   44.377700
  C     44.450700   25.286000   41.329000
  H     44.796900   25.940000   40.524200
  H     43.628900   25.756800   41.892300
  C     43.752700   24.008800   40.718800
  H     43.458600   23.339700   41.499700
  H     42.786200   24.403900   40.331400
  C     44.617800   23.247400   39.691900
  H     44.389900   22.210800   39.702900
  H     44.480000   23.687000   38.724400
  H     45.680000   23.401300   39.970000
  S     48.363500   26.080200   46.178300
  C     48.006400   25.649800   47.846100
  C     47.393300   24.448500   47.901300
  C     47.091100   23.932600   46.582900
  C     47.486700   24.749100   45.537400
  H     47.196300   24.205900   48.908000
  C     46.481700   22.550400   46.508300
  H     45.524700   22.523600   46.008000
  H     46.265400   22.246000   47.541800
  C     47.420800   21.518900   45.991800
  H     47.685000   21.810100   44.991700
  H     46.920900   20.611300   45.699300
  C     48.615800   21.221000   46.989200
  H     49.462100   21.914400   47.243500
  H     48.943700   20.259600   46.595100
  H     48.084800   21.015700   47.936000
  H     47.063200   25.432000   40.614700
  H     48.380700   26.207700   48.756100

 Total Charge           Charge          ....    0
 Multiplicity           Mult            ....    1
 Number of Electrons    NEL             ....  134
 Basis Dimension        Dim             ....  322

ORBITAL ENERGIES
----------------

  NO   OCC          E(Eh)            E(eV)
   0   2.0000     -88.969528     -2420.9839
   1   2.0000     -88.960257     -2420.7317
   2   2.0000     -10.332846      -281.1710
   3   2.0000     -10.323728      -280.9229
   4   2.0000     -10.319432      -280.8060
   5   2.0000     -10.317633      -280.7571
   6   2.0000     -10.308122      -280.4983
   7   2.0000     -10.304455      -280.3985
   8   2.0000     -10.304069      -280.3880
   9   2.0000     -10.300520      -280.2914
  10   2.0000     -10.291581      -280.0481
  11   2.0000     -10.288604      -279.9671
  12   2.0000     -10.281941      -279.7858
  13   2.0000     -10.281903      -279.7848
  14   2.0000     -10.279052      -279.7072
  15   2.0000     -10.275423      -279.6085
  16   2.0000      -8.083483      -219.9628
  17   2.0000      -8.075810      -219.7540
  18   2.0000      -6.042089      -164.4136
  19   2.0000      -6.038136      -164.3060
  20   2.0000      -6.034356      -164.2032
  21   2.0000      -6.034145      -164.1974
  22   2.0000      -6.030132      -164.0882
  23   2.0000      -6.026519      -163.9899
  24   2.0000      -1.008102       -27.4319
  25   2.0000      -0.981831       -26.7170
  26   2.0000      -0.910489       -24.7757
  27   2.0000      -0.909147       -24.7392
  28   2.0000      -0.872726       -23.7481
  29   2.0000      -0.844609       -22.9830
  30   2.0000      -0.839271       -22.8377
  31   2.0000      -0.813806       -22.1448
  32   2.0000      -0.785728       -21.3807
  33   2.0000      -0.772348       -21.0167
  34   2.0000      -0.716921       -19.5084
  35   2.0000      -0.699802       -19.0426
  36   2.0000      -0.688245       -18.7281
  37   2.0000      -0.657389       -17.8885
  38   2.0000      -0.635351       -17.2888
  39   2.0000      -0.612928       -16.6786
  40   2.0000      -0.587519       -15.9872
  41   2.0000      -0.573524       -15.6064
  42   2.0000      -0.555073       -15.1043
  43   2.0000      -0.549351       -14.9486
  44   2.0000      -0.543454       -14.7881
  45   2.0000      -0.540029       -14.6949
  46   2.0000      -0.522209       -14.2100
  47   2.0000      -0.510134       -13.8814
  48   2.0000      -0.503728       -13.7071
  49   2.0000      -0.490399       -13.3444
  50   2.0000      -0.483083       -13.1454
  51   2.0000      -0.474812       -12.9203
  52   2.0000      -0.472386       -12.8543
  53   2.0000      -0.464955       -12.6521
  54   2.0000      -0.459758       -12.5107
  55   2.0000      -0.444454       -12.0942
  56   2.0000      -0.434256       -11.8167
  57   2.0000      -0.432028       -11.7561
  58   2.0000      -0.429523       -11.6879
  59   2.0000      -0.426341       -11.6013
  60   2.0000      -0.422593       -11.4993
  61   2.0000      -0.420808       -11.4508
  62   2.0000      -0.403574       -10.9818
  63   2.0000      -0.345623        -9.4049
  64   2.0000      -0.331623        -9.0239
  65   2.0000      -0.324737        -8.8365
  66   2.0000      -0.298625        -8.1260
  67   0.0000       0.031236         0.8500
  68   0.0000       0.064194         1.7468
  69   0.0000       0.105226         2.8634
  70   0.0000       0.119486         3.2514
  71   0.0000       0.129882         3.5343

MULLIKEN ATOMIC CHARGES
-----------------------
   0 S :    0.110957
   1 C :   -0.124947
   2 C :   -0.086148
   3 C :    0.035294
   4 C :   -0.190980
   5 H :    0.028671
   6 C :    0.032582
   7 H :    0.029693
   8 H :    0.034251
   9 C :   -0.069455
  10 H :    0.021916
  11 H :    0.034719
  12 C :   -0.034189
  13 H :    0.034955
  14 H :    0.030472
  15 H :    0.032634
  16 S :    0.105664
  17 C :   -0.134700
  18 C :   -0.016280
  19 C :   -0.045506
  20 C :   -0.122776
  21 H :    0.006679
  22 C :    0.093963
  23 H :    0.019695
  24 H :    0.003828
  25 C :   -0.048571
  26 H :    0.013641
  27 H :    0.012798
  28 C :   -0.060937
  29 H :    0.068268
  30 H :    0.031951
  31 H :    0.018789
  32 H :    0.054832
  33 H :    0.078236
Sum of atomic charges:    0.0000000

LOEWDIN ATOMIC CHARGES
----------------------
   0 S :    0.392234
   1 C :   -0.188033
   2 C :   -0.064551
   3 C :   -0.058762
   4 C :   -0.200742
   5 H :    0.036994
   6 C :   -0.031551
   7 H :    0.032245
   8 H :    0.035590
   9 C :   -0.037042
  10 H :    0.018866
  11 H :    0.027659
  12 C :   -0.064151
  13 H :    0.023893
  14 H :    0.023572
  15 H :    0.029977
  16 S :    0.411532
  17 C :   -0.186321
  18 C :   -0.076643
  19 C :   -0.049295
  20 C :   -0.218547
  21 H :    0.030713
  22 C :   -0.035719
  23 H :    0.027375
  24 H :    0.025042
  25 C :   -0.040156
  26 H :    0.019303
  27 H :    0.024198
  28 C :   -0.070537
  29 H :    0.036784
  30 H :    0.027942
  31 H :    0.023897
  32 H :    0.029807
  33 H :    0.044428

  Mayer bond orders larger than 0.100000
B(  0-S ,  1-C ) :   1.1265 B(  0-S ,  4-C ) :   1.1386 B(  1-C ,  2-C ) :   1.6326
B(  1-C , 32-H ) :   0.9543 B(  2-C ,  3-C ) :   1.2138 B(  2-C ,  6-C ) :   1.0230
B(  3-C ,  4-C ) :   1.6024 B(  3-C ,  5-H ) :   0.9819 B(  4-C , 20-C ) :   1.0284
B(  6-C ,  7-H ) :   0.9450 B(  6-C ,  8-H ) :   0.9416 B(  6-C ,  9-C ) :   1.0642
B(  9-C , 10-H ) :   0.9603 B(  9-C , 11-H ) :   0.9598 B(  9-C , 12-C ) :   1.0606
B( 12-C , 13-H ) :   0.9771 B( 12-C , 14-H ) :   0.9769 B( 12-C , 15-H ) :   0.9774
B( 16-S , 17-C ) :   1.1558 B( 16-S , 20-C ) :   1.1342 B( 17-C , 18-C ) :   1.6410
B( 17-C , 33-H ) :   0.9551 B( 18-C , 19-C ) :   1.2077 B( 18-C , 21-H ) :   1.0020
B( 19-C , 20-C ) :   1.5948 B( 19-C , 22-C ) :   1.0446 B( 22-C , 23-H ) :   0.9215
B( 22-C , 24-H ) :   0.9375 B( 22-C , 25-C ) :   1.0948 B( 25-C , 26-H ) :   0.9494
B( 25-C , 27-H ) :   0.9515 B( 25-C , 28-C ) :   1.0454 B( 28-C , 29-H ) :   0.9772
B( 28-C , 30-H ) :   0.9767 B( 28-C , 31-H ) :   0.9741

Dispersion correction           -0.014639923
FINAL SINGLE POINT ENERGY     -1339.857403735404

DIPOLE MOMENT
-------------
                                X             Y             Z
Electronic contribution:     13.53839      17.32671       6.82205
Nuclear contribution   :    -14.13649     -17.66157      -6.75938
                        -----------------------------------------
Total Dipole Moment    :     -0.59810      -0.33487       0.06267
                        -----------------------------------------
Magnitude (a.u.)       :      0.68832
Magnitude (Debye)      :      1.74957

Rotational constants in cm-1:     0.022204     0.007836     0.006876
Rotational constants in MHz :   665.644801   234.927955   206.144983

                             ****ORCA TERMINATED NORMALLY****
TOTAL RUN TIME: 0 days 0 hours 0 minutes 34 seconds 97 msec
