                         Program Version 4.2.1 -  RELEASE  -
|  1> ! wB97X-D3 SP def2-SVP
|  2> %pal
|  3> nprocs 16
|  4> end
|  5>
|  6> * xyz 0 1
|  7> S 	 -78.0437 	 49.9206 	 124.865
|  8> C 	 -79.7919 	 49.8141 	 124.99
|  9> C 	 -80.1966 	 48.6099 	 124.369
| 10> C 	 -79.1597 	 47.9033 	 123.673
| 11> C 	 -77.9213 	 48.4801 	 123.958
| 12> H 	 -79.2682 	 47.0034 	 123.207
| 13> C 	 -81.5221 	 47.951 	 124.364
| 14> H 	 -81.8361 	 47.7414 	 123.331
| 15> H 	 -82.2214 	 48.7365 	 124.699
| 16> C 	 -81.6446 	 46.7481 	 125.37
| 17> H 	 -82.6633 	 46.4499 	 125.672
| 18> H 	 -81.1555 	 45.9107 	 124.908
| 19> C 	 -81.1503 	 47.0969 	 126.778
| 20> H 	 -81.7037 	 47.9229 	 127.26
| 21> H 	 -81.1354 	 46.1921 	 127.31
| 22> H 	 -80.1018 	 47.4663 	 126.797
| 23> S 	 -75.5301 	 49.5151 	 123.273
| 24> C 	 -74.192 	 48.547 	 122.69
| 25> C 	 -74.6333 	 47.2718 	 122.369
| 26> C 	 -75.998 	 46.9987 	 122.838
| 27> C 	 -76.6143 	 48.1439 	 123.395
| 28> H 	 -73.9717 	 46.5368 	 122.008
| 29> C 	 -76.6281 	 45.6537 	 122.623
| 30> H 	 -76.0827 	 45.058 	 121.869
| 31> H 	 -77.6405 	 45.7935 	 122.113
| 32> C 	 -76.8956 	 44.8168 	 123.851
| 33> H 	 -77.5516 	 45.3587 	 124.535
| 34> H 	 -75.907 	 44.7582 	 124.389
| 35> C 	 -77.3923 	 43.433 	 123.402
| 36> H 	 -77.2758 	 42.6828 	 124.159
| 37> H 	 -76.8705 	 43.154 	 122.43
| 38> H 	 -78.4556 	 43.2721 	 123.127
| 39> H 	 -80.4406 	 50.4856 	 125.546
| 40> H 	 -73.2899 	 48.9307 	 122.302
| 41> *
| 42>
| 43>                          ****END OF INPUT****

CARTESIAN COORDINATES (ANGSTROEM)
---------------------------------
  S    -78.043700   49.920600  124.865000
  C    -79.791900   49.814100  124.990000
  C    -80.196600   48.609900  124.369000
  C    -79.159700   47.903300  123.673000
  C    -77.921300   48.480100  123.958000
  H    -79.268200   47.003400  123.207000
  C    -81.522100   47.951000  124.364000
  H    -81.836100   47.741400  123.331000
  H    -82.221400   48.736500  124.699000
  C    -81.644600   46.748100  125.370000
  H    -82.663300   46.449900  125.672000
  H    -81.155500   45.910700  124.908000
  C    -81.150300   47.096900  126.778000
  H    -81.703700   47.922900  127.260000
  H    -81.135400   46.192100  127.310000
  H    -80.101800   47.466300  126.797000
  S    -75.530100   49.515100  123.273000
  C    -74.192000   48.547000  122.690000
  C    -74.633300   47.271800  122.369000
  C    -75.998000   46.998700  122.838000
  C    -76.614300   48.143900  123.395000
  H    -73.971700   46.536800  122.008000
  C    -76.628100   45.653700  122.623000
  H    -76.082700   45.058000  121.869000
  H    -77.640500   45.793500  122.113000
  C    -76.895600   44.816800  123.851000
  H    -77.551600   45.358700  124.535000
  H    -75.907000   44.758200  124.389000
  C    -77.392300   43.433000  123.402000
  H    -77.275800   42.682800  124.159000
  H    -76.870500   43.154000  122.430000
  H    -78.455600   43.272100  123.127000
  H    -80.440600   50.485600  125.546000
  H    -73.289900   48.930700  122.302000

 Total Charge           Charge          ....    0
 Multiplicity           Mult            ....    1
 Number of Electrons    NEL             ....  134
 Basis Dimension        Dim             ....  322

ORBITAL ENERGIES
----------------

  NO   OCC          E(Eh)            E(eV)
   0   2.0000     -88.970275     -2421.0043
   1   2.0000     -88.964909     -2420.8583
   2   2.0000     -10.333108      -281.1782
   3   2.0000     -10.332705      -281.1672
   4   2.0000     -10.319301      -280.8024
   5   2.0000     -10.315105      -280.6883
   6   2.0000     -10.309886      -280.5463
   7   2.0000     -10.303375      -280.3691
   8   2.0000     -10.296453      -280.1807
   9   2.0000     -10.296195      -280.1737
  10   2.0000     -10.291738      -280.0524
  11   2.0000     -10.290983      -280.0319
  12   2.0000     -10.290412      -280.0164
  13   2.0000     -10.288640      -279.9681
  14   2.0000     -10.285457      -279.8815
  15   2.0000     -10.273255      -279.5495
  16   2.0000      -8.085429      -220.0157
  17   2.0000      -8.079681      -219.8593
  18   2.0000      -6.043982      -164.4651
  19   2.0000      -6.039713      -164.3489
  20   2.0000      -6.038311      -164.3108
  21   2.0000      -6.036253      -164.2548
  22   2.0000      -6.034073      -164.1955
  23   2.0000      -6.030399      -164.0955
  24   2.0000      -1.010945       -27.5092
  25   2.0000      -0.981921       -26.7194
  26   2.0000      -0.915489       -24.9117
  27   2.0000      -0.911699       -24.8086
  28   2.0000      -0.868610       -23.6361
  29   2.0000      -0.854255       -23.2455
  30   2.0000      -0.844286       -22.9742
  31   2.0000      -0.815895       -22.2016
  32   2.0000      -0.779846       -21.2207
  33   2.0000      -0.770653       -20.9705
  34   2.0000      -0.710942       -19.3457
  35   2.0000      -0.701148       -19.0792
  36   2.0000      -0.691932       -18.8284
  37   2.0000      -0.667080       -18.1522
  38   2.0000      -0.643964       -17.5232
  39   2.0000      -0.623668       -16.9709
  40   2.0000      -0.599036       -16.3006
  41   2.0000      -0.565971       -15.4009
  42   2.0000      -0.561935       -15.2910
  43   2.0000      -0.554176       -15.0799
  44   2.0000      -0.550719       -14.9858
  45   2.0000      -0.523057       -14.2331
  46   2.0000      -0.518975       -14.1220
  47   2.0000      -0.516126       -14.0445
  48   2.0000      -0.505108       -13.7447
  49   2.0000      -0.502220       -13.6661
  50   2.0000      -0.497017       -13.5245
  51   2.0000      -0.487809       -13.2740
  52   2.0000      -0.465086       -12.6556
  53   2.0000      -0.461765       -12.5653
  54   2.0000      -0.457472       -12.4484
  55   2.0000      -0.445955       -12.1350
  56   2.0000      -0.442781       -12.0487
  57   2.0000      -0.438070       -11.9205
  58   2.0000      -0.434704       -11.8289
  59   2.0000      -0.430314       -11.7094
  60   2.0000      -0.413016       -11.2387
  61   2.0000      -0.411803       -11.2057
  62   2.0000      -0.408160       -11.1066
  63   2.0000      -0.357930        -9.7398
  64   2.0000      -0.332695        -9.0531
  65   2.0000      -0.326198        -8.8763
  66   2.0000      -0.284437        -7.7399
  67   0.0000       0.016486         0.4486
  68   0.0000       0.081929         2.2294
  69   0.0000       0.097264         2.6467
  70   0.0000       0.110306         3.0016
  71   0.0000       0.124646         3.3918

MULLIKEN ATOMIC CHARGES
-----------------------
   0 S :    0.108418
   1 C :   -0.115051
   2 C :   -0.119890
   3 C :    0.055205
   4 C :   -0.102582
   5 H :   -0.030697
   6 C :    0.062582
   7 H :    0.040583
   8 H :    0.008421
   9 C :   -0.064858
  10 H :    0.037319
  11 H :    0.026860
  12 C :   -0.063897
  13 H :    0.035511
  14 H :    0.028435
  15 H :    0.041218
  16 S :    0.081954
  17 C :   -0.061424
  18 C :   -0.024302
  19 C :   -0.043748
  20 C :   -0.109926
  21 H :    0.010674
  22 C :   -0.019558
  23 H :    0.019232
  24 H :    0.038154
  25 C :   -0.053867
  26 H :    0.037235
  27 H :    0.036787
  28 C :   -0.054085
  29 H :    0.032291
  30 H :    0.031332
  31 H :    0.030879
  32 H :    0.051953
  33 H :    0.048841
Sum of atomic charges:   -0.0000000

LOEWDIN ATOMIC CHARGES
----------------------
   0 S :    0.429094
   1 C :   -0.209214
   2 C :   -0.054204
   3 C :   -0.055096
   4 C :   -0.195091
   5 H :    0.012553
   6 C :   -0.041723
   7 H :    0.033944
   8 H :    0.027764
   9 C :   -0.036456
  10 H :    0.031673
  11 H :    0.018114
  12 C :   -0.066303
  13 H :    0.027897
  14 H :    0.020956
  15 H :    0.026695
  16 S :    0.401952
  17 C :   -0.182156
  18 C :   -0.060207
  19 C :   -0.059166
  20 C :   -0.189298
  21 H :    0.024093
  22 C :   -0.045534
  23 H :    0.028556
  24 H :    0.033589
  25 C :   -0.043502
  26 H :    0.024695
  27 H :    0.032320
  28 C :   -0.074243
  29 H :    0.023414
  30 H :    0.032247
  31 H :    0.028509
  32 H :    0.031113
  33 H :    0.023014

  Mayer bond orders larger than 0.100000
B(  0-S ,  1-C ) :   1.1260 B(  0-S ,  4-C ) :   1.1776 B(  1-C ,  2-C ) :   1.5712
B(  1-C , 32-H ) :   0.9722 B(  2-C ,  3-C ) :   1.2536 B(  2-C ,  6-C ) :   1.0427
B(  3-C ,  4-C ) :   1.5167 B(  3-C ,  5-H ) :   1.0045 B(  4-C , 20-C ) :   1.0626
B(  6-C ,  7-H ) :   0.9447 B(  6-C ,  8-H ) :   0.9337 B(  6-C ,  9-C ) :   1.0514
B(  9-C , 10-H ) :   0.9617 B(  9-C , 11-H ) :   0.9589 B(  9-C , 12-C ) :   1.0692
B( 12-C , 13-H ) :   0.9767 B( 12-C , 14-H ) :   0.9734 B( 12-C , 15-H ) :   0.9687
B( 16-S , 17-C ) :   1.1479 B( 16-S , 20-C ) :   1.1433 B( 17-C , 18-C ) :   1.6086
B( 17-C , 33-H ) :   0.9690 B( 18-C , 19-C ) :   1.2526 B( 18-C , 21-H ) :   0.9902
B( 19-C , 20-C ) :   1.5703 B( 19-C , 22-C ) :   1.0487 B( 22-C , 23-H ) :   0.9356
B( 22-C , 24-H ) :   0.9354 B( 22-C , 25-C ) :   1.0601 B( 25-C , 26-H ) :   0.9536
B( 25-C , 27-H ) :   0.9520 B( 25-C , 28-C ) :   1.0665 B( 28-C , 29-H ) :   0.9753
B( 28-C , 30-H ) :   0.9727 B( 28-C , 31-H ) :   0.9729

Dispersion correction           -0.014983471
FINAL SINGLE POINT ENERGY     -1339.867062676602

DIPOLE MOMENT
-------------
                                X             Y             Z
Electronic contribution:     15.43192      24.99703      -4.05158
Nuclear contribution   :    -15.70601     -25.58944       3.95977
                        -----------------------------------------
Total Dipole Moment    :     -0.27409      -0.59242      -0.09181
                        -----------------------------------------
Magnitude (a.u.)       :      0.65918
Magnitude (Debye)      :      1.67549

Rotational constants in cm-1:     0.017787     0.010411     0.007063
Rotational constants in MHz :   533.248086   312.102042   211.756623

                             ****ORCA TERMINATED NORMALLY****
TOTAL RUN TIME: 0 days 0 hours 0 minutes 34 seconds 374 msec
