                         Program Version 4.2.1 -  RELEASE  -
|  1> ! wB97X-D3 SP def2-SVP
|  2> %pal
|  3> nprocs 16
|  4> end
|  5>
|  6> * xyz 0 1
|  7> S 	 10.714 	 20.7566 	 50.5076
|  8> C 	 11.7986 	 21.2633 	 51.8423
|  9> C 	 11.2691 	 22.2539 	 52.6258
| 10> C 	 10.1107 	 22.8353 	 52.0085
| 11> C 	 9.69692 	 22.1758 	 50.8528
| 12> H 	 9.59515 	 23.7992 	 52.325
| 13> C 	 12.0116 	 22.8338 	 53.8278
| 14> H 	 12.1304 	 23.911 	 53.5355
| 15> H 	 13.016 	 22.4058 	 53.9025
| 16> C 	 11.345 	 22.8397 	 55.1963
| 17> H 	 10.5317 	 23.6605 	 55.235
| 18> H 	 10.8397 	 21.8191 	 55.4328
| 19> C 	 12.2972 	 23.2081 	 56.4157
| 20> H 	 11.7268 	 23.2856 	 57.325
| 21> H 	 13.066 	 22.3788 	 56.4954
| 22> H 	 12.7746 	 24.175 	 56.185
| 23> S 	 8.94991 	 22.9617 	 48.2729
| 24> C 	 7.37654 	 23.436 	 47.9107
| 25> C 	 6.59256 	 23.3496 	 49.0851
| 26> C 	 7.32177 	 23.0157 	 50.2719
| 27> C 	 8.61921 	 22.6623 	 49.9609
| 28> H 	 5.56761 	 23.7644 	 48.9896
| 29> C 	 6.48578 	 22.7096 	 51.5338
| 30> H 	 5.52341 	 23.0884 	 51.2475
| 31> H 	 6.80118 	 23.2834 	 52.3591
| 32> C 	 6.40429 	 21.272 	 52.0291
| 33> H 	 5.48774 	 21.2425 	 52.6092
| 34> H 	 7.33754 	 21.0628 	 52.5604
| 35> C 	 6.31214 	 20.1481 	 50.9205
| 36> H 	 6.49395 	 19.0846 	 51.2809
| 37> H 	 7.0373 	 20.4418 	 50.0881
| 38> H 	 5.33749 	 20.1521 	 50.3991
| 39> H 	 12.7796 	 20.8085 	 52.0048
| 40> H 	 7.00265 	 23.9787 	 47.0192
| 41> *
| 42>
| 43>                          ****END OF INPUT****

CARTESIAN COORDINATES (ANGSTROEM)
---------------------------------
  S     10.714000   20.756600   50.507600
  C     11.798600   21.263300   51.842300
  C     11.269100   22.253900   52.625800
  C     10.110700   22.835300   52.008500
  C      9.696920   22.175800   50.852800
  H      9.595150   23.799200   52.325000
  C     12.011600   22.833800   53.827800
  H     12.130400   23.911000   53.535500
  H     13.016000   22.405800   53.902500
  C     11.345000   22.839700   55.196300
  H     10.531700   23.660500   55.235000
  H     10.839700   21.819100   55.432800
  C     12.297200   23.208100   56.415700
  H     11.726800   23.285600   57.325000
  H     13.066000   22.378800   56.495400
  H     12.774600   24.175000   56.185000
  S      8.949910   22.961700   48.272900
  C      7.376540   23.436000   47.910700
  C      6.592560   23.349600   49.085100
  C      7.321770   23.015700   50.271900
  C      8.619210   22.662300   49.960900
  H      5.567610   23.764400   48.989600
  C      6.485780   22.709600   51.533800
  H      5.523410   23.088400   51.247500
  H      6.801180   23.283400   52.359100
  C      6.404290   21.272000   52.029100
  H      5.487740   21.242500   52.609200
  H      7.337540   21.062800   52.560400
  C      6.312140   20.148100   50.920500
  H      6.493950   19.084600   51.280900
  H      7.037300   20.441800   50.088100
  H      5.337490   20.152100   50.399100
  H     12.779600   20.808500   52.004800
  H      7.002650   23.978700   47.019200

 Total Charge           Charge          ....    0
 Multiplicity           Mult            ....    1
 Number of Electrons    NEL             ....  134
 Basis Dimension        Dim             ....  322

ORBITAL ENERGIES
----------------

  NO   OCC          E(Eh)            E(eV)
   0   2.0000     -88.969203     -2420.9751
   1   2.0000     -88.967906     -2420.9398
   2   2.0000     -10.336010      -281.2571
   3   2.0000     -10.328603      -281.0556
   4   2.0000     -10.317686      -280.7585
   5   2.0000     -10.317577      -280.7556
   6   2.0000     -10.305699      -280.4323
   7   2.0000     -10.304603      -280.4025
   8   2.0000     -10.303831      -280.3815
   9   2.0000     -10.303561      -280.3741
  10   2.0000     -10.300256      -280.2842
  11   2.0000     -10.295696      -280.1601
  12   2.0000     -10.290078      -280.0073
  13   2.0000     -10.285911      -279.8939
  14   2.0000     -10.284120      -279.8451
  15   2.0000     -10.279715      -279.7253
  16   2.0000      -8.083606      -219.9661
  17   2.0000      -8.082704      -219.9416
  18   2.0000      -6.041907      -164.4087
  19   2.0000      -6.041281      -164.3916
  20   2.0000      -6.037709      -164.2944
  21   2.0000      -6.037616      -164.2919
  22   2.0000      -6.034774      -164.2146
  23   2.0000      -6.033239      -164.1728
  24   2.0000      -1.007442       -27.4139
  25   2.0000      -0.983300       -26.7570
  26   2.0000      -0.906734       -24.6735
  27   2.0000      -0.905279       -24.6339
  28   2.0000      -0.864257       -23.5176
  29   2.0000      -0.845492       -23.0070
  30   2.0000      -0.839844       -22.8533
  31   2.0000      -0.808630       -22.0039
  32   2.0000      -0.781364       -21.2620
  33   2.0000      -0.773888       -21.0586
  34   2.0000      -0.705262       -19.1911
  35   2.0000      -0.687639       -18.7116
  36   2.0000      -0.681950       -18.5568
  37   2.0000      -0.658180       -17.9100
  38   2.0000      -0.636048       -17.3078
  39   2.0000      -0.616041       -16.7633
  40   2.0000      -0.584699       -15.9105
  41   2.0000      -0.566437       -15.4135
  42   2.0000      -0.562014       -15.2932
  43   2.0000      -0.556644       -15.1471
  44   2.0000      -0.538816       -14.6619
  45   2.0000      -0.520123       -14.1533
  46   2.0000      -0.513246       -13.9661
  47   2.0000      -0.507577       -13.8119
  48   2.0000      -0.498459       -13.5638
  49   2.0000      -0.494905       -13.4670
  50   2.0000      -0.487071       -13.2539
  51   2.0000      -0.471988       -12.8434
  52   2.0000      -0.469275       -12.7696
  53   2.0000      -0.465393       -12.6640
  54   2.0000      -0.460476       -12.5302
  55   2.0000      -0.450063       -12.2468
  56   2.0000      -0.439501       -11.9594
  57   2.0000      -0.435982       -11.8637
  58   2.0000      -0.430331       -11.7099
  59   2.0000      -0.418397       -11.3851
  60   2.0000      -0.415499       -11.3063
  61   2.0000      -0.411751       -11.2043
  62   2.0000      -0.407568       -11.0905
  63   2.0000      -0.344874        -9.3845
  64   2.0000      -0.335210        -9.1215
  65   2.0000      -0.329400        -8.9634
  66   2.0000      -0.294547        -8.0150
  67   0.0000       0.027563         0.7500
  68   0.0000       0.067662         1.8412
  69   0.0000       0.105964         2.8834
  70   0.0000       0.119006         3.2383
  71   0.0000       0.128140         3.4869

MULLIKEN ATOMIC CHARGES
-----------------------
   0 S :    0.108472
   1 C :   -0.149619
   2 C :   -0.038664
   3 C :    0.006204
   4 C :   -0.155809
   5 H :    0.045515
   6 C :    0.054435
   7 H :    0.041048
   8 H :    0.019839
   9 C :   -0.145178
  10 H :    0.039348
  11 H :    0.050936
  12 C :   -0.062997
  13 H :    0.044050
  14 H :    0.044873
  15 H :    0.037878
  16 S :    0.134791
  17 C :   -0.111504
  18 C :   -0.083202
  19 C :   -0.051418
  20 C :   -0.180615
  21 H :    0.035193
  22 C :    0.119800
  23 H :    0.005012
  24 H :    0.015754
  25 C :   -0.063157
  26 H :    0.036871
  27 H :    0.047618
  28 C :   -0.107494
  29 H :    0.052314
  30 H :    0.048777
  31 H :    0.028190
  32 H :    0.055527
  33 H :    0.077211
Sum of atomic charges:    0.0000000

LOEWDIN ATOMIC CHARGES
----------------------
   0 S :    0.371337
   1 C :   -0.181034
   2 C :   -0.063836
   3 C :   -0.065948
   4 C :   -0.184098
   5 H :    0.045083
   6 C :   -0.038917
   7 H :    0.040473
   8 H :    0.029055
   9 C :   -0.055551
  10 H :    0.027650
  11 H :    0.031393
  12 C :   -0.066593
  13 H :    0.025527
  14 H :    0.029702
  15 H :    0.026042
  16 S :    0.447629
  17 C :   -0.221477
  18 C :   -0.084833
  19 C :   -0.060681
  20 C :   -0.208988
  21 H :    0.034114
  22 C :   -0.022900
  23 H :    0.025479
  24 H :    0.025874
  25 C :   -0.037341
  26 H :    0.027995
  27 H :    0.029330
  28 C :   -0.084308
  29 H :    0.032931
  30 H :    0.032587
  31 H :    0.021253
  32 H :    0.029546
  33 H :    0.043502

  Mayer bond orders larger than 0.100000
B(  0-S ,  1-C ) :   1.1163 B(  0-S ,  4-C ) :   1.1353 B(  1-C ,  2-C ) :   1.6411
B(  1-C , 32-H ) :   0.9646 B(  2-C ,  3-C ) :   1.2065 B(  2-C ,  6-C ) :   1.0276
B(  3-C ,  4-C ) :   1.6127 B(  3-C ,  5-H ) :   0.9779 B(  4-C , 20-C ) :   1.0395
B(  6-C ,  7-H ) :   0.9359 B(  6-C ,  8-H ) :   0.9469 B(  6-C ,  9-C ) :   1.0486
B(  9-C , 10-H ) :   0.9547 B(  9-C , 11-H ) :   0.9594 B(  9-C , 12-C ) :   1.0738
B( 12-C , 13-H ) :   0.9769 B( 12-C , 14-H ) :   0.9767 B( 12-C , 15-H ) :   0.9754
B( 16-S , 17-C ) :   1.1878 B( 16-S , 20-C ) :   1.1633 B( 17-C , 18-C ) :   1.5748
B( 17-C , 33-H ) :   0.9619 B( 18-C , 19-C ) :   1.2784 B( 18-C , 21-H ) :   0.9750
B( 19-C , 20-C ) :   1.5515 B( 19-C , 22-C ) :   1.0382 B( 22-C , 23-H ) :   0.9365
B( 22-C , 24-H ) :   0.9257 B( 22-C , 25-C ) :   1.0698 B( 25-C , 26-H ) :   0.9560
B( 25-C , 27-H ) :   0.9535 B( 25-C , 28-C ) :   1.0758 B( 28-C , 29-H ) :   0.9771
B( 28-C , 30-H ) :   0.9701 B( 28-C , 31-H ) :   0.9770

Dispersion correction           -0.014968006
FINAL SINGLE POINT ENERGY     -1339.871673863787

DIPOLE MOMENT
-------------
                                X             Y             Z
Electronic contribution:      3.95834      -0.85048     -25.05706
Nuclear contribution   :     -4.04521       1.28981      25.54782
                        -----------------------------------------
Total Dipole Moment    :     -0.08687       0.43933       0.49076
                        -----------------------------------------
Magnitude (a.u.)       :      0.66438
Magnitude (Debye)      :      1.68872

Rotational constants in cm-1:     0.021220     0.007787     0.006980
Rotational constants in MHz :   636.161966   233.442921   209.243407

                             ****ORCA TERMINATED NORMALLY****
TOTAL RUN TIME: 0 days 0 hours 0 minutes 33 seconds 800 msec
