                         Program Version 4.2.1 -  RELEASE  -
|  1> ! wB97X-D3 SP def2-SVP
|  2> %pal
|  3> nprocs 16
|  4> end
|  5>
|  6> * xyz 0 1
|  7> S 	 0.809966 	 -21.7477 	 88.849
|  8> C 	 -0.0157352 	 -21.5505 	 87.2751
|  9> C 	 0.786067 	 -20.8382 	 86.4264
| 10> C 	 2.10051 	 -20.5863 	 86.9446
| 11> C 	 2.28784 	 -20.9147 	 88.2704
| 12> H 	 2.88553 	 -19.9987 	 86.4779
| 13> C 	 0.404464 	 -20.3591 	 85.0372
| 14> H 	 1.08927 	 -19.6136 	 84.7052
| 15> H 	 -0.56466 	 -19.9164 	 84.8741
| 16> C 	 0.528282 	 -21.4629 	 83.9815
| 17> H 	 0.555168 	 -20.9578 	 83.0156
| 18> H 	 1.46614 	 -21.9979 	 84.0236
| 19> C 	 -0.694118 	 -22.3271 	 84.0225
| 20> H 	 -0.770442 	 -23.0371 	 84.8716
| 21> H 	 -1.54543 	 -21.6645 	 84.1397
| 22> H 	 -0.804814 	 -22.969 	 83.1514
| 23> S 	 3.25667 	 -20.4757 	 90.9401
| 24> C 	 4.93222 	 -20.7744 	 91.2366
| 25> C 	 5.62623 	 -20.8605 	 90.0654
| 26> C 	 4.85671 	 -20.8459 	 88.8634
| 27> C 	 3.46127 	 -20.7307 	 89.1416
| 28> H 	 6.76159 	 -21.0597 	 90.0062
| 29> C 	 5.58019 	 -21.0415 	 87.5099
| 30> H 	 4.97252 	 -21.669 	 86.7677
| 31> H 	 6.37868 	 -21.7451 	 87.7264
| 32> C 	 5.99656 	 -19.8895 	 86.6719
| 33> H 	 6.73263 	 -19.2877 	 87.1999
| 34> H 	 5.05908 	 -19.3184 	 86.5707
| 35> C 	 6.74747 	 -20.22 	 85.3154
| 36> H 	 5.87496 	 -20.2314 	 84.6231
| 37> H 	 7.18818 	 -21.1367 	 85.4204
| 38> H 	 7.4693 	 -19.4379 	 84.9227
| 39> H 	 -1.06019 	 -21.8731 	 87.0134
| 40> H 	 5.41367 	 -20.7157 	 92.132
| 41> *
| 42>
| 43>                          ****END OF INPUT****

CARTESIAN COORDINATES (ANGSTROEM)
---------------------------------
  S      0.809966  -21.747700   88.849000
  C     -0.015735  -21.550500   87.275100
  C      0.786067  -20.838200   86.426400
  C      2.100510  -20.586300   86.944600
  C      2.287840  -20.914700   88.270400
  H      2.885530  -19.998700   86.477900
  C      0.404464  -20.359100   85.037200
  H      1.089270  -19.613600   84.705200
  H     -0.564660  -19.916400   84.874100
  C      0.528282  -21.462900   83.981500
  H      0.555168  -20.957800   83.015600
  H      1.466140  -21.997900   84.023600
  C     -0.694118  -22.327100   84.022500
  H     -0.770442  -23.037100   84.871600
  H     -1.545430  -21.664500   84.139700
  H     -0.804814  -22.969000   83.151400
  S      3.256670  -20.475700   90.940100
  C      4.932220  -20.774400   91.236600
  C      5.626230  -20.860500   90.065400
  C      4.856710  -20.845900   88.863400
  C      3.461270  -20.730700   89.141600
  H      6.761590  -21.059700   90.006200
  C      5.580190  -21.041500   87.509900
  H      4.972520  -21.669000   86.767700
  H      6.378680  -21.745100   87.726400
  C      5.996560  -19.889500   86.671900
  H      6.732630  -19.287700   87.199900
  H      5.059080  -19.318400   86.570700
  C      6.747470  -20.220000   85.315400
  H      5.874960  -20.231400   84.623100
  H      7.188180  -21.136700   85.420400
  H      7.469300  -19.437900   84.922700
  H     -1.060190  -21.873100   87.013400
  H      5.413670  -20.715700   92.132000

 Total Charge           Charge          ....    0
 Multiplicity           Mult            ....    1
 Number of Electrons    NEL             ....  134
 Basis Dimension        Dim             ....  322

ORBITAL ENERGIES
----------------

  NO   OCC          E(Eh)            E(eV)
   0   2.0000     -88.970616     -2421.0135
   1   2.0000     -88.964930     -2420.8588
   2   2.0000     -10.343803      -281.4692
   3   2.0000     -10.338165      -281.3158
   4   2.0000     -10.320894      -280.8458
   5   2.0000     -10.315283      -280.6931
   6   2.0000     -10.313632      -280.6482
   7   2.0000     -10.303913      -280.3837
   8   2.0000     -10.300041      -280.2784
   9   2.0000     -10.299281      -280.2577
  10   2.0000     -10.296722      -280.1880
  11   2.0000     -10.289606      -279.9944
  12   2.0000     -10.287727      -279.9433
  13   2.0000     -10.286706      -279.9155
  14   2.0000     -10.282065      -279.7892
  15   2.0000     -10.275545      -279.6118
  16   2.0000      -8.084433      -219.9886
  17   2.0000      -8.078436      -219.8254
  18   2.0000      -6.043079      -164.4405
  19   2.0000      -6.039087      -164.3319
  20   2.0000      -6.037227      -164.2813
  21   2.0000      -6.035063      -164.2224
  22   2.0000      -6.033114      -164.1694
  23   2.0000      -6.028934      -164.0556
  24   2.0000      -0.999839       -27.2070
  25   2.0000      -0.981518       -26.7085
  26   2.0000      -0.918531       -24.9945
  27   2.0000      -0.912824       -24.8392
  28   2.0000      -0.868865       -23.6430
  29   2.0000      -0.851595       -23.1731
  30   2.0000      -0.841820       -22.9071
  31   2.0000      -0.813168       -22.1274
  32   2.0000      -0.785992       -21.3879
  33   2.0000      -0.778524       -21.1847
  34   2.0000      -0.712641       -19.3920
  35   2.0000      -0.697975       -18.9929
  36   2.0000      -0.694124       -18.8881
  37   2.0000      -0.657819       -17.9002
  38   2.0000      -0.642999       -17.4969
  39   2.0000      -0.618859       -16.8400
  40   2.0000      -0.603269       -16.4158
  41   2.0000      -0.574734       -15.6393
  42   2.0000      -0.568796       -15.4777
  43   2.0000      -0.554212       -15.0809
  44   2.0000      -0.536201       -14.5908
  45   2.0000      -0.527765       -14.3612
  46   2.0000      -0.518267       -14.1028
  47   2.0000      -0.512718       -13.9518
  48   2.0000      -0.509508       -13.8644
  49   2.0000      -0.499554       -13.5935
  50   2.0000      -0.489247       -13.3131
  51   2.0000      -0.481414       -13.0999
  52   2.0000      -0.471726       -12.8363
  53   2.0000      -0.464521       -12.6403
  54   2.0000      -0.461192       -12.5497
  55   2.0000      -0.455920       -12.4062
  56   2.0000      -0.443084       -12.0569
  57   2.0000      -0.441030       -12.0010
  58   2.0000      -0.434647       -11.8273
  59   2.0000      -0.427183       -11.6242
  60   2.0000      -0.416439       -11.3319
  61   2.0000      -0.410468       -11.1694
  62   2.0000      -0.399021       -10.8579
  63   2.0000      -0.357836        -9.7372
  64   2.0000      -0.335220        -9.1218
  65   2.0000      -0.329440        -8.9645
  66   2.0000      -0.288564        -7.8522
  67   0.0000       0.016444         0.4475
  68   0.0000       0.072418         1.9706
  69   0.0000       0.106363         2.8943
  70   0.0000       0.120572         3.2809
  71   0.0000       0.123947         3.3728

MULLIKEN ATOMIC CHARGES
-----------------------
   0 S :    0.091513
   1 C :   -0.140099
   2 C :   -0.061956
   3 C :    0.011064
   4 C :   -0.112938
   5 H :    0.000848
   6 C :    0.067956
   7 H :    0.007032
   8 H :    0.026336
   9 C :   -0.057042
  10 H :    0.022216
  11 H :    0.025956
  12 C :   -0.049131
  13 H :    0.033369
  14 H :    0.013981
  15 H :    0.033532
  16 S :    0.105100
  17 C :   -0.039777
  18 C :   -0.060928
  19 C :   -0.018356
  20 C :   -0.158430
  21 H :    0.047175
  22 C :    0.008158
  23 H :    0.028304
  24 H :    0.017236
  25 C :   -0.067840
  26 H :    0.021766
  27 H :    0.033370
  28 C :   -0.044360
  29 H :    0.037761
  30 H :    0.024700
  31 H :    0.056538
  32 H :    0.070544
  33 H :    0.026401
Sum of atomic charges:    0.0000000

LOEWDIN ATOMIC CHARGES
----------------------
   0 S :    0.370432
   1 C :   -0.192584
   2 C :   -0.061412
   3 C :   -0.068304
   4 C :   -0.170530
   5 H :    0.028893
   6 C :   -0.027091
   7 H :    0.026002
   8 H :    0.028694
   9 C :   -0.035999
  10 H :    0.024063
  11 H :    0.022509
  12 C :   -0.069120
  13 H :    0.026012
  14 H :    0.020543
  15 H :    0.025594
  16 S :    0.390058
  17 C :   -0.175907
  18 C :   -0.079532
  19 C :   -0.048240
  20 C :   -0.175295
  21 H :    0.044789
  22 C :   -0.044064
  23 H :    0.036164
  24 H :    0.025561
  25 C :   -0.045112
  26 H :    0.018985
  27 H :    0.022522
  28 C :   -0.058299
  29 H :    0.032376
  30 H :    0.011419
  31 H :    0.038837
  32 H :    0.042898
  33 H :    0.015135

  Mayer bond orders larger than 0.100000
B(  0-S ,  1-C ) :   1.1148 B(  0-S ,  4-C ) :   1.1280 B(  1-C ,  2-C ) :   1.6387
B(  1-C , 32-H ) :   0.9562 B(  2-C ,  3-C ) :   1.2282 B(  2-C ,  6-C ) :   1.0247
B(  3-C ,  4-C ) :   1.5928 B(  3-C ,  5-H ) :   0.9886 B(  4-C , 20-C ) :   1.0798
B(  6-C ,  7-H ) :   0.9353 B(  6-C ,  8-H ) :   0.9470 B(  6-C ,  9-C ) :   1.0823
B(  9-C , 10-H ) :   0.9529 B(  9-C , 11-H ) :   0.9507 B(  9-C , 12-C ) :   1.0835
B( 12-C , 13-H ) :   0.9695 B( 12-C , 14-H ) :   0.9729 B( 12-C , 15-H ) :   0.9715
B( 16-S , 17-C ) :   1.1470 B( 16-S , 20-C ) :   1.1311 B( 17-C , 18-C ) :   1.6057
B( 17-C , 33-H ) :   0.9757 B( 18-C , 19-C ) :   1.2773 B( 18-C , 21-H ) :   0.9685
B( 19-C , 20-C ) :   1.5558 B( 19-C , 22-C ) :   1.0318 B( 22-C , 23-H ) :   0.9347
B( 22-C , 24-H ) :   0.9296 B( 22-C , 25-C ) :   1.0683 B( 25-C , 26-H ) :   0.9522
B( 25-C , 27-H ) :   0.9582 B( 25-C , 28-C ) :   1.0497 B( 28-C , 29-H ) :   0.9785
B( 28-C , 30-H ) :   0.9785 B( 28-C , 31-H ) :   0.9791

Dispersion correction           -0.013959925
FINAL SINGLE POINT ENERGY     -1339.857653580948

DIPOLE MOMENT
-------------
                                X             Y             Z
Electronic contribution:     -6.01673      -0.29267      30.19649
Nuclear contribution   :      6.43827       0.39009     -30.84986
                        -----------------------------------------
Total Dipole Moment    :      0.42154       0.09742      -0.65337
                        -----------------------------------------
Magnitude (a.u.)       :      0.78363
Magnitude (Debye)      :      1.99184

Rotational constants in cm-1:     0.017692     0.008890     0.006194
Rotational constants in MHz :   530.383826   266.508391   185.699799

                             ****ORCA TERMINATED NORMALLY****
TOTAL RUN TIME: 0 days 0 hours 0 minutes 34 seconds 54 msec
