                         Program Version 4.2.1 -  RELEASE  -
|  1> ! wB97X-D3 SP def2-SVP
|  2> %pal
|  3> nprocs 16
|  4> end
|  5>
|  6> * xyz 0 1
|  7> S 	 -4.1363 	 -19.2983 	 83.7015
|  8> C 	 -2.61529 	 -19.086 	 82.8418
|  9> C 	 -1.75628 	 -18.2722 	 83.5844
| 10> C 	 -2.24954 	 -17.9254 	 84.8848
| 11> C 	 -3.54373 	 -18.4862 	 85.1501
| 12> H 	 -1.78315 	 -17.3804 	 85.6575
| 13> C 	 -0.33505 	 -17.9145 	 83.206
| 14> H 	 -0.393003 	 -16.8599 	 82.8212
| 15> H 	 -0.0921785 	 -18.6417 	 82.4702
| 16> C 	 0.693309 	 -17.9058 	 84.3471
| 17> H 	 0.596318 	 -17.1552 	 85.0419
| 18> H 	 0.580045 	 -18.7948 	 84.9683
| 19> C 	 2.06394 	 -17.8002 	 83.8723
| 20> H 	 2.24201 	 -18.1222 	 82.8872
| 21> H 	 2.55231 	 -16.7354 	 84.0009
| 22> H 	 2.75227 	 -18.3131 	 84.5414
| 23> S 	 -4.92796 	 -19.9667 	 86.8342
| 24> C 	 -5.63781 	 -19.2323 	 88.2999
| 25> C 	 -5.48468 	 -17.8722 	 88.3756
| 26> C 	 -4.66787 	 -17.4389 	 87.223
| 27> C 	 -4.28443 	 -18.4623 	 86.3435
| 28> H 	 -5.99807 	 -17.3006 	 89.1864
| 29> C 	 -4.48823 	 -15.9427 	 87.0069
| 30> H 	 -3.39756 	 -15.8346 	 86.8755
| 31> H 	 -4.73096 	 -15.4241 	 87.8947
| 32> C 	 -5.25475 	 -15.3646 	 85.8168
| 33> H 	 -6.23587 	 -15.8346 	 85.6857
| 34> H 	 -4.88753 	 -15.6865 	 84.902
| 35> C 	 -5.42068 	 -13.8627 	 85.6613
| 36> H 	 -4.42468 	 -13.328 	 85.801
| 37> H 	 -6.28839 	 -13.5263 	 86.3485
| 38> H 	 -5.7906 	 -13.535 	 84.6844
| 39> H 	 -2.43296 	 -19.4102 	 81.8123
| 40> H 	 -6.35054 	 -19.7955 	 88.9103
| 41> *
| 42>
| 43>                          ****END OF INPUT****

CARTESIAN COORDINATES (ANGSTROEM)
---------------------------------
  S     -4.136300  -19.298300   83.701500
  C     -2.615290  -19.086000   82.841800
  C     -1.756280  -18.272200   83.584400
  C     -2.249540  -17.925400   84.884800
  C     -3.543730  -18.486200   85.150100
  H     -1.783150  -17.380400   85.657500
  C     -0.335050  -17.914500   83.206000
  H     -0.393003  -16.859900   82.821200
  H     -0.092178  -18.641700   82.470200
  C      0.693309  -17.905800   84.347100
  H      0.596318  -17.155200   85.041900
  H      0.580045  -18.794800   84.968300
  C      2.063940  -17.800200   83.872300
  H      2.242010  -18.122200   82.887200
  H      2.552310  -16.735400   84.000900
  H      2.752270  -18.313100   84.541400
  S     -4.927960  -19.966700   86.834200
  C     -5.637810  -19.232300   88.299900
  C     -5.484680  -17.872200   88.375600
  C     -4.667870  -17.438900   87.223000
  C     -4.284430  -18.462300   86.343500
  H     -5.998070  -17.300600   89.186400
  C     -4.488230  -15.942700   87.006900
  H     -3.397560  -15.834600   86.875500
  H     -4.730960  -15.424100   87.894700
  C     -5.254750  -15.364600   85.816800
  H     -6.235870  -15.834600   85.685700
  H     -4.887530  -15.686500   84.902000
  C     -5.420680  -13.862700   85.661300
  H     -4.424680  -13.328000   85.801000
  H     -6.288390  -13.526300   86.348500
  H     -5.790600  -13.535000   84.684400
  H     -2.432960  -19.410200   81.812300
  H     -6.350540  -19.795500   88.910300

 Total Charge           Charge          ....    0
 Multiplicity           Mult            ....    1
 Number of Electrons    NEL             ....  134
 Basis Dimension        Dim             ....  322

ORBITAL ENERGIES
----------------

  NO   OCC          E(Eh)            E(eV)
   0   2.0000     -88.968318     -2420.9510
   1   2.0000     -88.963983     -2420.8331
   2   2.0000     -10.332355      -281.1577
   3   2.0000     -10.323157      -280.9074
   4   2.0000     -10.319728      -280.8141
   5   2.0000     -10.317313      -280.7484
   6   2.0000     -10.310729      -280.5692
   7   2.0000     -10.304302      -280.3943
   8   2.0000     -10.303634      -280.3761
   9   2.0000     -10.295678      -280.1596
  10   2.0000     -10.293153      -280.0909
  11   2.0000     -10.289140      -279.9817
  12   2.0000     -10.286584      -279.9122
  13   2.0000     -10.276027      -279.6249
  14   2.0000     -10.275775      -279.6181
  15   2.0000     -10.273645      -279.5601
  16   2.0000      -8.082334      -219.9315
  17   2.0000      -8.079273      -219.8482
  18   2.0000      -6.040870      -164.3804
  19   2.0000      -6.037783      -164.2964
  20   2.0000      -6.036828      -164.2704
  21   2.0000      -6.033733      -164.1862
  22   2.0000      -6.033219      -164.1722
  23   2.0000      -6.029933      -164.0828
  24   2.0000      -1.007159       -27.4062
  25   2.0000      -0.978193       -26.6180
  26   2.0000      -0.920385       -25.0450
  27   2.0000      -0.905621       -24.6432
  28   2.0000      -0.879277       -23.9263
  29   2.0000      -0.850997       -23.1568
  30   2.0000      -0.846530       -23.0353
  31   2.0000      -0.815636       -22.1946
  32   2.0000      -0.779688       -21.2164
  33   2.0000      -0.766395       -20.8547
  34   2.0000      -0.715728       -19.4760
  35   2.0000      -0.700483       -19.0611
  36   2.0000      -0.690421       -18.7873
  37   2.0000      -0.664553       -18.0834
  38   2.0000      -0.640357       -17.4250
  39   2.0000      -0.617356       -16.7991
  40   2.0000      -0.590555       -16.0698
  41   2.0000      -0.573656       -15.6100
  42   2.0000      -0.569068       -15.4851
  43   2.0000      -0.557527       -15.1711
  44   2.0000      -0.533617       -14.5205
  45   2.0000      -0.524306       -14.2671
  46   2.0000      -0.516763       -14.0618
  47   2.0000      -0.512715       -13.9517
  48   2.0000      -0.504350       -13.7241
  49   2.0000      -0.500386       -13.6162
  50   2.0000      -0.498030       -13.5521
  51   2.0000      -0.483189       -13.1482
  52   2.0000      -0.480529       -13.0759
  53   2.0000      -0.466368       -12.6905
  54   2.0000      -0.452323       -12.3083
  55   2.0000      -0.449556       -12.2330
  56   2.0000      -0.445326       -12.1179
  57   2.0000      -0.437483       -11.9045
  58   2.0000      -0.430604       -11.7173
  59   2.0000      -0.421950       -11.4818
  60   2.0000      -0.418465       -11.3870
  61   2.0000      -0.403073       -10.9682
  62   2.0000      -0.400090       -10.8870
  63   2.0000      -0.351120        -9.5545
  64   2.0000      -0.329348        -8.9620
  65   2.0000      -0.327499        -8.9117
  66   2.0000      -0.286239        -7.7890
  67   0.0000       0.022113         0.6017
  68   0.0000       0.070619         1.9217
  69   0.0000       0.112305         3.0560
  70   0.0000       0.119810         3.2602
  71   0.0000       0.127319         3.4645

MULLIKEN ATOMIC CHARGES
-----------------------
   0 S :    0.112345
   1 C :   -0.138008
   2 C :   -0.097623
   3 C :    0.045487
   4 C :   -0.163883
   5 H :   -0.001214
   6 C :    0.089939
   7 H :    0.050953
   8 H :    0.014909
   9 C :   -0.048057
  10 H :    0.008010
  11 H :    0.028756
  12 C :   -0.048347
  13 H :    0.022512
  14 H :    0.031308
  15 H :    0.022426
  16 S :    0.101061
  17 C :   -0.098427
  18 C :   -0.042585
  19 C :   -0.082203
  20 C :   -0.143563
  21 H :    0.049973
  22 C :    0.132868
  23 H :    0.021308
  24 H :    0.001115
  25 C :   -0.037542
  26 H :    0.016390
  27 H :    0.004807
  28 C :   -0.085835
  29 H :    0.043443
  30 H :    0.039822
  31 H :    0.030693
  32 H :    0.057823
  33 H :    0.061339
Sum of atomic charges:   -0.0000000

LOEWDIN ATOMIC CHARGES
----------------------
   0 S :    0.401257
   1 C :   -0.209428
   2 C :   -0.060527
   3 C :   -0.056590
   4 C :   -0.190011
   5 H :    0.022806
   6 C :   -0.025790
   7 H :    0.043866
   8 H :    0.025894
   9 C :   -0.047552
  10 H :    0.016787
  11 H :    0.028365
  12 C :   -0.066476
  13 H :    0.015920
  14 H :    0.034969
  15 H :    0.028564
  16 S :    0.410194
  17 C :   -0.174530
  18 C :   -0.072701
  19 C :   -0.047228
  20 C :   -0.222099
  21 H :    0.047321
  22 C :   -0.027224
  23 H :    0.033185
  24 H :    0.021924
  25 C :   -0.051816
  26 H :    0.028488
  27 H :    0.017152
  28 C :   -0.075350
  29 H :    0.031389
  30 H :    0.031660
  31 H :    0.026227
  32 H :    0.033254
  33 H :    0.028098

  Mayer bond orders larger than 0.100000
B(  0-S ,  1-C ) :   1.1289 B(  0-S ,  4-C ) :   1.1586 B(  1-C ,  2-C ) :   1.5934
B(  1-C ,  4-C ) :   0.1064 B(  1-C , 32-H ) :   0.9672 B(  2-C ,  3-C ) :   1.2507
B(  2-C ,  6-C ) :   1.0225 B(  3-C ,  4-C ) :   1.5287 B(  3-C ,  5-H ) :   0.9983
B(  4-C , 20-C ) :   1.0979 B(  6-C ,  7-H ) :   0.9225 B(  6-C ,  8-H ) :   0.9454
B(  6-C ,  9-C ) :   1.0871 B(  9-C , 10-H ) :   0.9372 B(  9-C , 11-H ) :   0.9577
B(  9-C , 12-C ) :   1.0918 B( 12-C , 13-H ) :   0.9757 B( 12-C , 14-H ) :   0.9734
B( 12-C , 15-H ) :   0.9673 B( 16-S , 17-C ) :   1.1465 B( 16-S , 20-C ) :   1.1340
B( 17-C , 18-C ) :   1.6390 B( 17-C , 33-H ) :   0.9616 B( 18-C , 19-C ) :   1.2167
B( 18-C , 21-H ) :   0.9828 B( 19-C , 20-C ) :   1.5779 B( 19-C , 22-C ) :   1.0541
B( 22-C , 23-H ) :   0.9217 B( 22-C , 24-H ) :   0.9347 B( 22-C , 25-C ) :   1.0519
B( 25-C , 26-H ) :   0.9502 B( 25-C , 27-H ) :   0.9447 B( 25-C , 28-C ) :   1.0948
B( 28-C , 29-H ) :   0.9724 B( 28-C , 30-H ) :   0.9756 B( 28-C , 31-H ) :   0.9722

Dispersion correction           -0.013995648
FINAL SINGLE POINT ENERGY     -1339.850313209156

DIPOLE MOMENT
-------------
                                X             Y             Z
Electronic contribution:    -15.88027     -20.93101       2.67808
Nuclear contribution   :     16.11534      21.36548      -2.60038
                        -----------------------------------------
Total Dipole Moment    :      0.23507       0.43446       0.07770
                        -----------------------------------------
Magnitude (a.u.)       :      0.50006
Magnitude (Debye)      :      1.27104

Rotational constants in cm-1:     0.017326     0.008332     0.007169
Rotational constants in MHz :   519.432346   249.790043   214.918488

                             ****ORCA TERMINATED NORMALLY****
TOTAL RUN TIME: 0 days 0 hours 0 minutes 31 seconds 71 msec
