                         Program Version 4.2.1 -  RELEASE  -
|  1> ! wB97X-D3 SP def2-SVP
|  2> %pal
|  3> nprocs 16
|  4> end
|  5>
|  6> * xyz 0 1
|  7> S 	 -5.64269 	 -8.6933 	 83.3305
|  8> C 	 -5.91614 	 -10.4497 	 83.4658
|  9> C 	 -5.96192 	 -10.819 	 84.8174
| 10> C 	 -5.70317 	 -9.69889 	 85.7026
| 11> C 	 -5.43589 	 -8.49006 	 85.0681
| 12> H 	 -5.72885 	 -9.79706 	 86.7469
| 13> C 	 -6.29539 	 -12.2207 	 85.2655
| 14> H 	 -6.16859 	 -12.3024 	 86.3667
| 15> H 	 -5.62917 	 -12.8888 	 84.8588
| 16> C 	 -7.65311 	 -12.7555 	 84.8902
| 17> H 	 -8.48234 	 -12.1511 	 85.3424
| 18> H 	 -7.81034 	 -12.7203 	 83.7776
| 19> C 	 -7.76748 	 -14.1421 	 85.2658
| 20> H 	 -6.98593 	 -14.8169 	 84.686
| 21> H 	 -7.60424 	 -14.3309 	 86.3847
| 22> H 	 -8.74924 	 -14.5956 	 84.9716
| 23> S 	 -6.48329 	 -6.85147 	 87.0124
| 24> C 	 -5.71196 	 -5.28624 	 87.3552
| 25> C 	 -4.52043 	 -5.19088 	 86.6596
| 26> C 	 -4.33551 	 -6.25155 	 85.7232
| 27> C 	 -5.30134 	 -7.22848 	 85.7631
| 28> H 	 -3.80722 	 -4.45151 	 86.822
| 29> C 	 -3.11443 	 -6.17393 	 84.8583
| 30> H 	 -2.7322 	 -5.13136 	 84.8646
| 31> H 	 -3.25821 	 -6.42457 	 83.7522
| 32> C 	 -2.00018 	 -7.1001 	 85.4068
| 33> H 	 -2.25631 	 -8.08311 	 85.2019
| 34> H 	 -1.89797 	 -7.02138 	 86.5074
| 35> C 	 -0.688356 	 -6.67069 	 84.9485
| 36> H 	 0.116951 	 -7.41065 	 85.1819
| 37> H 	 -0.52669 	 -5.65969 	 85.2052
| 38> H 	 -0.780309 	 -6.53344 	 83.8881
| 39> H 	 -5.99704 	 -11.1666 	 82.6767
| 40> H 	 -6.04603 	 -4.51745 	 87.9998
| 41> *
| 42>
| 43>                          ****END OF INPUT****

CARTESIAN COORDINATES (ANGSTROEM)
---------------------------------
  S     -5.642690   -8.693300   83.330500
  C     -5.916140  -10.449700   83.465800
  C     -5.961920  -10.819000   84.817400
  C     -5.703170   -9.698890   85.702600
  C     -5.435890   -8.490060   85.068100
  H     -5.728850   -9.797060   86.746900
  C     -6.295390  -12.220700   85.265500
  H     -6.168590  -12.302400   86.366700
  H     -5.629170  -12.888800   84.858800
  C     -7.653110  -12.755500   84.890200
  H     -8.482340  -12.151100   85.342400
  H     -7.810340  -12.720300   83.777600
  C     -7.767480  -14.142100   85.265800
  H     -6.985930  -14.816900   84.686000
  H     -7.604240  -14.330900   86.384700
  H     -8.749240  -14.595600   84.971600
  S     -6.483290   -6.851470   87.012400
  C     -5.711960   -5.286240   87.355200
  C     -4.520430   -5.190880   86.659600
  C     -4.335510   -6.251550   85.723200
  C     -5.301340   -7.228480   85.763100
  H     -3.807220   -4.451510   86.822000
  C     -3.114430   -6.173930   84.858300
  H     -2.732200   -5.131360   84.864600
  H     -3.258210   -6.424570   83.752200
  C     -2.000180   -7.100100   85.406800
  H     -2.256310   -8.083110   85.201900
  H     -1.897970   -7.021380   86.507400
  C     -0.688356   -6.670690   84.948500
  H      0.116951   -7.410650   85.181900
  H     -0.526690   -5.659690   85.205200
  H     -0.780309   -6.533440   83.888100
  H     -5.997040  -11.166600   82.676700
  H     -6.046030   -4.517450   87.999800

 Total Charge           Charge          ....    0
 Multiplicity           Mult            ....    1
 Number of Electrons    NEL             ....  134
 Basis Dimension        Dim             ....  322

ORBITAL ENERGIES
----------------

  NO   OCC          E(Eh)            E(eV)
   0   2.0000     -88.969109     -2420.9725
   1   2.0000     -88.966876     -2420.9118
   2   2.0000     -10.332594      -281.1642
   3   2.0000     -10.326117      -280.9879
   4   2.0000     -10.319543      -280.8090
   5   2.0000     -10.316893      -280.7369
   6   2.0000     -10.304092      -280.3886
   7   2.0000     -10.300912      -280.3021
   8   2.0000     -10.295898      -280.1656
   9   2.0000     -10.293348      -280.0963
  10   2.0000     -10.290740      -280.0253
  11   2.0000     -10.290294      -280.0131
  12   2.0000     -10.286496      -279.9098
  13   2.0000     -10.286349      -279.9058
  14   2.0000     -10.271470      -279.5009
  15   2.0000     -10.266416      -279.3634
  16   2.0000      -8.082567      -219.9378
  17   2.0000      -8.080798      -219.8897
  18   2.0000      -6.041282      -164.3916
  19   2.0000      -6.039496      -164.3431
  20   2.0000      -6.037190      -164.2803
  21   2.0000      -6.035401      -164.2316
  22   2.0000      -6.033240      -164.1728
  23   2.0000      -6.031416      -164.1232
  24   2.0000      -1.003887       -27.3172
  25   2.0000      -0.979443       -26.6520
  26   2.0000      -0.925110       -25.1735
  27   2.0000      -0.917505       -24.9666
  28   2.0000      -0.873712       -23.7749
  29   2.0000      -0.857135       -23.3238
  30   2.0000      -0.847587       -23.0640
  31   2.0000      -0.814643       -22.1676
  32   2.0000      -0.779157       -21.2019
  33   2.0000      -0.766321       -20.8527
  34   2.0000      -0.708979       -19.2923
  35   2.0000      -0.694883       -18.9087
  36   2.0000      -0.690177       -18.7807
  37   2.0000      -0.673096       -18.3159
  38   2.0000      -0.640564       -17.4306
  39   2.0000      -0.619335       -16.8530
  40   2.0000      -0.600175       -16.3316
  41   2.0000      -0.577750       -15.7214
  42   2.0000      -0.570014       -15.5109
  43   2.0000      -0.567180       -15.4338
  44   2.0000      -0.533362       -14.5135
  45   2.0000      -0.524596       -14.2750
  46   2.0000      -0.521000       -14.1771
  47   2.0000      -0.517014       -14.0687
  48   2.0000      -0.509486       -13.8638
  49   2.0000      -0.502161       -13.6645
  50   2.0000      -0.493668       -13.4334
  51   2.0000      -0.482726       -13.1356
  52   2.0000      -0.466676       -12.6989
  53   2.0000      -0.460420       -12.5287
  54   2.0000      -0.457554       -12.4507
  55   2.0000      -0.455907       -12.4059
  56   2.0000      -0.445172       -12.1138
  57   2.0000      -0.433277       -11.7901
  58   2.0000      -0.427718       -11.6388
  59   2.0000      -0.425808       -11.5868
  60   2.0000      -0.418631       -11.3915
  61   2.0000      -0.412270       -11.2184
  62   2.0000      -0.405385       -11.0311
  63   2.0000      -0.344551        -9.3757
  64   2.0000      -0.330854        -9.0030
  65   2.0000      -0.327723        -8.9178
  66   2.0000      -0.293502        -7.9866
  67   0.0000       0.027887         0.7589
  68   0.0000       0.063356         1.7240
  69   0.0000       0.106335         2.8935
  70   0.0000       0.115851         3.1525
  71   0.0000       0.126127         3.4321

MULLIKEN ATOMIC CHARGES
-----------------------
   0 S :    0.110767
   1 C :   -0.118865
   2 C :   -0.078031
   3 C :    0.017601
   4 C :   -0.122843
   5 H :   -0.006487
   6 C :    0.093768
   7 H :    0.019586
   8 H :    0.002357
   9 C :   -0.072156
  10 H :    0.040455
  11 H :    0.030474
  12 C :   -0.103075
  13 H :    0.035953
  14 H :    0.041804
  15 H :    0.042857
  16 S :    0.105931
  17 C :   -0.070505
  18 C :   -0.008761
  19 C :   -0.014694
  20 C :   -0.153057
  21 H :   -0.002436
  22 C :    0.002429
  23 H :    0.016379
  24 H :    0.047871
  25 C :   -0.050840
  26 H :    0.021724
  27 H :    0.023951
  28 C :    0.002080
  29 H :    0.050188
  30 H :    0.007963
  31 H :   -0.000125
  32 H :    0.041848
  33 H :    0.045890
Sum of atomic charges:   -0.0000000

LOEWDIN ATOMIC CHARGES
----------------------
   0 S :    0.395574
   1 C :   -0.188347
   2 C :   -0.054387
   3 C :   -0.062331
   4 C :   -0.191768
   5 H :    0.019427
   6 C :   -0.030354
   7 H :    0.033892
   8 H :    0.021175
   9 C :   -0.053577
  10 H :    0.031321
  11 H :    0.029178
  12 C :   -0.079803
  13 H :    0.031985
  14 H :    0.029442
  15 H :    0.029647
  16 S :    0.398114
  17 C :   -0.165393
  18 C :   -0.058727
  19 C :   -0.051963
  20 C :   -0.198556
  21 H :    0.020872
  22 C :   -0.034582
  23 H :    0.027942
  24 H :    0.037720
  25 C :   -0.036727
  26 H :    0.015617
  27 H :    0.025991
  28 C :   -0.064603
  29 H :    0.035423
  30 H :    0.018858
  31 H :    0.019070
  32 H :    0.024864
  33 H :    0.025006

  Mayer bond orders larger than 0.100000
B(  0-S ,  1-C ) :   1.1303 B(  0-S ,  4-C ) :   1.1449 B(  1-C ,  2-C ) :   1.5954
B(  1-C , 32-H ) :   0.9725 B(  2-C ,  3-C ) :   1.2546 B(  2-C ,  6-C ) :   1.0243
B(  3-C ,  4-C ) :   1.5392 B(  3-C ,  5-H ) :   1.0044 B(  4-C , 20-C ) :   1.0636
B(  6-C ,  7-H ) :   0.9410 B(  6-C ,  8-H ) :   0.9284 B(  6-C ,  9-C ) :   1.0707
B(  9-C , 10-H ) :   0.9470 B(  9-C , 11-H ) :   0.9449 B(  9-C , 12-C ) :   1.1002
B( 12-C , 13-H ) :   0.9658 B( 12-C , 14-H ) :   0.9678 B( 12-C , 15-H ) :   0.9688
B( 16-S , 17-C ) :   1.1500 B( 16-S , 20-C ) :   1.1185 B( 17-C , 18-C ) :   1.6006
B( 17-C , 33-H ) :   0.9730 B( 18-C , 19-C ) :   1.2539 B( 18-C , 21-H ) :   0.9943
B( 19-C , 20-C ) :   1.5874 B( 19-C , 22-C ) :   1.0538 B( 22-C , 23-H ) :   0.9416
B( 22-C , 24-H ) :   0.9301 B( 22-C , 25-C ) :   1.0488 B( 25-C , 26-H ) :   0.9530
B( 25-C , 27-H ) :   0.9581 B( 25-C , 28-C ) :   1.0912 B( 28-C , 29-H ) :   0.9685
B( 28-C , 30-H ) :   0.9685 B( 28-C , 31-H ) :   0.9598

Dispersion correction           -0.013761465
FINAL SINGLE POINT ENERGY     -1339.865200628526

DIPOLE MOMENT
-------------
                                X             Y             Z
Electronic contribution:     -9.65834      14.97493       0.52940
Nuclear contribution   :      9.89272     -15.17009      -0.38188
                        -----------------------------------------
Total Dipole Moment    :      0.23438      -0.19517       0.14753
                        -----------------------------------------
Magnitude (a.u.)       :      0.33880
Magnitude (Debye)      :      0.86117

Rotational constants in cm-1:     0.021818     0.007292     0.006226
Rotational constants in MHz :   654.082685   218.605125   186.650622

                             ****ORCA TERMINATED NORMALLY****
TOTAL RUN TIME: 0 days 0 hours 0 minutes 31 seconds 472 msec
