                         Program Version 4.2.1 -  RELEASE  -
|  1> ! wB97X-D3 SP def2-SVP
|  2> %pal
|  3> nprocs 16
|  4> end
|  5>
|  6> * xyz 0 1
|  7> S 	 -25.1257 	 43.0702 	 59.0425
|  8> C 	 -25.912 	 44.5678 	 59.5638
|  9> C 	 -25.939 	 45.4345 	 58.4684
| 10> C 	 -25.3865 	 44.885 	 57.3096
| 11> C 	 -24.9835 	 43.5506 	 57.3341
| 12> H 	 -25.2418 	 45.3888 	 56.3985
| 13> C 	 -26.3359 	 46.8935 	 58.5113
| 14> H 	 -27.4538 	 46.871 	 58.6463
| 15> H 	 -26.0096 	 47.2839 	 57.5597
| 16> C 	 -25.5912 	 47.8008 	 59.5728
| 17> H 	 -25.9299 	 48.7852 	 59.3696
| 18> H 	 -25.908 	 47.5762 	 60.6385
| 19> C 	 -24.0044 	 47.7572 	 59.3751
| 20> H 	 -23.7588 	 48.3208 	 58.4966
| 21> H 	 -23.5532 	 48.1881 	 60.2271
| 22> H 	 -23.6978 	 46.6754 	 59.2975
| 23> S 	 -22.4494 	 42.6749 	 56.7448
| 24> C 	 -22.15 	 42.0602 	 55.1773
| 25> C 	 -23.2785 	 41.9566 	 54.4648
| 26> C 	 -24.4668 	 42.3781 	 55.1226
| 27> C 	 -24.157 	 42.89 	 56.3318
| 28> H 	 -23.2433 	 41.5813 	 53.4925
| 29> C 	 -25.8775 	 42.2444 	 54.5698
| 30> H 	 -25.7829 	 42.4542 	 53.4596
| 31> H 	 -26.523 	 43.061 	 54.8451
| 32> C 	 -26.424 	 40.8813 	 54.8098
| 33> H 	 -27.4938 	 40.8528 	 54.6887
| 34> H 	 -26.3655 	 40.6002 	 55.9276
| 35> C 	 -25.8754 	 39.7105 	 53.8623
| 36> H 	 -26.259 	 38.6572 	 54.1542
| 37> H 	 -24.7983 	 39.5616 	 53.8111
| 38> H 	 -26.2714 	 39.9588 	 52.8794
| 39> H 	 -26.3088 	 44.7816 	 60.55
| 40> H 	 -21.116 	 41.7993 	 54.9279
| 41> *
| 42>
| 43>                          ****END OF INPUT****

CARTESIAN COORDINATES (ANGSTROEM)
---------------------------------
  S    -25.125700   43.070200   59.042500
  C    -25.912000   44.567800   59.563800
  C    -25.939000   45.434500   58.468400
  C    -25.386500   44.885000   57.309600
  C    -24.983500   43.550600   57.334100
  H    -25.241800   45.388800   56.398500
  C    -26.335900   46.893500   58.511300
  H    -27.453800   46.871000   58.646300
  H    -26.009600   47.283900   57.559700
  C    -25.591200   47.800800   59.572800
  H    -25.929900   48.785200   59.369600
  H    -25.908000   47.576200   60.638500
  C    -24.004400   47.757200   59.375100
  H    -23.758800   48.320800   58.496600
  H    -23.553200   48.188100   60.227100
  H    -23.697800   46.675400   59.297500
  S    -22.449400   42.674900   56.744800
  C    -22.150000   42.060200   55.177300
  C    -23.278500   41.956600   54.464800
  C    -24.466800   42.378100   55.122600
  C    -24.157000   42.890000   56.331800
  H    -23.243300   41.581300   53.492500
  C    -25.877500   42.244400   54.569800
  H    -25.782900   42.454200   53.459600
  H    -26.523000   43.061000   54.845100
  C    -26.424000   40.881300   54.809800
  H    -27.493800   40.852800   54.688700
  H    -26.365500   40.600200   55.927600
  C    -25.875400   39.710500   53.862300
  H    -26.259000   38.657200   54.154200
  H    -24.798300   39.561600   53.811100
  H    -26.271400   39.958800   52.879400
  H    -26.308800   44.781600   60.550000
  H    -21.116000   41.799300   54.927900

 Total Charge           Charge          ....    0
 Multiplicity           Mult            ....    1
 Number of Electrons    NEL             ....  134
 Basis Dimension        Dim             ....  322

ORBITAL ENERGIES
----------------

  NO   OCC          E(Eh)            E(eV)
   0   2.0000     -88.964256     -2420.8405
   1   2.0000     -88.959075     -2420.6995
   2   2.0000     -10.328718      -281.0587
   3   2.0000     -10.322200      -280.8813
   4   2.0000     -10.318257      -280.7740
   5   2.0000     -10.312192      -280.6090
   6   2.0000     -10.299395      -280.2608
   7   2.0000     -10.296499      -280.1820
   8   2.0000     -10.295730      -280.1611
   9   2.0000     -10.295456      -280.1536
  10   2.0000     -10.293804      -280.1087
  11   2.0000     -10.292760      -280.0802
  12   2.0000     -10.288210      -279.9564
  13   2.0000     -10.286656      -279.9141
  14   2.0000     -10.284563      -279.8572
  15   2.0000     -10.277226      -279.6575
  16   2.0000      -8.077891      -219.8106
  17   2.0000      -8.075060      -219.7336
  18   2.0000      -6.036418      -164.2593
  19   2.0000      -6.033401      -164.1772
  20   2.0000      -6.032378      -164.1493
  21   2.0000      -6.029537      -164.0720
  22   2.0000      -6.028846      -164.0532
  23   2.0000      -6.025759      -163.9692
  24   2.0000      -1.010632       -27.5007
  25   2.0000      -0.985502       -26.8169
  26   2.0000      -0.910196       -24.7677
  27   2.0000      -0.902425       -24.5562
  28   2.0000      -0.867111       -23.5953
  29   2.0000      -0.845163       -22.9981
  30   2.0000      -0.840273       -22.8650
  31   2.0000      -0.812430       -22.1073
  32   2.0000      -0.783808       -21.3285
  33   2.0000      -0.771596       -20.9962
  34   2.0000      -0.707281       -19.2461
  35   2.0000      -0.701904       -19.0998
  36   2.0000      -0.692347       -18.8397
  37   2.0000      -0.664968       -18.0947
  38   2.0000      -0.640731       -17.4352
  39   2.0000      -0.611322       -16.6349
  40   2.0000      -0.600214       -16.3326
  41   2.0000      -0.569524       -15.4975
  42   2.0000      -0.553438       -15.0598
  43   2.0000      -0.549985       -14.9658
  44   2.0000      -0.544503       -14.8167
  45   2.0000      -0.534451       -14.5431
  46   2.0000      -0.515582       -14.0297
  47   2.0000      -0.510122       -13.8811
  48   2.0000      -0.502120       -13.6634
  49   2.0000      -0.490166       -13.3381
  50   2.0000      -0.485168       -13.2021
  51   2.0000      -0.481101       -13.0914
  52   2.0000      -0.473288       -12.8788
  53   2.0000      -0.463239       -12.6054
  54   2.0000      -0.458877       -12.4867
  55   2.0000      -0.443268       -12.0619
  56   2.0000      -0.438874       -11.9424
  57   2.0000      -0.435445       -11.8491
  58   2.0000      -0.430011       -11.7012
  59   2.0000      -0.424842       -11.5605
  60   2.0000      -0.421559       -11.4712
  61   2.0000      -0.409401       -11.1404
  62   2.0000      -0.407340       -11.0843
  63   2.0000      -0.341266        -9.2863
  64   2.0000      -0.333809        -9.0834
  65   2.0000      -0.325061        -8.8454
  66   2.0000      -0.299582        -8.1520
  67   0.0000       0.034281         0.9328
  68   0.0000       0.061176         1.6647
  69   0.0000       0.120707         3.2846
  70   0.0000       0.130630         3.5546
  71   0.0000       0.132436         3.6038

MULLIKEN ATOMIC CHARGES
-----------------------
   0 S :    0.092849
   1 C :   -0.124669
   2 C :   -0.093952
   3 C :    0.039164
   4 C :   -0.157592
   5 H :   -0.006074
   6 C :    0.062394
   7 H :    0.056059
   8 H :    0.012602
   9 C :   -0.088649
  10 H :    0.024627
  11 H :    0.035051
  12 C :   -0.058004
  13 H :    0.033877
  14 H :    0.031949
  15 H :    0.062153
  16 S :    0.104409
  17 C :   -0.088383
  18 C :   -0.010691
  19 C :   -0.028992
  20 C :   -0.186517
  21 H :   -0.008993
  22 C :    0.098486
  23 H :    0.022601
  24 H :    0.026423
  25 C :   -0.071299
  26 H :    0.026776
  27 H :    0.044130
  28 C :   -0.087497
  29 H :    0.046212
  30 H :    0.043099
  31 H :    0.031706
  32 H :    0.054204
  33 H :    0.062543
Sum of atomic charges:   -0.0000000

LOEWDIN ATOMIC CHARGES
----------------------
   0 S :    0.390564
   1 C :   -0.190576
   2 C :   -0.076054
   3 C :   -0.059842
   4 C :   -0.193440
   5 H :    0.022011
   6 C :   -0.032609
   7 H :    0.041789
   8 H :    0.025946
   9 C :   -0.036992
  10 H :    0.016784
  11 H :    0.023360
  12 C :   -0.060542
  13 H :    0.022501
  14 H :    0.020588
  15 H :    0.037060
  16 S :    0.403934
  17 C :   -0.185889
  18 C :   -0.070703
  19 C :   -0.050624
  20 C :   -0.189797
  21 H :    0.020686
  22 C :   -0.033316
  23 H :    0.036058
  24 H :    0.032848
  25 C :   -0.045479
  26 H :    0.023313
  27 H :    0.035096
  28 C :   -0.072304
  29 H :    0.037411
  30 H :    0.021424
  31 H :    0.022470
  32 H :    0.031991
  33 H :    0.032334

  Mayer bond orders larger than 0.100000
B(  0-S ,  1-C ) :   1.1540 B(  0-S ,  4-C ) :   1.1514 B(  1-C ,  2-C ) :   1.5443
B(  1-C ,  4-C ) :   0.1142 B(  1-C , 32-H ) :   0.9760 B(  2-C ,  3-C ) :   1.2932
B(  2-C ,  6-C ) :   1.0130 B(  3-C ,  4-C ) :   1.5484 B(  3-C ,  5-H ) :   0.9934
B(  4-C , 20-C ) :   1.0252 B(  6-C ,  7-H ) :   0.9361 B(  6-C ,  8-H ) :   0.9457
B(  6-C ,  9-C ) :   1.0660 B(  9-C , 10-H ) :   0.9606 B(  9-C , 11-H ) :   0.9603
B(  9-C , 12-C ) :   1.0582 B( 12-C , 13-H ) :   0.9781 B( 12-C , 14-H ) :   0.9773
B( 12-C , 15-H ) :   0.9779 B( 16-S , 17-C ) :   1.1535 B( 16-S , 20-C ) :   1.1399
B( 17-C , 18-C ) :   1.6117 B( 17-C , 33-H ) :   0.9685 B( 18-C , 19-C ) :   1.2201
B( 18-C , 21-H ) :   1.0020 B( 19-C , 20-C ) :   1.6504 B( 19-C , 22-C ) :   1.0372
B( 22-C , 23-H ) :   0.9331 B( 22-C , 24-H ) :   0.9244 B( 22-C , 25-C ) :   1.0715
B( 25-C , 26-H ) :   0.9555 B( 25-C , 27-H ) :   0.9547 B( 25-C , 28-C ) :   1.0576
B( 28-C , 29-H ) :   0.9755 B( 28-C , 30-H ) :   0.9778 B( 28-C , 31-H ) :   0.9766

Dispersion correction           -0.014831969
FINAL SINGLE POINT ENERGY     -1339.870655526801

DIPOLE MOMENT
-------------
                                X             Y             Z
Electronic contribution:      9.76641      -7.33502       6.46323
Nuclear contribution   :     -9.96119       7.68267      -6.82712
                        -----------------------------------------
Total Dipole Moment    :     -0.19478       0.34765      -0.36389
                        -----------------------------------------
Magnitude (a.u.)       :      0.53965
Magnitude (Debye)      :      1.37167

Rotational constants in cm-1:     0.024255     0.007589     0.006863
Rotational constants in MHz :   727.160133   227.504589   205.742334

                             ****ORCA TERMINATED NORMALLY****
TOTAL RUN TIME: 0 days 0 hours 0 minutes 35 seconds 244 msec
