                         Program Version 4.2.1 -  RELEASE  -
|  1> ! wB97X-D3 SP def2-SVP
|  2> %pal
|  3> nprocs 16
|  4> end
|  5>
|  6> * xyz 0 1
|  7> S 	 2.47387 	 -20.1444 	 59.6939
|  8> C 	 2.92525 	 -18.487 	 60.1968
|  9> C 	 2.11278 	 -18.0645 	 61.2282
| 10> C 	 1.57365 	 -19.1678 	 61.8728
| 11> C 	 1.86801 	 -20.3646 	 61.2825
| 12> H 	 1.00254 	 -19.3012 	 62.818
| 13> C 	 2.07898 	 -16.6936 	 61.8501
| 14> H 	 1.0139 	 -16.4476 	 62.0692
| 15> H 	 2.3221 	 -16.0776 	 61.0537
| 16> C 	 2.82996 	 -16.3736 	 63.131
| 17> H 	 2.56057 	 -15.3479 	 63.3021
| 18> H 	 2.39558 	 -16.9021 	 63.97
| 19> C 	 4.32957 	 -16.6298 	 63.0488
| 20> H 	 4.77066 	 -16.0115 	 62.2827
| 21> H 	 4.87494 	 -16.4235 	 63.999
| 22> H 	 4.50048 	 -17.6574 	 62.7311
| 23> S 	 0.302834 	 -22.6535 	 60.9135
| 24> C 	 0.20079 	 -23.8407 	 62.2303
| 25> C 	 1.05356 	 -23.4287 	 63.275
| 26> C 	 1.72918 	 -22.1557 	 63.0682
| 27> C 	 1.47286 	 -21.6186 	 61.7841
| 28> H 	 1.13271 	 -23.9565 	 64.1944
| 29> C 	 2.59043 	 -21.5466 	 64.1651
| 30> H 	 1.8677 	 -21.2475 	 64.8259
| 31> H 	 3.08179 	 -20.6801 	 63.7953
| 32> C 	 3.59332 	 -22.4947 	 64.8192
| 33> H 	 3.12164 	 -23.4827 	 64.9942
| 34> H 	 3.97429 	 -22.001 	 65.7612
| 35> C 	 4.74467 	 -22.7604 	 63.8099
| 36> H 	 5.45028 	 -21.9336 	 63.8765
| 37> H 	 4.33005 	 -22.9087 	 62.8348
| 38> H 	 5.38228 	 -23.5843 	 64.1337
| 39> H 	 3.53385 	 -17.8268 	 59.6011
| 40> H 	 -0.446923 	 -24.6775 	 62.2478
| 41> *
| 42>
| 43>                          ****END OF INPUT****

CARTESIAN COORDINATES (ANGSTROEM)
---------------------------------
  S      2.473870  -20.144400   59.693900
  C      2.925250  -18.487000   60.196800
  C      2.112780  -18.064500   61.228200
  C      1.573650  -19.167800   61.872800
  C      1.868010  -20.364600   61.282500
  H      1.002540  -19.301200   62.818000
  C      2.078980  -16.693600   61.850100
  H      1.013900  -16.447600   62.069200
  H      2.322100  -16.077600   61.053700
  C      2.829960  -16.373600   63.131000
  H      2.560570  -15.347900   63.302100
  H      2.395580  -16.902100   63.970000
  C      4.329570  -16.629800   63.048800
  H      4.770660  -16.011500   62.282700
  H      4.874940  -16.423500   63.999000
  H      4.500480  -17.657400   62.731100
  S      0.302834  -22.653500   60.913500
  C      0.200790  -23.840700   62.230300
  C      1.053560  -23.428700   63.275000
  C      1.729180  -22.155700   63.068200
  C      1.472860  -21.618600   61.784100
  H      1.132710  -23.956500   64.194400
  C      2.590430  -21.546600   64.165100
  H      1.867700  -21.247500   64.825900
  H      3.081790  -20.680100   63.795300
  C      3.593320  -22.494700   64.819200
  H      3.121640  -23.482700   64.994200
  H      3.974290  -22.001000   65.761200
  C      4.744670  -22.760400   63.809900
  H      5.450280  -21.933600   63.876500
  H      4.330050  -22.908700   62.834800
  H      5.382280  -23.584300   64.133700
  H      3.533850  -17.826800   59.601100
  H     -0.446923  -24.677500   62.247800

 Total Charge           Charge          ....    0
 Multiplicity           Mult            ....    1
 Number of Electrons    NEL             ....  134
 Basis Dimension        Dim             ....  322

ORBITAL ENERGIES
----------------

  NO   OCC          E(Eh)            E(eV)
   0   2.0000     -88.964720     -2420.8531
   1   2.0000     -88.964582     -2420.8493
   2   2.0000     -10.325849      -280.9806
   3   2.0000     -10.323236      -280.9095
   4   2.0000     -10.318040      -280.7681
   5   2.0000     -10.316593      -280.7288
   6   2.0000     -10.306875      -280.4643
   7   2.0000     -10.299456      -280.2624
   8   2.0000     -10.297314      -280.2042
   9   2.0000     -10.291857      -280.0557
  10   2.0000     -10.289190      -279.9831
  11   2.0000     -10.287879      -279.9474
  12   2.0000     -10.286010      -279.8966
  13   2.0000     -10.281159      -279.7646
  14   2.0000     -10.277732      -279.6713
  15   2.0000     -10.270233      -279.4672
  16   2.0000      -8.079985      -219.8676
  17   2.0000      -8.078280      -219.8212
  18   2.0000      -6.038295      -164.3103
  19   2.0000      -6.036988      -164.2748
  20   2.0000      -6.034949      -164.2193
  21   2.0000      -6.032813      -164.1612
  22   2.0000      -6.030369      -164.0947
  23   2.0000      -6.029021      -164.0580
  24   2.0000      -1.012793       -27.5595
  25   2.0000      -0.977698       -26.6045
  26   2.0000      -0.919022       -25.0079
  27   2.0000      -0.910499       -24.7759
  28   2.0000      -0.873036       -23.7565
  29   2.0000      -0.851578       -23.1726
  30   2.0000      -0.838921       -22.8282
  31   2.0000      -0.810930       -22.0665
  32   2.0000      -0.788662       -21.4606
  33   2.0000      -0.775591       -21.1049
  34   2.0000      -0.713681       -19.4203
  35   2.0000      -0.701925       -19.1003
  36   2.0000      -0.697645       -18.9839
  37   2.0000      -0.653793       -17.7906
  38   2.0000      -0.643946       -17.5227
  39   2.0000      -0.617788       -16.8109
  40   2.0000      -0.600381       -16.3372
  41   2.0000      -0.566149       -15.4057
  42   2.0000      -0.562984       -15.3196
  43   2.0000      -0.549993       -14.9661
  44   2.0000      -0.544541       -14.8177
  45   2.0000      -0.537783       -14.6338
  46   2.0000      -0.526787       -14.3346
  47   2.0000      -0.521116       -14.1803
  48   2.0000      -0.500334       -13.6148
  49   2.0000      -0.493228       -13.4214
  50   2.0000      -0.485333       -13.2066
  51   2.0000      -0.478583       -13.0229
  52   2.0000      -0.467967       -12.7340
  53   2.0000      -0.460913       -12.5421
  54   2.0000      -0.460808       -12.5392
  55   2.0000      -0.449480       -12.2310
  56   2.0000      -0.446656       -12.1541
  57   2.0000      -0.441514       -12.0142
  58   2.0000      -0.431439       -11.7401
  59   2.0000      -0.425496       -11.5783
  60   2.0000      -0.420128       -11.4323
  61   2.0000      -0.419032       -11.4025
  62   2.0000      -0.412988       -11.2380
  63   2.0000      -0.343336        -9.3427
  64   2.0000      -0.332909        -9.0589
  65   2.0000      -0.326187        -8.8760
  66   2.0000      -0.286845        -7.8054
  67   0.0000       0.024912         0.6779
  68   0.0000       0.057411         1.5622
  69   0.0000       0.098501         2.6803
  70   0.0000       0.123322         3.3558
  71   0.0000       0.126377         3.4389

MULLIKEN ATOMIC CHARGES
-----------------------
   0 S :    0.110024
   1 C :   -0.118640
   2 C :   -0.064352
   3 C :    0.006840
   4 C :   -0.177609
   5 H :    0.026380
   6 C :    0.063573
   7 H :    0.032933
   8 H :   -0.001476
   9 C :   -0.020892
  10 H :    0.023273
  11 H :    0.020247
  12 C :   -0.053268
  13 H :    0.020047
  14 H :    0.042640
  15 H :    0.042497
  16 S :    0.092783
  17 C :   -0.077988
  18 C :   -0.031490
  19 C :   -0.100095
  20 C :   -0.143145
  21 H :    0.013250
  22 C :    0.139186
  23 H :    0.014775
  24 H :    0.017689
  25 C :   -0.101987
  26 H :    0.035808
  27 H :    0.041480
  28 C :   -0.041093
  29 H :    0.021992
  30 H :    0.048845
  31 H :    0.028073
  32 H :    0.037516
  33 H :    0.052186
Sum of atomic charges:   -0.0000000

LOEWDIN ATOMIC CHARGES
----------------------
   0 S :    0.398302
   1 C :   -0.172861
   2 C :   -0.064077
   3 C :   -0.061591
   4 C :   -0.204235
   5 H :    0.040169
   6 C :   -0.030146
   7 H :    0.041730
   8 H :    0.018175
   9 C :   -0.035254
  10 H :    0.025386
  11 H :    0.021868
  12 C :   -0.067130
  13 H :    0.021725
  14 H :    0.031278
  15 H :    0.027756
  16 S :    0.375862
  17 C :   -0.171051
  18 C :   -0.068610
  19 C :   -0.049535
  20 C :   -0.196641
  21 H :    0.022932
  22 C :   -0.026437
  23 H :    0.022566
  24 H :    0.026243
  25 C :   -0.038610
  26 H :    0.023080
  27 H :    0.031141
  28 C :   -0.062019
  29 H :    0.023782
  30 H :    0.026023
  31 H :    0.024674
  32 H :    0.020839
  33 H :    0.024662

  Mayer bond orders larger than 0.100000
B(  0-S ,  1-C ) :   1.1315 B(  0-S ,  4-C ) :   1.1342 B(  1-C ,  2-C ) :   1.5938
B(  1-C ,  4-C ) :   0.1062 B(  1-C , 32-H ) :   0.9760 B(  2-C ,  3-C ) :   1.1922
B(  2-C ,  6-C ) :   1.0416 B(  3-C ,  4-C ) :   1.5802 B(  3-C ,  5-H ) :   0.9998
B(  4-C , 20-C ) :   1.0824 B(  6-C ,  7-H ) :   0.9311 B(  6-C ,  8-H ) :   0.9325
B(  6-C ,  9-C ) :   1.0764 B(  9-C , 10-H ) :   0.9487 B(  9-C , 11-H ) :   0.9510
B(  9-C , 12-C ) :   1.0749 B( 12-C , 13-H ) :   0.9746 B( 12-C , 14-H ) :   0.9740
B( 12-C , 15-H ) :   0.9736 B( 16-S , 17-C ) :   1.1448 B( 16-S , 20-C ) :   1.1230
B( 17-C , 18-C ) :   1.5968 B( 17-C , 20-C ) :   0.1027 B( 17-C , 33-H ) :   0.9759
B( 18-C , 19-C ) :   1.2398 B( 18-C , 21-H ) :   0.9870 B( 19-C , 20-C ) :   1.5812
B( 19-C , 22-C ) :   1.0299 B( 22-C , 23-H ) :   0.9180 B( 22-C , 24-H ) :   0.9295
B( 22-C , 25-C ) :   1.0735 B( 25-C , 26-H ) :   0.9584 B( 25-C , 27-H ) :   0.9543
B( 25-C , 28-C ) :   1.0684 B( 28-C , 29-H ) :   0.9741 B( 28-C , 30-H ) :   0.9776
B( 28-C , 31-H ) :   0.9751

Dispersion correction           -0.015139568
FINAL SINGLE POINT ENERGY     -1339.858118568705

DIPOLE MOMENT
-------------
                                X             Y             Z
Electronic contribution:    -14.91085     -11.68608     -20.03806
Nuclear contribution   :     14.97571      12.11125      20.71907
                        -----------------------------------------
Total Dipole Moment    :      0.06486       0.42517       0.68101
                        -----------------------------------------
Magnitude (a.u.)       :      0.80545
Magnitude (Debye)      :      2.04729

Rotational constants in cm-1:     0.018568     0.009594     0.007491
Rotational constants in MHz :   556.662264   287.629016   224.589221

                             ****ORCA TERMINATED NORMALLY****
TOTAL RUN TIME: 0 days 0 hours 0 minutes 37 seconds 302 msec
