                         Program Version 4.2.1 -  RELEASE  -
|  1> ! wB97X-D3 SP def2-SVP
|  2> %pal
|  3> nprocs 16
|  4> end
|  5>
|  6> * xyz 0 1
|  7> S 	 4.51387 	 -17.0595 	 88.8612
|  8> C 	 4.08181 	 -17.1538 	 87.16
|  9> C 	 5.09824 	 -17.6982 	 86.3664
| 10> C 	 6.19851 	 -18.0813 	 87.169
| 11> C 	 5.99766 	 -17.9013 	 88.5712
| 12> H 	 7.04235 	 -18.6781 	 86.8663
| 13> C 	 4.91464 	 -18.0129 	 84.9471
| 14> H 	 5.7816 	 -17.7677 	 84.358
| 15> H 	 4.1765 	 -17.3864 	 84.5136
| 16> C 	 4.56777 	 -19.4831 	 84.5563
| 17> H 	 4.90371 	 -19.5406 	 83.5583
| 18> H 	 5.0597 	 -20.2467 	 85.1837
| 19> C 	 3.09157 	 -19.7757 	 84.6674
| 20> H 	 2.92251 	 -19.825 	 85.7222
| 21> H 	 2.38752 	 -18.9525 	 84.4135
| 22> H 	 2.77764 	 -20.7313 	 84.1461
| 23> S 	 6.41583 	 -19.5734 	 90.9093
| 24> C 	 7.96808 	 -19.4377 	 91.6884
| 25> C 	 8.8074 	 -18.6514 	 90.9632
| 26> C 	 8.21255 	 -18.0357 	 89.877
| 27> C 	 6.92844 	 -18.4182 	 89.641
| 28> H 	 9.73841 	 -18.5661 	 91.4469
| 29> C 	 9.02223 	 -17.1843 	 88.9022
| 30> H 	 8.29201 	 -16.5151 	 88.4141
| 31> H 	 9.39197 	 -17.9068 	 88.2292
| 32> C 	 10.2798 	 -16.4955 	 89.5044
| 33> H 	 10.8226 	 -17.1629 	 90.0958
| 34> H 	 10.07 	 -15.6365 	 90.1477
| 35> C 	 11.3011 	 -15.8852 	 88.5364
| 36> H 	 12.0283 	 -15.2138 	 88.9214
| 37> H 	 10.8916 	 -15.3426 	 87.7179
| 38> H 	 11.9139 	 -16.7431 	 88.1381
| 39> H 	 3.18717 	 -16.7773 	 86.6991
| 40> H 	 8.33956 	 -19.9302 	 92.5538
| 41> *
| 42>
| 43>                          ****END OF INPUT****

CARTESIAN COORDINATES (ANGSTROEM)
---------------------------------
  S      4.513870  -17.059500   88.861200
  C      4.081810  -17.153800   87.160000
  C      5.098240  -17.698200   86.366400
  C      6.198510  -18.081300   87.169000
  C      5.997660  -17.901300   88.571200
  H      7.042350  -18.678100   86.866300
  C      4.914640  -18.012900   84.947100
  H      5.781600  -17.767700   84.358000
  H      4.176500  -17.386400   84.513600
  C      4.567770  -19.483100   84.556300
  H      4.903710  -19.540600   83.558300
  H      5.059700  -20.246700   85.183700
  C      3.091570  -19.775700   84.667400
  H      2.922510  -19.825000   85.722200
  H      2.387520  -18.952500   84.413500
  H      2.777640  -20.731300   84.146100
  S      6.415830  -19.573400   90.909300
  C      7.968080  -19.437700   91.688400
  C      8.807400  -18.651400   90.963200
  C      8.212550  -18.035700   89.877000
  C      6.928440  -18.418200   89.641000
  H      9.738410  -18.566100   91.446900
  C      9.022230  -17.184300   88.902200
  H      8.292010  -16.515100   88.414100
  H      9.391970  -17.906800   88.229200
  C     10.279800  -16.495500   89.504400
  H     10.822600  -17.162900   90.095800
  H     10.070000  -15.636500   90.147700
  C     11.301100  -15.885200   88.536400
  H     12.028300  -15.213800   88.921400
  H     10.891600  -15.342600   87.717900
  H     11.913900  -16.743100   88.138100
  H      3.187170  -16.777300   86.699100
  H      8.339560  -19.930200   92.553800

 Total Charge           Charge          ....    0
 Multiplicity           Mult            ....    1
 Number of Electrons    NEL             ....  134
 Basis Dimension        Dim             ....  322

ORBITAL ENERGIES
----------------

  NO   OCC          E(Eh)            E(eV)
   0   2.0000     -88.972558     -2421.0664
   1   2.0000     -88.965360     -2420.8705
   2   2.0000     -10.335746      -281.2499
   3   2.0000     -10.327400      -281.0228
   4   2.0000     -10.314683      -280.6768
   5   2.0000     -10.312020      -280.6043
   6   2.0000     -10.300485      -280.2904
   7   2.0000     -10.297317      -280.2042
   8   2.0000     -10.296474      -280.1813
   9   2.0000     -10.290024      -280.0058
  10   2.0000     -10.286073      -279.8983
  11   2.0000     -10.284394      -279.8526
  12   2.0000     -10.282246      -279.7941
  13   2.0000     -10.281202      -279.7657
  14   2.0000     -10.276498      -279.6377
  15   2.0000     -10.273718      -279.5621
  16   2.0000      -8.086859      -220.0546
  17   2.0000      -8.079526      -219.8551
  18   2.0000      -6.045259      -164.4999
  19   2.0000      -6.041310      -164.3924
  20   2.0000      -6.038026      -164.3030
  21   2.0000      -6.037886      -164.2992
  22   2.0000      -6.034172      -164.1982
  23   2.0000      -6.030262      -164.0918
  24   2.0000      -1.005836       -27.3702
  25   2.0000      -0.987709       -26.8769
  26   2.0000      -0.917186       -24.9579
  27   2.0000      -0.906254       -24.6604
  28   2.0000      -0.867605       -23.6087
  29   2.0000      -0.854635       -23.2558
  30   2.0000      -0.848138       -23.0790
  31   2.0000      -0.815856       -22.2006
  32   2.0000      -0.785719       -21.3805
  33   2.0000      -0.775274       -21.0963
  34   2.0000      -0.709144       -19.2968
  35   2.0000      -0.705983       -19.2108
  36   2.0000      -0.694969       -18.9111
  37   2.0000      -0.651723       -17.7343
  38   2.0000      -0.642533       -17.4842
  39   2.0000      -0.621714       -16.9177
  40   2.0000      -0.594030       -16.1644
  41   2.0000      -0.582035       -15.8380
  42   2.0000      -0.569886       -15.5074
  43   2.0000      -0.551713       -15.0129
  44   2.0000      -0.534766       -14.5517
  45   2.0000      -0.531039       -14.4503
  46   2.0000      -0.518417       -14.1069
  47   2.0000      -0.514836       -14.0094
  48   2.0000      -0.499951       -13.6044
  49   2.0000      -0.498015       -13.5517
  50   2.0000      -0.488439       -13.2911
  51   2.0000      -0.480305       -13.0698
  52   2.0000      -0.475433       -12.9372
  53   2.0000      -0.467362       -12.7176
  54   2.0000      -0.463965       -12.6251
  55   2.0000      -0.446236       -12.1427
  56   2.0000      -0.442815       -12.0496
  57   2.0000      -0.433673       -11.8009
  58   2.0000      -0.432091       -11.7578
  59   2.0000      -0.430645       -11.7184
  60   2.0000      -0.421129       -11.4595
  61   2.0000      -0.414930       -11.2908
  62   2.0000      -0.409410       -11.1406
  63   2.0000      -0.339457        -9.2371
  64   2.0000      -0.333132        -9.0650
  65   2.0000      -0.331197        -9.0123
  66   2.0000      -0.297532        -8.0963
  67   0.0000       0.030829         0.8389
  68   0.0000       0.066181         1.8009
  69   0.0000       0.116811         3.1786
  70   0.0000       0.125217         3.4073
  71   0.0000       0.131111         3.5677

MULLIKEN ATOMIC CHARGES
-----------------------
   0 S :    0.138957
   1 C :   -0.120840
   2 C :   -0.063979
   3 C :    0.030726
   4 C :   -0.195583
   5 H :    0.012687
   6 C :    0.068985
   7 H :    0.018279
   8 H :    0.003718
   9 C :   -0.037841
  10 H :    0.019135
  11 H :    0.039368
  12 C :   -0.073499
  13 H :    0.024907
  14 H :    0.021769
  15 H :    0.051538
  16 S :    0.106328
  17 C :   -0.077778
  18 C :   -0.047981
  19 C :   -0.007573
  20 C :   -0.172662
  21 H :    0.003282
  22 C :    0.108073
  23 H :    0.048521
  24 H :    0.028297
  25 C :   -0.071921
  26 H :    0.016005
  27 H :    0.030447
  28 C :   -0.052000
  29 H :    0.024503
  30 H :    0.024342
  31 H :    0.024795
  32 H :    0.037406
  33 H :    0.039592
Sum of atomic charges:    0.0000000

LOEWDIN ATOMIC CHARGES
----------------------
   0 S :    0.425659
   1 C :   -0.197868
   2 C :   -0.064772
   3 C :   -0.057311
   4 C :   -0.202288
   5 H :    0.029061
   6 C :   -0.030452
   7 H :    0.031853
   8 H :    0.026300
   9 C :   -0.030634
  10 H :    0.016249
  11 H :    0.031217
  12 C :   -0.076566
  13 H :    0.024122
  14 H :    0.022991
  15 H :    0.034350
  16 S :    0.389839
  17 C :   -0.172013
  18 C :   -0.079645
  19 C :   -0.053506
  20 C :   -0.197279
  21 H :    0.027645
  22 C :   -0.020338
  23 H :    0.037366
  24 H :    0.029978
  25 C :   -0.039743
  26 H :    0.014357
  27 H :    0.026879
  28 C :   -0.065906
  29 H :    0.022539
  30 H :    0.019817
  31 H :    0.027029
  32 H :    0.023972
  33 H :    0.027094

  Mayer bond orders larger than 0.100000
B(  0-S ,  1-C ) :   1.1494 B(  0-S ,  4-C ) :   1.1756 B(  1-C ,  2-C ) :   1.5743
B(  1-C ,  4-C ) :   0.1008 B(  1-C , 32-H ) :   0.9664 B(  2-C ,  3-C ) :   1.2657
B(  2-C ,  6-C ) :   1.0594 B(  3-C ,  4-C ) :   1.5358 B(  3-C ,  5-H ) :   0.9924
B(  4-C , 20-C ) :   1.0293 B(  6-C ,  7-H ) :   0.9326 B(  6-C ,  8-H ) :   0.9318
B(  6-C ,  9-C ) :   1.0601 B(  9-C , 10-H ) :   0.9576 B(  9-C , 11-H ) :   0.9594
B(  9-C , 12-C ) :   1.0704 B( 12-C , 13-H ) :   0.9761 B( 12-C , 14-H ) :   0.9747
B( 12-C , 15-H ) :   0.9728 B( 16-S , 17-C ) :   1.1588 B( 16-S , 20-C ) :   1.1231
B( 17-C , 18-C ) :   1.6385 B( 17-C , 33-H ) :   0.9617 B( 18-C , 19-C ) :   1.2235
B( 18-C , 21-H ) :   0.9963 B( 19-C , 20-C ) :   1.6191 B( 19-C , 22-C ) :   1.0270
B( 22-C , 23-H ) :   0.9254 B( 22-C , 24-H ) :   0.9356 B( 22-C , 25-C ) :   1.0614
B( 25-C , 26-H ) :   0.9509 B( 25-C , 27-H ) :   0.9596 B( 25-C , 28-C ) :   1.0870
B( 28-C , 29-H ) :   0.9747 B( 28-C , 30-H ) :   0.9758 B( 28-C , 31-H ) :   0.9762

Dispersion correction           -0.013926687
FINAL SINGLE POINT ENERGY     -1339.862144304876

DIPOLE MOMENT
-------------
                                X             Y             Z
Electronic contribution:    -10.73978      -2.49555      19.49602
Nuclear contribution   :     11.18342       2.49266     -19.88320
                        -----------------------------------------
Total Dipole Moment    :      0.44364      -0.00289      -0.38718
                        -----------------------------------------
Magnitude (a.u.)       :      0.58885
Magnitude (Debye)      :      1.49673

Rotational constants in cm-1:     0.018893     0.007715     0.006449
Rotational constants in MHz :   566.388965   231.286607   193.341689

                             ****ORCA TERMINATED NORMALLY****
TOTAL RUN TIME: 0 days 0 hours 0 minutes 33 seconds 226 msec
