                         Program Version 4.2.1 -  RELEASE  -
|  1> ! wB97X-D3 SP def2-SVP
|  2> %pal
|  3> nprocs 16
|  4> end
|  5>
|  6> * xyz 0 1
|  7> S 	 -48.0317 	 62.9789 	 141.057
|  8> C 	 -46.7559 	 63.835 	 141.883
|  9> C 	 -46.6839 	 65.1775 	 141.685
| 10> C 	 -47.6838 	 65.572 	 140.764
| 11> C 	 -48.3744 	 64.5112 	 140.243
| 12> H 	 -47.8974 	 66.5633 	 140.535
| 13> C 	 -45.8166 	 66.2672 	 142.293
| 14> H 	 -46.3957 	 66.8177 	 143.058
| 15> H 	 -45.6414 	 67.0272 	 141.526
| 16> C 	 -44.5263 	 65.8022 	 142.841
| 17> H 	 -44.5558 	 64.9087 	 143.463
| 18> H 	 -43.9355 	 65.5091 	 142.006
| 19> C 	 -43.625 	 66.9058 	 143.505
| 20> H 	 -43.3999 	 67.7352 	 142.879
| 21> H 	 -44.113 	 67.1932 	 144.489
| 22> H 	 -42.6385 	 66.4756 	 143.716
| 23> S 	 -51.1441 	 64.7441 	 140.225
| 24> C 	 -51.8346 	 65.0714 	 138.687
| 25> C 	 -50.9295 	 65.1733 	 137.663
| 26> C 	 -49.5701 	 65.0178 	 138.117
| 27> C 	 -49.5573 	 64.6537 	 139.448
| 28> H 	 -51.2511 	 65.3541 	 136.697
| 29> C 	 -48.3236 	 65.0619 	 137.211
| 30> H 	 -48.5411 	 64.4051 	 136.315
| 31> H 	 -47.5596 	 64.6798 	 137.871
| 32> C 	 -47.8903 	 66.4501 	 136.725
| 33> H 	 -47.861 	 67.1972 	 137.491
| 34> H 	 -48.6763 	 66.9206 	 136.111
| 35> C 	 -46.6239 	 66.451 	 135.854
| 36> H 	 -45.7698 	 66.3287 	 136.481
| 37> H 	 -46.457 	 67.3346 	 135.364
| 38> H 	 -46.6986 	 65.7437 	 135.02
| 39> H 	 -46.2202 	 63.4074 	 142.728
| 40> H 	 -52.8995 	 65.1644 	 138.643
| 41> *
| 42>
| 43>                          ****END OF INPUT****

CARTESIAN COORDINATES (ANGSTROEM)
---------------------------------
  S    -48.031700   62.978900  141.057000
  C    -46.755900   63.835000  141.883000
  C    -46.683900   65.177500  141.685000
  C    -47.683800   65.572000  140.764000
  C    -48.374400   64.511200  140.243000
  H    -47.897400   66.563300  140.535000
  C    -45.816600   66.267200  142.293000
  H    -46.395700   66.817700  143.058000
  H    -45.641400   67.027200  141.526000
  C    -44.526300   65.802200  142.841000
  H    -44.555800   64.908700  143.463000
  H    -43.935500   65.509100  142.006000
  C    -43.625000   66.905800  143.505000
  H    -43.399900   67.735200  142.879000
  H    -44.113000   67.193200  144.489000
  H    -42.638500   66.475600  143.716000
  S    -51.144100   64.744100  140.225000
  C    -51.834600   65.071400  138.687000
  C    -50.929500   65.173300  137.663000
  C    -49.570100   65.017800  138.117000
  C    -49.557300   64.653700  139.448000
  H    -51.251100   65.354100  136.697000
  C    -48.323600   65.061900  137.211000
  H    -48.541100   64.405100  136.315000
  H    -47.559600   64.679800  137.871000
  C    -47.890300   66.450100  136.725000
  H    -47.861000   67.197200  137.491000
  H    -48.676300   66.920600  136.111000
  C    -46.623900   66.451000  135.854000
  H    -45.769800   66.328700  136.481000
  H    -46.457000   67.334600  135.364000
  H    -46.698600   65.743700  135.020000
  H    -46.220200   63.407400  142.728000
  H    -52.899500   65.164400  138.643000

 Total Charge           Charge          ....    0
 Multiplicity           Mult            ....    1
 Number of Electrons    NEL             ....  134
 Basis Dimension        Dim             ....  322

ORBITAL ENERGIES
----------------

  NO   OCC          E(Eh)            E(eV)
   0   2.0000     -88.967061     -2420.9168
   1   2.0000     -88.961692     -2420.7707
   2   2.0000     -10.319291      -280.8022
   3   2.0000     -10.314981      -280.6849
   4   2.0000     -10.310397      -280.5602
   5   2.0000     -10.309263      -280.5293
   6   2.0000     -10.299933      -280.2754
   7   2.0000     -10.294978      -280.1406
   8   2.0000     -10.294458      -280.1265
   9   2.0000     -10.294119      -280.1172
  10   2.0000     -10.285750      -279.8895
  11   2.0000     -10.285084      -279.8714
  12   2.0000     -10.284149      -279.8459
  13   2.0000     -10.283303      -279.8229
  14   2.0000     -10.282687      -279.8061
  15   2.0000     -10.268672      -279.4248
  16   2.0000      -8.081712      -219.9146
  17   2.0000      -8.077171      -219.7910
  18   2.0000      -6.040060      -164.3584
  19   2.0000      -6.036561      -164.2632
  20   2.0000      -6.035569      -164.2362
  21   2.0000      -6.032319      -164.1477
  22   2.0000      -6.031739      -164.1320
  23   2.0000      -6.027863      -164.0265
  24   2.0000      -1.008169       -27.4337
  25   2.0000      -0.984405       -26.7870
  26   2.0000      -0.916968       -24.9520
  27   2.0000      -0.905115       -24.6294
  28   2.0000      -0.869043       -23.6479
  29   2.0000      -0.855107       -23.2686
  30   2.0000      -0.850466       -23.1424
  31   2.0000      -0.809225       -22.0201
  32   2.0000      -0.787092       -21.4179
  33   2.0000      -0.772928       -21.0324
  34   2.0000      -0.712813       -19.3966
  35   2.0000      -0.702674       -19.1207
  36   2.0000      -0.690684       -18.7945
  37   2.0000      -0.660121       -17.9628
  38   2.0000      -0.642206       -17.4753
  39   2.0000      -0.617742       -16.8096
  40   2.0000      -0.596788       -16.2394
  41   2.0000      -0.575048       -15.6479
  42   2.0000      -0.567462       -15.4414
  43   2.0000      -0.558066       -15.1858
  44   2.0000      -0.524475       -14.2717
  45   2.0000      -0.522222       -14.2104
  46   2.0000      -0.521159       -14.1815
  47   2.0000      -0.514108       -13.9896
  48   2.0000      -0.502728       -13.6799
  49   2.0000      -0.500048       -13.6070
  50   2.0000      -0.484440       -13.1823
  51   2.0000      -0.477595       -12.9960
  52   2.0000      -0.470228       -12.7956
  53   2.0000      -0.462190       -12.5768
  54   2.0000      -0.458946       -12.4885
  55   2.0000      -0.454044       -12.3552
  56   2.0000      -0.450257       -12.2521
  57   2.0000      -0.438538       -11.9332
  58   2.0000      -0.436487       -11.8774
  59   2.0000      -0.432159       -11.7597
  60   2.0000      -0.424900       -11.5621
  61   2.0000      -0.413073       -11.2403
  62   2.0000      -0.410273       -11.1641
  63   2.0000      -0.339356        -9.2343
  64   2.0000      -0.327610        -8.9147
  65   2.0000      -0.321616        -8.7516
  66   2.0000      -0.304018        -8.2727
  67   0.0000       0.042107         1.1458
  68   0.0000       0.062727         1.7069
  69   0.0000       0.110099         2.9959
  70   0.0000       0.120927         3.2906
  71   0.0000       0.127942         3.4815

MULLIKEN ATOMIC CHARGES
-----------------------
   0 S :    0.116874
   1 C :   -0.126774
   2 C :   -0.075087
   3 C :    0.049742
   4 C :   -0.191759
   5 H :   -0.010582
   6 C :    0.099546
   7 H :    0.036079
   8 H :    0.021702
   9 C :   -0.099439
  10 H :    0.031086
  11 H :    0.019738
  12 C :   -0.050617
  13 H :    0.028679
  14 H :    0.042077
  15 H :    0.031024
  16 S :    0.112704
  17 C :   -0.090490
  18 C :    0.014746
  19 C :   -0.039065
  20 C :   -0.161622
  21 H :   -0.015561
  22 C :    0.086890
  23 H :    0.043033
  24 H :    0.032990
  25 C :   -0.086723
  26 H :    0.011501
  27 H :    0.014101
  28 C :    0.007663
  29 H :    0.028453
  30 H :    0.004159
  31 H :    0.026418
  32 H :    0.040094
  33 H :    0.048420
Sum of atomic charges:   -0.0000000

LOEWDIN ATOMIC CHARGES
----------------------
   0 S :    0.399802
   1 C :   -0.198185
   2 C :   -0.063084
   3 C :   -0.037449
   4 C :   -0.193119
   5 H :    0.021765
   6 C :   -0.031435
   7 H :    0.035145
   8 H :    0.033203
   9 C :   -0.046584
  10 H :    0.023449
  11 H :    0.023413
  12 C :   -0.062593
  13 H :    0.019099
  14 H :    0.029981
  15 H :    0.028126
  16 S :    0.403059
  17 C :   -0.181743
  18 C :   -0.064234
  19 C :   -0.046716
  20 C :   -0.206485
  21 H :    0.018085
  22 C :   -0.026428
  23 H :    0.040671
  24 H :    0.030432
  25 C :   -0.044570
  26 H :    0.018493
  27 H :    0.022187
  28 C :   -0.055931
  29 H :    0.023620
  30 H :    0.015162
  31 H :    0.028805
  32 H :    0.023448
  33 H :    0.020611

  Mayer bond orders larger than 0.100000
B(  0-S ,  1-C ) :   1.1312 B(  0-S ,  4-C ) :   1.1303 B(  1-C ,  2-C ) :   1.6629
B(  1-C , 32-H ) :   0.9551 B(  2-C ,  3-C ) :   1.2266 B(  2-C ,  6-C ) :   1.0042
B(  3-C ,  4-C ) :   1.6012 B(  3-C ,  5-H ) :   1.0082 B(  4-C , 20-C ) :   1.0196
B(  6-C ,  7-H ) :   0.9292 B(  6-C ,  8-H ) :   0.9400 B(  6-C ,  9-C ) :   1.0722
B(  9-C , 10-H ) :   0.9531 B(  9-C , 11-H ) :   0.9536 B(  9-C , 12-C ) :   1.0893
B( 12-C , 13-H ) :   0.9753 B( 12-C , 14-H ) :   0.9762 B( 12-C , 15-H ) :   0.9741
B( 16-S , 17-C ) :   1.1591 B( 16-S , 20-C ) :   1.1354 B( 17-C , 18-C ) :   1.6142
B( 17-C , 33-H ) :   0.9701 B( 18-C , 19-C ) :   1.2091 B( 18-C , 21-H ) :   1.0089
B( 19-C , 20-C ) :   1.6295 B( 19-C , 22-C ) :   1.0384 B( 22-C , 23-H ) :   0.9372
B( 22-C , 24-H ) :   0.9265 B( 22-C , 25-C ) :   1.0614 B( 25-C , 26-H ) :   0.9517
B( 25-C , 27-H ) :   0.9538 B( 25-C , 28-C ) :   1.0909 B( 28-C , 29-H ) :   0.9759
B( 28-C , 30-H ) :   0.9696 B( 28-C , 31-H ) :   0.9716

Dispersion correction           -0.013880977
FINAL SINGLE POINT ENERGY     -1339.871293544444

DIPOLE MOMENT
-------------
                                X             Y             Z
Electronic contribution:    -23.99911     -15.93447       5.08867
Nuclear contribution   :     24.30852      16.50322      -5.19284
                        -----------------------------------------
Total Dipole Moment    :      0.30941       0.56875      -0.10417
                        -----------------------------------------
Magnitude (a.u.)       :      0.65580
Magnitude (Debye)      :      1.66690

Rotational constants in cm-1:     0.017872     0.008211     0.006455
Rotational constants in MHz :   535.776613   246.168088   193.517029

                             ****ORCA TERMINATED NORMALLY****
TOTAL RUN TIME: 0 days 0 hours 0 minutes 34 seconds 278 msec
