                         Program Version 4.2.1 -  RELEASE  -
|  1> ! wB97X-D3 SP def2-SVP
|  2> %pal
|  3> nprocs 16
|  4> end
|  5>
|  6> * xyz 0 1
|  7> S 	 -67.4353 	 38.6323 	 141.095
|  8> C 	 -69.0259 	 38.3086 	 140.388
|  9> C 	 -68.9175 	 37.5661 	 139.164
| 10> C 	 -67.5699 	 37.5939 	 138.725
| 11> C 	 -66.6198 	 38.0113 	 139.7
| 12> H 	 -67.2228 	 37.0746 	 137.786
| 13> C 	 -70.0337 	 36.7998 	 138.391
| 14> H 	 -70.9638 	 37.3943 	 138.632
| 15> H 	 -69.9948 	 35.7947 	 138.739
| 16> C 	 -69.7849 	 36.7412 	 136.844
| 17> H 	 -69.6439 	 37.8343 	 136.453
| 18> H 	 -68.8449 	 36.3163 	 136.61
| 19> C 	 -70.7094 	 35.7788 	 135.998
| 20> H 	 -70.8648 	 34.8269 	 136.507
| 21> H 	 -71.5769 	 36.29 	 135.868
| 22> H 	 -70.4087 	 35.5568 	 134.983
| 23> S 	 -64.1979 	 37.7165 	 140.987
| 24> C 	 -62.6828 	 38.1249 	 140.147
| 25> C 	 -62.9285 	 38.3198 	 138.845
| 26> C 	 -64.2927 	 38.3875 	 138.484
| 27> C 	 -65.1667 	 38.0502 	 139.543
| 28> H 	 -62.0994 	 38.4767 	 138.22
| 29> C 	 -64.7234 	 38.6891 	 137.116
| 30> H 	 -65.7124 	 38.1924 	 136.962
| 31> H 	 -64.0985 	 38.0783 	 136.511
| 32> C 	 -64.6899 	 40.0812 	 136.554
| 33> H 	 -64.2396 	 39.9717 	 135.566
| 34> H 	 -64.033 	 40.6364 	 137.181
| 35> C 	 -66.128 	 40.632 	 136.45
| 36> H 	 -66.7289 	 40.6254 	 137.312
| 37> H 	 -66.6164 	 39.9781 	 135.705
| 38> H 	 -66.2577 	 41.6659 	 136.018
| 39> H 	 -69.9789 	 38.4976 	 140.931
| 40> H 	 -61.7383 	 37.9777 	 140.595
| 41> *
| 42>
| 43>                          ****END OF INPUT****

CARTESIAN COORDINATES (ANGSTROEM)
---------------------------------
  S    -67.435300   38.632300  141.095000
  C    -69.025900   38.308600  140.388000
  C    -68.917500   37.566100  139.164000
  C    -67.569900   37.593900  138.725000
  C    -66.619800   38.011300  139.700000
  H    -67.222800   37.074600  137.786000
  C    -70.033700   36.799800  138.391000
  H    -70.963800   37.394300  138.632000
  H    -69.994800   35.794700  138.739000
  C    -69.784900   36.741200  136.844000
  H    -69.643900   37.834300  136.453000
  H    -68.844900   36.316300  136.610000
  C    -70.709400   35.778800  135.998000
  H    -70.864800   34.826900  136.507000
  H    -71.576900   36.290000  135.868000
  H    -70.408700   35.556800  134.983000
  S    -64.197900   37.716500  140.987000
  C    -62.682800   38.124900  140.147000
  C    -62.928500   38.319800  138.845000
  C    -64.292700   38.387500  138.484000
  C    -65.166700   38.050200  139.543000
  H    -62.099400   38.476700  138.220000
  C    -64.723400   38.689100  137.116000
  H    -65.712400   38.192400  136.962000
  H    -64.098500   38.078300  136.511000
  C    -64.689900   40.081200  136.554000
  H    -64.239600   39.971700  135.566000
  H    -64.033000   40.636400  137.181000
  C    -66.128000   40.632000  136.450000
  H    -66.728900   40.625400  137.312000
  H    -66.616400   39.978100  135.705000
  H    -66.257700   41.665900  136.018000
  H    -69.978900   38.497600  140.931000
  H    -61.738300   37.977700  140.595000

 Total Charge           Charge          ....    0
 Multiplicity           Mult            ....    1
 Number of Electrons    NEL             ....  134
 Basis Dimension        Dim             ....  322

ORBITAL ENERGIES
----------------

  NO   OCC          E(Eh)            E(eV)
   0   2.0000     -88.973297     -2421.0865
   1   2.0000     -88.960668     -2420.7428
   2   2.0000     -10.334802      -281.2243
   3   2.0000     -10.331542      -281.1355
   4   2.0000     -10.323832      -280.9258
   5   2.0000     -10.312623      -280.6207
   6   2.0000     -10.311503      -280.5903
   7   2.0000     -10.306941      -280.4661
   8   2.0000     -10.300444      -280.2893
   9   2.0000     -10.299349      -280.2595
  10   2.0000     -10.298130      -280.2264
  11   2.0000     -10.286081      -279.8985
  12   2.0000     -10.281794      -279.7818
  13   2.0000     -10.278683      -279.6972
  14   2.0000     -10.276857      -279.6475
  15   2.0000     -10.274901      -279.5943
  16   2.0000      -8.087347      -220.0679
  17   2.0000      -8.075034      -219.7329
  18   2.0000      -6.045875      -164.5166
  19   2.0000      -6.041800      -164.4057
  20   2.0000      -6.038267      -164.3096
  21   2.0000      -6.033606      -164.1828
  22   2.0000      -6.029603      -164.0738
  23   2.0000      -6.025756      -163.9692
  24   2.0000      -1.003287       -27.3008
  25   2.0000      -0.981036       -26.6953
  26   2.0000      -0.915077       -24.9005
  27   2.0000      -0.905915       -24.6512
  28   2.0000      -0.869106       -23.6496
  29   2.0000      -0.848897       -23.0997
  30   2.0000      -0.844712       -22.9858
  31   2.0000      -0.812099       -22.0983
  32   2.0000      -0.785163       -21.3654
  33   2.0000      -0.771171       -20.9846
  34   2.0000      -0.714574       -19.4446
  35   2.0000      -0.702219       -19.1084
  36   2.0000      -0.693510       -18.8714
  37   2.0000      -0.659349       -17.9418
  38   2.0000      -0.632881       -17.2216
  39   2.0000      -0.619531       -16.8583
  40   2.0000      -0.600993       -16.3539
  41   2.0000      -0.573634       -15.6094
  42   2.0000      -0.563718       -15.3395
  43   2.0000      -0.559435       -15.2230
  44   2.0000      -0.535730       -14.5779
  45   2.0000      -0.522963       -14.2305
  46   2.0000      -0.516311       -14.0495
  47   2.0000      -0.509494       -13.8640
  48   2.0000      -0.501224       -13.6390
  49   2.0000      -0.496323       -13.5056
  50   2.0000      -0.493738       -13.4353
  51   2.0000      -0.483734       -13.1631
  52   2.0000      -0.475163       -12.9298
  53   2.0000      -0.464278       -12.6336
  54   2.0000      -0.455688       -12.3999
  55   2.0000      -0.447639       -12.1809
  56   2.0000      -0.441490       -12.0136
  57   2.0000      -0.433699       -11.8015
  58   2.0000      -0.432327       -11.7642
  59   2.0000      -0.427945       -11.6450
  60   2.0000      -0.422392       -11.4939
  61   2.0000      -0.410342       -11.1660
  62   2.0000      -0.407898       -11.0995
  63   2.0000      -0.353217        -9.6115
  64   2.0000      -0.334640        -9.1060
  65   2.0000      -0.328575        -8.9410
  66   2.0000      -0.281061        -7.6481
  67   0.0000       0.020259         0.5513
  68   0.0000       0.072244         1.9659
  69   0.0000       0.104107         2.8329
  70   0.0000       0.120209         3.2711
  71   0.0000       0.126602         3.4450

MULLIKEN ATOMIC CHARGES
-----------------------
   0 S :    0.133494
   1 C :   -0.154139
   2 C :   -0.108117
   3 C :   -0.037903
   4 C :   -0.121652
   5 H :    0.050214
   6 C :    0.108724
   7 H :    0.047495
   8 H :    0.043623
   9 C :   -0.159757
  10 H :    0.045770
  11 H :    0.026956
  12 C :    0.002345
  13 H :    0.033747
  14 H :    0.011007
  15 H :    0.029050
  16 S :    0.067658
  17 C :   -0.071775
  18 C :   -0.004868
  19 C :   -0.046743
  20 C :   -0.145786
  21 H :    0.000430
  22 C :    0.054705
  23 H :   -0.006658
  24 H :    0.006983
  25 C :    0.009259
  26 H :    0.024852
  27 H :    0.020807
  28 C :   -0.069830
  29 H :    0.040584
  30 H :    0.024955
  31 H :    0.033793
  32 H :    0.064786
  33 H :    0.045990
Sum of atomic charges:    0.0000000

LOEWDIN ATOMIC CHARGES
----------------------
   0 S :    0.425765
   1 C :   -0.211956
   2 C :   -0.059468
   3 C :   -0.079184
   4 C :   -0.205520
   5 H :    0.035813
   6 C :   -0.022705
   7 H :    0.041169
   8 H :    0.032832
   9 C :   -0.050363
  10 H :    0.035382
  11 H :    0.013377
  12 C :   -0.055710
  13 H :    0.029256
  14 H :    0.011226
  15 H :    0.028628
  16 S :    0.372379
  17 C :   -0.161435
  18 C :   -0.065965
  19 C :   -0.059246
  20 C :   -0.185105
  21 H :    0.026709
  22 C :   -0.041001
  23 H :    0.031963
  24 H :    0.029692
  25 C :   -0.030893
  26 H :    0.028604
  27 H :    0.019485
  28 C :   -0.065435
  29 H :    0.020797
  30 H :    0.026353
  31 H :    0.028267
  32 H :    0.033547
  33 H :    0.022744

  Mayer bond orders larger than 0.100000
B(  0-S ,  1-C ) :   1.1550 B(  0-S ,  4-C ) :   1.1708 B(  1-C ,  2-C ) :   1.5589
B(  1-C ,  4-C ) :   0.1175 B(  1-C , 32-H ) :   0.9649 B(  2-C ,  3-C ) :   1.3032
B(  2-C ,  6-C ) :   1.0034 B(  3-C ,  4-C ) :   1.5162 B(  3-C ,  5-H ) :   0.9648
B(  4-C , 20-C ) :   1.0641 B(  6-C ,  7-H ) :   0.9450 B(  6-C ,  8-H ) :   0.9320
B(  6-C ,  9-C ) :   1.0739 B(  9-C , 10-H ) :   0.9612 B(  9-C , 11-H ) :   0.9501
B(  9-C , 12-C ) :   1.0623 B( 12-C , 13-H ) :   0.9729 B( 12-C , 14-H ) :   0.9768
B( 12-C , 15-H ) :   0.9767 B( 16-S , 17-C ) :   1.1364 B( 16-S , 20-C ) :   1.1333
B( 17-C , 18-C ) :   1.6207 B( 17-C , 33-H ) :   0.9713 B( 18-C , 19-C ) :   1.2321
B( 18-C , 21-H ) :   0.9980 B( 19-C , 20-C ) :   1.5687 B( 19-C , 22-C ) :   1.0622
B( 22-C , 23-H ) :   0.9242 B( 22-C , 24-H ) :   0.9183 B( 22-C , 25-C ) :   1.0487
B( 25-C , 26-H ) :   0.9544 B( 25-C , 27-H ) :   0.9597 B( 25-C , 28-C ) :   1.0752
B( 28-C , 29-H ) :   0.9811 B( 28-C , 30-H ) :   0.9740 B( 28-C , 31-H ) :   0.9741

Dispersion correction           -0.014357050
FINAL SINGLE POINT ENERGY     -1339.848641985999

DIPOLE MOMENT
-------------
                                X             Y             Z
Electronic contribution:     13.23013       0.36162      27.78411
Nuclear contribution   :    -13.35632      -0.60278     -28.47284
                        -----------------------------------------
Total Dipole Moment    :     -0.12619      -0.24115      -0.68873
                        -----------------------------------------
Magnitude (a.u.)       :      0.74056
Magnitude (Debye)      :      1.88236

Rotational constants in cm-1:     0.018024     0.008841     0.007008
Rotational constants in MHz :   540.346033   265.060388   210.096465

                             ****ORCA TERMINATED NORMALLY****
TOTAL RUN TIME: 0 days 0 hours 0 minutes 35 seconds 538 msec
