                         Program Version 4.2.1 -  RELEASE  -
|  1> ! wB97X-D3 SP def2-SVP
|  2> %pal
|  3> nprocs 16
|  4> end
|  5>
|  6> * xyz 0 1
|  7> S 	 -9.84261 	 -8.0128 	 75.6139
|  8> C 	 -9.5818 	 -9.73771 	 75.742
|  9> C 	 -10.782 	 -10.3638 	 76.0286
| 10> C 	 -11.8801 	 -9.45652 	 76.2076
| 11> C 	 -11.4955 	 -8.20425 	 75.9446
| 12> H 	 -12.9199 	 -9.7064 	 76.5135
| 13> C 	 -11.0164 	 -11.8619 	 76.2644
| 14> H 	 -10.4382 	 -12.4869 	 75.4384
| 15> H 	 -12.0774 	 -12.1418 	 76.1788
| 16> C 	 -10.4964 	 -12.3384 	 77.622
| 17> H 	 -9.77623 	 -11.6388 	 78.0078
| 18> H 	 -11.2481 	 -12.3335 	 78.3583
| 19> C 	 -9.71682 	 -13.7213 	 77.5446
| 20> H 	 -8.90316 	 -13.7374 	 76.7477
| 21> H 	 -9.19278 	 -13.885 	 78.4928
| 22> H 	 -10.3507 	 -14.6582 	 77.4688
| 23> S 	 -12.9518 	 -6.67773 	 77.6226
| 24> C 	 -13.8048 	 -5.22547 	 77.0788
| 25> C 	 -13.6313 	 -5.14346 	 75.6743
| 26> C 	 -13.0467 	 -6.33966 	 75.1465
| 27> C 	 -12.4198 	 -7.10054 	 76.0642
| 28> H 	 -13.9281 	 -4.25303 	 75.0667
| 29> C 	 -12.8309 	 -6.49561 	 73.6706
| 30> H 	 -11.8118 	 -6.88164 	 73.425
| 31> H 	 -12.8061 	 -5.58563 	 73.1644
| 32> C 	 -13.8519 	 -7.50342 	 73.0862
| 33> H 	 -14.8964 	 -7.16139 	 73.1764
| 34> H 	 -13.6352 	 -8.41323 	 73.6547
| 35> C 	 -13.6767 	 -7.79711 	 71.5732
| 36> H 	 -12.8063 	 -8.5097 	 71.3049
| 37> H 	 -13.5274 	 -6.9754 	 70.9575
| 38> H 	 -14.5189 	 -8.32974 	 71.2982
| 39> H 	 -8.53061 	 -10.1014 	 75.9423
| 40> H 	 -14.3306 	 -4.52679 	 77.7473
| 41> *
| 42>
| 43>                          ****END OF INPUT****

CARTESIAN COORDINATES (ANGSTROEM)
---------------------------------
  S     -9.842610   -8.012800   75.613900
  C     -9.581800   -9.737710   75.742000
  C    -10.782000  -10.363800   76.028600
  C    -11.880100   -9.456520   76.207600
  C    -11.495500   -8.204250   75.944600
  H    -12.919900   -9.706400   76.513500
  C    -11.016400  -11.861900   76.264400
  H    -10.438200  -12.486900   75.438400
  H    -12.077400  -12.141800   76.178800
  C    -10.496400  -12.338400   77.622000
  H     -9.776230  -11.638800   78.007800
  H    -11.248100  -12.333500   78.358300
  C     -9.716820  -13.721300   77.544600
  H     -8.903160  -13.737400   76.747700
  H     -9.192780  -13.885000   78.492800
  H    -10.350700  -14.658200   77.468800
  S    -12.951800   -6.677730   77.622600
  C    -13.804800   -5.225470   77.078800
  C    -13.631300   -5.143460   75.674300
  C    -13.046700   -6.339660   75.146500
  C    -12.419800   -7.100540   76.064200
  H    -13.928100   -4.253030   75.066700
  C    -12.830900   -6.495610   73.670600
  H    -11.811800   -6.881640   73.425000
  H    -12.806100   -5.585630   73.164400
  C    -13.851900   -7.503420   73.086200
  H    -14.896400   -7.161390   73.176400
  H    -13.635200   -8.413230   73.654700
  C    -13.676700   -7.797110   71.573200
  H    -12.806300   -8.509700   71.304900
  H    -13.527400   -6.975400   70.957500
  H    -14.518900   -8.329740   71.298200
  H     -8.530610  -10.101400   75.942300
  H    -14.330600   -4.526790   77.747300

 Total Charge           Charge          ....    0
 Multiplicity           Mult            ....    1
 Number of Electrons    NEL             ....  134
 Basis Dimension        Dim             ....  322

ORBITAL ENERGIES
----------------

  NO   OCC          E(Eh)            E(eV)
   0   2.0000     -88.968171     -2420.9470
   1   2.0000     -88.960539     -2420.7393
   2   2.0000     -10.322632      -280.8931
   3   2.0000     -10.320580      -280.8373
   4   2.0000     -10.319774      -280.8153
   5   2.0000     -10.314387      -280.6687
   6   2.0000     -10.306553      -280.4556
   7   2.0000     -10.300953      -280.3032
   8   2.0000     -10.300939      -280.3028
   9   2.0000     -10.293385      -280.0973
  10   2.0000     -10.292776      -280.0807
  11   2.0000     -10.291373      -280.0425
  12   2.0000     -10.284993      -279.8689
  13   2.0000     -10.284374      -279.8521
  14   2.0000     -10.280114      -279.7361
  15   2.0000     -10.268072      -279.4084
  16   2.0000      -8.083945      -219.9753
  17   2.0000      -8.076029      -219.7599
  18   2.0000      -6.042370      -164.4212
  19   2.0000      -6.038289      -164.3102
  20   2.0000      -6.034734      -164.2135
  21   2.0000      -6.034483      -164.2066
  22   2.0000      -6.030276      -164.0921
  23   2.0000      -6.026943      -164.0015
  24   2.0000      -1.019660       -27.7463
  25   2.0000      -0.991010       -26.9668
  26   2.0000      -0.907021       -24.6813
  27   2.0000      -0.903497       -24.5854
  28   2.0000      -0.871025       -23.7018
  29   2.0000      -0.850347       -23.1391
  30   2.0000      -0.845396       -23.0044
  31   2.0000      -0.810779       -22.0624
  32   2.0000      -0.778349       -21.1799
  33   2.0000      -0.769671       -20.9438
  34   2.0000      -0.702706       -19.1216
  35   2.0000      -0.698969       -19.0199
  36   2.0000      -0.689441       -18.7606
  37   2.0000      -0.666897       -18.1472
  38   2.0000      -0.647187       -17.6108
  39   2.0000      -0.615208       -16.7407
  40   2.0000      -0.593748       -16.1567
  41   2.0000      -0.570077       -15.5126
  42   2.0000      -0.560057       -15.2399
  43   2.0000      -0.551182       -14.9984
  44   2.0000      -0.529113       -14.3979
  45   2.0000      -0.522137       -14.2081
  46   2.0000      -0.515383       -14.0243
  47   2.0000      -0.514344       -13.9960
  48   2.0000      -0.506021       -13.7695
  49   2.0000      -0.497002       -13.5241
  50   2.0000      -0.488115       -13.2823
  51   2.0000      -0.481357       -13.0984
  52   2.0000      -0.473506       -12.8848
  53   2.0000      -0.461761       -12.5651
  54   2.0000      -0.457020       -12.4361
  55   2.0000      -0.447295       -12.1715
  56   2.0000      -0.439250       -11.9526
  57   2.0000      -0.435629       -11.8541
  58   2.0000      -0.431507       -11.7419
  59   2.0000      -0.419692       -11.4204
  60   2.0000      -0.416012       -11.3203
  61   2.0000      -0.414069       -11.2674
  62   2.0000      -0.411663       -11.2019
  63   2.0000      -0.338734        -9.2174
  64   2.0000      -0.330764        -9.0005
  65   2.0000      -0.324914        -8.8414
  66   2.0000      -0.305347        -8.3089
  67   0.0000       0.045352         1.2341
  68   0.0000       0.055657         1.5145
  69   0.0000       0.113614         3.0916
  70   0.0000       0.118165         3.2154
  71   0.0000       0.127550         3.4708

MULLIKEN ATOMIC CHARGES
-----------------------
   0 S :    0.125279
   1 C :   -0.155362
   2 C :   -0.075569
   3 C :    0.009292
   4 C :   -0.136390
   5 H :    0.035855
   6 C :    0.022833
   7 H :    0.050893
   8 H :    0.032077
   9 C :   -0.028130
  10 H :    0.026499
  11 H :    0.019937
  12 C :   -0.111933
  13 H :    0.044881
  14 H :    0.030475
  15 H :    0.045938
  16 S :    0.106048
  17 C :   -0.118576
  18 C :   -0.042900
  19 C :   -0.025797
  20 C :   -0.167098
  21 H :    0.042832
  22 C :    0.078290
  23 H :    0.018811
  24 H :   -0.006045
  25 C :   -0.101977
  26 H :    0.036126
  27 H :    0.036626
  28 C :   -0.013630
  29 H :    0.031473
  30 H :    0.016251
  31 H :    0.017315
  32 H :    0.083488
  33 H :    0.072187
Sum of atomic charges:   -0.0000000

LOEWDIN ATOMIC CHARGES
----------------------
   0 S :    0.434679
   1 C :   -0.214306
   2 C :   -0.058267
   3 C :   -0.067062
   4 C :   -0.210978
   5 H :    0.042720
   6 C :   -0.039014
   7 H :    0.043623
   8 H :    0.030473
   9 C :   -0.038079
  10 H :    0.023680
  11 H :    0.018861
  12 C :   -0.078784
  13 H :    0.029667
  14 H :    0.024090
  15 H :    0.029315
  16 S :    0.419063
  17 C :   -0.192309
  18 C :   -0.068925
  19 C :   -0.066411
  20 C :   -0.211527
  21 H :    0.039431
  22 C :   -0.032343
  23 H :    0.029785
  24 H :    0.014457
  25 C :   -0.033783
  26 H :    0.025991
  27 H :    0.028197
  28 C :   -0.063312
  29 H :    0.033559
  30 H :    0.012709
  31 H :    0.016752
  32 H :    0.043171
  33 H :    0.034877

  Mayer bond orders larger than 0.100000
B(  0-S ,  1-C ) :   1.1338 B(  0-S ,  4-C ) :   1.1772 B(  1-C ,  2-C ) :   1.6122
B(  1-C , 32-H ) :   0.9611 B(  2-C ,  3-C ) :   1.2303 B(  2-C ,  6-C ) :   1.0241
B(  3-C ,  4-C ) :   1.5820 B(  3-C ,  5-H ) :   0.9938 B(  4-C , 20-C ) :   0.9839
B(  6-C ,  7-H ) :   0.9538 B(  6-C ,  8-H ) :   0.9459 B(  6-C ,  9-C ) :   1.0381
B(  9-C , 10-H ) :   0.9653 B(  9-C , 11-H ) :   0.9541 B(  9-C , 12-C ) :   1.0700
B( 12-C , 13-H ) :   0.9759 B( 12-C , 14-H ) :   0.9761 B( 12-C , 15-H ) :   0.9777
B( 16-S , 17-C ) :   1.1573 B( 16-S , 20-C ) :   1.1516 B( 17-C , 18-C ) :   1.5773
B( 17-C , 20-C ) :   0.1073 B( 17-C , 33-H ) :   0.9710 B( 18-C , 19-C ) :   1.2475
B( 18-C , 21-H ) :   0.9820 B( 19-C , 20-C ) :   1.6054 B( 19-C , 22-C ) :   1.0572
B( 22-C , 23-H ) :   0.9378 B( 22-C , 24-H ) :   0.9358 B( 22-C , 25-C ) :   1.0455
B( 25-C , 26-H ) :   0.9612 B( 25-C , 27-H ) :   0.9585 B( 25-C , 28-C ) :   1.0814
B( 28-C , 29-H ) :   0.9729 B( 28-C , 30-H ) :   0.9752 B( 28-C , 31-H ) :   0.9751

Dispersion correction           -0.014301396
FINAL SINGLE POINT ENERGY     -1339.855661061931

DIPOLE MOMENT
-------------
                                X             Y             Z
Electronic contribution:      2.09302      18.92335      10.64535
Nuclear contribution   :     -2.18291     -19.14654     -10.67800
                        -----------------------------------------
Total Dipole Moment    :     -0.08989      -0.22319      -0.03264
                        -----------------------------------------
Magnitude (a.u.)       :      0.24282
Magnitude (Debye)      :      0.61720

Rotational constants in cm-1:     0.020164     0.007913     0.006749
Rotational constants in MHz :   604.502361   237.220293   202.315139

                             ****ORCA TERMINATED NORMALLY****
TOTAL RUN TIME: 0 days 0 hours 0 minutes 33 seconds 891 msec
