                         Program Version 4.2.1 -  RELEASE  -
|  1> ! wB97X-D3 SP def2-SVP
|  2> %pal
|  3> nprocs 16
|  4> end
|  5>
|  6> * xyz 0 1
|  7> S 	 45.6193 	 4.47307 	 86.5658
|  8> C 	 45.9173 	 6.15191 	 87.0468
|  9> C 	 47.235 	 6.46071 	 86.8023
| 10> C 	 47.9463 	 5.39124 	 86.1094
| 11> C 	 47.1918 	 4.30778 	 85.7785
| 12> H 	 49.0144 	 5.52126 	 85.8176
| 13> C 	 47.9178 	 7.74609 	 87.1431
| 14> H 	 48.732 	 7.81808 	 86.4382
| 15> H 	 48.3263 	 7.71894 	 88.1177
| 16> C 	 47.239 	 9.09107 	 87.0498
| 17> H 	 46.7607 	 9.17828 	 86.0063
| 18> H 	 46.3866 	 9.24807 	 87.7122
| 19> C 	 48.2661 	 10.1847 	 87.3518
| 20> H 	 49.1777 	 10.1301 	 86.7461
| 21> H 	 47.8579 	 11.1508 	 87.1524
| 22> H 	 48.5355 	 10.2648 	 88.4511
| 23> S 	 46.5026 	 2.57685 	 83.8244
| 24> C 	 47.3953 	 1.14095 	 83.5488
| 25> C 	 48.5126 	 1.0641 	 84.4028
| 26> C 	 48.6922 	 2.2552 	 85.2091
| 27> C 	 47.595 	 3.10123 	 85.0987
| 28> H 	 49.2657 	 0.190163 	 84.4406
| 29> C 	 49.8149 	 2.50227 	 86.1875
| 30> H 	 50.0522 	 1.51263 	 86.6857
| 31> H 	 49.5697 	 3.13213 	 87.0295
| 32> C 	 51.1296 	 3.12759 	 85.5885
| 33> H 	 50.9366 	 4.07647 	 85.0492
| 34> H 	 51.6117 	 2.48778 	 84.7947
| 35> C 	 52.2282 	 3.46831 	 86.6698
| 36> H 	 51.6969 	 3.83492 	 87.5818
| 37> H 	 52.8252 	 4.2734 	 86.2498
| 38> H 	 52.7014 	 2.59154 	 86.989
| 39> H 	 45.2524 	 6.7929 	 87.4825
| 40> H 	 47.119 	 0.427096 	 82.9104
| 41> *
| 42>
| 43>                          ****END OF INPUT****

CARTESIAN COORDINATES (ANGSTROEM)
---------------------------------
  S     45.619300    4.473070   86.565800
  C     45.917300    6.151910   87.046800
  C     47.235000    6.460710   86.802300
  C     47.946300    5.391240   86.109400
  C     47.191800    4.307780   85.778500
  H     49.014400    5.521260   85.817600
  C     47.917800    7.746090   87.143100
  H     48.732000    7.818080   86.438200
  H     48.326300    7.718940   88.117700
  C     47.239000    9.091070   87.049800
  H     46.760700    9.178280   86.006300
  H     46.386600    9.248070   87.712200
  C     48.266100   10.184700   87.351800
  H     49.177700   10.130100   86.746100
  H     47.857900   11.150800   87.152400
  H     48.535500   10.264800   88.451100
  S     46.502600    2.576850   83.824400
  C     47.395300    1.140950   83.548800
  C     48.512600    1.064100   84.402800
  C     48.692200    2.255200   85.209100
  C     47.595000    3.101230   85.098700
  H     49.265700    0.190163   84.440600
  C     49.814900    2.502270   86.187500
  H     50.052200    1.512630   86.685700
  H     49.569700    3.132130   87.029500
  C     51.129600    3.127590   85.588500
  H     50.936600    4.076470   85.049200
  H     51.611700    2.487780   84.794700
  C     52.228200    3.468310   86.669800
  H     51.696900    3.834920   87.581800
  H     52.825200    4.273400   86.249800
  H     52.701400    2.591540   86.989000
  H     45.252400    6.792900   87.482500
  H     47.119000    0.427096   82.910400

 Total Charge           Charge          ....    0
 Multiplicity           Mult            ....    1
 Number of Electrons    NEL             ....  134
 Basis Dimension        Dim             ....  322

ORBITAL ENERGIES
----------------

  NO   OCC          E(Eh)            E(eV)
   0   2.0000     -88.966089     -2420.8904
   1   2.0000     -88.961968     -2420.7782
   2   2.0000     -10.328909      -281.0639
   3   2.0000     -10.326395      -280.9955
   4   2.0000     -10.312987      -280.6306
   5   2.0000     -10.309132      -280.5257
   6   2.0000     -10.309008      -280.5224
   7   2.0000     -10.307351      -280.4773
   8   2.0000     -10.300285      -280.2850
   9   2.0000     -10.299240      -280.2566
  10   2.0000     -10.296606      -280.1849
  11   2.0000     -10.296263      -280.1756
  12   2.0000     -10.293618      -280.1036
  13   2.0000     -10.284105      -279.8447
  14   2.0000     -10.283231      -279.8209
  15   2.0000     -10.280583      -279.7489
  16   2.0000      -8.081438      -219.9071
  17   2.0000      -8.076270      -219.7665
  18   2.0000      -6.039841      -164.3524
  19   2.0000      -6.035727      -164.2405
  20   2.0000      -6.035033      -164.2216
  21   2.0000      -6.032393      -164.1497
  22   2.0000      -6.030841      -164.1075
  23   2.0000      -6.026750      -163.9962
  24   2.0000      -1.006777       -27.3958
  25   2.0000      -0.982611       -26.7382
  26   2.0000      -0.917495       -24.9663
  27   2.0000      -0.902777       -24.5658
  28   2.0000      -0.871797       -23.7228
  29   2.0000      -0.851762       -23.1776
  30   2.0000      -0.842943       -22.9376
  31   2.0000      -0.814126       -22.1535
  32   2.0000      -0.781762       -21.2728
  33   2.0000      -0.773269       -21.0417
  34   2.0000      -0.712253       -19.3814
  35   2.0000      -0.700686       -19.0666
  36   2.0000      -0.696235       -18.9455
  37   2.0000      -0.664078       -18.0705
  38   2.0000      -0.642718       -17.4892
  39   2.0000      -0.616874       -16.7860
  40   2.0000      -0.602012       -16.3816
  41   2.0000      -0.574993       -15.6463
  42   2.0000      -0.569038       -15.4843
  43   2.0000      -0.557898       -15.1812
  44   2.0000      -0.529343       -14.4042
  45   2.0000      -0.519349       -14.1322
  46   2.0000      -0.515873       -14.0376
  47   2.0000      -0.515372       -14.0240
  48   2.0000      -0.508205       -13.8290
  49   2.0000      -0.502379       -13.6704
  50   2.0000      -0.495946       -13.4954
  51   2.0000      -0.475117       -12.9286
  52   2.0000      -0.471611       -12.8332
  53   2.0000      -0.463222       -12.6049
  54   2.0000      -0.457273       -12.4430
  55   2.0000      -0.450107       -12.2480
  56   2.0000      -0.443518       -12.0688
  57   2.0000      -0.440453       -11.9853
  58   2.0000      -0.434467       -11.8225
  59   2.0000      -0.425905       -11.5895
  60   2.0000      -0.419080       -11.4037
  61   2.0000      -0.415503       -11.3064
  62   2.0000      -0.412169       -11.2157
  63   2.0000      -0.347435        -9.4542
  64   2.0000      -0.332424        -9.0457
  65   2.0000      -0.323486        -8.8025
  66   2.0000      -0.295748        -8.0477
  67   0.0000       0.028500         0.7755
  68   0.0000       0.072657         1.9771
  69   0.0000       0.113552         3.0899
  70   0.0000       0.118937         3.2364
  71   0.0000       0.124070         3.3761

MULLIKEN ATOMIC CHARGES
-----------------------
   0 S :    0.097597
   1 C :   -0.079797
   2 C :   -0.078794
   3 C :   -0.000019
   4 C :   -0.103624
   5 H :    0.021613
   6 C :    0.083337
   7 H :    0.012546
   8 H :    0.028763
   9 C :   -0.104972
  10 H :    0.039713
  11 H :    0.028396
  12 C :   -0.056750
  13 H :    0.033606
  14 H :    0.022212
  15 H :    0.041035
  16 S :    0.119540
  17 C :   -0.036528
  18 C :   -0.061146
  19 C :    0.004276
  20 C :   -0.186413
  21 H :    0.049200
  22 C :    0.032425
  23 H :    0.032006
  24 H :    0.027537
  25 C :   -0.124122
  26 H :    0.031171
  27 H :    0.036298
  28 C :   -0.028086
  29 H :    0.023597
  30 H :    0.046345
  31 H :    0.029919
  32 H :    0.007515
  33 H :    0.011603
Sum of atomic charges:    0.0000000

LOEWDIN ATOMIC CHARGES
----------------------
   0 S :    0.384877
   1 C :   -0.174203
   2 C :   -0.059414
   3 C :   -0.068710
   4 C :   -0.191183
   5 H :    0.035049
   6 C :   -0.037019
   7 H :    0.029775
   8 H :    0.030201
   9 C :   -0.045658
  10 H :    0.031747
  11 H :    0.020210
  12 C :   -0.067512
  13 H :    0.025497
  14 H :    0.022561
  15 H :    0.034003
  16 S :    0.428843
  17 C :   -0.176715
  18 C :   -0.074937
  19 C :   -0.052261
  20 C :   -0.197140
  21 H :    0.044979
  22 C :   -0.037783
  23 H :    0.037166
  24 H :    0.028394
  25 C :   -0.044560
  26 H :    0.020672
  27 H :    0.025945
  28 C :   -0.061084
  29 H :    0.027386
  30 H :    0.030653
  31 H :    0.017114
  32 H :    0.010586
  33 H :    0.002524

  Mayer bond orders larger than 0.100000
B(  0-S ,  1-C ) :   1.1129 B(  0-S ,  4-C ) :   1.1369 B(  1-C ,  2-C ) :   1.6233
B(  1-C , 32-H ) :   0.9850 B(  2-C ,  3-C ) :   1.2286 B(  2-C ,  6-C ) :   1.0152
B(  3-C ,  4-C ) :   1.5850 B(  3-C ,  5-H ) :   0.9899 B(  4-C , 20-C ) :   1.0420
B(  6-C ,  7-H ) :   0.9451 B(  6-C ,  8-H ) :   0.9270 B(  6-C ,  9-C ) :   1.0712
B(  9-C , 10-H ) :   0.9569 B(  9-C , 11-H ) :   0.9477 B(  9-C , 12-C ) :   1.0858
B( 12-C , 13-H ) :   0.9755 B( 12-C , 14-H ) :   0.9712 B( 12-C , 15-H ) :   0.9715
B( 16-S , 17-C ) :   1.1717 B( 16-S , 20-C ) :   1.1503 B( 17-C , 18-C ) :   1.5755
B( 17-C , 20-C ) :   0.1050 B( 17-C , 33-H ) :   0.9877 B( 18-C , 19-C ) :   1.2531
B( 18-C , 21-H ) :   0.9736 B( 19-C , 20-C ) :   1.5778 B( 19-C , 22-C ) :   1.0503
B( 22-C , 23-H ) :   0.9364 B( 22-C , 24-H ) :   0.9373 B( 22-C , 25-C ) :   1.0473
B( 25-C , 26-H ) :   0.9604 B( 25-C , 27-H ) :   0.9566 B( 25-C , 28-C ) :   1.0700
B( 28-C , 29-H ) :   0.9742 B( 28-C , 30-H ) :   0.9777 B( 28-C , 31-H ) :   0.9782

Dispersion correction           -0.013730027
FINAL SINGLE POINT ENERGY     -1339.872665166728

DIPOLE MOMENT
-------------
                                X             Y             Z
Electronic contribution:    -22.75512     -18.40290      -9.97939
Nuclear contribution   :     23.36104      18.68435      10.18862
                        -----------------------------------------
Total Dipole Moment    :      0.60593       0.28145       0.20923
                        -----------------------------------------
Magnitude (a.u.)       :      0.70010
Magnitude (Debye)      :      1.77951

Rotational constants in cm-1:     0.018156     0.008219     0.006133
Rotational constants in MHz :   544.316025   246.401740   183.870064

                             ****ORCA TERMINATED NORMALLY****
TOTAL RUN TIME: 0 days 0 hours 0 minutes 29 seconds 521 msec
