                         Program Version 4.2.1 -  RELEASE  -
|  1> ! wB97X-D3 SP def2-SVP
|  2> %pal
|  3> nprocs 16
|  4> end
|  5>
|  6> * xyz 0 1
|  7> S 	 -54.5213 	 33.5194 	 91.6319
|  8> C 	 -55.1842 	 32.3024 	 90.5732
|  9> C 	 -56.0827 	 31.5443 	 91.3204
| 10> C 	 -56.2596 	 32.0215 	 92.6695
| 11> C 	 -55.3859 	 33.0328 	 93.0857
| 12> H 	 -56.9205 	 31.6035 	 93.4043
| 13> C 	 -56.8936 	 30.422 	 90.7312
| 14> H 	 -56.4191 	 29.9688 	 89.8646
| 15> H 	 -57.7966 	 30.929 	 90.3033
| 16> C 	 -57.2647 	 29.2793 	 91.6777
| 17> H 	 -57.3987 	 29.6849 	 92.7309
| 18> H 	 -58.2621 	 28.854 	 91.4432
| 19> C 	 -56.2359 	 28.14 	 91.5631
| 20> H 	 -56.3522 	 27.4718 	 92.4158
| 21> H 	 -56.4538 	 27.573 	 90.638
| 22> H 	 -55.1961 	 28.4856 	 91.6251
| 23> S 	 -55.5107 	 35.511 	 94.3338
| 24> C 	 -55.7908 	 35.5716 	 96.111
| 25> C 	 -55.6374 	 34.2759 	 96.6229
| 26> C 	 -55.3495 	 33.3195 	 95.607
| 27> C 	 -55.2726 	 33.7825 	 94.3283
| 28> H 	 -56.0128 	 34.0787 	 97.6758
| 29> C 	 -55.345 	 31.844 	 95.8992
| 30> H 	 -54.7342 	 31.7689 	 96.7738
| 31> H 	 -54.8322 	 31.2782 	 95.0731
| 32> C 	 -56.6904 	 31.3407 	 96.3845
| 33> H 	 -57.4924 	 31.688 	 95.7737
| 34> H 	 -56.9251 	 31.934 	 97.2861
| 35> C 	 -56.8435 	 29.7868 	 96.4477
| 36> H 	 -56.5898 	 29.3397 	 95.4943
| 37> H 	 -57.864 	 29.4512 	 96.6778
| 38> H 	 -56.1407 	 29.3143 	 97.1738
| 39> H 	 -54.9429 	 32.084 	 89.5485
| 40> H 	 -56.1387 	 36.3798 	 96.6349
| 41> *
| 42>
| 43>                          ****END OF INPUT****

CARTESIAN COORDINATES (ANGSTROEM)
---------------------------------
  S    -54.521300   33.519400   91.631900
  C    -55.184200   32.302400   90.573200
  C    -56.082700   31.544300   91.320400
  C    -56.259600   32.021500   92.669500
  C    -55.385900   33.032800   93.085700
  H    -56.920500   31.603500   93.404300
  C    -56.893600   30.422000   90.731200
  H    -56.419100   29.968800   89.864600
  H    -57.796600   30.929000   90.303300
  C    -57.264700   29.279300   91.677700
  H    -57.398700   29.684900   92.730900
  H    -58.262100   28.854000   91.443200
  C    -56.235900   28.140000   91.563100
  H    -56.352200   27.471800   92.415800
  H    -56.453800   27.573000   90.638000
  H    -55.196100   28.485600   91.625100
  S    -55.510700   35.511000   94.333800
  C    -55.790800   35.571600   96.111000
  C    -55.637400   34.275900   96.622900
  C    -55.349500   33.319500   95.607000
  C    -55.272600   33.782500   94.328300
  H    -56.012800   34.078700   97.675800
  C    -55.345000   31.844000   95.899200
  H    -54.734200   31.768900   96.773800
  H    -54.832200   31.278200   95.073100
  C    -56.690400   31.340700   96.384500
  H    -57.492400   31.688000   95.773700
  H    -56.925100   31.934000   97.286100
  C    -56.843500   29.786800   96.447700
  H    -56.589800   29.339700   95.494300
  H    -57.864000   29.451200   96.677800
  H    -56.140700   29.314300   97.173800
  H    -54.942900   32.084000   89.548500
  H    -56.138700   36.379800   96.634900

 Total Charge           Charge          ....    0
 Multiplicity           Mult            ....    1
 Number of Electrons    NEL             ....  134
 Basis Dimension        Dim             ....  322

ORBITAL ENERGIES
----------------

  NO   OCC          E(Eh)            E(eV)
   0   2.0000     -88.966032     -2420.8888
   1   2.0000     -88.962872     -2420.8028
   2   2.0000     -10.336035      -281.2578
   3   2.0000     -10.327298      -281.0201
   4   2.0000     -10.324648      -280.9480
   5   2.0000     -10.315316      -280.6940
   6   2.0000     -10.306317      -280.4491
   7   2.0000     -10.304086      -280.3884
   8   2.0000     -10.302468      -280.3444
   9   2.0000     -10.297725      -280.2153
  10   2.0000     -10.293518      -280.1009
  11   2.0000     -10.292688      -280.0783
  12   2.0000     -10.289702      -279.9970
  13   2.0000     -10.288315      -279.9593
  14   2.0000     -10.287197      -279.9289
  15   2.0000     -10.281646      -279.7778
  16   2.0000      -8.080231      -219.8743
  17   2.0000      -8.077449      -219.7986
  18   2.0000      -6.038881      -164.3263
  19   2.0000      -6.036043      -164.2491
  20   2.0000      -6.034775      -164.2146
  21   2.0000      -6.031693      -164.1307
  22   2.0000      -6.030861      -164.1081
  23   2.0000      -6.028388      -164.0408
  24   2.0000      -1.007903       -27.4264
  25   2.0000      -0.984489       -26.7893
  26   2.0000      -0.913139       -24.8478
  27   2.0000      -0.911301       -24.7978
  28   2.0000      -0.873627       -23.7726
  29   2.0000      -0.848020       -23.0758
  30   2.0000      -0.839949       -22.8562
  31   2.0000      -0.820548       -22.3283
  32   2.0000      -0.780389       -21.2355
  33   2.0000      -0.772645       -21.0247
  34   2.0000      -0.715035       -19.4571
  35   2.0000      -0.707289       -19.2463
  36   2.0000      -0.693021       -18.8581
  37   2.0000      -0.663039       -18.0422
  38   2.0000      -0.643814       -17.5191
  39   2.0000      -0.621735       -16.9183
  40   2.0000      -0.597029       -16.2460
  41   2.0000      -0.571767       -15.5586
  42   2.0000      -0.561731       -15.2855
  43   2.0000      -0.556432       -15.1413
  44   2.0000      -0.534327       -14.5398
  45   2.0000      -0.528776       -14.3887
  46   2.0000      -0.521304       -14.1854
  47   2.0000      -0.516042       -14.0422
  48   2.0000      -0.511930       -13.9303
  49   2.0000      -0.502306       -13.6684
  50   2.0000      -0.487189       -13.2571
  51   2.0000      -0.481654       -13.1065
  52   2.0000      -0.474139       -12.9020
  53   2.0000      -0.470091       -12.7918
  54   2.0000      -0.462617       -12.5884
  55   2.0000      -0.447492       -12.1769
  56   2.0000      -0.443610       -12.0712
  57   2.0000      -0.440078       -11.9751
  58   2.0000      -0.430438       -11.7128
  59   2.0000      -0.426340       -11.6013
  60   2.0000      -0.424152       -11.5418
  61   2.0000      -0.407106       -11.0779
  62   2.0000      -0.404001       -10.9934
  63   2.0000      -0.352046        -9.5797
  64   2.0000      -0.330477        -8.9927
  65   2.0000      -0.324295        -8.8245
  66   2.0000      -0.295199        -8.0328
  67   0.0000       0.026031         0.7083
  68   0.0000       0.062121         1.6904
  69   0.0000       0.112782         3.0690
  70   0.0000       0.119259         3.2452
  71   0.0000       0.122749         3.3402

MULLIKEN ATOMIC CHARGES
-----------------------
   0 S :    0.097463
   1 C :   -0.097502
   2 C :   -0.105699
   3 C :    0.046647
   4 C :   -0.172814
   5 H :   -0.006345
   6 C :    0.055871
   7 H :    0.014567
   8 H :    0.050535
   9 C :   -0.102340
  10 H :    0.036109
  11 H :    0.029013
  12 C :   -0.059045
  13 H :    0.029730
  14 H :    0.044732
  15 H :    0.043999
  16 S :    0.095192
  17 C :   -0.073293
  18 C :   -0.056570
  19 C :   -0.076549
  20 C :   -0.086260
  21 H :    0.057181
  22 C :    0.069243
  23 H :    0.017612
  24 H :    0.049007
  25 C :   -0.081350
  26 H :    0.017739
  27 H :    0.017305
  28 C :   -0.035418
  29 H :    0.027580
  30 H :    0.039222
  31 H :    0.034225
  32 H :    0.046508
  33 H :    0.033706
Sum of atomic charges:    0.0000000

LOEWDIN ATOMIC CHARGES
----------------------
   0 S :    0.406396
   1 C :   -0.199880
   2 C :   -0.066035
   3 C :   -0.065402
   4 C :   -0.186066
   5 H :    0.023419
   6 C :   -0.039042
   7 H :    0.027563
   8 H :    0.041799
   9 C :   -0.048677
  10 H :    0.025421
  11 H :    0.026841
  12 C :   -0.067923
  13 H :    0.024834
  14 H :    0.030226
  15 H :    0.028070
  16 S :    0.392310
  17 C :   -0.147522
  18 C :   -0.078168
  19 C :   -0.055844
  20 C :   -0.207092
  21 H :    0.045864
  22 C :   -0.036159
  23 H :    0.029842
  24 H :    0.037397
  25 C :   -0.044646
  26 H :    0.015189
  27 H :    0.025740
  28 C :   -0.064621
  29 H :    0.023606
  30 H :    0.028742
  31 H :    0.028145
  32 H :    0.032054
  33 H :    0.013619

  Mayer bond orders larger than 0.100000
B(  0-S ,  1-C ) :   1.1447 B(  0-S ,  4-C ) :   1.1592 B(  1-C ,  2-C ) :   1.5794
B(  1-C ,  4-C ) :   0.1061 B(  1-C , 32-H ) :   0.9743 B(  2-C ,  3-C ) :   1.2522
B(  2-C ,  6-C ) :   1.0289 B(  3-C ,  4-C ) :   1.5514 B(  3-C ,  5-H ) :   0.9886
B(  4-C , 20-C ) :   1.0316 B(  6-C ,  7-H ) :   0.9460 B(  6-C ,  8-H ) :   0.9339
B(  6-C ,  9-C ) :   1.0573 B(  9-C , 10-H ) :   0.9597 B(  9-C , 11-H ) :   0.9531
B(  9-C , 12-C ) :   1.0754 B( 12-C , 13-H ) :   0.9738 B( 12-C , 14-H ) :   0.9727
B( 12-C , 15-H ) :   0.9784 B( 16-S , 17-C ) :   1.1601 B( 16-S , 20-C ) :   1.1187
B( 17-C , 18-C ) :   1.6051 B( 17-C , 33-H ) :   0.9796 B( 18-C , 19-C ) :   1.2330
B( 18-C , 21-H ) :   0.9751 B( 19-C , 20-C ) :   1.6175 B( 19-C , 22-C ) :   1.0581
B( 22-C , 23-H ) :   0.9206 B( 22-C , 24-H ) :   0.9402 B( 22-C , 25-C ) :   1.0483
B( 25-C , 26-H ) :   0.9559 B( 25-C , 27-H ) :   0.9472 B( 25-C , 28-C ) :   1.0729
B( 28-C , 29-H ) :   0.9729 B( 28-C , 30-H ) :   0.9760 B( 28-C , 31-H ) :   0.9751

Dispersion correction           -0.015072979
FINAL SINGLE POINT ENERGY     -1339.873217603744

DIPOLE MOMENT
-------------
                                X             Y             Z
Electronic contribution:     10.89816      30.26629      -5.30281
Nuclear contribution   :    -11.48109     -30.89349       5.57283
                        -----------------------------------------
Total Dipole Moment    :     -0.58293      -0.62720       0.27003
                        -----------------------------------------
Magnitude (a.u.)       :      0.89783
Magnitude (Debye)      :      2.28211

Rotational constants in cm-1:     0.017876     0.010238     0.006946
Rotational constants in MHz :   535.898443   306.929439   208.235454

                             ****ORCA TERMINATED NORMALLY****
TOTAL RUN TIME: 0 days 0 hours 0 minutes 31 seconds 683 msec
