                         Program Version 4.2.1 -  RELEASE  -
|  1> ! wB97X-D3 SP def2-SVP
|  2> %pal
|  3> nprocs 16
|  4> end
|  5>
|  6> * xyz 0 1
|  7> S 	 -108.387 	 54.2887 	 116.063
|  8> C 	 -109.624 	 55.4704 	 116.073
|  9> C 	 -109.096 	 56.7155 	 116.318
| 10> C 	 -107.687 	 56.7813 	 116.383
| 11> C 	 -107.104 	 55.5281 	 116.163
| 12> H 	 -107.061 	 57.6594 	 116.607
| 13> C 	 -109.882 	 58.0177 	 116.52
| 14> H 	 -109.267 	 58.8818 	 116.81
| 15> H 	 -110.584 	 57.7199 	 117.302
| 16> C 	 -110.787 	 58.4797 	 115.36
| 17> H 	 -111.481 	 57.6425 	 115.181
| 18> H 	 -111.268 	 59.3638 	 115.646
| 19> C 	 -110.003 	 58.7792 	 114.076
| 20> H 	 -109.305 	 58.0093 	 113.791
| 21> H 	 -110.637 	 58.9802 	 113.196
| 22> H 	 -109.397 	 59.6471 	 114.244
| 23> S 	 -104.735 	 54.5739 	 117.438
| 24> C 	 -103.22 	 54.7171 	 116.593
| 25> C 	 -103.49 	 55.2193 	 115.282
| 26> C 	 -104.858 	 55.5362 	 115.022
| 27> C 	 -105.689 	 55.267 	 116.086
| 28> H 	 -102.666 	 55.2644 	 114.621
| 29> C 	 -105.309 	 55.9519 	 113.644
| 30> H 	 -104.743 	 56.8511 	 113.472
| 31> H 	 -106.357 	 56.4226 	 113.764
| 32> C 	 -105.31 	 54.8464 	 112.558
| 33> H 	 -104.302 	 54.4138 	 112.659
| 34> H 	 -105.337 	 55.3367 	 111.598
| 35> C 	 -106.479 	 53.79 	 112.604
| 36> H 	 -107.425 	 54.22 	 112.342
| 37> H 	 -106.693 	 53.22 	 113.519
| 38> H 	 -106.315 	 53.0337 	 111.771
| 39> H 	 -110.665 	 55.1962 	 116.161
| 40> H 	 -102.234 	 54.2566 	 116.926
| 41> *
| 42>
| 43>                          ****END OF INPUT****

CARTESIAN COORDINATES (ANGSTROEM)
---------------------------------
  S    -108.387000   54.288700  116.063000
  C    -109.624000   55.470400  116.073000
  C    -109.096000   56.715500  116.318000
  C    -107.687000   56.781300  116.383000
  C    -107.104000   55.528100  116.163000
  H    -107.061000   57.659400  116.607000
  C    -109.882000   58.017700  116.520000
  H    -109.267000   58.881800  116.810000
  H    -110.584000   57.719900  117.302000
  C    -110.787000   58.479700  115.360000
  H    -111.481000   57.642500  115.181000
  H    -111.268000   59.363800  115.646000
  C    -110.003000   58.779200  114.076000
  H    -109.305000   58.009300  113.791000
  H    -110.637000   58.980200  113.196000
  H    -109.397000   59.647100  114.244000
  S    -104.735000   54.573900  117.438000
  C    -103.220000   54.717100  116.593000
  C    -103.490000   55.219300  115.282000
  C    -104.858000   55.536200  115.022000
  C    -105.689000   55.267000  116.086000
  H    -102.666000   55.264400  114.621000
  C    -105.309000   55.951900  113.644000
  H    -104.743000   56.851100  113.472000
  H    -106.357000   56.422600  113.764000
  C    -105.310000   54.846400  112.558000
  H    -104.302000   54.413800  112.659000
  H    -105.337000   55.336700  111.598000
  C    -106.479000   53.790000  112.604000
  H    -107.425000   54.220000  112.342000
  H    -106.693000   53.220000  113.519000
  H    -106.315000   53.033700  111.771000
  H    -110.665000   55.196200  116.161000
  H    -102.234000   54.256600  116.926000

 Total Charge           Charge          ....    0
 Multiplicity           Mult            ....    1
 Number of Electrons    NEL             ....  134
 Basis Dimension        Dim             ....  322

ORBITAL ENERGIES
----------------

  NO   OCC          E(Eh)            E(eV)
   0   2.0000     -88.968120     -2420.9456
   1   2.0000     -88.964314     -2420.8421
   2   2.0000     -10.330634      -281.1108
   3   2.0000     -10.327913      -281.0368
   4   2.0000     -10.324272      -280.9377
   5   2.0000     -10.313508      -280.6448
   6   2.0000     -10.300848      -280.3003
   7   2.0000     -10.300544      -280.2921
   8   2.0000     -10.297502      -280.2093
   9   2.0000     -10.294366      -280.1239
  10   2.0000     -10.293104      -280.0896
  11   2.0000     -10.291632      -280.0495
  12   2.0000     -10.291468      -280.0451
  13   2.0000     -10.283235      -279.8211
  14   2.0000     -10.280388      -279.7436
  15   2.0000     -10.270591      -279.4770
  16   2.0000      -8.082641      -219.9398
  17   2.0000      -8.078419      -219.8250
  18   2.0000      -6.041079      -164.3861
  19   2.0000      -6.037034      -164.2760
  20   2.0000      -6.036991      -164.2749
  21   2.0000      -6.033645      -164.1838
  22   2.0000      -6.032855      -164.1623
  23   2.0000      -6.029298      -164.0655
  24   2.0000      -1.004300       -27.3284
  25   2.0000      -0.982150       -26.7257
  26   2.0000      -0.909572       -24.7507
  27   2.0000      -0.900181       -24.4952
  28   2.0000      -0.869039       -23.6477
  29   2.0000      -0.849385       -23.1129
  30   2.0000      -0.841347       -22.8942
  31   2.0000      -0.808000       -21.9868
  32   2.0000      -0.781598       -21.2684
  33   2.0000      -0.770627       -20.9698
  34   2.0000      -0.707757       -19.2590
  35   2.0000      -0.700526       -19.0623
  36   2.0000      -0.694027       -18.8854
  37   2.0000      -0.655361       -17.8333
  38   2.0000      -0.645803       -17.5732
  39   2.0000      -0.606847       -16.5132
  40   2.0000      -0.588431       -16.0120
  41   2.0000      -0.579167       -15.7599
  42   2.0000      -0.547977       -14.9112
  43   2.0000      -0.546353       -14.8670
  44   2.0000      -0.544859       -14.8264
  45   2.0000      -0.530697       -14.4410
  46   2.0000      -0.515549       -14.0288
  47   2.0000      -0.511601       -13.9214
  48   2.0000      -0.501034       -13.6338
  49   2.0000      -0.492128       -13.3915
  50   2.0000      -0.486984       -13.2515
  51   2.0000      -0.481000       -13.0887
  52   2.0000      -0.470972       -12.8158
  53   2.0000      -0.466061       -12.6822
  54   2.0000      -0.457652       -12.4534
  55   2.0000      -0.442919       -12.0524
  56   2.0000      -0.438253       -11.9255
  57   2.0000      -0.434532       -11.8242
  58   2.0000      -0.433356       -11.7922
  59   2.0000      -0.420191       -11.4340
  60   2.0000      -0.417545       -11.3620
  61   2.0000      -0.414520       -11.2797
  62   2.0000      -0.410358       -11.1664
  63   2.0000      -0.337747        -9.1906
  64   2.0000      -0.329221        -8.9585
  65   2.0000      -0.320938        -8.7332
  66   2.0000      -0.305178        -8.3043
  67   0.0000       0.033794         0.9196
  68   0.0000       0.051694         1.4067
  69   0.0000       0.116635         3.1738
  70   0.0000       0.121849         3.3157
  71   0.0000       0.130899         3.5619

MULLIKEN ATOMIC CHARGES
-----------------------
   0 S :    0.120301
   1 C :   -0.123278
   2 C :   -0.085137
   3 C :    0.038994
   4 C :   -0.196351
   5 H :    0.030637
   6 C :    0.049984
   7 H :    0.026375
   8 H :    0.033789
   9 C :   -0.045885
  10 H :    0.025924
  11 H :    0.024346
  12 C :   -0.056396
  13 H :    0.035265
  14 H :    0.037099
  15 H :    0.012930
  16 S :    0.108038
  17 C :   -0.131311
  18 C :   -0.040954
  19 C :   -0.024272
  20 C :   -0.172297
  21 H :    0.007331
  22 C :    0.049211
  23 H :    0.024589
  24 H :    0.031933
  25 C :   -0.025645
  26 H :    0.027778
  27 H :    0.029977
  28 C :   -0.061666
  29 H :    0.023628
  30 H :    0.043856
  31 H :    0.036091
  32 H :    0.053050
  33 H :    0.092069
Sum of atomic charges:   -0.0000000

LOEWDIN ATOMIC CHARGES
----------------------
   0 S :    0.419433
   1 C :   -0.211887
   2 C :   -0.068075
   3 C :   -0.053246
   4 C :   -0.187205
   5 H :    0.041192
   6 C :   -0.030220
   7 H :    0.028506
   8 H :    0.034946
   9 C :   -0.032751
  10 H :    0.022368
  11 H :    0.018214
  12 C :   -0.068253
  13 H :    0.023021
  14 H :    0.028228
  15 H :    0.019241
  16 S :    0.393922
  17 C :   -0.201683
  18 C :   -0.072531
  19 C :   -0.054131
  20 C :   -0.201764
  21 H :    0.021619
  22 C :   -0.042550
  23 H :    0.030297
  24 H :    0.036835
  25 C :   -0.032561
  26 H :    0.025214
  27 H :    0.026571
  28 C :   -0.071043
  29 H :    0.021449
  30 H :    0.024189
  31 H :    0.034349
  32 H :    0.029375
  33 H :    0.048933

  Mayer bond orders larger than 0.100000
B(  0-S ,  1-C ) :   1.1549 B(  0-S ,  4-C ) :   1.1590 B(  1-C ,  2-C ) :   1.5828
B(  1-C ,  4-C ) :   0.1026 B(  1-C , 32-H ) :   0.9692 B(  2-C ,  3-C ) :   1.2619
B(  2-C ,  6-C ) :   1.0079 B(  3-C ,  4-C ) :   1.5504 B(  3-C ,  5-H ) :   0.9949
B(  4-C , 20-C ) :   1.0519 B(  6-C ,  7-H ) :   0.9514 B(  6-C ,  8-H ) :   0.9342
B(  6-C ,  9-C ) :   1.0837 B(  9-C , 10-H ) :   0.9552 B(  9-C , 11-H ) :   0.9567
B(  9-C , 12-C ) :   1.0757 B( 12-C , 13-H ) :   0.9767 B( 12-C , 14-H ) :   0.9748
B( 12-C , 15-H ) :   0.9736 B( 16-S , 17-C ) :   1.1735 B( 16-S , 20-C ) :   1.1284
B( 17-C , 18-C ) :   1.5781 B( 17-C , 20-C ) :   0.1049 B( 17-C , 33-H ) :   0.9579
B( 18-C , 19-C ) :   1.2492 B( 18-C , 21-H ) :   0.9960 B( 19-C , 20-C ) :   1.5880
B( 19-C , 22-C ) :   1.0401 B( 22-C , 23-H ) :   0.9300 B( 22-C , 24-H ) :   0.9268
B( 22-C , 25-C ) :   1.0570 B( 25-C , 26-H ) :   0.9596 B( 25-C , 27-H ) :   0.9536
B( 25-C , 28-C ) :   1.0646 B( 28-C , 29-H ) :   0.9744 B( 28-C , 30-H ) :   0.9781
B( 28-C , 31-H ) :   0.9738

Dispersion correction           -0.015679711
FINAL SINGLE POINT ENERGY     -1339.879108182697

DIPOLE MOMENT
-------------
                                X             Y             Z
Electronic contribution:      9.86702     -12.64157      18.53154
Nuclear contribution   :     -9.95829      13.03000     -18.85326
                        -----------------------------------------
Total Dipole Moment    :     -0.09127       0.38844      -0.32171
                        -----------------------------------------
Magnitude (a.u.)       :      0.51256
Magnitude (Debye)      :      1.30281

Rotational constants in cm-1:     0.020268     0.008738     0.007735
Rotational constants in MHz :   607.621171   261.969664   231.901951

                             ****ORCA TERMINATED NORMALLY****
TOTAL RUN TIME: 0 days 0 hours 0 minutes 34 seconds 897 msec
