                         Program Version 4.2.1 -  RELEASE  -
|  1> ! wB97X-D3 SP def2-SVP
|  2> %pal
|  3> nprocs 16
|  4> end
|  5>
|  6> * xyz 0 1
|  7> S 	 -6.68381 	 -16.72 	 79.3759
|  8> C 	 -6.51737 	 -17.402 	 80.9763
|  9> C 	 -6.32458 	 -16.4437 	 81.9955
| 10> C 	 -6.4028 	 -15.0948 	 81.394
| 11> C 	 -6.56952 	 -15.0464 	 80.0498
| 12> H 	 -6.38181 	 -14.3335 	 82.0727
| 13> C 	 -6.2274 	 -16.7922 	 83.5029
| 14> H 	 -5.30639 	 -17.2442 	 83.8307
| 15> H 	 -7.04365 	 -17.4765 	 83.7069
| 16> C 	 -6.61798 	 -15.5838 	 84.3798
| 17> H 	 -5.91076 	 -14.7555 	 84.3157
| 18> H 	 -7.61322 	 -15.1002 	 84.0758
| 19> C 	 -6.69537 	 -15.8807 	 85.9183
| 20> H 	 -7.59005 	 -16.5386 	 86.2785
| 21> H 	 -5.86237 	 -16.3794 	 86.3073
| 22> H 	 -6.74168 	 -14.9611 	 86.4181
| 23> S 	 -5.74942 	 -12.5517 	 78.9618
| 24> C 	 -7.00942 	 -11.478 	 78.4358
| 25> C 	 -8.2174 	 -12.0914 	 78.4562
| 26> C 	 -8.16292 	 -13.4711 	 78.849
| 27> C 	 -6.95982 	 -13.8394 	 79.2993
| 28> H 	 -9.0941 	 -11.557 	 78.0914
| 29> C 	 -9.41262 	 -14.3419 	 78.9759
| 30> H 	 -9.23406 	 -15.3834 	 79.3886
| 31> H 	 -9.85035 	 -14.5604 	 77.9635
| 32> C 	 -10.5227 	 -13.8179 	 79.8405
| 33> H 	 -11.3474 	 -14.4884 	 79.7818
| 34> H 	 -10.8712 	 -12.8289 	 79.6225
| 35> C 	 -10.3015 	 -14.0089 	 81.3288
| 36> H 	 -11.1599 	 -13.6965 	 81.9078
| 37> H 	 -9.39994 	 -13.5239 	 81.6801
| 38> H 	 -10.1733 	 -15.0243 	 81.5622
| 39> H 	 -6.38169 	 -18.4305 	 81.1263
| 40> H 	 -6.85662 	 -10.5435 	 77.9874
| 41> *
| 42>
| 43>                          ****END OF INPUT****

CARTESIAN COORDINATES (ANGSTROEM)
---------------------------------
  S     -6.683810  -16.720000   79.375900
  C     -6.517370  -17.402000   80.976300
  C     -6.324580  -16.443700   81.995500
  C     -6.402800  -15.094800   81.394000
  C     -6.569520  -15.046400   80.049800
  H     -6.381810  -14.333500   82.072700
  C     -6.227400  -16.792200   83.502900
  H     -5.306390  -17.244200   83.830700
  H     -7.043650  -17.476500   83.706900
  C     -6.617980  -15.583800   84.379800
  H     -5.910760  -14.755500   84.315700
  H     -7.613220  -15.100200   84.075800
  C     -6.695370  -15.880700   85.918300
  H     -7.590050  -16.538600   86.278500
  H     -5.862370  -16.379400   86.307300
  H     -6.741680  -14.961100   86.418100
  S     -5.749420  -12.551700   78.961800
  C     -7.009420  -11.478000   78.435800
  C     -8.217400  -12.091400   78.456200
  C     -8.162920  -13.471100   78.849000
  C     -6.959820  -13.839400   79.299300
  H     -9.094100  -11.557000   78.091400
  C     -9.412620  -14.341900   78.975900
  H     -9.234060  -15.383400   79.388600
  H     -9.850350  -14.560400   77.963500
  C    -10.522700  -13.817900   79.840500
  H    -11.347400  -14.488400   79.781800
  H    -10.871200  -12.828900   79.622500
  C    -10.301500  -14.008900   81.328800
  H    -11.159900  -13.696500   81.907800
  H     -9.399940  -13.523900   81.680100
  H    -10.173300  -15.024300   81.562200
  H     -6.381690  -18.430500   81.126300
  H     -6.856620  -10.543500   77.987400

 Total Charge           Charge          ....    0
 Multiplicity           Mult            ....    1
 Number of Electrons    NEL             ....  134
 Basis Dimension        Dim             ....  322

ORBITAL ENERGIES
----------------

  NO   OCC          E(Eh)            E(eV)
   0   2.0000     -88.968272     -2420.9498
   1   2.0000     -88.960906     -2420.7493
   2   2.0000     -10.332690      -281.1668
   3   2.0000     -10.325113      -280.9606
   4   2.0000     -10.314785      -280.6796
   5   2.0000     -10.310987      -280.5762
   6   2.0000     -10.309660      -280.5401
   7   2.0000     -10.300147      -280.2813
   8   2.0000     -10.299617      -280.2668
   9   2.0000     -10.299028      -280.2508
  10   2.0000     -10.293151      -280.0909
  11   2.0000     -10.293132      -280.0904
  12   2.0000     -10.291282      -280.0400
  13   2.0000     -10.280627      -279.7501
  14   2.0000     -10.273574      -279.5582
  15   2.0000     -10.262565      -279.2586
  16   2.0000      -8.081699      -219.9142
  17   2.0000      -8.075513      -219.7459
  18   2.0000      -6.040395      -164.3675
  19   2.0000      -6.036370      -164.2580
  20   2.0000      -6.034139      -164.1973
  21   2.0000      -6.032360      -164.1489
  22   2.0000      -6.030132      -164.0882
  23   2.0000      -6.026050      -163.9772
  24   2.0000      -1.003320       -27.3017
  25   2.0000      -0.978990       -26.6397
  26   2.0000      -0.912029       -24.8176
  27   2.0000      -0.906778       -24.6747
  28   2.0000      -0.870686       -23.6926
  29   2.0000      -0.848580       -23.0910
  30   2.0000      -0.843170       -22.9438
  31   2.0000      -0.818121       -22.2622
  32   2.0000      -0.783000       -21.3065
  33   2.0000      -0.774741       -21.0818
  34   2.0000      -0.712695       -19.3934
  35   2.0000      -0.695017       -18.9124
  36   2.0000      -0.689508       -18.7625
  37   2.0000      -0.660372       -17.9696
  38   2.0000      -0.641618       -17.4593
  39   2.0000      -0.625904       -17.0317
  40   2.0000      -0.604347       -16.4451
  41   2.0000      -0.568185       -15.4611
  42   2.0000      -0.564237       -15.3537
  43   2.0000      -0.552686       -15.0393
  44   2.0000      -0.543591       -14.7919
  45   2.0000      -0.525464       -14.2986
  46   2.0000      -0.518307       -14.1038
  47   2.0000      -0.507750       -13.8166
  48   2.0000      -0.507375       -13.8064
  49   2.0000      -0.495659       -13.4876
  50   2.0000      -0.485209       -13.2032
  51   2.0000      -0.481549       -13.1036
  52   2.0000      -0.471500       -12.8302
  53   2.0000      -0.464892       -12.6503
  54   2.0000      -0.455626       -12.3982
  55   2.0000      -0.453579       -12.3425
  56   2.0000      -0.441182       -12.0052
  57   2.0000      -0.434945       -11.8354
  58   2.0000      -0.431804       -11.7500
  59   2.0000      -0.424016       -11.5380
  60   2.0000      -0.420608       -11.4453
  61   2.0000      -0.417611       -11.3638
  62   2.0000      -0.400443       -10.8966
  63   2.0000      -0.346674        -9.4335
  64   2.0000      -0.329468        -8.9653
  65   2.0000      -0.324749        -8.8369
  66   2.0000      -0.304894        -8.2966
  67   0.0000       0.040309         1.0969
  68   0.0000       0.061419         1.6713
  69   0.0000       0.109680         2.9845
  70   0.0000       0.116154         3.1607
  71   0.0000       0.129711         3.5296

MULLIKEN ATOMIC CHARGES
-----------------------
   0 S :    0.103084
   1 C :   -0.105320
   2 C :   -0.126628
   3 C :    0.094604
   4 C :   -0.136124
   5 H :   -0.029541
   6 C :    0.112282
   7 H :    0.044092
   8 H :    0.036256
   9 C :   -0.179306
  10 H :    0.039655
  11 H :    0.052111
  12 C :   -0.028613
  13 H :    0.041178
  14 H :    0.016149
  15 H :    0.024206
  16 S :    0.094528
  17 C :   -0.064933
  18 C :   -0.042100
  19 C :    0.022684
  20 C :   -0.181140
  21 H :    0.022330
  22 C :    0.035937
  23 H :    0.030087
  24 H :    0.038407
  25 C :   -0.050753
  26 H :    0.013710
  27 H :    0.022192
  28 C :   -0.032591
  29 H :    0.026929
  30 H :    0.023553
  31 H :    0.008064
  32 H :    0.034750
  33 H :    0.040261
Sum of atomic charges:   -0.0000000

LOEWDIN ATOMIC CHARGES
----------------------
   0 S :    0.388515
   1 C :   -0.185050
   2 C :   -0.057544
   3 C :   -0.035900
   4 C :   -0.179194
   5 H :    0.014015
   6 C :   -0.028982
   7 H :    0.031528
   8 H :    0.037559
   9 C :   -0.049049
  10 H :    0.020395
  11 H :    0.034889
  12 C :   -0.065221
  13 H :    0.034168
  14 H :    0.014831
  15 H :    0.021100
  16 S :    0.380246
  17 C :   -0.173520
  18 C :   -0.072139
  19 C :   -0.056352
  20 C :   -0.180128
  21 H :    0.033141
  22 C :   -0.037510
  23 H :    0.032761
  24 H :    0.037558
  25 C :   -0.041669
  26 H :    0.026025
  27 H :    0.016135
  28 C :   -0.057702
  29 H :    0.025093
  30 H :    0.018214
  31 H :    0.015975
  32 H :    0.015654
  33 H :    0.022156

  Mayer bond orders larger than 0.100000
B(  0-S ,  1-C ) :   1.1511 B(  0-S ,  4-C ) :   1.1126 B(  1-C ,  2-C ) :   1.6292
B(  1-C , 32-H ) :   0.9713 B(  2-C ,  3-C ) :   1.2434 B(  2-C ,  6-C ) :   0.9993
B(  3-C ,  4-C ) :   1.5969 B(  3-C ,  5-H ) :   1.0020 B(  4-C , 20-C ) :   0.9988
B(  6-C ,  7-H ) :   0.9386 B(  6-C ,  8-H ) :   0.9484 B(  6-C ,  9-C ) :   1.0691
B(  9-C , 10-H ) :   0.9500 B(  9-C , 11-H ) :   0.9572 B(  9-C , 12-C ) :   1.0798
B( 12-C , 13-H ) :   0.9753 B( 12-C , 14-H ) :   0.9738 B( 12-C , 15-H ) :   0.9740
B( 16-S , 17-C ) :   1.1427 B( 16-S , 20-C ) :   1.1160 B( 17-C , 18-C ) :   1.6481
B( 17-C , 33-H ) :   0.9705 B( 18-C , 19-C ) :   1.2020 B( 18-C , 21-H ) :   0.9881
B( 19-C , 20-C ) :   1.6560 B( 19-C , 22-C ) :   1.0369 B( 22-C , 23-H ) :   0.9320
B( 22-C , 24-H ) :   0.9303 B( 22-C , 25-C ) :   1.0911 B( 25-C , 26-H ) :   0.9489
B( 25-C , 27-H ) :   0.9558 B( 25-C , 28-C ) :   1.0755 B( 28-C , 29-H ) :   0.9728
B( 28-C , 30-H ) :   0.9760 B( 28-C , 31-H ) :   0.9710

Dispersion correction           -0.015299341
FINAL SINGLE POINT ENERGY     -1339.864386292387

DIPOLE MOMENT
-------------
                                X             Y             Z
Electronic contribution:     14.71377       2.56591     -23.71737
Nuclear contribution   :    -15.13195      -2.62745      24.24929
                        -----------------------------------------
Total Dipole Moment    :     -0.41818      -0.06154       0.53192
                        -----------------------------------------
Magnitude (a.u.)       :      0.67941
Magnitude (Debye)      :      1.72693

Rotational constants in cm-1:     0.018065     0.008480     0.008013
Rotational constants in MHz :   541.576845   254.232303   240.234724

                             ****ORCA TERMINATED NORMALLY****
TOTAL RUN TIME: 0 days 0 hours 0 minutes 33 seconds 299 msec
