                         Program Version 4.2.1 -  RELEASE  -
|  1> ! wB97X-D3 SP def2-SVP
|  2> %pal
|  3> nprocs 16
|  4> end
|  5>
|  6> * xyz 0 1
|  7> S 	 9.43543 	 23.681 	 39.7617
|  8> C 	 8.30979 	 22.7746 	 40.8447
|  9> C 	 7.35966 	 23.6214 	 41.28
| 10> C 	 7.37073 	 24.8916 	 40.6207
| 11> C 	 8.31423 	 25.0106 	 39.5782
| 12> H 	 6.66002 	 25.7019 	 40.8907
| 13> C 	 6.28778 	 23.3019 	 42.323
| 14> H 	 6.23831 	 22.2609 	 42.6126
| 15> H 	 5.34848 	 23.572 	 41.8526
| 16> C 	 6.44721 	 24.137 	 43.6735
| 17> H 	 7.44451 	 24.0438 	 44.1415
| 18> H 	 6.39343 	 25.1847 	 43.3898
| 19> C 	 5.25028 	 23.959 	 44.574
| 20> H 	 4.31264 	 24.3739 	 44.0903
| 21> H 	 5.09275 	 22.9043 	 44.8533
| 22> H 	 5.53741 	 24.5008 	 45.4357
| 23> S 	 10.2037 	 26.8541 	 38.7287
| 24> C 	 9.66084 	 28.3131 	 37.9829
| 25> C 	 8.35177 	 28.2648 	 37.585
| 26> C 	 7.68587 	 27.0555 	 38.0169
| 27> C 	 8.59113 	 26.2331 	 38.7306
| 28> H 	 7.90083 	 29.1544 	 37.2179
| 29> C 	 6.15366 	 26.82 	 37.8629
| 30> H 	 5.94068 	 25.7807 	 38.2485
| 31> H 	 6.1247 	 26.7417 	 36.7797
| 32> C 	 5.21224 	 27.9281 	 38.4806
| 33> H 	 5.45024 	 28.8489 	 38.0108
| 34> H 	 5.49816 	 28.1321 	 39.4917
| 35> C 	 3.81553 	 27.4962 	 38.1551
| 36> H 	 3.07626 	 28.1572 	 38.5275
| 37> H 	 3.59003 	 26.4821 	 38.6391
| 38> H 	 3.52292 	 27.3574 	 37.0949
| 39> H 	 8.45375 	 21.7218 	 41.0717
| 40> H 	 10.22 	 29.2637 	 37.7735
| 41> *
| 42>
| 43>                          ****END OF INPUT****

CARTESIAN COORDINATES (ANGSTROEM)
---------------------------------
  S      9.435430   23.681000   39.761700
  C      8.309790   22.774600   40.844700
  C      7.359660   23.621400   41.280000
  C      7.370730   24.891600   40.620700
  C      8.314230   25.010600   39.578200
  H      6.660020   25.701900   40.890700
  C      6.287780   23.301900   42.323000
  H      6.238310   22.260900   42.612600
  H      5.348480   23.572000   41.852600
  C      6.447210   24.137000   43.673500
  H      7.444510   24.043800   44.141500
  H      6.393430   25.184700   43.389800
  C      5.250280   23.959000   44.574000
  H      4.312640   24.373900   44.090300
  H      5.092750   22.904300   44.853300
  H      5.537410   24.500800   45.435700
  S     10.203700   26.854100   38.728700
  C      9.660840   28.313100   37.982900
  C      8.351770   28.264800   37.585000
  C      7.685870   27.055500   38.016900
  C      8.591130   26.233100   38.730600
  H      7.900830   29.154400   37.217900
  C      6.153660   26.820000   37.862900
  H      5.940680   25.780700   38.248500
  H      6.124700   26.741700   36.779700
  C      5.212240   27.928100   38.480600
  H      5.450240   28.848900   38.010800
  H      5.498160   28.132100   39.491700
  C      3.815530   27.496200   38.155100
  H      3.076260   28.157200   38.527500
  H      3.590030   26.482100   38.639100
  H      3.522920   27.357400   37.094900
  H      8.453750   21.721800   41.071700
  H     10.220000   29.263700   37.773500

 Total Charge           Charge          ....    0
 Multiplicity           Mult            ....    1
 Number of Electrons    NEL             ....  134
 Basis Dimension        Dim             ....  322

ORBITAL ENERGIES
----------------

  NO   OCC          E(Eh)            E(eV)
   0   2.0000     -88.968126     -2420.9458
   1   2.0000     -88.959900     -2420.7219
   2   2.0000     -10.337830      -281.3067
   3   2.0000     -10.330603      -281.1100
   4   2.0000     -10.317131      -280.7434
   5   2.0000     -10.314039      -280.6593
   6   2.0000     -10.308921      -280.5200
   7   2.0000     -10.298904      -280.2474
   8   2.0000     -10.298327      -280.2317
   9   2.0000     -10.297531      -280.2101
  10   2.0000     -10.294104      -280.1168
  11   2.0000     -10.290902      -280.0297
  12   2.0000     -10.289932      -280.0033
  13   2.0000     -10.289063      -279.9796
  14   2.0000     -10.283300      -279.8228
  15   2.0000     -10.281054      -279.7617
  16   2.0000      -8.083500      -219.9632
  17   2.0000      -8.074213      -219.7105
  18   2.0000      -6.041998      -164.4111
  19   2.0000      -6.037966      -164.3014
  20   2.0000      -6.034181      -164.1984
  21   2.0000      -6.032888      -164.1632
  22   2.0000      -6.028943      -164.0559
  23   2.0000      -6.024665      -163.9395
  24   2.0000      -1.003104       -27.2959
  25   2.0000      -0.982833       -26.7442
  26   2.0000      -0.908202       -24.7134
  27   2.0000      -0.906791       -24.6750
  28   2.0000      -0.868120       -23.6227
  29   2.0000      -0.852320       -23.1928
  30   2.0000      -0.841149       -22.8888
  31   2.0000      -0.811925       -22.0936
  32   2.0000      -0.778352       -21.1800
  33   2.0000      -0.768132       -20.9019
  34   2.0000      -0.713840       -19.4246
  35   2.0000      -0.697804       -18.9882
  36   2.0000      -0.691116       -18.8062
  37   2.0000      -0.654991       -17.8232
  38   2.0000      -0.634989       -17.2789
  39   2.0000      -0.620265       -16.8783
  40   2.0000      -0.589629       -16.0446
  41   2.0000      -0.566876       -15.4255
  42   2.0000      -0.563446       -15.3322
  43   2.0000      -0.557877       -15.1806
  44   2.0000      -0.528052       -14.3690
  45   2.0000      -0.526741       -14.3334
  46   2.0000      -0.515935       -14.0393
  47   2.0000      -0.509631       -13.8678
  48   2.0000      -0.503807       -13.7093
  49   2.0000      -0.500054       -13.6072
  50   2.0000      -0.493659       -13.4331
  51   2.0000      -0.479298       -13.0424
  52   2.0000      -0.467227       -12.7139
  53   2.0000      -0.464869       -12.6497
  54   2.0000      -0.460830       -12.5398
  55   2.0000      -0.451844       -12.2953
  56   2.0000      -0.444615       -12.0986
  57   2.0000      -0.441417       -12.0116
  58   2.0000      -0.434921       -11.8348
  59   2.0000      -0.423463       -11.5230
  60   2.0000      -0.419115       -11.4047
  61   2.0000      -0.416862       -11.3434
  62   2.0000      -0.406740       -11.0680
  63   2.0000      -0.349433        -9.5086
  64   2.0000      -0.330005        -8.9799
  65   2.0000      -0.323623        -8.8062
  66   2.0000      -0.289064        -7.8658
  67   0.0000       0.030774         0.8374
  68   0.0000       0.069653         1.8953
  69   0.0000       0.102408         2.7867
  70   0.0000       0.124488         3.3875
  71   0.0000       0.127416         3.4672

MULLIKEN ATOMIC CHARGES
-----------------------
   0 S :    0.069424
   1 C :   -0.145751
   2 C :   -0.035373
   3 C :    0.001111
   4 C :   -0.127246
   5 H :    0.026637
   6 C :    0.065484
   7 H :    0.017439
   8 H :    0.023783
   9 C :   -0.114609
  10 H :    0.043700
  11 H :    0.020867
  12 C :   -0.029540
  13 H :    0.043229
  14 H :    0.031925
  15 H :    0.030677
  16 S :    0.125069
  17 C :   -0.107708
  18 C :   -0.038079
  19 C :   -0.053663
  20 C :   -0.154784
  21 H :    0.011627
  22 C :    0.017834
  23 H :    0.038907
  24 H :    0.038850
  25 C :   -0.014723
  26 H :    0.014526
  27 H :    0.031065
  28 C :   -0.047839
  29 H :    0.023406
  30 H :    0.032704
  31 H :    0.038295
  32 H :    0.052950
  33 H :    0.069806
Sum of atomic charges:   -0.0000000

LOEWDIN ATOMIC CHARGES
----------------------
   0 S :    0.365963
   1 C :   -0.175939
   2 C :   -0.067767
   3 C :   -0.072351
   4 C :   -0.184225
   5 H :    0.033124
   6 C :   -0.024902
   7 H :    0.024380
   8 H :    0.028457
   9 C :   -0.042397
  10 H :    0.028568
  11 H :    0.021374
  12 C :   -0.063876
  13 H :    0.033991
  14 H :    0.023232
  15 H :    0.024397
  16 S :    0.424292
  17 C :   -0.200862
  18 C :   -0.076463
  19 C :   -0.052972
  20 C :   -0.210856
  21 H :    0.026280
  22 C :   -0.031834
  23 H :    0.034185
  24 H :    0.034479
  25 C :   -0.033537
  26 H :    0.020085
  27 H :    0.025835
  28 C :   -0.069550
  29 H :    0.018142
  30 H :    0.033162
  31 H :    0.032748
  32 H :    0.031485
  33 H :    0.043353

  Mayer bond orders larger than 0.100000
B(  0-S ,  1-C ) :   1.1074 B(  0-S ,  4-C ) :   1.1550 B(  1-C ,  2-C ) :   1.6256
B(  1-C , 32-H ) :   0.9763 B(  2-C ,  3-C ) :   1.2312 B(  2-C ,  6-C ) :   1.0196
B(  3-C ,  4-C ) :   1.5574 B(  3-C ,  5-H ) :   0.9862 B(  4-C , 20-C ) :   1.0213
B(  6-C ,  7-H ) :   0.9500 B(  6-C ,  8-H ) :   0.9429 B(  6-C ,  9-C ) :   1.0501
B(  9-C , 10-H ) :   0.9592 B(  9-C , 11-H ) :   0.9551 B(  9-C , 12-C ) :   1.0809
B( 12-C , 13-H ) :   0.9732 B( 12-C , 14-H ) :   0.9749 B( 12-C , 15-H ) :   0.9719
B( 16-S , 17-C ) :   1.1547 B( 16-S , 20-C ) :   1.1486 B( 17-C , 18-C ) :   1.6405
B( 17-C , 33-H ) :   0.9566 B( 18-C , 19-C ) :   1.2296 B( 18-C , 21-H ) :   0.9903
B( 19-C , 20-C ) :   1.5999 B( 19-C , 22-C ) :   1.0233 B( 22-C , 23-H ) :   0.9412
B( 22-C , 24-H ) :   0.9362 B( 22-C , 25-C ) :   1.0473 B( 25-C , 26-H ) :   0.9474
B( 25-C , 27-H ) :   0.9576 B( 25-C , 28-C ) :   1.0835 B( 28-C , 29-H ) :   0.9723
B( 28-C , 30-H ) :   0.9728 B( 28-C , 31-H ) :   0.9736

Dispersion correction           -0.013691351
FINAL SINGLE POINT ENERGY     -1339.863787668631

DIPOLE MOMENT
-------------
                                X             Y             Z
Electronic contribution:     28.93319      -2.87285     -12.03260
Nuclear contribution   :    -29.67551       3.26026      12.34224
                        -----------------------------------------
Total Dipole Moment    :     -0.74233       0.38741       0.30964
                        -----------------------------------------
Magnitude (a.u.)       :      0.89275
Magnitude (Debye)      :      2.26920

Rotational constants in cm-1:     0.015824     0.008912     0.006492
Rotational constants in MHz :   474.382840   267.160862   194.619189

                             ****ORCA TERMINATED NORMALLY****
TOTAL RUN TIME: 0 days 0 hours 0 minutes 33 seconds 409 msec
