                         Program Version 4.2.1 -  RELEASE  -
|  1> ! wB97X-D3 SP def2-SVP
|  2> %pal
|  3> nprocs 16
|  4> end
|  5>
|  6> * xyz 0 1
|  7> S 	 -45.8543 	 14.2327 	 78.4708
|  8> C 	 -45.8809 	 12.6526 	 77.6733
|  9> C 	 -44.691 	 11.9386 	 77.7953
| 10> C 	 -43.7387 	 12.7867 	 78.5206
| 11> C 	 -44.2508 	 13.9858 	 78.993
| 12> H 	 -42.7737 	 12.4514 	 78.7984
| 13> C 	 -44.4112 	 10.5827 	 77.292
| 14> H 	 -43.5346 	 10.7228 	 76.6983
| 15> H 	 -45.2478 	 10.299 	 76.6022
| 16> C 	 -44.0882 	 9.65746 	 78.4571
| 17> H 	 -43.7551 	 8.67456 	 78.0894
| 18> H 	 -43.2484 	 10.0654 	 79.0203
| 19> C 	 -45.2017 	 9.44631 	 79.5463
| 20> H 	 -44.835 	 8.96724 	 80.4209
| 21> H 	 -45.5783 	 10.412 	 79.7442
| 22> H 	 -46.0621 	 8.94141 	 79.057
| 23> S 	 -44.2492 	 16.6033 	 79.9255
| 24> C 	 -42.8123 	 17.2529 	 80.6705
| 25> C 	 -41.8129 	 16.2834 	 80.82
| 26> C 	 -42.2385 	 14.96 	 80.3741
| 27> C 	 -43.5328 	 15.0124 	 79.764
| 28> H 	 -40.8705 	 16.6144 	 81.1331
| 29> C 	 -41.3388 	 13.7219 	 80.5123
| 30> H 	 -42.0438 	 12.8831 	 80.5906
| 31> H 	 -40.8699 	 13.666 	 81.4816
| 32> C 	 -40.3156 	 13.3345 	 79.442
| 33> H 	 -40.7823 	 13.1438 	 78.4623
| 34> H 	 -39.8529 	 12.4812 	 79.6765
| 35> C 	 -39.2751 	 14.5065 	 79.23
| 36> H 	 -38.8686 	 14.6441 	 80.2789
| 37> H 	 -39.8422 	 15.386 	 78.8669
| 38> H 	 -38.6606 	 14.0467 	 78.4285
| 39> H 	 -46.8133 	 12.3307 	 77.1161
| 40> H 	 -42.7444 	 18.3088 	 80.9265
| 41> *
| 42>
| 43>                          ****END OF INPUT****

CARTESIAN COORDINATES (ANGSTROEM)
---------------------------------
  S    -45.854300   14.232700   78.470800
  C    -45.880900   12.652600   77.673300
  C    -44.691000   11.938600   77.795300
  C    -43.738700   12.786700   78.520600
  C    -44.250800   13.985800   78.993000
  H    -42.773700   12.451400   78.798400
  C    -44.411200   10.582700   77.292000
  H    -43.534600   10.722800   76.698300
  H    -45.247800   10.299000   76.602200
  C    -44.088200    9.657460   78.457100
  H    -43.755100    8.674560   78.089400
  H    -43.248400   10.065400   79.020300
  C    -45.201700    9.446310   79.546300
  H    -44.835000    8.967240   80.420900
  H    -45.578300   10.412000   79.744200
  H    -46.062100    8.941410   79.057000
  S    -44.249200   16.603300   79.925500
  C    -42.812300   17.252900   80.670500
  C    -41.812900   16.283400   80.820000
  C    -42.238500   14.960000   80.374100
  C    -43.532800   15.012400   79.764000
  H    -40.870500   16.614400   81.133100
  C    -41.338800   13.721900   80.512300
  H    -42.043800   12.883100   80.590600
  H    -40.869900   13.666000   81.481600
  C    -40.315600   13.334500   79.442000
  H    -40.782300   13.143800   78.462300
  H    -39.852900   12.481200   79.676500
  C    -39.275100   14.506500   79.230000
  H    -38.868600   14.644100   80.278900
  H    -39.842200   15.386000   78.866900
  H    -38.660600   14.046700   78.428500
  H    -46.813300   12.330700   77.116100
  H    -42.744400   18.308800   80.926500

 Total Charge           Charge          ....    0
 Multiplicity           Mult            ....    1
 Number of Electrons    NEL             ....  134
 Basis Dimension        Dim             ....  322

ORBITAL ENERGIES
----------------

  NO   OCC          E(Eh)            E(eV)
   0   2.0000     -88.968832     -2420.9650
   1   2.0000     -88.965524     -2420.8750
   2   2.0000     -10.335985      -281.2565
   3   2.0000     -10.330813      -281.1157
   4   2.0000     -10.321503      -280.8624
   5   2.0000     -10.319656      -280.8121
   6   2.0000     -10.315646      -280.7030
   7   2.0000     -10.305060      -280.4149
   8   2.0000     -10.298383      -280.2333
   9   2.0000     -10.295648      -280.1588
  10   2.0000     -10.293620      -280.1036
  11   2.0000     -10.292147      -280.0636
  12   2.0000     -10.290617      -280.0219
  13   2.0000     -10.287251      -279.9303
  14   2.0000     -10.281212      -279.7660
  15   2.0000     -10.272153      -279.5195
  16   2.0000      -8.083653      -219.9674
  17   2.0000      -8.081008      -219.8954
  18   2.0000      -6.042171      -164.4158
  19   2.0000      -6.039558      -164.3447
  20   2.0000      -6.038105      -164.3052
  21   2.0000      -6.035500      -164.2343
  22   2.0000      -6.034466      -164.2062
  23   2.0000      -6.031606      -164.1283
  24   2.0000      -1.006191       -27.3798
  25   2.0000      -0.980603       -26.6836
  26   2.0000      -0.920408       -25.0456
  27   2.0000      -0.910020       -24.7629
  28   2.0000      -0.864696       -23.5296
  29   2.0000      -0.849796       -23.1241
  30   2.0000      -0.840848       -22.8806
  31   2.0000      -0.812502       -22.1093
  32   2.0000      -0.788347       -21.4520
  33   2.0000      -0.774719       -21.0812
  34   2.0000      -0.710771       -19.3411
  35   2.0000      -0.700335       -19.0571
  36   2.0000      -0.686707       -18.6863
  37   2.0000      -0.664478       -18.0814
  38   2.0000      -0.634739       -17.2721
  39   2.0000      -0.625090       -17.0096
  40   2.0000      -0.593830       -16.1589
  41   2.0000      -0.567356       -15.4385
  42   2.0000      -0.560978       -15.2650
  43   2.0000      -0.555274       -15.1098
  44   2.0000      -0.550647       -14.9839
  45   2.0000      -0.541217       -14.7273
  46   2.0000      -0.524453       -14.2711
  47   2.0000      -0.503464       -13.6999
  48   2.0000      -0.500605       -13.6221
  49   2.0000      -0.492543       -13.4028
  50   2.0000      -0.490542       -13.3483
  51   2.0000      -0.484300       -13.1785
  52   2.0000      -0.471896       -12.8409
  53   2.0000      -0.462844       -12.5946
  54   2.0000      -0.458272       -12.4702
  55   2.0000      -0.454297       -12.3620
  56   2.0000      -0.451470       -12.2851
  57   2.0000      -0.443719       -12.0742
  58   2.0000      -0.433822       -11.8049
  59   2.0000      -0.425943       -11.5905
  60   2.0000      -0.419136       -11.4053
  61   2.0000      -0.415211       -11.2985
  62   2.0000      -0.403350       -10.9757
  63   2.0000      -0.359074        -9.7709
  64   2.0000      -0.334867        -9.1122
  65   2.0000      -0.326358        -8.8807
  66   2.0000      -0.281431        -7.6581
  67   0.0000       0.018645         0.5074
  68   0.0000       0.090480         2.4621
  69   0.0000       0.091687         2.4949
  70   0.0000       0.111568         3.0359
  71   0.0000       0.130794         3.5591

MULLIKEN ATOMIC CHARGES
-----------------------
   0 S :    0.095221
   1 C :   -0.160694
   2 C :   -0.110202
   3 C :    0.000022
   4 C :   -0.091232
   5 H :   -0.032385
   6 C :    0.121515
   7 H :    0.030451
   8 H :    0.032231
   9 C :   -0.109825
  10 H :    0.029752
  11 H :    0.026318
  12 C :   -0.020998
  13 H :    0.040338
  14 H :    0.027696
  15 H :    0.027668
  16 S :    0.099652
  17 C :   -0.105253
  18 C :   -0.007035
  19 C :   -0.062529
  20 C :   -0.104697
  21 H :    0.003096
  22 C :    0.026199
  23 H :    0.022851
  24 H :    0.024127
  25 C :   -0.039712
  26 H :    0.031415
  27 H :    0.001977
  28 C :   -0.086917
  29 H :    0.044365
  30 H :    0.061259
  31 H :    0.049559
  32 H :    0.068880
  33 H :    0.066886
Sum of atomic charges:   -0.0000000

LOEWDIN ATOMIC CHARGES
----------------------
   0 S :    0.404603
   1 C :   -0.205567
   2 C :   -0.056501
   3 C :   -0.067304
   4 C :   -0.197068
   5 H :    0.015738
   6 C :   -0.032119
   7 H :    0.036707
   8 H :    0.037908
   9 C :   -0.038713
  10 H :    0.021633
  11 H :    0.022785
  12 C :   -0.057134
  13 H :    0.023729
  14 H :    0.020500
  15 H :    0.027689
  16 S :    0.404717
  17 C :   -0.187692
  18 C :   -0.062717
  19 C :   -0.051321
  20 C :   -0.191017
  21 H :    0.022976
  22 C :   -0.041068
  23 H :    0.030484
  24 H :    0.030699
  25 C :   -0.031522
  26 H :    0.022070
  27 H :    0.005046
  28 C :   -0.069511
  29 H :    0.030645
  30 H :    0.030868
  31 H :    0.032859
  32 H :    0.036417
  33 H :    0.031178

  Mayer bond orders larger than 0.100000
B(  0-S ,  1-C ) :   1.1268 B(  0-S ,  4-C ) :   1.1496 B(  1-C ,  2-C ) :   1.6103
B(  1-C , 32-H ) :   0.9591 B(  2-C ,  3-C ) :   1.2234 B(  2-C ,  6-C ) :   1.0243
B(  3-C ,  4-C ) :   1.5690 B(  3-C ,  5-H ) :   0.9873 B(  4-C , 20-C ) :   1.0800
B(  6-C ,  7-H ) :   0.9258 B(  6-C ,  8-H ) :   0.9428 B(  6-C ,  9-C ) :   1.0643
B(  9-C , 10-H ) :   0.9573 B(  9-C , 11-H ) :   0.9573 B(  9-C , 12-C ) :   1.0676
B( 12-C , 13-H ) :   0.9757 B( 12-C , 14-H ) :   0.9742 B( 12-C , 15-H ) :   0.9749
B( 16-S , 17-C ) :   1.1572 B( 16-S , 20-C ) :   1.1489 B( 17-C , 18-C ) :   1.5977
B( 17-C , 33-H ) :   0.9678 B( 18-C , 19-C ) :   1.2372 B( 18-C , 21-H ) :   1.0015
B( 19-C , 20-C ) :   1.5619 B( 19-C , 22-C ) :   1.0328 B( 22-C , 23-H ) :   0.9298
B( 22-C , 24-H ) :   0.9358 B( 22-C , 25-C ) :   1.0801 B( 25-C , 26-H ) :   0.9464
B( 25-C , 27-H ) :   0.9536 B( 25-C , 28-C ) :   1.0626 B( 28-C , 29-H ) :   0.9759
B( 28-C , 30-H ) :   0.9753 B( 28-C , 31-H ) :   0.9746

Dispersion correction           -0.015155092
FINAL SINGLE POINT ENERGY     -1339.868848613608

DIPOLE MOMENT
-------------
                                X             Y             Z
Electronic contribution:    -16.36797      22.10191       0.36704
Nuclear contribution   :     16.87202     -22.55738      -0.40772
                        -----------------------------------------
Total Dipole Moment    :      0.50405      -0.45546      -0.04069
                        -----------------------------------------
Magnitude (a.u.)       :      0.68057
Magnitude (Debye)      :      1.72986

Rotational constants in cm-1:     0.018783     0.009779     0.007104
Rotational constants in MHz :   563.105999   293.178437   212.969597

                             ****ORCA TERMINATED NORMALLY****
TOTAL RUN TIME: 0 days 0 hours 0 minutes 32 seconds 266 msec
