                         Program Version 4.2.1 -  RELEASE  -
|  1> ! wB97X-D3 SP def2-SVP
|  2> %pal
|  3> nprocs 16
|  4> end
|  5>
|  6> * xyz 0 1
|  7> S 	 -93.8968 	 49.5819 	 128.174
|  8> C 	 -94.1301 	 47.9273 	 127.827
|  9> C 	 -92.9996 	 47.4108 	 127.215
| 10> C 	 -91.8945 	 48.2927 	 127.206
| 11> C 	 -92.188 	 49.5492 	 127.673
| 12> H 	 -90.8192 	 48.0984 	 126.859
| 13> C 	 -92.7359 	 45.9839 	 126.71
| 14> H 	 -92.8187 	 46.0317 	 125.67
| 15> H 	 -93.5235 	 45.417 	 127.206
| 16> C 	 -91.4197 	 45.3351 	 127.165
| 17> H 	 -91.3876 	 44.5002 	 126.482
| 18> H 	 -90.5743 	 45.9628 	 127.08
| 19> C 	 -91.531 	 44.734 	 128.576
| 20> H 	 -92.2943 	 43.9945 	 128.682
| 21> H 	 -90.526 	 44.4922 	 129.047
| 22> H 	 -91.902 	 45.6132 	 129.146
| 23> S 	 -91.4674 	 51.3195 	 129.56
| 24> C 	 -89.8843 	 52.1579 	 129.48
| 25> C 	 -89.2551 	 51.8339 	 128.296
| 26> C 	 -90.0352 	 50.9766 	 127.446
| 27> C 	 -91.2636 	 50.6416 	 128.009
| 28> H 	 -88.3408 	 52.2987 	 127.914
| 29> C 	 -89.5299 	 50.4926 	 126.068
| 30> H 	 -90.3803 	 50.5507 	 125.295
| 31> H 	 -89.3908 	 49.4285 	 126.154
| 32> C 	 -88.277 	 51.1495 	 125.44
| 33> H 	 -87.4763 	 51.2451 	 126.111
| 34> H 	 -88.5653 	 52.1352 	 125.091
| 35> C 	 -87.7469 	 50.4607 	 124.184
| 36> H 	 -88.558 	 50.3048 	 123.431
| 37> H 	 -87.2718 	 49.5349 	 124.287
| 38> H 	 -87.0666 	 51.1862 	 123.69
| 39> H 	 -95.0133 	 47.333 	 128.047
| 40> H 	 -89.4659 	 52.9327 	 130.109
| 41> *
| 42>
| 43>                          ****END OF INPUT****

CARTESIAN COORDINATES (ANGSTROEM)
---------------------------------
  S    -93.896800   49.581900  128.174000
  C    -94.130100   47.927300  127.827000
  C    -92.999600   47.410800  127.215000
  C    -91.894500   48.292700  127.206000
  C    -92.188000   49.549200  127.673000
  H    -90.819200   48.098400  126.859000
  C    -92.735900   45.983900  126.710000
  H    -92.818700   46.031700  125.670000
  H    -93.523500   45.417000  127.206000
  C    -91.419700   45.335100  127.165000
  H    -91.387600   44.500200  126.482000
  H    -90.574300   45.962800  127.080000
  C    -91.531000   44.734000  128.576000
  H    -92.294300   43.994500  128.682000
  H    -90.526000   44.492200  129.047000
  H    -91.902000   45.613200  129.146000
  S    -91.467400   51.319500  129.560000
  C    -89.884300   52.157900  129.480000
  C    -89.255100   51.833900  128.296000
  C    -90.035200   50.976600  127.446000
  C    -91.263600   50.641600  128.009000
  H    -88.340800   52.298700  127.914000
  C    -89.529900   50.492600  126.068000
  H    -90.380300   50.550700  125.295000
  H    -89.390800   49.428500  126.154000
  C    -88.277000   51.149500  125.440000
  H    -87.476300   51.245100  126.111000
  H    -88.565300   52.135200  125.091000
  C    -87.746900   50.460700  124.184000
  H    -88.558000   50.304800  123.431000
  H    -87.271800   49.534900  124.287000
  H    -87.066600   51.186200  123.690000
  H    -95.013300   47.333000  128.047000
  H    -89.465900   52.932700  130.109000

 Total Charge           Charge          ....    0
 Multiplicity           Mult            ....    1
 Number of Electrons    NEL             ....  134
 Basis Dimension        Dim             ....  322

ORBITAL ENERGIES
----------------

  NO   OCC          E(Eh)            E(eV)
   0   2.0000     -88.967127     -2420.9186
   1   2.0000     -88.965137     -2420.8645
   2   2.0000     -10.330859      -281.1170
   3   2.0000     -10.325221      -280.9635
   4   2.0000     -10.320266      -280.8287
   5   2.0000     -10.314588      -280.6742
   6   2.0000     -10.305564      -280.4286
   7   2.0000     -10.300942      -280.3029
   8   2.0000     -10.298488      -280.2361
   9   2.0000     -10.296284      -280.1761
  10   2.0000     -10.296228      -280.1746
  11   2.0000     -10.287929      -279.9488
  12   2.0000     -10.287558      -279.9387
  13   2.0000     -10.282540      -279.8021
  14   2.0000     -10.281058      -279.7618
  15   2.0000     -10.279886      -279.7299
  16   2.0000      -8.081805      -219.9171
  17   2.0000      -8.080191      -219.8732
  18   2.0000      -6.040448      -164.3689
  19   2.0000      -6.038681      -164.3209
  20   2.0000      -6.036232      -164.2542
  21   2.0000      -6.034625      -164.2105
  22   2.0000      -6.032466      -164.1517
  23   2.0000      -6.030979      -164.1113
  24   2.0000      -1.009781       -27.4775
  25   2.0000      -0.986184       -26.8354
  26   2.0000      -0.914709       -24.8905
  27   2.0000      -0.908121       -24.7112
  28   2.0000      -0.872114       -23.7314
  29   2.0000      -0.854018       -23.2390
  30   2.0000      -0.843639       -22.9566
  31   2.0000      -0.816945       -22.2302
  32   2.0000      -0.779183       -21.2026
  33   2.0000      -0.771062       -20.9817
  34   2.0000      -0.711635       -19.3646
  35   2.0000      -0.704507       -19.1706
  36   2.0000      -0.694067       -18.8865
  37   2.0000      -0.655813       -17.8456
  38   2.0000      -0.638858       -17.3842
  39   2.0000      -0.623035       -16.9537
  40   2.0000      -0.595907       -16.2154
  41   2.0000      -0.572203       -15.5704
  42   2.0000      -0.569567       -15.4987
  43   2.0000      -0.562188       -15.2979
  44   2.0000      -0.534372       -14.5410
  45   2.0000      -0.528752       -14.3881
  46   2.0000      -0.516386       -14.0516
  47   2.0000      -0.513414       -13.9707
  48   2.0000      -0.506490       -13.7823
  49   2.0000      -0.499021       -13.5791
  50   2.0000      -0.488745       -13.2994
  51   2.0000      -0.479548       -13.0492
  52   2.0000      -0.472206       -12.8494
  53   2.0000      -0.463255       -12.6058
  54   2.0000      -0.460955       -12.5432
  55   2.0000      -0.453253       -12.3336
  56   2.0000      -0.444436       -12.0937
  57   2.0000      -0.438471       -11.9314
  58   2.0000      -0.431040       -11.7292
  59   2.0000      -0.428281       -11.6541
  60   2.0000      -0.421816       -11.4782
  61   2.0000      -0.420383       -11.4392
  62   2.0000      -0.402396       -10.9498
  63   2.0000      -0.357756        -9.7350
  64   2.0000      -0.333957        -9.0874
  65   2.0000      -0.324662        -8.8345
  66   2.0000      -0.288676        -7.8553
  67   0.0000       0.023923         0.6510
  68   0.0000       0.079926         2.1749
  69   0.0000       0.108651         2.9566
  70   0.0000       0.125837         3.4242
  71   0.0000       0.134931         3.6717

MULLIKEN ATOMIC CHARGES
-----------------------
   0 S :    0.102974
   1 C :   -0.119568
   2 C :   -0.112555
   3 C :   -0.022818
   4 C :   -0.145462
   5 H :    0.041275
   6 C :    0.086779
   7 H :    0.034408
   8 H :    0.010699
   9 C :   -0.044981
  10 H :    0.023832
  11 H :    0.022698
  12 C :   -0.071845
  13 H :    0.030889
  14 H :    0.051351
  15 H :    0.030184
  16 S :    0.106593
  17 C :   -0.082064
  18 C :   -0.042408
  19 C :   -0.072019
  20 C :   -0.105337
  21 H :    0.028717
  22 C :    0.019556
  23 H :    0.048615
  24 H :    0.028390
  25 C :   -0.056271
  26 H :    0.027718
  27 H :    0.031788
  28 C :   -0.052730
  29 H :    0.026987
  30 H :    0.029537
  31 H :    0.035366
  32 H :    0.052869
  33 H :    0.056831
Sum of atomic charges:    0.0000000

LOEWDIN ATOMIC CHARGES
----------------------
   0 S :    0.405257
   1 C :   -0.213168
   2 C :   -0.071309
   3 C :   -0.074719
   4 C :   -0.183701
   5 H :    0.043826
   6 C :   -0.020648
   7 H :    0.025852
   8 H :    0.029611
   9 C :   -0.034232
  10 H :    0.023889
  11 H :    0.014891
  12 C :   -0.070461
  13 H :    0.019594
  14 H :    0.035496
  15 H :    0.029788
  16 S :    0.417940
  17 C :   -0.181080
  18 C :   -0.070963
  19 C :   -0.061526
  20 C :   -0.213214
  21 H :    0.033686
  22 C :   -0.039022
  23 H :    0.043522
  24 H :    0.022419
  25 C :   -0.038167
  26 H :    0.015456
  27 H :    0.028421
  28 C :   -0.061097
  29 H :    0.028383
  30 H :    0.014452
  31 H :    0.033229
  32 H :    0.034012
  33 H :    0.033584

  Mayer bond orders larger than 0.100000
B(  0-S ,  1-C ) :   1.1447 B(  0-S ,  4-C ) :   1.1478 B(  1-C ,  2-C ) :   1.5994
B(  1-C , 32-H ) :   0.9674 B(  2-C ,  3-C ) :   1.2546 B(  2-C ,  6-C ) :   1.0042
B(  3-C ,  4-C ) :   1.5899 B(  3-C ,  5-H ) :   0.9665 B(  4-C , 20-C ) :   1.0268
B(  6-C ,  7-H ) :   0.9354 B(  6-C ,  8-H ) :   0.9446 B(  6-C ,  9-C ) :   1.0733
B(  9-C , 10-H ) :   0.9519 B(  9-C , 11-H ) :   0.9567 B(  9-C , 12-C ) :   1.0758
B( 12-C , 13-H ) :   0.9726 B( 12-C , 14-H ) :   0.9740 B( 12-C , 15-H ) :   0.9776
B( 16-S , 17-C ) :   1.1428 B( 16-S , 20-C ) :   1.1522 B( 17-C , 18-C ) :   1.5986
B( 17-C , 33-H ) :   0.9643 B( 18-C , 19-C ) :   1.2834 B( 18-C , 21-H ) :   0.9748
B( 19-C , 20-C ) :   1.5894 B( 19-C , 22-C ) :   1.0159 B( 22-C , 23-H ) :   0.9410
B( 22-C , 24-H ) :   0.9294 B( 22-C , 25-C ) :   1.0748 B( 25-C , 26-H ) :   0.9476
B( 25-C , 27-H ) :   0.9550 B( 25-C , 28-C ) :   1.0916 B( 28-C , 29-H ) :   0.9729
B( 28-C , 30-H ) :   0.9767 B( 28-C , 31-H ) :   0.9732

Dispersion correction           -0.013757468
FINAL SINGLE POINT ENERGY     -1339.867152968430

DIPOLE MOMENT
-------------
                                X             Y             Z
Electronic contribution:    -16.91647      16.30137      15.36210
Nuclear contribution   :     17.43999     -16.62147     -15.77363
                        -----------------------------------------
Total Dipole Moment    :      0.52352      -0.32010      -0.41153
                        -----------------------------------------
Magnitude (a.u.)       :      0.73885
Magnitude (Debye)      :      1.87800

Rotational constants in cm-1:     0.015824     0.009274     0.006931
Rotational constants in MHz :   474.400677   278.027246   207.800459

                             ****ORCA TERMINATED NORMALLY****
TOTAL RUN TIME: 0 days 0 hours 0 minutes 34 seconds 12 msec
