                         Program Version 4.2.1 -  RELEASE  -
|  1> ! wB97X-D3 SP def2-SVP
|  2> %pal
|  3> nprocs 16
|  4> end
|  5>
|  6> * xyz 0 1
|  7> S 	 4.63507 	 -26.4752 	 78.7385
|  8> C 	 4.07177 	 -27.9604 	 79.454
|  9> C 	 4.94112 	 -28.3882 	 80.404
| 10> C 	 5.92862 	 -27.3881 	 80.6734
| 11> C 	 5.88098 	 -26.2987 	 79.9276
| 12> H 	 6.772 	 -27.518 	 81.3768
| 13> C 	 4.90543 	 -29.7331 	 80.9567
| 14> H 	 5.79308 	 -30.2976 	 80.6908
| 15> H 	 4.01565 	 -30.2013 	 80.4426
| 16> C 	 4.79443 	 -29.8472 	 82.4996
| 17> H 	 4.60196 	 -30.9271 	 82.6592
| 18> H 	 5.70832 	 -29.6505 	 83.0415
| 19> C 	 3.60465 	 -28.9436 	 83.0376
| 20> H 	 2.92347 	 -28.8274 	 82.1815
| 21> H 	 3.00806 	 -29.4361 	 83.8022
| 22> H 	 4.00392 	 -28.0151 	 83.3896
| 23> S 	 5.95801 	 -23.6669 	 79.861
| 24> C 	 7.40872 	 -22.7467 	 80.1282
| 25> C 	 8.48096 	 -23.5916 	 80.3031
| 26> C 	 8.08466 	 -25.005 	 80.2666
| 27> C 	 6.77321 	 -25.1936 	 79.9236
| 28> H 	 9.43014 	 -23.1966 	 80.6538
| 29> C 	 9.12795 	 -26.1044 	 80.5008
| 30> H 	 8.70022 	 -26.9874 	 80.8763
| 31> H 	 9.86767 	 -25.7711 	 81.2466
| 32> C 	 9.92054 	 -26.5111 	 79.2277
| 33> H 	 9.83004 	 -25.7129 	 78.5313
| 34> H 	 9.4283 	 -27.3624 	 78.7338
| 35> C 	 11.4019 	 -26.8101 	 79.3431
| 36> H 	 11.8139 	 -27.5137 	 78.5291
| 37> H 	 11.743 	 -27.2335 	 80.2796
| 38> H 	 11.7559 	 -25.8478 	 79.2627
| 39> H 	 3.20087 	 -28.6017 	 79.114
| 40> H 	 7.50577 	 -21.6665 	 80.0569
| 41> *
| 42>
| 43>                          ****END OF INPUT****

CARTESIAN COORDINATES (ANGSTROEM)
---------------------------------
  S      4.635070  -26.475200   78.738500
  C      4.071770  -27.960400   79.454000
  C      4.941120  -28.388200   80.404000
  C      5.928620  -27.388100   80.673400
  C      5.880980  -26.298700   79.927600
  H      6.772000  -27.518000   81.376800
  C      4.905430  -29.733100   80.956700
  H      5.793080  -30.297600   80.690800
  H      4.015650  -30.201300   80.442600
  C      4.794430  -29.847200   82.499600
  H      4.601960  -30.927100   82.659200
  H      5.708320  -29.650500   83.041500
  C      3.604650  -28.943600   83.037600
  H      2.923470  -28.827400   82.181500
  H      3.008060  -29.436100   83.802200
  H      4.003920  -28.015100   83.389600
  S      5.958010  -23.666900   79.861000
  C      7.408720  -22.746700   80.128200
  C      8.480960  -23.591600   80.303100
  C      8.084660  -25.005000   80.266600
  C      6.773210  -25.193600   79.923600
  H      9.430140  -23.196600   80.653800
  C      9.127950  -26.104400   80.500800
  H      8.700220  -26.987400   80.876300
  H      9.867670  -25.771100   81.246600
  C      9.920540  -26.511100   79.227700
  H      9.830040  -25.712900   78.531300
  H      9.428300  -27.362400   78.733800
  C     11.401900  -26.810100   79.343100
  H     11.813900  -27.513700   78.529100
  H     11.743000  -27.233500   80.279600
  H     11.755900  -25.847800   79.262700
  H      3.200870  -28.601700   79.114000
  H      7.505770  -21.666500   80.056900

 Total Charge           Charge          ....    0
 Multiplicity           Mult            ....    1
 Number of Electrons    NEL             ....  134
 Basis Dimension        Dim             ....  322

ORBITAL ENERGIES
----------------

  NO   OCC          E(Eh)            E(eV)
   0   2.0000     -88.962096     -2420.7817
   1   2.0000     -88.961735     -2420.7719
   2   2.0000     -10.322996      -280.9030
   3   2.0000     -10.320538      -280.8361
   4   2.0000     -10.319136      -280.7980
   5   2.0000     -10.314132      -280.6618
   6   2.0000     -10.309086      -280.5245
   7   2.0000     -10.298700      -280.2419
   8   2.0000     -10.292742      -280.0797
   9   2.0000     -10.292372      -280.0697
  10   2.0000     -10.292046      -280.0608
  11   2.0000     -10.289788      -279.9994
  12   2.0000     -10.287207      -279.9291
  13   2.0000     -10.278845      -279.7016
  14   2.0000     -10.275330      -279.6059
  15   2.0000     -10.274877      -279.5936
  16   2.0000      -8.077792      -219.8079
  17   2.0000      -8.077341      -219.7956
  18   2.0000      -6.036406      -164.2590
  19   2.0000      -6.035887      -164.2448
  20   2.0000      -6.032043      -164.1402
  21   2.0000      -6.031854      -164.1351
  22   2.0000      -6.028457      -164.0426
  23   2.0000      -6.027854      -164.0262
  24   2.0000      -1.019569       -27.7439
  25   2.0000      -0.991494       -26.9799
  26   2.0000      -0.916378       -24.9359
  27   2.0000      -0.908857       -24.7312
  28   2.0000      -0.875851       -23.8331
  29   2.0000      -0.852698       -23.2031
  30   2.0000      -0.839952       -22.8563
  31   2.0000      -0.822473       -22.3806
  32   2.0000      -0.783609       -21.3231
  33   2.0000      -0.774734       -21.0816
  34   2.0000      -0.715004       -19.4563
  35   2.0000      -0.695577       -18.9276
  36   2.0000      -0.692018       -18.8308
  37   2.0000      -0.666708       -18.1420
  38   2.0000      -0.638073       -17.3628
  39   2.0000      -0.624817       -17.0021
  40   2.0000      -0.599313       -16.3081
  41   2.0000      -0.567721       -15.4485
  42   2.0000      -0.563796       -15.3417
  43   2.0000      -0.556503       -15.1432
  44   2.0000      -0.538999       -14.6669
  45   2.0000      -0.526750       -14.3336
  46   2.0000      -0.520314       -14.1585
  47   2.0000      -0.516423       -14.0526
  48   2.0000      -0.509899       -13.8751
  49   2.0000      -0.499766       -13.5993
  50   2.0000      -0.493036       -13.4162
  51   2.0000      -0.483774       -13.1642
  52   2.0000      -0.469786       -12.7835
  53   2.0000      -0.463661       -12.6169
  54   2.0000      -0.463198       -12.6043
  55   2.0000      -0.451153       -12.2765
  56   2.0000      -0.439304       -11.9541
  57   2.0000      -0.434073       -11.8117
  58   2.0000      -0.427604       -11.6357
  59   2.0000      -0.425597       -11.5811
  60   2.0000      -0.419350       -11.4111
  61   2.0000      -0.416240       -11.3265
  62   2.0000      -0.408525       -11.1165
  63   2.0000      -0.356990        -9.7142
  64   2.0000      -0.328218        -8.9313
  65   2.0000      -0.326455        -8.8833
  66   2.0000      -0.297638        -8.0991
  67   0.0000       0.031898         0.8680
  68   0.0000       0.079840         2.1725
  69   0.0000       0.107343         2.9210
  70   0.0000       0.113562         3.0902
  71   0.0000       0.136762         3.7215

MULLIKEN ATOMIC CHARGES
-----------------------
   0 S :    0.104542
   1 C :   -0.142104
   2 C :   -0.084939
   3 C :   -0.015654
   4 C :   -0.095244
   5 H :    0.012539
   6 C :    0.047894
   7 H :    0.039238
   8 H :    0.021330
   9 C :   -0.098668
  10 H :    0.032821
  11 H :    0.032783
  12 C :   -0.036901
  13 H :    0.025732
  14 H :    0.034273
  15 H :    0.042788
  16 S :    0.094779
  17 C :   -0.082904
  18 C :   -0.036841
  19 C :   -0.087894
  20 C :   -0.107347
  21 H :    0.024807
  22 C :    0.094362
  23 H :    0.003238
  24 H :    0.020317
  25 C :   -0.068391
  26 H :    0.021047
  27 H :    0.029466
  28 C :   -0.055582
  29 H :    0.049309
  30 H :    0.027537
  31 H :    0.021022
  32 H :    0.068661
  33 H :    0.063983
Sum of atomic charges:   -0.0000000

LOEWDIN ATOMIC CHARGES
----------------------
   0 S :    0.404547
   1 C :   -0.205220
   2 C :   -0.072429
   3 C :   -0.067616
   4 C :   -0.199471
   5 H :    0.032563
   6 C :   -0.036536
   7 H :    0.034902
   8 H :    0.035135
   9 C :   -0.041989
  10 H :    0.027137
  11 H :    0.019000
  12 C :   -0.062578
  13 H :    0.026640
  14 H :    0.025281
  15 H :    0.025991
  16 S :    0.418678
  17 C :   -0.185144
  18 C :   -0.073317
  19 C :   -0.051678
  20 C :   -0.200848
  21 H :    0.032182
  22 C :   -0.025151
  23 H :    0.018649
  24 H :    0.031560
  25 C :   -0.039971
  26 H :    0.018778
  27 H :    0.023924
  28 C :   -0.066836
  29 H :    0.040195
  30 H :    0.019849
  31 H :    0.016850
  32 H :    0.043089
  33 H :    0.033837

  Mayer bond orders larger than 0.100000
B(  0-S ,  1-C ) :   1.1228 B(  0-S ,  4-C ) :   1.1333 B(  1-C ,  2-C ) :   1.6347
B(  1-C , 32-H ) :   0.9528 B(  2-C ,  3-C ) :   1.2048 B(  2-C ,  6-C ) :   1.0465
B(  3-C ,  4-C ) :   1.6332 B(  3-C ,  5-H ) :   0.9929 B(  4-C , 20-C ) :   1.0252
B(  6-C ,  7-H ) :   0.9309 B(  6-C ,  8-H ) :   0.9379 B(  6-C ,  9-C ) :   1.0715
B(  9-C , 10-H ) :   0.9602 B(  9-C , 11-H ) :   0.9600 B(  9-C , 12-C ) :   1.0597
B( 12-C , 13-H ) :   0.9796 B( 12-C , 14-H ) :   0.9778 B( 12-C , 15-H ) :   0.9754
B( 16-S , 17-C ) :   1.1576 B( 16-S , 20-C ) :   1.1351 B( 17-C , 18-C ) :   1.6235
B( 17-C , 33-H ) :   0.9660 B( 18-C , 19-C ) :   1.2151 B( 18-C , 21-H ) :   0.9878
B( 19-C , 20-C ) :   1.6205 B( 19-C , 22-C ) :   1.0590 B( 22-C , 23-H ) :   0.9333
B( 22-C , 24-H ) :   0.9388 B( 22-C , 25-C ) :   1.0439 B( 25-C , 26-H ) :   0.9708
B( 25-C , 27-H ) :   0.9587 B( 25-C , 28-C ) :   1.0601 B( 28-C , 29-H ) :   0.9739
B( 28-C , 30-H ) :   0.9788 B( 28-C , 31-H ) :   0.9836

Dispersion correction           -0.014186430
FINAL SINGLE POINT ENERGY     -1339.866714742336

DIPOLE MOMENT
-------------
                                X             Y             Z
Electronic contribution:    -12.67631      18.45785     -10.31149
Nuclear contribution   :     13.16918     -18.86228      10.63529
                        -----------------------------------------
Total Dipole Moment    :      0.49286      -0.40442       0.32379
                        -----------------------------------------
Magnitude (a.u.)       :      0.71506
Magnitude (Debye)      :      1.81755

Rotational constants in cm-1:     0.017854     0.008849     0.007114
Rotational constants in MHz :   535.235853   265.282433   213.263432

                             ****ORCA TERMINATED NORMALLY****
TOTAL RUN TIME: 0 days 0 hours 0 minutes 34 seconds 189 msec
