                         Program Version 4.2.1 -  RELEASE  -
|  1> ! wB97X-D3 SP def2-SVP
|  2> %pal
|  3> nprocs 16
|  4> end
|  5>
|  6> * xyz 0 1
|  7> S 	 -42.9756 	 25.7128 	 78.8426
|  8> C 	 -43.8863 	 27.0364 	 79.55
|  9> C 	 -44.2241 	 26.7507 	 80.8847
| 10> C 	 -44.1044 	 25.3571 	 81.1733
| 11> C 	 -43.5328 	 24.6352 	 80.1362
| 12> H 	 -44.5842 	 24.8583 	 81.9786
| 13> C 	 -45.0238 	 27.7216 	 81.6626
| 14> H 	 -44.7651 	 28.6703 	 81.2505
| 15> H 	 -44.716 	 27.8245 	 82.72
| 16> C 	 -46.4994 	 27.4123 	 81.5858
| 17> H 	 -46.9407 	 27.5509 	 80.559
| 18> H 	 -46.6094 	 26.3525 	 81.6924
| 19> C 	 -47.4117 	 28.068 	 82.6558
| 20> H 	 -47.0411 	 27.897 	 83.6983
| 21> H 	 -47.5837 	 29.0776 	 82.6071
| 22> H 	 -48.4431 	 27.641 	 82.5552
| 23> S 	 -43.4639 	 22.4148 	 78.4722
| 24> C 	 -43.1544 	 20.8085 	 79.157
| 25> C 	 -43.0778 	 20.8657 	 80.5776
| 26> C 	 -43.1971 	 22.1798 	 81.1495
| 27> C 	 -43.3117 	 23.157 	 80.1432
| 28> H 	 -43.0489 	 19.9542 	 81.1604
| 29> C 	 -43.0842 	 22.2875 	 82.6624
| 30> H 	 -43.2114 	 21.2628 	 83.0751
| 31> H 	 -43.8908 	 22.9101 	 83.0583
| 32> C 	 -41.7981 	 23.025 	 83.162
| 33> H 	 -42.0313 	 24.0836 	 83.4031
| 34> H 	 -40.9748 	 23.0719 	 82.4452
| 35> C 	 -41.3124 	 22.2665 	 84.4102
| 36> H 	 -42.0776 	 22.1306 	 85.1043
| 37> H 	 -40.4169 	 22.8119 	 84.7065
| 38> H 	 -40.9673 	 21.292 	 84.099
| 39> H 	 -44.1993 	 27.9449 	 79.1791
| 40> H 	 -43.1226 	 19.8864 	 78.6941
| 41> *
| 42>
| 43>                          ****END OF INPUT****

CARTESIAN COORDINATES (ANGSTROEM)
---------------------------------
  S    -42.975600   25.712800   78.842600
  C    -43.886300   27.036400   79.550000
  C    -44.224100   26.750700   80.884700
  C    -44.104400   25.357100   81.173300
  C    -43.532800   24.635200   80.136200
  H    -44.584200   24.858300   81.978600
  C    -45.023800   27.721600   81.662600
  H    -44.765100   28.670300   81.250500
  H    -44.716000   27.824500   82.720000
  C    -46.499400   27.412300   81.585800
  H    -46.940700   27.550900   80.559000
  H    -46.609400   26.352500   81.692400
  C    -47.411700   28.068000   82.655800
  H    -47.041100   27.897000   83.698300
  H    -47.583700   29.077600   82.607100
  H    -48.443100   27.641000   82.555200
  S    -43.463900   22.414800   78.472200
  C    -43.154400   20.808500   79.157000
  C    -43.077800   20.865700   80.577600
  C    -43.197100   22.179800   81.149500
  C    -43.311700   23.157000   80.143200
  H    -43.048900   19.954200   81.160400
  C    -43.084200   22.287500   82.662400
  H    -43.211400   21.262800   83.075100
  H    -43.890800   22.910100   83.058300
  C    -41.798100   23.025000   83.162000
  H    -42.031300   24.083600   83.403100
  H    -40.974800   23.071900   82.445200
  C    -41.312400   22.266500   84.410200
  H    -42.077600   22.130600   85.104300
  H    -40.416900   22.811900   84.706500
  H    -40.967300   21.292000   84.099000
  H    -44.199300   27.944900   79.179100
  H    -43.122600   19.886400   78.694100

 Total Charge           Charge          ....    0
 Multiplicity           Mult            ....    1
 Number of Electrons    NEL             ....  134
 Basis Dimension        Dim             ....  322

ORBITAL ENERGIES
----------------

  NO   OCC          E(Eh)            E(eV)
   0   2.0000     -88.970321     -2421.0055
   1   2.0000     -88.969726     -2420.9893
   2   2.0000     -10.338939      -281.3368
   3   2.0000     -10.334817      -281.2247
   4   2.0000     -10.318999      -280.7942
   5   2.0000     -10.311282      -280.5842
   6   2.0000     -10.309083      -280.5244
   7   2.0000     -10.300066      -280.2790
   8   2.0000     -10.299141      -280.2539
   9   2.0000     -10.297739      -280.2157
  10   2.0000     -10.292136      -280.0633
  11   2.0000     -10.288380      -279.9611
  12   2.0000     -10.288371      -279.9608
  13   2.0000     -10.287125      -279.9269
  14   2.0000     -10.278976      -279.7052
  15   2.0000     -10.272437      -279.5272
  16   2.0000      -8.084012      -219.9772
  17   2.0000      -8.082361      -219.9322
  18   2.0000      -6.042681      -164.4297
  19   2.0000      -6.041022      -164.3846
  20   2.0000      -6.038795      -164.3240
  21   2.0000      -6.037202      -164.2806
  22   2.0000      -6.034539      -164.2081
  23   2.0000      -6.033049      -164.1676
  24   2.0000      -0.997818       -27.1520
  25   2.0000      -0.973686       -26.4953
  26   2.0000      -0.915608       -24.9150
  27   2.0000      -0.907398       -24.6916
  28   2.0000      -0.861283       -23.4367
  29   2.0000      -0.853276       -23.2188
  30   2.0000      -0.845007       -22.9938
  31   2.0000      -0.813460       -22.1354
  32   2.0000      -0.781202       -21.2576
  33   2.0000      -0.770671       -20.9710
  34   2.0000      -0.712008       -19.3747
  35   2.0000      -0.704754       -19.1773
  36   2.0000      -0.693066       -18.8593
  37   2.0000      -0.663796       -18.0628
  38   2.0000      -0.641612       -17.4592
  39   2.0000      -0.621753       -16.9187
  40   2.0000      -0.596508       -16.2318
  41   2.0000      -0.570314       -15.5190
  42   2.0000      -0.558135       -15.1876
  43   2.0000      -0.549868       -14.9627
  44   2.0000      -0.534542       -14.5456
  45   2.0000      -0.528521       -14.3818
  46   2.0000      -0.518672       -14.1138
  47   2.0000      -0.513462       -13.9720
  48   2.0000      -0.502364       -13.6700
  49   2.0000      -0.501209       -13.6386
  50   2.0000      -0.492057       -13.3896
  51   2.0000      -0.477246       -12.9865
  52   2.0000      -0.468111       -12.7379
  53   2.0000      -0.462435       -12.5835
  54   2.0000      -0.456866       -12.4320
  55   2.0000      -0.455609       -12.3977
  56   2.0000      -0.447968       -12.1898
  57   2.0000      -0.440245       -11.9797
  58   2.0000      -0.433676       -11.8009
  59   2.0000      -0.426232       -11.5984
  60   2.0000      -0.420147       -11.4328
  61   2.0000      -0.415254       -11.2996
  62   2.0000      -0.411760       -11.2046
  63   2.0000      -0.347772        -9.4634
  64   2.0000      -0.331198        -9.0124
  65   2.0000      -0.329319        -8.9612
  66   2.0000      -0.281418        -7.6578
  67   0.0000       0.014782         0.4022
  68   0.0000       0.073139         1.9902
  69   0.0000       0.094438         2.5698
  70   0.0000       0.107394         2.9223
  71   0.0000       0.133199         3.6245

MULLIKEN ATOMIC CHARGES
-----------------------
   0 S :    0.120800
   1 C :   -0.077205
   2 C :   -0.103813
   3 C :    0.006174
   4 C :   -0.109517
   5 H :    0.003180
   6 C :    0.089830
   7 H :    0.006867
   8 H :    0.024080
   9 C :   -0.071003
  10 H :    0.028846
  11 H :    0.018981
  12 C :   -0.039153
  13 H :    0.030549
  14 H :    0.016054
  15 H :    0.035397
  16 S :    0.092215
  17 C :   -0.049331
  18 C :   -0.064973
  19 C :   -0.036193
  20 C :   -0.150308
  21 H :    0.020056
  22 C :    0.052013
  23 H :    0.030636
  24 H :    0.033214
  25 C :   -0.082663
  26 H :    0.039307
  27 H :    0.041423
  28 C :   -0.034780
  29 H :    0.028027
  30 H :    0.033568
  31 H :    0.025194
  32 H :    0.012303
  33 H :    0.030226
Sum of atomic charges:   -0.0000000

LOEWDIN ATOMIC CHARGES
----------------------
   0 S :    0.392890
   1 C :   -0.185513
   2 C :   -0.052689
   3 C :   -0.065724
   4 C :   -0.181598
   5 H :    0.024689
   6 C :   -0.037309
   7 H :    0.024795
   8 H :    0.034114
   9 C :   -0.042023
  10 H :    0.031574
  11 H :    0.022593
  12 C :   -0.066828
  13 H :    0.027986
  14 H :    0.009668
  15 H :    0.034772
  16 S :    0.371330
  17 C :   -0.169768
  18 C :   -0.069496
  19 C :   -0.052141
  20 C :   -0.170552
  21 H :    0.028401
  22 C :   -0.031112
  23 H :    0.033641
  24 H :    0.032308
  25 C :   -0.034720
  26 H :    0.025888
  27 H :    0.025498
  28 C :   -0.054620
  29 H :    0.014504
  30 H :    0.028550
  31 H :    0.022725
  32 H :    0.012751
  33 H :    0.015415

  Mayer bond orders larger than 0.100000
B(  0-S ,  1-C ) :   1.1247 B(  0-S ,  4-C ) :   1.1363 B(  1-C ,  2-C ) :   1.6040
B(  1-C , 32-H ) :   0.9746 B(  2-C ,  3-C ) :   1.2274 B(  2-C ,  6-C ) :   1.0616
B(  3-C ,  4-C ) :   1.5867 B(  3-C ,  5-H ) :   0.9935 B(  4-C , 20-C ) :   1.0562
B(  6-C ,  7-H ) :   0.9305 B(  6-C ,  8-H ) :   0.9329 B(  6-C ,  9-C ) :   1.0535
B(  9-C , 10-H ) :   0.9492 B(  9-C , 11-H ) :   0.9588 B(  9-C , 12-C ) :   1.0762
B( 12-C , 13-H ) :   0.9740 B( 12-C , 14-H ) :   0.9784 B( 12-C , 15-H ) :   0.9729
B( 16-S , 17-C ) :   1.1462 B( 16-S , 20-C ) :   1.1210 B( 17-C , 18-C ) :   1.6107
B( 17-C , 20-C ) :   0.1059 B( 17-C , 33-H ) :   0.9745 B( 18-C , 19-C ) :   1.2479
B( 18-C , 21-H ) :   0.9807 B( 19-C , 20-C ) :   1.5795 B( 19-C , 22-C ) :   1.0493
B( 22-C , 23-H ) :   0.9441 B( 22-C , 24-H ) :   0.9266 B( 22-C , 25-C ) :   1.0325
B( 25-C , 26-H ) :   0.9562 B( 25-C , 27-H ) :   0.9670 B( 25-C , 28-C ) :   1.0795
B( 28-C , 29-H ) :   0.9777 B( 28-C , 30-H ) :   0.9735 B( 28-C , 31-H ) :   0.9777

Dispersion correction           -0.013813419
FINAL SINGLE POINT ENERGY     -1339.851302792656

DIPOLE MOMENT
-------------
                                X             Y             Z
Electronic contribution:      7.30677      -6.77569     -26.45697
Nuclear contribution   :     -7.61418       6.73182      27.14512
                        -----------------------------------------
Total Dipole Moment    :     -0.30741      -0.04387       0.68815
                        -----------------------------------------
Magnitude (a.u.)       :      0.75497
Magnitude (Debye)      :      1.91898

Rotational constants in cm-1:     0.016775     0.008527     0.006702
Rotational constants in MHz :   502.891058   255.643586   200.926949

                             ****ORCA TERMINATED NORMALLY****
TOTAL RUN TIME: 0 days 0 hours 0 minutes 28 seconds 723 msec
