                         Program Version 4.2.1 -  RELEASE  -
|  1> ! wB97X-D3 SP def2-SVP
|  2> %pal
|  3> nprocs 16
|  4> end
|  5>
|  6> * xyz 0 1
|  7> S 	 -25.1344 	 -9.30123 	 90.0911
|  8> C 	 -25.1547 	 -11.0527 	 89.933
|  9> C 	 -23.9843 	 -11.5135 	 89.3507
| 10> C 	 -23.2015 	 -10.4228 	 88.9265
| 11> C 	 -23.6572 	 -9.15337 	 89.0915
| 12> H 	 -22.16 	 -10.4709 	 88.6504
| 13> C 	 -23.4829 	 -12.9256 	 89.3826
| 14> H 	 -22.5319 	 -13.044 	 89.9714
| 15> H 	 -23.1054 	 -13.2322 	 88.3979
| 16> C 	 -24.5761 	 -13.9689 	 89.8217
| 17> H 	 -25.5845 	 -13.607 	 89.6601
| 18> H 	 -24.497 	 -14.7691 	 89.0953
| 19> C 	 -24.483 	 -14.4662 	 91.2477
| 20> H 	 -24.0001 	 -15.3918 	 91.308
| 21> H 	 -24.0405 	 -13.7153 	 91.9375
| 22> H 	 -25.4884 	 -14.7493 	 91.7416
| 23> S 	 -22.5989 	 -7.14104 	 90.5805
| 24> C 	 -21.6488 	 -5.77137 	 89.8325
| 25> C 	 -21.6821 	 -5.95076 	 88.4399
| 26> C 	 -22.3127 	 -7.15084 	 88.0074
| 27> C 	 -22.9408 	 -7.86068 	 89.0548
| 28> H 	 -21.1734 	 -5.20351 	 87.8235
| 29> C 	 -22.4365 	 -7.5812 	 86.6127
| 30> H 	 -22.2123 	 -8.67671 	 86.6924
| 31> H 	 -21.5134 	 -7.24935 	 86.1417
| 32> C 	 -23.6885 	 -7.2196 	 85.8087
| 33> H 	 -23.8177 	 -6.15696 	 86.0261
| 34> H 	 -24.5488 	 -7.75856 	 86.1745
| 35> C 	 -23.455 	 -7.50915 	 84.3328
| 36> H 	 -22.5477 	 -7.11885 	 83.8475
| 37> H 	 -24.177 	 -7.1011 	 83.7316
| 38> H 	 -23.6499 	 -8.61141 	 84.0981
| 39> H 	 -25.9535 	 -11.6419 	 90.2487
| 40> H 	 -21.1846 	 -4.98552 	 90.3573
| 41> *
| 42>
| 43>                          ****END OF INPUT****

CARTESIAN COORDINATES (ANGSTROEM)
---------------------------------
  S    -25.134400   -9.301230   90.091100
  C    -25.154700  -11.052700   89.933000
  C    -23.984300  -11.513500   89.350700
  C    -23.201500  -10.422800   88.926500
  C    -23.657200   -9.153370   89.091500
  H    -22.160000  -10.470900   88.650400
  C    -23.482900  -12.925600   89.382600
  H    -22.531900  -13.044000   89.971400
  H    -23.105400  -13.232200   88.397900
  C    -24.576100  -13.968900   89.821700
  H    -25.584500  -13.607000   89.660100
  H    -24.497000  -14.769100   89.095300
  C    -24.483000  -14.466200   91.247700
  H    -24.000100  -15.391800   91.308000
  H    -24.040500  -13.715300   91.937500
  H    -25.488400  -14.749300   91.741600
  S    -22.598900   -7.141040   90.580500
  C    -21.648800   -5.771370   89.832500
  C    -21.682100   -5.950760   88.439900
  C    -22.312700   -7.150840   88.007400
  C    -22.940800   -7.860680   89.054800
  H    -21.173400   -5.203510   87.823500
  C    -22.436500   -7.581200   86.612700
  H    -22.212300   -8.676710   86.692400
  H    -21.513400   -7.249350   86.141700
  C    -23.688500   -7.219600   85.808700
  H    -23.817700   -6.156960   86.026100
  H    -24.548800   -7.758560   86.174500
  C    -23.455000   -7.509150   84.332800
  H    -22.547700   -7.118850   83.847500
  H    -24.177000   -7.101100   83.731600
  H    -23.649900   -8.611410   84.098100
  H    -25.953500  -11.641900   90.248700
  H    -21.184600   -4.985520   90.357300

 Total Charge           Charge          ....    0
 Multiplicity           Mult            ....    1
 Number of Electrons    NEL             ....  134
 Basis Dimension        Dim             ....  322

ORBITAL ENERGIES
----------------

  NO   OCC          E(Eh)            E(eV)
   0   2.0000     -88.965508     -2420.8745
   1   2.0000     -88.962697     -2420.7981
   2   2.0000     -10.332172      -281.1527
   3   2.0000     -10.328348      -281.0486
   4   2.0000     -10.322044      -280.8771
   5   2.0000     -10.314475      -280.6711
   6   2.0000     -10.302266      -280.3389
   7   2.0000     -10.301028      -280.3052
   8   2.0000     -10.300179      -280.2821
   9   2.0000     -10.299478      -280.2630
  10   2.0000     -10.290638      -280.0225
  11   2.0000     -10.288529      -279.9651
  12   2.0000     -10.285182      -279.8740
  13   2.0000     -10.282912      -279.8123
  14   2.0000     -10.281040      -279.7613
  15   2.0000     -10.274529      -279.5841
  16   2.0000      -8.079309      -219.8492
  17   2.0000      -8.076953      -219.7851
  18   2.0000      -6.037868      -164.2987
  19   2.0000      -6.035518      -164.2348
  20   2.0000      -6.033741      -164.1865
  21   2.0000      -6.031586      -164.1278
  22   2.0000      -6.030258      -164.0917
  23   2.0000      -6.027604      -164.0194
  24   2.0000      -1.005153       -27.3516
  25   2.0000      -0.981054       -26.6958
  26   2.0000      -0.911194       -24.7948
  27   2.0000      -0.907994       -24.7078
  28   2.0000      -0.868174       -23.6242
  29   2.0000      -0.851284       -23.1646
  30   2.0000      -0.847387       -23.0586
  31   2.0000      -0.818661       -22.2769
  32   2.0000      -0.780972       -21.2513
  33   2.0000      -0.768039       -20.8994
  34   2.0000      -0.714043       -19.4301
  35   2.0000      -0.707383       -19.2489
  36   2.0000      -0.694824       -18.9071
  37   2.0000      -0.663242       -18.0477
  38   2.0000      -0.648546       -17.6478
  39   2.0000      -0.613144       -16.6845
  40   2.0000      -0.590713       -16.0741
  41   2.0000      -0.579589       -15.7714
  42   2.0000      -0.564481       -15.3603
  43   2.0000      -0.554386       -15.0856
  44   2.0000      -0.528998       -14.3948
  45   2.0000      -0.525153       -14.2901
  46   2.0000      -0.521919       -14.2021
  47   2.0000      -0.515973       -14.0404
  48   2.0000      -0.503175       -13.6921
  49   2.0000      -0.500325       -13.6145
  50   2.0000      -0.497854       -13.5473
  51   2.0000      -0.473411       -12.8822
  52   2.0000      -0.472139       -12.8476
  53   2.0000      -0.465126       -12.6567
  54   2.0000      -0.453664       -12.3448
  55   2.0000      -0.447357       -12.1732
  56   2.0000      -0.437422       -11.9029
  57   2.0000      -0.432559       -11.7705
  58   2.0000      -0.429222       -11.6797
  59   2.0000      -0.422799       -11.5049
  60   2.0000      -0.419492       -11.4150
  61   2.0000      -0.417498       -11.3607
  62   2.0000      -0.410159       -11.1610
  63   2.0000      -0.349423        -9.5083
  64   2.0000      -0.328379        -8.9356
  65   2.0000      -0.323919        -8.8143
  66   2.0000      -0.292262        -7.9529
  67   0.0000       0.029691         0.8079
  68   0.0000       0.056830         1.5464
  69   0.0000       0.106694         2.9033
  70   0.0000       0.125975         3.4279
  71   0.0000       0.128206         3.4887

MULLIKEN ATOMIC CHARGES
-----------------------
   0 S :    0.084937
   1 C :   -0.104270
   2 C :   -0.058933
   3 C :    0.041711
   4 C :   -0.156254
   5 H :    0.013919
   6 C :    0.044758
   7 H :    0.048886
   8 H :    0.025627
   9 C :   -0.066178
  10 H :    0.022465
  11 H :    0.024321
  12 C :   -0.065615
  13 H :    0.025262
  14 H :    0.049420
  15 H :    0.032378
  16 S :    0.100407
  17 C :   -0.098407
  18 C :   -0.029374
  19 C :   -0.068684
  20 C :   -0.142870
  21 H :    0.026638
  22 C :    0.057051
  23 H :    0.018428
  24 H :    0.003829
  25 C :   -0.007965
  26 H :    0.026254
  27 H :    0.036372
  28 C :   -0.034399
  29 H :    0.032899
  30 H :    0.002210
  31 H :    0.038004
  32 H :    0.030069
  33 H :    0.047103
Sum of atomic charges:   -0.0000000

LOEWDIN ATOMIC CHARGES
----------------------
   0 S :    0.382723
   1 C :   -0.175716
   2 C :   -0.068906
   3 C :   -0.060083
   4 C :   -0.183955
   5 H :    0.030721
   6 C :   -0.031575
   7 H :    0.041989
   8 H :    0.031632
   9 C :   -0.042611
  10 H :    0.023215
  11 H :    0.026233
  12 C :   -0.074330
  13 H :    0.017471
  14 H :    0.031901
  15 H :    0.034698
  16 S :    0.397867
  17 C :   -0.164554
  18 C :   -0.066905
  19 C :   -0.067451
  20 C :   -0.207702
  21 H :    0.035341
  22 C :   -0.045684
  23 H :    0.035592
  24 H :    0.027438
  25 C :   -0.029175
  26 H :    0.026566
  27 H :    0.030329
  28 C :   -0.070309
  29 H :    0.028513
  30 H :    0.013134
  31 H :    0.038154
  32 H :    0.013976
  33 H :    0.021462

  Mayer bond orders larger than 0.100000
B(  0-S ,  1-C ) :   1.1474 B(  0-S ,  4-C ) :   1.1276 B(  1-C ,  2-C ) :   1.5936
B(  1-C , 32-H ) :   0.9713 B(  2-C ,  3-C ) :   1.2514 B(  2-C ,  6-C ) :   1.0241
B(  3-C ,  4-C ) :   1.6052 B(  3-C ,  5-H ) :   0.9831 B(  4-C , 20-C ) :   1.0131
B(  6-C ,  7-H ) :   0.9443 B(  6-C ,  8-H ) :   0.9389 B(  6-C ,  9-C ) :   1.0540
B(  9-C , 10-H ) :   0.9646 B(  9-C , 11-H ) :   0.9597 B(  9-C , 12-C ) :   1.0664
B( 12-C , 13-H ) :   0.9768 B( 12-C , 14-H ) :   0.9780 B( 12-C , 15-H ) :   0.9763
B( 16-S , 17-C ) :   1.1454 B( 16-S , 20-C ) :   1.1641 B( 17-C , 18-C ) :   1.5817
B( 17-C , 20-C ) :   0.1093 B( 17-C , 33-H ) :   0.9774 B( 18-C , 19-C ) :   1.2619
B( 18-C , 21-H ) :   0.9876 B( 19-C , 20-C ) :   1.5563 B( 19-C , 22-C ) :   1.0610
B( 22-C , 23-H ) :   0.9156 B( 22-C , 24-H ) :   0.9255 B( 22-C , 25-C ) :   1.0541
B( 25-C , 26-H ) :   0.9546 B( 25-C , 27-H ) :   0.9504 B( 25-C , 28-C ) :   1.0878
B( 28-C , 29-H ) :   0.9741 B( 28-C , 30-H ) :   0.9681 B( 28-C , 31-H ) :   0.9715

Dispersion correction           -0.013737474
FINAL SINGLE POINT ENERGY     -1339.853829825871

DIPOLE MOMENT
-------------
                                X             Y             Z
Electronic contribution:     -0.13907      16.43598      14.51833
Nuclear contribution   :      0.45639     -16.81685     -14.87407
                        -----------------------------------------
Total Dipole Moment    :      0.31731      -0.38087      -0.35574
                        -----------------------------------------
Magnitude (a.u.)       :      0.61016
Magnitude (Debye)      :      1.55092

Rotational constants in cm-1:     0.020833     0.007557     0.006257
Rotational constants in MHz :   624.563784   226.542519   187.575237

                             ****ORCA TERMINATED NORMALLY****
TOTAL RUN TIME: 0 days 0 hours 0 minutes 34 seconds 538 msec
