                         Program Version 4.2.1 -  RELEASE  -
|  1> ! wB97X-D3 SP def2-SVP
|  2> %pal
|  3> nprocs 16
|  4> end
|  5>
|  6> * xyz 0 1
|  7> S 	 -44.4777 	 64.7663 	 140.927
|  8> C 	 -43.9287 	 63.3309 	 141.852
|  9> C 	 -44.7405 	 62.3203 	 141.47
| 10> C 	 -45.6797 	 62.6885 	 140.473
| 11> C 	 -45.7336 	 64.0089 	 140.032
| 12> H 	 -46.2703 	 62.0286 	 139.841
| 13> C 	 -44.6553 	 60.9022 	 141.896
| 14> H 	 -43.6246 	 60.5787 	 141.759
| 15> H 	 -45.2154 	 60.2884 	 141.288
| 16> C 	 -45.0844 	 60.6675 	 143.35
| 17> H 	 -44.5734 	 61.3481 	 144.055
| 18> H 	 -46.1747 	 60.7306 	 143.304
| 19> C 	 -44.8206 	 59.2182 	 143.873
| 20> H 	 -43.7928 	 58.7918 	 143.715
| 21> H 	 -45.1322 	 58.9757 	 144.862
| 22> H 	 -45.4436 	 58.5726 	 143.366
| 23> S 	 -48.234 	 65.0649 	 139.658
| 24> C 	 -48.772 	 65.2819 	 138.053
| 25> C 	 -47.6837 	 65.2962 	 137.176
| 26> C 	 -46.4376 	 64.9362 	 137.753
| 27> C 	 -46.6406 	 64.6285 	 139.085
| 28> H 	 -47.8634 	 65.573 	 136.094
| 29> C 	 -45.1211 	 64.7479 	 137.011
| 30> H 	 -44.2484 	 64.5362 	 137.637
| 31> H 	 -44.9225 	 65.7629 	 136.684
| 32> C 	 -45.0955 	 63.8338 	 135.79
| 33> H 	 -45.9225 	 64.0851 	 135.15
| 34> H 	 -45.28 	 62.7817 	 136.033
| 35> C 	 -43.7412 	 63.9677 	 135.163
| 36> H 	 -43.8036 	 63.3511 	 134.316
| 37> H 	 -43.0315 	 63.5862 	 135.89
| 38> H 	 -43.4793 	 64.9835 	 134.848
| 39> H 	 -42.9702 	 63.3285 	 142.389
| 40> H 	 -49.7413 	 65.3216 	 137.729
| 41> *
| 42>
| 43>                          ****END OF INPUT****

CARTESIAN COORDINATES (ANGSTROEM)
---------------------------------
  S    -44.477700   64.766300  140.927000
  C    -43.928700   63.330900  141.852000
  C    -44.740500   62.320300  141.470000
  C    -45.679700   62.688500  140.473000
  C    -45.733600   64.008900  140.032000
  H    -46.270300   62.028600  139.841000
  C    -44.655300   60.902200  141.896000
  H    -43.624600   60.578700  141.759000
  H    -45.215400   60.288400  141.288000
  C    -45.084400   60.667500  143.350000
  H    -44.573400   61.348100  144.055000
  H    -46.174700   60.730600  143.304000
  C    -44.820600   59.218200  143.873000
  H    -43.792800   58.791800  143.715000
  H    -45.132200   58.975700  144.862000
  H    -45.443600   58.572600  143.366000
  S    -48.234000   65.064900  139.658000
  C    -48.772000   65.281900  138.053000
  C    -47.683700   65.296200  137.176000
  C    -46.437600   64.936200  137.753000
  C    -46.640600   64.628500  139.085000
  H    -47.863400   65.573000  136.094000
  C    -45.121100   64.747900  137.011000
  H    -44.248400   64.536200  137.637000
  H    -44.922500   65.762900  136.684000
  C    -45.095500   63.833800  135.790000
  H    -45.922500   64.085100  135.150000
  H    -45.280000   62.781700  136.033000
  C    -43.741200   63.967700  135.163000
  H    -43.803600   63.351100  134.316000
  H    -43.031500   63.586200  135.890000
  H    -43.479300   64.983500  134.848000
  H    -42.970200   63.328500  142.389000
  H    -49.741300   65.321600  137.729000

 Total Charge           Charge          ....    0
 Multiplicity           Mult            ....    1
 Number of Electrons    NEL             ....  134
 Basis Dimension        Dim             ....  322

ORBITAL ENERGIES
----------------

  NO   OCC          E(Eh)            E(eV)
   0   2.0000     -88.966605     -2420.9044
   1   2.0000     -88.956679     -2420.6343
   2   2.0000     -10.324640      -280.9477
   3   2.0000     -10.323723      -280.9228
   4   2.0000     -10.316968      -280.7390
   5   2.0000     -10.311587      -280.5926
   6   2.0000     -10.305731      -280.4332
   7   2.0000     -10.298906      -280.2475
   8   2.0000     -10.296713      -280.1878
   9   2.0000     -10.290401      -280.0161
  10   2.0000     -10.290162      -280.0095
  11   2.0000     -10.287852      -279.9467
  12   2.0000     -10.282080      -279.7896
  13   2.0000     -10.281327      -279.7691
  14   2.0000     -10.272328      -279.5243
  15   2.0000     -10.271180      -279.4930
  16   2.0000      -8.082148      -219.9264
  17   2.0000      -8.071456      -219.6355
  18   2.0000      -6.040469      -164.3695
  19   2.0000      -6.036586      -164.2638
  20   2.0000      -6.033001      -164.1663
  21   2.0000      -6.029931      -164.0828
  22   2.0000      -6.025625      -163.9656
  23   2.0000      -6.022524      -163.8812
  24   2.0000      -1.010578       -27.4992
  25   2.0000      -0.989863       -26.9355
  26   2.0000      -0.918259       -24.9871
  27   2.0000      -0.914454       -24.8836
  28   2.0000      -0.871085       -23.7034
  29   2.0000      -0.858311       -23.3558
  30   2.0000      -0.840922       -22.8826
  31   2.0000      -0.811541       -22.0832
  32   2.0000      -0.785125       -21.3643
  33   2.0000      -0.777615       -21.1600
  34   2.0000      -0.706710       -19.2306
  35   2.0000      -0.702803       -19.1242
  36   2.0000      -0.702460       -19.1149
  37   2.0000      -0.658398       -17.9159
  38   2.0000      -0.644573       -17.5397
  39   2.0000      -0.615156       -16.7392
  40   2.0000      -0.602951       -16.4071
  41   2.0000      -0.578421       -15.7396
  42   2.0000      -0.567059       -15.4305
  43   2.0000      -0.561425       -15.2772
  44   2.0000      -0.537576       -14.6282
  45   2.0000      -0.523358       -14.2413
  46   2.0000      -0.519506       -14.1365
  47   2.0000      -0.511034       -13.9060
  48   2.0000      -0.509310       -13.8590
  49   2.0000      -0.506692       -13.7878
  50   2.0000      -0.494419       -13.4538
  51   2.0000      -0.483983       -13.1698
  52   2.0000      -0.471729       -12.8364
  53   2.0000      -0.465380       -12.6636
  54   2.0000      -0.455208       -12.3868
  55   2.0000      -0.452351       -12.3091
  56   2.0000      -0.442059       -12.0290
  57   2.0000      -0.439266       -11.9530
  58   2.0000      -0.429338       -11.6829
  59   2.0000      -0.428385       -11.6569
  60   2.0000      -0.421618       -11.4728
  61   2.0000      -0.413015       -11.2387
  62   2.0000      -0.401843       -10.9347
  63   2.0000      -0.334194        -9.0939
  64   2.0000      -0.326294        -8.8789
  65   2.0000      -0.317767        -8.6469
  66   2.0000      -0.311531        -8.4772
  67   0.0000       0.035272         0.9598
  68   0.0000       0.060450         1.6449
  69   0.0000       0.113361         3.0847
  70   0.0000       0.124334         3.3833
  71   0.0000       0.136759         3.7214

MULLIKEN ATOMIC CHARGES
-----------------------
   0 S :    0.080555
   1 C :   -0.149386
   2 C :   -0.049022
   3 C :    0.021617
   4 C :   -0.176513
   5 H :    0.007488
   6 C :    0.116744
   7 H :    0.020601
   8 H :   -0.009604
   9 C :   -0.084941
  10 H :    0.043957
  11 H :    0.036089
  12 C :   -0.028046
  13 H :    0.031107
  14 H :    0.023388
  15 H :   -0.003521
  16 S :    0.143314
  17 C :   -0.057617
  18 C :   -0.086984
  19 C :    0.048312
  20 C :   -0.217768
  21 H :    0.037759
  22 C :    0.066197
  23 H :    0.019917
  24 H :    0.022688
  25 C :   -0.079897
  26 H :    0.016944
  27 H :    0.031159
  28 C :   -0.004493
  29 H :    0.021012
  30 H :    0.033963
  31 H :    0.030255
  32 H :    0.068989
  33 H :    0.025739
Sum of atomic charges:   -0.0000000

LOEWDIN ATOMIC CHARGES
----------------------
   0 S :    0.397233
   1 C :   -0.182425
   2 C :   -0.069689
   3 C :   -0.072318
   4 C :   -0.211920
   5 H :    0.028169
   6 C :   -0.024434
   7 H :    0.030300
   8 H :    0.017654
   9 C :   -0.029889
  10 H :    0.025918
  11 H :    0.030565
  12 C :   -0.072465
  13 H :    0.028013
  14 H :    0.024113
  15 H :    0.012663
  16 S :    0.434810
  17 C :   -0.184691
  18 C :   -0.078572
  19 C :   -0.045954
  20 C :   -0.208676
  21 H :    0.037985
  22 C :   -0.031971
  23 H :    0.030091
  24 H :    0.035706
  25 C :   -0.038091
  26 H :    0.017521
  27 H :    0.026848
  28 C :   -0.053957
  29 H :    0.020913
  30 H :    0.028986
  31 H :    0.025893
  32 H :    0.038715
  33 H :    0.012956

  Mayer bond orders larger than 0.100000
B(  0-S ,  1-C ) :   1.1424 B(  0-S ,  4-C ) :   1.1567 B(  1-C ,  2-C ) :   1.5676
B(  1-C ,  4-C ) :   0.1065 B(  1-C , 32-H ) :   0.9759 B(  2-C ,  3-C ) :   1.2612
B(  2-C ,  6-C ) :   1.0276 B(  3-C ,  4-C ) :   1.5739 B(  3-C ,  5-H ) :   0.9917
B(  4-C , 20-C ) :   1.0194 B(  6-C ,  7-H ) :   0.9354 B(  6-C ,  8-H ) :   0.9355
B(  6-C ,  9-C ) :   1.0618 B(  9-C , 10-H ) :   0.9645 B(  9-C , 11-H ) :   0.9565
B(  9-C , 12-C ) :   1.0768 B( 12-C , 13-H ) :   0.9761 B( 12-C , 14-H ) :   0.9731
B( 12-C , 15-H ) :   0.9691 B( 16-S , 17-C ) :   1.1698 B( 16-S , 20-C ) :   1.1614
B( 17-C , 18-C ) :   1.5924 B( 17-C , 20-C ) :   0.1025 B( 17-C , 33-H ) :   0.9808
B( 18-C , 19-C ) :   1.2461 B( 18-C , 21-H ) :   0.9791 B( 19-C , 20-C ) :   1.5789
B( 19-C , 22-C ) :   1.0302 B( 22-C , 23-H ) :   0.9324 B( 22-C , 24-H ) :   0.9257
B( 22-C , 25-C ) :   1.0714 B( 25-C , 26-H ) :   0.9502 B( 25-C , 27-H ) :   0.9510
B( 25-C , 28-C ) :   1.0875 B( 28-C , 29-H ) :   0.9701 B( 28-C , 30-H ) :   0.9720
B( 28-C , 31-H ) :   0.9746

Dispersion correction           -0.013481683
FINAL SINGLE POINT ENERGY     -1339.854203254992

DIPOLE MOMENT
-------------
                                X             Y             Z
Electronic contribution:    -11.09593      19.08360       4.72190
Nuclear contribution   :     11.19054     -19.61699      -5.21802
                        -----------------------------------------
Total Dipole Moment    :      0.09461      -0.53339      -0.49613
                        -----------------------------------------
Magnitude (a.u.)       :      0.73457
Magnitude (Debye)      :      1.86714

Rotational constants in cm-1:     0.019269     0.007344     0.006327
Rotational constants in MHz :   577.675531   220.170395   189.668860

                             ****ORCA TERMINATED NORMALLY****
TOTAL RUN TIME: 0 days 0 hours 0 minutes 33 seconds 686 msec
