                         Program Version 4.2.1 -  RELEASE  -
|  1> ! wB97X-D3 SP def2-SVP
|  2> %pal
|  3> nprocs 16
|  4> end
|  5>
|  6> * xyz 0 1
|  7> S 	 -37.4483 	 73.5456 	 167.039
|  8> C 	 -36.9795 	 74.8697 	 165.987
|  9> C 	 -36.7202 	 76.0943 	 166.666
| 10> C 	 -37.0088 	 75.9583 	 168.054
| 11> C 	 -37.3822 	 74.6933 	 168.428
| 12> H 	 -36.9938 	 76.8185 	 168.828
| 13> C 	 -36.2717 	 77.5063 	 166.124
| 14> H 	 -35.4953 	 77.8036 	 166.787
| 15> H 	 -36.9993 	 78.2802 	 166.251
| 16> C 	 -35.7197 	 77.5953 	 164.685
| 17> H 	 -34.8365 	 76.9866 	 164.582
| 18> H 	 -36.4751 	 77.2617 	 163.989
| 19> C 	 -35.2935 	 78.9738 	 164.338
| 20> H 	 -34.9933 	 78.9902 	 163.312
| 21> H 	 -36.0795 	 79.693 	 164.573
| 22> H 	 -34.4562 	 79.3034 	 164.815
| 23> S 	 -36.649 	 73.0404 	 170.538
| 24> C 	 -37.7301 	 72.9414 	 171.925
| 25> C 	 -38.7295 	 73.9368 	 171.906
| 26> C 	 -38.5811 	 74.7689 	 170.748
| 27> C 	 -37.7254 	 74.229 	 169.791
| 28> H 	 -39.5022 	 73.9696 	 172.65
| 29> C 	 -39.6356 	 75.9138 	 170.549
| 30> H 	 -39.615 	 76.0729 	 169.449
| 31> H 	 -39.1742 	 76.8689 	 170.9
| 32> C 	 -41.0879 	 75.7153 	 171.028
| 33> H 	 -41.5705 	 76.6296 	 170.947
| 34> H 	 -41.0853 	 75.5415 	 172.112
| 35> C 	 -41.7811 	 74.5232 	 170.392
| 36> H 	 -41.3461 	 73.5949 	 170.758
| 37> H 	 -41.7778 	 74.4833 	 169.316
| 38> H 	 -42.9002 	 74.3995 	 170.715
| 39> H 	 -36.724 	 74.6734 	 164.961
| 40> H 	 -37.585 	 72.104 	 172.654
| 41> *
| 42>
| 43>                          ****END OF INPUT****

CARTESIAN COORDINATES (ANGSTROEM)
---------------------------------
  S    -37.448300   73.545600  167.039000
  C    -36.979500   74.869700  165.987000
  C    -36.720200   76.094300  166.666000
  C    -37.008800   75.958300  168.054000
  C    -37.382200   74.693300  168.428000
  H    -36.993800   76.818500  168.828000
  C    -36.271700   77.506300  166.124000
  H    -35.495300   77.803600  166.787000
  H    -36.999300   78.280200  166.251000
  C    -35.719700   77.595300  164.685000
  H    -34.836500   76.986600  164.582000
  H    -36.475100   77.261700  163.989000
  C    -35.293500   78.973800  164.338000
  H    -34.993300   78.990200  163.312000
  H    -36.079500   79.693000  164.573000
  H    -34.456200   79.303400  164.815000
  S    -36.649000   73.040400  170.538000
  C    -37.730100   72.941400  171.925000
  C    -38.729500   73.936800  171.906000
  C    -38.581100   74.768900  170.748000
  C    -37.725400   74.229000  169.791000
  H    -39.502200   73.969600  172.650000
  C    -39.635600   75.913800  170.549000
  H    -39.615000   76.072900  169.449000
  H    -39.174200   76.868900  170.900000
  C    -41.087900   75.715300  171.028000
  H    -41.570500   76.629600  170.947000
  H    -41.085300   75.541500  172.112000
  C    -41.781100   74.523200  170.392000
  H    -41.346100   73.594900  170.758000
  H    -41.777800   74.483300  169.316000
  H    -42.900200   74.399500  170.715000
  H    -36.724000   74.673400  164.961000
  H    -37.585000   72.104000  172.654000

 Total Charge           Charge          ....    0
 Multiplicity           Mult            ....    1
 Number of Electrons    NEL             ....  134
 Basis Dimension        Dim             ....  322

ORBITAL ENERGIES
----------------

  NO   OCC          E(Eh)            E(eV)
   0   2.0000     -88.969489     -2420.9829
   1   2.0000     -88.963089     -2420.8087
   2   2.0000     -10.331602      -281.1372
   3   2.0000     -10.327351      -281.0215
   4   2.0000     -10.323082      -280.9053
   5   2.0000     -10.319815      -280.8164
   6   2.0000     -10.311116      -280.5797
   7   2.0000     -10.307424      -280.4793
   8   2.0000     -10.301562      -280.3198
   9   2.0000     -10.297666      -280.2137
  10   2.0000     -10.297236      -280.2020
  11   2.0000     -10.294536      -280.1286
  12   2.0000     -10.286041      -279.8974
  13   2.0000     -10.281708      -279.7795
  14   2.0000     -10.280718      -279.7525
  15   2.0000     -10.266456      -279.3645
  16   2.0000      -8.083243      -219.9562
  17   2.0000      -8.077595      -219.8025
  18   2.0000      -6.041733      -164.4039
  19   2.0000      -6.038046      -164.3036
  20   2.0000      -6.036037      -164.2489
  21   2.0000      -6.033929      -164.1916
  22   2.0000      -6.032261      -164.1462
  23   2.0000      -6.028325      -164.0391
  24   2.0000      -0.997515       -27.1438
  25   2.0000      -0.975663       -26.5491
  26   2.0000      -0.914285       -24.8790
  27   2.0000      -0.904219       -24.6050
  28   2.0000      -0.862275       -23.4637
  29   2.0000      -0.854042       -23.2397
  30   2.0000      -0.843056       -22.9407
  31   2.0000      -0.808018       -21.9873
  32   2.0000      -0.782820       -21.3016
  33   2.0000      -0.769149       -20.9296
  34   2.0000      -0.710327       -19.3290
  35   2.0000      -0.704824       -19.1792
  36   2.0000      -0.684234       -18.6190
  37   2.0000      -0.656480       -17.8637
  38   2.0000      -0.640387       -17.4258
  39   2.0000      -0.611689       -16.6449
  40   2.0000      -0.592625       -16.1261
  41   2.0000      -0.577988       -15.7279
  42   2.0000      -0.560625       -15.2554
  43   2.0000      -0.545396       -14.8410
  44   2.0000      -0.536717       -14.6048
  45   2.0000      -0.524796       -14.2804
  46   2.0000      -0.521022       -14.1777
  47   2.0000      -0.507633       -13.8134
  48   2.0000      -0.501890       -13.6571
  49   2.0000      -0.494807       -13.4644
  50   2.0000      -0.487351       -13.2615
  51   2.0000      -0.476581       -12.9684
  52   2.0000      -0.469990       -12.7891
  53   2.0000      -0.456464       -12.4210
  54   2.0000      -0.455216       -12.3871
  55   2.0000      -0.450768       -12.2660
  56   2.0000      -0.447528       -12.1779
  57   2.0000      -0.432508       -11.7691
  58   2.0000      -0.431407       -11.7392
  59   2.0000      -0.429975       -11.7002
  60   2.0000      -0.423018       -11.5109
  61   2.0000      -0.421583       -11.4718
  62   2.0000      -0.411512       -11.1978
  63   2.0000      -0.342746        -9.3266
  64   2.0000      -0.328201        -8.9308
  65   2.0000      -0.327569        -8.9136
  66   2.0000      -0.293394        -7.9837
  67   0.0000       0.029008         0.7893
  68   0.0000       0.064769         1.7624
  69   0.0000       0.107199         2.9170
  70   0.0000       0.113659         3.0928
  71   0.0000       0.128577         3.4988

MULLIKEN ATOMIC CHARGES
-----------------------
   0 S :    0.114131
   1 C :   -0.129378
   2 C :   -0.068328
   3 C :    0.004209
   4 C :   -0.165291
   5 H :    0.048929
   6 C :    0.052002
   7 H :    0.018712
   8 H :    0.026570
   9 C :   -0.074877
  10 H :    0.026395
  11 H :    0.032662
  12 C :    0.006519
  13 H :    0.023424
  14 H :    0.022620
  15 H :    0.002100
  16 S :    0.099947
  17 C :   -0.119022
  18 C :   -0.025600
  19 C :   -0.031410
  20 C :   -0.159622
  21 H :    0.020486
  22 C :    0.014402
  23 H :    0.029967
  24 H :    0.039378
  25 C :   -0.013885
  26 H :    0.015726
  27 H :    0.021841
  28 C :   -0.067379
  29 H :    0.030916
  30 H :    0.037562
  31 H :    0.039273
  32 H :    0.050673
  33 H :    0.076350
Sum of atomic charges:    0.0000000

LOEWDIN ATOMIC CHARGES
----------------------
   0 S :    0.388487
   1 C :   -0.195508
   2 C :   -0.058503
   3 C :   -0.066956
   4 C :   -0.185371
   5 H :    0.049594
   6 C :   -0.025588
   7 H :    0.028524
   8 H :    0.027352
   9 C :   -0.039115
  10 H :    0.024453
  11 H :    0.022707
  12 C :   -0.053891
  13 H :    0.028588
  14 H :    0.025145
  15 H :    0.011888
  16 S :    0.390840
  17 C :   -0.184294
  18 C :   -0.070040
  19 C :   -0.053869
  20 C :   -0.199945
  21 H :    0.029237
  22 C :   -0.037120
  23 H :    0.031685
  24 H :    0.035069
  25 C :   -0.039659
  26 H :    0.019279
  27 H :    0.024918
  28 C :   -0.069203
  29 H :    0.025917
  30 H :    0.022824
  31 H :    0.036721
  32 H :    0.021657
  33 H :    0.034176

  Mayer bond orders larger than 0.100000
B(  0-S ,  1-C ) :   1.1421 B(  0-S ,  4-C ) :   1.1374 B(  1-C ,  2-C ) :   1.6185
B(  1-C ,  4-C ) :   0.1009 B(  1-C , 32-H ) :   0.9653 B(  2-C ,  3-C ) :   1.2405
B(  2-C ,  6-C ) :   0.9931 B(  3-C ,  4-C ) :   1.6064 B(  3-C ,  5-H ) :   0.9774
B(  4-C , 20-C ) :   1.0142 B(  6-C ,  7-H ) :   0.9425 B(  6-C ,  8-H ) :   0.9457
B(  6-C ,  9-C ) :   1.0767 B(  9-C , 10-H ) :   0.9528 B(  9-C , 11-H ) :   0.9520
B(  9-C , 12-C ) :   1.1032 B( 12-C , 13-H ) :   0.9660 B( 12-C , 14-H ) :   0.9713
B( 12-C , 15-H ) :   0.9701 B( 16-S , 17-C ) :   1.1599 B( 16-S , 20-C ) :   1.1434
B( 17-C , 18-C ) :   1.5979 B( 17-C , 20-C ) :   0.1058 B( 17-C , 33-H ) :   0.9622
B( 18-C , 19-C ) :   1.2245 B( 18-C , 21-H ) :   0.9922 B( 19-C , 20-C ) :   1.6066
B( 19-C , 22-C ) :   1.0212 B( 22-C , 23-H ) :   0.9412 B( 22-C , 24-H ) :   0.9330
B( 22-C , 25-C ) :   1.0758 B( 25-C , 26-H ) :   0.9492 B( 25-C , 27-H ) :   0.9466
B( 25-C , 28-C ) :   1.0731 B( 28-C , 29-H ) :   0.9707 B( 28-C , 30-H ) :   0.9784
B( 28-C , 31-H ) :   0.9725

Dispersion correction           -0.013909917
FINAL SINGLE POINT ENERGY     -1339.863618212848

DIPOLE MOMENT
-------------
                                X             Y             Z
Electronic contribution:      8.26122     -21.05309       7.25456
Nuclear contribution   :     -8.38897      21.65678      -7.26958
                        -----------------------------------------
Total Dipole Moment    :     -0.12775       0.60368      -0.01501
                        -----------------------------------------
Magnitude (a.u.)       :      0.61723
Magnitude (Debye)      :      1.56889

Rotational constants in cm-1:     0.021719     0.006929     0.006110
Rotational constants in MHz :   651.112110   207.730220   183.181855

                             ****ORCA TERMINATED NORMALLY****
TOTAL RUN TIME: 0 days 0 hours 0 minutes 32 seconds 976 msec
