                         Program Version 4.2.1 -  RELEASE  -
|  1> ! wB97X-D3 SP def2-SVP
|  2> %pal
|  3> nprocs 16
|  4> end
|  5>
|  6> * xyz 0 1
|  7> S 	 42.2078 	 7.89145 	 87.1788
|  8> C 	 43.4646 	 9.12643 	 86.9457
|  9> C 	 44.208 	 9.20802 	 88.1655
| 10> C 	 43.775 	 8.29541 	 89.1979
| 11> C 	 42.7082 	 7.47054 	 88.7782
| 12> H 	 44.2393 	 8.13848 	 90.1161
| 13> C 	 45.3373 	 10.1554 	 88.2659
| 14> H 	 45.4632 	 10.4875 	 89.3593
| 15> H 	 45.0494 	 11.0865 	 87.8892
| 16> C 	 46.7353 	 9.85772 	 87.6823
| 17> H 	 46.5227 	 9.73307 	 86.6149
| 18> H 	 47.3907 	 10.7523 	 87.8543
| 19> C 	 47.3115 	 8.55732 	 88.2441
| 20> H 	 46.6598 	 7.69455 	 88.2094
| 21> H 	 48.1357 	 8.23963 	 87.596
| 22> H 	 47.5469 	 8.54017 	 89.2996
| 23> S 	 40.3736 	 6.26218 	 89.3425
| 24> C 	 40.3528 	 4.77174 	 90.313
| 25> C 	 41.6364 	 4.38553 	 90.6302
| 26> C 	 42.6525 	 5.26419 	 90.1782
| 27> C 	 42.1198 	 6.35942 	 89.5121
| 28> H 	 41.8635 	 3.45992 	 91.0866
| 29> C 	 44.0842 	 4.8864 	 90.347
| 30> H 	 44.5117 	 5.7607 	 90.8182
| 31> H 	 44.5379 	 4.84566 	 89.3542
| 32> C 	 44.3983 	 3.49328 	 91.1091
| 33> H 	 43.9087 	 2.64774 	 90.6151
| 34> H 	 44.0021 	 3.45364 	 92.13
| 35> C 	 45.9179 	 3.22161 	 91.169
| 36> H 	 46.0932 	 2.4601 	 91.8919
| 37> H 	 46.4382 	 4.11303 	 91.3563
| 38> H 	 46.217 	 2.85473 	 90.144
| 39> H 	 43.6854 	 9.6952 	 86.0706
| 40> H 	 39.4275 	 4.28932 	 90.5706
| 41> *
| 42>
| 43>                          ****END OF INPUT****

CARTESIAN COORDINATES (ANGSTROEM)
---------------------------------
  S     42.207800    7.891450   87.178800
  C     43.464600    9.126430   86.945700
  C     44.208000    9.208020   88.165500
  C     43.775000    8.295410   89.197900
  C     42.708200    7.470540   88.778200
  H     44.239300    8.138480   90.116100
  C     45.337300   10.155400   88.265900
  H     45.463200   10.487500   89.359300
  H     45.049400   11.086500   87.889200
  C     46.735300    9.857720   87.682300
  H     46.522700    9.733070   86.614900
  H     47.390700   10.752300   87.854300
  C     47.311500    8.557320   88.244100
  H     46.659800    7.694550   88.209400
  H     48.135700    8.239630   87.596000
  H     47.546900    8.540170   89.299600
  S     40.373600    6.262180   89.342500
  C     40.352800    4.771740   90.313000
  C     41.636400    4.385530   90.630200
  C     42.652500    5.264190   90.178200
  C     42.119800    6.359420   89.512100
  H     41.863500    3.459920   91.086600
  C     44.084200    4.886400   90.347000
  H     44.511700    5.760700   90.818200
  H     44.537900    4.845660   89.354200
  C     44.398300    3.493280   91.109100
  H     43.908700    2.647740   90.615100
  H     44.002100    3.453640   92.130000
  C     45.917900    3.221610   91.169000
  H     46.093200    2.460100   91.891900
  H     46.438200    4.113030   91.356300
  H     46.217000    2.854730   90.144000
  H     43.685400    9.695200   86.070600
  H     39.427500    4.289320   90.570600

 Total Charge           Charge          ....    0
 Multiplicity           Mult            ....    1
 Number of Electrons    NEL             ....  134
 Basis Dimension        Dim             ....  322

ORBITAL ENERGIES
----------------

  NO   OCC          E(Eh)            E(eV)
   0   2.0000     -88.968707     -2420.9616
   1   2.0000     -88.964290     -2420.8414
   2   2.0000     -10.332190      -281.1532
   3   2.0000     -10.326602      -281.0011
   4   2.0000     -10.318915      -280.7920
   5   2.0000     -10.318145      -280.7710
   6   2.0000     -10.306347      -280.4500
   7   2.0000     -10.302763      -280.3524
   8   2.0000     -10.298856      -280.2461
   9   2.0000     -10.298322      -280.2316
  10   2.0000     -10.294003      -280.1141
  11   2.0000     -10.293542      -280.1015
  12   2.0000     -10.289610      -279.9945
  13   2.0000     -10.285246      -279.8758
  14   2.0000     -10.279991      -279.7328
  15   2.0000     -10.273651      -279.5603
  16   2.0000      -8.082831      -219.9450
  17   2.0000      -8.078727      -219.8333
  18   2.0000      -6.041332      -164.3930
  19   2.0000      -6.037230      -164.2814
  20   2.0000      -6.037174      -164.2799
  21   2.0000      -6.033866      -164.1898
  22   2.0000      -6.033297      -164.1744
  23   2.0000      -6.029496      -164.0709
  24   2.0000      -1.004706       -27.3394
  25   2.0000      -0.978880       -26.6367
  26   2.0000      -0.912473       -24.8296
  27   2.0000      -0.905129       -24.6298
  28   2.0000      -0.866625       -23.5821
  29   2.0000      -0.856476       -23.3059
  30   2.0000      -0.842999       -22.9392
  31   2.0000      -0.815937       -22.2028
  32   2.0000      -0.782775       -21.3004
  33   2.0000      -0.770528       -20.9671
  34   2.0000      -0.714157       -19.4332
  35   2.0000      -0.703036       -19.1306
  36   2.0000      -0.699899       -19.0452
  37   2.0000      -0.659227       -17.9385
  38   2.0000      -0.641492       -17.4559
  39   2.0000      -0.614392       -16.7185
  40   2.0000      -0.599270       -16.3070
  41   2.0000      -0.572349       -15.5744
  42   2.0000      -0.566894       -15.4260
  43   2.0000      -0.546577       -14.8731
  44   2.0000      -0.542093       -14.7511
  45   2.0000      -0.537817       -14.6348
  46   2.0000      -0.516510       -14.0550
  47   2.0000      -0.514032       -13.9875
  48   2.0000      -0.508758       -13.8440
  49   2.0000      -0.504397       -13.7253
  50   2.0000      -0.490281       -13.3412
  51   2.0000      -0.478215       -13.0129
  52   2.0000      -0.473187       -12.8761
  53   2.0000      -0.463765       -12.6197
  54   2.0000      -0.456348       -12.4179
  55   2.0000      -0.455293       -12.3892
  56   2.0000      -0.437169       -11.8960
  57   2.0000      -0.434272       -11.8171
  58   2.0000      -0.430609       -11.7175
  59   2.0000      -0.428993       -11.6735
  60   2.0000      -0.426106       -11.5949
  61   2.0000      -0.421621       -11.4729
  62   2.0000      -0.404412       -11.0046
  63   2.0000      -0.347706        -9.4616
  64   2.0000      -0.331418        -9.0183
  65   2.0000      -0.328605        -8.9418
  66   2.0000      -0.285122        -7.7586
  67   0.0000       0.024007         0.6533
  68   0.0000       0.067560         1.8384
  69   0.0000       0.103454         2.8151
  70   0.0000       0.119813         3.2603
  71   0.0000       0.131352         3.5743

MULLIKEN ATOMIC CHARGES
-----------------------
   0 S :    0.117662
   1 C :   -0.113600
   2 C :   -0.089296
   3 C :    0.055013
   4 C :   -0.140538
   5 H :   -0.014624
   6 C :    0.025452
   7 H :    0.020851
   8 H :    0.007449
   9 C :   -0.045535
  10 H :    0.023953
  11 H :    0.047252
  12 C :   -0.046393
  13 H :    0.022409
  14 H :    0.032984
  15 H :    0.024360
  16 S :    0.090239
  17 C :   -0.075962
  18 C :   -0.021054
  19 C :   -0.037369
  20 C :   -0.170080
  21 H :    0.003686
  22 C :    0.075728
  23 H :    0.028687
  24 H :    0.043449
  25 C :   -0.141049
  26 H :    0.040962
  27 H :    0.038322
  28 C :    0.002524
  29 H :    0.033162
  30 H :    0.024974
  31 H :    0.034946
  32 H :    0.047175
  33 H :    0.054262
Sum of atomic charges:    0.0000000

LOEWDIN ATOMIC CHARGES
----------------------
   0 S :    0.414258
   1 C :   -0.197521
   2 C :   -0.055283
   3 C :   -0.062535
   4 C :   -0.199778
   5 H :    0.018820
   6 C :   -0.049239
   7 H :    0.034218
   8 H :    0.022087
   9 C :   -0.035110
  10 H :    0.023921
  11 H :    0.033975
  12 C :   -0.073975
  13 H :    0.025396
  14 H :    0.028828
  15 H :    0.023374
  16 S :    0.391866
  17 C :   -0.167981
  18 C :   -0.066728
  19 C :   -0.055174
  20 C :   -0.197812
  21 H :    0.025191
  22 C :   -0.031037
  23 H :    0.032351
  24 H :    0.039331
  25 C :   -0.041223
  26 H :    0.024631
  27 H :    0.022555
  28 C :   -0.054250
  29 H :    0.024136
  30 H :    0.017797
  31 H :    0.032264
  32 H :    0.026860
  33 H :    0.025788

  Mayer bond orders larger than 0.100000
B(  0-S ,  1-C ) :   1.1333 B(  0-S ,  4-C ) :   1.1779 B(  1-C ,  2-C ) :   1.5590
B(  1-C ,  4-C ) :   0.1046 B(  1-C , 32-H ) :   0.9771 B(  2-C ,  3-C ) :   1.2591
B(  2-C ,  6-C ) :   1.0368 B(  3-C ,  4-C ) :   1.5192 B(  3-C ,  5-H ) :   1.0074
B(  4-C , 20-C ) :   1.0522 B(  6-C ,  7-H ) :   0.9379 B(  6-C ,  8-H ) :   0.9346
B(  6-C ,  9-C ) :   1.0731 B(  9-C , 10-H ) :   0.9527 B(  9-C , 11-H ) :   0.9524
B(  9-C , 12-C ) :   1.0778 B( 12-C , 13-H ) :   0.9709 B( 12-C , 14-H ) :   0.9735
B( 12-C , 15-H ) :   0.9747 B( 16-S , 17-C ) :   1.1512 B( 16-S , 20-C ) :   1.1404
B( 17-C , 18-C ) :   1.5758 B( 17-C , 20-C ) :   0.1023 B( 17-C , 33-H ) :   0.9705
B( 18-C , 19-C ) :   1.2776 B( 18-C , 21-H ) :   0.9859 B( 19-C , 20-C ) :   1.5831
B( 19-C , 22-C ) :   1.0243 B( 22-C , 23-H ) :   0.9233 B( 22-C , 24-H ) :   0.9290
B( 22-C , 25-C ) :   1.0703 B( 25-C , 26-H ) :   0.9523 B( 25-C , 27-H ) :   0.9561
B( 25-C , 28-C ) :   1.0794 B( 28-C , 29-H ) :   0.9737 B( 28-C , 30-H ) :   0.9761
B( 28-C , 31-H ) :   0.9761

Dispersion correction           -0.014052512
FINAL SINGLE POINT ENERGY     -1339.871546171239

DIPOLE MOMENT
-------------
                                X             Y             Z
Electronic contribution:    -29.39353       4.41281      -7.15257
Nuclear contribution   :     30.02097      -4.70057       7.37885
                        -----------------------------------------
Total Dipole Moment    :      0.62744      -0.28776       0.22628
                        -----------------------------------------
Magnitude (a.u.)       :      0.72642
Magnitude (Debye)      :      1.84642

Rotational constants in cm-1:     0.016625     0.009439     0.006359
Rotational constants in MHz :   498.396033   282.966112   190.652524

                             ****ORCA TERMINATED NORMALLY****
TOTAL RUN TIME: 0 days 0 hours 0 minutes 30 seconds 37 msec
