                         Program Version 4.2.1 -  RELEASE  -
|  1> ! wB97X-D3 SP def2-SVP
|  2> %pal
|  3> nprocs 16
|  4> end
|  5>
|  6> * xyz 0 1
|  7> S 	 -19.3317 	 55.9103 	 65.0822
|  8> C 	 -18.3668 	 54.8554 	 64.1137
|  9> C 	 -17.0102 	 55.0777 	 64.1907
| 10> C 	 -16.8442 	 56.2941 	 64.9515
| 11> C 	 -17.9758 	 56.976 	 65.3037
| 12> H 	 -15.913 	 56.8107 	 65.1166
| 13> C 	 -15.8851 	 54.3088 	 63.6012
| 14> H 	 -14.936 	 54.7314 	 63.94
| 15> H 	 -15.9891 	 54.4813 	 62.5717
| 16> C 	 -15.9097 	 52.8326 	 63.8173
| 17> H 	 -15.4354 	 52.7116 	 64.7838
| 18> H 	 -16.9003 	 52.3843 	 63.7667
| 19> C 	 -15.0893 	 52.018 	 62.7257
| 20> H 	 -14.0495 	 52.3437 	 62.5798
| 21> H 	 -15.0617 	 50.9732 	 62.9695
| 22> H 	 -15.5902 	 52.1614 	 61.7471
| 23> S 	 -17.4699 	 59.6852 	 65.3175
| 24> C 	 -17.9008 	 60.6424 	 66.7126
| 25> C 	 -18.3581 	 59.8808 	 67.7285
| 26> C 	 -18.4435 	 58.4874 	 67.3753
| 27> C 	 -18.0794 	 58.2231 	 66.0421
| 28> H 	 -18.5858 	 60.3779 	 68.6694
| 29> C 	 -19.0392 	 57.4853 	 68.3383
| 30> H 	 -18.7509 	 57.7219 	 69.3993
| 31> H 	 -18.5716 	 56.5296 	 68.1397
| 32> C 	 -20.5665 	 57.3497 	 68.3707
| 33> H 	 -20.9143 	 57.157 	 67.3619
| 34> H 	 -21.0903 	 58.2303 	 68.6601
| 35> C 	 -20.9826 	 56.2126 	 69.269
| 36> H 	 -20.5427 	 56.2591 	 70.2469
| 37> H 	 -20.6344 	 55.2345 	 68.795
| 38> H 	 -22.0066 	 56.1424 	 69.4768
| 39> H 	 -18.8003 	 54.0389 	 63.5635
| 40> H 	 -17.8279 	 61.6939 	 66.7504
| 41> *
| 42>
| 43>                          ****END OF INPUT****

CARTESIAN COORDINATES (ANGSTROEM)
---------------------------------
  S    -19.331700   55.910300   65.082200
  C    -18.366800   54.855400   64.113700
  C    -17.010200   55.077700   64.190700
  C    -16.844200   56.294100   64.951500
  C    -17.975800   56.976000   65.303700
  H    -15.913000   56.810700   65.116600
  C    -15.885100   54.308800   63.601200
  H    -14.936000   54.731400   63.940000
  H    -15.989100   54.481300   62.571700
  C    -15.909700   52.832600   63.817300
  H    -15.435400   52.711600   64.783800
  H    -16.900300   52.384300   63.766700
  C    -15.089300   52.018000   62.725700
  H    -14.049500   52.343700   62.579800
  H    -15.061700   50.973200   62.969500
  H    -15.590200   52.161400   61.747100
  S    -17.469900   59.685200   65.317500
  C    -17.900800   60.642400   66.712600
  C    -18.358100   59.880800   67.728500
  C    -18.443500   58.487400   67.375300
  C    -18.079400   58.223100   66.042100
  H    -18.585800   60.377900   68.669400
  C    -19.039200   57.485300   68.338300
  H    -18.750900   57.721900   69.399300
  H    -18.571600   56.529600   68.139700
  C    -20.566500   57.349700   68.370700
  H    -20.914300   57.157000   67.361900
  H    -21.090300   58.230300   68.660100
  C    -20.982600   56.212600   69.269000
  H    -20.542700   56.259100   70.246900
  H    -20.634400   55.234500   68.795000
  H    -22.006600   56.142400   69.476800
  H    -18.800300   54.038900   63.563500
  H    -17.827900   61.693900   66.750400

 Total Charge           Charge          ....    0
 Multiplicity           Mult            ....    1
 Number of Electrons    NEL             ....  134
 Basis Dimension        Dim             ....  322

ORBITAL ENERGIES
----------------

  NO   OCC          E(Eh)            E(eV)
   0   2.0000     -88.964568     -2420.8490
   1   2.0000     -88.962957     -2420.8051
   2   2.0000     -10.326508      -280.9986
   3   2.0000     -10.324188      -280.9354
   4   2.0000     -10.311039      -280.5776
   5   2.0000     -10.309942      -280.5478
   6   2.0000     -10.303877      -280.3828
   7   2.0000     -10.301350      -280.3140
   8   2.0000     -10.291078      -280.0345
   9   2.0000     -10.290766      -280.0260
  10   2.0000     -10.288808      -279.9727
  11   2.0000     -10.288687      -279.9694
  12   2.0000     -10.287399      -279.9344
  13   2.0000     -10.283683      -279.8333
  14   2.0000     -10.277424      -279.6629
  15   2.0000     -10.270477      -279.4739
  16   2.0000      -8.079732      -219.8607
  17   2.0000      -8.078026      -219.8143
  18   2.0000      -6.038195      -164.3076
  19   2.0000      -6.036533      -164.2624
  20   2.0000      -6.034293      -164.2015
  21   2.0000      -6.032454      -164.1514
  22   2.0000      -6.030419      -164.0960
  23   2.0000      -6.028805      -164.0521
  24   2.0000      -1.009807       -27.4782
  25   2.0000      -0.988029       -26.8856
  26   2.0000      -0.921005       -25.0618
  27   2.0000      -0.908307       -24.7163
  28   2.0000      -0.872127       -23.7318
  29   2.0000      -0.850717       -23.1492
  30   2.0000      -0.846418       -23.0322
  31   2.0000      -0.816448       -22.2167
  32   2.0000      -0.785787       -21.3823
  33   2.0000      -0.768421       -20.9098
  34   2.0000      -0.708148       -19.2697
  35   2.0000      -0.704707       -19.1761
  36   2.0000      -0.694803       -18.9066
  37   2.0000      -0.661192       -17.9919
  38   2.0000      -0.642826       -17.4922
  39   2.0000      -0.617036       -16.7904
  40   2.0000      -0.597688       -16.2639
  41   2.0000      -0.584723       -15.9111
  42   2.0000      -0.567314       -15.4374
  43   2.0000      -0.562266       -15.3000
  44   2.0000      -0.526648       -14.3308
  45   2.0000      -0.522715       -14.2238
  46   2.0000      -0.521406       -14.1882
  47   2.0000      -0.511762       -13.9257
  48   2.0000      -0.504612       -13.7312
  49   2.0000      -0.504370       -13.7246
  50   2.0000      -0.494738       -13.4625
  51   2.0000      -0.473597       -12.8872
  52   2.0000      -0.467276       -12.7152
  53   2.0000      -0.466774       -12.7016
  54   2.0000      -0.457408       -12.4467
  55   2.0000      -0.448069       -12.1926
  56   2.0000      -0.443004       -12.0547
  57   2.0000      -0.439956       -11.9718
  58   2.0000      -0.436848       -11.8872
  59   2.0000      -0.427327       -11.6282
  60   2.0000      -0.423608       -11.5269
  61   2.0000      -0.418746       -11.3947
  62   2.0000      -0.410492       -11.1700
  63   2.0000      -0.344542        -9.3755
  64   2.0000      -0.331506        -9.0207
  65   2.0000      -0.324386        -8.8270
  66   2.0000      -0.296221        -8.0606
  67   0.0000       0.039005         1.0614
  68   0.0000       0.062634         1.7044
  69   0.0000       0.101778         2.7695
  70   0.0000       0.124118         3.3774
  71   0.0000       0.137847         3.7510

MULLIKEN ATOMIC CHARGES
-----------------------
   0 S :    0.108469
   1 C :   -0.124278
   2 C :   -0.080686
   3 C :    0.029946
   4 C :   -0.173987
   5 H :    0.002133
   6 C :    0.142245
   7 H :    0.023895
   8 H :    0.018580
   9 C :   -0.094001
  10 H :    0.034407
  11 H :    0.037963
  12 C :   -0.075227
  13 H :    0.033068
  14 H :    0.037751
  15 H :    0.034056
  16 S :    0.104002
  17 C :   -0.076285
  18 C :   -0.027123
  19 C :   -0.013912
  20 C :   -0.159238
  21 H :    0.022317
  22 C :    0.028962
  23 H :    0.020473
  24 H :    0.023453
  25 C :   -0.024771
  26 H :    0.016610
  27 H :    0.015221
  28 C :   -0.033125
  29 H :    0.015704
  30 H :    0.033924
  31 H :    0.020866
  32 H :    0.038563
  33 H :    0.040026
Sum of atomic charges:    0.0000000

LOEWDIN ATOMIC CHARGES
----------------------
   0 S :    0.420498
   1 C :   -0.195202
   2 C :   -0.058219
   3 C :   -0.057579
   4 C :   -0.203923
   5 H :    0.025702
   6 C :   -0.030365
   7 H :    0.035359
   8 H :    0.030366
   9 C :   -0.034476
  10 H :    0.026182
  11 H :    0.025223
  12 C :   -0.067310
  13 H :    0.023817
  14 H :    0.023597
  15 H :    0.026128
  16 S :    0.410501
  17 C :   -0.176961
  18 C :   -0.071792
  19 C :   -0.053728
  20 C :   -0.205302
  21 H :    0.036137
  22 C :   -0.037038
  23 H :    0.033300
  24 H :    0.026362
  25 C :   -0.037364
  26 H :    0.016291
  27 H :    0.018738
  28 C :   -0.062057
  29 H :    0.019854
  30 H :    0.033176
  31 H :    0.017773
  32 H :    0.020713
  33 H :    0.021599

  Mayer bond orders larger than 0.100000
B(  0-S ,  1-C ) :   1.1534 B(  0-S ,  4-C ) :   1.1378 B(  1-C ,  2-C ) :   1.6057
B(  1-C , 32-H ) :   0.9680 B(  2-C ,  3-C ) :   1.2331 B(  2-C ,  6-C ) :   1.0124
B(  3-C ,  4-C ) :   1.6102 B(  3-C ,  5-H ) :   0.9916 B(  4-C , 20-C ) :   1.0194
B(  6-C ,  7-H ) :   0.9371 B(  6-C ,  8-H ) :   0.9263 B(  6-C ,  9-C ) :   1.0599
B(  9-C , 10-H ) :   0.9584 B(  9-C , 11-H ) :   0.9617 B(  9-C , 12-C ) :   1.0746
B( 12-C , 13-H ) :   0.9771 B( 12-C , 14-H ) :   0.9774 B( 12-C , 15-H ) :   0.9768
B( 16-S , 17-C ) :   1.1526 B( 16-S , 20-C ) :   1.1434 B( 17-C , 18-C ) :   1.6258
B( 17-C , 33-H ) :   0.9701 B( 18-C , 19-C ) :   1.2248 B( 18-C , 21-H ) :   0.9930
B( 19-C , 20-C ) :   1.5839 B( 19-C , 22-C ) :   1.0585 B( 22-C , 23-H ) :   0.9323
B( 22-C , 24-H ) :   0.9319 B( 22-C , 25-C ) :   1.0648 B( 25-C , 26-H ) :   0.9487
B( 25-C , 27-H ) :   0.9524 B( 25-C , 28-C ) :   1.0883 B( 28-C , 29-H ) :   0.9717
B( 28-C , 30-H ) :   0.9733 B( 28-C , 31-H ) :   0.9725

Dispersion correction           -0.014053595
FINAL SINGLE POINT ENERGY     -1339.883917045942

DIPOLE MOMENT
-------------
                                X             Y             Z
Electronic contribution:     -2.37728      19.91917      -4.96827
Nuclear contribution   :      2.58918     -20.19201       5.14104
                        -----------------------------------------
Total Dipole Moment    :      0.21189      -0.27283       0.17277
                        -----------------------------------------
Magnitude (a.u.)       :      0.38625
Magnitude (Debye)      :      0.98177

Rotational constants in cm-1:     0.021170     0.007517     0.006067
Rotational constants in MHz :   634.655497   225.367993   181.897910

                             ****ORCA TERMINATED NORMALLY****
TOTAL RUN TIME: 0 days 0 hours 0 minutes 32 seconds 862 msec
