                         Program Version 4.2.1 -  RELEASE  -
|  1> ! wB97X-D3 SP def2-SVP
|  2> %pal
|  3> nprocs 16
|  4> end
|  5>
|  6> * xyz 0 1
|  7> S 	 -35.7418 	 30.7118 	 41.7613
|  8> C 	 -37.3963 	 30.1727 	 41.5888
|  9> C 	 -38.0341 	 30.069 	 42.787
| 10> C 	 -37.2131 	 30.4228 	 43.8359
| 11> C 	 -35.9586 	 30.7929 	 43.486
| 12> H 	 -37.4918 	 30.6936 	 44.847
| 13> C 	 -39.4575 	 29.6339 	 42.9638
| 14> H 	 -39.6111 	 28.6017 	 42.7521
| 15> H 	 -40.1145 	 30.1024 	 42.1755
| 16> C 	 -40.1606 	 29.9298 	 44.2928
| 17> H 	 -39.6162 	 29.5233 	 45.118
| 18> H 	 -40.0918 	 30.9796 	 44.395
| 19> C 	 -41.6548 	 29.5673 	 44.3439
| 20> H 	 -42.186 	 30.3467 	 43.8125
| 21> H 	 -41.8283 	 28.5332 	 43.9107
| 22> H 	 -42.1239 	 29.5462 	 45.3545
| 23> S 	 -34.589 	 30.495 	 45.7885
| 24> C 	 -33.5706 	 31.7418 	 46.3979
| 25> C 	 -33.4934 	 32.8023 	 45.5905
| 26> C 	 -34.2484 	 32.6645 	 44.3361
| 27> C 	 -35.0282 	 31.4907 	 44.3983
| 28> H 	 -32.7844 	 33.5306 	 45.893
| 29> C 	 -34.4318 	 33.7753 	 43.2021
| 30> H 	 -35.3815 	 34.2768 	 43.2253
| 31> H 	 -34.5798 	 33.2852 	 42.2681
| 32> C 	 -33.3241 	 34.8303 	 42.9651
| 33> H 	 -33.1583 	 35.2988 	 43.9176
| 34> H 	 -33.6538 	 35.7134 	 42.4052
| 35> C 	 -32.1 	 34.1452 	 42.2954
| 36> H 	 -32.41 	 33.9674 	 41.2472
| 37> H 	 -31.808 	 33.1737 	 42.7199
| 38> H 	 -31.2905 	 34.9189 	 42.1436
| 39> H 	 -37.9111 	 29.9061 	 40.6404
| 40> H 	 -32.9748 	 31.653 	 47.3089
| 41> *
| 42>
| 43>                          ****END OF INPUT****

CARTESIAN COORDINATES (ANGSTROEM)
---------------------------------
  S    -35.741800   30.711800   41.761300
  C    -37.396300   30.172700   41.588800
  C    -38.034100   30.069000   42.787000
  C    -37.213100   30.422800   43.835900
  C    -35.958600   30.792900   43.486000
  H    -37.491800   30.693600   44.847000
  C    -39.457500   29.633900   42.963800
  H    -39.611100   28.601700   42.752100
  H    -40.114500   30.102400   42.175500
  C    -40.160600   29.929800   44.292800
  H    -39.616200   29.523300   45.118000
  H    -40.091800   30.979600   44.395000
  C    -41.654800   29.567300   44.343900
  H    -42.186000   30.346700   43.812500
  H    -41.828300   28.533200   43.910700
  H    -42.123900   29.546200   45.354500
  S    -34.589000   30.495000   45.788500
  C    -33.570600   31.741800   46.397900
  C    -33.493400   32.802300   45.590500
  C    -34.248400   32.664500   44.336100
  C    -35.028200   31.490700   44.398300
  H    -32.784400   33.530600   45.893000
  C    -34.431800   33.775300   43.202100
  H    -35.381500   34.276800   43.225300
  H    -34.579800   33.285200   42.268100
  C    -33.324100   34.830300   42.965100
  H    -33.158300   35.298800   43.917600
  H    -33.653800   35.713400   42.405200
  C    -32.100000   34.145200   42.295400
  H    -32.410000   33.967400   41.247200
  H    -31.808000   33.173700   42.719900
  H    -31.290500   34.918900   42.143600
  H    -37.911100   29.906100   40.640400
  H    -32.974800   31.653000   47.308900

 Total Charge           Charge          ....    0
 Multiplicity           Mult            ....    1
 Number of Electrons    NEL             ....  134
 Basis Dimension        Dim             ....  322

ORBITAL ENERGIES
----------------

  NO   OCC          E(Eh)            E(eV)
   0   2.0000     -88.970211     -2421.0025
   1   2.0000     -88.962391     -2420.7897
   2   2.0000     -10.331078      -281.1229
   3   2.0000     -10.324996      -280.9574
   4   2.0000     -10.318649      -280.7847
   5   2.0000     -10.314041      -280.6593
   6   2.0000     -10.309302      -280.5304
   7   2.0000     -10.295388      -280.1518
   8   2.0000     -10.290839      -280.0280
   9   2.0000     -10.290795      -280.0268
  10   2.0000     -10.290466      -280.0178
  11   2.0000     -10.287094      -279.9261
  12   2.0000     -10.286610      -279.9129
  13   2.0000     -10.284691      -279.8607
  14   2.0000     -10.283400      -279.8255
  15   2.0000     -10.280658      -279.7509
  16   2.0000      -8.084617      -219.9936
  17   2.0000      -8.077605      -219.8028
  18   2.0000      -6.043034      -164.4393
  19   2.0000      -6.039211      -164.3353
  20   2.0000      -6.036082      -164.2501
  21   2.0000      -6.035449      -164.2329
  22   2.0000      -6.032063      -164.1408
  23   2.0000      -6.028346      -164.0396
  24   2.0000      -1.012727       -27.5577
  25   2.0000      -0.988316       -26.8935
  26   2.0000      -0.914376       -24.8814
  27   2.0000      -0.900239       -24.4967
  28   2.0000      -0.873507       -23.7693
  29   2.0000      -0.853992       -23.2383
  30   2.0000      -0.838781       -22.8244
  31   2.0000      -0.818832       -22.2816
  32   2.0000      -0.781952       -21.2780
  33   2.0000      -0.772193       -21.0124
  34   2.0000      -0.713604       -19.4182
  35   2.0000      -0.701189       -19.0803
  36   2.0000      -0.688313       -18.7299
  37   2.0000      -0.656366       -17.8606
  38   2.0000      -0.634530       -17.2664
  39   2.0000      -0.625858       -17.0305
  40   2.0000      -0.599171       -16.3043
  41   2.0000      -0.574972       -15.6458
  42   2.0000      -0.568657       -15.4739
  43   2.0000      -0.548131       -14.9154
  44   2.0000      -0.532663       -14.4945
  45   2.0000      -0.518293       -14.1035
  46   2.0000      -0.514958       -14.0127
  47   2.0000      -0.504868       -13.7382
  48   2.0000      -0.500817       -13.6279
  49   2.0000      -0.494674       -13.4608
  50   2.0000      -0.489780       -13.3276
  51   2.0000      -0.479441       -13.0463
  52   2.0000      -0.470344       -12.7987
  53   2.0000      -0.464747       -12.6464
  54   2.0000      -0.459162       -12.4944
  55   2.0000      -0.454435       -12.3658
  56   2.0000      -0.449219       -12.2239
  57   2.0000      -0.437235       -11.8978
  58   2.0000      -0.427023       -11.6199
  59   2.0000      -0.425711       -11.5842
  60   2.0000      -0.422165       -11.4877
  61   2.0000      -0.418635       -11.3916
  62   2.0000      -0.408431       -11.1140
  63   2.0000      -0.350016        -9.5244
  64   2.0000      -0.336709        -9.1623
  65   2.0000      -0.328732        -8.9453
  66   2.0000      -0.294093        -8.0027
  67   0.0000       0.030578         0.8321
  68   0.0000       0.076309         2.0765
  69   0.0000       0.115710         3.1486
  70   0.0000       0.117707         3.2030
  71   0.0000       0.134720         3.6659

MULLIKEN ATOMIC CHARGES
-----------------------
   0 S :    0.122634
   1 C :   -0.148126
   2 C :   -0.030315
   3 C :   -0.003820
   4 C :   -0.119920
   5 H :    0.021972
   6 C :    0.048327
   7 H :    0.026098
   8 H :    0.022993
   9 C :   -0.077162
  10 H :    0.033423
  11 H :    0.019478
  12 C :   -0.061542
  13 H :    0.034519
  14 H :    0.040087
  15 H :    0.041288
  16 S :    0.101024
  17 C :   -0.086441
  18 C :   -0.034506
  19 C :   -0.019981
  20 C :   -0.178825
  21 H :    0.010968
  22 C :    0.068856
  23 H :    0.030691
  24 H :   -0.006585
  25 C :   -0.063938
  26 H :    0.019378
  27 H :    0.026228
  28 C :   -0.071901
  29 H :    0.028232
  30 H :    0.056358
  31 H :    0.040492
  32 H :    0.052419
  33 H :    0.057599
Sum of atomic charges:    0.0000000

LOEWDIN ATOMIC CHARGES
----------------------
   0 S :    0.421704
   1 C :   -0.196006
   2 C :   -0.069563
   3 C :   -0.068487
   4 C :   -0.201523
   5 H :    0.033269
   6 C :   -0.032869
   7 H :    0.026063
   8 H :    0.036072
   9 C :   -0.042595
  10 H :    0.018644
  11 H :    0.019445
  12 C :   -0.067631
  13 H :    0.025060
  14 H :    0.030320
  15 H :    0.032606
  16 S :    0.410392
  17 C :   -0.194346
  18 C :   -0.075484
  19 C :   -0.050944
  20 C :   -0.184122
  21 H :    0.028790
  22 C :   -0.034101
  23 H :    0.032843
  24 H :    0.014686
  25 C :   -0.045534
  26 H :    0.015871
  27 H :    0.029679
  28 C :   -0.071778
  29 H :    0.028240
  30 H :    0.030526
  31 H :    0.031038
  32 H :    0.036259
  33 H :    0.033478

  Mayer bond orders larger than 0.100000
B(  0-S ,  1-C ) :   1.1433 B(  0-S ,  4-C ) :   1.1518 B(  1-C ,  2-C ) :   1.6153
B(  1-C , 32-H ) :   0.9659 B(  2-C ,  3-C ) :   1.2726 B(  2-C ,  6-C ) :   1.0050
B(  3-C ,  4-C ) :   1.5624 B(  3-C ,  5-H ) :   0.9841 B(  4-C , 20-C ) :   1.0105
B(  6-C ,  7-H ) :   0.9301 B(  6-C ,  8-H ) :   0.9411 B(  6-C ,  9-C ) :   1.0790
B(  9-C , 10-H ) :   0.9463 B(  9-C , 11-H ) :   0.9579 B(  9-C , 12-C ) :   1.0790
B( 12-C , 13-H ) :   0.9757 B( 12-C , 14-H ) :   0.9757 B( 12-C , 15-H ) :   0.9740
B( 16-S , 17-C ) :   1.1371 B( 16-S , 20-C ) :   1.1526 B( 17-C , 18-C ) :   1.6695
B( 17-C , 33-H ) :   0.9598 B( 18-C , 19-C ) :   1.1867 B( 18-C , 21-H ) :   0.9924
B( 19-C , 20-C ) :   1.6136 B( 19-C , 22-C ) :   1.0123 B( 22-C , 23-H ) :   0.9389
B( 22-C , 24-H ) :   0.9314 B( 22-C , 25-C ) :   1.0766 B( 25-C , 26-H ) :   0.9552
B( 25-C , 27-H ) :   0.9527 B( 25-C , 28-C ) :   1.0653 B( 28-C , 29-H ) :   0.9724
B( 28-C , 30-H ) :   0.9789 B( 28-C , 31-H ) :   0.9744

Dispersion correction           -0.013776115
FINAL SINGLE POINT ENERGY     -1339.867255951833

DIPOLE MOMENT
-------------
                                X             Y             Z
Electronic contribution:     11.22609      -8.86779       2.99131
Nuclear contribution   :    -11.56117       9.21432      -3.02495
                        -----------------------------------------
Total Dipole Moment    :     -0.33508       0.34653      -0.03364
                        -----------------------------------------
Magnitude (a.u.)       :      0.48322
Magnitude (Debye)      :      1.22824

Rotational constants in cm-1:     0.021809     0.007400     0.006315
Rotational constants in MHz :   653.806720   221.853328   189.330025

                             ****ORCA TERMINATED NORMALLY****
TOTAL RUN TIME: 0 days 0 hours 0 minutes 32 seconds 955 msec
