                         Program Version 4.2.1 -  RELEASE  -
|  1> ! wB97X-D3 SP def2-SVP
|  2> %pal
|  3> nprocs 16
|  4> end
|  5>
|  6> * xyz 0 1
|  7> S 	 -8.76781 	 63.1191 	 56.0027
|  8> C 	 -7.26315 	 62.7814 	 56.8834
|  9> C 	 -7.44377 	 61.975 	 57.9935
| 10> C 	 -8.82933 	 61.6168 	 58.0725
| 11> C 	 -9.64557 	 62.2287 	 57.1352
| 12> H 	 -9.24369 	 61.1713 	 58.9622
| 13> C 	 -6.38529 	 61.508 	 58.9725
| 14> H 	 -6.12557 	 62.3349 	 59.5857
| 15> H 	 -5.50033 	 61.3121 	 58.3638
| 16> C 	 -6.68193 	 60.2629 	 59.8895
| 17> H 	 -5.94333 	 60.0828 	 60.6566
| 18> H 	 -7.62903 	 60.4541 	 60.4153
| 19> C 	 -6.6937 	 58.9648 	 59.1407
| 20> H 	 -5.82138 	 58.6285 	 58.6656
| 21> H 	 -7.04086 	 58.1344 	 59.817
| 22> H 	 -7.48704 	 59.0697 	 58.3926
| 23> S 	 -11.6895 	 60.5634 	 57.1852
| 24> C 	 -13.3292 	 61.1826 	 56.9185
| 25> C 	 -13.3842 	 62.5392 	 56.7354
| 26> C 	 -12.1068 	 63.0743 	 56.8537
| 27> C 	 -11.1007 	 62.1861 	 57.1143
| 28> H 	 -14.3876 	 63.0701 	 56.6456
| 29> C 	 -11.8139 	 64.5656 	 56.8396
| 30> H 	 -11.9866 	 64.9336 	 55.7998
| 31> H 	 -10.8346 	 64.8472 	 57.1792
| 32> C 	 -12.7785 	 65.3642 	 57.7605
| 33> H 	 -13.7864 	 65.2758 	 57.3597
| 34> H 	 -12.6398 	 66.4844 	 57.6428
| 35> C 	 -12.5579 	 65.2005 	 59.2839
| 36> H 	 -11.4955 	 65.2416 	 59.4884
| 37> H 	 -12.822 	 64.1857 	 59.5359
| 38> H 	 -13.0954 	 65.8816 	 59.9327
| 39> H 	 -6.30963 	 62.9478 	 56.3553
| 40> H 	 -14.2453 	 60.5025 	 57.0605
| 41> *
| 42>
| 43>                          ****END OF INPUT****

CARTESIAN COORDINATES (ANGSTROEM)
---------------------------------
  S     -8.767810   63.119100   56.002700
  C     -7.263150   62.781400   56.883400
  C     -7.443770   61.975000   57.993500
  C     -8.829330   61.616800   58.072500
  C     -9.645570   62.228700   57.135200
  H     -9.243690   61.171300   58.962200
  C     -6.385290   61.508000   58.972500
  H     -6.125570   62.334900   59.585700
  H     -5.500330   61.312100   58.363800
  C     -6.681930   60.262900   59.889500
  H     -5.943330   60.082800   60.656600
  H     -7.629030   60.454100   60.415300
  C     -6.693700   58.964800   59.140700
  H     -5.821380   58.628500   58.665600
  H     -7.040860   58.134400   59.817000
  H     -7.487040   59.069700   58.392600
  S    -11.689500   60.563400   57.185200
  C    -13.329200   61.182600   56.918500
  C    -13.384200   62.539200   56.735400
  C    -12.106800   63.074300   56.853700
  C    -11.100700   62.186100   57.114300
  H    -14.387600   63.070100   56.645600
  C    -11.813900   64.565600   56.839600
  H    -11.986600   64.933600   55.799800
  H    -10.834600   64.847200   57.179200
  C    -12.778500   65.364200   57.760500
  H    -13.786400   65.275800   57.359700
  H    -12.639800   66.484400   57.642800
  C    -12.557900   65.200500   59.283900
  H    -11.495500   65.241600   59.488400
  H    -12.822000   64.185700   59.535900
  H    -13.095400   65.881600   59.932700
  H     -6.309630   62.947800   56.355300
  H    -14.245300   60.502500   57.060500

 Total Charge           Charge          ....    0
 Multiplicity           Mult            ....    1
 Number of Electrons    NEL             ....  134
 Basis Dimension        Dim             ....  322

ORBITAL ENERGIES
----------------

  NO   OCC          E(Eh)            E(eV)
   0   2.0000     -88.967768     -2420.9360
   1   2.0000     -88.964041     -2420.8346
   2   2.0000     -10.327140      -281.0158
   3   2.0000     -10.322641      -280.8933
   4   2.0000     -10.320102      -280.8243
   5   2.0000     -10.313798      -280.6527
   6   2.0000     -10.305837      -280.4361
   7   2.0000     -10.299024      -280.2507
   8   2.0000     -10.298532      -280.2373
   9   2.0000     -10.294601      -280.1303
  10   2.0000     -10.290552      -280.0202
  11   2.0000     -10.290432      -280.0169
  12   2.0000     -10.290174      -280.0099
  13   2.0000     -10.287514      -279.9375
  14   2.0000     -10.272239      -279.5218
  15   2.0000     -10.272103      -279.5181
  16   2.0000      -8.083020      -219.9502
  17   2.0000      -8.078983      -219.8403
  18   2.0000      -6.041326      -164.3928
  19   2.0000      -6.037425      -164.2867
  20   2.0000      -6.037405      -164.2862
  21   2.0000      -6.033991      -164.1932
  22   2.0000      -6.033533      -164.1808
  23   2.0000      -6.029739      -164.0775
  24   2.0000      -1.015085       -27.6219
  25   2.0000      -0.989213       -26.9179
  26   2.0000      -0.913849       -24.8671
  27   2.0000      -0.904024       -24.5997
  28   2.0000      -0.873879       -23.7794
  29   2.0000      -0.854098       -23.2412
  30   2.0000      -0.840930       -22.8829
  31   2.0000      -0.814207       -22.1557
  32   2.0000      -0.786369       -21.3982
  33   2.0000      -0.771615       -20.9967
  34   2.0000      -0.708042       -19.2668
  35   2.0000      -0.697722       -18.9860
  36   2.0000      -0.685771       -18.6608
  37   2.0000      -0.662672       -18.0322
  38   2.0000      -0.634914       -17.2769
  39   2.0000      -0.621738       -16.9183
  40   2.0000      -0.596966       -16.2443
  41   2.0000      -0.564756       -15.3678
  42   2.0000      -0.555123       -15.1057
  43   2.0000      -0.552774       -15.0418
  44   2.0000      -0.543691       -14.7946
  45   2.0000      -0.533600       -14.5200
  46   2.0000      -0.517203       -14.0738
  47   2.0000      -0.510934       -13.9032
  48   2.0000      -0.506028       -13.7697
  49   2.0000      -0.492291       -13.3959
  50   2.0000      -0.487383       -13.2624
  51   2.0000      -0.479565       -13.0496
  52   2.0000      -0.469908       -12.7868
  53   2.0000      -0.467181       -12.7126
  54   2.0000      -0.459230       -12.4963
  55   2.0000      -0.448331       -12.1997
  56   2.0000      -0.446835       -12.1590
  57   2.0000      -0.441734       -12.0202
  58   2.0000      -0.435504       -11.8507
  59   2.0000      -0.423591       -11.5265
  60   2.0000      -0.419541       -11.4163
  61   2.0000      -0.413406       -11.2494
  62   2.0000      -0.397489       -10.8162
  63   2.0000      -0.351664        -9.5693
  64   2.0000      -0.334406        -9.0996
  65   2.0000      -0.330875        -9.0036
  66   2.0000      -0.289227        -7.8703
  67   0.0000       0.029443         0.8012
  68   0.0000       0.075459         2.0534
  69   0.0000       0.107827         2.9341
  70   0.0000       0.117371         3.1938
  71   0.0000       0.131332         3.5737

MULLIKEN ATOMIC CHARGES
-----------------------
   0 S :    0.124854
   1 C :   -0.161431
   2 C :   -0.086036
   3 C :    0.006267
   4 C :   -0.133732
   5 H :    0.011432
   6 C :    0.084504
   7 H :    0.040550
   8 H :    0.023351
   9 C :   -0.075757
  10 H :    0.027553
  11 H :    0.035479
  12 C :   -0.049265
  13 H :    0.027582
  14 H :    0.035301
  15 H :    0.026673
  16 S :    0.103687
  17 C :   -0.128854
  18 C :   -0.048735
  19 C :   -0.042488
  20 C :   -0.139691
  21 H :    0.053391
  22 C :    0.071317
  23 H :    0.040413
  24 H :    0.025264
  25 C :   -0.130205
  26 H :    0.019504
  27 H :    0.026653
  28 C :   -0.015219
  29 H :    0.023970
  30 H :    0.024324
  31 H :    0.039807
  32 H :    0.058566
  33 H :    0.080972
Sum of atomic charges:   -0.0000000

LOEWDIN ATOMIC CHARGES
----------------------
   0 S :    0.435596
   1 C :   -0.203692
   2 C :   -0.054121
   3 C :   -0.081838
   4 C :   -0.211241
   5 H :    0.025239
   6 C :   -0.028098
   7 H :    0.033811
   8 H :    0.033461
   9 C :   -0.041296
  10 H :    0.025873
  11 H :    0.026516
  12 C :   -0.066157
  13 H :    0.017141
  14 H :    0.033177
  15 H :    0.024936
  16 S :    0.412867
  17 C :   -0.184659
  18 C :   -0.079850
  19 C :   -0.070605
  20 C :   -0.201828
  21 H :    0.051524
  22 C :   -0.028944
  23 H :    0.038082
  24 H :    0.020452
  25 C :   -0.049897
  26 H :    0.014500
  27 H :    0.027635
  28 C :   -0.062792
  29 H :    0.026553
  30 H :    0.021895
  31 H :    0.026317
  32 H :    0.027987
  33 H :    0.041456

  Mayer bond orders larger than 0.100000
B(  0-S ,  1-C ) :   1.1385 B(  0-S ,  4-C ) :   1.1793 B(  1-C ,  2-C ) :   1.6074
B(  1-C , 32-H ) :   0.9641 B(  2-C ,  3-C ) :   1.2765 B(  2-C ,  6-C ) :   0.9965
B(  3-C ,  4-C ) :   1.5347 B(  3-C ,  5-H ) :   0.9819 B(  4-C , 20-C ) :   1.0135
B(  6-C ,  7-H ) :   0.9335 B(  6-C ,  8-H ) :   0.9402 B(  6-C ,  9-C ) :   1.0803
B(  9-C , 10-H ) :   0.9549 B(  9-C , 11-H ) :   0.9496 B(  9-C , 12-C ) :   1.0817
B( 12-C , 13-H ) :   0.9758 B( 12-C , 14-H ) :   0.9710 B( 12-C , 15-H ) :   0.9750
B( 16-S , 17-C ) :   1.1609 B( 16-S , 20-C ) :   1.1418 B( 17-C , 18-C ) :   1.6129
B( 17-C , 20-C ) :   0.1017 B( 17-C , 33-H ) :   0.9537 B( 18-C , 19-C ) :   1.2319
B( 18-C , 21-H ) :   0.9804 B( 19-C , 20-C ) :   1.6166 B( 19-C , 22-C ) :   1.0299
B( 22-C , 23-H ) :   0.9293 B( 22-C , 24-H ) :   0.9468 B( 22-C , 25-C ) :   1.0790
B( 25-C , 26-H ) :   0.9560 B( 25-C , 27-H ) :   0.9571 B( 25-C , 28-C ) :   1.0569
B( 28-C , 29-H ) :   0.9708 B( 28-C , 30-H ) :   0.9762 B( 28-C , 31-H ) :   0.9776

Dispersion correction           -0.014651055
FINAL SINGLE POINT ENERGY     -1339.874835911939

DIPOLE MOMENT
-------------
                                X             Y             Z
Electronic contribution:     -4.09329      -3.64155     -14.57297
Nuclear contribution   :      4.14854       3.74323      14.92355
                        -----------------------------------------
Total Dipole Moment    :      0.05525       0.10168       0.35058
                        -----------------------------------------
Magnitude (a.u.)       :      0.36919
Magnitude (Debye)      :      0.93841

Rotational constants in cm-1:     0.021020     0.008331     0.007394
Rotational constants in MHz :   630.176107   249.750383   221.679360

                             ****ORCA TERMINATED NORMALLY****
TOTAL RUN TIME: 0 days 0 hours 0 minutes 32 seconds 123 msec
