                         Program Version 4.2.1 -  RELEASE  -
|  1> ! wB97X-D3 SP def2-SVP
|  2> %pal
|  3> nprocs 16
|  4> end
|  5>
|  6> * xyz 0 1
|  7> S 	 -48.053 	 56.2394 	 96.5586
|  8> C 	 -49.4098 	 55.3669 	 97.2568
|  9> C 	 -49.0143 	 54.169 	 97.7547
| 10> C 	 -47.5994 	 54.1084 	 97.9046
| 11> C 	 -46.9618 	 55.1284 	 97.2352
| 12> H 	 -47.0583 	 53.3692 	 98.4236
| 13> C 	 -49.9337 	 53.0865 	 98.3809
| 14> H 	 -50.9014 	 53.5488 	 98.5819
| 15> H 	 -49.5715 	 52.9105 	 99.4154
| 16> C 	 -49.9104 	 51.8416 	 97.4707
| 17> H 	 -50.2733 	 52.0431 	 96.4543
| 18> H 	 -48.8314 	 51.4661 	 97.3486
| 19> C 	 -50.5951 	 50.6255 	 98.0111
| 20> H 	 -51.6226 	 50.9744 	 98.0502
| 21> H 	 -50.5149 	 49.7756 	 97.3374
| 22> H 	 -50.2023 	 50.283 	 98.9991
| 23> S 	 -44.9898 	 55.9962 	 95.6055
| 24> C 	 -43.3388 	 56.1109 	 96.0741
| 25> C 	 -43.158 	 55.3899 	 97.2281
| 26> C 	 -44.4108 	 55.0055 	 97.9249
| 27> C 	 -45.5245 	 55.2877 	 97.1423
| 28> H 	 -42.155 	 55.239 	 97.5333
| 29> C 	 -44.5618 	 54.5133 	 99.369
| 30> H 	 -44.2402 	 53.4886 	 99.3693
| 31> H 	 -45.6114 	 54.5114 	 99.6189
| 32> C 	 -43.6114 	 55.0838 	 100.342
| 33> H 	 -42.5297 	 55.09 	 100.122
| 34> H 	 -43.7482 	 54.4249 	 101.311
| 35> C 	 -44.0583 	 56.4514 	 100.874
| 36> H 	 -43.471 	 56.7054 	 101.753
| 37> H 	 -45.0713 	 56.3395 	 101.281
| 38> H 	 -44.0109 	 57.1773 	 100.095
| 39> H 	 -50.4255 	 55.7169 	 97.3131
| 40> H 	 -42.4941 	 56.438 	 95.4622
| 41> *
| 42>
| 43>                          ****END OF INPUT****

CARTESIAN COORDINATES (ANGSTROEM)
---------------------------------
  S    -48.053000   56.239400   96.558600
  C    -49.409800   55.366900   97.256800
  C    -49.014300   54.169000   97.754700
  C    -47.599400   54.108400   97.904600
  C    -46.961800   55.128400   97.235200
  H    -47.058300   53.369200   98.423600
  C    -49.933700   53.086500   98.380900
  H    -50.901400   53.548800   98.581900
  H    -49.571500   52.910500   99.415400
  C    -49.910400   51.841600   97.470700
  H    -50.273300   52.043100   96.454300
  H    -48.831400   51.466100   97.348600
  C    -50.595100   50.625500   98.011100
  H    -51.622600   50.974400   98.050200
  H    -50.514900   49.775600   97.337400
  H    -50.202300   50.283000   98.999100
  S    -44.989800   55.996200   95.605500
  C    -43.338800   56.110900   96.074100
  C    -43.158000   55.389900   97.228100
  C    -44.410800   55.005500   97.924900
  C    -45.524500   55.287700   97.142300
  H    -42.155000   55.239000   97.533300
  C    -44.561800   54.513300   99.369000
  H    -44.240200   53.488600   99.369300
  H    -45.611400   54.511400   99.618900
  C    -43.611400   55.083800  100.342000
  H    -42.529700   55.090000  100.122000
  H    -43.748200   54.424900  101.311000
  C    -44.058300   56.451400  100.874000
  H    -43.471000   56.705400  101.753000
  H    -45.071300   56.339500  101.281000
  H    -44.010900   57.177300  100.095000
  H    -50.425500   55.716900   97.313100
  H    -42.494100   56.438000   95.462200

 Total Charge           Charge          ....    0
 Multiplicity           Mult            ....    1
 Number of Electrons    NEL             ....  134
 Basis Dimension        Dim             ....  322

ORBITAL ENERGIES
----------------

  NO   OCC          E(Eh)            E(eV)
   0   2.0000     -88.967314     -2420.9237
   1   2.0000     -88.957249     -2420.6498
   2   2.0000     -10.327161      -281.0163
   3   2.0000     -10.325908      -280.9822
   4   2.0000     -10.315050      -280.6868
   5   2.0000     -10.311406      -280.5876
   6   2.0000     -10.309438      -280.5341
   7   2.0000     -10.301100      -280.3072
   8   2.0000     -10.300210      -280.2830
   9   2.0000     -10.295456      -280.1536
  10   2.0000     -10.292861      -280.0830
  11   2.0000     -10.291511      -280.0463
  12   2.0000     -10.289072      -279.9799
  13   2.0000     -10.288616      -279.9675
  14   2.0000     -10.278074      -279.6806
  15   2.0000     -10.268298      -279.4146
  16   2.0000      -8.082871      -219.9461
  17   2.0000      -8.072625      -219.6673
  18   2.0000      -6.041431      -164.3957
  19   2.0000      -6.037308      -164.2835
  20   2.0000      -6.033450      -164.1785
  21   2.0000      -6.031219      -164.1178
  22   2.0000      -6.027056      -164.0045
  23   2.0000      -6.023232      -163.9005
  24   2.0000      -1.013834       -27.5878
  25   2.0000      -0.985360       -26.8130
  26   2.0000      -0.916454       -24.9380
  27   2.0000      -0.913551       -24.8590
  28   2.0000      -0.875606       -23.8265
  29   2.0000      -0.855214       -23.2716
  30   2.0000      -0.838470       -22.8159
  31   2.0000      -0.817443       -22.2438
  32   2.0000      -0.785381       -21.3713
  33   2.0000      -0.777575       -21.1589
  34   2.0000      -0.706665       -19.2293
  35   2.0000      -0.692705       -18.8495
  36   2.0000      -0.690271       -18.7832
  37   2.0000      -0.654525       -17.8105
  38   2.0000      -0.639680       -17.4066
  39   2.0000      -0.624777       -17.0010
  40   2.0000      -0.597701       -16.2643
  41   2.0000      -0.568723       -15.4757
  42   2.0000      -0.564041       -15.3483
  43   2.0000      -0.554462       -15.0877
  44   2.0000      -0.543010       -14.7760
  45   2.0000      -0.530920       -14.4471
  46   2.0000      -0.525927       -14.3112
  47   2.0000      -0.524036       -14.2597
  48   2.0000      -0.508133       -13.8270
  49   2.0000      -0.504918       -13.7395
  50   2.0000      -0.492393       -13.3987
  51   2.0000      -0.483605       -13.1596
  52   2.0000      -0.471527       -12.8309
  53   2.0000      -0.463093       -12.6014
  54   2.0000      -0.457878       -12.4595
  55   2.0000      -0.451886       -12.2964
  56   2.0000      -0.438868       -11.9422
  57   2.0000      -0.436608       -11.8807
  58   2.0000      -0.433883       -11.8065
  59   2.0000      -0.424542       -11.5524
  60   2.0000      -0.419646       -11.4192
  61   2.0000      -0.407829       -11.0976
  62   2.0000      -0.394979       -10.7479
  63   2.0000      -0.358471        -9.7545
  64   2.0000      -0.333741        -9.0815
  65   2.0000      -0.321086        -8.7372
  66   2.0000      -0.287444        -7.8217
  67   0.0000       0.028829         0.7845
  68   0.0000       0.080350         2.1864
  69   0.0000       0.107942         2.9373
  70   0.0000       0.118916         3.2359
  71   0.0000       0.137440         3.7399

MULLIKEN ATOMIC CHARGES
-----------------------
   0 S :    0.127746
   1 C :   -0.125656
   2 C :   -0.073538
   3 C :    0.006560
   4 C :   -0.110051
   5 H :   -0.001935
   6 C :    0.076431
   7 H :    0.015149
   8 H :    0.029229
   9 C :   -0.115720
  10 H :    0.039608
  11 H :    0.036582
  12 C :   -0.026768
  13 H :    0.025830
  14 H :    0.036733
  15 H :    0.035545
  16 S :    0.071772
  17 C :   -0.084425
  18 C :   -0.038026
  19 C :   -0.065504
  20 C :   -0.141608
  21 H :    0.005662
  22 C :    0.129414
  23 H :    0.024881
  24 H :    0.021567
  25 C :   -0.152886
  26 H :    0.046556
  27 H :    0.030539
  28 C :   -0.019853
  29 H :    0.027600
  30 H :    0.021224
  31 H :    0.037936
  32 H :    0.042010
  33 H :    0.067398
Sum of atomic charges:    0.0000000

LOEWDIN ATOMIC CHARGES
----------------------
   0 S :    0.425177
   1 C :   -0.193146
   2 C :   -0.057365
   3 C :   -0.060851
   4 C :   -0.208981
   5 H :    0.021992
   6 C :   -0.028808
   7 H :    0.026039
   8 H :    0.033803
   9 C :   -0.048704
  10 H :    0.029167
  11 H :    0.030839
  12 C :   -0.068063
  13 H :    0.023355
  14 H :    0.026541
  15 H :    0.027400
  16 S :    0.388157
  17 C :   -0.195546
  18 C :   -0.071811
  19 C :   -0.056604
  20 C :   -0.180284
  21 H :    0.022389
  22 C :   -0.035308
  23 H :    0.035894
  24 H :    0.031535
  25 C :   -0.049831
  26 H :    0.027458
  27 H :    0.033727
  28 C :   -0.062188
  29 H :    0.023664
  30 H :    0.025238
  31 H :    0.019700
  32 H :    0.027400
  33 H :    0.038016

  Mayer bond orders larger than 0.100000
B(  0-S ,  1-C ) :   1.1213 B(  0-S ,  4-C ) :   1.1582 B(  1-C ,  2-C ) :   1.6309
B(  1-C , 32-H ) :   0.9716 B(  2-C ,  3-C ) :   1.2236 B(  2-C ,  6-C ) :   1.0199
B(  3-C ,  4-C ) :   1.5589 B(  3-C ,  5-H ) :   0.9998 B(  4-C , 20-C ) :   1.0553
B(  6-C ,  7-H ) :   0.9434 B(  6-C ,  8-H ) :   0.9447 B(  6-C ,  9-C ) :   1.0431
B(  9-C , 10-H ) :   0.9551 B(  9-C , 11-H ) :   0.9594 B(  9-C , 12-C ) :   1.0858
B( 12-C , 13-H ) :   0.9727 B( 12-C , 14-H ) :   0.9734 B( 12-C , 15-H ) :   0.9736
B( 16-S , 17-C ) :   1.1416 B( 16-S , 20-C ) :   1.1246 B( 17-C , 18-C ) :   1.6475
B( 17-C , 33-H ) :   0.9635 B( 18-C , 19-C ) :   1.1890 B( 18-C , 21-H ) :   0.9931
B( 19-C , 20-C ) :   1.6175 B( 19-C , 22-C ) :   1.0399 B( 22-C , 23-H ) :   0.9127
B( 22-C , 24-H ) :   0.9347 B( 22-C , 25-C ) :   1.0727 B( 25-C , 26-H ) :   0.9530
B( 25-C , 27-H ) :   0.9544 B( 25-C , 28-C ) :   1.0785 B( 28-C , 29-H ) :   0.9750
B( 28-C , 30-H ) :   0.9724 B( 28-C , 31-H ) :   0.9778

Dispersion correction           -0.013718490
FINAL SINGLE POINT ENERGY     -1339.864095312676

DIPOLE MOMENT
-------------
                                X             Y             Z
Electronic contribution:      4.00287      15.91358     -19.66226
Nuclear contribution   :     -4.01843     -16.40261      20.18870
                        -----------------------------------------
Total Dipole Moment    :     -0.01556      -0.48903       0.52644
                        -----------------------------------------
Magnitude (a.u.)       :      0.71870
Magnitude (Debye)      :      1.82679

Rotational constants in cm-1:     0.019418     0.007917     0.006715
Rotational constants in MHz :   582.137940   237.336310   201.320382

                             ****ORCA TERMINATED NORMALLY****
TOTAL RUN TIME: 0 days 0 hours 0 minutes 29 seconds 516 msec
