                         Program Version 4.2.1 -  RELEASE  -
|  1> ! wB97X-D3 SP def2-SVP
|  2> %pal
|  3> nprocs 16
|  4> end
|  5>
|  6> * xyz 0 1
|  7> S 	 -10.8118 	 64.6352 	 53.1547
|  8> C 	 -11.4164 	 62.9912 	 52.9176
|  9> C 	 -10.2989 	 62.1822 	 52.7637
| 10> C 	 -9.05551 	 62.8078 	 52.6831
| 11> C 	 -9.15179 	 64.21 	 52.985
| 12> H 	 -8.24256 	 62.2869 	 52.2948
| 13> C 	 -10.389 	 60.7123 	 52.5284
| 14> H 	 -9.60941 	 60.6142 	 51.8358
| 15> H 	 -11.3238 	 60.439 	 51.9919
| 16> C 	 -10.2112 	 59.8837 	 53.781
| 17> H 	 -9.27587 	 60.1925 	 54.2592
| 18> H 	 -11.0227 	 60.0945 	 54.4681
| 19> C 	 -10.352 	 58.2966 	 53.6526
| 20> H 	 -9.48704 	 57.849 	 53.088
| 21> H 	 -10.303 	 57.888 	 54.6361
| 22> H 	 -11.3049 	 58.0002 	 53.2016
| 23> S 	 -7.44236 	 65.5258 	 51.404
| 24> C 	 -6.61118 	 66.8972 	 52.026
| 25> C 	 -6.87144 	 67.0634 	 53.3956
| 26> C 	 -7.71213 	 66.0506 	 53.8938
| 27> C 	 -8.13158 	 65.2174 	 52.9115
| 28> H 	 -6.32252 	 67.776 	 53.9582
| 29> C 	 -7.92669 	 65.8076 	 55.3781
| 30> H 	 -9.06311 	 65.6014 	 55.4287
| 31> H 	 -7.75935 	 66.7054 	 55.9472
| 32> C 	 -7.24738 	 64.6669 	 56.065
| 33> H 	 -6.19729 	 64.5167 	 55.7396
| 34> H 	 -7.71013 	 63.7831 	 55.6279
| 35> C 	 -7.2101 	 64.6597 	 57.5825
| 36> H 	 -6.96996 	 63.6866 	 57.9702
| 37> H 	 -8.16053 	 65.0164 	 57.9967
| 38> H 	 -6.53764 	 65.3954 	 58.0143
| 39> H 	 -12.447 	 62.6815 	 52.9379
| 40> H 	 -5.95536 	 67.5284 	 51.3907
| 41> *
| 42>
| 43>                          ****END OF INPUT****

CARTESIAN COORDINATES (ANGSTROEM)
---------------------------------
  S    -10.811800   64.635200   53.154700
  C    -11.416400   62.991200   52.917600
  C    -10.298900   62.182200   52.763700
  C     -9.055510   62.807800   52.683100
  C     -9.151790   64.210000   52.985000
  H     -8.242560   62.286900   52.294800
  C    -10.389000   60.712300   52.528400
  H     -9.609410   60.614200   51.835800
  H    -11.323800   60.439000   51.991900
  C    -10.211200   59.883700   53.781000
  H     -9.275870   60.192500   54.259200
  H    -11.022700   60.094500   54.468100
  C    -10.352000   58.296600   53.652600
  H     -9.487040   57.849000   53.088000
  H    -10.303000   57.888000   54.636100
  H    -11.304900   58.000200   53.201600
  S     -7.442360   65.525800   51.404000
  C     -6.611180   66.897200   52.026000
  C     -6.871440   67.063400   53.395600
  C     -7.712130   66.050600   53.893800
  C     -8.131580   65.217400   52.911500
  H     -6.322520   67.776000   53.958200
  C     -7.926690   65.807600   55.378100
  H     -9.063110   65.601400   55.428700
  H     -7.759350   66.705400   55.947200
  C     -7.247380   64.666900   56.065000
  H     -6.197290   64.516700   55.739600
  H     -7.710130   63.783100   55.627900
  C     -7.210100   64.659700   57.582500
  H     -6.969960   63.686600   57.970200
  H     -8.160530   65.016400   57.996700
  H     -6.537640   65.395400   58.014300
  H    -12.447000   62.681500   52.937900
  H     -5.955360   67.528400   51.390700

 Total Charge           Charge          ....    0
 Multiplicity           Mult            ....    1
 Number of Electrons    NEL             ....  134
 Basis Dimension        Dim             ....  322

ORBITAL ENERGIES
----------------

  NO   OCC          E(Eh)            E(eV)
   0   2.0000     -88.968428     -2420.9540
   1   2.0000     -88.967613     -2420.9318
   2   2.0000     -10.331901      -281.1453
   3   2.0000     -10.319298      -280.8024
   4   2.0000     -10.313860      -280.6544
   5   2.0000     -10.313774      -280.6521
   6   2.0000     -10.296383      -280.1788
   7   2.0000     -10.293719      -280.1063
   8   2.0000     -10.291452      -280.0447
   9   2.0000     -10.291266      -280.0396
  10   2.0000     -10.289778      -279.9991
  11   2.0000     -10.287723      -279.9432
  12   2.0000     -10.283345      -279.8240
  13   2.0000     -10.282645      -279.8050
  14   2.0000     -10.278520      -279.6928
  15   2.0000     -10.274474      -279.5827
  16   2.0000      -8.084041      -219.9779
  17   2.0000      -8.082658      -219.9403
  18   2.0000      -6.042239      -164.4177
  19   2.0000      -6.041120      -164.3872
  20   2.0000      -6.038217      -164.3082
  21   2.0000      -6.036908      -164.2726
  22   2.0000      -6.035117      -164.2239
  23   2.0000      -6.033814      -164.1884
  24   2.0000      -1.018534       -27.7157
  25   2.0000      -0.990104       -26.9421
  26   2.0000      -0.914054       -24.8727
  27   2.0000      -0.910294       -24.7704
  28   2.0000      -0.868439       -23.6314
  29   2.0000      -0.857184       -23.3252
  30   2.0000      -0.847129       -23.0516
  31   2.0000      -0.811169       -22.0730
  32   2.0000      -0.785308       -21.3693
  33   2.0000      -0.772491       -21.0206
  34   2.0000      -0.707449       -19.2507
  35   2.0000      -0.701100       -19.0779
  36   2.0000      -0.691419       -18.8145
  37   2.0000      -0.671551       -18.2738
  38   2.0000      -0.643498       -17.5105
  39   2.0000      -0.619038       -16.8449
  40   2.0000      -0.597659       -16.2631
  41   2.0000      -0.568587       -15.4720
  42   2.0000      -0.560779       -15.2596
  43   2.0000      -0.556673       -15.1478
  44   2.0000      -0.528444       -14.3797
  45   2.0000      -0.523210       -14.2373
  46   2.0000      -0.521006       -14.1773
  47   2.0000      -0.514057       -13.9882
  48   2.0000      -0.510420       -13.8892
  49   2.0000      -0.502100       -13.6628
  50   2.0000      -0.496655       -13.5147
  51   2.0000      -0.483396       -13.1539
  52   2.0000      -0.472139       -12.8475
  53   2.0000      -0.463007       -12.5991
  54   2.0000      -0.460180       -12.5221
  55   2.0000      -0.452865       -12.3231
  56   2.0000      -0.444651       -12.0996
  57   2.0000      -0.441937       -12.0257
  58   2.0000      -0.431709       -11.7474
  59   2.0000      -0.430519       -11.7150
  60   2.0000      -0.426722       -11.6117
  61   2.0000      -0.403027       -10.9669
  62   2.0000      -0.395223       -10.7546
  63   2.0000      -0.338445        -9.2096
  64   2.0000      -0.331722        -9.0266
  65   2.0000      -0.330411        -8.9910
  66   2.0000      -0.297002        -8.0818
  67   0.0000       0.034499         0.9388
  68   0.0000       0.059936         1.6309
  69   0.0000       0.114420         3.1135
  70   0.0000       0.122866         3.3433
  71   0.0000       0.133253         3.6260

MULLIKEN ATOMIC CHARGES
-----------------------
   0 S :    0.124683
   1 C :   -0.125214
   2 C :   -0.111396
   3 C :    0.046180
   4 C :   -0.154583
   5 H :   -0.004996
   6 C :    0.094201
   7 H :    0.001536
   8 H :    0.018205
   9 C :   -0.071883
  10 H :    0.027690
  11 H :    0.023890
  12 C :   -0.052950
  13 H :    0.038412
  14 H :    0.031618
  15 H :    0.036204
  16 S :    0.144557
  17 C :   -0.121411
  18 C :   -0.020625
  19 C :   -0.022312
  20 C :   -0.176543
  21 H :    0.006823
  22 C :    0.064314
  23 H :    0.033844
  24 H :    0.006524
  25 C :   -0.051333
  26 H :    0.021125
  27 H :    0.021896
  28 C :   -0.025085
  29 H :    0.036144
  30 H :    0.018203
  31 H :    0.025486
  32 H :    0.047624
  33 H :    0.069170
Sum of atomic charges:   -0.0000000

LOEWDIN ATOMIC CHARGES
----------------------
   0 S :    0.433584
   1 C :   -0.200405
   2 C :   -0.062882
   3 C :   -0.064398
   4 C :   -0.198844
   5 H :    0.021697
   6 C :   -0.033022
   7 H :    0.021140
   8 H :    0.030453
   9 C :   -0.037398
  10 H :    0.024662
  11 H :    0.024024
  12 C :   -0.066386
  13 H :    0.027605
  14 H :    0.022650
  15 H :    0.025108
  16 S :    0.458914
  17 C :   -0.199125
  18 C :   -0.063701
  19 C :   -0.059102
  20 C :   -0.233863
  21 H :    0.026541
  22 C :   -0.036179
  23 H :    0.038231
  24 H :    0.021568
  25 C :   -0.049802
  26 H :    0.024902
  27 H :    0.025233
  28 C :   -0.061446
  29 H :    0.027956
  30 H :    0.023864
  31 H :    0.024659
  32 H :    0.029775
  33 H :    0.033986

  Mayer bond orders larger than 0.100000
B(  0-S ,  1-C ) :   1.1419 B(  0-S ,  4-C ) :   1.2035 B(  1-C ,  2-C ) :   1.5523
B(  1-C ,  4-C ) :   0.1154 B(  1-C , 32-H ) :   0.9791 B(  2-C ,  3-C ) :   1.3081
B(  2-C ,  6-C ) :   1.0179 B(  3-C ,  4-C ) :   1.4749 B(  3-C ,  5-H ) :   1.0003
B(  4-C , 20-C ) :   1.0251 B(  6-C ,  7-H ) :   0.9348 B(  6-C ,  8-H ) :   0.9407
B(  6-C ,  9-C ) :   1.0651 B(  9-C , 10-H ) :   0.9554 B(  9-C , 11-H ) :   0.9573
B(  9-C , 12-C ) :   1.0742 B( 12-C , 13-H ) :   0.9781 B( 12-C , 14-H ) :   0.9770
B( 12-C , 15-H ) :   0.9755 B( 16-S , 17-C ) :   1.1836 B( 16-S , 20-C ) :   1.1720
B( 17-C , 18-C ) :   1.5608 B( 17-C , 20-C ) :   0.1003 B( 17-C , 33-H ) :   0.9663
B( 18-C , 19-C ) :   1.2768 B( 18-C , 21-H ) :   0.9986 B( 19-C , 20-C ) :   1.5642
B( 19-C , 22-C ) :   1.0516 B( 22-C , 23-H ) :   0.9113 B( 22-C , 24-H ) :   0.9378
B( 22-C , 25-C ) :   1.0691 B( 25-C , 26-H ) :   0.9527 B( 25-C , 27-H ) :   0.9470
B( 25-C , 28-C ) :   1.0859 B( 28-C , 29-H ) :   0.9729 B( 28-C , 30-H ) :   0.9735
B( 28-C , 31-H ) :   0.9719

Dispersion correction           -0.014167864
FINAL SINGLE POINT ENERGY     -1339.873062994750

DIPOLE MOMENT
-------------
                                X             Y             Z
Electronic contribution:     -1.39161      19.85176     -17.78311
Nuclear contribution   :      1.54832     -20.14463      17.93622
                        -----------------------------------------
Total Dipole Moment    :      0.15671      -0.29287       0.15310
                        -----------------------------------------
Magnitude (a.u.)       :      0.36575
Magnitude (Debye)      :      0.92966

Rotational constants in cm-1:     0.018598     0.008264     0.006919
Rotational constants in MHz :   557.567827   247.737916   207.426672

                             ****ORCA TERMINATED NORMALLY****
TOTAL RUN TIME: 0 days 0 hours 0 minutes 31 seconds 288 msec
