                         Program Version 4.2.1 -  RELEASE  -
|  1> ! wB97X-D3 SP def2-SVP
|  2> %pal
|  3> nprocs 16
|  4> end
|  5>
|  6> * xyz 0 1
|  7> S 	 -95.9856 	 37.5025 	 125.421
|  8> C 	 -95.7687 	 36.6815 	 123.783
|  9> C 	 -95.828 	 37.6127 	 122.751
| 10> C 	 -96.0011 	 38.9038 	 123.191
| 11> C 	 -96.2588 	 39.0246 	 124.561
| 12> H 	 -96.2233 	 39.6661 	 122.49
| 13> C 	 -95.5328 	 37.2776 	 121.262
| 14> H 	 -94.8758 	 36.3416 	 121.305
| 15> H 	 -94.863 	 38.131 	 120.981
| 16> C 	 -96.753 	 37.1827 	 120.235
| 17> H 	 -96.3955 	 36.7542 	 119.324
| 18> H 	 -97.4647 	 36.4305 	 120.627
| 19> C 	 -97.467 	 38.5334 	 119.926
| 20> H 	 -97.94 	 38.9351 	 120.795
| 21> H 	 -96.7811 	 39.3895 	 119.683
| 22> H 	 -98.2616 	 38.4751 	 119.197
| 23> S 	 -97.068 	 40.0617 	 126.996
| 24> C 	 -97.5411 	 41.739 	 127.131
| 25> C 	 -97.0151 	 42.3845 	 126.078
| 26> C 	 -96.5973 	 41.6122 	 124.969
| 27> C 	 -96.6894 	 40.2413 	 125.291
| 28> H 	 -97.0943 	 43.5112 	 126.102
| 29> C 	 -96.0169 	 42.219 	 123.767
| 30> H 	 -95.1299 	 41.6387 	 123.53
| 31> H 	 -95.6505 	 43.2042 	 124.017
| 32> C 	 -97.0658 	 42.4076 	 122.688
| 33> H 	 -97.6935 	 41.565 	 122.403
| 34> H 	 -96.6291 	 42.5971 	 121.735
| 35> C 	 -97.9138 	 43.6653 	 122.948
| 36> H 	 -98.3681 	 43.6815 	 123.947
| 37> H 	 -98.7048 	 43.7909 	 122.189
| 38> H 	 -97.3016 	 44.6182 	 123
| 39> H 	 -95.6433 	 35.6115 	 123.622
| 40> H 	 -98.0806 	 42.3607 	 127.894
| 41> *
| 42>
| 43>                          ****END OF INPUT****

CARTESIAN COORDINATES (ANGSTROEM)
---------------------------------
  S    -95.985600   37.502500  125.421000
  C    -95.768700   36.681500  123.783000
  C    -95.828000   37.612700  122.751000
  C    -96.001100   38.903800  123.191000
  C    -96.258800   39.024600  124.561000
  H    -96.223300   39.666100  122.490000
  C    -95.532800   37.277600  121.262000
  H    -94.875800   36.341600  121.305000
  H    -94.863000   38.131000  120.981000
  C    -96.753000   37.182700  120.235000
  H    -96.395500   36.754200  119.324000
  H    -97.464700   36.430500  120.627000
  C    -97.467000   38.533400  119.926000
  H    -97.940000   38.935100  120.795000
  H    -96.781100   39.389500  119.683000
  H    -98.261600   38.475100  119.197000
  S    -97.068000   40.061700  126.996000
  C    -97.541100   41.739000  127.131000
  C    -97.015100   42.384500  126.078000
  C    -96.597300   41.612200  124.969000
  C    -96.689400   40.241300  125.291000
  H    -97.094300   43.511200  126.102000
  C    -96.016900   42.219000  123.767000
  H    -95.129900   41.638700  123.530000
  H    -95.650500   43.204200  124.017000
  C    -97.065800   42.407600  122.688000
  H    -97.693500   41.565000  122.403000
  H    -96.629100   42.597100  121.735000
  C    -97.913800   43.665300  122.948000
  H    -98.368100   43.681500  123.947000
  H    -98.704800   43.790900  122.189000
  H    -97.301600   44.618200  123.000000
  H    -95.643300   35.611500  123.622000
  H    -98.080600   42.360700  127.894000

 Total Charge           Charge          ....    0
 Multiplicity           Mult            ....    1
 Number of Electrons    NEL             ....  134
 Basis Dimension        Dim             ....  322

ORBITAL ENERGIES
----------------

  NO   OCC          E(Eh)            E(eV)
   0   2.0000     -88.970804     -2421.0187
   1   2.0000     -88.965549     -2420.8757
   2   2.0000     -10.339102      -281.3413
   3   2.0000     -10.332543      -281.1628
   4   2.0000     -10.319810      -280.8163
   5   2.0000     -10.316497      -280.7262
   6   2.0000     -10.309389      -280.5327
   7   2.0000     -10.302153      -280.3358
   8   2.0000     -10.299875      -280.2738
   9   2.0000     -10.298599      -280.2391
  10   2.0000     -10.290973      -280.0316
  11   2.0000     -10.290300      -280.0133
  12   2.0000     -10.287472      -279.9364
  13   2.0000     -10.287075      -279.9255
  14   2.0000     -10.284765      -279.8627
  15   2.0000     -10.284016      -279.8423
  16   2.0000      -8.083622      -219.9665
  17   2.0000      -8.080232      -219.8743
  18   2.0000      -6.042308      -164.4196
  19   2.0000      -6.038957      -164.3284
  20   2.0000      -6.038603      -164.3187
  21   2.0000      -6.034969      -164.2199
  22   2.0000      -6.034114      -164.1966
  23   2.0000      -6.030540      -164.0993
  24   2.0000      -1.007770       -27.4228
  25   2.0000      -0.981902       -26.7189
  26   2.0000      -0.920747       -25.0548
  27   2.0000      -0.900720       -24.5098
  28   2.0000      -0.866507       -23.5788
  29   2.0000      -0.851400       -23.1678
  30   2.0000      -0.842095       -22.9146
  31   2.0000      -0.815133       -22.1809
  32   2.0000      -0.783051       -21.3079
  33   2.0000      -0.771876       -21.0038
  34   2.0000      -0.714996       -19.4560
  35   2.0000      -0.709459       -19.3053
  36   2.0000      -0.698353       -19.0032
  37   2.0000      -0.656347       -17.8601
  38   2.0000      -0.629883       -17.1400
  39   2.0000      -0.622070       -16.9274
  40   2.0000      -0.595790       -16.2123
  41   2.0000      -0.564433       -15.3590
  42   2.0000      -0.562003       -15.2929
  43   2.0000      -0.544272       -14.8104
  44   2.0000      -0.541235       -14.7277
  45   2.0000      -0.535376       -14.5683
  46   2.0000      -0.511712       -13.9244
  47   2.0000      -0.508942       -13.8490
  48   2.0000      -0.499409       -13.5896
  49   2.0000      -0.497921       -13.5491
  50   2.0000      -0.485846       -13.2205
  51   2.0000      -0.480476       -13.0744
  52   2.0000      -0.476664       -12.9707
  53   2.0000      -0.468336       -12.7441
  54   2.0000      -0.454204       -12.3595
  55   2.0000      -0.449560       -12.2332
  56   2.0000      -0.444843       -12.1048
  57   2.0000      -0.441519       -12.0143
  58   2.0000      -0.435867       -11.8605
  59   2.0000      -0.434739       -11.8298
  60   2.0000      -0.421320       -11.4647
  61   2.0000      -0.413457       -11.2507
  62   2.0000      -0.411709       -11.2032
  63   2.0000      -0.357311        -9.7229
  64   2.0000      -0.339629        -9.2418
  65   2.0000      -0.327119        -8.9014
  66   2.0000      -0.277631        -7.5547
  67   0.0000       0.010710         0.2914
  68   0.0000       0.073736         2.0064
  69   0.0000       0.089932         2.4472
  70   0.0000       0.126086         3.4310
  71   0.0000       0.127715         3.4753

MULLIKEN ATOMIC CHARGES
-----------------------
   0 S :    0.091691
   1 C :   -0.134089
   2 C :   -0.065533
   3 C :    0.007076
   4 C :   -0.101712
   5 H :   -0.016401
   6 C :   -0.009884
   7 H :    0.043491
   8 H :    0.041300
   9 C :   -0.028355
  10 H :    0.030903
  11 H :    0.038464
  12 C :   -0.067922
  13 H :    0.027782
  14 H :    0.031467
  15 H :    0.038914
  16 S :    0.087707
  17 C :   -0.092433
  18 C :   -0.062995
  19 C :   -0.066008
  20 C :   -0.110047
  21 H :    0.031781
  22 C :    0.085865
  23 H :    0.036849
  24 H :    0.013743
  25 C :   -0.043274
  26 H :    0.036854
  27 H :    0.013839
  28 C :   -0.079563
  29 H :    0.030603
  30 H :    0.041280
  31 H :    0.029316
  32 H :    0.048309
  33 H :    0.070981
Sum of atomic charges:    0.0000000

LOEWDIN ATOMIC CHARGES
----------------------
   0 S :    0.360423
   1 C :   -0.176425
   2 C :   -0.064031
   3 C :   -0.078549
   4 C :   -0.165142
   5 H :    0.023488
   6 C :   -0.033750
   7 H :    0.039568
   8 H :    0.035283
   9 C :   -0.034665
  10 H :    0.021390
  11 H :    0.030637
  12 C :   -0.073164
  13 H :    0.020904
  14 H :    0.029255
  15 H :    0.027796
  16 S :    0.396188
  17 C :   -0.198445
  18 C :   -0.083358
  19 C :   -0.055770
  20 C :   -0.186434
  21 H :    0.035708
  22 C :   -0.029830
  23 H :    0.034185
  24 H :    0.033401
  25 C :   -0.042488
  26 H :    0.025792
  27 H :    0.020488
  28 C :   -0.069311
  29 H :    0.021919
  30 H :    0.028337
  31 H :    0.027967
  32 H :    0.028222
  33 H :    0.050413

  Mayer bond orders larger than 0.100000
B(  0-S ,  1-C ) :   1.1046 B(  0-S ,  4-C ) :   1.1467 B(  1-C ,  2-C ) :   1.6215
B(  1-C ,  4-C ) :   0.1064 B(  1-C , 32-H ) :   0.9653 B(  2-C ,  3-C ) :   1.2835
B(  2-C ,  6-C ) :   0.9906 B(  3-C ,  4-C ) :   1.5428 B(  3-C ,  5-H ) :   0.9861
B(  4-C , 20-C ) :   1.0986 B(  6-C ,  7-H ) :   0.9502 B(  6-C ,  8-H ) :   0.9510
B(  6-C ,  9-C ) :   1.0512 B(  9-C , 10-H ) :   0.9600 B(  9-C , 11-H ) :   0.9568
B(  9-C , 12-C ) :   1.0688 B( 12-C , 13-H ) :   0.9730 B( 12-C , 14-H ) :   0.9749
B( 12-C , 15-H ) :   0.9731 B( 16-S , 17-C ) :   1.1340 B( 16-S , 20-C ) :   1.1376
B( 17-C , 18-C ) :   1.6353 B( 17-C , 33-H ) :   0.9581 B( 18-C , 19-C ) :   1.2654
B( 18-C , 21-H ) :   0.9669 B( 19-C , 20-C ) :   1.5395 B( 19-C , 22-C ) :   1.0488
B( 22-C , 23-H ) :   0.9273 B( 22-C , 24-H ) :   0.9324 B( 22-C , 25-C ) :   1.0609
B( 25-C , 26-H ) :   0.9548 B( 25-C , 27-H ) :   0.9500 B( 25-C , 28-C ) :   1.0734
B( 28-C , 29-H ) :   0.9743 B( 28-C , 30-H ) :   0.9724 B( 28-C , 31-H ) :   0.9730

Dispersion correction           -0.015076880
FINAL SINGLE POINT ENERGY     -1339.856207448457

DIPOLE MOMENT
-------------
                                X             Y             Z
Electronic contribution:      3.98919     -11.13936      28.36200
Nuclear contribution   :     -4.02375      11.56793     -29.03706
                        -----------------------------------------
Total Dipole Moment    :     -0.03457       0.42857      -0.67506
                        -----------------------------------------
Magnitude (a.u.)       :      0.80036
Magnitude (Debye)      :      2.03435

Rotational constants in cm-1:     0.017605     0.010182     0.006847
Rotational constants in MHz :   527.770254   305.259892   205.255953

                             ****ORCA TERMINATED NORMALLY****
TOTAL RUN TIME: 0 days 0 hours 0 minutes 35 seconds 466 msec
