                         Program Version 4.2.1 -  RELEASE  -
|  1> ! wB97X-D3 SP def2-SVP
|  2> %pal
|  3> nprocs 16
|  4> end
|  5>
|  6> * xyz 0 1
|  7> S 	 -32.5729 	 41.2755 	 100.432
|  8> C 	 -32.7542 	 39.9677 	 99.1958
|  9> C 	 -34.0998 	 39.6365 	 99.0943
| 10> C 	 -34.8771 	 40.5031 	 99.8499
| 11> C 	 -34.2542 	 41.4242 	 100.705
| 12> H 	 -35.9711 	 40.518 	 100.046
| 13> C 	 -34.5784 	 38.4691 	 98.2743
| 14> H 	 -33.8147 	 37.7781 	 98.0232
| 15> H 	 -35.0141 	 38.8457 	 97.3434
| 16> C 	 -35.6126 	 37.6158 	 99.0732
| 17> H 	 -35.274 	 37.4459 	 100.186
| 18> H 	 -36.4777 	 38.194 	 99.0126
| 19> C 	 -35.9462 	 36.2586 	 98.4259
| 20> H 	 -35.1426 	 35.5529 	 98.5996
| 21> H 	 -36.9024 	 35.8178 	 98.6761
| 22> H 	 -36.094 	 36.3939 	 97.3353
| 23> S 	 -34.4913 	 44.1064 	 101.1
| 24> C 	 -35.4604 	 44.7865 	 102.397
| 25> C 	 -36.0688 	 43.7518 	 103.066
| 26> C 	 -35.8257 	 42.4825 	 102.52
| 27> C 	 -34.9249 	 42.4219 	 101.504
| 28> H 	 -36.7007 	 44.0217 	 103.867
| 29> C 	 -36.3495 	 41.3295 	 103.317
| 30> H 	 -36.8038 	 40.6843 	 102.549
| 31> H 	 -37.1144 	 41.6056 	 103.965
| 32> C 	 -35.2004 	 40.5343 	 104.048
| 33> H 	 -34.5902 	 41.1381 	 104.697
| 34> H 	 -34.5273 	 40.0389 	 103.355
| 35> C 	 -35.5706 	 39.3967 	 105.005
| 36> H 	 -36.1518 	 38.6518 	 104.371
| 37> H 	 -36.2029 	 39.6018 	 105.912
| 38> H 	 -34.7126 	 38.9177 	 105.353
| 39> H 	 -31.9526 	 39.4185 	 98.72
| 40> H 	 -35.6924 	 45.8474 	 102.597
| 41> *
| 42>
| 43>                          ****END OF INPUT****

CARTESIAN COORDINATES (ANGSTROEM)
---------------------------------
  S    -32.572900   41.275500  100.432000
  C    -32.754200   39.967700   99.195800
  C    -34.099800   39.636500   99.094300
  C    -34.877100   40.503100   99.849900
  C    -34.254200   41.424200  100.705000
  H    -35.971100   40.518000  100.046000
  C    -34.578400   38.469100   98.274300
  H    -33.814700   37.778100   98.023200
  H    -35.014100   38.845700   97.343400
  C    -35.612600   37.615800   99.073200
  H    -35.274000   37.445900  100.186000
  H    -36.477700   38.194000   99.012600
  C    -35.946200   36.258600   98.425900
  H    -35.142600   35.552900   98.599600
  H    -36.902400   35.817800   98.676100
  H    -36.094000   36.393900   97.335300
  S    -34.491300   44.106400  101.100000
  C    -35.460400   44.786500  102.397000
  C    -36.068800   43.751800  103.066000
  C    -35.825700   42.482500  102.520000
  C    -34.924900   42.421900  101.504000
  H    -36.700700   44.021700  103.867000
  C    -36.349500   41.329500  103.317000
  H    -36.803800   40.684300  102.549000
  H    -37.114400   41.605600  103.965000
  C    -35.200400   40.534300  104.048000
  H    -34.590200   41.138100  104.697000
  H    -34.527300   40.038900  103.355000
  C    -35.570600   39.396700  105.005000
  H    -36.151800   38.651800  104.371000
  H    -36.202900   39.601800  105.912000
  H    -34.712600   38.917700  105.353000
  H    -31.952600   39.418500   98.720000
  H    -35.692400   45.847400  102.597000

 Total Charge           Charge          ....    0
 Multiplicity           Mult            ....    1
 Number of Electrons    NEL             ....  134
 Basis Dimension        Dim             ....  322

ORBITAL ENERGIES
----------------

  NO   OCC          E(Eh)            E(eV)
   0   2.0000     -88.968206     -2420.9480
   1   2.0000     -88.961161     -2420.7563
   2   2.0000     -10.330535      -281.1082
   3   2.0000     -10.329248      -281.0731
   4   2.0000     -10.319641      -280.8117
   5   2.0000     -10.319506      -280.8080
   6   2.0000     -10.302987      -280.3585
   7   2.0000     -10.299770      -280.2710
   8   2.0000     -10.293717      -280.1063
   9   2.0000     -10.293375      -280.0970
  10   2.0000     -10.292396      -280.0703
  11   2.0000     -10.288809      -279.9727
  12   2.0000     -10.286364      -279.9062
  13   2.0000     -10.283594      -279.8308
  14   2.0000     -10.280765      -279.7538
  15   2.0000     -10.276765      -279.6450
  16   2.0000      -8.082356      -219.9321
  17   2.0000      -8.075550      -219.7469
  18   2.0000      -6.040783      -164.3781
  19   2.0000      -6.036774      -164.2690
  20   2.0000      -6.034170      -164.1981
  21   2.0000      -6.033352      -164.1758
  22   2.0000      -6.029941      -164.0830
  23   2.0000      -6.026338      -163.9850
  24   2.0000      -1.010496       -27.4970
  25   2.0000      -0.988059       -26.8865
  26   2.0000      -0.915383       -24.9088
  27   2.0000      -0.904324       -24.6079
  28   2.0000      -0.873928       -23.7808
  29   2.0000      -0.852361       -23.1939
  30   2.0000      -0.844976       -22.9930
  31   2.0000      -0.815540       -22.1920
  32   2.0000      -0.784556       -21.3489
  33   2.0000      -0.774394       -21.0723
  34   2.0000      -0.714624       -19.4459
  35   2.0000      -0.697157       -18.9706
  36   2.0000      -0.690669       -18.7941
  37   2.0000      -0.666088       -18.1252
  38   2.0000      -0.646373       -17.5887
  39   2.0000      -0.614957       -16.7338
  40   2.0000      -0.592087       -16.1115
  41   2.0000      -0.576112       -15.6768
  42   2.0000      -0.573826       -15.6146
  43   2.0000      -0.560704       -15.2575
  44   2.0000      -0.528348       -14.3771
  45   2.0000      -0.525383       -14.2964
  46   2.0000      -0.520621       -14.1668
  47   2.0000      -0.512987       -13.9591
  48   2.0000      -0.512212       -13.9380
  49   2.0000      -0.502405       -13.6711
  50   2.0000      -0.493365       -13.4251
  51   2.0000      -0.490865       -13.3571
  52   2.0000      -0.478583       -13.0229
  53   2.0000      -0.464417       -12.6374
  54   2.0000      -0.454698       -12.3729
  55   2.0000      -0.444459       -12.0943
  56   2.0000      -0.442029       -12.0282
  57   2.0000      -0.431573       -11.7437
  58   2.0000      -0.429178       -11.6785
  59   2.0000      -0.422629       -11.5003
  60   2.0000      -0.417047       -11.3484
  61   2.0000      -0.410230       -11.1629
  62   2.0000      -0.404511       -11.0073
  63   2.0000      -0.343025        -9.3342
  64   2.0000      -0.335991        -9.1428
  65   2.0000      -0.328357        -8.9350
  66   2.0000      -0.296036        -8.0556
  67   0.0000       0.028300         0.7701
  68   0.0000       0.062096         1.6897
  69   0.0000       0.118515         3.2249
  70   0.0000       0.124634         3.3915
  71   0.0000       0.131305         3.5730

MULLIKEN ATOMIC CHARGES
-----------------------
   0 S :    0.113475
   1 C :   -0.136481
   2 C :   -0.055952
   3 C :    0.013912
   4 C :   -0.175288
   5 H :    0.018982
   6 C :    0.107650
   7 H :    0.006758
   8 H :    0.043358
   9 C :   -0.129488
  10 H :    0.060430
  11 H :    0.025039
  12 C :   -0.043239
  13 H :    0.038752
  14 H :    0.032366
  15 H :    0.022050
  16 S :    0.090686
  17 C :   -0.093749
  18 C :   -0.045060
  19 C :   -0.018361
  20 C :   -0.158801
  21 H :    0.005050
  22 C :    0.126384
  23 H :    0.018654
  24 H :    0.000358
  25 C :   -0.066101
  26 H :    0.024122
  27 H :    0.037010
  28 C :   -0.069000
  29 H :    0.024346
  30 H :    0.036438
  31 H :    0.024480
  32 H :    0.051649
  33 H :    0.069570
Sum of atomic charges:   -0.0000000

LOEWDIN ATOMIC CHARGES
----------------------
   0 S :    0.410359
   1 C :   -0.180067
   2 C :   -0.065256
   3 C :   -0.072320
   4 C :   -0.217443
   5 H :    0.033581
   6 C :   -0.022216
   7 H :    0.021988
   8 H :    0.036741
   9 C :   -0.042326
  10 H :    0.038891
  11 H :    0.013528
  12 C :   -0.070762
  13 H :    0.023896
  14 H :    0.026576
  15 H :    0.027926
  16 S :    0.392325
  17 C :   -0.180066
  18 C :   -0.074652
  19 C :   -0.059155
  20 C :   -0.183522
  21 H :    0.026329
  22 C :   -0.020526
  23 H :    0.033461
  24 H :    0.019347
  25 C :   -0.036462
  26 H :    0.021530
  27 H :    0.029017
  28 C :   -0.069888
  29 H :    0.025624
  30 H :    0.025101
  31 H :    0.017768
  32 H :    0.030294
  33 H :    0.040379

  Mayer bond orders larger than 0.100000
B(  0-S ,  1-C ) :   1.1453 B(  0-S ,  4-C ) :   1.1632 B(  1-C ,  2-C ) :   1.5664
B(  1-C ,  4-C ) :   0.1125 B(  1-C , 32-H ) :   0.9712 B(  2-C ,  3-C ) :   1.2605
B(  2-C ,  6-C ) :   1.0265 B(  3-C ,  4-C ) :   1.5502 B(  3-C ,  5-H ) :   0.9843
B(  4-C , 20-C ) :   1.0446 B(  6-C ,  7-H ) :   0.9460 B(  6-C ,  8-H ) :   0.9289
B(  6-C ,  9-C ) :   1.0532 B(  9-C , 10-H ) :   0.9621 B(  9-C , 11-H ) :   0.9508
B(  9-C , 12-C ) :   1.0890 B( 12-C , 13-H ) :   0.9769 B( 12-C , 14-H ) :   0.9745
B( 12-C , 15-H ) :   0.9683 B( 16-S , 17-C ) :   1.1613 B( 16-S , 20-C ) :   1.1257
B( 17-C , 18-C ) :   1.6017 B( 17-C , 20-C ) :   0.1050 B( 17-C , 33-H ) :   0.9624
B( 18-C , 19-C ) :   1.2452 B( 18-C , 21-H ) :   1.0000 B( 19-C , 20-C ) :   1.5925
B( 19-C , 22-C ) :   1.0594 B( 22-C , 23-H ) :   0.9190 B( 22-C , 24-H ) :   0.9347
B( 22-C , 25-C ) :   1.0575 B( 25-C , 26-H ) :   0.9614 B( 25-C , 27-H ) :   0.9526
B( 25-C , 28-C ) :   1.0872 B( 28-C , 29-H ) :   0.9749 B( 28-C , 30-H ) :   0.9759
B( 28-C , 31-H ) :   0.9734

Dispersion correction           -0.014075957
FINAL SINGLE POINT ENERGY     -1339.856408448189

DIPOLE MOMENT
-------------
                                X             Y             Z
Electronic contribution:     12.66862      26.49090      -4.67394
Nuclear contribution   :    -13.13638     -26.96926       4.77576
                        -----------------------------------------
Total Dipole Moment    :     -0.46775      -0.47836       0.10183
                        -----------------------------------------
Magnitude (a.u.)       :      0.67675
Magnitude (Debye)      :      1.72016

Rotational constants in cm-1:     0.017833     0.008696     0.006942
Rotational constants in MHz :   534.627642   260.711459   208.121831

                             ****ORCA TERMINATED NORMALLY****
TOTAL RUN TIME: 0 days 0 hours 0 minutes 29 seconds 682 msec
