                         Program Version 4.2.1 -  RELEASE  -
|  1> ! wB97X-D3 SP def2-SVP
|  2> %pal
|  3> nprocs 16
|  4> end
|  5>
|  6> * xyz 0 1
|  7> S 	 15.7687 	 6.99354 	 85.5415
|  8> C 	 16.3779 	 8.63985 	 85.4357
|  9> C 	 15.4583 	 9.44364 	 84.7818
| 10> C 	 14.361 	 8.66952 	 84.2785
| 11> C 	 14.3183 	 7.33442 	 84.5245
| 12> H 	 13.5277 	 9.00242 	 83.7712
| 13> C 	 15.7554 	 10.9109 	 84.5331
| 14> H 	 16.8366 	 10.9873 	 84.697
| 15> H 	 15.333 	 11.4557 	 85.405
| 16> C 	 15.2226 	 11.5827 	 83.264
| 17> H 	 14.1207 	 11.6014 	 83.1879
| 18> H 	 15.5635 	 12.6095 	 83.1114
| 19> C 	 15.7792 	 10.9146 	 81.9464
| 20> H 	 15.5027 	 9.88575 	 81.8031
| 21> H 	 15.2953 	 11.4258 	 81.0935
| 22> H 	 16.865 	 11.059 	 81.7986
| 23> S 	 13.1647 	 4.9344 	 85.2663
| 24> C 	 12.1895 	 4.01638 	 84.2192
| 25> C 	 11.8752 	 4.7881 	 83.1136
| 26> C 	 12.5284 	 6.08989 	 83.1006
| 27> C 	 13.2517 	 6.32935 	 84.2701
| 28> H 	 11.2716 	 4.26332 	 82.3597
| 29> C 	 12.5075 	 6.95034 	 81.918
| 30> H 	 12.8209 	 6.56495 	 81.0185
| 31> H 	 13.2269 	 7.78388 	 82.0613
| 32> C 	 11.0214 	 7.32904 	 81.7196
| 33> H 	 10.4336 	 6.41065 	 81.4588
| 34> H 	 10.9501 	 8.07403 	 80.8319
| 35> C 	 10.3901 	 8.03258 	 82.8649
| 36> H 	 9.44048 	 8.37865 	 82.6818
| 37> H 	 10.8769 	 8.90982 	 83.2735
| 38> H 	 10.3578 	 7.39215 	 83.7754
| 39> H 	 17.323 	 8.85215 	 85.8182
| 40> H 	 11.8562 	 3.03646 	 84.4336
| 41> *
| 42>
| 43>                          ****END OF INPUT****

CARTESIAN COORDINATES (ANGSTROEM)
---------------------------------
  S     15.768700    6.993540   85.541500
  C     16.377900    8.639850   85.435700
  C     15.458300    9.443640   84.781800
  C     14.361000    8.669520   84.278500
  C     14.318300    7.334420   84.524500
  H     13.527700    9.002420   83.771200
  C     15.755400   10.910900   84.533100
  H     16.836600   10.987300   84.697000
  H     15.333000   11.455700   85.405000
  C     15.222600   11.582700   83.264000
  H     14.120700   11.601400   83.187900
  H     15.563500   12.609500   83.111400
  C     15.779200   10.914600   81.946400
  H     15.502700    9.885750   81.803100
  H     15.295300   11.425800   81.093500
  H     16.865000   11.059000   81.798600
  S     13.164700    4.934400   85.266300
  C     12.189500    4.016380   84.219200
  C     11.875200    4.788100   83.113600
  C     12.528400    6.089890   83.100600
  C     13.251700    6.329350   84.270100
  H     11.271600    4.263320   82.359700
  C     12.507500    6.950340   81.918000
  H     12.820900    6.564950   81.018500
  H     13.226900    7.783880   82.061300
  C     11.021400    7.329040   81.719600
  H     10.433600    6.410650   81.458800
  H     10.950100    8.074030   80.831900
  C     10.390100    8.032580   82.864900
  H      9.440480    8.378650   82.681800
  H     10.876900    8.909820   83.273500
  H     10.357800    7.392150   83.775400
  H     17.323000    8.852150   85.818200
  H     11.856200    3.036460   84.433600

 Total Charge           Charge          ....    0
 Multiplicity           Mult            ....    1
 Number of Electrons    NEL             ....  134
 Basis Dimension        Dim             ....  322

ORBITAL ENERGIES
----------------

  NO   OCC          E(Eh)            E(eV)
   0   2.0000     -88.963159     -2420.8106
   1   2.0000     -88.959244     -2420.7041
   2   2.0000     -10.335771      -281.2506
   3   2.0000     -10.330176      -281.0984
   4   2.0000     -10.316744      -280.7329
   5   2.0000     -10.312925      -280.6290
   6   2.0000     -10.307474      -280.4806
   7   2.0000     -10.306029      -280.4413
   8   2.0000     -10.299515      -280.2641
   9   2.0000     -10.297775      -280.2167
  10   2.0000     -10.295957      -280.1672
  11   2.0000     -10.295669      -280.1594
  12   2.0000     -10.287699      -279.9425
  13   2.0000     -10.284713      -279.8613
  14   2.0000     -10.278209      -279.6843
  15   2.0000     -10.264512      -279.3116
  16   2.0000      -8.079604      -219.8572
  17   2.0000      -8.073354      -219.6871
  18   2.0000      -6.038027      -164.3031
  19   2.0000      -6.033629      -164.1834
  20   2.0000      -6.032009      -164.1393
  21   2.0000      -6.030575      -164.1003
  22   2.0000      -6.027891      -164.0273
  23   2.0000      -6.024042      -163.9225
  24   2.0000      -1.011761       -27.5314
  25   2.0000      -0.986205       -26.8360
  26   2.0000      -0.921795       -25.0833
  27   2.0000      -0.906909       -24.6782
  28   2.0000      -0.872526       -23.7426
  29   2.0000      -0.849052       -23.1039
  30   2.0000      -0.838189       -22.8083
  31   2.0000      -0.825976       -22.4759
  32   2.0000      -0.788838       -21.4654
  33   2.0000      -0.774243       -21.0682
  34   2.0000      -0.710242       -19.3267
  35   2.0000      -0.701024       -19.0758
  36   2.0000      -0.693824       -18.8799
  37   2.0000      -0.657187       -17.8830
  38   2.0000      -0.650270       -17.6947
  39   2.0000      -0.627529       -17.0759
  40   2.0000      -0.608229       -16.5508
  41   2.0000      -0.566986       -15.4285
  42   2.0000      -0.557832       -15.1794
  43   2.0000      -0.548002       -14.9119
  44   2.0000      -0.543340       -14.7850
  45   2.0000      -0.541364       -14.7313
  46   2.0000      -0.524713       -14.2782
  47   2.0000      -0.520534       -14.1645
  48   2.0000      -0.511409       -13.9161
  49   2.0000      -0.496442       -13.5089
  50   2.0000      -0.494092       -13.4449
  51   2.0000      -0.480641       -13.0789
  52   2.0000      -0.470878       -12.8132
  53   2.0000      -0.469280       -12.7698
  54   2.0000      -0.463445       -12.6110
  55   2.0000      -0.440935       -11.9984
  56   2.0000      -0.436354       -11.8738
  57   2.0000      -0.435365       -11.8469
  58   2.0000      -0.431336       -11.7372
  59   2.0000      -0.428970       -11.6729
  60   2.0000      -0.421750       -11.4764
  61   2.0000      -0.409287       -11.1373
  62   2.0000      -0.402980       -10.9656
  63   2.0000      -0.362014        -9.8509
  64   2.0000      -0.328385        -8.9358
  65   2.0000      -0.324010        -8.8168
  66   2.0000      -0.289796        -7.8857
  67   0.0000       0.025992         0.7073
  68   0.0000       0.078878         2.1464
  69   0.0000       0.114242         3.1087
  70   0.0000       0.117744         3.2040
  71   0.0000       0.131528         3.5791

MULLIKEN ATOMIC CHARGES
-----------------------
   0 S :    0.075088
   1 C :   -0.121295
   2 C :   -0.059916
   3 C :    0.024470
   4 C :   -0.118468
   5 H :   -0.033786
   6 C :    0.092520
   7 H :    0.020418
   8 H :    0.045168
   9 C :   -0.078572
  10 H :    0.040156
  11 H :    0.036996
  12 C :   -0.083959
  13 H :    0.038008
  14 H :    0.024997
  15 H :    0.039231
  16 S :    0.097004
  17 C :   -0.083388
  18 C :   -0.043252
  19 C :   -0.095515
  20 C :   -0.103577
  21 H :    0.032110
  22 C :    0.145513
  23 H :    0.009527
  24 H :    0.014461
  25 C :   -0.133102
  26 H :    0.046510
  27 H :    0.035667
  28 C :   -0.014229
  29 H :    0.010832
  30 H :    0.016891
  31 H :    0.038740
  32 H :    0.034398
  33 H :    0.050354
Sum of atomic charges:    0.0000000

LOEWDIN ATOMIC CHARGES
----------------------
   0 S :    0.368083
   1 C :   -0.175561
   2 C :   -0.059132
   3 C :   -0.070349
   4 C :   -0.162173
   5 H :    0.012740
   6 C :   -0.036917
   7 H :    0.033806
   8 H :    0.040201
   9 C :   -0.044014
  10 H :    0.027899
  11 H :    0.031456
  12 C :   -0.071162
  13 H :    0.018145
  14 H :    0.026301
  15 H :    0.026985
  16 S :    0.438900
  17 C :   -0.187576
  18 C :   -0.077763
  19 C :   -0.050079
  20 C :   -0.213629
  21 H :    0.035372
  22 C :   -0.029978
  23 H :    0.022940
  24 H :    0.034820
  25 C :   -0.039795
  26 H :    0.030225
  27 H :    0.029211
  28 C :   -0.071174
  29 H :    0.015264
  30 H :    0.023835
  31 H :    0.031515
  32 H :    0.016026
  33 H :    0.025581

  Mayer bond orders larger than 0.100000
B(  0-S ,  1-C ) :   1.1436 B(  0-S ,  4-C ) :   1.1239 B(  1-C ,  2-C ) :   1.5912
B(  1-C , 32-H ) :   0.9817 B(  2-C ,  3-C ) :   1.2202 B(  2-C ,  6-C ) :   1.0132
B(  3-C ,  4-C ) :   1.6001 B(  3-C ,  5-H ) :   1.0044 B(  4-C , 20-C ) :   1.0465
B(  6-C ,  7-H ) :   0.9437 B(  6-C ,  8-H ) :   0.9276 B(  6-C ,  9-C ) :   1.0772
B(  9-C , 10-H ) :   0.9520 B(  9-C , 11-H ) :   0.9556 B(  9-C , 12-C ) :   1.0728
B( 12-C , 13-H ) :   0.9771 B( 12-C , 14-H ) :   0.9751 B( 12-C , 15-H ) :   0.9774
B( 16-S , 17-C ) :   1.1821 B( 16-S , 20-C ) :   1.1462 B( 17-C , 18-C ) :   1.5889
B( 17-C , 33-H ) :   0.9749 B( 18-C , 19-C ) :   1.2347 B( 18-C , 21-H ) :   0.9905
B( 19-C , 20-C ) :   1.5498 B( 19-C , 22-C ) :   1.0591 B( 22-C , 23-H ) :   0.9279
B( 22-C , 24-H ) :   0.9304 B( 22-C , 25-C ) :   1.0518 B( 25-C , 26-H ) :   0.9524
B( 25-C , 27-H ) :   0.9549 B( 25-C , 28-C ) :   1.0861 B( 28-C , 29-H ) :   0.9677
B( 28-C , 30-H ) :   0.9690 B( 28-C , 31-H ) :   0.9616

Dispersion correction           -0.015248828
FINAL SINGLE POINT ENERGY     -1339.865197531290

DIPOLE MOMENT
-------------
                                X             Y             Z
Electronic contribution:      6.88154     -21.24098      17.64170
Nuclear contribution   :     -7.08238      21.59219     -18.16701
                        -----------------------------------------
Total Dipole Moment    :     -0.20084       0.35121      -0.52531
                        -----------------------------------------
Magnitude (a.u.)       :      0.66305
Magnitude (Debye)      :      1.68535

Rotational constants in cm-1:     0.019240     0.009904     0.007093
Rotational constants in MHz :   576.813268   296.907781   212.634091

                             ****ORCA TERMINATED NORMALLY****
TOTAL RUN TIME: 0 days 0 hours 0 minutes 36 seconds 536 msec
