                         Program Version 4.2.1 -  RELEASE  -
|  1> ! wB97X-D3 SP def2-SVP
|  2> %pal
|  3> nprocs 16
|  4> end
|  5>
|  6> * xyz 0 1
|  7> S 	 -37.6358 	 41.9389 	 96.3455
|  8> C 	 -36.9183 	 42.1801 	 97.9682
|  9> C 	 -35.9382 	 41.2389 	 98.2623
| 10> C 	 -35.8422 	 40.2468 	 97.2303
| 11> C 	 -36.556 	 40.5172 	 96.0786
| 12> H 	 -35.2027 	 39.3769 	 97.185
| 13> C 	 -35.3017 	 40.9673 	 99.5844
| 14> H 	 -35.3316 	 39.9354 	 99.8492
| 15> H 	 -35.9628 	 41.4463 	 100.382
| 16> C 	 -33.8295 	 41.4419 	 99.6758
| 17> H 	 -33.1977 	 40.845 	 99.182
| 18> H 	 -33.7715 	 42.4468 	 99.2109
| 19> C 	 -33.2175 	 41.5301 	 101.001
| 20> H 	 -33.0989 	 40.529 	 101.44
| 21> H 	 -32.3324 	 42.1076 	 101.174
| 22> H 	 -34.0101 	 42.0923 	 101.563
| 23> S 	 -35.9326 	 40.6773 	 93.4864
| 24> C 	 -35.7913 	 39.2947 	 92.4406
| 25> C 	 -36.1164 	 38.1801 	 93.181
| 26> C 	 -36.3965 	 38.41 	 94.6107
| 27> C 	 -36.4101 	 39.7667 	 94.8541
| 28> H 	 -36.008 	 37.2297 	 92.6043
| 29> C 	 -36.7325 	 37.3934 	 95.6836
| 30> H 	 -37.4129 	 36.7106 	 95.1679
| 31> H 	 -37.2622 	 37.9902 	 96.419
| 32> C 	 -35.5215 	 36.5241 	 96.1678
| 33> H 	 -34.7503 	 37.0944 	 96.7496
| 34> H 	 -35.0611 	 36.0996 	 95.2423
| 35> C 	 -35.9125 	 35.3345 	 97.0682
| 36> H 	 -36.4576 	 34.6194 	 96.5046
| 37> H 	 -36.4647 	 35.6768 	 97.9287
| 38> H 	 -35.0542 	 34.8119 	 97.4403
| 39> H 	 -37.0461 	 42.9961 	 98.7036
| 40> H 	 -35.544 	 39.2229 	 91.4195
| 41> *
| 42>
| 43>                          ****END OF INPUT****

CARTESIAN COORDINATES (ANGSTROEM)
---------------------------------
  S    -37.635800   41.938900   96.345500
  C    -36.918300   42.180100   97.968200
  C    -35.938200   41.238900   98.262300
  C    -35.842200   40.246800   97.230300
  C    -36.556000   40.517200   96.078600
  H    -35.202700   39.376900   97.185000
  C    -35.301700   40.967300   99.584400
  H    -35.331600   39.935400   99.849200
  H    -35.962800   41.446300  100.382000
  C    -33.829500   41.441900   99.675800
  H    -33.197700   40.845000   99.182000
  H    -33.771500   42.446800   99.210900
  C    -33.217500   41.530100  101.001000
  H    -33.098900   40.529000  101.440000
  H    -32.332400   42.107600  101.174000
  H    -34.010100   42.092300  101.563000
  S    -35.932600   40.677300   93.486400
  C    -35.791300   39.294700   92.440600
  C    -36.116400   38.180100   93.181000
  C    -36.396500   38.410000   94.610700
  C    -36.410100   39.766700   94.854100
  H    -36.008000   37.229700   92.604300
  C    -36.732500   37.393400   95.683600
  H    -37.412900   36.710600   95.167900
  H    -37.262200   37.990200   96.419000
  C    -35.521500   36.524100   96.167800
  H    -34.750300   37.094400   96.749600
  H    -35.061100   36.099600   95.242300
  C    -35.912500   35.334500   97.068200
  H    -36.457600   34.619400   96.504600
  H    -36.464700   35.676800   97.928700
  H    -35.054200   34.811900   97.440300
  H    -37.046100   42.996100   98.703600
  H    -35.544000   39.222900   91.419500

 Total Charge           Charge          ....    0
 Multiplicity           Mult            ....    1
 Number of Electrons    NEL             ....  134
 Basis Dimension        Dim             ....  322

ORBITAL ENERGIES
----------------

  NO   OCC          E(Eh)            E(eV)
   0   2.0000     -88.973300     -2421.0866
   1   2.0000     -88.961131     -2420.7554
   2   2.0000     -10.332390      -281.1586
   3   2.0000     -10.323242      -280.9097
   4   2.0000     -10.321990      -280.8756
   5   2.0000     -10.312714      -280.6232
   6   2.0000     -10.306836      -280.4633
   7   2.0000     -10.303054      -280.3604
   8   2.0000     -10.299505      -280.2638
   9   2.0000     -10.297980      -280.2223
  10   2.0000     -10.297181      -280.2005
  11   2.0000     -10.294931      -280.1393
  12   2.0000     -10.294190      -280.1191
  13   2.0000     -10.274538      -279.5844
  14   2.0000     -10.273841      -279.5654
  15   2.0000     -10.273470      -279.5553
  16   2.0000      -8.086003      -220.0313
  17   2.0000      -8.076880      -219.7831
  18   2.0000      -6.044790      -164.4871
  19   2.0000      -6.040855      -164.3800
  20   2.0000      -6.036514      -164.2619
  21   2.0000      -6.035469      -164.2335
  22   2.0000      -6.031095      -164.1144
  23   2.0000      -6.027611      -164.0196
  24   2.0000      -1.008200       -27.4345
  25   2.0000      -0.980311       -26.6756
  26   2.0000      -0.918734       -25.0000
  27   2.0000      -0.906547       -24.6684
  28   2.0000      -0.876617       -23.8540
  29   2.0000      -0.855643       -23.2832
  30   2.0000      -0.847479       -23.0611
  31   2.0000      -0.817748       -22.2521
  32   2.0000      -0.781349       -21.2616
  33   2.0000      -0.773002       -21.0344
  34   2.0000      -0.708344       -19.2750
  35   2.0000      -0.699723       -19.0404
  36   2.0000      -0.698478       -19.0065
  37   2.0000      -0.659520       -17.9464
  38   2.0000      -0.638547       -17.3757
  39   2.0000      -0.617232       -16.7957
  40   2.0000      -0.587385       -15.9836
  41   2.0000      -0.582268       -15.8443
  42   2.0000      -0.568812       -15.4782
  43   2.0000      -0.564424       -15.3587
  44   2.0000      -0.529622       -14.4117
  45   2.0000      -0.527285       -14.3482
  46   2.0000      -0.519165       -14.1272
  47   2.0000      -0.515442       -14.0259
  48   2.0000      -0.509940       -13.8762
  49   2.0000      -0.506137       -13.7727
  50   2.0000      -0.497264       -13.5312
  51   2.0000      -0.478860       -13.0304
  52   2.0000      -0.474303       -12.9064
  53   2.0000      -0.462846       -12.5947
  54   2.0000      -0.460526       -12.5315
  55   2.0000      -0.442849       -12.0505
  56   2.0000      -0.442022       -12.0280
  57   2.0000      -0.432176       -11.7601
  58   2.0000      -0.429971       -11.7001
  59   2.0000      -0.429320       -11.6824
  60   2.0000      -0.419803       -11.4234
  61   2.0000      -0.416756       -11.3405
  62   2.0000      -0.414054       -11.2670
  63   2.0000      -0.348841        -9.4925
  64   2.0000      -0.332082        -9.0364
  65   2.0000      -0.324453        -8.8288
  66   2.0000      -0.296934        -8.0800
  67   0.0000       0.030617         0.8331
  68   0.0000       0.069182         1.8825
  69   0.0000       0.104384         2.8404
  70   0.0000       0.121380         3.3029
  71   0.0000       0.124519         3.3883

MULLIKEN ATOMIC CHARGES
-----------------------
   0 S :    0.118677
   1 C :   -0.113733
   2 C :   -0.061349
   3 C :    0.038688
   4 C :   -0.163249
   5 H :    0.001353
   6 C :    0.028433
   7 H :    0.023119
   8 H :    0.026820
   9 C :   -0.023704
  10 H :   -0.002331
  11 H :    0.028803
  12 C :   -0.049184
  13 H :    0.027781
  14 H :    0.038641
  15 H :    0.014689
  16 S :    0.108584
  17 C :   -0.077903
  18 C :   -0.064020
  19 C :   -0.033810
  20 C :   -0.162304
  21 H :    0.030141
  22 C :    0.070376
  23 H :    0.025277
  24 H :    0.039248
  25 C :   -0.113447
  26 H :    0.042522
  27 H :    0.036208
  28 C :   -0.011605
  29 H :    0.021298
  30 H :    0.029540
  31 H :    0.026861
  32 H :    0.057533
  33 H :    0.042047
Sum of atomic charges:   -0.0000000

LOEWDIN ATOMIC CHARGES
----------------------
   0 S :    0.373705
   1 C :   -0.187701
   2 C :   -0.064703
   3 C :   -0.051473
   4 C :   -0.183679
   5 H :    0.029346
   6 C :   -0.028189
   7 H :    0.027677
   8 H :    0.035488
   9 C :   -0.039857
  10 H :    0.006107
  11 H :    0.030144
  12 C :   -0.065938
  13 H :    0.024308
  14 H :    0.026012
  15 H :    0.026570
  16 S :    0.424937
  17 C :   -0.190467
  18 C :   -0.078820
  19 C :   -0.057713
  20 C :   -0.211150
  21 H :    0.035676
  22 C :   -0.032374
  23 H :    0.035143
  24 H :    0.032076
  25 C :   -0.040356
  26 H :    0.023637
  27 H :    0.029113
  28 C :   -0.060744
  29 H :    0.018989
  30 H :    0.024246
  31 H :    0.024941
  32 H :    0.038381
  33 H :    0.026668

  Mayer bond orders larger than 0.100000
B(  0-S ,  1-C ) :   1.1194 B(  0-S ,  4-C ) :   1.1158 B(  1-C ,  2-C ) :   1.6437
B(  1-C , 32-H ) :   0.9547 B(  2-C ,  3-C ) :   1.2135 B(  2-C ,  6-C ) :   1.0328
B(  3-C ,  4-C ) :   1.6037 B(  3-C ,  5-H ) :   0.9881 B(  4-C , 20-C ) :   1.0455
B(  6-C ,  7-H ) :   0.9439 B(  6-C ,  8-H ) :   0.9463 B(  6-C ,  9-C ) :   1.0483
B(  9-C , 10-H ) :   0.9492 B(  9-C , 11-H ) :   0.9556 B(  9-C , 12-C ) :   1.0907
B( 12-C , 13-H ) :   0.9709 B( 12-C , 14-H ) :   0.9731 B( 12-C , 15-H ) :   0.9742
B( 16-S , 17-C ) :   1.1390 B( 16-S , 20-C ) :   1.1553 B( 17-C , 18-C ) :   1.6445
B( 17-C , 33-H ) :   0.9734 B( 18-C , 19-C ) :   1.2001 B( 18-C , 21-H ) :   0.9812
B( 19-C , 20-C ) :   1.6002 B( 19-C , 22-C ) :   1.0436 B( 22-C , 23-H ) :   0.9315
B( 22-C , 24-H ) :   0.9334 B( 22-C , 25-C ) :   1.0529 B( 25-C , 26-H ) :   0.9543
B( 25-C , 27-H ) :   0.9562 B( 25-C , 28-C ) :   1.0872 B( 28-C , 29-H ) :   0.9751
B( 28-C , 30-H ) :   0.9740 B( 28-C , 31-H ) :   0.9734

Dispersion correction           -0.013851608
FINAL SINGLE POINT ENERGY     -1339.859288969581

DIPOLE MOMENT
-------------
                                X             Y             Z
Electronic contribution:    -12.43179      15.85460     -22.71318
Nuclear contribution   :     12.79995     -16.42028      23.07569
                        -----------------------------------------
Total Dipole Moment    :      0.36816      -0.56568       0.36252
                        -----------------------------------------
Magnitude (a.u.)       :      0.76613
Magnitude (Debye)      :      1.94734

Rotational constants in cm-1:     0.016233     0.008845     0.006703
Rotational constants in MHz :   486.658636   265.165192   200.940344

                             ****ORCA TERMINATED NORMALLY****
TOTAL RUN TIME: 0 days 0 hours 0 minutes 28 seconds 114 msec
