                         Program Version 4.2.1 -  RELEASE  -
|  1> ! wB97X-D3 SP def2-SVP
|  2> %pal
|  3> nprocs 16
|  4> end
|  5>
|  6> * xyz 0 1
|  7> S 	 34.3957 	 24.3408 	 81.2116
|  8> C 	 33.588 	 25.7774 	 81.884
|  9> C 	 34.1479 	 26.1726 	 83.0348
| 10> C 	 35.0075 	 25.1764 	 83.5631
| 11> C 	 35.182 	 24.0561 	 82.7604
| 12> H 	 35.6001 	 25.2305 	 84.5136
| 13> C 	 33.735 	 27.3763 	 83.9226
| 14> H 	 32.9111 	 27.8917 	 83.3767
| 15> H 	 34.6365 	 28.0533 	 83.7946
| 16> C 	 33.3988 	 26.9884 	 85.3905
| 17> H 	 32.538 	 26.4084 	 85.2
| 18> H 	 34.2358 	 26.5435 	 85.938
| 19> C 	 33.0386 	 28.2418 	 86.1849
| 20> H 	 32.5026 	 27.9168 	 87.1
| 21> H 	 34.0225 	 28.8022 	 86.385
| 22> H 	 32.4008 	 28.9917 	 85.7016
| 23> S 	 35.2219 	 21.5549 	 83.7126
| 24> C 	 36.705 	 20.5716 	 83.5984
| 25> C 	 37.7753 	 21.2829 	 83.1901
| 26> C 	 37.3711 	 22.6085 	 82.7234
| 27> C 	 36.0394 	 22.9267 	 83.0615
| 28> H 	 38.72 	 20.8633 	 83.3498
| 29> C 	 38.3431 	 23.5796 	 82.0708
| 30> H 	 37.9213 	 23.9348 	 81.1237
| 31> H 	 39.2561 	 23.0953 	 81.8856
| 32> C 	 38.7902 	 24.7852 	 82.9924
| 33> H 	 38.0783 	 25.5719 	 82.9518
| 34> H 	 39.7546 	 25.1178 	 82.5921
| 35> C 	 38.9312 	 24.4147 	 84.5429
| 36> H 	 38.0123 	 24.2546 	 85.1437
| 37> H 	 39.4288 	 25.167 	 85.0386
| 38> H 	 39.5158 	 23.4871 	 84.6777
| 39> H 	 32.7795 	 26.2844 	 81.3347
| 40> H 	 36.7338 	 19.5517 	 83.9757
| 41> *
| 42>
| 43>                          ****END OF INPUT****

CARTESIAN COORDINATES (ANGSTROEM)
---------------------------------
  S     34.395700   24.340800   81.211600
  C     33.588000   25.777400   81.884000
  C     34.147900   26.172600   83.034800
  C     35.007500   25.176400   83.563100
  C     35.182000   24.056100   82.760400
  H     35.600100   25.230500   84.513600
  C     33.735000   27.376300   83.922600
  H     32.911100   27.891700   83.376700
  H     34.636500   28.053300   83.794600
  C     33.398800   26.988400   85.390500
  H     32.538000   26.408400   85.200000
  H     34.235800   26.543500   85.938000
  C     33.038600   28.241800   86.184900
  H     32.502600   27.916800   87.100000
  H     34.022500   28.802200   86.385000
  H     32.400800   28.991700   85.701600
  S     35.221900   21.554900   83.712600
  C     36.705000   20.571600   83.598400
  C     37.775300   21.282900   83.190100
  C     37.371100   22.608500   82.723400
  C     36.039400   22.926700   83.061500
  H     38.720000   20.863300   83.349800
  C     38.343100   23.579600   82.070800
  H     37.921300   23.934800   81.123700
  H     39.256100   23.095300   81.885600
  C     38.790200   24.785200   82.992400
  H     38.078300   25.571900   82.951800
  H     39.754600   25.117800   82.592100
  C     38.931200   24.414700   84.542900
  H     38.012300   24.254600   85.143700
  H     39.428800   25.167000   85.038600
  H     39.515800   23.487100   84.677700
  H     32.779500   26.284400   81.334700
  H     36.733800   19.551700   83.975700

 Total Charge           Charge          ....    0
 Multiplicity           Mult            ....    1
 Number of Electrons    NEL             ....  134
 Basis Dimension        Dim             ....  322

ORBITAL ENERGIES
----------------

  NO   OCC          E(Eh)            E(eV)
   0   2.0000     -88.961983     -2420.7786
   1   2.0000     -88.960128     -2420.7282
   2   2.0000     -10.326640      -281.0022
   3   2.0000     -10.321995      -280.8758
   4   2.0000     -10.314994      -280.6853
   5   2.0000     -10.313658      -280.6489
   6   2.0000     -10.308115      -280.4981
   7   2.0000     -10.302723      -280.3513
   8   2.0000     -10.296606      -280.1849
   9   2.0000     -10.294605      -280.1304
  10   2.0000     -10.291406      -280.0434
  11   2.0000     -10.290015      -280.0055
  12   2.0000     -10.288444      -279.9628
  13   2.0000     -10.287234      -279.9299
  14   2.0000     -10.286764      -279.9171
  15   2.0000     -10.274697      -279.5887
  16   2.0000      -8.076303      -219.7674
  17   2.0000      -8.075168      -219.7365
  18   2.0000      -6.034866      -164.2171
  19   2.0000      -6.033686      -164.1849
  20   2.0000      -6.031039      -164.1129
  21   2.0000      -6.029646      -164.0750
  22   2.0000      -6.026843      -163.9987
  23   2.0000      -6.025874      -163.9724
  24   2.0000      -1.003937       -27.3185
  25   2.0000      -0.982004       -26.7217
  26   2.0000      -0.910066       -24.7642
  27   2.0000      -0.896545       -24.3962
  28   2.0000      -0.874430       -23.7945
  29   2.0000      -0.844777       -22.9876
  30   2.0000      -0.834603       -22.7107
  31   2.0000      -0.814796       -22.1717
  32   2.0000      -0.779686       -21.2163
  33   2.0000      -0.769615       -20.9423
  34   2.0000      -0.711722       -19.3669
  35   2.0000      -0.696744       -18.9594
  36   2.0000      -0.686702       -18.6861
  37   2.0000      -0.661016       -17.9872
  38   2.0000      -0.637543       -17.3484
  39   2.0000      -0.616141       -16.7660
  40   2.0000      -0.586237       -15.9523
  41   2.0000      -0.576440       -15.6857
  42   2.0000      -0.565341       -15.3837
  43   2.0000      -0.556618       -15.1464
  44   2.0000      -0.534329       -14.5398
  45   2.0000      -0.526518       -14.3273
  46   2.0000      -0.512622       -13.9492
  47   2.0000      -0.507620       -13.8130
  48   2.0000      -0.501625       -13.6499
  49   2.0000      -0.490127       -13.3370
  50   2.0000      -0.487737       -13.2720
  51   2.0000      -0.475298       -12.9335
  52   2.0000      -0.467124       -12.7111
  53   2.0000      -0.463734       -12.6189
  54   2.0000      -0.457607       -12.4521
  55   2.0000      -0.445580       -12.1248
  56   2.0000      -0.440687       -11.9917
  57   2.0000      -0.434439       -11.8217
  58   2.0000      -0.431207       -11.7337
  59   2.0000      -0.427751       -11.6397
  60   2.0000      -0.418385       -11.3848
  61   2.0000      -0.416881       -11.3439
  62   2.0000      -0.412022       -11.2117
  63   2.0000      -0.336219        -9.1490
  64   2.0000      -0.328089        -8.9278
  65   2.0000      -0.316718        -8.6183
  66   2.0000      -0.308024        -8.3818
  67   0.0000       0.047426         1.2905
  68   0.0000       0.050987         1.3874
  69   0.0000       0.110467         3.0060
  70   0.0000       0.118921         3.2360
  71   0.0000       0.127730         3.4757

MULLIKEN ATOMIC CHARGES
-----------------------
   0 S :    0.106041
   1 C :   -0.161289
   2 C :   -0.033019
   3 C :    0.003326
   4 C :   -0.144650
   5 H :    0.026998
   6 C :    0.015077
   7 H :    0.025725
   8 H :    0.042006
   9 C :   -0.043255
  10 H :    0.036643
  11 H :    0.050437
  12 C :   -0.079583
  13 H :    0.045977
  14 H :    0.040254
  15 H :    0.030641
  16 S :    0.100979
  17 C :   -0.102247
  18 C :   -0.004438
  19 C :   -0.066976
  20 C :   -0.187047
  21 H :    0.008510
  22 C :    0.122042
  23 H :    0.039025
  24 H :   -0.000019
  25 C :   -0.074647
  26 H :    0.031639
  27 H :    0.032371
  28 C :   -0.050473
  29 H :    0.039614
  30 H :    0.017002
  31 H :    0.020326
  32 H :    0.054427
  33 H :    0.058583
Sum of atomic charges:    0.0000000

LOEWDIN ATOMIC CHARGES
----------------------
   0 S :    0.380510
   1 C :   -0.184415
   2 C :   -0.075907
   3 C :   -0.062835
   4 C :   -0.199762
   5 H :    0.037077
   6 C :   -0.032489
   7 H :    0.030776
   8 H :    0.035380
   9 C :   -0.036608
  10 H :    0.025711
  11 H :    0.032409
  12 C :   -0.073222
  13 H :    0.030000
  14 H :    0.033836
  15 H :    0.021732
  16 S :    0.403971
  17 C :   -0.168584
  18 C :   -0.067391
  19 C :   -0.044064
  20 C :   -0.215617
  21 H :    0.027150
  22 C :   -0.028674
  23 H :    0.035900
  24 H :    0.021050
  25 C :   -0.025056
  26 H :    0.015929
  27 H :    0.025092
  28 C :   -0.068063
  29 H :    0.028881
  30 H :    0.012959
  31 H :    0.024277
  32 H :    0.031682
  33 H :    0.028368

  Mayer bond orders larger than 0.100000
B(  0-S ,  1-C ) :   1.1262 B(  0-S ,  4-C ) :   1.1298 B(  1-C ,  2-C ) :   1.6367
B(  1-C , 32-H ) :   0.9652 B(  2-C ,  3-C ) :   1.2135 B(  2-C ,  6-C ) :   1.0067
B(  3-C ,  4-C ) :   1.6127 B(  3-C ,  5-H ) :   0.9809 B(  4-C , 20-C ) :   1.0315
B(  6-C ,  7-H ) :   0.9506 B(  6-C ,  8-H ) :   0.9326 B(  6-C ,  9-C ) :   1.0571
B(  9-C , 10-H ) :   0.9585 B(  9-C , 11-H ) :   0.9495 B(  9-C , 12-C ) :   1.0814
B( 12-C , 13-H ) :   0.9739 B( 12-C , 14-H ) :   0.9757 B( 12-C , 15-H ) :   0.9757
B( 16-S , 17-C ) :   1.1486 B( 16-S , 20-C ) :   1.1479 B( 17-C , 18-C ) :   1.6482
B( 17-C , 33-H ) :   0.9630 B( 18-C , 19-C ) :   1.1979 B( 18-C , 21-H ) :   0.9957
B( 19-C , 20-C ) :   1.6018 B( 19-C , 22-C ) :   1.0668 B( 22-C , 23-H ) :   0.9326
B( 22-C , 24-H ) :   0.9291 B( 22-C , 25-C ) :   1.0596 B( 25-C , 26-H ) :   0.9576
B( 25-C , 27-H ) :   0.9632 B( 25-C , 28-C ) :   1.0736 B( 28-C , 29-H ) :   0.9707
B( 28-C , 30-H ) :   0.9749 B( 28-C , 31-H ) :   0.9768

Dispersion correction           -0.015547265
FINAL SINGLE POINT ENERGY     -1339.862246431371

DIPOLE MOMENT
-------------
                                X             Y             Z
Electronic contribution:     -7.38284     -19.67531     -13.91069
Nuclear contribution   :      7.68571      20.07632      14.24425
                        -----------------------------------------
Total Dipole Moment    :      0.30286       0.40101       0.33356
                        -----------------------------------------
Magnitude (a.u.)       :      0.60316
Magnitude (Debye)      :      1.53311

Rotational constants in cm-1:     0.019336     0.008378     0.007746
Rotational constants in MHz :   579.673687   251.168919   232.230934

                             ****ORCA TERMINATED NORMALLY****
TOTAL RUN TIME: 0 days 0 hours 0 minutes 31 seconds 102 msec
