                         Program Version 4.2.1 -  RELEASE  -
|  1> ! wB97X-D3 SP def2-SVP
|  2> %pal
|  3> nprocs 16
|  4> end
|  5>
|  6> * xyz 0 1
|  7> S 	 -20.0957 	 1.12952 	 75.326
|  8> C 	 -19.0356 	 -0.140907 	 74.8466
|  9> C 	 -19.0442 	 -1.23915 	 75.7512
| 10> C 	 -19.9911 	 -0.966383 	 76.7933
| 11> C 	 -20.7737 	 0.181815 	 76.5777
| 12> H 	 -20.2449 	 -1.68164 	 77.5335
| 13> C 	 -18.0586 	 -2.39808 	 75.7955
| 14> H 	 -17.7585 	 -2.57861 	 74.765
| 15> H 	 -18.6165 	 -3.26982 	 76.1844
| 16> C 	 -16.8953 	 -2.24022 	 76.8694
| 17> H 	 -16.1794 	 -1.49773 	 76.5255
| 18> H 	 -17.3248 	 -1.9602 	 77.851
| 19> C 	 -16.2638 	 -3.55945 	 77.0825
| 20> H 	 -16.9942 	 -4.31148 	 77.4374
| 21> H 	 -15.9096 	 -3.92864 	 76.1353
| 22> H 	 -15.4873 	 -3.50833 	 77.8267
| 23> S 	 -21.7785 	 2.3012 	 77.7441
| 24> C 	 -23.0031 	 2.21759 	 79.0005
| 25> C 	 -23.4192 	 0.878916 	 79.2186
| 26> C 	 -22.6326 	 -0.0274553 	 78.4389
| 27> C 	 -21.7286 	 0.626256 	 77.5676
| 28> H 	 -24.1695 	 0.557988 	 79.9048
| 29> C 	 -22.9952 	 -1.46503 	 78.5002
| 30> H 	 -22.4569 	 -1.90997 	 77.6603
| 31> H 	 -24.0459 	 -1.45293 	 78.2528
| 32> C 	 -22.7916 	 -2.1896 	 79.7673
| 33> H 	 -23.3481 	 -1.82699 	 80.5636
| 34> H 	 -21.7111 	 -2.02204 	 79.9018
| 35> C 	 -23.0547 	 -3.70816 	 79.559
| 36> H 	 -24.0778 	 -3.93942 	 79.2809
| 37> H 	 -22.9055 	 -4.24582 	 80.4422
| 38> H 	 -22.3782 	 -3.96547 	 78.8326
| 39> H 	 -18.6061 	 -0.100982 	 73.8561
| 40> H 	 -23.4711 	 3.10118 	 79.4918
| 41> *
| 42>
| 43>                          ****END OF INPUT****

CARTESIAN COORDINATES (ANGSTROEM)
---------------------------------
  S    -20.095700    1.129520   75.326000
  C    -19.035600   -0.140907   74.846600
  C    -19.044200   -1.239150   75.751200
  C    -19.991100   -0.966383   76.793300
  C    -20.773700    0.181815   76.577700
  H    -20.244900   -1.681640   77.533500
  C    -18.058600   -2.398080   75.795500
  H    -17.758500   -2.578610   74.765000
  H    -18.616500   -3.269820   76.184400
  C    -16.895300   -2.240220   76.869400
  H    -16.179400   -1.497730   76.525500
  H    -17.324800   -1.960200   77.851000
  C    -16.263800   -3.559450   77.082500
  H    -16.994200   -4.311480   77.437400
  H    -15.909600   -3.928640   76.135300
  H    -15.487300   -3.508330   77.826700
  S    -21.778500    2.301200   77.744100
  C    -23.003100    2.217590   79.000500
  C    -23.419200    0.878916   79.218600
  C    -22.632600   -0.027455   78.438900
  C    -21.728600    0.626256   77.567600
  H    -24.169500    0.557988   79.904800
  C    -22.995200   -1.465030   78.500200
  H    -22.456900   -1.909970   77.660300
  H    -24.045900   -1.452930   78.252800
  C    -22.791600   -2.189600   79.767300
  H    -23.348100   -1.826990   80.563600
  H    -21.711100   -2.022040   79.901800
  C    -23.054700   -3.708160   79.559000
  H    -24.077800   -3.939420   79.280900
  H    -22.905500   -4.245820   80.442200
  H    -22.378200   -3.965470   78.832600
  H    -18.606100   -0.100982   73.856100
  H    -23.471100    3.101180   79.491800

 Total Charge           Charge          ....    0
 Multiplicity           Mult            ....    1
 Number of Electrons    NEL             ....  134
 Basis Dimension        Dim             ....  322

ORBITAL ENERGIES
----------------

  NO   OCC          E(Eh)            E(eV)
   0   2.0000     -88.970253     -2421.0037
   1   2.0000     -88.965298     -2420.8688
   2   2.0000     -10.327469      -281.0247
   3   2.0000     -10.323237      -280.9096
   4   2.0000     -10.321375      -280.8589
   5   2.0000     -10.314573      -280.6738
   6   2.0000     -10.306589      -280.4566
   7   2.0000     -10.299410      -280.2612
   8   2.0000     -10.298363      -280.2327
   9   2.0000     -10.295052      -280.1426
  10   2.0000     -10.290828      -280.0277
  11   2.0000     -10.289744      -279.9982
  12   2.0000     -10.280050      -279.7344
  13   2.0000     -10.279665      -279.7239
  14   2.0000     -10.274512      -279.5837
  15   2.0000     -10.268354      -279.4161
  16   2.0000      -8.085905      -220.0287
  17   2.0000      -8.081188      -219.9003
  18   2.0000      -6.044300      -164.4738
  19   2.0000      -6.040260      -164.3638
  20   2.0000      -6.039613      -164.3462
  21   2.0000      -6.036771      -164.2689
  22   2.0000      -6.035415      -164.2320
  23   2.0000      -6.032106      -164.1419
  24   2.0000      -1.013444       -27.5772
  25   2.0000      -0.985110       -26.8062
  26   2.0000      -0.924113       -25.1464
  27   2.0000      -0.913647       -24.8616
  28   2.0000      -0.872149       -23.7324
  29   2.0000      -0.857427       -23.3318
  30   2.0000      -0.852570       -23.1996
  31   2.0000      -0.810573       -22.0568
  32   2.0000      -0.780716       -21.2444
  33   2.0000      -0.769200       -20.9310
  34   2.0000      -0.709294       -19.3009
  35   2.0000      -0.698506       -19.0073
  36   2.0000      -0.691411       -18.8142
  37   2.0000      -0.670333       -18.2407
  38   2.0000      -0.641886       -17.4666
  39   2.0000      -0.620951       -16.8969
  40   2.0000      -0.595510       -16.2047
  41   2.0000      -0.582814       -15.8592
  42   2.0000      -0.572650       -15.5826
  43   2.0000      -0.561691       -15.2844
  44   2.0000      -0.533828       -14.5262
  45   2.0000      -0.527590       -14.3565
  46   2.0000      -0.520919       -14.1749
  47   2.0000      -0.511414       -13.9163
  48   2.0000      -0.506390       -13.7796
  49   2.0000      -0.502765       -13.6809
  50   2.0000      -0.496699       -13.5159
  51   2.0000      -0.479631       -13.0514
  52   2.0000      -0.468743       -12.7552
  53   2.0000      -0.464568       -12.6415
  54   2.0000      -0.460481       -12.5303
  55   2.0000      -0.456357       -12.4181
  56   2.0000      -0.449380       -12.2282
  57   2.0000      -0.439131       -11.9494
  58   2.0000      -0.434335       -11.8189
  59   2.0000      -0.428685       -11.6651
  60   2.0000      -0.422127       -11.4867
  61   2.0000      -0.421249       -11.4628
  62   2.0000      -0.414763       -11.2863
  63   2.0000      -0.355091        -9.6625
  64   2.0000      -0.333311        -9.0699
  65   2.0000      -0.324112        -8.8195
  66   2.0000      -0.276681        -7.5289
  67   0.0000       0.023317         0.6345
  68   0.0000       0.076518         2.0821
  69   0.0000       0.103633         2.8200
  70   0.0000       0.112610         3.0643
  71   0.0000       0.123783         3.3683

MULLIKEN ATOMIC CHARGES
-----------------------
   0 S :    0.117655
   1 C :   -0.139011
   2 C :   -0.070101
   3 C :   -0.005952
   4 C :   -0.111380
   5 H :   -0.002197
   6 C :    0.046873
   7 H :    0.029468
   8 H :    0.019246
   9 C :   -0.062586
  10 H :    0.038941
  11 H :    0.034442
  12 C :   -0.029900
  13 H :    0.026513
  14 H :    0.021762
  15 H :    0.033825
  16 S :    0.100074
  17 C :   -0.110776
  18 C :   -0.018582
  19 C :   -0.062342
  20 C :   -0.129127
  21 H :    0.013997
  22 C :    0.034005
  23 H :    0.012425
  24 H :    0.023306
  25 C :   -0.054352
  26 H :    0.014087
  27 H :    0.025906
  28 C :    0.022719
  29 H :    0.024456
  30 H :    0.019062
  31 H :    0.008539
  32 H :    0.056907
  33 H :    0.072098
Sum of atomic charges:    0.0000000

LOEWDIN ATOMIC CHARGES
----------------------
   0 S :    0.435316
   1 C :   -0.214378
   2 C :   -0.056335
   3 C :   -0.063321
   4 C :   -0.210235
   5 H :    0.019563
   6 C :   -0.030701
   7 H :    0.030212
   8 H :    0.030618
   9 C :   -0.032944
  10 H :    0.025496
  11 H :    0.029156
  12 C :   -0.063949
  13 H :    0.026147
  14 H :    0.021215
  15 H :    0.024682
  16 S :    0.433453
  17 C :   -0.197772
  18 C :   -0.060305
  19 C :   -0.063455
  20 C :   -0.214088
  21 H :    0.027879
  22 C :   -0.039978
  23 H :    0.027519
  24 H :    0.030525
  25 C :   -0.029060
  26 H :    0.011598
  27 H :    0.028440
  28 C :   -0.044868
  29 H :    0.025897
  30 H :    0.018869
  31 H :    0.014239
  32 H :    0.024952
  33 H :    0.035615

  Mayer bond orders larger than 0.100000
B(  0-S ,  1-C ) :   1.1598 B(  0-S ,  4-C ) :   1.1733 B(  1-C ,  2-C ) :   1.5465
B(  1-C , 32-H ) :   0.9690 B(  2-C ,  3-C ) :   1.2868 B(  2-C ,  6-C ) :   1.0435
B(  3-C ,  4-C ) :   1.5077 B(  3-C ,  5-H ) :   0.9912 B(  4-C , 20-C ) :   1.0705
B(  6-C ,  7-H ) :   0.9394 B(  6-C ,  8-H ) :   0.9387 B(  6-C ,  9-C ) :   1.0509
B(  9-C , 10-H ) :   0.9548 B(  9-C , 11-H ) :   0.9558 B(  9-C , 12-C ) :   1.0911
B( 12-C , 13-H ) :   0.9716 B( 12-C , 14-H ) :   0.9710 B( 12-C , 15-H ) :   0.9707
B( 16-S , 17-C ) :   1.1656 B( 16-S , 20-C ) :   1.1595 B( 17-C , 18-C ) :   1.5633
B( 17-C , 33-H ) :   0.9657 B( 18-C , 19-C ) :   1.2792 B( 18-C , 21-H ) :   0.9922
B( 19-C , 20-C ) :   1.5358 B( 19-C , 22-C ) :   1.0483 B( 22-C , 23-H ) :   0.9345
B( 22-C , 24-H ) :   0.9247 B( 22-C , 25-C ) :   1.0668 B( 25-C , 26-H ) :   0.9518
B( 25-C , 27-H ) :   0.9542 B( 25-C , 28-C ) :   1.0864 B( 28-C , 29-H ) :   0.9738
B( 28-C , 30-H ) :   0.9734 B( 28-C , 31-H ) :   0.9746

Dispersion correction           -0.013582906
FINAL SINGLE POINT ENERGY     -1339.863631461771

DIPOLE MOMENT
-------------
                                X             Y             Z
Electronic contribution:     -6.91286      29.10850      -9.84194
Nuclear contribution   :      6.96316     -29.71356      10.07482
                        -----------------------------------------
Total Dipole Moment    :      0.05030      -0.60505       0.23288
                        -----------------------------------------
Magnitude (a.u.)       :      0.65027
Magnitude (Debye)      :      1.65286

Rotational constants in cm-1:     0.016156     0.009332     0.006491
Rotational constants in MHz :   484.342803   279.772234   194.606416

                             ****ORCA TERMINATED NORMALLY****
TOTAL RUN TIME: 0 days 0 hours 0 minutes 34 seconds 372 msec
