                         Program Version 4.2.1 -  RELEASE  -
|  1> ! wB97X-D3 SP def2-SVP
|  2> %pal
|  3> nprocs 16
|  4> end
|  5>
|  6> * xyz 0 1
|  7> S 	 12.6526 	 -1.52974 	 62.7636
|  8> C 	 12.8849 	 -3.0827 	 61.9
|  9> C 	 13.9291 	 -2.96851 	 61.0061
| 10> C 	 14.4285 	 -1.60498 	 60.9391
| 11> C 	 13.8145 	 -0.720227 	 61.7667
| 12> H 	 15.1864 	 -1.27333 	 60.3289
| 13> C 	 14.3338 	 -4.01171 	 59.9483
| 14> H 	 14.2918 	 -3.48301 	 58.9887
| 15> H 	 13.5347 	 -4.85143 	 59.9087
| 16> C 	 15.7037 	 -4.54425 	 60.0938
| 17> H 	 16.4134 	 -3.71936 	 60.0793
| 18> H 	 15.9718 	 -4.98003 	 61.0674
| 19> C 	 15.9613 	 -5.69598 	 59.1391
| 20> H 	 15.7558 	 -5.37432 	 58.0779
| 21> H 	 16.958 	 -6.04972 	 59.2572
| 22> H 	 15.2835 	 -6.4715 	 59.347
| 23> S 	 15.8347 	 1.10894 	 61.6991
| 24> C 	 15.5065 	 2.79938 	 62.2129
| 25> C 	 14.1892 	 2.96936 	 62.4935
| 26> C 	 13.3641 	 1.81827 	 62.3408
| 27> C 	 14.1327 	 0.681413 	 61.9873
| 28> H 	 13.792 	 3.94243 	 62.841
| 29> C 	 11.9081 	 1.97534 	 62.5335
| 30> H 	 11.7144 	 2.3142 	 63.5229
| 31> H 	 11.487 	 0.959703 	 62.5545
| 32> C 	 11.1783 	 2.82237 	 61.5025
| 33> H 	 11.4061 	 2.61806 	 60.4813
| 34> H 	 11.465 	 3.8426 	 61.6708
| 35> C 	 9.66981 	 2.90424 	 61.6165
| 36> H 	 9.12452 	 3.33881 	 60.7346
| 37> H 	 9.41106 	 3.55975 	 62.4009
| 38> H 	 9.14389 	 1.92014 	 61.7381
| 39> H 	 12.3194 	 -4.00881 	 62.1054
| 40> H 	 16.4104 	 3.44031 	 62.3725
| 41> *
| 42>
| 43>                          ****END OF INPUT****

CARTESIAN COORDINATES (ANGSTROEM)
---------------------------------
  S     12.652600   -1.529740   62.763600
  C     12.884900   -3.082700   61.900000
  C     13.929100   -2.968510   61.006100
  C     14.428500   -1.604980   60.939100
  C     13.814500   -0.720227   61.766700
  H     15.186400   -1.273330   60.328900
  C     14.333800   -4.011710   59.948300
  H     14.291800   -3.483010   58.988700
  H     13.534700   -4.851430   59.908700
  C     15.703700   -4.544250   60.093800
  H     16.413400   -3.719360   60.079300
  H     15.971800   -4.980030   61.067400
  C     15.961300   -5.695980   59.139100
  H     15.755800   -5.374320   58.077900
  H     16.958000   -6.049720   59.257200
  H     15.283500   -6.471500   59.347000
  S     15.834700    1.108940   61.699100
  C     15.506500    2.799380   62.212900
  C     14.189200    2.969360   62.493500
  C     13.364100    1.818270   62.340800
  C     14.132700    0.681413   61.987300
  H     13.792000    3.942430   62.841000
  C     11.908100    1.975340   62.533500
  H     11.714400    2.314200   63.522900
  H     11.487000    0.959703   62.554500
  C     11.178300    2.822370   61.502500
  H     11.406100    2.618060   60.481300
  H     11.465000    3.842600   61.670800
  C      9.669810    2.904240   61.616500
  H      9.124520    3.338810   60.734600
  H      9.411060    3.559750   62.400900
  H      9.143890    1.920140   61.738100
  H     12.319400   -4.008810   62.105400
  H     16.410400    3.440310   62.372500

 Total Charge           Charge          ....    0
 Multiplicity           Mult            ....    1
 Number of Electrons    NEL             ....  134
 Basis Dimension        Dim             ....  322

ORBITAL ENERGIES
----------------

  NO   OCC          E(Eh)            E(eV)
   0   2.0000     -88.964489     -2420.8468
   1   2.0000     -88.963491     -2420.8197
   2   2.0000     -10.335038      -281.2307
   3   2.0000     -10.327578      -281.0277
   4   2.0000     -10.325224      -280.9636
   5   2.0000     -10.318497      -280.7806
   6   2.0000     -10.306933      -280.4659
   7   2.0000     -10.304717      -280.4056
   8   2.0000     -10.299053      -280.2515
   9   2.0000     -10.297157      -280.1999
  10   2.0000     -10.287479      -279.9365
  11   2.0000     -10.285896      -279.8934
  12   2.0000     -10.280779      -279.7542
  13   2.0000     -10.280720      -279.7526
  14   2.0000     -10.277469      -279.6642
  15   2.0000     -10.274355      -279.5794
  16   2.0000      -8.078437      -219.8254
  17   2.0000      -8.077792      -219.8079
  18   2.0000      -6.037061      -164.2768
  19   2.0000      -6.036462      -164.2605
  20   2.0000      -6.033141      -164.1701
  21   2.0000      -6.032378      -164.1494
  22   2.0000      -6.029053      -164.0589
  23   2.0000      -6.028384      -164.0407
  24   2.0000      -1.004807       -27.3422
  25   2.0000      -0.980206       -26.6728
  26   2.0000      -0.918569       -24.9955
  27   2.0000      -0.914382       -24.8816
  28   2.0000      -0.872603       -23.7447
  29   2.0000      -0.855831       -23.2883
  30   2.0000      -0.843780       -22.9604
  31   2.0000      -0.813484       -22.1360
  32   2.0000      -0.785357       -21.3707
  33   2.0000      -0.771650       -20.9977
  34   2.0000      -0.707911       -19.2632
  35   2.0000      -0.700984       -19.0747
  36   2.0000      -0.691018       -18.8035
  37   2.0000      -0.667422       -18.1615
  38   2.0000      -0.638558       -17.3761
  39   2.0000      -0.619609       -16.8604
  40   2.0000      -0.602474       -16.3942
  41   2.0000      -0.571529       -15.5521
  42   2.0000      -0.569817       -15.5055
  43   2.0000      -0.558152       -15.1881
  44   2.0000      -0.530742       -14.4422
  45   2.0000      -0.523616       -14.2483
  46   2.0000      -0.520612       -14.1666
  47   2.0000      -0.517515       -14.0823
  48   2.0000      -0.508982       -13.8501
  49   2.0000      -0.502796       -13.6818
  50   2.0000      -0.489890       -13.3306
  51   2.0000      -0.478624       -13.0240
  52   2.0000      -0.468577       -12.7506
  53   2.0000      -0.467207       -12.7133
  54   2.0000      -0.457805       -12.4575
  55   2.0000      -0.450800       -12.2669
  56   2.0000      -0.446557       -12.1514
  57   2.0000      -0.440301       -11.9812
  58   2.0000      -0.429548       -11.6886
  59   2.0000      -0.425295       -11.5729
  60   2.0000      -0.421276       -11.4635
  61   2.0000      -0.411732       -11.2038
  62   2.0000      -0.402268       -10.9463
  63   2.0000      -0.358002        -9.7417
  64   2.0000      -0.332537        -9.0488
  65   2.0000      -0.328050        -8.9267
  66   2.0000      -0.287654        -7.8275
  67   0.0000       0.021857         0.5947
  68   0.0000       0.082075         2.2334
  69   0.0000       0.100053         2.7226
  70   0.0000       0.117760         3.2044
  71   0.0000       0.129852         3.5334

MULLIKEN ATOMIC CHARGES
-----------------------
   0 S :    0.090942
   1 C :   -0.147264
   2 C :   -0.034100
   3 C :    0.005642
   4 C :   -0.093548
   5 H :   -0.020189
   6 C :    0.019183
   7 H :    0.038863
   8 H :    0.032935
   9 C :   -0.081862
  10 H :    0.021216
  11 H :    0.020750
  12 C :   -0.009399
  13 H :    0.026273
  14 H :    0.031993
  15 H :    0.019809
  16 S :    0.069722
  17 C :   -0.111762
  18 C :   -0.022372
  19 C :   -0.053870
  20 C :   -0.134483
  21 H :    0.031986
  22 C :    0.105139
  23 H :    0.019097
  24 H :    0.005260
  25 C :   -0.038854
  26 H :    0.030221
  27 H :    0.012958
  28 C :   -0.070468
  29 H :    0.036000
  30 H :    0.019832
  31 H :    0.036478
  32 H :    0.060968
  33 H :    0.082904
Sum of atomic charges:   -0.0000000

LOEWDIN ATOMIC CHARGES
----------------------
   0 S :    0.395446
   1 C :   -0.190845
   2 C :   -0.054547
   3 C :   -0.069989
   4 C :   -0.188268
   5 H :    0.010564
   6 C :   -0.033189
   7 H :    0.036048
   8 H :    0.035608
   9 C :   -0.051756
  10 H :    0.022383
  11 H :    0.026060
  12 C :   -0.054387
  13 H :    0.026971
  14 H :    0.023535
  15 H :    0.018708
  16 S :    0.373047
  17 C :   -0.170335
  18 C :   -0.070244
  19 C :   -0.054968
  20 C :   -0.179499
  21 H :    0.037771
  22 C :   -0.034651
  23 H :    0.030664
  24 H :    0.021863
  25 C :   -0.035954
  26 H :    0.024931
  27 H :    0.022013
  28 C :   -0.069895
  29 H :    0.033922
  30 H :    0.016394
  31 H :    0.027709
  32 H :    0.035578
  33 H :    0.039311

  Mayer bond orders larger than 0.100000
B(  0-S ,  1-C ) :   1.1151 B(  0-S ,  4-C ) :   1.1358 B(  1-C ,  2-C ) :   1.6401
B(  1-C , 32-H ) :   0.9664 B(  2-C ,  3-C ) :   1.2053 B(  2-C ,  6-C ) :   1.0154
B(  3-C ,  4-C ) :   1.5940 B(  3-C ,  5-H ) :   1.0025 B(  4-C , 20-C ) :   1.0682
B(  6-C ,  7-H ) :   0.9411 B(  6-C ,  8-H ) :   0.9513 B(  6-C ,  9-C ) :   1.0598
B(  9-C , 10-H ) :   0.9516 B(  9-C , 11-H ) :   0.9525 B(  9-C , 12-C ) :   1.0832
B( 12-C , 13-H ) :   0.9729 B( 12-C , 14-H ) :   0.9737 B( 12-C , 15-H ) :   0.9732
B( 16-S , 17-C ) :   1.1332 B( 16-S , 20-C ) :   1.1359 B( 17-C , 18-C ) :   1.6130
B( 17-C , 33-H ) :   0.9644 B( 18-C , 19-C ) :   1.2287 B( 18-C , 21-H ) :   0.9842
B( 19-C , 20-C ) :   1.5644 B( 19-C , 22-C ) :   1.0632 B( 22-C , 23-H ) :   0.9221
B( 22-C , 24-H ) :   0.9167 B( 22-C , 25-C ) :   1.0606 B( 25-C , 26-H ) :   0.9595
B( 25-C , 27-H ) :   0.9504 B( 25-C , 28-C ) :   1.0880 B( 28-C , 29-H ) :   0.9739
B( 28-C , 30-H ) :   0.9770 B( 28-C , 31-H ) :   0.9744

Dispersion correction           -0.013224975
FINAL SINGLE POINT ENERGY     -1339.878468933403

DIPOLE MOMENT
-------------
                                X             Y             Z
Electronic contribution:      7.68291       6.21969      10.09576
Nuclear contribution   :     -7.76487      -6.13276     -10.25605
                        -----------------------------------------
Total Dipole Moment    :     -0.08196       0.08694      -0.16029
                        -----------------------------------------
Magnitude (a.u.)       :      0.19992
Magnitude (Debye)      :      0.50816

Rotational constants in cm-1:     0.022122     0.007151     0.005918
Rotational constants in MHz :   663.211951   214.381094   177.406610

                             ****ORCA TERMINATED NORMALLY****
TOTAL RUN TIME: 0 days 0 hours 0 minutes 33 seconds 418 msec
