                         Program Version 4.2.1 -  RELEASE  -
|  1> ! wB97X-D3 SP def2-SVP
|  2> %pal
|  3> nprocs 16
|  4> end
|  5>
|  6> * xyz 0 1
|  7> S 	 -40.6809 	 17.4193 	 79.2295
|  8> C 	 -40.411 	 15.7557 	 79.4868
|  9> C 	 -41.5391 	 14.9899 	 79.1207
| 10> C 	 -42.6485 	 15.84 	 78.7662
| 11> C 	 -42.3419 	 17.1824 	 78.9238
| 12> H 	 -43.5806 	 15.4061 	 78.5387
| 13> C 	 -41.7764 	 13.5521 	 79.5257
| 14> H 	 -42.8542 	 13.3103 	 79.632
| 15> H 	 -41.471 	 13.4461 	 80.5692
| 16> C 	 -41.1896 	 12.578 	 78.4323
| 17> H 	 -40.1006 	 12.6268 	 78.4464
| 18> H 	 -41.4201 	 11.5284 	 78.7679
| 19> C 	 -41.8477 	 12.6945 	 77.0335
| 20> H 	 -41.596 	 13.697 	 76.6854
| 21> H 	 -41.414 	 12.0747 	 76.2146
| 22> H 	 -42.934 	 12.4496 	 76.9577
| 23> S 	 -42.8713 	 19.4465 	 77.5035
| 24> C 	 -44.3699 	 20.3673 	 77.8794
| 25> C 	 -45.1021 	 19.7429 	 78.811
| 26> C 	 -44.4369 	 18.6562 	 79.3385
| 27> C 	 -43.2343 	 18.391 	 78.7936
| 28> H 	 -46.0645 	 20.1016 	 79.0538
| 29> C 	 -45.0734 	 17.7696 	 80.3921
| 30> H 	 -45.1535 	 16.8292 	 79.9797
| 31> H 	 -46.0226 	 18.2395 	 80.5529
| 32> C 	 -44.3123 	 17.5202 	 81.753
| 33> H 	 -43.371 	 16.9249 	 81.5615
| 34> H 	 -44.9429 	 16.9221 	 82.4546
| 35> C 	 -43.9121 	 18.8095 	 82.2921
| 36> H 	 -43.1845 	 19.4124 	 81.568
| 37> H 	 -43.3701 	 18.5634 	 83.1761
| 38> H 	 -44.8755 	 19.3265 	 82.6097
| 39> H 	 -39.5441 	 15.3199 	 79.8863
| 40> H 	 -44.7819 	 21.0517 	 77.2034
| 41> *
| 42>
| 43>                          ****END OF INPUT****

CARTESIAN COORDINATES (ANGSTROEM)
---------------------------------
  S    -40.680900   17.419300   79.229500
  C    -40.411000   15.755700   79.486800
  C    -41.539100   14.989900   79.120700
  C    -42.648500   15.840000   78.766200
  C    -42.341900   17.182400   78.923800
  H    -43.580600   15.406100   78.538700
  C    -41.776400   13.552100   79.525700
  H    -42.854200   13.310300   79.632000
  H    -41.471000   13.446100   80.569200
  C    -41.189600   12.578000   78.432300
  H    -40.100600   12.626800   78.446400
  H    -41.420100   11.528400   78.767900
  C    -41.847700   12.694500   77.033500
  H    -41.596000   13.697000   76.685400
  H    -41.414000   12.074700   76.214600
  H    -42.934000   12.449600   76.957700
  S    -42.871300   19.446500   77.503500
  C    -44.369900   20.367300   77.879400
  C    -45.102100   19.742900   78.811000
  C    -44.436900   18.656200   79.338500
  C    -43.234300   18.391000   78.793600
  H    -46.064500   20.101600   79.053800
  C    -45.073400   17.769600   80.392100
  H    -45.153500   16.829200   79.979700
  H    -46.022600   18.239500   80.552900
  C    -44.312300   17.520200   81.753000
  H    -43.371000   16.924900   81.561500
  H    -44.942900   16.922100   82.454600
  C    -43.912100   18.809500   82.292100
  H    -43.184500   19.412400   81.568000
  H    -43.370100   18.563400   83.176100
  H    -44.875500   19.326500   82.609700
  H    -39.544100   15.319900   79.886300
  H    -44.781900   21.051700   77.203400

 Total Charge           Charge          ....    0
 Multiplicity           Mult            ....    1
 Number of Electrons    NEL             ....  134
 Basis Dimension        Dim             ....  322

ORBITAL ENERGIES
----------------

  NO   OCC          E(Eh)            E(eV)
   0   2.0000     -88.968768     -2420.9633
   1   2.0000     -88.962422     -2420.7906
   2   2.0000     -10.330455      -281.1060
   3   2.0000     -10.318964      -280.7933
   4   2.0000     -10.310249      -280.5561
   5   2.0000     -10.309443      -280.5342
   6   2.0000     -10.301390      -280.3151
   7   2.0000     -10.298126      -280.2262
   8   2.0000     -10.295623      -280.1582
   9   2.0000     -10.293104      -280.0896
  10   2.0000     -10.289856      -280.0012
  11   2.0000     -10.284521      -279.8560
  12   2.0000     -10.283829      -279.8372
  13   2.0000     -10.283589      -279.8307
  14   2.0000     -10.277494      -279.6648
  15   2.0000     -10.274481      -279.5828
  16   2.0000      -8.084899      -220.0013
  17   2.0000      -8.077647      -219.8039
  18   2.0000      -6.043208      -164.4441
  19   2.0000      -6.039088      -164.3319
  20   2.0000      -6.036000      -164.2479
  21   2.0000      -6.035922      -164.2458
  22   2.0000      -6.032234      -164.1454
  23   2.0000      -6.028388      -164.0408
  24   2.0000      -1.016097       -27.6494
  25   2.0000      -0.994441       -27.0601
  26   2.0000      -0.909751       -24.7556
  27   2.0000      -0.906944       -24.6792
  28   2.0000      -0.871297       -23.7092
  29   2.0000      -0.852125       -23.1875
  30   2.0000      -0.846672       -23.0391
  31   2.0000      -0.819002       -22.2862
  32   2.0000      -0.780527       -21.2392
  33   2.0000      -0.770165       -20.9573
  34   2.0000      -0.702545       -19.1172
  35   2.0000      -0.700231       -19.0542
  36   2.0000      -0.677688       -18.4408
  37   2.0000      -0.670556       -18.2468
  38   2.0000      -0.645780       -17.5726
  39   2.0000      -0.621023       -16.8989
  40   2.0000      -0.586626       -15.9629
  41   2.0000      -0.577559       -15.7162
  42   2.0000      -0.560561       -15.2536
  43   2.0000      -0.552343       -15.0300
  44   2.0000      -0.545244       -14.8368
  45   2.0000      -0.542750       -14.7690
  46   2.0000      -0.515557       -14.0290
  47   2.0000      -0.508325       -13.8322
  48   2.0000      -0.499253       -13.5854
  49   2.0000      -0.492584       -13.4039
  50   2.0000      -0.489124       -13.3097
  51   2.0000      -0.480467       -13.0742
  52   2.0000      -0.473152       -12.8751
  53   2.0000      -0.467403       -12.7187
  54   2.0000      -0.461970       -12.5708
  55   2.0000      -0.449537       -12.2325
  56   2.0000      -0.441823       -12.0226
  57   2.0000      -0.436877       -11.8880
  58   2.0000      -0.426088       -11.5944
  59   2.0000      -0.422338       -11.4924
  60   2.0000      -0.411079       -11.1860
  61   2.0000      -0.407138       -11.0788
  62   2.0000      -0.405154       -11.0248
  63   2.0000      -0.349963        -9.5230
  64   2.0000      -0.331984        -9.0338
  65   2.0000      -0.326252        -8.8778
  66   2.0000      -0.296425        -8.0661
  67   0.0000       0.038542         1.0488
  68   0.0000       0.059272         1.6129
  69   0.0000       0.106320         2.8931
  70   0.0000       0.117024         3.1844
  71   0.0000       0.135432         3.6853

MULLIKEN ATOMIC CHARGES
-----------------------
   0 S :    0.135047
   1 C :   -0.090397
   2 C :   -0.111401
   3 C :    0.071045
   4 C :   -0.176232
   5 H :   -0.003810
   6 C :    0.027371
   7 H :    0.024192
   8 H :    0.040067
   9 C :   -0.072557
  10 H :    0.035799
  11 H :    0.027234
  12 C :   -0.081201
  13 H :    0.040808
  14 H :    0.037490
  15 H :    0.044197
  16 S :    0.093078
  17 C :   -0.061516
  18 C :   -0.031323
  19 C :   -0.079349
  20 C :   -0.128022
  21 H :    0.003471
  22 C :    0.155998
  23 H :    0.001879
  24 H :    0.000854
  25 C :   -0.112692
  26 H :    0.043502
  27 H :    0.036167
  28 C :   -0.057911
  29 H :    0.070852
  30 H :    0.020745
  31 H :    0.031076
  32 H :    0.028147
  33 H :    0.037390
Sum of atomic charges:    0.0000000

LOEWDIN ATOMIC CHARGES
----------------------
   0 S :    0.450445
   1 C :   -0.207618
   2 C :   -0.063884
   3 C :   -0.054841
   4 C :   -0.207265
   5 H :    0.022862
   6 C :   -0.035728
   7 H :    0.030950
   8 H :    0.035710
   9 C :   -0.041652
  10 H :    0.022882
  11 H :    0.023041
  12 C :   -0.078492
  13 H :    0.026237
  14 H :    0.032695
  15 H :    0.030678
  16 S :    0.401970
  17 C :   -0.156806
  18 C :   -0.060578
  19 C :   -0.067056
  20 C :   -0.211734
  21 H :    0.030211
  22 C :   -0.020329
  23 H :    0.017793
  24 H :    0.022930
  25 C :   -0.047468
  26 H :    0.029036
  27 H :    0.027798
  28 C :   -0.078264
  29 H :    0.045174
  30 H :    0.017650
  31 H :    0.028911
  32 H :    0.017328
  33 H :    0.017411

  Mayer bond orders larger than 0.100000
B(  0-S ,  1-C ) :   1.1628 B(  0-S ,  4-C ) :   1.1867 B(  1-C ,  2-C ) :   1.5804
B(  1-C ,  4-C ) :   0.1029 B(  1-C , 32-H ) :   0.9749 B(  2-C ,  3-C ) :   1.2577
B(  2-C ,  6-C ) :   1.0068 B(  3-C ,  4-C ) :   1.5491 B(  3-C ,  5-H ) :   1.0072
B(  4-C , 20-C ) :   0.9638 B(  6-C ,  7-H ) :   0.9550 B(  6-C ,  8-H ) :   0.9548
B(  6-C ,  9-C ) :   1.0464 B(  9-C , 10-H ) :   0.9642 B(  9-C , 11-H ) :   0.9598
B(  9-C , 12-C ) :   1.0656 B( 12-C , 13-H ) :   0.9728 B( 12-C , 14-H ) :   0.9740
B( 12-C , 15-H ) :   0.9754 B( 16-S , 17-C ) :   1.1443 B( 16-S , 20-C ) :   1.1600
B( 17-C , 18-C ) :   1.6232 B( 17-C , 33-H ) :   0.9671 B( 18-C , 19-C ) :   1.2489
B( 18-C , 21-H ) :   0.9987 B( 19-C , 20-C ) :   1.6258 B( 19-C , 22-C ) :   1.0306
B( 22-C , 23-H ) :   0.9206 B( 22-C , 24-H ) :   0.9316 B( 22-C , 25-C ) :   1.0690
B( 25-C , 26-H ) :   0.9474 B( 25-C , 27-H ) :   0.9535 B( 25-C , 28-C ) :   1.0951
B( 28-C , 29-H ) :   0.9593 B( 28-C , 30-H ) :   0.9696 B( 28-C , 31-H ) :   0.9726

Dispersion correction           -0.015802260
FINAL SINGLE POINT ENERGY     -1339.849806669575

DIPOLE MOMENT
-------------
                                X             Y             Z
Electronic contribution:      7.08559      18.69749      -9.19784
Nuclear contribution   :     -7.52101     -19.24501       9.41636
                        -----------------------------------------
Total Dipole Moment    :     -0.43542      -0.54752       0.21852
                        -----------------------------------------
Magnitude (a.u.)       :      0.73288
Magnitude (Debye)      :      1.86285

Rotational constants in cm-1:     0.021428     0.008641     0.007789
Rotational constants in MHz :   642.405493   259.049292   233.517755

                             ****ORCA TERMINATED NORMALLY****
TOTAL RUN TIME: 0 days 0 hours 0 minutes 32 seconds 555 msec
