                         Program Version 4.2.1 -  RELEASE  -
|  1> ! wB97X-D3 SP def2-SVP
|  2> %pal
|  3> nprocs 16
|  4> end
|  5>
|  6> * xyz 0 1
|  7> S 	 -45.8357 	 16.9227 	 75.847
|  8> C 	 -44.2941 	 17.6318 	 75.3402
|  9> C 	 -43.2567 	 16.7142 	 75.1872
| 10> C 	 -43.7515 	 15.3854 	 75.5199
| 11> C 	 -45.0663 	 15.2939 	 75.9233
| 12> H 	 -43.1704 	 14.4597 	 75.43
| 13> C 	 -41.8467 	 17.0896 	 74.8677
| 14> H 	 -41.6453 	 18.0774 	 75.1843
| 15> H 	 -41.835 	 17.0841 	 73.8015
| 16> C 	 -40.7536 	 16.1558 	 75.5534
| 17> H 	 -41.0156 	 16.1421 	 76.6461
| 18> H 	 -40.7078 	 15.2277 	 75.0867
| 19> C 	 -39.2956 	 16.7629 	 75.4461
| 20> H 	 -39.2202 	 17.8593 	 75.7747
| 21> H 	 -38.697 	 16.1908 	 76.1082
| 22> H 	 -38.8816 	 16.6556 	 74.4241
| 23> S 	 -47.0578 	 13.5601 	 75.2408
| 24> C 	 -47.5288 	 12.2907 	 76.3566
| 25> C 	 -46.4435 	 12.0026 	 77.2004
| 26> C 	 -45.3868 	 12.9772 	 77.0777
| 27> C 	 -45.6751 	 13.9775 	 76.1445
| 28> H 	 -46.5216 	 11.1998 	 77.9199
| 29> C 	 -44.3772 	 12.9555 	 78.2713
| 30> H 	 -44.9014 	 12.7151 	 79.1512
| 31> H 	 -44.0825 	 13.9645 	 78.4959
| 32> C 	 -43.0978 	 12.0716 	 78.2176
| 33> H 	 -42.7041 	 12.0457 	 77.1854
| 34> H 	 -43.2613 	 11.0121 	 78.4673
| 35> C 	 -42.0162 	 12.6835 	 79.1327
| 36> H 	 -42.3629 	 12.6623 	 80.2074
| 37> H 	 -41.7045 	 13.6595 	 78.8347
| 38> H 	 -41.1017 	 12.0602 	 79.0427
| 39> H 	 -44.2339 	 18.6952 	 75.0867
| 40> H 	 -48.408 	 11.6126 	 76.2896
| 41> *
| 42>
| 43>                          ****END OF INPUT****

CARTESIAN COORDINATES (ANGSTROEM)
---------------------------------
  S    -45.835700   16.922700   75.847000
  C    -44.294100   17.631800   75.340200
  C    -43.256700   16.714200   75.187200
  C    -43.751500   15.385400   75.519900
  C    -45.066300   15.293900   75.923300
  H    -43.170400   14.459700   75.430000
  C    -41.846700   17.089600   74.867700
  H    -41.645300   18.077400   75.184300
  H    -41.835000   17.084100   73.801500
  C    -40.753600   16.155800   75.553400
  H    -41.015600   16.142100   76.646100
  H    -40.707800   15.227700   75.086700
  C    -39.295600   16.762900   75.446100
  H    -39.220200   17.859300   75.774700
  H    -38.697000   16.190800   76.108200
  H    -38.881600   16.655600   74.424100
  S    -47.057800   13.560100   75.240800
  C    -47.528800   12.290700   76.356600
  C    -46.443500   12.002600   77.200400
  C    -45.386800   12.977200   77.077700
  C    -45.675100   13.977500   76.144500
  H    -46.521600   11.199800   77.919900
  C    -44.377200   12.955500   78.271300
  H    -44.901400   12.715100   79.151200
  H    -44.082500   13.964500   78.495900
  C    -43.097800   12.071600   78.217600
  H    -42.704100   12.045700   77.185400
  H    -43.261300   11.012100   78.467300
  C    -42.016200   12.683500   79.132700
  H    -42.362900   12.662300   80.207400
  H    -41.704500   13.659500   78.834700
  H    -41.101700   12.060200   79.042700
  H    -44.233900   18.695200   75.086700
  H    -48.408000   11.612600   76.289600

 Total Charge           Charge          ....    0
 Multiplicity           Mult            ....    1
 Number of Electrons    NEL             ....  134
 Basis Dimension        Dim             ....  322

ORBITAL ENERGIES
----------------

  NO   OCC          E(Eh)            E(eV)
   0   2.0000     -88.968863     -2420.9658
   1   2.0000     -88.963623     -2420.8232
   2   2.0000     -10.331701      -281.1399
   3   2.0000     -10.326999      -281.0119
   4   2.0000     -10.318661      -280.7850
   5   2.0000     -10.317910      -280.7646
   6   2.0000     -10.305936      -280.4388
   7   2.0000     -10.304660      -280.4041
   8   2.0000     -10.296877      -280.1923
   9   2.0000     -10.296836      -280.1912
  10   2.0000     -10.294592      -280.1301
  11   2.0000     -10.291110      -280.0353
  12   2.0000     -10.289327      -279.9868
  13   2.0000     -10.287978      -279.9501
  14   2.0000     -10.285842      -279.8920
  15   2.0000     -10.281789      -279.7817
  16   2.0000      -8.082104      -219.9252
  17   2.0000      -8.079085      -219.8431
  18   2.0000      -6.040874      -164.3805
  19   2.0000      -6.037592      -164.2912
  20   2.0000      -6.036863      -164.2714
  21   2.0000      -6.033421      -164.1777
  22   2.0000      -6.032631      -164.1562
  23   2.0000      -6.029857      -164.0807
  24   2.0000      -1.002858       -27.2892
  25   2.0000      -0.977825       -26.6080
  26   2.0000      -0.906709       -24.6728
  27   2.0000      -0.901060       -24.5191
  28   2.0000      -0.866828       -23.5876
  29   2.0000      -0.847126       -23.0515
  30   2.0000      -0.843693       -22.9580
  31   2.0000      -0.812235       -22.1020
  32   2.0000      -0.777439       -21.1552
  33   2.0000      -0.767605       -20.8876
  34   2.0000      -0.710121       -19.3234
  35   2.0000      -0.697275       -18.9738
  36   2.0000      -0.688014       -18.7218
  37   2.0000      -0.659049       -17.9336
  38   2.0000      -0.638279       -17.3685
  39   2.0000      -0.616714       -16.7816
  40   2.0000      -0.590378       -16.0650
  41   2.0000      -0.576889       -15.6979
  42   2.0000      -0.563011       -15.3203
  43   2.0000      -0.557245       -15.1634
  44   2.0000      -0.525863       -14.3095
  45   2.0000      -0.517380       -14.0786
  46   2.0000      -0.514986       -14.0135
  47   2.0000      -0.508705       -13.8426
  48   2.0000      -0.498408       -13.5624
  49   2.0000      -0.495591       -13.4857
  50   2.0000      -0.488738       -13.2992
  51   2.0000      -0.481122       -13.0920
  52   2.0000      -0.475706       -12.9446
  53   2.0000      -0.462006       -12.5718
  54   2.0000      -0.457030       -12.4364
  55   2.0000      -0.445671       -12.1273
  56   2.0000      -0.442135       -12.0311
  57   2.0000      -0.441500       -12.0138
  58   2.0000      -0.432271       -11.7627
  59   2.0000      -0.427061       -11.6209
  60   2.0000      -0.420177       -11.4336
  61   2.0000      -0.417927       -11.3724
  62   2.0000      -0.411922       -11.2090
  63   2.0000      -0.343397        -9.3443
  64   2.0000      -0.329281        -8.9602
  65   2.0000      -0.324272        -8.8239
  66   2.0000      -0.294055        -8.0016
  67   0.0000       0.027753         0.7552
  68   0.0000       0.070159         1.9091
  69   0.0000       0.108955         2.9648
  70   0.0000       0.123246         3.3537
  71   0.0000       0.124816         3.3964

MULLIKEN ATOMIC CHARGES
-----------------------
   0 S :    0.112164
   1 C :   -0.147240
   2 C :   -0.084679
   3 C :    0.003955
   4 C :   -0.122300
   5 H :    0.024268
   6 C :    0.111217
   7 H :    0.010361
   8 H :    0.036278
   9 C :   -0.106369
  10 H :    0.055220
  11 H :    0.034278
  12 C :   -0.071269
  13 H :    0.044528
  14 H :    0.030067
  15 H :    0.041692
  16 S :    0.116330
  17 C :   -0.120377
  18 C :   -0.041978
  19 C :   -0.000664
  20 C :   -0.187704
  21 H :    0.024505
  22 C :    0.055198
  23 H :    0.012819
  24 H :    0.013980
  25 C :   -0.066560
  26 H :    0.027583
  27 H :    0.032447
  28 C :   -0.078285
  29 H :    0.043842
  30 H :    0.034138
  31 H :    0.033410
  32 H :    0.056984
  33 H :    0.072162
Sum of atomic charges:    0.0000000

LOEWDIN ATOMIC CHARGES
----------------------
   0 S :    0.376141
   1 C :   -0.189792
   2 C :   -0.063172
   3 C :   -0.055531
   4 C :   -0.189068
   5 H :    0.033533
   6 C :   -0.027512
   7 H :    0.025383
   8 H :    0.033176
   9 C :   -0.029256
  10 H :    0.034458
  11 H :    0.015498
  12 C :   -0.069301
  13 H :    0.032183
  14 H :    0.019963
  15 H :    0.027404
  16 S :    0.424657
  17 C :   -0.198510
  18 C :   -0.066982
  19 C :   -0.058085
  20 C :   -0.210542
  21 H :    0.029929
  22 C :   -0.028822
  23 H :    0.024387
  24 H :    0.027300
  25 C :   -0.042228
  26 H :    0.023001
  27 H :    0.023746
  28 C :   -0.067265
  29 H :    0.030796
  30 H :    0.019167
  31 H :    0.028151
  32 H :    0.029388
  33 H :    0.037805

  Mayer bond orders larger than 0.100000
B(  0-S ,  1-C ) :   1.1358 B(  0-S ,  4-C ) :   1.1152 B(  1-C ,  2-C ) :   1.6255
B(  1-C , 32-H ) :   0.9635 B(  2-C ,  3-C ) :   1.2212 B(  2-C ,  6-C ) :   1.0162
B(  3-C ,  4-C ) :   1.5931 B(  3-C ,  5-H ) :   0.9884 B(  4-C , 20-C ) :   1.0475
B(  6-C ,  7-H ) :   0.9452 B(  6-C ,  8-H ) :   0.9240 B(  6-C ,  9-C ) :   1.0673
B(  9-C , 10-H ) :   0.9631 B(  9-C , 11-H ) :   0.9504 B(  9-C , 12-C ) :   1.0837
B( 12-C , 13-H ) :   0.9756 B( 12-C , 14-H ) :   0.9762 B( 12-C , 15-H ) :   0.9766
B( 16-S , 17-C ) :   1.1495 B( 16-S , 20-C ) :   1.1605 B( 17-C , 18-C ) :   1.6024
B( 17-C , 33-H ) :   0.9641 B( 18-C , 19-C ) :   1.2503 B( 18-C , 21-H ) :   0.9900
B( 19-C , 20-C ) :   1.5731 B( 19-C , 22-C ) :   1.0306 B( 22-C , 23-H ) :   0.9429
B( 22-C , 24-H ) :   0.9451 B( 22-C , 25-C ) :   1.0446 B( 25-C , 26-H ) :   0.9599
B( 25-C , 27-H ) :   0.9551 B( 25-C , 28-C ) :   1.0843 B( 28-C , 29-H ) :   0.9754
B( 28-C , 30-H ) :   0.9764 B( 28-C , 31-H ) :   0.9735

Dispersion correction           -0.013908805
FINAL SINGLE POINT ENERGY     -1339.865394059715

DIPOLE MOMENT
-------------
                                X             Y             Z
Electronic contribution:    -31.37546       3.62812      -9.96986
Nuclear contribution   :     32.07022      -3.75688      10.13128
                        -----------------------------------------
Total Dipole Moment    :      0.69476      -0.12876       0.16143
                        -----------------------------------------
Magnitude (a.u.)       :      0.72480
Magnitude (Debye)      :      1.84229

Rotational constants in cm-1:     0.016129     0.009427     0.006522
Rotational constants in MHz :   483.531545   282.603387   195.511909

                             ****ORCA TERMINATED NORMALLY****
TOTAL RUN TIME: 0 days 0 hours 0 minutes 28 seconds 209 msec
