                         Program Version 4.2.1 -  RELEASE  -
|  1> ! wB97X-D3 SP def2-SVP
|  2> %pal
|  3> nprocs 16
|  4> end
|  5>
|  6> * xyz 0 1
|  7> S 	 14.077 	 22.3369 	 40.9962
|  8> C 	 15.6122 	 22.1981 	 40.1231
|  9> C 	 15.6713 	 21.055 	 39.3858
| 10> C 	 14.5181 	 20.2622 	 39.5004
| 11> C 	 13.5541 	 20.8064 	 40.2364
| 12> H 	 14.3512 	 19.296 	 38.9995
| 13> C 	 16.9588 	 20.6274 	 38.752
| 14> H 	 17.0468 	 19.5401 	 38.9245
| 15> H 	 17.7268 	 21.2246 	 39.3134
| 16> C 	 17.0208 	 21.0125 	 37.2244
| 17> H 	 16.5461 	 20.2246 	 36.6729
| 18> H 	 16.4805 	 21.8669 	 36.941
| 19> C 	 18.483 	 21.195 	 36.7582
| 20> H 	 18.5647 	 21.7173 	 35.827
| 21> H 	 19.0199 	 21.7367 	 37.5472
| 22> H 	 18.9716 	 20.2723 	 36.7549
| 23> S 	 11.3516 	 19.4911 	 39.2349
| 24> C 	 9.90746 	 19.3097 	 40.2424
| 25> C 	 10.3004 	 19.4008 	 41.5699
| 26> C 	 11.612 	 19.9388 	 41.7648
| 27> C 	 12.2531 	 20.1766 	 40.5339
| 28> H 	 9.63205 	 19.1091 	 42.304
| 29> C 	 12.0572 	 20.1645 	 43.128
| 30> H 	 11.2002 	 20.2505 	 43.7919
| 31> H 	 12.5792 	 21.0543 	 43.2671
| 32> C 	 12.9705 	 19.0485 	 43.6445
| 33> H 	 13.9826 	 19.395 	 43.4599
| 34> H 	 12.7416 	 18.1507 	 42.991
| 35> C 	 12.7458 	 18.6318 	 45.1246
| 36> H 	 13.3323 	 17.8933 	 45.5404
| 37> H 	 11.7094 	 18.2797 	 45.0955
| 38> H 	 12.8165 	 19.5582 	 45.7945
| 39> H 	 16.4316 	 22.7642 	 40.5118
| 40> H 	 9.02711 	 18.7751 	 39.9412
| 41> *
| 42>
| 43>                          ****END OF INPUT****

CARTESIAN COORDINATES (ANGSTROEM)
---------------------------------
  S     14.077000   22.336900   40.996200
  C     15.612200   22.198100   40.123100
  C     15.671300   21.055000   39.385800
  C     14.518100   20.262200   39.500400
  C     13.554100   20.806400   40.236400
  H     14.351200   19.296000   38.999500
  C     16.958800   20.627400   38.752000
  H     17.046800   19.540100   38.924500
  H     17.726800   21.224600   39.313400
  C     17.020800   21.012500   37.224400
  H     16.546100   20.224600   36.672900
  H     16.480500   21.866900   36.941000
  C     18.483000   21.195000   36.758200
  H     18.564700   21.717300   35.827000
  H     19.019900   21.736700   37.547200
  H     18.971600   20.272300   36.754900
  S     11.351600   19.491100   39.234900
  C      9.907460   19.309700   40.242400
  C     10.300400   19.400800   41.569900
  C     11.612000   19.938800   41.764800
  C     12.253100   20.176600   40.533900
  H      9.632050   19.109100   42.304000
  C     12.057200   20.164500   43.128000
  H     11.200200   20.250500   43.791900
  H     12.579200   21.054300   43.267100
  C     12.970500   19.048500   43.644500
  H     13.982600   19.395000   43.459900
  H     12.741600   18.150700   42.991000
  C     12.745800   18.631800   45.124600
  H     13.332300   17.893300   45.540400
  H     11.709400   18.279700   45.095500
  H     12.816500   19.558200   45.794500
  H     16.431600   22.764200   40.511800
  H      9.027110   18.775100   39.941200

 Total Charge           Charge          ....    0
 Multiplicity           Mult            ....    1
 Number of Electrons    NEL             ....  134
 Basis Dimension        Dim             ....  322

ORBITAL ENERGIES
----------------

  NO   OCC          E(Eh)            E(eV)
   0   2.0000     -88.965451     -2420.8730
   1   2.0000     -88.963734     -2420.8263
   2   2.0000     -10.328963      -281.0654
   3   2.0000     -10.327797      -281.0336
   4   2.0000     -10.316252      -280.7195
   5   2.0000     -10.308714      -280.5144
   6   2.0000     -10.301538      -280.3191
   7   2.0000     -10.298183      -280.2278
   8   2.0000     -10.296030      -280.1692
   9   2.0000     -10.290321      -280.0139
  10   2.0000     -10.289022      -279.9785
  11   2.0000     -10.285467      -279.8818
  12   2.0000     -10.281349      -279.7697
  13   2.0000     -10.279229      -279.7121
  14   2.0000     -10.278031      -279.6794
  15   2.0000     -10.270712      -279.4803
  16   2.0000      -8.080228      -219.8742
  17   2.0000      -8.077758      -219.8070
  18   2.0000      -6.038811      -164.3244
  19   2.0000      -6.036299      -164.2560
  20   2.0000      -6.034808      -164.2155
  21   2.0000      -6.032555      -164.1542
  22   2.0000      -6.030846      -164.1077
  23   2.0000      -6.028351      -164.0398
  24   2.0000      -1.009142       -27.4601
  25   2.0000      -0.987734       -26.8776
  26   2.0000      -0.914632       -24.8884
  27   2.0000      -0.908864       -24.7315
  28   2.0000      -0.871159       -23.7054
  29   2.0000      -0.852680       -23.2026
  30   2.0000      -0.845790       -23.0151
  31   2.0000      -0.820690       -22.3321
  32   2.0000      -0.782531       -21.2937
  33   2.0000      -0.767330       -20.8801
  34   2.0000      -0.710440       -19.3321
  35   2.0000      -0.702039       -19.1035
  36   2.0000      -0.689534       -18.7632
  37   2.0000      -0.671521       -18.2730
  38   2.0000      -0.641310       -17.4509
  39   2.0000      -0.623011       -16.9530
  40   2.0000      -0.603189       -16.4136
  41   2.0000      -0.572514       -15.5789
  42   2.0000      -0.565876       -15.3983
  43   2.0000      -0.555112       -15.1054
  44   2.0000      -0.533504       -14.5174
  45   2.0000      -0.524418       -14.2701
  46   2.0000      -0.520768       -14.1708
  47   2.0000      -0.515765       -14.0347
  48   2.0000      -0.504692       -13.7334
  49   2.0000      -0.498653       -13.5690
  50   2.0000      -0.490813       -13.3557
  51   2.0000      -0.482603       -13.1323
  52   2.0000      -0.468401       -12.7458
  53   2.0000      -0.464777       -12.6472
  54   2.0000      -0.457101       -12.4383
  55   2.0000      -0.453373       -12.3369
  56   2.0000      -0.445251       -12.1159
  57   2.0000      -0.440803       -11.9949
  58   2.0000      -0.431230       -11.7344
  59   2.0000      -0.425606       -11.5813
  60   2.0000      -0.418026       -11.3751
  61   2.0000      -0.416192       -11.3252
  62   2.0000      -0.413113       -11.2414
  63   2.0000      -0.349952        -9.5227
  64   2.0000      -0.331972        -9.0334
  65   2.0000      -0.325614        -8.8604
  66   2.0000      -0.292815        -7.9679
  67   0.0000       0.023953         0.6518
  68   0.0000       0.070392         1.9155
  69   0.0000       0.099938         2.7195
  70   0.0000       0.116531         3.1710
  71   0.0000       0.128929         3.5083

MULLIKEN ATOMIC CHARGES
-----------------------
   0 S :    0.085103
   1 C :   -0.131871
   2 C :   -0.069013
   3 C :   -0.004494
   4 C :   -0.106933
   5 H :    0.022192
   6 C :    0.035522
   7 H :    0.040802
   8 H :    0.025795
   9 C :   -0.044503
  10 H :    0.021565
  11 H :    0.025469
  12 C :   -0.024139
  13 H :    0.038304
  14 H :    0.018773
  15 H :    0.016067
  16 S :    0.098865
  17 C :   -0.079253
  18 C :   -0.030293
  19 C :   -0.049259
  20 C :   -0.155631
  21 H :   -0.003058
  22 C :    0.119958
  23 H :    0.009950
  24 H :    0.003656
  25 C :   -0.100183
  26 H :    0.035960
  27 H :    0.042705
  28 C :   -0.049505
  29 H :    0.028673
  30 H :    0.028900
  31 H :    0.038899
  32 H :    0.053565
  33 H :    0.057413
Sum of atomic charges:   -0.0000000

LOEWDIN ATOMIC CHARGES
----------------------
   0 S :    0.372905
   1 C :   -0.188160
   2 C :   -0.062752
   3 C :   -0.073360
   4 C :   -0.168769
   5 H :    0.036466
   6 C :   -0.025111
   7 H :    0.035082
   8 H :    0.033264
   9 C :   -0.031781
  10 H :    0.021172
  11 H :    0.019054
  12 C :   -0.058531
  13 H :    0.024743
  14 H :    0.024164
  15 H :    0.017284
  16 S :    0.411449
  17 C :   -0.181477
  18 C :   -0.054236
  19 C :   -0.054688
  20 C :   -0.201582
  21 H :    0.019200
  22 C :   -0.034538
  23 H :    0.029288
  24 H :    0.019009
  25 C :   -0.036352
  26 H :    0.021527
  27 H :    0.028428
  28 C :   -0.063305
  29 H :    0.013854
  30 H :    0.026383
  31 H :    0.031967
  32 H :    0.022398
  33 H :    0.027007

  Mayer bond orders larger than 0.100000
B(  0-S ,  1-C ) :   1.1178 B(  0-S ,  4-C ) :   1.1311 B(  1-C ,  2-C ) :   1.6390
B(  1-C , 32-H ) :   0.9638 B(  2-C ,  3-C ) :   1.2279 B(  2-C ,  6-C ) :   1.0224
B(  3-C ,  4-C ) :   1.6139 B(  3-C ,  5-H ) :   0.9885 B(  4-C , 20-C ) :   1.0300
B(  6-C ,  7-H ) :   0.9416 B(  6-C ,  8-H ) :   0.9506 B(  6-C ,  9-C ) :   1.0397
B(  9-C , 10-H ) :   0.9535 B(  9-C , 11-H ) :   0.9660 B(  9-C , 12-C ) :   1.0811
B( 12-C , 13-H ) :   0.9768 B( 12-C , 14-H ) :   0.9777 B( 12-C , 15-H ) :   0.9735
B( 16-S , 17-C ) :   1.1471 B( 16-S , 20-C ) :   1.1581 B( 17-C , 18-C ) :   1.5975
B( 17-C , 20-C ) :   0.1018 B( 17-C , 33-H ) :   0.9668 B( 18-C , 19-C ) :   1.2528
B( 18-C , 21-H ) :   0.9974 B( 19-C , 20-C ) :   1.5291 B( 19-C , 22-C ) :   1.0821
B( 22-C , 23-H ) :   0.9330 B( 22-C , 24-H ) :   0.9152 B( 22-C , 25-C ) :   1.0254
B( 25-C , 26-H ) :   0.9571 B( 25-C , 27-H ) :   0.9680 B( 25-C , 28-C ) :   1.0711
B( 28-C , 29-H ) :   0.9783 B( 28-C , 30-H ) :   0.9765 B( 28-C , 31-H ) :   0.9749

Dispersion correction           -0.013981087
FINAL SINGLE POINT ENERGY     -1339.859284767371

DIPOLE MOMENT
-------------
                                X             Y             Z
Electronic contribution:    -16.05134       5.67863      -4.71374
Nuclear contribution   :     16.34348      -6.11592       4.95272
                        -----------------------------------------
Total Dipole Moment    :      0.29214      -0.43728       0.23898
                        -----------------------------------------
Magnitude (a.u.)       :      0.57764
Magnitude (Debye)      :      1.46825

Rotational constants in cm-1:     0.021650     0.007365     0.006295
Rotational constants in MHz :   649.053783   220.797581   188.710529

                             ****ORCA TERMINATED NORMALLY****
TOTAL RUN TIME: 0 days 0 hours 0 minutes 32 seconds 8 msec
