                         Program Version 4.2.1 -  RELEASE  -
|  1> ! wB97X-D3 SP def2-SVP
|  2> %pal
|  3> nprocs 16
|  4> end
|  5>
|  6> * xyz 0 1
|  7> S 	 -70.0058 	 42.2879 	 120.204
|  8> C 	 -71.8011 	 42.6185 	 120.291
|  9> C 	 -72.4194 	 41.9942 	 121.387
| 10> C 	 -71.4757 	 41.2089 	 122.11
| 11> C 	 -70.1175 	 41.4816 	 121.737
| 12> H 	 -71.632 	 40.4969 	 122.931
| 13> C 	 -73.936 	 41.9633 	 121.813
| 14> H 	 -73.9965 	 41.7093 	 122.877
| 15> H 	 -74.3962 	 41.2334 	 121.211
| 16> C 	 -74.7515 	 43.2581 	 121.554
| 17> H 	 -74.4688 	 44.021 	 122.243
| 18> H 	 -74.4252 	 43.5872 	 120.598
| 19> C 	 -76.2412 	 43.1083 	 121.601
| 20> H 	 -76.6488 	 44.1013 	 121.274
| 21> H 	 -76.6662 	 42.3493 	 120.952
| 22> H 	 -76.571 	 42.9703 	 122.69
| 23> S 	 -68.0905 	 39.6408 	 121.096
| 24> C 	 -67.1084 	 39.0307 	 122.365
| 25> C 	 -67.428 	 39.6118 	 123.566
| 26> C 	 -68.4771 	 40.5515 	 123.499
| 27> C 	 -69.0115 	 40.6691 	 122.195
| 28> H 	 -66.9054 	 39.2805 	 124.444
| 29> C 	 -69.0062 	 41.2282 	 124.78
| 30> H 	 -69.7433 	 42.0103 	 124.438
| 31> H 	 -68.1431 	 41.7372 	 125.168
| 32> C 	 -69.6546 	 40.2394 	 125.775
| 33> H 	 -69.0708 	 39.3331 	 125.922
| 34> H 	 -70.4217 	 39.8748 	 125.096
| 35> C 	 -70.3035 	 40.6436 	 127.041
| 36> H 	 -69.7125 	 40.1558 	 127.769
| 37> H 	 -71.3521 	 40.4043 	 127.205
| 38> H 	 -70.0392 	 41.6827 	 127.203
| 39> H 	 -72.4079 	 43.2805 	 119.688
| 40> H 	 -66.2838 	 38.3029 	 122.271
| 41> *
| 42>
| 43>                          ****END OF INPUT****

CARTESIAN COORDINATES (ANGSTROEM)
---------------------------------
  S    -70.005800   42.287900  120.204000
  C    -71.801100   42.618500  120.291000
  C    -72.419400   41.994200  121.387000
  C    -71.475700   41.208900  122.110000
  C    -70.117500   41.481600  121.737000
  H    -71.632000   40.496900  122.931000
  C    -73.936000   41.963300  121.813000
  H    -73.996500   41.709300  122.877000
  H    -74.396200   41.233400  121.211000
  C    -74.751500   43.258100  121.554000
  H    -74.468800   44.021000  122.243000
  H    -74.425200   43.587200  120.598000
  C    -76.241200   43.108300  121.601000
  H    -76.648800   44.101300  121.274000
  H    -76.666200   42.349300  120.952000
  H    -76.571000   42.970300  122.690000
  S    -68.090500   39.640800  121.096000
  C    -67.108400   39.030700  122.365000
  C    -67.428000   39.611800  123.566000
  C    -68.477100   40.551500  123.499000
  C    -69.011500   40.669100  122.195000
  H    -66.905400   39.280500  124.444000
  C    -69.006200   41.228200  124.780000
  H    -69.743300   42.010300  124.438000
  H    -68.143100   41.737200  125.168000
  C    -69.654600   40.239400  125.775000
  H    -69.070800   39.333100  125.922000
  H    -70.421700   39.874800  125.096000
  C    -70.303500   40.643600  127.041000
  H    -69.712500   40.155800  127.769000
  H    -71.352100   40.404300  127.205000
  H    -70.039200   41.682700  127.203000
  H    -72.407900   43.280500  119.688000
  H    -66.283800   38.302900  122.271000

 Total Charge           Charge          ....    0
 Multiplicity           Mult            ....    1
 Number of Electrons    NEL             ....  134
 Basis Dimension        Dim             ....  322

ORBITAL ENERGIES
----------------

  NO   OCC          E(Eh)            E(eV)
   0   2.0000     -88.974342     -2421.1149
   1   2.0000     -88.965116     -2420.8639
   2   2.0000     -10.330826      -281.1161
   3   2.0000     -10.325638      -280.9749
   4   2.0000     -10.322914      -280.9008
   5   2.0000     -10.313638      -280.6484
   6   2.0000     -10.310678      -280.5678
   7   2.0000     -10.301325      -280.3133
   8   2.0000     -10.301240      -280.3110
   9   2.0000     -10.296921      -280.1935
  10   2.0000     -10.293428      -280.0984
  11   2.0000     -10.288547      -279.9656
  12   2.0000     -10.286189      -279.9014
  13   2.0000     -10.282882      -279.8114
  14   2.0000     -10.279300      -279.7140
  15   2.0000     -10.270427      -279.4725
  16   2.0000      -8.087634      -220.0757
  17   2.0000      -8.080034      -219.8689
  18   2.0000      -6.046226      -164.5262
  19   2.0000      -6.042532      -164.4256
  20   2.0000      -6.038447      -164.3145
  21   2.0000      -6.038185      -164.3074
  22   2.0000      -6.034452      -164.2058
  23   2.0000      -6.030939      -164.1102
  24   2.0000      -1.003344       -27.3024
  25   2.0000      -0.977745       -26.6058
  26   2.0000      -0.913736       -24.8640
  27   2.0000      -0.910080       -24.7645
  28   2.0000      -0.869850       -23.6698
  29   2.0000      -0.856426       -23.3045
  30   2.0000      -0.845585       -23.0095
  31   2.0000      -0.807133       -21.9632
  32   2.0000      -0.786513       -21.4021
  33   2.0000      -0.773359       -21.0442
  34   2.0000      -0.709409       -19.3040
  35   2.0000      -0.698340       -19.0028
  36   2.0000      -0.691468       -18.8158
  37   2.0000      -0.654687       -17.8150
  38   2.0000      -0.634249       -17.2588
  39   2.0000      -0.611109       -16.6291
  40   2.0000      -0.591360       -16.0917
  41   2.0000      -0.579222       -15.7614
  42   2.0000      -0.566181       -15.4066
  43   2.0000      -0.562084       -15.2951
  44   2.0000      -0.529458       -14.4073
  45   2.0000      -0.522240       -14.2109
  46   2.0000      -0.516667       -14.0592
  47   2.0000      -0.512054       -13.9337
  48   2.0000      -0.509963       -13.8768
  49   2.0000      -0.499890       -13.6027
  50   2.0000      -0.494485       -13.4556
  51   2.0000      -0.479925       -13.0594
  52   2.0000      -0.474982       -12.9249
  53   2.0000      -0.466895       -12.7049
  54   2.0000      -0.455098       -12.3838
  55   2.0000      -0.452359       -12.3093
  56   2.0000      -0.445240       -12.1156
  57   2.0000      -0.436235       -11.8705
  58   2.0000      -0.430978       -11.7275
  59   2.0000      -0.425115       -11.5680
  60   2.0000      -0.421222       -11.4620
  61   2.0000      -0.415892       -11.3170
  62   2.0000      -0.401509       -10.9256
  63   2.0000      -0.340769        -9.2728
  64   2.0000      -0.335517        -9.1299
  65   2.0000      -0.330205        -8.9853
  66   2.0000      -0.287471        -7.8225
  67   0.0000       0.024487         0.6663
  68   0.0000       0.065713         1.7881
  69   0.0000       0.097622         2.6564
  70   0.0000       0.125387         3.4119
  71   0.0000       0.132444         3.6040

MULLIKEN ATOMIC CHARGES
-----------------------
   0 S :    0.111631
   1 C :   -0.121616
   2 C :   -0.077440
   3 C :   -0.005738
   4 C :   -0.152812
   5 H :    0.032827
   6 C :    0.091738
   7 H :    0.032308
   8 H :    0.029110
   9 C :   -0.072420
  10 H :    0.028465
  11 H :    0.007936
  12 C :   -0.067940
  13 H :    0.039076
  14 H :    0.037990
  15 H :    0.043763
  16 S :    0.116847
  17 C :   -0.104993
  18 C :   -0.033377
  19 C :   -0.063708
  20 C :   -0.165498
  21 H :    0.011625
  22 C :    0.096246
  23 H :    0.038675
  24 H :    0.021771
  25 C :   -0.121990
  26 H :    0.023824
  27 H :    0.008277
  28 C :    0.030030
  29 H :    0.011940
  30 H :    0.046761
  31 H :    0.019154
  32 H :    0.042924
  33 H :    0.064615
Sum of atomic charges:    0.0000000

LOEWDIN ATOMIC CHARGES
----------------------
   0 S :    0.396606
   1 C :   -0.184768
   2 C :   -0.055575
   3 C :   -0.053694
   4 C :   -0.201850
   5 H :    0.033160
   6 C :   -0.019030
   7 H :    0.030359
   8 H :    0.027976
   9 C :   -0.041497
  10 H :    0.024068
  11 H :    0.014744
  12 C :   -0.067957
  13 H :    0.034382
  14 H :    0.022629
  15 H :    0.033932
  16 S :    0.412863
  17 C :   -0.201155
  18 C :   -0.076407
  19 C :   -0.055036
  20 C :   -0.206715
  21 H :    0.028896
  22 C :   -0.028093
  23 H :    0.035417
  24 H :    0.022189
  25 C :   -0.056205
  26 H :    0.022222
  27 H :    0.024843
  28 C :   -0.064831
  29 H :    0.026363
  30 H :    0.031286
  31 H :    0.029883
  32 H :    0.023556
  33 H :    0.037440

  Mayer bond orders larger than 0.100000
B(  0-S ,  1-C ) :   1.1237 B(  0-S ,  4-C ) :   1.1504 B(  1-C ,  2-C ) :   1.6162
B(  1-C ,  4-C ) :   0.1037 B(  1-C , 32-H ) :   0.9628 B(  2-C ,  3-C ) :   1.2514
B(  2-C ,  6-C ) :   1.0001 B(  3-C ,  4-C ) :   1.5452 B(  3-C ,  5-H ) :   0.9839
B(  4-C , 20-C ) :   1.0557 B(  6-C ,  7-H ) :   0.9503 B(  6-C ,  8-H ) :   0.9375
B(  6-C ,  9-C ) :   1.0620 B(  9-C , 10-H ) :   0.9548 B(  9-C , 11-H ) :   0.9534
B(  9-C , 12-C ) :   1.0973 B( 12-C , 13-H ) :   0.9704 B( 12-C , 14-H ) :   0.9739
B( 12-C , 15-H ) :   0.9738 B( 16-S , 17-C ) :   1.1640 B( 16-S , 20-C ) :   1.1422
B( 17-C , 18-C ) :   1.5987 B( 17-C , 33-H ) :   0.9627 B( 18-C , 19-C ) :   1.2650
B( 18-C , 21-H ) :   0.9936 B( 19-C , 20-C ) :   1.5700 B( 19-C , 22-C ) :   1.0394
B( 22-C , 23-H ) :   0.9344 B( 22-C , 24-H ) :   0.9265 B( 22-C , 25-C ) :   1.0523
B( 25-C , 26-H ) :   0.9640 B( 25-C , 27-H ) :   0.9513 B( 25-C , 28-C ) :   1.0684
B( 28-C , 29-H ) :   0.9701 B( 28-C , 30-H ) :   0.9764 B( 28-C , 31-H ) :   0.9710

Dispersion correction           -0.013567278
FINAL SINGLE POINT ENERGY     -1339.854505825227

DIPOLE MOMENT
-------------
                                X             Y             Z
Electronic contribution:     22.81203      -4.75493     -20.29490
Nuclear contribution   :    -23.31080       4.66947      20.79479
                        -----------------------------------------
Total Dipole Moment    :     -0.49877      -0.08546       0.49989
                        -----------------------------------------
Magnitude (a.u.)       :      0.71131
Magnitude (Debye)      :      1.80801

Rotational constants in cm-1:     0.018047     0.008024     0.005914
Rotational constants in MHz :   541.030928   240.554759   177.289026

                             ****ORCA TERMINATED NORMALLY****
TOTAL RUN TIME: 0 days 0 hours 0 minutes 34 seconds 78 msec
