                         Program Version 4.2.1 -  RELEASE  -
|  1> ! wB97X-D3 SP def2-SVP
|  2> %pal
|  3> nprocs 16
|  4> end
|  5>
|  6> * xyz 0 1
|  7> S 	 46.099 	 11.1737 	 82.3198
|  8> C 	 44.4256 	 11.507 	 82.7124
|  9> C 	 43.6851 	 11.9671 	 81.6133
| 10> C 	 44.6304 	 12.3327 	 80.6212
| 11> C 	 45.9284 	 11.8893 	 80.8219
| 12> H 	 44.4509 	 12.7147 	 79.673
| 13> C 	 42.1433 	 12.2085 	 81.6714
| 14> H 	 41.5994 	 11.4533 	 82.3575
| 15> H 	 41.7966 	 11.9713 	 80.6795
| 16> C 	 41.7305 	 13.6476 	 81.9957
| 17> H 	 42.3348 	 13.9984 	 82.8707
| 18> H 	 41.9005 	 14.311 	 81.224
| 19> C 	 40.2442 	 13.8296 	 82.2511
| 20> H 	 40.035 	 14.8753 	 82.3632
| 21> H 	 39.657 	 13.4782 	 81.3721
| 22> H 	 39.9597 	 13.276 	 83.1824
| 23> S 	 47.9014 	 10.5647 	 79.4048
| 24> C 	 48.7559 	 11.4424 	 78.142
| 25> C 	 48.6036 	 12.8055 	 78.3313
| 26> C 	 47.5441 	 13.1446 	 79.2428
| 27> C 	 47.0181 	 11.998 	 79.8893
| 28> H 	 49.2351 	 13.5402 	 77.8867
| 29> C 	 47.0131 	 14.6308 	 79.4474
| 30> H 	 45.9934 	 14.4194 	 79.6825
| 31> H 	 47.0918 	 15.1556 	 78.5263
| 32> C 	 47.5799 	 15.4606 	 80.6481
| 33> H 	 48.654 	 15.546 	 80.5284
| 34> H 	 47.4247 	 14.9598 	 81.5918
| 35> C 	 46.8999 	 16.7991 	 80.6058
| 36> H 	 47.3401 	 17.3545 	 79.7872
| 37> H 	 46.7522 	 17.3561 	 81.5413
| 38> H 	 45.8819 	 16.732 	 80.2395
| 39> H 	 43.9575 	 11.2077 	 83.6287
| 40> H 	 49.4924 	 10.9874 	 77.4757
| 41> *
| 42>
| 43>                          ****END OF INPUT****

CARTESIAN COORDINATES (ANGSTROEM)
---------------------------------
  S     46.099000   11.173700   82.319800
  C     44.425600   11.507000   82.712400
  C     43.685100   11.967100   81.613300
  C     44.630400   12.332700   80.621200
  C     45.928400   11.889300   80.821900
  H     44.450900   12.714700   79.673000
  C     42.143300   12.208500   81.671400
  H     41.599400   11.453300   82.357500
  H     41.796600   11.971300   80.679500
  C     41.730500   13.647600   81.995700
  H     42.334800   13.998400   82.870700
  H     41.900500   14.311000   81.224000
  C     40.244200   13.829600   82.251100
  H     40.035000   14.875300   82.363200
  H     39.657000   13.478200   81.372100
  H     39.959700   13.276000   83.182400
  S     47.901400   10.564700   79.404800
  C     48.755900   11.442400   78.142000
  C     48.603600   12.805500   78.331300
  C     47.544100   13.144600   79.242800
  C     47.018100   11.998000   79.889300
  H     49.235100   13.540200   77.886700
  C     47.013100   14.630800   79.447400
  H     45.993400   14.419400   79.682500
  H     47.091800   15.155600   78.526300
  C     47.579900   15.460600   80.648100
  H     48.654000   15.546000   80.528400
  H     47.424700   14.959800   81.591800
  C     46.899900   16.799100   80.605800
  H     47.340100   17.354500   79.787200
  H     46.752200   17.356100   81.541300
  H     45.881900   16.732000   80.239500
  H     43.957500   11.207700   83.628700
  H     49.492400   10.987400   77.475700

 Total Charge           Charge          ....    0
 Multiplicity           Mult            ....    1
 Number of Electrons    NEL             ....  134
 Basis Dimension        Dim             ....  322

ORBITAL ENERGIES
----------------

  NO   OCC          E(Eh)            E(eV)
   0   2.0000     -88.967813     -2420.9373
   1   2.0000     -88.966173     -2420.8926
   2   2.0000     -10.326947      -281.0105
   3   2.0000     -10.320481      -280.8346
   4   2.0000     -10.319455      -280.8066
   5   2.0000     -10.311284      -280.5843
   6   2.0000     -10.307714      -280.4872
   7   2.0000     -10.307450      -280.4800
   8   2.0000     -10.304988      -280.4130
   9   2.0000     -10.293837      -280.1095
  10   2.0000     -10.291601      -280.0487
  11   2.0000     -10.287278      -279.9311
  12   2.0000     -10.282905      -279.8121
  13   2.0000     -10.282689      -279.8062
  14   2.0000     -10.282324      -279.7963
  15   2.0000     -10.272726      -279.5351
  16   2.0000      -8.083999      -219.9768
  17   2.0000      -8.080666      -219.8861
  18   2.0000      -6.042246      -164.4179
  19   2.0000      -6.039217      -164.3355
  20   2.0000      -6.038262      -164.3095
  21   2.0000      -6.035242      -164.2273
  22   2.0000      -6.034993      -164.2205
  23   2.0000      -6.031370      -164.1219
  24   2.0000      -1.012977       -27.5645
  25   2.0000      -0.982723       -26.7413
  26   2.0000      -0.913327       -24.8529
  27   2.0000      -0.905639       -24.6437
  28   2.0000      -0.872235       -23.7347
  29   2.0000      -0.853104       -23.2141
  30   2.0000      -0.845714       -23.0131
  31   2.0000      -0.811579       -22.0842
  32   2.0000      -0.783784       -21.3278
  33   2.0000      -0.767924       -20.8963
  34   2.0000      -0.706415       -19.2225
  35   2.0000      -0.697994       -18.9934
  36   2.0000      -0.693999       -18.8847
  37   2.0000      -0.661929       -18.0120
  38   2.0000      -0.647026       -17.6065
  39   2.0000      -0.617728       -16.8092
  40   2.0000      -0.590274       -16.0622
  41   2.0000      -0.573411       -15.6033
  42   2.0000      -0.571613       -15.5544
  43   2.0000      -0.562804       -15.3147
  44   2.0000      -0.527210       -14.3461
  45   2.0000      -0.526277       -14.3207
  46   2.0000      -0.512588       -13.9482
  47   2.0000      -0.506116       -13.7721
  48   2.0000      -0.505004       -13.7419
  49   2.0000      -0.497457       -13.5365
  50   2.0000      -0.490886       -13.3577
  51   2.0000      -0.488776       -13.3003
  52   2.0000      -0.470732       -12.8093
  53   2.0000      -0.464242       -12.6327
  54   2.0000      -0.460065       -12.5190
  55   2.0000      -0.449076       -12.2200
  56   2.0000      -0.441247       -12.0070
  57   2.0000      -0.437888       -11.9155
  58   2.0000      -0.436998       -11.8913
  59   2.0000      -0.429073       -11.6757
  60   2.0000      -0.421835       -11.4787
  61   2.0000      -0.418258       -11.3814
  62   2.0000      -0.410659       -11.1746
  63   2.0000      -0.344902        -9.3853
  64   2.0000      -0.335473        -9.1287
  65   2.0000      -0.327510        -8.9120
  66   2.0000      -0.287154        -7.8139
  67   0.0000       0.033131         0.9015
  68   0.0000       0.064222         1.7476
  69   0.0000       0.110804         3.0151
  70   0.0000       0.117978         3.2103
  71   0.0000       0.132260         3.5990

MULLIKEN ATOMIC CHARGES
-----------------------
   0 S :    0.130750
   1 C :   -0.121929
   2 C :   -0.070269
   3 C :    0.045253
   4 C :   -0.174583
   5 H :   -0.012935
   6 C :    0.055390
   7 H :    0.041537
   8 H :    0.019086
   9 C :   -0.059384
  10 H :    0.035656
  11 H :    0.012099
  12 C :   -0.056944
  13 H :    0.033134
  14 H :    0.034984
  15 H :    0.038398
  16 S :    0.106688
  17 C :   -0.100705
  18 C :   -0.017880
  19 C :   -0.057855
  20 C :   -0.158193
  21 H :    0.012340
  22 C :    0.069180
  23 H :    0.005618
  24 H :    0.020097
  25 C :   -0.036080
  26 H :    0.027177
  27 H :    0.031420
  28 C :   -0.029021
  29 H :    0.019861
  30 H :    0.043204
  31 H :    0.010070
  32 H :    0.037698
  33 H :    0.066138
Sum of atomic charges:    0.0000000

LOEWDIN ATOMIC CHARGES
----------------------
   0 S :    0.446930
   1 C :   -0.198277
   2 C :   -0.053010
   3 C :   -0.063387
   4 C :   -0.224425
   5 H :    0.016579
   6 C :   -0.029765
   7 H :    0.040478
   8 H :    0.027557
   9 C :   -0.042806
  10 H :    0.029301
  11 H :    0.014502
  12 C :   -0.063789
  13 H :    0.024194
  14 H :    0.028429
  15 H :    0.027193
  16 S :    0.401605
  17 C :   -0.186905
  18 C :   -0.068261
  19 C :   -0.051231
  20 C :   -0.205133
  21 H :    0.027276
  22 C :   -0.019607
  23 H :    0.025960
  24 H :    0.023189
  25 C :   -0.033472
  26 H :    0.021601
  27 H :    0.025321
  28 C :   -0.071451
  29 H :    0.026330
  30 H :    0.030091
  31 H :    0.023437
  32 H :    0.019210
  33 H :    0.032336

  Mayer bond orders larger than 0.100000
B(  0-S ,  1-C ) :   1.1599 B(  0-S ,  4-C ) :   1.1744 B(  1-C ,  2-C ) :   1.5753
B(  1-C ,  4-C ) :   0.1047 B(  1-C , 32-H ) :   0.9703 B(  2-C ,  3-C ) :   1.2582
B(  2-C ,  6-C ) :   1.0234 B(  3-C ,  4-C ) :   1.5602 B(  3-C ,  5-H ) :   0.9909
B(  4-C , 20-C ) :   1.0359 B(  6-C ,  7-H ) :   0.9492 B(  6-C ,  8-H ) :   0.9302
B(  6-C ,  9-C ) :   1.0622 B(  9-C , 10-H ) :   0.9569 B(  9-C , 11-H ) :   0.9521
B(  9-C , 12-C ) :   1.0885 B( 12-C , 13-H ) :   0.9743 B( 12-C , 14-H ) :   0.9722
B( 12-C , 15-H ) :   0.9759 B( 16-S , 17-C ) :   1.1526 B( 16-S , 20-C ) :   1.1443
B( 17-C , 18-C ) :   1.5889 B( 17-C , 20-C ) :   0.1073 B( 17-C , 33-H ) :   0.9679
B( 18-C , 19-C ) :   1.2613 B( 18-C , 21-H ) :   0.9917 B( 19-C , 20-C ) :   1.5761
B( 19-C , 22-C ) :   1.0174 B( 22-C , 23-H ) :   0.9262 B( 22-C , 24-H ) :   0.9465
B( 22-C , 25-C ) :   1.0654 B( 25-C , 26-H ) :   0.9600 B( 25-C , 27-H ) :   0.9563
B( 25-C , 28-C ) :   1.0752 B( 28-C , 29-H ) :   0.9710 B( 28-C , 30-H ) :   0.9733
B( 28-C , 31-H ) :   0.9684

Dispersion correction           -0.013732854
FINAL SINGLE POINT ENERGY     -1339.865150577208

DIPOLE MOMENT
-------------
                                X             Y             Z
Electronic contribution:     18.99308     -24.27184      -2.63100
Nuclear contribution   :    -19.34952      24.79464       2.49927
                        -----------------------------------------
Total Dipole Moment    :     -0.35644       0.52280      -0.13173
                        -----------------------------------------
Magnitude (a.u.)       :      0.64631
Magnitude (Debye)      :      1.64280

Rotational constants in cm-1:     0.018110     0.008347     0.006551
Rotational constants in MHz :   542.911460   250.246499   196.396682

                             ****ORCA TERMINATED NORMALLY****
TOTAL RUN TIME: 0 days 0 hours 0 minutes 30 seconds 181 msec
