                         Program Version 4.2.1 -  RELEASE  -
|  1> ! wB97X-D3 SP def2-SVP
|  2> %pal
|  3> nprocs 16
|  4> end
|  5>
|  6> * xyz 0 1
|  7> S 	 4.88421 	 -13.7111 	 60.9484
|  8> C 	 4.04024 	 -12.7165 	 62.188
|  9> C 	 2.7242 	 -13.059 	 62.2426
| 10> C 	 2.39438 	 -13.8401 	 61.0785
| 11> C 	 3.41593 	 -14.2045 	 60.1904
| 12> H 	 1.42239 	 -14.2544 	 60.838
| 13> C 	 1.82315 	 -12.4798 	 63.3083
| 14> H 	 0.998631 	 -11.9386 	 62.8128
| 15> H 	 2.33017 	 -11.6857 	 63.7547
| 16> C 	 1.23555 	 -13.3886 	 64.2971
| 17> H 	 0.739728 	 -14.2551 	 63.8091
| 18> H 	 2.07294 	 -13.9149 	 64.7639
| 19> C 	 0.425213 	 -12.749 	 65.4371
| 20> H 	 -0.449083 	 -12.2187 	 65.0394
| 21> H 	 0.073243 	 -13.4749 	 66.0946
| 22> H 	 0.976711 	 -11.9493 	 66.0656
| 23> S 	 3.60883 	 -14.2233 	 57.4257
| 24> C 	 3.42544 	 -15.6868 	 56.526
| 25> C 	 3.07515 	 -16.69 	 57.3816
| 26> C 	 3.08079 	 -16.3345 	 58.737
| 27> C 	 3.38919 	 -15.0235 	 58.9781
| 28> H 	 2.8966 	 -17.672 	 56.9702
| 29> C 	 2.73589 	 -17.2892 	 59.8671
| 30> H 	 2.30174 	 -18.1859 	 59.5227
| 31> H 	 2.05813 	 -16.8755 	 60.5828
| 32> C 	 3.94001 	 -17.6373 	 60.8188
| 33> H 	 4.54621 	 -16.6965 	 60.9695
| 34> H 	 4.71898 	 -18.1435 	 60.3412
| 35> C 	 3.44903 	 -18.4502 	 62.0654
| 36> H 	 3.07554 	 -19.4268 	 61.7834
| 37> H 	 2.65372 	 -17.9914 	 62.6474
| 38> H 	 4.26685 	 -18.5608 	 62.7601
| 39> H 	 4.55982 	 -12.2008 	 62.9506
| 40> H 	 3.66886 	 -15.8611 	 55.4342
| 41> *
| 42>
| 43>                          ****END OF INPUT****

CARTESIAN COORDINATES (ANGSTROEM)
---------------------------------
  S      4.884210  -13.711100   60.948400
  C      4.040240  -12.716500   62.188000
  C      2.724200  -13.059000   62.242600
  C      2.394380  -13.840100   61.078500
  C      3.415930  -14.204500   60.190400
  H      1.422390  -14.254400   60.838000
  C      1.823150  -12.479800   63.308300
  H      0.998631  -11.938600   62.812800
  H      2.330170  -11.685700   63.754700
  C      1.235550  -13.388600   64.297100
  H      0.739728  -14.255100   63.809100
  H      2.072940  -13.914900   64.763900
  C      0.425213  -12.749000   65.437100
  H     -0.449083  -12.218700   65.039400
  H      0.073243  -13.474900   66.094600
  H      0.976711  -11.949300   66.065600
  S      3.608830  -14.223300   57.425700
  C      3.425440  -15.686800   56.526000
  C      3.075150  -16.690000   57.381600
  C      3.080790  -16.334500   58.737000
  C      3.389190  -15.023500   58.978100
  H      2.896600  -17.672000   56.970200
  C      2.735890  -17.289200   59.867100
  H      2.301740  -18.185900   59.522700
  H      2.058130  -16.875500   60.582800
  C      3.940010  -17.637300   60.818800
  H      4.546210  -16.696500   60.969500
  H      4.718980  -18.143500   60.341200
  C      3.449030  -18.450200   62.065400
  H      3.075540  -19.426800   61.783400
  H      2.653720  -17.991400   62.647400
  H      4.266850  -18.560800   62.760100
  H      4.559820  -12.200800   62.950600
  H      3.668860  -15.861100   55.434200

 Total Charge           Charge          ....    0
 Multiplicity           Mult            ....    1
 Number of Electrons    NEL             ....  134
 Basis Dimension        Dim             ....  322

ORBITAL ENERGIES
----------------

  NO   OCC          E(Eh)            E(eV)
   0   2.0000     -88.963232     -2420.8126
   1   2.0000     -88.962127     -2420.7825
   2   2.0000     -10.332408      -281.1591
   3   2.0000     -10.325921      -280.9826
   4   2.0000     -10.320417      -280.8328
   5   2.0000     -10.314898      -280.6826
   6   2.0000     -10.305075      -280.4154
   7   2.0000     -10.301564      -280.3198
   8   2.0000     -10.298842      -280.2457
   9   2.0000     -10.289443      -279.9900
  10   2.0000     -10.287794      -279.9451
  11   2.0000     -10.287608      -279.9400
  12   2.0000     -10.285410      -279.8802
  13   2.0000     -10.284175      -279.8466
  14   2.0000     -10.283072      -279.8166
  15   2.0000     -10.277408      -279.6625
  16   2.0000      -8.078350      -219.8231
  17   2.0000      -8.076549      -219.7741
  18   2.0000      -6.036829      -164.2705
  19   2.0000      -6.035082      -164.2229
  20   2.0000      -6.032662      -164.1571
  21   2.0000      -6.031107      -164.1148
  22   2.0000      -6.029224      -164.0635
  23   2.0000      -6.027260      -164.0101
  24   2.0000      -1.010443       -27.4955
  25   2.0000      -0.989282       -26.9197
  26   2.0000      -0.922616       -25.1057
  27   2.0000      -0.902228       -24.5509
  28   2.0000      -0.874330       -23.7917
  29   2.0000      -0.846765       -23.0416
  30   2.0000      -0.842048       -22.9133
  31   2.0000      -0.816064       -22.2062
  32   2.0000      -0.789014       -21.4702
  33   2.0000      -0.775029       -21.0896
  34   2.0000      -0.714630       -19.4461
  35   2.0000      -0.703713       -19.1490
  36   2.0000      -0.695808       -18.9339
  37   2.0000      -0.660891       -17.9838
  38   2.0000      -0.649413       -17.6714
  39   2.0000      -0.618247       -16.8234
  40   2.0000      -0.600175       -16.3316
  41   2.0000      -0.579381       -15.7658
  42   2.0000      -0.561635       -15.2829
  43   2.0000      -0.553283       -15.0556
  44   2.0000      -0.531976       -14.4758
  45   2.0000      -0.520597       -14.1662
  46   2.0000      -0.519875       -14.1465
  47   2.0000      -0.508955       -13.8494
  48   2.0000      -0.506349       -13.7785
  49   2.0000      -0.500489       -13.6190
  50   2.0000      -0.495503       -13.4833
  51   2.0000      -0.486776       -13.2458
  52   2.0000      -0.472610       -12.8604
  53   2.0000      -0.468814       -12.7571
  54   2.0000      -0.460891       -12.5415
  55   2.0000      -0.449917       -12.2429
  56   2.0000      -0.448728       -12.2105
  57   2.0000      -0.444986       -12.1087
  58   2.0000      -0.430706       -11.7201
  59   2.0000      -0.420122       -11.4321
  60   2.0000      -0.419273       -11.4090
  61   2.0000      -0.410537       -11.1713
  62   2.0000      -0.404687       -11.0121
  63   2.0000      -0.334272        -9.0960
  64   2.0000      -0.331575        -9.0226
  65   2.0000      -0.323153        -8.7934
  66   2.0000      -0.312614        -8.5067
  67   0.0000       0.031742         0.8637
  68   0.0000       0.059675         1.6238
  69   0.0000       0.108577         2.9545
  70   0.0000       0.123283         3.3547
  71   0.0000       0.133118         3.6223

MULLIKEN ATOMIC CHARGES
-----------------------
   0 S :    0.097715
   1 C :   -0.111979
   2 C :   -0.077373
   3 C :    0.050368
   4 C :   -0.172363
   5 H :    0.004184
   6 C :    0.116143
   7 H :    0.024041
   8 H :   -0.009955
   9 C :   -0.081824
  10 H :    0.029790
  11 H :    0.016926
  12 C :   -0.038707
  13 H :    0.029036
  14 H :    0.028216
  15 H :    0.041803
  16 S :    0.113894
  17 C :   -0.111312
  18 C :   -0.048240
  19 C :    0.009037
  20 C :   -0.182364
  21 H :    0.012525
  22 C :    0.120135
  23 H :    0.000539
  24 H :    0.009476
  25 C :   -0.081994
  26 H :    0.025577
  27 H :    0.005611
  28 C :   -0.035015
  29 H :    0.029495
  30 H :    0.028056
  31 H :    0.033103
  32 H :    0.041145
  33 H :    0.084313
Sum of atomic charges:    0.0000000

LOEWDIN ATOMIC CHARGES
----------------------
   0 S :    0.397604
   1 C :   -0.165992
   2 C :   -0.059225
   3 C :   -0.058628
   4 C :   -0.205617
   5 H :    0.025553
   6 C :   -0.029771
   7 H :    0.034351
   8 H :    0.022389
   9 C :   -0.049457
  10 H :    0.029085
  11 H :    0.024364
  12 C :   -0.063214
  13 H :    0.024661
  14 H :    0.019569
  15 H :    0.036157
  16 S :    0.419077
  17 C :   -0.197343
  18 C :   -0.080056
  19 C :   -0.052519
  20 C :   -0.206167
  21 H :    0.031167
  22 C :   -0.022767
  23 H :    0.019416
  24 H :    0.026516
  25 C :   -0.039814
  26 H :    0.025121
  27 H :    0.012673
  28 C :   -0.062086
  29 H :    0.024562
  30 H :    0.023340
  31 H :    0.027280
  32 H :    0.020230
  33 H :    0.049540

  Mayer bond orders larger than 0.100000
B(  0-S ,  1-C ) :   1.1400 B(  0-S ,  4-C ) :   1.1547 B(  1-C ,  2-C ) :   1.6085
B(  1-C ,  4-C ) :   0.1006 B(  1-C , 32-H ) :   0.9709 B(  2-C ,  3-C ) :   1.2227
B(  2-C ,  6-C ) :   1.0275 B(  3-C ,  4-C ) :   1.5863 B(  3-C ,  5-H ) :   0.9976
B(  4-C , 20-C ) :   1.0113 B(  6-C ,  7-H ) :   0.9313 B(  6-C ,  8-H ) :   0.9324
B(  6-C ,  9-C ) :   1.0669 B(  9-C , 10-H ) :   0.9527 B(  9-C , 11-H ) :   0.9464
B(  9-C , 12-C ) :   1.0832 B( 12-C , 13-H ) :   0.9739 B( 12-C , 14-H ) :   0.9734
B( 12-C , 15-H ) :   0.9731 B( 16-S , 17-C ) :   1.1753 B( 16-S , 20-C ) :   1.1474
B( 17-C , 18-C ) :   1.5852 B( 17-C , 20-C ) :   0.1034 B( 17-C , 33-H ) :   0.9572
B( 18-C , 19-C ) :   1.2637 B( 18-C , 21-H ) :   0.9955 B( 19-C , 20-C ) :   1.5819
B( 19-C , 22-C ) :   1.0514 B( 22-C , 23-H ) :   0.9337 B( 22-C , 24-H ) :   0.9366
B( 22-C , 25-C ) :   1.0445 B( 25-C , 26-H ) :   0.9561 B( 25-C , 27-H ) :   0.9505
B( 25-C , 28-C ) :   1.0684 B( 28-C , 29-H ) :   0.9751 B( 28-C , 30-H ) :   0.9777
B( 28-C , 31-H ) :   0.9746

Dispersion correction           -0.014366991
FINAL SINGLE POINT ENERGY     -1339.865880718220

DIPOLE MOMENT
-------------
                                X             Y             Z
Electronic contribution:     12.41397       9.13120     -24.84764
Nuclear contribution   :    -12.79857      -9.49279      25.29112
                        -----------------------------------------
Total Dipole Moment    :     -0.38460      -0.36159       0.44348
                        -----------------------------------------
Magnitude (a.u.)       :      0.68945
Magnitude (Debye)      :      1.75243

Rotational constants in cm-1:     0.019818     0.008043     0.006802
Rotational constants in MHz :   594.116521   241.109824   203.916072

                             ****ORCA TERMINATED NORMALLY****
TOTAL RUN TIME: 0 days 0 hours 0 minutes 30 seconds 513 msec
