                         Program Version 4.2.1 -  RELEASE  -
|  1> ! wB97X-D3 SP def2-SVP
|  2> %pal
|  3> nprocs 16
|  4> end
|  5>
|  6> * xyz 0 1
|  7> S 	 12.9572 	 22.9046 	 61.9985
|  8> C 	 13.2014 	 21.3138 	 61.5087
|  9> C 	 12.2118 	 20.4568 	 61.9374
| 10> C 	 11.1925 	 21.0502 	 62.7631
| 11> C 	 11.3884 	 22.382 	 62.8256
| 12> H 	 10.3157 	 20.5321 	 63.1422
| 13> C 	 12.0461 	 19.0179 	 61.5575
| 14> H 	 12.4859 	 18.892 	 60.5481
| 15> H 	 10.9802 	 18.7531 	 61.4865
| 16> C 	 12.7218 	 18.0084 	 62.4846
| 17> H 	 12.6312 	 16.9846 	 62.0368
| 18> H 	 13.8182 	 18.142 	 62.6169
| 19> C 	 12.1053 	 17.9421 	 63.8655
| 20> H 	 11.0608 	 17.684 	 63.8734
| 21> H 	 12.6714 	 17.1834 	 64.5065
| 22> H 	 12.2373 	 18.8626 	 64.4209
| 23> S 	 11.3426 	 24.9997 	 63.8079
| 24> C 	 9.93193 	 25.6064 	 64.5639
| 25> C 	 8.96488 	 24.6351 	 64.7239
| 26> C 	 9.26316 	 23.4087 	 64.0013
| 27> C 	 10.5529 	 23.3686 	 63.4413
| 28> H 	 8.03561 	 24.8801 	 65.2113
| 29> C 	 8.203 	 22.3101 	 63.8786
| 30> H 	 7.33439 	 22.4151 	 64.5528
| 31> H 	 8.76995 	 21.4444 	 64.2477
| 32> C 	 7.71552 	 21.889 	 62.4025
| 33> H 	 8.57955 	 21.5846 	 61.736
| 34> H 	 7.20583 	 22.7836 	 61.9589
| 35> C 	 6.75122 	 20.7396 	 62.3848
| 36> H 	 6.47523 	 20.5221 	 61.3997
| 37> H 	 5.8647 	 20.9913 	 62.9222
| 38> H 	 7.21419 	 19.8754 	 62.8154
| 39> H 	 14.1063 	 21.0067 	 60.9275
| 40> H 	 9.88506 	 26.5574 	 65.1287
| 41> *
| 42>
| 43>                          ****END OF INPUT****

CARTESIAN COORDINATES (ANGSTROEM)
---------------------------------
  S     12.957200   22.904600   61.998500
  C     13.201400   21.313800   61.508700
  C     12.211800   20.456800   61.937400
  C     11.192500   21.050200   62.763100
  C     11.388400   22.382000   62.825600
  H     10.315700   20.532100   63.142200
  C     12.046100   19.017900   61.557500
  H     12.485900   18.892000   60.548100
  H     10.980200   18.753100   61.486500
  C     12.721800   18.008400   62.484600
  H     12.631200   16.984600   62.036800
  H     13.818200   18.142000   62.616900
  C     12.105300   17.942100   63.865500
  H     11.060800   17.684000   63.873400
  H     12.671400   17.183400   64.506500
  H     12.237300   18.862600   64.420900
  S     11.342600   24.999700   63.807900
  C      9.931930   25.606400   64.563900
  C      8.964880   24.635100   64.723900
  C      9.263160   23.408700   64.001300
  C     10.552900   23.368600   63.441300
  H      8.035610   24.880100   65.211300
  C      8.203000   22.310100   63.878600
  H      7.334390   22.415100   64.552800
  H      8.769950   21.444400   64.247700
  C      7.715520   21.889000   62.402500
  H      8.579550   21.584600   61.736000
  H      7.205830   22.783600   61.958900
  C      6.751220   20.739600   62.384800
  H      6.475230   20.522100   61.399700
  H      5.864700   20.991300   62.922200
  H      7.214190   19.875400   62.815400
  H     14.106300   21.006700   60.927500
  H      9.885060   26.557400   65.128700

 Total Charge           Charge          ....    0
 Multiplicity           Mult            ....    1
 Number of Electrons    NEL             ....  134
 Basis Dimension        Dim             ....  322

ORBITAL ENERGIES
----------------

  NO   OCC          E(Eh)            E(eV)
   0   2.0000     -88.966475     -2420.9009
   1   2.0000     -88.962263     -2420.7863
   2   2.0000     -10.335012      -281.2300
   3   2.0000     -10.334297      -281.2105
   4   2.0000     -10.318830      -280.7896
   5   2.0000     -10.314154      -280.6624
   6   2.0000     -10.313960      -280.6571
   7   2.0000     -10.302752      -280.3521
   8   2.0000     -10.298116      -280.2260
   9   2.0000     -10.296235      -280.1748
  10   2.0000     -10.295546      -280.1560
  11   2.0000     -10.294980      -280.1406
  12   2.0000     -10.291486      -280.0456
  13   2.0000     -10.288747      -279.9710
  14   2.0000     -10.276689      -279.6429
  15   2.0000     -10.269825      -279.4561
  16   2.0000      -8.081331      -219.9042
  17   2.0000      -8.076594      -219.7753
  18   2.0000      -6.039936      -164.3550
  19   2.0000      -6.036022      -164.2485
  20   2.0000      -6.035213      -164.2265
  21   2.0000      -6.031766      -164.1327
  22   2.0000      -6.031193      -164.1171
  23   2.0000      -6.027239      -164.0095
  24   2.0000      -1.004746       -27.3405
  25   2.0000      -0.980522       -26.6813
  26   2.0000      -0.911515       -24.8036
  27   2.0000      -0.904768       -24.6200
  28   2.0000      -0.876572       -23.8527
  29   2.0000      -0.855268       -23.2730
  30   2.0000      -0.850626       -23.1467
  31   2.0000      -0.814556       -22.1652
  32   2.0000      -0.783115       -21.3097
  33   2.0000      -0.765863       -20.8402
  34   2.0000      -0.706552       -19.2262
  35   2.0000      -0.696818       -18.9614
  36   2.0000      -0.688867       -18.7450
  37   2.0000      -0.665375       -18.1058
  38   2.0000      -0.637882       -17.3577
  39   2.0000      -0.619025       -16.8445
  40   2.0000      -0.590095       -16.0573
  41   2.0000      -0.570330       -15.5195
  42   2.0000      -0.568792       -15.4776
  43   2.0000      -0.544784       -14.8243
  44   2.0000      -0.540813       -14.7163
  45   2.0000      -0.525646       -14.3036
  46   2.0000      -0.519254       -14.1296
  47   2.0000      -0.514775       -14.0077
  48   2.0000      -0.507242       -13.8028
  49   2.0000      -0.503128       -13.6908
  50   2.0000      -0.492965       -13.4143
  51   2.0000      -0.486789       -13.2462
  52   2.0000      -0.475515       -12.9394
  53   2.0000      -0.463663       -12.6169
  54   2.0000      -0.454335       -12.3631
  55   2.0000      -0.450303       -12.2534
  56   2.0000      -0.438214       -11.9244
  57   2.0000      -0.432956       -11.7813
  58   2.0000      -0.429087       -11.6761
  59   2.0000      -0.427744       -11.6395
  60   2.0000      -0.422007       -11.4834
  61   2.0000      -0.411626       -11.2009
  62   2.0000      -0.411053       -11.1853
  63   2.0000      -0.371058       -10.0970
  64   2.0000      -0.332481        -9.0473
  65   2.0000      -0.325773        -8.8647
  66   2.0000      -0.276338        -7.5195
  67   0.0000       0.015504         0.4219
  68   0.0000       0.073609         2.0030
  69   0.0000       0.089881         2.4458
  70   0.0000       0.110860         3.0167
  71   0.0000       0.130915         3.5624

MULLIKEN ATOMIC CHARGES
-----------------------
   0 S :    0.102634
   1 C :   -0.120476
   2 C :   -0.090322
   3 C :   -0.023420
   4 C :   -0.077936
   5 H :    0.016366
   6 C :    0.057019
   7 H :    0.026791
   8 H :    0.025831
   9 C :   -0.075294
  10 H :    0.031744
  11 H :    0.032565
  12 C :   -0.074939
  13 H :    0.023975
  14 H :    0.037370
  15 H :    0.039615
  16 S :    0.070054
  17 C :   -0.081371
  18 C :   -0.039327
  19 C :   -0.046060
  20 C :   -0.114610
  21 H :    0.016920
  22 C :    0.028280
  23 H :    0.027346
  24 H :    0.025673
  25 C :   -0.123248
  26 H :    0.049159
  27 H :    0.041838
  28 C :    0.014726
  29 H :    0.023065
  30 H :    0.020808
  31 H :    0.015483
  32 H :    0.065082
  33 H :    0.074660
Sum of atomic charges:    0.0000000

LOEWDIN ATOMIC CHARGES
----------------------
   0 S :    0.386870
   1 C :   -0.218830
   2 C :   -0.068378
   3 C :   -0.060317
   4 C :   -0.151973
   5 H :    0.034897
   6 C :   -0.036708
   7 H :    0.034012
   8 H :    0.030827
   9 C :   -0.047081
  10 H :    0.026535
  11 H :    0.027318
  12 C :   -0.073492
  13 H :    0.017501
  14 H :    0.034589
  15 H :    0.023806
  16 S :    0.372495
  17 C :   -0.194546
  18 C :   -0.078479
  19 C :   -0.050337
  20 C :   -0.166241
  21 H :    0.029893
  22 C :   -0.038233
  23 H :    0.032042
  24 H :    0.028727
  25 C :   -0.042733
  26 H :    0.030875
  27 H :    0.028300
  28 C :   -0.056062
  29 H :    0.022729
  30 H :    0.021260
  31 H :    0.020202
  32 H :    0.040280
  33 H :    0.040253

  Mayer bond orders larger than 0.100000
B(  0-S ,  1-C ) :   1.1331 B(  0-S ,  4-C ) :   1.1098 B(  1-C ,  2-C ) :   1.6421
B(  1-C , 32-H ) :   0.9568 B(  2-C ,  3-C ) :   1.2057 B(  2-C ,  6-C ) :   1.0222
B(  3-C ,  4-C ) :   1.5958 B(  3-C ,  5-H ) :   0.9889 B(  4-C , 20-C ) :   1.1226
B(  6-C ,  7-H ) :   0.9371 B(  6-C ,  8-H ) :   0.9449 B(  6-C ,  9-C ) :   1.0765
B(  9-C , 10-H ) :   0.9546 B(  9-C , 11-H ) :   0.9545 B(  9-C , 12-C ) :   1.0863
B( 12-C , 13-H ) :   0.9735 B( 12-C , 14-H ) :   0.9711 B( 12-C , 15-H ) :   0.9707
B( 16-S , 17-C ) :   1.1642 B( 16-S , 20-C ) :   1.0988 B( 17-C , 18-C ) :   1.6192
B( 17-C , 33-H ) :   0.9570 B( 18-C , 19-C ) :   1.2362 B( 18-C , 21-H ) :   0.9902
B( 19-C , 20-C ) :   1.5821 B( 19-C , 22-C ) :   1.0349 B( 22-C , 23-H ) :   0.9423
B( 22-C , 24-H ) :   0.9310 B( 22-C , 25-C ) :   1.0493 B( 25-C , 26-H ) :   0.9525
B( 25-C , 27-H ) :   0.9560 B( 25-C , 28-C ) :   1.0913 B( 28-C , 29-H ) :   0.9695
B( 28-C , 30-H ) :   0.9722 B( 28-C , 31-H ) :   0.9717

Dispersion correction           -0.014648031
FINAL SINGLE POINT ENERGY     -1339.878998658220

DIPOLE MOMENT
-------------
                                X             Y             Z
Electronic contribution:     14.23528      26.67465       0.30932
Nuclear contribution   :    -14.71959     -27.20534      -0.25846
                        -----------------------------------------
Total Dipole Moment    :     -0.48431      -0.53069       0.05086
                        -----------------------------------------
Magnitude (a.u.)       :      0.72026
Magnitude (Debye)      :      1.83077

Rotational constants in cm-1:     0.017064     0.009914     0.007138
Rotational constants in MHz :   511.568413   297.206508   213.986430

                             ****ORCA TERMINATED NORMALLY****
TOTAL RUN TIME: 0 days 0 hours 0 minutes 36 seconds 384 msec
