                         Program Version 4.2.1 -  RELEASE  -
|  1> ! wB97X-D3 SP def2-SVP
|  2> %pal
|  3> nprocs 16
|  4> end
|  5>
|  6> * xyz 0 1
|  7> S 	 5.47141 	 -10.992 	 76.4885
|  8> C 	 3.79383 	 -10.9545 	 77.1086
|  9> C 	 3.00003 	 -11.6219 	 76.175
| 10> C 	 3.78024 	 -12.3028 	 75.121
| 11> C 	 5.13333 	 -12.0544 	 75.172
| 12> H 	 3.42146 	 -13.0251 	 74.2955
| 13> C 	 1.51882 	 -11.7149 	 76.189
| 14> H 	 1.16643 	 -11.1086 	 75.4153
| 15> H 	 1.16807 	 -11.2358 	 77.1023
| 16> C 	 0.829537 	 -13.1002 	 76.1159
| 17> H 	 1.01479 	 -13.4543 	 75.0806
| 18> H 	 1.32438 	 -13.7827 	 76.836
| 19> C 	 -0.701044 	 -13.1656 	 76.2483
| 20> H 	 -1.17118 	 -14.1132 	 76.0498
| 21> H 	 -0.993814 	 -12.9076 	 77.2375
| 22> H 	 -1.10351 	 -12.4789 	 75.5288
| 23> S 	 6.9439 	 -10.8097 	 73.4233
| 24> C 	 7.54303 	 -11.7868 	 72.109
| 25> C 	 7.51783 	 -13.1262 	 72.5095
| 26> C 	 6.55549 	 -13.4032 	 73.5624
| 27> C 	 6.16066 	 -12.2449 	 74.144
| 28> H 	 7.89904 	 -13.8659 	 71.8498
| 29> C 	 6.15434 	 -14.8301 	 73.7718
| 30> H 	 5.44279 	 -15.1069 	 73.0205
| 31> H 	 5.59618 	 -14.8471 	 74.7311
| 32> C 	 7.16326 	 -15.9917 	 73.9057
| 33> H 	 7.90456 	 -15.4706 	 74.5286
| 34> H 	 7.64213 	 -16.2557 	 72.9623
| 35> C 	 6.6541 	 -17.3408 	 74.5307
| 36> H 	 5.92544 	 -17.185 	 75.2775
| 37> H 	 7.48398 	 -17.8651 	 74.8948
| 38> H 	 6.34712 	 -17.9408 	 73.6901
| 39> H 	 3.2913 	 -10.406 	 77.9531
| 40> H 	 7.93369 	 -11.4273 	 71.2246
| 41> *
| 42>
| 43>                          ****END OF INPUT****

CARTESIAN COORDINATES (ANGSTROEM)
---------------------------------
  S      5.471410  -10.992000   76.488500
  C      3.793830  -10.954500   77.108600
  C      3.000030  -11.621900   76.175000
  C      3.780240  -12.302800   75.121000
  C      5.133330  -12.054400   75.172000
  H      3.421460  -13.025100   74.295500
  C      1.518820  -11.714900   76.189000
  H      1.166430  -11.108600   75.415300
  H      1.168070  -11.235800   77.102300
  C      0.829537  -13.100200   76.115900
  H      1.014790  -13.454300   75.080600
  H      1.324380  -13.782700   76.836000
  C     -0.701044  -13.165600   76.248300
  H     -1.171180  -14.113200   76.049800
  H     -0.993814  -12.907600   77.237500
  H     -1.103510  -12.478900   75.528800
  S      6.943900  -10.809700   73.423300
  C      7.543030  -11.786800   72.109000
  C      7.517830  -13.126200   72.509500
  C      6.555490  -13.403200   73.562400
  C      6.160660  -12.244900   74.144000
  H      7.899040  -13.865900   71.849800
  C      6.154340  -14.830100   73.771800
  H      5.442790  -15.106900   73.020500
  H      5.596180  -14.847100   74.731100
  C      7.163260  -15.991700   73.905700
  H      7.904560  -15.470600   74.528600
  H      7.642130  -16.255700   72.962300
  C      6.654100  -17.340800   74.530700
  H      5.925440  -17.185000   75.277500
  H      7.483980  -17.865100   74.894800
  H      6.347120  -17.940800   73.690100
  H      3.291300  -10.406000   77.953100
  H      7.933690  -11.427300   71.224600

 Total Charge           Charge          ....    0
 Multiplicity           Mult            ....    1
 Number of Electrons    NEL             ....  134
 Basis Dimension        Dim             ....  322

ORBITAL ENERGIES
----------------

  NO   OCC          E(Eh)            E(eV)
   0   2.0000     -88.965176     -2420.8655
   1   2.0000     -88.962893     -2420.8034
   2   2.0000     -10.328875      -281.0630
   3   2.0000     -10.328335      -281.0483
   4   2.0000     -10.321762      -280.8694
   5   2.0000     -10.317184      -280.7449
   6   2.0000     -10.306706      -280.4597
   7   2.0000     -10.304947      -280.4119
   8   2.0000     -10.301399      -280.3153
   9   2.0000     -10.293060      -280.0884
  10   2.0000     -10.291899      -280.0568
  11   2.0000     -10.290795      -280.0268
  12   2.0000     -10.290764      -280.0259
  13   2.0000     -10.285939      -279.8946
  14   2.0000     -10.275908      -279.6217
  15   2.0000     -10.274976      -279.5963
  16   2.0000      -8.079728      -219.8606
  17   2.0000      -8.077376      -219.7966
  18   2.0000      -6.038436      -164.3142
  19   2.0000      -6.036110      -164.2509
  20   2.0000      -6.034456      -164.2059
  21   2.0000      -6.031822      -164.1342
  22   2.0000      -6.030056      -164.0862
  23   2.0000      -6.027967      -164.0293
  24   2.0000      -1.005824       -27.3699
  25   2.0000      -0.980958       -26.6932
  26   2.0000      -0.912008       -24.8170
  27   2.0000      -0.908681       -24.7265
  28   2.0000      -0.869804       -23.6686
  29   2.0000      -0.854450       -23.2508
  30   2.0000      -0.839859       -22.8537
  31   2.0000      -0.813201       -22.1283
  32   2.0000      -0.788619       -21.4594
  33   2.0000      -0.778145       -21.1744
  34   2.0000      -0.709231       -19.2991
  35   2.0000      -0.702115       -19.1055
  36   2.0000      -0.693769       -18.8784
  37   2.0000      -0.660166       -17.9640
  38   2.0000      -0.637352       -17.3432
  39   2.0000      -0.608989       -16.5714
  40   2.0000      -0.600003       -16.3269
  41   2.0000      -0.575618       -15.6634
  42   2.0000      -0.574596       -15.6355
  43   2.0000      -0.559996       -15.2383
  44   2.0000      -0.531712       -14.4686
  45   2.0000      -0.522778       -14.2255
  46   2.0000      -0.521662       -14.1951
  47   2.0000      -0.509805       -13.8725
  48   2.0000      -0.506976       -13.7955
  49   2.0000      -0.501223       -13.6390
  50   2.0000      -0.492184       -13.3930
  51   2.0000      -0.483674       -13.1614
  52   2.0000      -0.472846       -12.8668
  53   2.0000      -0.465717       -12.6728
  54   2.0000      -0.461941       -12.5701
  55   2.0000      -0.458448       -12.4750
  56   2.0000      -0.447906       -12.1882
  57   2.0000      -0.434067       -11.8116
  58   2.0000      -0.430776       -11.7220
  59   2.0000      -0.420716       -11.4483
  60   2.0000      -0.414138       -11.2693
  61   2.0000      -0.411145       -11.1878
  62   2.0000      -0.406956       -11.0738
  63   2.0000      -0.347418        -9.4537
  64   2.0000      -0.328165        -8.9298
  65   2.0000      -0.323280        -8.7969
  66   2.0000      -0.294540        -8.0148
  67   0.0000       0.035607         0.9689
  68   0.0000       0.055036         1.4976
  69   0.0000       0.110263         3.0004
  70   0.0000       0.119662         3.2562
  71   0.0000       0.128091         3.4855

MULLIKEN ATOMIC CHARGES
-----------------------
   0 S :    0.084881
   1 C :   -0.115281
   2 C :   -0.123854
   3 C :    0.003307
   4 C :   -0.159292
   5 H :    0.046047
   6 C :    0.100043
   7 H :    0.024281
   8 H :    0.000230
   9 C :   -0.113707
  10 H :    0.028319
  11 H :    0.039432
  12 C :   -0.013044
  13 H :    0.032631
  14 H :    0.021380
  15 H :    0.021852
  16 S :    0.113932
  17 C :   -0.080802
  18 C :   -0.000244
  19 C :   -0.046525
  20 C :   -0.136390
  21 H :    0.010695
  22 C :    0.060101
  23 H :    0.032129
  24 H :    0.024885
  25 C :   -0.119784
  26 H :    0.035233
  27 H :    0.028697
  28 C :    0.008070
  29 H :    0.032832
  30 H :    0.025265
  31 H :    0.029128
  32 H :    0.069463
  33 H :    0.036091
Sum of atomic charges:   -0.0000000

LOEWDIN ATOMIC CHARGES
----------------------
   0 S :    0.395909
   1 C :   -0.206563
   2 C :   -0.058053
   3 C :   -0.079753
   4 C :   -0.197448
   5 H :    0.045421
   6 C :   -0.034415
   7 H :    0.027826
   8 H :    0.025558
   9 C :   -0.041004
  10 H :    0.022877
  11 H :    0.026053
  12 C :   -0.058498
  13 H :    0.027947
  14 H :    0.018561
  15 H :    0.023914
  16 S :    0.388045
  17 C :   -0.161499
  18 C :   -0.061124
  19 C :   -0.052051
  20 C :   -0.189728
  21 H :    0.021378
  22 C :   -0.039345
  23 H :    0.027934
  24 H :    0.034417
  25 C :   -0.040107
  26 H :    0.025702
  27 H :    0.019215
  28 C :   -0.048455
  29 H :    0.021113
  30 H :    0.025326
  31 H :    0.028303
  32 H :    0.047817
  33 H :    0.014725

  Mayer bond orders larger than 0.100000
B(  0-S ,  1-C ) :   1.1081 B(  0-S ,  4-C ) :   1.1447 B(  1-C ,  2-C ) :   1.6377
B(  1-C , 32-H ) :   0.9590 B(  2-C ,  3-C ) :   1.1988 B(  2-C ,  6-C ) :   1.0490
B(  3-C ,  4-C ) :   1.6094 B(  3-C ,  5-H ) :   0.9751 B(  4-C , 20-C ) :   1.0202
B(  6-C ,  7-H ) :   0.9244 B(  6-C ,  8-H ) :   0.9357 B(  6-C ,  9-C ) :   1.0555
B(  9-C , 10-H ) :   0.9514 B(  9-C , 11-H ) :   0.9622 B(  9-C , 12-C ) :   1.0864
B( 12-C , 13-H ) :   0.9747 B( 12-C , 14-H ) :   0.9759 B( 12-C , 15-H ) :   0.9729
B( 16-S , 17-C ) :   1.1479 B( 16-S , 20-C ) :   1.1074 B( 17-C , 18-C ) :   1.6314
B( 17-C , 33-H ) :   0.9811 B( 18-C , 19-C ) :   1.1946 B( 18-C , 21-H ) :   0.9862
B( 19-C , 20-C ) :   1.6568 B( 19-C , 22-C ) :   1.0574 B( 22-C , 23-H ) :   0.9253
B( 22-C , 24-H ) :   0.9255 B( 22-C , 25-C ) :   1.0568 B( 25-C , 26-H ) :   0.9641
B( 25-C , 27-H ) :   0.9527 B( 25-C , 28-C ) :   1.0801 B( 28-C , 29-H ) :   0.9778
B( 28-C , 30-H ) :   0.9723 B( 28-C , 31-H ) :   0.9764

Dispersion correction           -0.013258327
FINAL SINGLE POINT ENERGY     -1339.846853053538

DIPOLE MOMENT
-------------
                                X             Y             Z
Electronic contribution:     18.00001      23.34414      -1.23964
Nuclear contribution   :    -18.47520     -23.92760       0.86531
                        -----------------------------------------
Total Dipole Moment    :     -0.47519      -0.58347      -0.37433
                        -----------------------------------------
Magnitude (a.u.)       :      0.84045
Magnitude (Debye)      :      2.13626

Rotational constants in cm-1:     0.016125     0.008115     0.006239
Rotational constants in MHz :   483.427437   243.292547   187.042147

                             ****ORCA TERMINATED NORMALLY****
TOTAL RUN TIME: 0 days 0 hours 0 minutes 27 seconds 119 msec
