                         Program Version 4.2.1 -  RELEASE  -
|  1> ! wB97X-D3 SP def2-SVP
|  2> %pal
|  3> nprocs 16
|  4> end
|  5>
|  6> * xyz 0 1
|  7> S 	 -117.087 	 47.8563 	 130.963
|  8> C 	 -115.63 	 48.6001 	 130.286
|  9> C 	 -115.503 	 49.8413 	 130.834
| 10> C 	 -116.411 	 50.0423 	 131.924
| 11> C 	 -117.292 	 49.0662 	 132.135
| 12> H 	 -116.343 	 51.0075 	 132.511
| 13> C 	 -114.39 	 50.8224 	 130.412
| 14> H 	 -113.721 	 50.3227 	 129.695
| 15> H 	 -113.745 	 51.0046 	 131.3
| 16> C 	 -114.944 	 52.1807 	 129.911
| 17> H 	 -115.741 	 52.1312 	 129.263
| 18> H 	 -115.382 	 52.5718 	 130.788
| 19> C 	 -113.788 	 53.0267 	 129.319
| 20> H 	 -113.621 	 52.7533 	 128.283
| 21> H 	 -114.038 	 54.042 	 129.294
| 22> H 	 -112.805 	 53.0246 	 129.787
| 23> S 	 -120.024 	 49.0539 	 132.587
| 24> C 	 -120.649 	 49.0084 	 134.169
| 25> C 	 -119.682 	 49.163 	 135.123
| 26> C 	 -118.326 	 49.1716 	 134.559
| 27> C 	 -118.318 	 49.0615 	 133.173
| 28> H 	 -119.909 	 49.1831 	 136.183
| 29> C 	 -117.124 	 49.1886 	 135.427
| 30> H 	 -116.457 	 48.7626 	 134.742
| 31> H 	 -117.429 	 48.5012 	 136.284
| 32> C 	 -116.779 	 50.6358 	 135.75
| 33> H 	 -117.608 	 50.9576 	 136.367
| 34> H 	 -116.937 	 51.4202 	 134.975
| 35> C 	 -115.325 	 50.6553 	 136.327
| 36> H 	 -114.579 	 50.4671 	 135.567
| 37> H 	 -115.177 	 50.0176 	 137.204
| 38> H 	 -115.025 	 51.6241 	 136.771
| 39> H 	 -115.014 	 48.0746 	 129.551
| 40> H 	 -121.703 	 49.0346 	 134.473
| 41> *
| 42>
| 43>                          ****END OF INPUT****

CARTESIAN COORDINATES (ANGSTROEM)
---------------------------------
  S    -117.087000   47.856300  130.963000
  C    -115.630000   48.600100  130.286000
  C    -115.503000   49.841300  130.834000
  C    -116.411000   50.042300  131.924000
  C    -117.292000   49.066200  132.135000
  H    -116.343000   51.007500  132.511000
  C    -114.390000   50.822400  130.412000
  H    -113.721000   50.322700  129.695000
  H    -113.745000   51.004600  131.300000
  C    -114.944000   52.180700  129.911000
  H    -115.741000   52.131200  129.263000
  H    -115.382000   52.571800  130.788000
  C    -113.788000   53.026700  129.319000
  H    -113.621000   52.753300  128.283000
  H    -114.038000   54.042000  129.294000
  H    -112.805000   53.024600  129.787000
  S    -120.024000   49.053900  132.587000
  C    -120.649000   49.008400  134.169000
  C    -119.682000   49.163000  135.123000
  C    -118.326000   49.171600  134.559000
  C    -118.318000   49.061500  133.173000
  H    -119.909000   49.183100  136.183000
  C    -117.124000   49.188600  135.427000
  H    -116.457000   48.762600  134.742000
  H    -117.429000   48.501200  136.284000
  C    -116.779000   50.635800  135.750000
  H    -117.608000   50.957600  136.367000
  H    -116.937000   51.420200  134.975000
  C    -115.325000   50.655300  136.327000
  H    -114.579000   50.467100  135.567000
  H    -115.177000   50.017600  137.204000
  H    -115.025000   51.624100  136.771000
  H    -115.014000   48.074600  129.551000
  H    -121.703000   49.034600  134.473000

 Total Charge           Charge          ....    0
 Multiplicity           Mult            ....    1
 Number of Electrons    NEL             ....  134
 Basis Dimension        Dim             ....  322

ORBITAL ENERGIES
----------------

  NO   OCC          E(Eh)            E(eV)
   0   2.0000     -88.959756     -2420.7180
   1   2.0000     -88.959587     -2420.7134
   2   2.0000     -10.326991      -281.0117
   3   2.0000     -10.323764      -280.9239
   4   2.0000     -10.316033      -280.7135
   5   2.0000     -10.313315      -280.6396
   6   2.0000     -10.302649      -280.3493
   7   2.0000     -10.299855      -280.2733
   8   2.0000     -10.297424      -280.2071
   9   2.0000     -10.293075      -280.0888
  10   2.0000     -10.292864      -280.0831
  11   2.0000     -10.290674      -280.0235
  12   2.0000     -10.287208      -279.9292
  13   2.0000     -10.281849      -279.7833
  14   2.0000     -10.281846      -279.7832
  15   2.0000     -10.274821      -279.5921
  16   2.0000      -8.075764      -219.7527
  17   2.0000      -8.074707      -219.7239
  18   2.0000      -6.034249      -164.2003
  19   2.0000      -6.033325      -164.1751
  20   2.0000      -6.030079      -164.0868
  21   2.0000      -6.029178      -164.0623
  22   2.0000      -6.026444      -163.9879
  23   2.0000      -6.025309      -163.9570
  24   2.0000      -1.012822       -27.5603
  25   2.0000      -0.986162       -26.8348
  26   2.0000      -0.915441       -24.9104
  27   2.0000      -0.910804       -24.7842
  28   2.0000      -0.872084       -23.7306
  29   2.0000      -0.847058       -23.0496
  30   2.0000      -0.841808       -22.9068
  31   2.0000      -0.816136       -22.2082
  32   2.0000      -0.782441       -21.2913
  33   2.0000      -0.771803       -21.0018
  34   2.0000      -0.717423       -19.5221
  35   2.0000      -0.710615       -19.3368
  36   2.0000      -0.695083       -18.9142
  37   2.0000      -0.658452       -17.9174
  38   2.0000      -0.643674       -17.5153
  39   2.0000      -0.622141       -16.9293
  40   2.0000      -0.589007       -16.0277
  41   2.0000      -0.569834       -15.5060
  42   2.0000      -0.564294       -15.3552
  43   2.0000      -0.556109       -15.1325
  44   2.0000      -0.526923       -14.3383
  45   2.0000      -0.523102       -14.2343
  46   2.0000      -0.516077       -14.0432
  47   2.0000      -0.512581       -13.9480
  48   2.0000      -0.509195       -13.8559
  49   2.0000      -0.504865       -13.7381
  50   2.0000      -0.497707       -13.5433
  51   2.0000      -0.477811       -13.0019
  52   2.0000      -0.469955       -12.7881
  53   2.0000      -0.466032       -12.6814
  54   2.0000      -0.462391       -12.5823
  55   2.0000      -0.452389       -12.3101
  56   2.0000      -0.444855       -12.1051
  57   2.0000      -0.443445       -12.0668
  58   2.0000      -0.436670       -11.8824
  59   2.0000      -0.423407       -11.5215
  60   2.0000      -0.420989       -11.4557
  61   2.0000      -0.407794       -11.0966
  62   2.0000      -0.404146       -10.9974
  63   2.0000      -0.344400        -9.3716
  64   2.0000      -0.329720        -8.9721
  65   2.0000      -0.322840        -8.7849
  66   2.0000      -0.300964        -8.1896
  67   0.0000       0.040744         1.1087
  68   0.0000       0.069354         1.8872
  69   0.0000       0.122024         3.3204
  70   0.0000       0.124837         3.3970
  71   0.0000       0.128789         3.5045

MULLIKEN ATOMIC CHARGES
-----------------------
   0 S :    0.099078
   1 C :   -0.151364
   2 C :   -0.068625
   3 C :    0.000701
   4 C :   -0.127173
   5 H :    0.029011
   6 C :    0.039920
   7 H :    0.017024
   8 H :    0.037581
   9 C :   -0.023148
  10 H :    0.016480
  11 H :    0.011231
  12 C :   -0.030768
  13 H :    0.030715
  14 H :    0.017336
  15 H :    0.028026
  16 S :    0.094055
  17 C :   -0.069676
  18 C :   -0.052275
  19 C :   -0.088923
  20 C :   -0.160276
  21 H :    0.017089
  22 C :    0.104979
  23 H :    0.017757
  24 H :    0.053201
  25 C :   -0.079809
  26 H :    0.010756
  27 H :    0.039054
  28 C :   -0.028405
  29 H :    0.040289
  30 H :    0.032092
  31 H :    0.022421
  32 H :    0.059722
  33 H :    0.061925
Sum of atomic charges:    0.0000000

LOEWDIN ATOMIC CHARGES
----------------------
   0 S :    0.410918
   1 C :   -0.184382
   2 C :   -0.067774
   3 C :   -0.073586
   4 C :   -0.218883
   5 H :    0.038552
   6 C :   -0.026889
   7 H :    0.024980
   8 H :    0.033792
   9 C :   -0.025750
  10 H :    0.017186
  11 H :    0.018183
  12 C :   -0.062696
  13 H :    0.027851
  14 H :    0.019286
  15 H :    0.026966
  16 S :    0.394867
  17 C :   -0.197572
  18 C :   -0.085523
  19 C :   -0.045912
  20 C :   -0.186735
  21 H :    0.029191
  22 C :   -0.030696
  23 H :    0.024884
  24 H :    0.047214
  25 C :   -0.043503
  26 H :    0.024043
  27 H :    0.031505
  28 C :   -0.069205
  29 H :    0.026662
  30 H :    0.027864
  31 H :    0.024992
  32 H :    0.032945
  33 H :    0.037223

  Mayer bond orders larger than 0.100000
B(  0-S ,  1-C ) :   1.1309 B(  0-S ,  4-C ) :   1.1544 B(  1-C ,  2-C ) :   1.6106
B(  1-C , 32-H ) :   0.9755 B(  2-C ,  3-C ) :   1.2351 B(  2-C ,  6-C ) :   1.0190
B(  3-C ,  4-C ) :   1.5862 B(  3-C ,  5-H ) :   0.9882 B(  4-C , 20-C ) :   1.0062
B(  6-C ,  7-H ) :   0.9525 B(  6-C ,  8-H ) :   0.9432 B(  6-C ,  9-C ) :   1.0427
B(  9-C , 10-H ) :   0.9607 B(  9-C , 11-H ) :   0.9567 B(  9-C , 12-C ) :   1.0773
B( 12-C , 13-H ) :   0.9759 B( 12-C , 14-H ) :   0.9734 B( 12-C , 15-H ) :   0.9761
B( 16-S , 17-C ) :   1.1591 B( 16-S , 20-C ) :   1.1187 B( 17-C , 18-C ) :   1.6322
B( 17-C , 33-H ) :   0.9593 B( 18-C , 19-C ) :   1.2115 B( 18-C , 21-H ) :   0.9871
B( 19-C , 20-C ) :   1.6409 B( 19-C , 22-C ) :   1.0245 B( 22-C , 23-H ) :   0.9346
B( 22-C , 24-H ) :   0.9344 B( 22-C , 25-C ) :   1.0381 B( 25-C , 26-H ) :   0.9517
B( 25-C , 27-H ) :   0.9585 B( 25-C , 28-C ) :   1.0644 B( 28-C , 29-H ) :   0.9776
B( 28-C , 30-H ) :   0.9731 B( 28-C , 31-H ) :   0.9742

Dispersion correction           -0.014162749
FINAL SINGLE POINT ENERGY     -1339.861098681970

DIPOLE MOMENT
-------------
                                X             Y             Z
Electronic contribution:    -21.31434     -18.82828      -6.35115
Nuclear contribution   :     21.76958      19.34204       6.65218
                        -----------------------------------------
Total Dipole Moment    :      0.45524       0.51376       0.30102
                        -----------------------------------------
Magnitude (a.u.)       :      0.74954
Magnitude (Debye)      :      1.90517

Rotational constants in cm-1:     0.017608     0.008572     0.006823
Rotational constants in MHz :   527.861787   256.971908   204.548264

                             ****ORCA TERMINATED NORMALLY****
TOTAL RUN TIME: 0 days 0 hours 0 minutes 33 seconds 455 msec
