                         Program Version 4.2.1 -  RELEASE  -
|  1> ! wB97X-D3 SP def2-SVP
|  2> %pal
|  3> nprocs 16
|  4> end
|  5>
|  6> * xyz 0 1
|  7> S 	 -7.63262 	 63.0267 	 52.5763
|  8> C 	 -7.64562 	 61.2957 	 52.6643
|  9> C 	 -8.5963 	 60.8379 	 53.5603
| 10> C 	 -9.39637 	 61.8685 	 54.1344
| 11> C 	 -9.01406 	 63.075 	 53.6469
| 12> H 	 -10.1971 	 61.6563 	 54.7917
| 13> C 	 -8.79148 	 59.3946 	 53.9723
| 14> H 	 -8.86947 	 58.6908 	 53.1604
| 15> H 	 -9.74247 	 59.4216 	 54.5309
| 16> C 	 -7.73049 	 59.0193 	 54.9927
| 17> H 	 -6.77887 	 58.8589 	 54.4624
| 18> H 	 -7.55294 	 59.7943 	 55.7726
| 19> C 	 -8.14325 	 57.8018 	 55.8523
| 20> H 	 -8.2547 	 56.901 	 55.3065
| 21> H 	 -7.34579 	 57.5028 	 56.5568
| 22> H 	 -8.95748 	 58.0785 	 56.5054
| 23> S 	 -9.84366 	 65.4896 	 52.5232
| 24> C 	 -10.5372 	 66.7503 	 53.5787
| 25> C 	 -10.6758 	 66.2436 	 54.8978
| 26> C 	 -10.1508 	 64.9054 	 55.0643
| 27> C 	 -9.69733 	 64.3505 	 53.8911
| 28> H 	 -11.0234 	 67.0266 	 55.6076
| 29> C 	 -9.99734 	 64.315 	 56.4894
| 30> H 	 -10.0345 	 63.2281 	 56.4685
| 31> H 	 -10.9028 	 64.492 	 57.0956
| 32> C 	 -8.90383 	 64.8677 	 57.3457
| 33> H 	 -9.19499 	 64.7811 	 58.4054
| 34> H 	 -8.81339 	 65.924 	 57.2054
| 35> C 	 -7.65077 	 64.0107 	 57.2547
| 36> H 	 -7.9197 	 63.0539 	 57.633
| 37> H 	 -6.82693 	 64.435 	 57.8667
| 38> H 	 -7.28826 	 63.8817 	 56.229
| 39> H 	 -7.02842 	 60.5747 	 52.1478
| 40> H 	 -10.8544 	 67.7503 	 53.2482
| 41> *
| 42>
| 43>                          ****END OF INPUT****

CARTESIAN COORDINATES (ANGSTROEM)
---------------------------------
  S     -7.632620   63.026700   52.576300
  C     -7.645620   61.295700   52.664300
  C     -8.596300   60.837900   53.560300
  C     -9.396370   61.868500   54.134400
  C     -9.014060   63.075000   53.646900
  H    -10.197100   61.656300   54.791700
  C     -8.791480   59.394600   53.972300
  H     -8.869470   58.690800   53.160400
  H     -9.742470   59.421600   54.530900
  C     -7.730490   59.019300   54.992700
  H     -6.778870   58.858900   54.462400
  H     -7.552940   59.794300   55.772600
  C     -8.143250   57.801800   55.852300
  H     -8.254700   56.901000   55.306500
  H     -7.345790   57.502800   56.556800
  H     -8.957480   58.078500   56.505400
  S     -9.843660   65.489600   52.523200
  C    -10.537200   66.750300   53.578700
  C    -10.675800   66.243600   54.897800
  C    -10.150800   64.905400   55.064300
  C     -9.697330   64.350500   53.891100
  H    -11.023400   67.026600   55.607600
  C     -9.997340   64.315000   56.489400
  H    -10.034500   63.228100   56.468500
  H    -10.902800   64.492000   57.095600
  C     -8.903830   64.867700   57.345700
  H     -9.194990   64.781100   58.405400
  H     -8.813390   65.924000   57.205400
  C     -7.650770   64.010700   57.254700
  H     -7.919700   63.053900   57.633000
  H     -6.826930   64.435000   57.866700
  H     -7.288260   63.881700   56.229000
  H     -7.028420   60.574700   52.147800
  H    -10.854400   67.750300   53.248200

 Total Charge           Charge          ....    0
 Multiplicity           Mult            ....    1
 Number of Electrons    NEL             ....  134
 Basis Dimension        Dim             ....  322

ORBITAL ENERGIES
----------------

  NO   OCC          E(Eh)            E(eV)
   0   2.0000     -88.970667     -2421.0149
   1   2.0000     -88.965660     -2420.8787
   2   2.0000     -10.329872      -281.0901
   3   2.0000     -10.328987      -281.0660
   4   2.0000     -10.325802      -280.9794
   5   2.0000     -10.309202      -280.5277
   6   2.0000     -10.309173      -280.5268
   7   2.0000     -10.303597      -280.3751
   8   2.0000     -10.296589      -280.1844
   9   2.0000     -10.290766      -280.0260
  10   2.0000     -10.290699      -280.0242
  11   2.0000     -10.289595      -279.9941
  12   2.0000     -10.289302      -279.9861
  13   2.0000     -10.279554      -279.7209
  14   2.0000     -10.275499      -279.6105
  15   2.0000     -10.270610      -279.4775
  16   2.0000      -8.085319      -220.0127
  17   2.0000      -8.079223      -219.8468
  18   2.0000      -6.043846      -164.4614
  19   2.0000      -6.039899      -164.3540
  20   2.0000      -6.037860      -164.2985
  21   2.0000      -6.036004      -164.2480
  22   2.0000      -6.033854      -164.1895
  23   2.0000      -6.029954      -164.0834
  24   2.0000      -1.007757       -27.4225
  25   2.0000      -0.978391       -26.6234
  26   2.0000      -0.914814       -24.8934
  27   2.0000      -0.911175       -24.7943
  28   2.0000      -0.865485       -23.5510
  29   2.0000      -0.855464       -23.2784
  30   2.0000      -0.842265       -22.9192
  31   2.0000      -0.813209       -22.1285
  32   2.0000      -0.781568       -21.2676
  33   2.0000      -0.772284       -21.0149
  34   2.0000      -0.704446       -19.1690
  35   2.0000      -0.699938       -19.0463
  36   2.0000      -0.692622       -18.8472
  37   2.0000      -0.658101       -17.9078
  38   2.0000      -0.638967       -17.3872
  39   2.0000      -0.627228       -17.0677
  40   2.0000      -0.597912       -16.2700
  41   2.0000      -0.571452       -15.5500
  42   2.0000      -0.561685       -15.2842
  43   2.0000      -0.551441       -15.0055
  44   2.0000      -0.534666       -14.5490
  45   2.0000      -0.523412       -14.2428
  46   2.0000      -0.520886       -14.1740
  47   2.0000      -0.510875       -13.9016
  48   2.0000      -0.503869       -13.7110
  49   2.0000      -0.499389       -13.5891
  50   2.0000      -0.494622       -13.4593
  51   2.0000      -0.476634       -12.9699
  52   2.0000      -0.474248       -12.9050
  53   2.0000      -0.464214       -12.6319
  54   2.0000      -0.457794       -12.4572
  55   2.0000      -0.454108       -12.3569
  56   2.0000      -0.441026       -12.0009
  57   2.0000      -0.433197       -11.7879
  58   2.0000      -0.429992       -11.7007
  59   2.0000      -0.423514       -11.5244
  60   2.0000      -0.419917       -11.4265
  61   2.0000      -0.416865       -11.3435
  62   2.0000      -0.404070       -10.9953
  63   2.0000      -0.352700        -9.5975
  64   2.0000      -0.333069        -9.0633
  65   2.0000      -0.329852        -8.9757
  66   2.0000      -0.288730        -7.8567
  67   0.0000       0.026407         0.7186
  68   0.0000       0.073408         1.9975
  69   0.0000       0.105996         2.8843
  70   0.0000       0.117688         3.2024
  71   0.0000       0.133382         3.6295

MULLIKEN ATOMIC CHARGES
-----------------------
   0 S :    0.128233
   1 C :   -0.112103
   2 C :   -0.113068
   3 C :    0.029309
   4 C :   -0.127159
   5 H :    0.008358
   6 C :    0.093516
   7 H :    0.034704
   8 H :    0.007594
   9 C :   -0.094949
  10 H :    0.029830
  11 H :    0.038036
  12 C :   -0.043034
  13 H :    0.024400
  14 H :    0.025458
  15 H :    0.033743
  16 S :    0.092585
  17 C :   -0.124979
  18 C :   -0.051142
  19 C :   -0.019683
  20 C :   -0.139398
  21 H :    0.041370
  22 C :    0.067469
  23 H :   -0.004606
  24 H :    0.018192
  25 C :   -0.045618
  26 H :    0.020134
  27 H :    0.021549
  28 C :   -0.034983
  29 H :    0.015263
  30 H :    0.034863
  31 H :    0.038944
  32 H :    0.036784
  33 H :    0.070388
Sum of atomic charges:    0.0000000

LOEWDIN ATOMIC CHARGES
----------------------
   0 S :    0.416848
   1 C :   -0.210993
   2 C :   -0.055475
   3 C :   -0.058527
   4 C :   -0.183565
   5 H :    0.027565
   6 C :   -0.029812
   7 H :    0.029319
   8 H :    0.029091
   9 C :   -0.040342
  10 H :    0.022379
  11 H :    0.030969
  12 C :   -0.069026
  13 H :    0.017754
  14 H :    0.029412
  15 H :    0.024275
  16 S :    0.372126
  17 C :   -0.181942
  18 C :   -0.074923
  19 C :   -0.057247
  20 C :   -0.183879
  21 H :    0.040503
  22 C :   -0.033972
  23 H :    0.023618
  24 H :    0.035758
  25 C :   -0.041077
  26 H :    0.026910
  27 H :    0.020457
  28 C :   -0.059730
  29 H :    0.017883
  30 H :    0.027394
  31 H :    0.025834
  32 H :    0.027837
  33 H :    0.034574

  Mayer bond orders larger than 0.100000
B(  0-S ,  1-C ) :   1.1190 B(  0-S ,  4-C ) :   1.1527 B(  1-C ,  2-C ) :   1.6232
B(  1-C , 32-H ) :   0.9674 B(  2-C ,  3-C ) :   1.2495 B(  2-C ,  6-C ) :   1.0264
B(  3-C ,  4-C ) :   1.5679 B(  3-C ,  5-H ) :   0.9969 B(  4-C , 20-C ) :   1.0400
B(  6-C ,  7-H ) :   0.9389 B(  6-C ,  8-H ) :   0.9403 B(  6-C ,  9-C ) :   1.0570
B(  9-C , 10-H ) :   0.9553 B(  9-C , 11-H ) :   0.9590 B(  9-C , 12-C ) :   1.0835
B( 12-C , 13-H ) :   0.9739 B( 12-C , 14-H ) :   0.9722 B( 12-C , 15-H ) :   0.9758
B( 16-S , 17-C ) :   1.1408 B( 16-S , 20-C ) :   1.1228 B( 17-C , 18-C ) :   1.6273
B( 17-C , 33-H ) :   0.9650 B( 18-C , 19-C ) :   1.2100 B( 18-C , 21-H ) :   0.9832
B( 19-C , 20-C ) :   1.6224 B( 19-C , 22-C ) :   1.0455 B( 22-C , 23-H ) :   0.9313
B( 22-C , 24-H ) :   0.9303 B( 22-C , 25-C ) :   1.0739 B( 25-C , 26-H ) :   0.9531
B( 25-C , 27-H ) :   0.9522 B( 25-C , 28-C ) :   1.0805 B( 28-C , 29-H ) :   0.9732
B( 28-C , 30-H ) :   0.9730 B( 28-C , 31-H ) :   0.9778

Dispersion correction           -0.014755339
FINAL SINGLE POINT ENERGY     -1339.879925467445

DIPOLE MOMENT
-------------
                                X             Y             Z
Electronic contribution:     -3.53795      18.18340     -23.55391
Nuclear contribution   :      3.45008     -18.48263      24.15392
                        -----------------------------------------
Total Dipole Moment    :     -0.08787      -0.29924       0.60001
                        -----------------------------------------
Magnitude (a.u.)       :      0.67622
Magnitude (Debye)      :      1.71882

Rotational constants in cm-1:     0.020631     0.008781     0.006981
Rotational constants in MHz :   618.513339   263.242305   209.277539

                             ****ORCA TERMINATED NORMALLY****
TOTAL RUN TIME: 0 days 0 hours 0 minutes 34 seconds 968 msec
