                         Program Version 4.2.1 -  RELEASE  -
|  1> ! wB97X-D3 SP def2-SVP
|  2> %pal
|  3> nprocs 16
|  4> end
|  5>
|  6> * xyz 0 1
|  7> S 	 0.916742 	 -13.9773 	 75.9765
|  8> C 	 2.16573 	 -12.912 	 75.5827
|  9> C 	 2.30807 	 -11.9425 	 76.5242
| 10> C 	 1.49668 	 -12.1468 	 77.6799
| 11> C 	 0.568105 	 -13.0892 	 77.4153
| 12> H 	 1.49909 	 -11.4798 	 78.5053
| 13> C 	 3.35369 	 -10.8294 	 76.3212
| 14> H 	 2.84957 	 -9.84846 	 76.4112
| 15> H 	 3.75915 	 -11.0763 	 75.3186
| 16> C 	 4.52656 	 -11.0031 	 77.2743
| 17> H 	 4.06598 	 -10.7233 	 78.2093
| 18> H 	 4.95602 	 -11.9989 	 77.2488
| 19> C 	 5.75412 	 -10.0699 	 76.986
| 20> H 	 6.16716 	 -10.4084 	 76.0021
| 21> H 	 5.44832 	 -9.01557 	 76.8453
| 22> H 	 6.44015 	 -10.1415 	 77.8232
| 23> S 	 -2.1488 	 -13.3923 	 77.6502
| 24> C 	 -2.84992 	 -13.76 	 79.2117
| 25> C 	 -1.85806 	 -14.0029 	 80.1157
| 26> C 	 -0.564499 	 -13.7186 	 79.6472
| 27> C 	 -0.55427 	 -13.4461 	 78.3094
| 28> H 	 -2.19516 	 -14.2513 	 81.1265
| 29> C 	 0.711289 	 -13.9208 	 80.493
| 30> H 	 1.59525 	 -13.9762 	 79.8672
| 31> H 	 0.711168 	 -14.889 	 80.9996
| 32> C 	 0.930344 	 -12.9047 	 81.5404
| 33> H 	 0.286491 	 -13.1395 	 82.4192
| 34> H 	 0.520605 	 -11.9465 	 81.2219
| 35> C 	 2.31708 	 -12.843 	 82.1801
| 36> H 	 2.34565 	 -12.0675 	 82.9813
| 37> H 	 3.07562 	 -12.6924 	 81.3979
| 38> H 	 2.49964 	 -13.8379 	 82.6664
| 39> H 	 2.73717 	 -13.0868 	 74.6912
| 40> H 	 -3.92306 	 -13.9454 	 79.4349
| 41> *
| 42>
| 43>                          ****END OF INPUT****

CARTESIAN COORDINATES (ANGSTROEM)
---------------------------------
  S      0.916742  -13.977300   75.976500
  C      2.165730  -12.912000   75.582700
  C      2.308070  -11.942500   76.524200
  C      1.496680  -12.146800   77.679900
  C      0.568105  -13.089200   77.415300
  H      1.499090  -11.479800   78.505300
  C      3.353690  -10.829400   76.321200
  H      2.849570   -9.848460   76.411200
  H      3.759150  -11.076300   75.318600
  C      4.526560  -11.003100   77.274300
  H      4.065980  -10.723300   78.209300
  H      4.956020  -11.998900   77.248800
  C      5.754120  -10.069900   76.986000
  H      6.167160  -10.408400   76.002100
  H      5.448320   -9.015570   76.845300
  H      6.440150  -10.141500   77.823200
  S     -2.148800  -13.392300   77.650200
  C     -2.849920  -13.760000   79.211700
  C     -1.858060  -14.002900   80.115700
  C     -0.564499  -13.718600   79.647200
  C     -0.554270  -13.446100   78.309400
  H     -2.195160  -14.251300   81.126500
  C      0.711289  -13.920800   80.493000
  H      1.595250  -13.976200   79.867200
  H      0.711168  -14.889000   80.999600
  C      0.930344  -12.904700   81.540400
  H      0.286491  -13.139500   82.419200
  H      0.520605  -11.946500   81.221900
  C      2.317080  -12.843000   82.180100
  H      2.345650  -12.067500   82.981300
  H      3.075620  -12.692400   81.397900
  H      2.499640  -13.837900   82.666400
  H      2.737170  -13.086800   74.691200
  H     -3.923060  -13.945400   79.434900

 Total Charge           Charge          ....    0
 Multiplicity           Mult            ....    1
 Number of Electrons    NEL             ....  134
 Basis Dimension        Dim             ....  322

ORBITAL ENERGIES
----------------

  NO   OCC          E(Eh)            E(eV)
   0   2.0000     -88.963992     -2420.8333
   1   2.0000     -88.963327     -2420.8152
   2   2.0000     -10.325119      -280.9608
   3   2.0000     -10.322235      -280.8823
   4   2.0000     -10.315310      -280.6939
   5   2.0000     -10.303842      -280.3818
   6   2.0000     -10.299376      -280.2603
   7   2.0000     -10.295697      -280.1602
   8   2.0000     -10.294039      -280.1150
   9   2.0000     -10.290029      -280.0059
  10   2.0000     -10.289687      -279.9966
  11   2.0000     -10.285853      -279.8923
  12   2.0000     -10.285682      -279.8876
  13   2.0000     -10.284507      -279.8557
  14   2.0000     -10.283868      -279.8383
  15   2.0000     -10.279740      -279.7259
  16   2.0000      -8.080060      -219.8696
  17   2.0000      -8.079255      -219.8477
  18   2.0000      -6.038370      -164.3124
  19   2.0000      -6.037763      -164.2959
  20   2.0000      -6.034319      -164.2022
  21   2.0000      -6.033647      -164.1839
  22   2.0000      -6.030884      -164.1087
  23   2.0000      -6.030029      -164.0854
  24   2.0000      -1.018331       -27.7102
  25   2.0000      -0.995731       -27.0952
  26   2.0000      -0.913662       -24.8620
  27   2.0000      -0.911187       -24.7947
  28   2.0000      -0.872418       -23.7397
  29   2.0000      -0.853477       -23.2243
  30   2.0000      -0.847321       -23.0568
  31   2.0000      -0.819634       -22.3034
  32   2.0000      -0.781307       -21.2605
  33   2.0000      -0.770102       -20.9555
  34   2.0000      -0.703927       -19.1548
  35   2.0000      -0.690496       -18.7893
  36   2.0000      -0.687179       -18.6991
  37   2.0000      -0.660271       -17.9669
  38   2.0000      -0.646525       -17.5928
  39   2.0000      -0.625230       -17.0134
  40   2.0000      -0.598716       -16.2919
  41   2.0000      -0.580118       -15.7858
  42   2.0000      -0.567155       -15.4331
  43   2.0000      -0.558942       -15.2096
  44   2.0000      -0.528580       -14.3834
  45   2.0000      -0.523982       -14.2583
  46   2.0000      -0.518536       -14.1101
  47   2.0000      -0.513192       -13.9647
  48   2.0000      -0.506209       -13.7746
  49   2.0000      -0.496928       -13.5221
  50   2.0000      -0.489975       -13.3329
  51   2.0000      -0.486110       -13.2277
  52   2.0000      -0.471125       -12.8200
  53   2.0000      -0.467091       -12.7102
  54   2.0000      -0.464498       -12.6396
  55   2.0000      -0.451594       -12.2885
  56   2.0000      -0.445406       -12.1201
  57   2.0000      -0.439453       -11.9581
  58   2.0000      -0.434695       -11.8287
  59   2.0000      -0.422517       -11.4973
  60   2.0000      -0.416289       -11.3278
  61   2.0000      -0.410090       -11.1591
  62   2.0000      -0.402807       -10.9609
  63   2.0000      -0.350633        -9.5412
  64   2.0000      -0.333331        -9.0704
  65   2.0000      -0.331384        -9.0174
  66   2.0000      -0.297287        -8.0896
  67   0.0000       0.041199         1.1211
  68   0.0000       0.075262         2.0480
  69   0.0000       0.117768         3.2046
  70   0.0000       0.125998         3.4286
  71   0.0000       0.130300         3.5456

MULLIKEN ATOMIC CHARGES
-----------------------
   0 S :    0.123068
   1 C :   -0.130333
   2 C :   -0.100353
   3 C :    0.036128
   4 C :   -0.138368
   5 H :    0.003200
   6 C :    0.076572
   7 H :    0.046736
   8 H :    0.009136
   9 C :   -0.097558
  10 H :    0.021958
  11 H :    0.038102
  12 C :   -0.049350
  13 H :    0.034619
  14 H :    0.029151
  15 H :    0.044603
  16 S :    0.111400
  17 C :   -0.112649
  18 C :   -0.037742
  19 C :   -0.010744
  20 C :   -0.163315
  21 H :    0.021136
  22 C :    0.090184
  23 H :    0.018435
  24 H :    0.021831
  25 C :   -0.108997
  26 H :    0.020868
  27 H :    0.024084
  28 C :   -0.054248
  29 H :    0.046571
  30 H :    0.036212
  31 H :    0.033598
  32 H :    0.047053
  33 H :    0.069016
Sum of atomic charges:    0.0000000

LOEWDIN ATOMIC CHARGES
----------------------
   0 S :    0.436463
   1 C :   -0.216249
   2 C :   -0.062317
   3 C :   -0.058898
   4 C :   -0.193741
   5 H :    0.028222
   6 C :   -0.028984
   7 H :    0.034715
   8 H :    0.027556
   9 C :   -0.041693
  10 H :    0.017389
  11 H :    0.026994
  12 C :   -0.066568
  13 H :    0.027506
  14 H :    0.023791
  15 H :    0.026299
  16 S :    0.413954
  17 C :   -0.193982
  18 C :   -0.072734
  19 C :   -0.060126
  20 C :   -0.200568
  21 H :    0.034600
  22 C :   -0.030572
  23 H :    0.026426
  24 H :    0.032192
  25 C :   -0.055842
  26 H :    0.025124
  27 H :    0.017906
  28 C :   -0.065286
  29 H :    0.032403
  30 H :    0.022132
  31 H :    0.029808
  32 H :    0.024550
  33 H :    0.039531

  Mayer bond orders larger than 0.100000
B(  0-S ,  1-C ) :   1.1435 B(  0-S ,  4-C ) :   1.1788 B(  1-C ,  2-C ) :   1.6191
B(  1-C , 32-H ) :   0.9701 B(  2-C ,  3-C ) :   1.2376 B(  2-C ,  6-C ) :   1.0188
B(  3-C ,  4-C ) :   1.5740 B(  3-C ,  5-H ) :   1.0048 B(  4-C , 20-C ) :   0.9894
B(  6-C ,  7-H ) :   0.9374 B(  6-C ,  8-H ) :   0.9407 B(  6-C ,  9-C ) :   1.0649
B(  9-C , 10-H ) :   0.9566 B(  9-C , 11-H ) :   0.9598 B(  9-C , 12-C ) :   1.0793
B( 12-C , 13-H ) :   0.9765 B( 12-C , 14-H ) :   0.9750 B( 12-C , 15-H ) :   0.9762
B( 16-S , 17-C ) :   1.1473 B( 16-S , 20-C ) :   1.1585 B( 17-C , 18-C ) :   1.6277
B( 17-C , 20-C ) :   0.1002 B( 17-C , 33-H ) :   0.9613 B( 18-C , 19-C ) :   1.2314
B( 18-C , 21-H ) :   0.9883 B( 19-C , 20-C ) :   1.6124 B( 19-C , 22-C ) :   1.0404
B( 22-C , 23-H ) :   0.9397 B( 22-C , 24-H ) :   0.9324 B( 22-C , 25-C ) :   1.0527
B( 25-C , 26-H ) :   0.9489 B( 25-C , 27-H ) :   0.9584 B( 25-C , 28-C ) :   1.0831
B( 28-C , 29-H ) :   0.9741 B( 28-C , 30-H ) :   0.9759 B( 28-C , 31-H ) :   0.9713

Dispersion correction           -0.014121699
FINAL SINGLE POINT ENERGY     -1339.885958808030

DIPOLE MOMENT
-------------
                                X             Y             Z
Electronic contribution:    -24.84976     -11.92962     -15.58430
Nuclear contribution   :     25.20294      12.09303      15.99104
                        -----------------------------------------
Total Dipole Moment    :      0.35318       0.16341       0.40674
                        -----------------------------------------
Magnitude (a.u.)       :      0.56292
Magnitude (Debye)      :      1.43082

Rotational constants in cm-1:     0.017971     0.009049     0.006539
Rotational constants in MHz :   538.759701   271.292787   196.019602

                             ****ORCA TERMINATED NORMALLY****
TOTAL RUN TIME: 0 days 0 hours 0 minutes 33 seconds 567 msec
