                         Program Version 4.2.1 -  RELEASE  -
|  1> ! wB97X-D3 SP def2-SVP
|  2> %pal
|  3> nprocs 16
|  4> end
|  5>
|  6> * xyz 0 1
|  7> S 	 -89.5002 	 50.9564 	 132.127
|  8> C 	 -88.6908 	 49.3683 	 132.393
|  9> C 	 -87.3442 	 49.449 	 132.147
| 10> C 	 -87.0208 	 50.6372 	 131.48
| 11> C 	 -88.0911 	 51.515 	 131.426
| 12> H 	 -85.9633 	 50.9385 	 131.09
| 13> C 	 -86.3394 	 48.3974 	 132.421
| 14> H 	 -85.4523 	 48.6797 	 131.933
| 15> H 	 -86.7854 	 47.5353 	 131.988
| 16> C 	 -85.9892 	 48.1919 	 133.936
| 17> H 	 -86.852 	 47.9391 	 134.591
| 18> H 	 -85.375 	 47.2409 	 133.984
| 19> C 	 -85.1737 	 49.2791 	 134.539
| 20> H 	 -85.0761 	 49.1591 	 135.643
| 21> H 	 -84.1926 	 49.4265 	 134.13
| 22> H 	 -85.7622 	 50.1617 	 134.494
| 23> S 	 -87.0761 	 54.0922 	 131.5
| 24> C 	 -87.5803 	 55.1544 	 130.285
| 25> C 	 -88.6782 	 54.7181 	 129.537
| 26> C 	 -88.9209 	 53.2996 	 129.744
| 27> C 	 -88.1044 	 52.8155 	 130.806
| 28> H 	 -89.0758 	 55.413 	 128.741
| 29> C 	 -90.0161 	 52.5941 	 129.016
| 30> H 	 -90.0594 	 51.6122 	 129.501
| 31> H 	 -89.6078 	 52.4783 	 127.941
| 32> C 	 -91.3877 	 53.2303 	 129.008
| 33> H 	 -91.1836 	 54.3389 	 128.938
| 34> H 	 -91.919 	 53.0977 	 129.856
| 35> C 	 -92.3128 	 52.7601 	 127.838
| 36> H 	 -93.3223 	 53.1897 	 127.874
| 37> H 	 -92.5105 	 51.7114 	 127.762
| 38> H 	 -92.0397 	 52.9967 	 126.832
| 39> H 	 -89.0292 	 48.456 	 132.774
| 40> H 	 -87.3519 	 56.1952 	 130.214
| 41> *
| 42>
| 43>                          ****END OF INPUT****

CARTESIAN COORDINATES (ANGSTROEM)
---------------------------------
  S    -89.500200   50.956400  132.127000
  C    -88.690800   49.368300  132.393000
  C    -87.344200   49.449000  132.147000
  C    -87.020800   50.637200  131.480000
  C    -88.091100   51.515000  131.426000
  H    -85.963300   50.938500  131.090000
  C    -86.339400   48.397400  132.421000
  H    -85.452300   48.679700  131.933000
  H    -86.785400   47.535300  131.988000
  C    -85.989200   48.191900  133.936000
  H    -86.852000   47.939100  134.591000
  H    -85.375000   47.240900  133.984000
  C    -85.173700   49.279100  134.539000
  H    -85.076100   49.159100  135.643000
  H    -84.192600   49.426500  134.130000
  H    -85.762200   50.161700  134.494000
  S    -87.076100   54.092200  131.500000
  C    -87.580300   55.154400  130.285000
  C    -88.678200   54.718100  129.537000
  C    -88.920900   53.299600  129.744000
  C    -88.104400   52.815500  130.806000
  H    -89.075800   55.413000  128.741000
  C    -90.016100   52.594100  129.016000
  H    -90.059400   51.612200  129.501000
  H    -89.607800   52.478300  127.941000
  C    -91.387700   53.230300  129.008000
  H    -91.183600   54.338900  128.938000
  H    -91.919000   53.097700  129.856000
  C    -92.312800   52.760100  127.838000
  H    -93.322300   53.189700  127.874000
  H    -92.510500   51.711400  127.762000
  H    -92.039700   52.996700  126.832000
  H    -89.029200   48.456000  132.774000
  H    -87.351900   56.195200  130.214000

 Total Charge           Charge          ....    0
 Multiplicity           Mult            ....    1
 Number of Electrons    NEL             ....  134
 Basis Dimension        Dim             ....  322

ORBITAL ENERGIES
----------------

  NO   OCC          E(Eh)            E(eV)
   0   2.0000     -88.971694     -2421.0429
   1   2.0000     -88.968058     -2420.9439
   2   2.0000     -10.325146      -280.9615
   3   2.0000     -10.319185      -280.7993
   4   2.0000     -10.310443      -280.5614
   5   2.0000     -10.307681      -280.4863
   6   2.0000     -10.306141      -280.4444
   7   2.0000     -10.296974      -280.1949
   8   2.0000     -10.293783      -280.1081
   9   2.0000     -10.291926      -280.0576
  10   2.0000     -10.291901      -280.0569
  11   2.0000     -10.291558      -280.0475
  12   2.0000     -10.285338      -279.8783
  13   2.0000     -10.285156      -279.8733
  14   2.0000     -10.274011      -279.5701
  15   2.0000     -10.270997      -279.4880
  16   2.0000      -8.086413      -220.0425
  17   2.0000      -8.083131      -219.9532
  18   2.0000      -6.044850      -164.4887
  19   2.0000      -6.041470      -164.3968
  20   2.0000      -6.040947      -164.3825
  21   2.0000      -6.037711      -164.2945
  22   2.0000      -6.037216      -164.2810
  23   2.0000      -6.033950      -164.1921
  24   2.0000      -1.011658       -27.5286
  25   2.0000      -0.984561       -26.7913
  26   2.0000      -0.919393       -25.0179
  27   2.0000      -0.909971       -24.7616
  28   2.0000      -0.870920       -23.6989
  29   2.0000      -0.848997       -23.1024
  30   2.0000      -0.847442       -23.0601
  31   2.0000      -0.809770       -22.0350
  32   2.0000      -0.789945       -21.4955
  33   2.0000      -0.773625       -21.0514
  34   2.0000      -0.714266       -19.4362
  35   2.0000      -0.703163       -19.1340
  36   2.0000      -0.696113       -18.9422
  37   2.0000      -0.652966       -17.7681
  38   2.0000      -0.628138       -17.0925
  39   2.0000      -0.609835       -16.5945
  40   2.0000      -0.591164       -16.0864
  41   2.0000      -0.574178       -15.6242
  42   2.0000      -0.562470       -15.3056
  43   2.0000      -0.554241       -15.0817
  44   2.0000      -0.545717       -14.8497
  45   2.0000      -0.519609       -14.1393
  46   2.0000      -0.516809       -14.0631
  47   2.0000      -0.509790       -13.8721
  48   2.0000      -0.508047       -13.8247
  49   2.0000      -0.497059       -13.5257
  50   2.0000      -0.481874       -13.1125
  51   2.0000      -0.473519       -12.8851
  52   2.0000      -0.470209       -12.7950
  53   2.0000      -0.464118       -12.6293
  54   2.0000      -0.457916       -12.4605
  55   2.0000      -0.451961       -12.2985
  56   2.0000      -0.448737       -12.2108
  57   2.0000      -0.441614       -12.0169
  58   2.0000      -0.437984       -11.9182
  59   2.0000      -0.429211       -11.6794
  60   2.0000      -0.425150       -11.5689
  61   2.0000      -0.411523       -11.1981
  62   2.0000      -0.409367       -11.1395
  63   2.0000      -0.335278        -9.1234
  64   2.0000      -0.328627        -8.9424
  65   2.0000      -0.328132        -8.9289
  66   2.0000      -0.294016        -8.0006
  67   0.0000       0.032623         0.8877
  68   0.0000       0.067533         1.8377
  69   0.0000       0.103913         2.8276
  70   0.0000       0.114666         3.1202
  71   0.0000       0.120247         3.2721

MULLIKEN ATOMIC CHARGES
-----------------------
   0 S :    0.138974
   1 C :   -0.098533
   2 C :   -0.120034
   3 C :    0.002729
   4 C :   -0.185505
   5 H :    0.045021
   6 C :    0.137633
   7 H :    0.001633
   8 H :    0.027515
   9 C :   -0.101281
  10 H :    0.032691
  11 H :    0.028782
  12 C :   -0.031849
  13 H :    0.031633
  14 H :    0.032965
  15 H :    0.026925
  16 S :    0.134338
  17 C :   -0.075701
  18 C :   -0.090956
  19 C :   -0.033276
  20 C :   -0.174685
  21 H :    0.051018
  22 C :    0.061464
  23 H :    0.024059
  24 H :    0.050511
  25 C :   -0.019342
  26 H :    0.030436
  27 H :    0.009966
  28 C :   -0.051957
  29 H :    0.024779
  30 H :    0.024024
  31 H :    0.014792
  32 H :    0.004665
  33 H :    0.046566
Sum of atomic charges:    0.0000000

LOEWDIN ATOMIC CHARGES
----------------------
   0 S :    0.442609
   1 C :   -0.188236
   2 C :   -0.062080
   3 C :   -0.078271
   4 C :   -0.225730
   5 H :    0.047355
   6 C :   -0.020922
   7 H :    0.024389
   8 H :    0.033498
   9 C :   -0.042738
  10 H :    0.026566
  11 H :    0.026115
  12 C :   -0.068166
  13 H :    0.034084
  14 H :    0.022792
  15 H :    0.023626
  16 S :    0.425076
  17 C :   -0.204326
  18 C :   -0.085249
  19 C :   -0.048804
  20 C :   -0.206049
  21 H :    0.041532
  22 C :   -0.043031
  23 H :    0.022003
  24 H :    0.047066
  25 C :   -0.027044
  26 H :    0.031185
  27 H :    0.012461
  28 C :   -0.069379
  29 H :    0.029346
  30 H :    0.022822
  31 H :    0.019450
  32 H :    0.013755
  33 H :    0.024295

  Mayer bond orders larger than 0.100000
B(  0-S ,  1-C ) :   1.1204 B(  0-S ,  4-C ) :   1.1817 B(  1-C ,  2-C ) :   1.6113
B(  1-C , 32-H ) :   0.9698 B(  2-C ,  3-C ) :   1.2539 B(  2-C ,  6-C ) :   1.0169
B(  3-C ,  4-C ) :   1.5599 B(  3-C ,  5-H ) :   0.9763 B(  4-C , 20-C ) :   1.0239
B(  6-C ,  7-H ) :   0.9361 B(  6-C ,  8-H ) :   0.9307 B(  6-C ,  9-C ) :   1.0658
B(  9-C , 10-H ) :   0.9580 B(  9-C , 11-H ) :   0.9553 B(  9-C , 12-C ) :   1.0844
B( 12-C , 13-H ) :   0.9673 B( 12-C , 14-H ) :   0.9735 B( 12-C , 15-H ) :   0.9731
B( 16-S , 17-C ) :   1.1726 B( 16-S , 20-C ) :   1.1424 B( 17-C , 18-C ) :   1.6274
B( 17-C , 33-H ) :   0.9614 B( 18-C , 19-C ) :   1.2270 B( 18-C , 21-H ) :   0.9696
B( 19-C , 20-C ) :   1.5713 B( 19-C , 22-C ) :   1.0570 B( 22-C , 23-H ) :   0.9198
B( 22-C , 24-H ) :   0.9299 B( 22-C , 25-C ) :   1.0570 B( 25-C , 26-H ) :   0.9568
B( 25-C , 27-H ) :   0.9537 B( 25-C , 28-C ) :   1.0724 B( 28-C , 29-H ) :   0.9744
B( 28-C , 30-H ) :   0.9761 B( 28-C , 31-H ) :   0.9764

Dispersion correction           -0.014166075
FINAL SINGLE POINT ENERGY     -1339.852366385411

DIPOLE MOMENT
-------------
                                X             Y             Z
Electronic contribution:      2.38181      10.24059       3.66214
Nuclear contribution   :     -2.37451     -10.40111      -3.76861
                        -----------------------------------------
Total Dipole Moment    :      0.00729      -0.16052      -0.10647
                        -----------------------------------------
Magnitude (a.u.)       :      0.19276
Magnitude (Debye)      :      0.48995

Rotational constants in cm-1:     0.022900     0.007850     0.006269
Rotational constants in MHz :   686.519269   235.343824   187.941122

                             ****ORCA TERMINATED NORMALLY****
TOTAL RUN TIME: 0 days 0 hours 0 minutes 34 seconds 116 msec
