                         Program Version 4.2.1 -  RELEASE  -
|  1> ! wB97X-D3 SP def2-SVP
|  2> %pal
|  3> nprocs 16
|  4> end
|  5>
|  6> * xyz 0 1
|  7> S 	 -39.1147 	 1.93892 	 99.9054
|  8> C 	 -37.3728 	 1.90287 	 100.136
|  9> C 	 -36.718 	 1.47694 	 98.9915
| 10> C 	 -37.5336 	 1.54555 	 97.8933
| 11> C 	 -38.8651 	 1.72141 	 98.1848
| 12> H 	 -37.2386 	 1.48742 	 96.8874
| 13> C 	 -35.239 	 1.2738 	 98.7869
| 14> H 	 -35.0241 	 1.30936 	 97.6541
| 15> H 	 -35.003 	 0.303941 	 99.2328
| 16> C 	 -34.3041 	 2.32367 	 99.3174
| 17> H 	 -34.2446 	 2.39576 	 100.405
| 18> H 	 -33.2224 	 2.07422 	 99.2937
| 19> C 	 -34.5606 	 3.73198 	 98.8482
| 20> H 	 -35.472 	 4.19033 	 99.1972
| 21> H 	 -33.6382 	 4.3053 	 99.0186
| 22> H 	 -34.6761 	 3.59447 	 97.7984
| 23> S 	 -40.6994 	 3.28564 	 96.907
| 24> C 	 -41.8999 	 2.70555 	 95.7727
| 25> C 	 -41.5438 	 1.3844 	 95.4588
| 26> C 	 -40.4127 	 0.874061 	 96.1676
| 27> C 	 -39.9869 	 1.69695 	 97.1929
| 28> H 	 -42.042 	 0.880435 	 94.6379
| 29> C 	 -39.9788 	 -0.548366 	 95.9919
| 30> H 	 -38.9241 	 -0.822734 	 96.1491
| 31> H 	 -40.1544 	 -0.766024 	 94.9237
| 32> C 	 -40.827 	 -1.63851 	 96.6728
| 33> H 	 -41.848 	 -1.42965 	 96.3063
| 34> H 	 -40.73 	 -1.49188 	 97.7546
| 35> C 	 -40.4323 	 -3.09187 	 96.499
| 36> H 	 -40.1513 	 -3.44326 	 95.485
| 37> H 	 -41.3023 	 -3.75137 	 96.9488
| 38> H 	 -39.4877 	 -3.41827 	 97.0911
| 39> H 	 -36.7793 	 2.01321 	 101.006
| 40> H 	 -42.7768 	 3.31962 	 95.5544
| 41> *
| 42>
| 43>                          ****END OF INPUT****

CARTESIAN COORDINATES (ANGSTROEM)
---------------------------------
  S    -39.114700    1.938920   99.905400
  C    -37.372800    1.902870  100.136000
  C    -36.718000    1.476940   98.991500
  C    -37.533600    1.545550   97.893300
  C    -38.865100    1.721410   98.184800
  H    -37.238600    1.487420   96.887400
  C    -35.239000    1.273800   98.786900
  H    -35.024100    1.309360   97.654100
  H    -35.003000    0.303941   99.232800
  C    -34.304100    2.323670   99.317400
  H    -34.244600    2.395760  100.405000
  H    -33.222400    2.074220   99.293700
  C    -34.560600    3.731980   98.848200
  H    -35.472000    4.190330   99.197200
  H    -33.638200    4.305300   99.018600
  H    -34.676100    3.594470   97.798400
  S    -40.699400    3.285640   96.907000
  C    -41.899900    2.705550   95.772700
  C    -41.543800    1.384400   95.458800
  C    -40.412700    0.874061   96.167600
  C    -39.986900    1.696950   97.192900
  H    -42.042000    0.880435   94.637900
  C    -39.978800   -0.548366   95.991900
  H    -38.924100   -0.822734   96.149100
  H    -40.154400   -0.766024   94.923700
  C    -40.827000   -1.638510   96.672800
  H    -41.848000   -1.429650   96.306300
  H    -40.730000   -1.491880   97.754600
  C    -40.432300   -3.091870   96.499000
  H    -40.151300   -3.443260   95.485000
  H    -41.302300   -3.751370   96.948800
  H    -39.487700   -3.418270   97.091100
  H    -36.779300    2.013210  101.006000
  H    -42.776800    3.319620   95.554400

 Total Charge           Charge          ....    0
 Multiplicity           Mult            ....    1
 Number of Electrons    NEL             ....  134
 Basis Dimension        Dim             ....  322

ORBITAL ENERGIES
----------------

  NO   OCC          E(Eh)            E(eV)
   0   2.0000     -88.974179     -2421.1105
   1   2.0000     -88.957117     -2420.6462
   2   2.0000     -10.329969      -281.0928
   3   2.0000     -10.329672      -281.0847
   4   2.0000     -10.323286      -280.9109
   5   2.0000     -10.313472      -280.6439
   6   2.0000     -10.306856      -280.4638
   7   2.0000     -10.299593      -280.2662
   8   2.0000     -10.299368      -280.2601
   9   2.0000     -10.294861      -280.1374
  10   2.0000     -10.294688      -280.1327
  11   2.0000     -10.289696      -279.9969
  12   2.0000     -10.286380      -279.9066
  13   2.0000     -10.284862      -279.8653
  14   2.0000     -10.283675      -279.8330
  15   2.0000     -10.270525      -279.4752
  16   2.0000      -8.088144      -220.0896
  17   2.0000      -8.072253      -219.6572
  18   2.0000      -6.046616      -164.5368
  19   2.0000      -6.042790      -164.4327
  20   2.0000      -6.038944      -164.3280
  21   2.0000      -6.030678      -164.1031
  22   2.0000      -6.026574      -163.9914
  23   2.0000      -6.023187      -163.8993
  24   2.0000      -1.009200       -27.4617
  25   2.0000      -0.988366       -26.8948
  26   2.0000      -0.919056       -25.0088
  27   2.0000      -0.907436       -24.6926
  28   2.0000      -0.866326       -23.5739
  29   2.0000      -0.857347       -23.3296
  30   2.0000      -0.846348       -23.0303
  31   2.0000      -0.812740       -22.1158
  32   2.0000      -0.783305       -21.3148
  33   2.0000      -0.771885       -21.0041
  34   2.0000      -0.709149       -19.2969
  35   2.0000      -0.698171       -18.9982
  36   2.0000      -0.686264       -18.6742
  37   2.0000      -0.665294       -18.1036
  38   2.0000      -0.643005       -17.4971
  39   2.0000      -0.617066       -16.7912
  40   2.0000      -0.599682       -16.3182
  41   2.0000      -0.576165       -15.6783
  42   2.0000      -0.566401       -15.4125
  43   2.0000      -0.561619       -15.2824
  44   2.0000      -0.543629       -14.7929
  45   2.0000      -0.519675       -14.1411
  46   2.0000      -0.516192       -14.0463
  47   2.0000      -0.508529       -13.8378
  48   2.0000      -0.504425       -13.7261
  49   2.0000      -0.495435       -13.4815
  50   2.0000      -0.492784       -13.4093
  51   2.0000      -0.481857       -13.1120
  52   2.0000      -0.473948       -12.8968
  53   2.0000      -0.461503       -12.5581
  54   2.0000      -0.455853       -12.4044
  55   2.0000      -0.448602       -12.2071
  56   2.0000      -0.447574       -12.1791
  57   2.0000      -0.439994       -11.9729
  58   2.0000      -0.429885       -11.6978
  59   2.0000      -0.422457       -11.4956
  60   2.0000      -0.416713       -11.3393
  61   2.0000      -0.403506       -10.9800
  62   2.0000      -0.397169       -10.8075
  63   2.0000      -0.341543        -9.2939
  64   2.0000      -0.329470        -8.9653
  65   2.0000      -0.324612        -8.8331
  66   2.0000      -0.303384        -8.2555
  67   0.0000       0.025540         0.6950
  68   0.0000       0.061724         1.6796
  69   0.0000       0.107630         2.9288
  70   0.0000       0.113121         3.0782
  71   0.0000       0.135963         3.6997

MULLIKEN ATOMIC CHARGES
-----------------------
   0 S :    0.140440
   1 C :   -0.088865
   2 C :   -0.086800
   3 C :    0.041813
   4 C :   -0.161939
   5 H :   -0.006073
   6 C :    0.073781
   7 H :    0.041520
   8 H :    0.041711
   9 C :   -0.115044
  10 H :    0.003943
  11 H :    0.021009
  12 C :   -0.013165
  13 H :    0.046414
  14 H :    0.038833
  15 H :    0.005318
  16 S :    0.078271
  17 C :   -0.100069
  18 C :   -0.046677
  19 C :   -0.001004
  20 C :   -0.150292
  21 H :    0.026674
  22 C :    0.033768
  23 H :    0.024457
  24 H :    0.013512
  25 C :   -0.052330
  26 H :    0.028875
  27 H :    0.035713
  28 C :   -0.115198
  29 H :    0.033261
  30 H :    0.058663
  31 H :    0.042337
  32 H :    0.028353
  33 H :    0.078791
Sum of atomic charges:    0.0000000

LOEWDIN ATOMIC CHARGES
----------------------
   0 S :    0.420897
   1 C :   -0.188850
   2 C :   -0.068248
   3 C :   -0.052356
   4 C :   -0.202708
   5 H :    0.026031
   6 C :   -0.031015
   7 H :    0.040064
   8 H :    0.038441
   9 C :   -0.063774
  10 H :    0.017296
  11 H :    0.031210
  12 C :   -0.060880
  13 H :    0.026920
  14 H :    0.033113
  15 H :    0.017818
  16 S :    0.397834
  17 C :   -0.183451
  18 C :   -0.073069
  19 C :   -0.061947
  20 C :   -0.188798
  21 H :    0.031146
  22 C :   -0.041323
  23 H :    0.028131
  24 H :    0.030439
  25 C :   -0.046193
  26 H :    0.025114
  27 H :    0.028985
  28 C :   -0.086982
  29 H :    0.020407
  30 H :    0.044234
  31 H :    0.032946
  32 H :    0.022648
  33 H :    0.035920

  Mayer bond orders larger than 0.100000
B(  0-S ,  1-C ) :   1.1505 B(  0-S ,  4-C ) :   1.1582 B(  1-C ,  2-C ) :   1.5903
B(  1-C ,  4-C ) :   0.1063 B(  1-C , 32-H ) :   0.9676 B(  2-C ,  3-C ) :   1.2593
B(  2-C ,  6-C ) :   1.0063 B(  3-C ,  4-C ) :   1.5634 B(  3-C ,  5-H ) :   1.0078
B(  4-C , 20-C ) :   0.9982 B(  6-C ,  7-H ) :   0.9524 B(  6-C ,  8-H ) :   0.9221
B(  6-C ,  9-C ) :   1.0873 B(  9-C , 10-H ) :   0.9394 B(  9-C , 11-H ) :   0.9495
B(  9-C , 12-C ) :   1.0732 B( 12-C , 13-H ) :   0.9709 B( 12-C , 14-H ) :   0.9702
B( 12-C , 15-H ) :   0.9768 B( 16-S , 17-C ) :   1.1714 B( 16-S , 20-C ) :   1.1590
B( 17-C , 18-C ) :   1.5640 B( 17-C , 20-C ) :   0.1110 B( 17-C , 33-H ) :   0.9719
B( 18-C , 19-C ) :   1.2466 B( 18-C , 21-H ) :   0.9900 B( 19-C , 20-C ) :   1.5720
B( 19-C , 22-C ) :   1.0663 B( 22-C , 23-H ) :   0.9431 B( 22-C , 24-H ) :   0.9249
B( 22-C , 25-C ) :   1.0654 B( 25-C , 26-H ) :   0.9543 B( 25-C , 27-H ) :   0.9531
B( 25-C , 28-C ) :   1.0754 B( 28-C , 29-H ) :   0.9751 B( 28-C , 30-H ) :   0.9703
B( 28-C , 31-H ) :   0.9716

Dispersion correction           -0.014165637
FINAL SINGLE POINT ENERGY     -1339.847813879461

DIPOLE MOMENT
-------------
                                X             Y             Z
Electronic contribution:    -15.24917      14.10047       4.20485
Nuclear contribution   :     15.64172     -14.44734      -4.39554
                        -----------------------------------------
Total Dipole Moment    :      0.39255      -0.34687      -0.19068
                        -----------------------------------------
Magnitude (a.u.)       :      0.55747
Magnitude (Debye)      :      1.41698

Rotational constants in cm-1:     0.019049     0.008153     0.006793
Rotational constants in MHz :   571.066183   244.433036   203.634677

                             ****ORCA TERMINATED NORMALLY****
TOTAL RUN TIME: 0 days 0 hours 0 minutes 31 seconds 275 msec
