                         Program Version 4.2.1 -  RELEASE  -
|  1> ! wB97X-D3 SP def2-SVP
|  2> %pal
|  3> nprocs 16
|  4> end
|  5>
|  6> * xyz 0 1
|  7> S 	 -0.0991103 	 -24.1483 	 55.5229
|  8> C 	 -0.825998 	 -25.7626 	 55.2559
|  9> C 	 0.168642 	 -26.7216 	 55.032
| 10> C 	 1.44789 	 -26.1435 	 54.9743
| 11> C 	 1.47877 	 -24.7661 	 55.3742
| 12> H 	 2.36699 	 -26.6945 	 54.6537
| 13> C 	 -0.0806879 	 -28.2206 	 54.8002
| 14> H 	 0.465785 	 -28.4614 	 53.8863
| 15> H 	 -1.12041 	 -28.3693 	 54.4687
| 16> C 	 0.187796 	 -29.2174 	 55.9892
| 17> H 	 -0.145421 	 -30.19 	 55.7077
| 18> H 	 1.30656 	 -29.2635 	 56.2613
| 19> C 	 -0.522495 	 -28.8289 	 57.2965
| 20> H 	 -1.56981 	 -28.9544 	 57.0788
| 21> H 	 -0.257493 	 -29.4696 	 58.1263
| 22> H 	 -0.23475 	 -27.766 	 57.4792
| 23> S 	 2.70518 	 -22.4897 	 54.2591
| 24> C 	 3.99397 	 -21.8167 	 55.1468
| 25> C 	 4.55415 	 -22.6613 	 56.1072
| 26> C 	 3.72388 	 -23.8059 	 56.3277
| 27> C 	 2.65359 	 -23.8811 	 55.4089
| 28> H 	 5.42981 	 -22.4665 	 56.6674
| 29> C 	 4.0236 	 -24.8464 	 57.396
| 30> H 	 3.73389 	 -25.744 	 56.969
| 31> H 	 3.48497 	 -24.7974 	 58.2666
| 32> C 	 5.56061 	 -25.0536 	 57.7896
| 33> H 	 5.51513 	 -25.7722 	 58.5887
| 34> H 	 5.9459 	 -24.191 	 58.3305
| 35> C 	 6.60413 	 -25.3743 	 56.6638
| 36> H 	 6.33222 	 -26.3629 	 56.2392
| 37> H 	 7.63203 	 -25.3579 	 57.0476
| 38> H 	 6.42476 	 -24.7203 	 55.8222
| 39> H 	 -1.89253 	 -25.969 	 55.2203
| 40> H 	 4.60079 	 -20.9543 	 54.878
| 41> *
| 42>
| 43>                          ****END OF INPUT****

CARTESIAN COORDINATES (ANGSTROEM)
---------------------------------
  S     -0.099110  -24.148300   55.522900
  C     -0.825998  -25.762600   55.255900
  C      0.168642  -26.721600   55.032000
  C      1.447890  -26.143500   54.974300
  C      1.478770  -24.766100   55.374200
  H      2.366990  -26.694500   54.653700
  C     -0.080688  -28.220600   54.800200
  H      0.465785  -28.461400   53.886300
  H     -1.120410  -28.369300   54.468700
  C      0.187796  -29.217400   55.989200
  H     -0.145421  -30.190000   55.707700
  H      1.306560  -29.263500   56.261300
  C     -0.522495  -28.828900   57.296500
  H     -1.569810  -28.954400   57.078800
  H     -0.257493  -29.469600   58.126300
  H     -0.234750  -27.766000   57.479200
  S      2.705180  -22.489700   54.259100
  C      3.993970  -21.816700   55.146800
  C      4.554150  -22.661300   56.107200
  C      3.723880  -23.805900   56.327700
  C      2.653590  -23.881100   55.408900
  H      5.429810  -22.466500   56.667400
  C      4.023600  -24.846400   57.396000
  H      3.733890  -25.744000   56.969000
  H      3.484970  -24.797400   58.266600
  C      5.560610  -25.053600   57.789600
  H      5.515130  -25.772200   58.588700
  H      5.945900  -24.191000   58.330500
  C      6.604130  -25.374300   56.663800
  H      6.332220  -26.362900   56.239200
  H      7.632030  -25.357900   57.047600
  H      6.424760  -24.720300   55.822200
  H     -1.892530  -25.969000   55.220300
  H      4.600790  -20.954300   54.878000

 Total Charge           Charge          ....    0
 Multiplicity           Mult            ....    1
 Number of Electrons    NEL             ....  134
 Basis Dimension        Dim             ....  322

ORBITAL ENERGIES
----------------

  NO   OCC          E(Eh)            E(eV)
   0   2.0000     -88.970685     -2421.0154
   1   2.0000     -88.969791     -2420.9911
   2   2.0000     -10.331170      -281.1254
   3   2.0000     -10.329484      -281.0795
   4   2.0000     -10.318616      -280.7838
   5   2.0000     -10.316230      -280.7189
   6   2.0000     -10.307252      -280.4746
   7   2.0000     -10.303759      -280.3795
   8   2.0000     -10.299074      -280.2521
   9   2.0000     -10.298927      -280.2481
  10   2.0000     -10.293146      -280.0907
  11   2.0000     -10.290896      -280.0295
  12   2.0000     -10.290446      -280.0173
  13   2.0000     -10.283204      -279.8202
  14   2.0000     -10.282740      -279.8076
  15   2.0000     -10.274635      -279.5870
  16   2.0000      -8.085212      -220.0098
  17   2.0000      -8.084243      -219.9834
  18   2.0000      -6.043600      -164.4547
  19   2.0000      -6.042613      -164.4279
  20   2.0000      -6.039606      -164.3460
  21   2.0000      -6.038848      -164.3254
  22   2.0000      -6.036239      -164.2544
  23   2.0000      -6.035107      -164.2236
  24   2.0000      -1.002350       -27.2753
  25   2.0000      -0.981032       -26.6952
  26   2.0000      -0.906526       -24.6678
  27   2.0000      -0.902886       -24.5688
  28   2.0000      -0.863905       -23.5081
  29   2.0000      -0.847682       -23.0666
  30   2.0000      -0.842038       -22.9130
  31   2.0000      -0.807701       -21.9787
  32   2.0000      -0.788412       -21.4538
  33   2.0000      -0.774214       -21.0674
  34   2.0000      -0.707622       -19.2554
  35   2.0000      -0.696410       -18.9503
  36   2.0000      -0.690904       -18.8005
  37   2.0000      -0.655136       -17.8271
  38   2.0000      -0.634198       -17.2574
  39   2.0000      -0.616132       -16.7658
  40   2.0000      -0.596913       -16.2428
  41   2.0000      -0.567496       -15.4424
  42   2.0000      -0.554279       -15.0827
  43   2.0000      -0.549242       -14.9456
  44   2.0000      -0.546270       -14.8648
  45   2.0000      -0.527936       -14.3659
  46   2.0000      -0.513509       -13.9733
  47   2.0000      -0.507534       -13.8107
  48   2.0000      -0.504513       -13.7285
  49   2.0000      -0.494886       -13.4665
  50   2.0000      -0.486460       -13.2373
  51   2.0000      -0.473315       -12.8796
  52   2.0000      -0.470584       -12.8052
  53   2.0000      -0.464201       -12.6316
  54   2.0000      -0.457488       -12.4489
  55   2.0000      -0.449709       -12.2372
  56   2.0000      -0.445067       -12.1109
  57   2.0000      -0.443608       -12.0712
  58   2.0000      -0.439962       -11.9720
  59   2.0000      -0.424600       -11.5540
  60   2.0000      -0.420567       -11.4442
  61   2.0000      -0.413827       -11.2608
  62   2.0000      -0.408886       -11.1263
  63   2.0000      -0.338449        -9.2097
  64   2.0000      -0.331318        -9.0156
  65   2.0000      -0.328622        -8.9423
  66   2.0000      -0.294259        -8.0072
  67   0.0000       0.028845         0.7849
  68   0.0000       0.058523         1.5925
  69   0.0000       0.112233         3.0540
  70   0.0000       0.117865         3.2073
  71   0.0000       0.124913         3.3991

MULLIKEN ATOMIC CHARGES
-----------------------
   0 S :    0.130247
   1 C :   -0.134206
   2 C :   -0.101167
   3 C :    0.020630
   4 C :   -0.174538
   5 H :    0.033560
   6 C :    0.066314
   7 H :    0.033141
   8 H :    0.015501
   9 C :   -0.082160
  10 H :    0.026434
  11 H :    0.037926
  12 C :   -0.059324
  13 H :    0.023178
  14 H :    0.038665
  15 H :    0.057573
  16 S :    0.126364
  17 C :   -0.072158
  18 C :   -0.035730
  19 C :   -0.057137
  20 C :   -0.188233
  21 H :    0.007944
  22 C :    0.175785
  23 H :   -0.008912
  24 H :    0.020198
  25 C :   -0.122080
  26 H :    0.020535
  27 H :    0.021805
  28 C :   -0.045795
  29 H :    0.028245
  30 H :    0.051943
  31 H :    0.037118
  32 H :    0.051300
  33 H :    0.057035
Sum of atomic charges:   -0.0000000

LOEWDIN ATOMIC CHARGES
----------------------
   0 S :    0.429703
   1 C :   -0.193774
   2 C :   -0.068893
   3 C :   -0.068950
   4 C :   -0.219532
   5 H :    0.038387
   6 C :   -0.033159
   7 H :    0.034124
   8 H :    0.029212
   9 C :   -0.039605
  10 H :    0.017429
  11 H :    0.027874
  12 C :   -0.065837
  13 H :    0.019935
  14 H :    0.025030
  15 H :    0.034103
  16 S :    0.410454
  17 C :   -0.197357
  18 C :   -0.071487
  19 C :   -0.040494
  20 C :   -0.200386
  21 H :    0.025181
  22 C :   -0.016124
  23 H :    0.022232
  24 H :    0.026236
  25 C :   -0.040467
  26 H :    0.021800
  27 H :    0.016779
  28 C :   -0.067383
  29 H :    0.027441
  30 H :    0.032025
  31 H :    0.025604
  32 H :    0.028537
  33 H :    0.031364

  Mayer bond orders larger than 0.100000
B(  0-S ,  1-C ) :   1.1499 B(  0-S ,  4-C ) :   1.1911 B(  1-C ,  2-C ) :   1.5629
B(  1-C ,  4-C ) :   0.1095 B(  1-C , 32-H ) :   0.9693 B(  2-C ,  3-C ) :   1.2928
B(  2-C ,  6-C ) :   1.0156 B(  3-C ,  4-C ) :   1.5148 B(  3-C ,  5-H ) :   0.9829
B(  4-C , 20-C ) :   1.0348 B(  6-C ,  7-H ) :   0.9430 B(  6-C ,  8-H ) :   0.9426
B(  6-C ,  9-C ) :   1.0577 B(  9-C , 10-H ) :   0.9589 B(  9-C , 11-H ) :   0.9600
B(  9-C , 12-C ) :   1.0716 B( 12-C , 13-H ) :   0.9779 B( 12-C , 14-H ) :   0.9747
B( 12-C , 15-H ) :   0.9739 B( 16-S , 17-C ) :   1.1787 B( 16-S , 20-C ) :   1.1350
B( 17-C , 18-C ) :   1.5878 B( 17-C , 33-H ) :   0.9561 B( 18-C , 19-C ) :   1.2694
B( 18-C , 21-H ) :   0.9879 B( 19-C , 20-C ) :   1.5875 B( 19-C , 22-C ) :   1.0213
B( 22-C , 23-H ) :   0.9238 B( 22-C , 24-H ) :   0.9226 B( 22-C , 25-C ) :   1.0756
B( 25-C , 26-H ) :   0.9564 B( 25-C , 27-H ) :   0.9551 B( 25-C , 28-C ) :   1.0617
B( 28-C , 29-H ) :   0.9751 B( 28-C , 30-H ) :   0.9755 B( 28-C , 31-H ) :   0.9747

Dispersion correction           -0.014484092
FINAL SINGLE POINT ENERGY     -1339.867795038293

DIPOLE MOMENT
-------------
                                X             Y             Z
Electronic contribution:     -9.24280      23.30362     -11.71613
Nuclear contribution   :      9.49491     -23.80967      11.89133
                        -----------------------------------------
Total Dipole Moment    :      0.25210      -0.50605       0.17520
                        -----------------------------------------
Magnitude (a.u.)       :      0.59189
Magnitude (Debye)      :      1.50446

Rotational constants in cm-1:     0.018855     0.008657     0.006544
Rotational constants in MHz :   565.255259   259.518274   196.186267

                             ****ORCA TERMINATED NORMALLY****
TOTAL RUN TIME: 0 days 0 hours 0 minutes 34 seconds 587 msec
