                         Program Version 4.2.1 -  RELEASE  -
|  1> ! wB97X-D3 SP def2-SVP
|  2> %pal
|  3> nprocs 16
|  4> end
|  5>
|  6> * xyz 0 1
|  7> S 	 -44.9803 	 29.2128 	 89.9199
|  8> C 	 -45.1063 	 28.3567 	 91.3886
|  9> C 	 -46.2115 	 28.6942 	 92.0584
| 10> C 	 -46.967 	 29.7645 	 91.4959
| 11> C 	 -46.4117 	 30.2104 	 90.2743
| 12> H 	 -47.885 	 30.0841 	 91.9826
| 13> C 	 -46.8108 	 27.9754 	 93.1658
| 14> H 	 -46.5949 	 26.9171 	 93.0797
| 15> H 	 -47.9559 	 27.947 	 93.0174
| 16> C 	 -46.4411 	 28.5468 	 94.589
| 17> H 	 -45.4011 	 28.4308 	 94.93
| 18> H 	 -46.5271 	 29.6035 	 94.5764
| 19> C 	 -47.309 	 27.9756 	 95.7314
| 20> H 	 -48.3789 	 28.178 	 95.5696
| 21> H 	 -47.0764 	 26.9274 	 95.9946
| 22> H 	 -47.0519 	 28.5568 	 96.6217
| 23> S 	 -48.102 	 30.5919 	 88.1207
| 24> C 	 -48.4471 	 32.1746 	 87.5684
| 25> C 	 -47.7267 	 33.1302 	 88.2749
| 26> C 	 -46.9441 	 32.5671 	 89.328
| 27> C 	 -46.964 	 31.1701 	 89.3654
| 28> H 	 -47.7943 	 34.1748 	 87.9466
| 29> C 	 -46.1024 	 33.4398 	 90.2806
| 30> H 	 -46.4235 	 33.5216 	 91.3588
| 31> H 	 -46.3222 	 34.4602 	 89.9943
| 32> C 	 -44.5757 	 33.1222 	 90.2237
| 33> H 	 -44.273 	 33.2403 	 89.2105
| 34> H 	 -44.4985 	 32.1259 	 90.596
| 35> C 	 -43.7742 	 34.1144 	 91.1906
| 36> H 	 -43.2258 	 34.8256 	 90.6777
| 37> H 	 -43.1103 	 33.519 	 91.8857
| 38> H 	 -44.3993 	 34.6957 	 91.8007
| 39> H 	 -44.4376 	 27.5912 	 91.8313
| 40> H 	 -49.1008 	 32.394 	 86.7481
| 41> *
| 42>
| 43>                          ****END OF INPUT****

CARTESIAN COORDINATES (ANGSTROEM)
---------------------------------
  S    -44.980300   29.212800   89.919900
  C    -45.106300   28.356700   91.388600
  C    -46.211500   28.694200   92.058400
  C    -46.967000   29.764500   91.495900
  C    -46.411700   30.210400   90.274300
  H    -47.885000   30.084100   91.982600
  C    -46.810800   27.975400   93.165800
  H    -46.594900   26.917100   93.079700
  H    -47.955900   27.947000   93.017400
  C    -46.441100   28.546800   94.589000
  H    -45.401100   28.430800   94.930000
  H    -46.527100   29.603500   94.576400
  C    -47.309000   27.975600   95.731400
  H    -48.378900   28.178000   95.569600
  H    -47.076400   26.927400   95.994600
  H    -47.051900   28.556800   96.621700
  S    -48.102000   30.591900   88.120700
  C    -48.447100   32.174600   87.568400
  C    -47.726700   33.130200   88.274900
  C    -46.944100   32.567100   89.328000
  C    -46.964000   31.170100   89.365400
  H    -47.794300   34.174800   87.946600
  C    -46.102400   33.439800   90.280600
  H    -46.423500   33.521600   91.358800
  H    -46.322200   34.460200   89.994300
  C    -44.575700   33.122200   90.223700
  H    -44.273000   33.240300   89.210500
  H    -44.498500   32.125900   90.596000
  C    -43.774200   34.114400   91.190600
  H    -43.225800   34.825600   90.677700
  H    -43.110300   33.519000   91.885700
  H    -44.399300   34.695700   91.800700
  H    -44.437600   27.591200   91.831300
  H    -49.100800   32.394000   86.748100

 Total Charge           Charge          ....    0
 Multiplicity           Mult            ....    1
 Number of Electrons    NEL             ....  134
 Basis Dimension        Dim             ....  322

ORBITAL ENERGIES
----------------

  NO   OCC          E(Eh)            E(eV)
   0   2.0000     -88.967590     -2420.9312
   1   2.0000     -88.963136     -2420.8100
   2   2.0000     -10.332916      -281.1729
   3   2.0000     -10.324640      -280.9477
   4   2.0000     -10.315557      -280.7006
   5   2.0000     -10.309220      -280.5282
   6   2.0000     -10.306915      -280.4654
   7   2.0000     -10.297059      -280.1972
   8   2.0000     -10.294827      -280.1365
   9   2.0000     -10.293621      -280.1037
  10   2.0000     -10.291068      -280.0342
  11   2.0000     -10.288510      -279.9646
  12   2.0000     -10.285619      -279.8859
  13   2.0000     -10.281109      -279.7632
  14   2.0000     -10.280020      -279.7336
  15   2.0000     -10.270149      -279.4650
  16   2.0000      -8.082156      -219.9266
  17   2.0000      -8.078178      -219.8184
  18   2.0000      -6.040652      -164.3745
  19   2.0000      -6.036619      -164.2648
  20   2.0000      -6.036511      -164.2618
  21   2.0000      -6.032974      -164.1656
  22   2.0000      -6.032511      -164.1530
  23   2.0000      -6.029233      -164.0638
  24   2.0000      -1.007255       -27.4088
  25   2.0000      -0.987290       -26.8655
  26   2.0000      -0.910143       -24.7663
  27   2.0000      -0.897530       -24.4230
  28   2.0000      -0.871322       -23.7099
  29   2.0000      -0.852064       -23.1858
  30   2.0000      -0.842863       -22.9355
  31   2.0000      -0.811298       -22.0765
  32   2.0000      -0.777929       -21.1685
  33   2.0000      -0.767894       -20.8955
  34   2.0000      -0.713982       -19.4284
  35   2.0000      -0.703036       -19.1306
  36   2.0000      -0.695976       -18.9385
  37   2.0000      -0.658785       -17.9265
  38   2.0000      -0.636897       -17.3308
  39   2.0000      -0.621604       -16.9147
  40   2.0000      -0.593976       -16.1629
  41   2.0000      -0.570972       -15.5369
  42   2.0000      -0.559643       -15.2287
  43   2.0000      -0.554201       -15.0806
  44   2.0000      -0.526852       -14.3364
  45   2.0000      -0.516209       -14.0468
  46   2.0000      -0.513629       -13.9765
  47   2.0000      -0.509540       -13.8653
  48   2.0000      -0.503406       -13.6984
  49   2.0000      -0.498801       -13.5731
  50   2.0000      -0.490556       -13.3487
  51   2.0000      -0.482635       -13.1332
  52   2.0000      -0.469448       -12.7743
  53   2.0000      -0.464666       -12.6442
  54   2.0000      -0.460402       -12.5282
  55   2.0000      -0.446759       -12.1569
  56   2.0000      -0.441478       -12.0132
  57   2.0000      -0.435975       -11.8635
  58   2.0000      -0.431856       -11.7514
  59   2.0000      -0.425611       -11.5815
  60   2.0000      -0.417280       -11.3548
  61   2.0000      -0.414837       -11.2883
  62   2.0000      -0.411725       -11.2036
  63   2.0000      -0.335805        -9.1377
  64   2.0000      -0.326788        -8.8923
  65   2.0000      -0.319573        -8.6960
  66   2.0000      -0.308867        -8.4047
  67   0.0000       0.042554         1.1579
  68   0.0000       0.049015         1.3338
  69   0.0000       0.112247         3.0544
  70   0.0000       0.124977         3.4008
  71   0.0000       0.132052         3.5933

MULLIKEN ATOMIC CHARGES
-----------------------
   0 S :    0.125982
   1 C :   -0.111453
   2 C :   -0.082304
   3 C :    0.067422
   4 C :   -0.192019
   5 H :    0.017433
   6 C :    0.013357
   7 H :    0.018242
   8 H :    0.038641
   9 C :   -0.059496
  10 H :    0.027525
  11 H :    0.014490
  12 C :   -0.056765
  13 H :    0.035924
  14 H :    0.042435
  15 H :    0.026193
  16 S :    0.114891
  17 C :   -0.088542
  18 C :   -0.053187
  19 C :   -0.003489
  20 C :   -0.172118
  21 H :    0.028596
  22 C :    0.043660
  23 H :    0.038057
  24 H :   -0.001717
  25 C :   -0.060281
  26 H :    0.033604
  27 H :    0.042522
  28 C :   -0.016978
  29 H :    0.016898
  30 H :    0.037764
  31 H :    0.007436
  32 H :    0.053135
  33 H :    0.054141
Sum of atomic charges:   -0.0000000

LOEWDIN ATOMIC CHARGES
----------------------
   0 S :    0.421937
   1 C :   -0.211346
   2 C :   -0.086728
   3 C :   -0.040753
   4 C :   -0.198502
   5 H :    0.034267
   6 C :   -0.038609
   7 H :    0.026887
   8 H :    0.041684
   9 C :   -0.038997
  10 H :    0.027248
  11 H :    0.017779
  12 C :   -0.070194
  13 H :    0.024797
  14 H :    0.027435
  15 H :    0.027064
  16 S :    0.415797
  17 C :   -0.189828
  18 C :   -0.082349
  19 C :   -0.046632
  20 C :   -0.205253
  21 H :    0.036168
  22 C :   -0.037626
  23 H :    0.035104
  24 H :    0.020175
  25 C :   -0.024730
  26 H :    0.021566
  27 H :    0.018057
  28 C :   -0.058719
  29 H :    0.015047
  30 H :    0.034652
  31 H :    0.014643
  32 H :    0.042363
  33 H :    0.027594

  Mayer bond orders larger than 0.100000
B(  0-S ,  1-C ) :   1.1385 B(  0-S ,  4-C ) :   1.1483 B(  1-C ,  2-C ) :   1.6289
B(  1-C , 32-H ) :   0.9558 B(  2-C ,  3-C ) :   1.2547 B(  2-C ,  6-C ) :   1.0284
B(  3-C ,  4-C ) :   1.5470 B(  3-C ,  5-H ) :   0.9951 B(  4-C , 20-C ) :   1.0449
B(  6-C ,  7-H ) :   0.9410 B(  6-C ,  8-H ) :   0.9504 B(  6-C ,  9-C ) :   1.0378
B(  9-C , 10-H ) :   0.9564 B(  9-C , 11-H ) :   0.9592 B(  9-C , 12-C ) :   1.0872
B( 12-C , 13-H ) :   0.9754 B( 12-C , 14-H ) :   0.9762 B( 12-C , 15-H ) :   0.9729
B( 16-S , 17-C ) :   1.1862 B( 16-S , 20-C ) :   1.1408 B( 17-C , 18-C ) :   1.5847
B( 17-C , 20-C ) :   0.1054 B( 17-C , 33-H ) :   0.9673 B( 18-C , 19-C ) :   1.2643
B( 18-C , 21-H ) :   0.9875 B( 19-C , 20-C ) :   1.5756 B( 19-C , 22-C ) :   1.0323
B( 22-C , 23-H ) :   0.9363 B( 22-C , 24-H ) :   0.9349 B( 22-C , 25-C ) :   1.0574
B( 25-C , 26-H ) :   0.9638 B( 25-C , 27-H ) :   0.9626 B( 25-C , 28-C ) :   1.0617
B( 28-C , 29-H ) :   0.9783 B( 28-C , 30-H ) :   0.9798 B( 28-C , 31-H ) :   0.9768

Dispersion correction           -0.014112208
FINAL SINGLE POINT ENERGY     -1339.868403577067

DIPOLE MOMENT
-------------
                                X             Y             Z
Electronic contribution:     -5.01611      -6.13065     -24.67345
Nuclear contribution   :      4.89997       6.31732      25.14424
                        -----------------------------------------
Total Dipole Moment    :     -0.11613       0.18667       0.47079
                        -----------------------------------------
Magnitude (a.u.)       :      0.51959
Magnitude (Debye)      :      1.32068

Rotational constants in cm-1:     0.017946     0.008138     0.007009
Rotational constants in MHz :   537.993100   243.977716   210.121713

                             ****ORCA TERMINATED NORMALLY****
TOTAL RUN TIME: 0 days 0 hours 0 minutes 28 seconds 854 msec
