                         Program Version 4.2.1 -  RELEASE  -
|  1> ! wB97X-D3 SP def2-SVP
|  2> %pal
|  3> nprocs 16
|  4> end
|  5>
|  6> * xyz 0 1
|  7> S 	 -2.36402 	 -25.4478 	 58.2368
|  8> C 	 -2.74695 	 -24.5979 	 59.6655
|  9> C 	 -2.99189 	 -23.2668 	 59.4288
| 10> C 	 -2.72412 	 -22.8987 	 58.0622
| 11> C 	 -2.34089 	 -23.9628 	 57.26
| 12> H 	 -2.68789 	 -21.9399 	 57.5312
| 13> C 	 -3.49689 	 -22.1937 	 60.4225
| 14> H 	 -2.82522 	 -21.3783 	 60.5407
| 15> H 	 -3.57344 	 -22.6054 	 61.3958
| 16> C 	 -4.93644 	 -21.6496 	 60.1993
| 17> H 	 -5.2101 	 -21.0472 	 61.0554
| 18> H 	 -4.81038 	 -21.0603 	 59.2706
| 19> C 	 -5.92513 	 -22.8529 	 60.0607
| 20> H 	 -6.88314 	 -22.6164 	 59.5663
| 21> H 	 -5.56401 	 -23.6704 	 59.4156
| 22> H 	 -6.30935 	 -23.2842 	 61.0095
| 23> S 	 -0.50519 	 -24.9809 	 55.5555
| 24> C 	 -0.589732 	 -24.7397 	 53.8889
| 25> C 	 -1.6069 	 -23.7937 	 53.6158
| 26> C 	 -2.29547 	 -23.3692 	 54.7921
| 27> C 	 -1.87883 	 -24.0688 	 55.8722
| 28> H 	 -1.96947 	 -23.5345 	 52.6467
| 29> C 	 -3.42375 	 -22.3705 	 54.7919
| 30> H 	 -4.12775 	 -22.5333 	 55.6004
| 31> H 	 -3.99379 	 -22.3555 	 53.8768
| 32> C 	 -2.90067 	 -20.9505 	 54.9408
| 33> H 	 -2.13831 	 -20.8557 	 54.1178
| 34> H 	 -2.27978 	 -20.7379 	 55.8563
| 35> C 	 -4.12198 	 -20.0601 	 54.834
| 36> H 	 -4.88779 	 -20.1919 	 55.6402
| 37> H 	 -4.6269 	 -20.093 	 53.8515
| 38> H 	 -3.79966 	 -19.0241 	 55.0747
| 39> H 	 -2.90288 	 -25.0629 	 60.6211
| 40> H 	 0.0264055 	 -25.1992 	 53.0812
| 41> *
| 42>
| 43>                          ****END OF INPUT****

CARTESIAN COORDINATES (ANGSTROEM)
---------------------------------
  S     -2.364020  -25.447800   58.236800
  C     -2.746950  -24.597900   59.665500
  C     -2.991890  -23.266800   59.428800
  C     -2.724120  -22.898700   58.062200
  C     -2.340890  -23.962800   57.260000
  H     -2.687890  -21.939900   57.531200
  C     -3.496890  -22.193700   60.422500
  H     -2.825220  -21.378300   60.540700
  H     -3.573440  -22.605400   61.395800
  C     -4.936440  -21.649600   60.199300
  H     -5.210100  -21.047200   61.055400
  H     -4.810380  -21.060300   59.270600
  C     -5.925130  -22.852900   60.060700
  H     -6.883140  -22.616400   59.566300
  H     -5.564010  -23.670400   59.415600
  H     -6.309350  -23.284200   61.009500
  S     -0.505190  -24.980900   55.555500
  C     -0.589732  -24.739700   53.888900
  C     -1.606900  -23.793700   53.615800
  C     -2.295470  -23.369200   54.792100
  C     -1.878830  -24.068800   55.872200
  H     -1.969470  -23.534500   52.646700
  C     -3.423750  -22.370500   54.791900
  H     -4.127750  -22.533300   55.600400
  H     -3.993790  -22.355500   53.876800
  C     -2.900670  -20.950500   54.940800
  H     -2.138310  -20.855700   54.117800
  H     -2.279780  -20.737900   55.856300
  C     -4.121980  -20.060100   54.834000
  H     -4.887790  -20.191900   55.640200
  H     -4.626900  -20.093000   53.851500
  H     -3.799660  -19.024100   55.074700
  H     -2.902880  -25.062900   60.621100
  H      0.026405  -25.199200   53.081200

 Total Charge           Charge          ....    0
 Multiplicity           Mult            ....    1
 Number of Electrons    NEL             ....  134
 Basis Dimension        Dim             ....  322

ORBITAL ENERGIES
----------------

  NO   OCC          E(Eh)            E(eV)
   0   2.0000     -88.967271     -2420.9225
   1   2.0000     -88.963233     -2420.8126
   2   2.0000     -10.330551      -281.1086
   3   2.0000     -10.319139      -280.7980
   4   2.0000     -10.317173      -280.7446
   5   2.0000     -10.311433      -280.5883
   6   2.0000     -10.305068      -280.4151
   7   2.0000     -10.296815      -280.1906
   8   2.0000     -10.295465      -280.1538
   9   2.0000     -10.294008      -280.1142
  10   2.0000     -10.293833      -280.1094
  11   2.0000     -10.293188      -280.0919
  12   2.0000     -10.287246      -279.9302
  13   2.0000     -10.286636      -279.9136
  14   2.0000     -10.286159      -279.9006
  15   2.0000     -10.279020      -279.7063
  16   2.0000      -8.084234      -219.9832
  17   2.0000      -8.078515      -219.8276
  18   2.0000      -6.042542      -164.4259
  19   2.0000      -6.038264      -164.3095
  20   2.0000      -6.036964      -164.2741
  21   2.0000      -6.035196      -164.2260
  22   2.0000      -6.032892      -164.1633
  23   2.0000      -6.029351      -164.0670
  24   2.0000      -1.020321       -27.7643
  25   2.0000      -0.990785       -26.9606
  26   2.0000      -0.921254       -25.0686
  27   2.0000      -0.906227       -24.6597
  28   2.0000      -0.869608       -23.6632
  29   2.0000      -0.856445       -23.3051
  30   2.0000      -0.840522       -22.8718
  31   2.0000      -0.811515       -22.0824
  32   2.0000      -0.781847       -21.2751
  33   2.0000      -0.774651       -21.0793
  34   2.0000      -0.703296       -19.1377
  35   2.0000      -0.697702       -18.9854
  36   2.0000      -0.692337       -18.8394
  37   2.0000      -0.670339       -18.2409
  38   2.0000      -0.645257       -17.5583
  39   2.0000      -0.619520       -16.8580
  40   2.0000      -0.604174       -16.4404
  41   2.0000      -0.571424       -15.5493
  42   2.0000      -0.566349       -15.4111
  43   2.0000      -0.549967       -14.9654
  44   2.0000      -0.541213       -14.7271
  45   2.0000      -0.525817       -14.3082
  46   2.0000      -0.516255       -14.0480
  47   2.0000      -0.511040       -13.9061
  48   2.0000      -0.503719       -13.7069
  49   2.0000      -0.497854       -13.5473
  50   2.0000      -0.493230       -13.4215
  51   2.0000      -0.475984       -12.9522
  52   2.0000      -0.473842       -12.8939
  53   2.0000      -0.464279       -12.6337
  54   2.0000      -0.458968       -12.4892
  55   2.0000      -0.455210       -12.3869
  56   2.0000      -0.442456       -12.0399
  57   2.0000      -0.438896       -11.9430
  58   2.0000      -0.436679       -11.8826
  59   2.0000      -0.426914       -11.6169
  60   2.0000      -0.419917       -11.4265
  61   2.0000      -0.411155       -11.1881
  62   2.0000      -0.407912       -11.0999
  63   2.0000      -0.353835        -9.6284
  64   2.0000      -0.332568        -9.0496
  65   2.0000      -0.328470        -8.9381
  66   2.0000      -0.292360        -7.9555
  67   0.0000       0.031503         0.8572
  68   0.0000       0.079889         2.1739
  69   0.0000       0.118746         3.2313
  70   0.0000       0.120810         3.2874
  71   0.0000       0.125860         3.4248

MULLIKEN ATOMIC CHARGES
-----------------------
   0 S :    0.100068
   1 C :   -0.099663
   2 C :   -0.094291
   3 C :    0.037722
   4 C :   -0.173447
   5 H :   -0.007156
   6 C :    0.092567
   7 H :    0.027132
   8 H :   -0.005235
   9 C :   -0.064082
  10 H :    0.041071
  11 H :    0.036286
  12 C :   -0.092407
  13 H :    0.025088
  14 H :    0.052903
  15 H :    0.032080
  16 S :    0.144270
  17 C :   -0.106205
  18 C :   -0.031401
  19 C :   -0.034788
  20 C :   -0.134649
  21 H :    0.005363
  22 C :    0.067339
  23 H :    0.025038
  24 H :    0.013452
  25 C :   -0.126710
  26 H :    0.032836
  27 H :    0.048684
  28 C :   -0.043097
  29 H :    0.035370
  30 H :    0.045963
  31 H :    0.030492
  32 H :    0.043448
  33 H :    0.075958
Sum of atomic charges:   -0.0000000

LOEWDIN ATOMIC CHARGES
----------------------
   0 S :    0.406535
   1 C :   -0.203363
   2 C :   -0.063424
   3 C :   -0.070758
   4 C :   -0.176009
   5 H :    0.032630
   6 C :   -0.028703
   7 H :    0.025295
   8 H :    0.019923
   9 C :   -0.033472
  10 H :    0.027246
  11 H :    0.023905
  12 C :   -0.081433
  13 H :    0.026088
  14 H :    0.031126
  15 H :    0.027739
  16 S :    0.471847
  17 C :   -0.219630
  18 C :   -0.068347
  19 C :   -0.059822
  20 C :   -0.230677
  21 H :    0.023353
  22 C :   -0.029824
  23 H :    0.027018
  24 H :    0.028580
  25 C :   -0.048007
  26 H :    0.029533
  27 H :    0.025919
  28 C :   -0.073714
  29 H :    0.031017
  30 H :    0.030213
  31 H :    0.028174
  32 H :    0.028178
  33 H :    0.042866

  Mayer bond orders larger than 0.100000
B(  0-S ,  1-C ) :   1.1483 B(  0-S ,  4-C ) :   1.1483 B(  1-C ,  2-C ) :   1.6181
B(  1-C , 32-H ) :   0.9669 B(  2-C ,  3-C ) :   1.2060 B(  2-C ,  6-C ) :   1.0271
B(  3-C ,  4-C ) :   1.5948 B(  3-C ,  5-H ) :   0.9874 B(  4-C , 20-C ) :   1.0116
B(  6-C ,  7-H ) :   0.9449 B(  6-C ,  8-H ) :   0.9373 B(  6-C ,  9-C ) :   1.0630
B(  9-C , 10-H ) :   0.9599 B(  9-C , 11-H ) :   0.9609 B(  9-C , 12-C ) :   1.0642
B( 12-C , 13-H ) :   0.9748 B( 12-C , 14-H ) :   0.9749 B( 12-C , 15-H ) :   0.9761
B( 16-S , 17-C ) :   1.1830 B( 16-S , 20-C ) :   1.1758 B( 17-C , 18-C ) :   1.5449
B( 17-C , 33-H ) :   0.9665 B( 18-C , 19-C ) :   1.2826 B( 18-C , 21-H ) :   0.9924
B( 19-C , 20-C ) :   1.5772 B( 19-C , 22-C ) :   1.0477 B( 22-C , 23-H ) :   0.9357
B( 22-C , 24-H ) :   0.9364 B( 22-C , 25-C ) :   1.0470 B( 25-C , 26-H ) :   0.9508
B( 25-C , 27-H ) :   0.9482 B( 25-C , 28-C ) :   1.0783 B( 28-C , 29-H ) :   0.9692
B( 28-C , 30-H ) :   0.9716 B( 28-C , 31-H ) :   0.9710

Dispersion correction           -0.014994768
FINAL SINGLE POINT ENERGY     -1339.880636909885

DIPOLE MOMENT
-------------
                                X             Y             Z
Electronic contribution:     19.21688     -22.79914      -4.27815
Nuclear contribution   :    -19.52914      23.31323       4.20082
                        -----------------------------------------
Total Dipole Moment    :     -0.31226       0.51408      -0.07733
                        -----------------------------------------
Magnitude (a.u.)       :      0.60644
Magnitude (Debye)      :      1.54145

Rotational constants in cm-1:     0.018425     0.010151     0.007051
Rotational constants in MHz :   552.366577   304.313055   211.376285

                             ****ORCA TERMINATED NORMALLY****
TOTAL RUN TIME: 0 days 0 hours 0 minutes 36 seconds 863 msec
