                         Program Version 4.2.1 -  RELEASE  -
|  1> ! wB97X-D3 SP def2-SVP
|  2> %pal
|  3> nprocs 16
|  4> end
|  5>
|  6> * xyz 0 1
|  7> S 	 9.94764 	 -7.08161 	 73.6327
|  8> C 	 9.09147 	 -5.64535 	 74.2285
|  9> C 	 8.1998 	 -5.23034 	 73.2611
| 10> C 	 7.8874 	 -6.27302 	 72.3194
| 11> C 	 8.73306 	 -7.409 	 72.4227
| 12> H 	 7.23964 	 -6.1957 	 71.5335
| 13> C 	 7.73915 	 -3.78104 	 73.1612
| 14> H 	 8.46963 	 -3.15328 	 73.6723
| 15> H 	 6.78921 	 -3.63101 	 73.6769
| 16> C 	 7.51895 	 -3.24551 	 71.7374
| 17> H 	 6.75143 	 -3.8541 	 71.3047
| 18> H 	 7.28097 	 -2.14243 	 71.6811
| 19> C 	 8.81891 	 -3.36224 	 70.8742
| 20> H 	 8.8131 	 -2.88299 	 69.8999
| 21> H 	 9.58859 	 -2.78537 	 71.3726
| 22> H 	 9.10021 	 -4.45405 	 70.7749
| 23> S 	 10.3378 	 -9.25616 	 71.3348
| 24> C 	 9.69065 	 -10.4305 	 70.2894
| 25> C 	 8.29138 	 -10.342 	 70.2307
| 26> C 	 7.78827 	 -9.17147 	 70.8595
| 27> C 	 8.78417 	 -8.518 	 71.5084
| 28> H 	 7.72749 	 -11.0828 	 69.6841
| 29> C 	 6.2447 	 -8.9965 	 71.12
| 30> H 	 5.75759 	 -9.13753 	 70.241
| 31> H 	 6.0412 	 -7.91812 	 71.382
| 32> C 	 5.65452 	 -9.95881 	 72.1977
| 33> H 	 6.37808 	 -10.0724 	 73.0526
| 34> H 	 5.45868 	 -11.0292 	 71.7784
| 35> C 	 4.43157 	 -9.32173 	 72.9238
| 36> H 	 4.74588 	 -8.59878 	 73.6372
| 37> H 	 3.98525 	 -10.0132 	 73.5919
| 38> H 	 3.65892 	 -8.96529 	 72.3006
| 39> H 	 9.52235 	 -5.0536 	 74.9666
| 40> H 	 10.2291 	 -11.2528 	 69.8439
| 41> *
| 42>
| 43>                          ****END OF INPUT****

CARTESIAN COORDINATES (ANGSTROEM)
---------------------------------
  S      9.947640   -7.081610   73.632700
  C      9.091470   -5.645350   74.228500
  C      8.199800   -5.230340   73.261100
  C      7.887400   -6.273020   72.319400
  C      8.733060   -7.409000   72.422700
  H      7.239640   -6.195700   71.533500
  C      7.739150   -3.781040   73.161200
  H      8.469630   -3.153280   73.672300
  H      6.789210   -3.631010   73.676900
  C      7.518950   -3.245510   71.737400
  H      6.751430   -3.854100   71.304700
  H      7.280970   -2.142430   71.681100
  C      8.818910   -3.362240   70.874200
  H      8.813100   -2.882990   69.899900
  H      9.588590   -2.785370   71.372600
  H      9.100210   -4.454050   70.774900
  S     10.337800   -9.256160   71.334800
  C      9.690650  -10.430500   70.289400
  C      8.291380  -10.342000   70.230700
  C      7.788270   -9.171470   70.859500
  C      8.784170   -8.518000   71.508400
  H      7.727490  -11.082800   69.684100
  C      6.244700   -8.996500   71.120000
  H      5.757590   -9.137530   70.241000
  H      6.041200   -7.918120   71.382000
  C      5.654520   -9.958810   72.197700
  H      6.378080  -10.072400   73.052600
  H      5.458680  -11.029200   71.778400
  C      4.431570   -9.321730   72.923800
  H      4.745880   -8.598780   73.637200
  H      3.985250  -10.013200   73.591900
  H      3.658920   -8.965290   72.300600
  H      9.522350   -5.053600   74.966600
  H     10.229100  -11.252800   69.843900

 Total Charge           Charge          ....    0
 Multiplicity           Mult            ....    1
 Number of Electrons    NEL             ....  134
 Basis Dimension        Dim             ....  322

ORBITAL ENERGIES
----------------

  NO   OCC          E(Eh)            E(eV)
   0   2.0000     -88.968964     -2420.9686
   1   2.0000     -88.964769     -2420.8544
   2   2.0000     -10.333595      -281.1914
   3   2.0000     -10.323001      -280.9031
   4   2.0000     -10.315007      -280.6856
   5   2.0000     -10.308483      -280.5081
   6   2.0000     -10.305448      -280.4255
   7   2.0000     -10.302609      -280.3482
   8   2.0000     -10.299839      -280.2729
   9   2.0000     -10.294613      -280.1307
  10   2.0000     -10.294305      -280.1223
  11   2.0000     -10.293656      -280.1046
  12   2.0000     -10.291779      -280.0535
  13   2.0000     -10.291312      -280.0408
  14   2.0000     -10.274927      -279.5950
  15   2.0000     -10.268502      -279.4202
  16   2.0000      -8.085038      -220.0051
  17   2.0000      -8.079259      -219.8478
  18   2.0000      -6.043392      -164.4491
  19   2.0000      -6.039447      -164.3417
  20   2.0000      -6.037846      -164.2982
  21   2.0000      -6.035805      -164.2426
  22   2.0000      -6.034004      -164.1936
  23   2.0000      -6.029755      -164.0780
  24   2.0000      -1.015344       -27.6289
  25   2.0000      -0.985445       -26.8153
  26   2.0000      -0.910284       -24.7701
  27   2.0000      -0.902291       -24.5526
  28   2.0000      -0.870876       -23.6978
  29   2.0000      -0.854999       -23.2657
  30   2.0000      -0.836802       -22.7705
  31   2.0000      -0.813597       -22.1391
  32   2.0000      -0.787672       -21.4336
  33   2.0000      -0.774764       -21.0824
  34   2.0000      -0.709042       -19.2940
  35   2.0000      -0.695471       -18.9247
  36   2.0000      -0.692349       -18.8398
  37   2.0000      -0.665646       -18.1131
  38   2.0000      -0.643535       -17.5115
  39   2.0000      -0.624645       -16.9975
  40   2.0000      -0.596313       -16.2265
  41   2.0000      -0.565404       -15.3854
  42   2.0000      -0.556921       -15.1546
  43   2.0000      -0.551694       -15.0124
  44   2.0000      -0.541918       -14.7463
  45   2.0000      -0.527069       -14.3423
  46   2.0000      -0.522730       -14.2242
  47   2.0000      -0.511049       -13.9064
  48   2.0000      -0.503356       -13.6970
  49   2.0000      -0.499793       -13.6001
  50   2.0000      -0.487111       -13.2550
  51   2.0000      -0.485353       -13.2071
  52   2.0000      -0.468979       -12.7616
  53   2.0000      -0.463434       -12.6107
  54   2.0000      -0.459169       -12.4946
  55   2.0000      -0.453432       -12.3385
  56   2.0000      -0.443937       -12.0801
  57   2.0000      -0.435545       -11.8518
  58   2.0000      -0.427826       -11.6417
  59   2.0000      -0.425411       -11.5760
  60   2.0000      -0.421012       -11.4563
  61   2.0000      -0.413811       -11.2604
  62   2.0000      -0.413054       -11.2398
  63   2.0000      -0.360012        -9.7964
  64   2.0000      -0.337417        -9.1816
  65   2.0000      -0.323454        -8.8016
  66   2.0000      -0.280382        -7.6296
  67   0.0000       0.018406         0.5009
  68   0.0000       0.069995         1.9047
  69   0.0000       0.103536         2.8174
  70   0.0000       0.117449         3.1960
  71   0.0000       0.139095         3.7850

MULLIKEN ATOMIC CHARGES
-----------------------
   0 S :    0.082270
   1 C :   -0.093028
   2 C :   -0.095748
   3 C :    0.024007
   4 C :   -0.107293
   5 H :   -0.017687
   6 C :    0.090304
   7 H :    0.019937
   8 H :    0.043178
   9 C :   -0.107463
  10 H :    0.031653
  11 H :    0.046022
  12 C :   -0.075823
  13 H :    0.032564
  14 H :    0.020163
  15 H :    0.058311
  16 S :    0.118421
  17 C :   -0.086318
  18 C :   -0.048619
  19 C :   -0.061800
  20 C :   -0.137814
  21 H :    0.016342
  22 C :    0.112095
  23 H :    0.001659
  24 H :    0.019217
  25 C :   -0.115437
  26 H :    0.047571
  27 H :    0.048654
  28 C :   -0.022840
  29 H :    0.031021
  30 H :    0.013801
  31 H :    0.026847
  32 H :    0.030263
  33 H :    0.055568
Sum of atomic charges:   -0.0000000

LOEWDIN ATOMIC CHARGES
----------------------
   0 S :    0.390194
   1 C :   -0.183907
   2 C :   -0.051308
   3 C :   -0.064736
   4 C :   -0.181066
   5 H :    0.008513
   6 C :   -0.030584
   7 H :    0.027959
   8 H :    0.035035
   9 C :   -0.041843
  10 H :    0.016759
  11 H :    0.035358
  12 C :   -0.074927
  13 H :    0.023013
  14 H :    0.021476
  15 H :    0.034115
  16 S :    0.436280
  17 C :   -0.201800
  18 C :   -0.065091
  19 C :   -0.060356
  20 C :   -0.200011
  21 H :    0.028988
  22 C :   -0.020553
  23 H :    0.014276
  24 H :    0.034573
  25 C :   -0.043139
  26 H :    0.034097
  27 H :    0.032085
  28 C :   -0.063459
  29 H :    0.027465
  30 H :    0.024058
  31 H :    0.016715
  32 H :    0.012790
  33 H :    0.029031

  Mayer bond orders larger than 0.100000
B(  0-S ,  1-C ) :   1.1215 B(  0-S ,  4-C ) :   1.1624 B(  1-C ,  2-C ) :   1.6047
B(  1-C ,  4-C ) :   0.1002 B(  1-C , 32-H ) :   0.9781 B(  2-C ,  3-C ) :   1.2551
B(  2-C ,  6-C ) :   1.0070 B(  3-C ,  4-C ) :   1.5192 B(  3-C ,  5-H ) :   0.9992
B(  4-C , 20-C ) :   1.0976 B(  6-C ,  7-H ) :   0.9470 B(  6-C ,  8-H ) :   0.9341
B(  6-C ,  9-C ) :   1.0760 B(  9-C , 10-H ) :   0.9533 B(  9-C , 11-H ) :   0.9571
B(  9-C , 12-C ) :   1.0727 B( 12-C , 13-H ) :   0.9766 B( 12-C , 14-H ) :   0.9744
B( 12-C , 15-H ) :   0.9714 B( 16-S , 17-C ) :   1.1675 B( 16-S , 20-C ) :   1.1433
B( 17-C , 18-C ) :   1.5937 B( 17-C , 33-H ) :   0.9705 B( 18-C , 19-C ) :   1.2495
B( 18-C , 21-H ) :   0.9921 B( 19-C , 20-C ) :   1.5861 B( 19-C , 22-C ) :   1.0521
B( 22-C , 23-H ) :   0.9210 B( 22-C , 24-H ) :   0.9405 B( 22-C , 25-C ) :   1.0430
B( 25-C , 26-H ) :   0.9630 B( 25-C , 27-H ) :   0.9564 B( 25-C , 28-C ) :   1.0797
B( 28-C , 29-H ) :   0.9729 B( 28-C , 30-H ) :   0.9688 B( 28-C , 31-H ) :   0.9781

Dispersion correction           -0.014724037
FINAL SINGLE POINT ENERGY     -1339.856749891097

DIPOLE MOMENT
-------------
                                X             Y             Z
Electronic contribution:     20.70342     -11.21507       2.63467
Nuclear contribution   :    -21.16378      11.36746      -2.81128
                        -----------------------------------------
Total Dipole Moment    :     -0.46036       0.15239      -0.17661
                        -----------------------------------------
Magnitude (a.u.)       :      0.51609
Magnitude (Debye)      :      1.31180

Rotational constants in cm-1:     0.017355     0.009553     0.007833
Rotational constants in MHz :   520.304723   286.396029   234.825634

                             ****ORCA TERMINATED NORMALLY****
TOTAL RUN TIME: 0 days 0 hours 0 minutes 34 seconds 741 msec
