                         Program Version 4.2.1 -  RELEASE  -
|  1> ! wB97X-D3 SP def2-SVP
|  2> %pal
|  3> nprocs 16
|  4> end
|  5>
|  6> * xyz 0 1
|  7> S 	 1.96543 	 -8.76507 	 90.4304
|  8> C 	 0.467472 	 -8.70125 	 91.2308
|  9> C 	 -0.441992 	 -9.6089 	 90.7101
| 10> C 	 0.102034 	 -10.3404 	 89.5904
| 11> C 	 1.4715 	 -10.1532 	 89.4655
| 12> H 	 -0.384431 	 -11.1707 	 89.021
| 13> C 	 -1.91885 	 -9.68148 	 90.9843
| 14> H 	 -2.49069 	 -9.69295 	 90.0338
| 15> H 	 -2.21623 	 -8.78505 	 91.545
| 16> C 	 -2.35168 	 -10.9413 	 91.7806
| 17> H 	 -1.98125 	 -11.8395 	 91.2149
| 18> H 	 -1.79342 	 -11.0373 	 92.7541
| 19> C 	 -3.7955 	 -10.9493 	 92.0886
| 20> H 	 -4.16775 	 -10.0926 	 92.7566
| 21> H 	 -4.3397 	 -10.9805 	 91.1686
| 22> H 	 -4.10688 	 -11.9027 	 92.6001
| 23> S 	 3.22008 	 -10.0111 	 87.346
| 24> C 	 3.98462 	 -11.3955 	 86.6477
| 25> C 	 3.56333 	 -12.4367 	 87.3581
| 26> C 	 2.55033 	 -12.2025 	 88.3645
| 27> C 	 2.36833 	 -10.8277 	 88.5749
| 28> H 	 4.016 	 -13.3928 	 87.1123
| 29> C 	 1.98225 	 -13.3283 	 89.2673
| 30> H 	 1.6524 	 -12.8252 	 90.1536
| 31> H 	 2.88557 	 -14.0091 	 89.4733
| 32> C 	 0.927597 	 -14.1948 	 88.6835
| 33> H 	 1.33571 	 -14.8603 	 87.9216
| 34> H 	 0.181955 	 -13.5473 	 88.2572
| 35> C 	 0.151073 	 -15.0184 	 89.7309
| 36> H 	 -0.545358 	 -15.7486 	 89.2608
| 37> H 	 -0.45615 	 -14.3761 	 90.3664
| 38> H 	 0.77447 	 -15.7292 	 90.2262
| 39> H 	 0.204311 	 -7.97593 	 91.9844
| 40> H 	 4.71035 	 -11.499 	 85.9025
| 41> *
| 42>
| 43>                          ****END OF INPUT****

CARTESIAN COORDINATES (ANGSTROEM)
---------------------------------
  S      1.965430   -8.765070   90.430400
  C      0.467472   -8.701250   91.230800
  C     -0.441992   -9.608900   90.710100
  C      0.102034  -10.340400   89.590400
  C      1.471500  -10.153200   89.465500
  H     -0.384431  -11.170700   89.021000
  C     -1.918850   -9.681480   90.984300
  H     -2.490690   -9.692950   90.033800
  H     -2.216230   -8.785050   91.545000
  C     -2.351680  -10.941300   91.780600
  H     -1.981250  -11.839500   91.214900
  H     -1.793420  -11.037300   92.754100
  C     -3.795500  -10.949300   92.088600
  H     -4.167750  -10.092600   92.756600
  H     -4.339700  -10.980500   91.168600
  H     -4.106880  -11.902700   92.600100
  S      3.220080  -10.011100   87.346000
  C      3.984620  -11.395500   86.647700
  C      3.563330  -12.436700   87.358100
  C      2.550330  -12.202500   88.364500
  C      2.368330  -10.827700   88.574900
  H      4.016000  -13.392800   87.112300
  C      1.982250  -13.328300   89.267300
  H      1.652400  -12.825200   90.153600
  H      2.885570  -14.009100   89.473300
  C      0.927597  -14.194800   88.683500
  H      1.335710  -14.860300   87.921600
  H      0.181955  -13.547300   88.257200
  C      0.151073  -15.018400   89.730900
  H     -0.545358  -15.748600   89.260800
  H     -0.456150  -14.376100   90.366400
  H      0.774470  -15.729200   90.226200
  H      0.204311   -7.975930   91.984400
  H      4.710350  -11.499000   85.902500

 Total Charge           Charge          ....    0
 Multiplicity           Mult            ....    1
 Number of Electrons    NEL             ....  134
 Basis Dimension        Dim             ....  322

ORBITAL ENERGIES
----------------

  NO   OCC          E(Eh)            E(eV)
   0   2.0000     -88.968161     -2420.9467
   1   2.0000     -88.959625     -2420.7145
   2   2.0000     -10.330782      -281.1149
   3   2.0000     -10.324558      -280.9455
   4   2.0000     -10.314900      -280.6827
   5   2.0000     -10.307688      -280.4864
   6   2.0000     -10.304455      -280.3985
   7   2.0000     -10.302715      -280.3511
   8   2.0000     -10.301631      -280.3216
   9   2.0000     -10.295332      -280.1502
  10   2.0000     -10.291720      -280.0519
  11   2.0000     -10.291200      -280.0378
  12   2.0000     -10.287355      -279.9332
  13   2.0000     -10.283540      -279.8293
  14   2.0000     -10.282249      -279.7942
  15   2.0000     -10.278606      -279.6951
  16   2.0000      -8.083688      -219.9683
  17   2.0000      -8.075776      -219.7530
  18   2.0000      -6.042101      -164.4139
  19   2.0000      -6.038088      -164.3047
  20   2.0000      -6.034487      -164.2067
  21   2.0000      -6.034361      -164.2033
  22   2.0000      -6.029858      -164.0808
  23   2.0000      -6.026542      -163.9905
  24   2.0000      -1.015415       -27.6308
  25   2.0000      -0.993210       -27.0266
  26   2.0000      -0.914714       -24.8906
  27   2.0000      -0.912406       -24.8278
  28   2.0000      -0.881373       -23.9834
  29   2.0000      -0.854665       -23.2566
  30   2.0000      -0.843760       -22.9599
  31   2.0000      -0.822464       -22.3804
  32   2.0000      -0.779862       -21.2211
  33   2.0000      -0.771556       -20.9951
  34   2.0000      -0.711723       -19.3670
  35   2.0000      -0.695042       -18.9131
  36   2.0000      -0.692520       -18.8444
  37   2.0000      -0.658263       -17.9122
  38   2.0000      -0.642716       -17.4892
  39   2.0000      -0.622117       -16.9287
  40   2.0000      -0.594203       -16.1691
  41   2.0000      -0.577379       -15.7113
  42   2.0000      -0.576261       -15.6808
  43   2.0000      -0.563369       -15.3301
  44   2.0000      -0.529134       -14.3985
  45   2.0000      -0.521319       -14.1858
  46   2.0000      -0.517551       -14.0833
  47   2.0000      -0.514704       -14.0058
  48   2.0000      -0.509437       -13.8625
  49   2.0000      -0.505906       -13.7664
  50   2.0000      -0.499272       -13.5859
  51   2.0000      -0.484090       -13.1727
  52   2.0000      -0.477570       -12.9953
  53   2.0000      -0.467793       -12.7293
  54   2.0000      -0.466150       -12.6846
  55   2.0000      -0.446315       -12.1448
  56   2.0000      -0.440363       -11.9829
  57   2.0000      -0.432155       -11.7595
  58   2.0000      -0.429148       -11.6777
  59   2.0000      -0.424823       -11.5600
  60   2.0000      -0.420846       -11.4518
  61   2.0000      -0.414119       -11.2688
  62   2.0000      -0.405393       -11.0313
  63   2.0000      -0.353561        -9.6209
  64   2.0000      -0.331546        -9.0218
  65   2.0000      -0.322924        -8.7872
  66   2.0000      -0.298115        -8.1121
  67   0.0000       0.030304         0.8246
  68   0.0000       0.074624         2.0306
  69   0.0000       0.112657         3.0655
  70   0.0000       0.115280         3.1369
  71   0.0000       0.129878         3.5341

MULLIKEN ATOMIC CHARGES
-----------------------
   0 S :    0.125565
   1 C :   -0.098631
   2 C :   -0.086760
   3 C :    0.026422
   4 C :   -0.182149
   5 H :    0.033587
   6 C :    0.047113
   7 H :    0.037291
   8 H :    0.015988
   9 C :   -0.108942
  10 H :    0.030610
  11 H :    0.032218
  12 C :   -0.042201
  13 H :    0.048753
  14 H :    0.019889
  15 H :    0.037694
  16 S :    0.098123
  17 C :   -0.048559
  18 C :   -0.044386
  19 C :   -0.044915
  20 C :   -0.127625
  21 H :    0.011421
  22 C :    0.048613
  23 H :    0.024172
  24 H :    0.037349
  25 C :   -0.054387
  26 H :    0.029058
  27 H :    0.016081
  28 C :   -0.046412
  29 H :    0.025780
  30 H :    0.038725
  31 H :    0.021455
  32 H :    0.047157
  33 H :    0.031903
Sum of atomic charges:   -0.0000000

LOEWDIN ATOMIC CHARGES
----------------------
   0 S :    0.427598
   1 C :   -0.206340
   2 C :   -0.068263
   3 C :   -0.057846
   4 C :   -0.194202
   5 H :    0.038825
   6 C :   -0.033156
   7 H :    0.036036
   8 H :    0.027362
   9 C :   -0.053865
  10 H :    0.025460
  11 H :    0.027748
  12 C :   -0.075233
  13 H :    0.035984
  14 H :    0.019292
  15 H :    0.032819
  16 S :    0.426747
  17 C :   -0.185133
  18 C :   -0.076385
  19 C :   -0.057371
  20 C :   -0.219267
  21 H :    0.028390
  22 C :   -0.032836
  23 H :    0.026407
  24 H :    0.039912
  25 C :   -0.042799
  26 H :    0.025236
  27 H :    0.018227
  28 C :   -0.064397
  29 H :    0.030195
  30 H :    0.024278
  31 H :    0.019746
  32 H :    0.029576
  33 H :    0.027254

  Mayer bond orders larger than 0.100000
B(  0-S ,  1-C ) :   1.1521 B(  0-S ,  4-C ) :   1.1527 B(  1-C ,  2-C ) :   1.6056
B(  1-C , 32-H ) :   0.9677 B(  2-C ,  3-C ) :   1.2372 B(  2-C ,  6-C ) :   1.0343
B(  3-C ,  4-C ) :   1.5700 B(  3-C ,  5-H ) :   0.9818 B(  4-C , 20-C ) :   1.0450
B(  6-C ,  7-H ) :   0.9426 B(  6-C ,  8-H ) :   0.9434 B(  6-C ,  9-C ) :   1.0520
B(  9-C , 10-H ) :   0.9530 B(  9-C , 11-H ) :   0.9524 B(  9-C , 12-C ) :   1.0942
B( 12-C , 13-H ) :   0.9702 B( 12-C , 14-H ) :   0.9684 B( 12-C , 15-H ) :   0.9693
B( 16-S , 17-C ) :   1.1376 B( 16-S , 20-C ) :   1.1598 B( 17-C , 18-C ) :   1.6311
B( 17-C , 33-H ) :   0.9752 B( 18-C , 19-C ) :   1.2384 B( 18-C , 21-H ) :   0.9867
B( 19-C , 20-C ) :   1.5632 B( 19-C , 22-C ) :   1.0441 B( 22-C , 23-H ) :   0.9362
B( 22-C , 24-H ) :   0.9369 B( 22-C , 25-C ) :   1.0710 B( 25-C , 26-H ) :   0.9505
B( 25-C , 27-H ) :   0.9521 B( 25-C , 28-C ) :   1.0930 B( 28-C , 29-H ) :   0.9721
B( 28-C , 30-H ) :   0.9755 B( 28-C , 31-H ) :   0.9719

Dispersion correction           -0.014234768
FINAL SINGLE POINT ENERGY     -1339.878163832717

DIPOLE MOMENT
-------------
                                X             Y             Z
Electronic contribution:     24.07060      20.54359     -10.73784
Nuclear contribution   :    -24.48661     -21.05768      10.83864
                        -----------------------------------------
Total Dipole Moment    :     -0.41601      -0.51410       0.10080
                        -----------------------------------------
Magnitude (a.u.)       :      0.66897
Magnitude (Debye)      :      1.70039

Rotational constants in cm-1:     0.017743     0.009321     0.006541
Rotational constants in MHz :   531.919025   279.446289   196.097125

                             ****ORCA TERMINATED NORMALLY****
TOTAL RUN TIME: 0 days 0 hours 0 minutes 35 seconds 546 msec
