                         Program Version 4.2.1 -  RELEASE  -
|  1> ! wB97X-D3 SP def2-SVP
|  2> %pal
|  3> nprocs 16
|  4> end
|  5>
|  6> * xyz 0 1
|  7> S 	 -36.0735 	 74.59 	 153.29
|  8> C 	 -34.9189 	 75.8913 	 153.119
|  9> C 	 -33.6985 	 75.3756 	 152.648
| 10> C 	 -33.7792 	 74.002 	 152.318
| 11> C 	 -35.04 	 73.4239 	 152.558
| 12> H 	 -32.9483 	 73.3159 	 151.997
| 13> C 	 -32.4721 	 76.19 	 152.399
| 14> H 	 -31.5528 	 75.643 	 152.817
| 15> H 	 -32.5688 	 77.0872 	 152.881
| 16> C 	 -32.14 	 76.4299 	 150.928
| 17> H 	 -31.8252 	 75.4442 	 150.722
| 18> H 	 -32.969 	 76.6906 	 150.307
| 19> C 	 -30.9247 	 77.3933 	 150.805
| 20> H 	 -30.4446 	 77.3812 	 149.819
| 21> H 	 -31.0184 	 78.4881 	 151.043
| 22> H 	 -30.179 	 77.0242 	 151.579
| 23> S 	 -36.4713 	 71.9384 	 150.784
| 24> C 	 -36.6275 	 70.2178 	 150.835
| 25> C 	 -35.7618 	 69.7425 	 151.879
| 26> C 	 -35.2478 	 70.7827 	 152.667
| 27> C 	 -35.5126 	 72.0945 	 152.236
| 28> H 	 -35.6183 	 68.6888 	 152.022
| 29> C 	 -34.4341 	 70.4516 	 153.861
| 30> H 	 -34.8075 	 69.5077 	 154.297
| 31> H 	 -34.6344 	 71.2743 	 154.6
| 32> C 	 -32.9148 	 70.3275 	 153.649
| 33> H 	 -32.6058 	 71.1967 	 153.061
| 34> H 	 -32.7513 	 69.4591 	 153.027
| 35> C 	 -31.9779 	 70.4037 	 154.905
| 36> H 	 -32.274 	 69.654 	 155.608
| 37> H 	 -32.0555 	 71.3956 	 155.411
| 38> H 	 -30.9365 	 70.2616 	 154.575
| 39> H 	 -35.2117 	 76.8766 	 153.349
| 40> H 	 -37.1207 	 69.6548 	 150.072
| 41> *
| 42>
| 43>                          ****END OF INPUT****

CARTESIAN COORDINATES (ANGSTROEM)
---------------------------------
  S    -36.073500   74.590000  153.290000
  C    -34.918900   75.891300  153.119000
  C    -33.698500   75.375600  152.648000
  C    -33.779200   74.002000  152.318000
  C    -35.040000   73.423900  152.558000
  H    -32.948300   73.315900  151.997000
  C    -32.472100   76.190000  152.399000
  H    -31.552800   75.643000  152.817000
  H    -32.568800   77.087200  152.881000
  C    -32.140000   76.429900  150.928000
  H    -31.825200   75.444200  150.722000
  H    -32.969000   76.690600  150.307000
  C    -30.924700   77.393300  150.805000
  H    -30.444600   77.381200  149.819000
  H    -31.018400   78.488100  151.043000
  H    -30.179000   77.024200  151.579000
  S    -36.471300   71.938400  150.784000
  C    -36.627500   70.217800  150.835000
  C    -35.761800   69.742500  151.879000
  C    -35.247800   70.782700  152.667000
  C    -35.512600   72.094500  152.236000
  H    -35.618300   68.688800  152.022000
  C    -34.434100   70.451600  153.861000
  H    -34.807500   69.507700  154.297000
  H    -34.634400   71.274300  154.600000
  C    -32.914800   70.327500  153.649000
  H    -32.605800   71.196700  153.061000
  H    -32.751300   69.459100  153.027000
  C    -31.977900   70.403700  154.905000
  H    -32.274000   69.654000  155.608000
  H    -32.055500   71.395600  155.411000
  H    -30.936500   70.261600  154.575000
  H    -35.211700   76.876600  153.349000
  H    -37.120700   69.654800  150.072000

 Total Charge           Charge          ....    0
 Multiplicity           Mult            ....    1
 Number of Electrons    NEL             ....  134
 Basis Dimension        Dim             ....  322

ORBITAL ENERGIES
----------------

  NO   OCC          E(Eh)            E(eV)
   0   2.0000     -88.966818     -2420.9102
   1   2.0000     -88.963967     -2420.8326
   2   2.0000     -10.331228      -281.1270
   3   2.0000     -10.326398      -280.9956
   4   2.0000     -10.322296      -280.8840
   5   2.0000     -10.317365      -280.7498
   6   2.0000     -10.304945      -280.4118
   7   2.0000     -10.301704      -280.3236
   8   2.0000     -10.301471      -280.3173
   9   2.0000     -10.296171      -280.1731
  10   2.0000     -10.288855      -279.9740
  11   2.0000     -10.288553      -279.9658
  12   2.0000     -10.288264      -279.9579
  13   2.0000     -10.285482      -279.8822
  14   2.0000     -10.282843      -279.8104
  15   2.0000     -10.282193      -279.7927
  16   2.0000      -8.082072      -219.9244
  17   2.0000      -8.079021      -219.8413
  18   2.0000      -6.040399      -164.3676
  19   2.0000      -6.037324      -164.2839
  20   2.0000      -6.036225      -164.2540
  21   2.0000      -6.033274      -164.1737
  22   2.0000      -6.033116      -164.1694
  23   2.0000      -6.030319      -164.0933
  24   2.0000      -1.008927       -27.4543
  25   2.0000      -0.986834       -26.8531
  26   2.0000      -0.918617       -24.9968
  27   2.0000      -0.905899       -24.6508
  28   2.0000      -0.869598       -23.6630
  29   2.0000      -0.848643       -23.0928
  30   2.0000      -0.847050       -23.0494
  31   2.0000      -0.811457       -22.0809
  32   2.0000      -0.779186       -21.2027
  33   2.0000      -0.769478       -20.9386
  34   2.0000      -0.710431       -19.3318
  35   2.0000      -0.700174       -19.0527
  36   2.0000      -0.692352       -18.8399
  37   2.0000      -0.666560       -18.1380
  38   2.0000      -0.650306       -17.6957
  39   2.0000      -0.620903       -16.8956
  40   2.0000      -0.592960       -16.1353
  41   2.0000      -0.578611       -15.7448
  42   2.0000      -0.567452       -15.4411
  43   2.0000      -0.559682       -15.2297
  44   2.0000      -0.524555       -14.2739
  45   2.0000      -0.522384       -14.2148
  46   2.0000      -0.516833       -14.0637
  47   2.0000      -0.513226       -13.9656
  48   2.0000      -0.510536       -13.8924
  49   2.0000      -0.500445       -13.6178
  50   2.0000      -0.493845       -13.4382
  51   2.0000      -0.480477       -13.0744
  52   2.0000      -0.473626       -12.8880
  53   2.0000      -0.469962       -12.7883
  54   2.0000      -0.456289       -12.4163
  55   2.0000      -0.445744       -12.1293
  56   2.0000      -0.439327       -11.9547
  57   2.0000      -0.438391       -11.9292
  58   2.0000      -0.429349       -11.6832
  59   2.0000      -0.426391       -11.6027
  60   2.0000      -0.424159       -11.5420
  61   2.0000      -0.415011       -11.2930
  62   2.0000      -0.408904       -11.1269
  63   2.0000      -0.336746        -9.1633
  64   2.0000      -0.326658        -8.8888
  65   2.0000      -0.322207        -8.7677
  66   2.0000      -0.306461        -8.3392
  67   0.0000       0.032261         0.8779
  68   0.0000       0.052604         1.4314
  69   0.0000       0.108653         2.9566
  70   0.0000       0.125143         3.4053
  71   0.0000       0.133769         3.6400

MULLIKEN ATOMIC CHARGES
-----------------------
   0 S :    0.125991
   1 C :   -0.117551
   2 C :   -0.069897
   3 C :    0.028570
   4 C :   -0.195658
   5 H :    0.042056
   6 C :    0.065453
   7 H :    0.037459
   8 H :   -0.006838
   9 C :   -0.029413
  10 H :    0.014021
  11 H :    0.036446
  12 C :   -0.084905
  13 H :    0.041538
  14 H :    0.043702
  15 H :    0.025339
  16 S :    0.115074
  17 C :   -0.096734
  18 C :   -0.044410
  19 C :   -0.020084
  20 C :   -0.157295
  21 H :    0.017856
  22 C :    0.042997
  23 H :    0.022376
  24 H :    0.030212
  25 C :   -0.066767
  26 H :    0.011941
  27 H :    0.021010
  28 C :   -0.047520
  29 H :    0.029583
  30 H :    0.042014
  31 H :    0.042516
  32 H :    0.038537
  33 H :    0.062379
Sum of atomic charges:    0.0000000

LOEWDIN ATOMIC CHARGES
----------------------
   0 S :    0.433860
   1 C :   -0.188006
   2 C :   -0.063145
   3 C :   -0.064634
   4 C :   -0.218032
   5 H :    0.040049
   6 C :   -0.027369
   7 H :    0.040293
   8 H :    0.011231
   9 C :   -0.031301
  10 H :    0.021037
  11 H :    0.021895
  12 C :   -0.077532
  13 H :    0.026446
  14 H :    0.029304
  15 H :    0.029951
  16 S :    0.438110
  17 C :   -0.189494
  18 C :   -0.072809
  19 C :   -0.058438
  20 C :   -0.217815
  21 H :    0.028813
  22 C :   -0.038590
  23 H :    0.028908
  24 H :    0.035498
  25 C :   -0.040898
  26 H :    0.020080
  27 H :    0.019674
  28 C :   -0.063350
  29 H :    0.018599
  30 H :    0.031381
  31 H :    0.030758
  32 H :    0.018924
  33 H :    0.026603

  Mayer bond orders larger than 0.100000
B(  0-S ,  1-C ) :   1.1658 B(  0-S ,  4-C ) :   1.1894 B(  1-C ,  2-C ) :   1.5396
B(  1-C ,  4-C ) :   0.1110 B(  1-C , 32-H ) :   0.9837 B(  2-C ,  3-C ) :   1.2671
B(  2-C ,  6-C ) :   1.0475 B(  3-C ,  4-C ) :   1.5414 B(  3-C ,  5-H ) :   0.9807
B(  4-C , 20-C ) :   1.0149 B(  6-C ,  7-H ) :   0.9366 B(  6-C ,  8-H ) :   0.9389
B(  6-C ,  9-C ) :   1.0444 B(  9-C , 10-H ) :   0.9554 B(  9-C , 11-H ) :   0.9623
B(  9-C , 12-C ) :   1.0735 B( 12-C , 13-H ) :   0.9759 B( 12-C , 14-H ) :   0.9777
B( 12-C , 15-H ) :   0.9695 B( 16-S , 17-C ) :   1.2124 B( 16-S , 20-C ) :   1.1664
B( 17-C , 18-C ) :   1.5025 B( 17-C , 20-C ) :   0.1233 B( 17-C , 33-H ) :   0.9740
B( 18-C , 19-C ) :   1.3131 B( 18-C , 21-H ) :   0.9960 B( 19-C , 20-C ) :   1.5240
B( 19-C , 22-C ) :   1.0595 B( 22-C , 23-H ) :   0.9328 B( 22-C , 24-H ) :   0.9317
B( 22-C , 25-C ) :   1.0620 B( 25-C , 26-H ) :   0.9553 B( 25-C , 27-H ) :   0.9538
B( 25-C , 28-C ) :   1.0779 B( 28-C , 29-H ) :   0.9781 B( 28-C , 30-H ) :   0.9748
B( 28-C , 31-H ) :   0.9746

Dispersion correction           -0.014021310
FINAL SINGLE POINT ENERGY     -1339.873143958637

DIPOLE MOMENT
-------------
                                X             Y             Z
Electronic contribution:    -26.77181      -2.72520      -4.10768
Nuclear contribution   :     27.30461       2.65008       4.08138
                        -----------------------------------------
Total Dipole Moment    :      0.53280      -0.07513      -0.02630
                        -----------------------------------------
Magnitude (a.u.)       :      0.53871
Magnitude (Debye)      :      1.36929

Rotational constants in cm-1:     0.017446     0.008234     0.006946
Rotational constants in MHz :   523.005661   246.834958   208.233410

                             ****ORCA TERMINATED NORMALLY****
TOTAL RUN TIME: 0 days 0 hours 0 minutes 33 seconds 550 msec
