                         Program Version 4.2.1 -  RELEASE  -
|  1> ! wB97X-D3 SP def2-SVP
|  2> %pal
|  3> nprocs 16
|  4> end
|  5>
|  6> * xyz 0 1
|  7> S 	 1.71635 	 2.64321 	 81.0216
|  8> C 	 2.98717 	 3.4434 	 80.2067
|  9> C 	 2.50936 	 4.45707 	 79.4203
| 10> C 	 1.07578 	 4.39987 	 79.3099
| 11> C 	 0.468085 	 3.45471 	 80.1673
| 12> H 	 0.416641 	 5.03158 	 78.6551
| 13> C 	 3.31776 	 5.36253 	 78.5679
| 14> H 	 3.07508 	 5.13654 	 77.5592
| 15> H 	 4.36247 	 5.10693 	 78.6325
| 16> C 	 3.13137 	 6.81787 	 78.9696
| 17> H 	 2.12029 	 7.16901 	 78.7085
| 18> H 	 3.46079 	 6.85941 	 80.0386
| 19> C 	 4.05267 	 7.71807 	 78.1556
| 20> H 	 3.80017 	 8.72723 	 78.493
| 21> H 	 5.14657 	 7.50205 	 78.3521
| 22> H 	 3.68312 	 7.56605 	 77.0874
| 23> S 	 -1.38928 	 1.45847 	 80.1882
| 24> C 	 -3.0099 	 1.86535 	 80.0433
| 25> C 	 -3.25205 	 3.22581 	 80.0037
| 26> C 	 -2.04872 	 3.98289 	 80.2353
| 27> C 	 -0.96742 	 3.16849 	 80.3068
| 28> H 	 -4.24803 	 3.65398 	 79.8508
| 29> C 	 -2.0435 	 5.49968 	 80.2456
| 30> H 	 -0.988888 	 5.78282 	 80.5858
| 31> H 	 -2.72397 	 5.92783 	 80.9458
| 32> C 	 -2.43973 	 6.09791 	 78.8725
| 33> H 	 -3.50636 	 5.8293 	 78.693
| 34> H 	 -1.93056 	 5.48132 	 78.1887
| 35> C 	 -2.21458 	 7.61001 	 78.8554
| 36> H 	 -1.21509 	 7.80337 	 79.1995
| 37> H 	 -2.76936 	 8.02157 	 79.6731
| 38> H 	 -2.50154 	 8.10652 	 77.951
| 39> H 	 4.00397 	 3.24148 	 80.2897
| 40> H 	 -3.77981 	 1.13364 	 79.9572
| 41> *
| 42>
| 43>                          ****END OF INPUT****

CARTESIAN COORDINATES (ANGSTROEM)
---------------------------------
  S      1.716350    2.643210   81.021600
  C      2.987170    3.443400   80.206700
  C      2.509360    4.457070   79.420300
  C      1.075780    4.399870   79.309900
  C      0.468085    3.454710   80.167300
  H      0.416641    5.031580   78.655100
  C      3.317760    5.362530   78.567900
  H      3.075080    5.136540   77.559200
  H      4.362470    5.106930   78.632500
  C      3.131370    6.817870   78.969600
  H      2.120290    7.169010   78.708500
  H      3.460790    6.859410   80.038600
  C      4.052670    7.718070   78.155600
  H      3.800170    8.727230   78.493000
  H      5.146570    7.502050   78.352100
  H      3.683120    7.566050   77.087400
  S     -1.389280    1.458470   80.188200
  C     -3.009900    1.865350   80.043300
  C     -3.252050    3.225810   80.003700
  C     -2.048720    3.982890   80.235300
  C     -0.967420    3.168490   80.306800
  H     -4.248030    3.653980   79.850800
  C     -2.043500    5.499680   80.245600
  H     -0.988888    5.782820   80.585800
  H     -2.723970    5.927830   80.945800
  C     -2.439730    6.097910   78.872500
  H     -3.506360    5.829300   78.693000
  H     -1.930560    5.481320   78.188700
  C     -2.214580    7.610010   78.855400
  H     -1.215090    7.803370   79.199500
  H     -2.769360    8.021570   79.673100
  H     -2.501540    8.106520   77.951000
  H      4.003970    3.241480   80.289700
  H     -3.779810    1.133640   79.957200

 Total Charge           Charge          ....    0
 Multiplicity           Mult            ....    1
 Number of Electrons    NEL             ....  134
 Basis Dimension        Dim             ....  322

ORBITAL ENERGIES
----------------

  NO   OCC          E(Eh)            E(eV)
   0   2.0000     -88.964602     -2420.8499
   1   2.0000     -88.962987     -2420.8059
   2   2.0000     -10.328017      -281.0396
   3   2.0000     -10.324194      -280.9356
   4   2.0000     -10.312325      -280.6126
   5   2.0000     -10.303342      -280.3682
   6   2.0000     -10.302115      -280.3348
   7   2.0000     -10.296771      -280.1894
   8   2.0000     -10.294951      -280.1399
   9   2.0000     -10.294347      -280.1234
  10   2.0000     -10.293380      -280.0971
  11   2.0000     -10.288584      -279.9666
  12   2.0000     -10.287172      -279.9282
  13   2.0000     -10.286612      -279.9129
  14   2.0000     -10.281853      -279.7834
  15   2.0000     -10.277316      -279.6600
  16   2.0000      -8.080901      -219.8925
  17   2.0000      -8.078924      -219.8387
  18   2.0000      -6.039208      -164.3352
  19   2.0000      -6.037398      -164.2860
  20   2.0000      -6.035288      -164.2285
  21   2.0000      -6.033116      -164.1694
  22   2.0000      -6.031661      -164.1298
  23   2.0000      -6.029818      -164.0797
  24   2.0000      -1.013137       -27.5689
  25   2.0000      -0.992494       -27.0071
  26   2.0000      -0.919920       -25.0323
  27   2.0000      -0.915066       -24.9002
  28   2.0000      -0.871565       -23.7165
  29   2.0000      -0.857649       -23.3378
  30   2.0000      -0.845516       -23.0076
  31   2.0000      -0.811281       -22.0761
  32   2.0000      -0.784886       -21.3578
  33   2.0000      -0.773685       -21.0530
  34   2.0000      -0.709132       -19.2965
  35   2.0000      -0.698750       -19.0139
  36   2.0000      -0.687089       -18.6966
  37   2.0000      -0.664590       -18.0844
  38   2.0000      -0.641135       -17.4462
  39   2.0000      -0.618377       -16.8269
  40   2.0000      -0.601777       -16.3752
  41   2.0000      -0.580016       -15.7830
  42   2.0000      -0.568053       -15.4575
  43   2.0000      -0.564648       -15.3649
  44   2.0000      -0.534159       -14.5352
  45   2.0000      -0.524640       -14.2762
  46   2.0000      -0.521233       -14.1835
  47   2.0000      -0.514720       -14.0062
  48   2.0000      -0.505980       -13.7684
  49   2.0000      -0.495624       -13.4866
  50   2.0000      -0.492746       -13.4083
  51   2.0000      -0.485451       -13.2098
  52   2.0000      -0.469170       -12.7668
  53   2.0000      -0.466214       -12.6863
  54   2.0000      -0.464492       -12.6395
  55   2.0000      -0.451640       -12.2898
  56   2.0000      -0.442042       -12.0286
  57   2.0000      -0.437241       -11.8979
  58   2.0000      -0.431795       -11.7497
  59   2.0000      -0.427984       -11.6460
  60   2.0000      -0.425561       -11.5801
  61   2.0000      -0.417120       -11.3504
  62   2.0000      -0.413284       -11.2460
  63   2.0000      -0.348327        -9.4785
  64   2.0000      -0.333056        -9.0629
  65   2.0000      -0.325876        -8.8675
  66   2.0000      -0.292079        -7.9479
  67   0.0000       0.033847         0.9210
  68   0.0000       0.081232         2.2104
  69   0.0000       0.117778         3.2049
  70   0.0000       0.121856         3.3159
  71   0.0000       0.124790         3.3957

MULLIKEN ATOMIC CHARGES
-----------------------
   0 S :    0.114469
   1 C :   -0.090611
   2 C :   -0.089016
   3 C :   -0.000251
   4 C :   -0.157599
   5 H :    0.021571
   6 C :    0.098856
   7 H :    0.019825
   8 H :   -0.003846
   9 C :   -0.114570
  10 H :    0.038463
  11 H :    0.042436
  12 C :   -0.056880
  13 H :    0.036697
  14 H :    0.047435
  15 H :    0.039248
  16 S :    0.118768
  17 C :   -0.066972
  18 C :   -0.053785
  19 C :   -0.040085
  20 C :   -0.138346
  21 H :    0.023756
  22 C :    0.028062
  23 H :    0.043407
  24 H :    0.020937
  25 C :   -0.093991
  26 H :    0.027796
  27 H :    0.019443
  28 C :    0.030708
  29 H :    0.015982
  30 H :    0.010937
  31 H :    0.042554
  32 H :    0.018661
  33 H :    0.045944
Sum of atomic charges:   -0.0000000

LOEWDIN ATOMIC CHARGES
----------------------
   0 S :    0.432317
   1 C :   -0.204269
   2 C :   -0.062892
   3 C :   -0.072106
   4 C :   -0.209977
   5 H :    0.034031
   6 C :   -0.033531
   7 H :    0.026595
   8 H :    0.024634
   9 C :   -0.042108
  10 H :    0.026348
  11 H :    0.032111
  12 C :   -0.071992
  13 H :    0.024939
  14 H :    0.029631
  15 H :    0.032554
  16 S :    0.430124
  17 C :   -0.194257
  18 C :   -0.075238
  19 C :   -0.052256
  20 C :   -0.196613
  21 H :    0.032527
  22 C :   -0.031110
  23 H :    0.036685
  24 H :    0.023965
  25 C :   -0.037217
  26 H :    0.025950
  27 H :    0.011311
  28 C :   -0.057153
  29 H :    0.024963
  30 H :    0.026084
  31 H :    0.025882
  32 H :    0.017187
  33 H :    0.022881

  Mayer bond orders larger than 0.100000
B(  0-S ,  1-C ) :   1.1436 B(  0-S ,  4-C ) :   1.1753 B(  1-C ,  2-C ) :   1.5906
B(  1-C , 32-H ) :   0.9766 B(  2-C ,  3-C ) :   1.2503 B(  2-C ,  6-C ) :   1.0381
B(  3-C ,  4-C ) :   1.5460 B(  3-C ,  5-H ) :   0.9836 B(  4-C , 20-C ) :   1.0152
B(  6-C ,  7-H ) :   0.9316 B(  6-C ,  8-H ) :   0.9367 B(  6-C ,  9-C ) :   1.0636
B(  9-C , 10-H ) :   0.9553 B(  9-C , 11-H ) :   0.9540 B(  9-C , 12-C ) :   1.0856
B( 12-C , 13-H ) :   0.9752 B( 12-C , 14-H ) :   0.9730 B( 12-C , 15-H ) :   0.9722
B( 16-S , 17-C ) :   1.1790 B( 16-S , 20-C ) :   1.1349 B( 17-C , 18-C ) :   1.6019
B( 17-C , 33-H ) :   0.9698 B( 18-C , 19-C ) :   1.2186 B( 18-C , 21-H ) :   0.9920
B( 19-C , 20-C ) :   1.6336 B( 19-C , 22-C ) :   1.0475 B( 22-C , 23-H ) :   0.9385
B( 22-C , 24-H ) :   0.9300 B( 22-C , 25-C ) :   1.0465 B( 25-C , 26-H ) :   0.9490
B( 25-C , 27-H ) :   0.9607 B( 25-C , 28-C ) :   1.0752 B( 28-C , 29-H ) :   0.9711
B( 28-C , 30-H ) :   0.9638 B( 28-C , 31-H ) :   0.9744

Dispersion correction           -0.014316105
FINAL SINGLE POINT ENERGY     -1339.882160827586

DIPOLE MOMENT
-------------
                                X             Y             Z
Electronic contribution:     -3.74177     -30.37880      11.83898
Nuclear contribution   :      3.59708      30.95509     -12.20014
                        -----------------------------------------
Total Dipole Moment    :     -0.14469       0.57629      -0.36117
                        -----------------------------------------
Magnitude (a.u.)       :      0.69533
Magnitude (Debye)      :      1.76739

Rotational constants in cm-1:     0.017631     0.009609     0.006539
Rotational constants in MHz :   528.574398   288.062189   196.039575

                             ****ORCA TERMINATED NORMALLY****
TOTAL RUN TIME: 0 days 0 hours 0 minutes 35 seconds 569 msec
