                         Program Version 4.2.1 -  RELEASE  -
|  1> ! wB97X-D3 SP def2-SVP
|  2> %pal
|  3> nprocs 16
|  4> end
|  5>
|  6> * xyz 0 1
|  7> S 	 -69.7394 	 52.5576 	 135.184
|  8> C 	 -69.486 	 54.0795 	 136.079
|  9> C 	 -70.6734 	 54.667 	 136.334
| 10> C 	 -71.7983 	 53.9346 	 135.779
| 11> C 	 -71.418 	 52.8689 	 134.963
| 12> H 	 -72.8483 	 54.0479 	 135.857
| 13> C 	 -70.8599 	 55.804 	 137.23
| 14> H 	 -71.7842 	 56.1793 	 136.96
| 15> H 	 -70.198 	 56.5348 	 136.935
| 16> C 	 -70.9454 	 55.4499 	 138.696
| 17> H 	 -71.602 	 54.6142 	 138.706
| 18> H 	 -70.016 	 55.2 	 139.195
| 19> C 	 -71.4034 	 56.6064 	 139.497
| 20> H 	 -71.75 	 56.3349 	 140.529
| 21> H 	 -70.5484 	 57.3122 	 139.657
| 22> H 	 -72.2503 	 57.0375 	 139.019
| 23> S 	 -72.2675 	 51.585 	 132.676
| 24> C 	 -73.4741 	 50.3125 	 132.916
| 25> C 	 -74.0112 	 50.3464 	 134.126
| 26> C 	 -73.4038 	 51.2844 	 134.894
| 27> C 	 -72.398 	 52.0465 	 134.329
| 28> H 	 -74.7786 	 49.6578 	 134.469
| 29> C 	 -73.4838 	 51.0929 	 136.408
| 30> H 	 -74.5518 	 50.8206 	 136.704
| 31> H 	 -73.3739 	 52.065 	 136.934
| 32> C 	 -72.4337 	 50.264 	 137.138
| 33> H 	 -72.5441 	 50.4822 	 138.186
| 34> H 	 -71.4742 	 50.621 	 136.79
| 35> C 	 -72.4516 	 48.7233 	 136.911
| 36> H 	 -73.3522 	 48.1594 	 137.026
| 37> H 	 -71.7654 	 48.3103 	 137.629
| 38> H 	 -72.0728 	 48.5116 	 135.891
| 39> H 	 -68.5461 	 54.4407 	 136.347
| 40> H 	 -73.805 	 49.6865 	 132.089
| 41> *
| 42>
| 43>                          ****END OF INPUT****

CARTESIAN COORDINATES (ANGSTROEM)
---------------------------------
  S    -69.739400   52.557600  135.184000
  C    -69.486000   54.079500  136.079000
  C    -70.673400   54.667000  136.334000
  C    -71.798300   53.934600  135.779000
  C    -71.418000   52.868900  134.963000
  H    -72.848300   54.047900  135.857000
  C    -70.859900   55.804000  137.230000
  H    -71.784200   56.179300  136.960000
  H    -70.198000   56.534800  136.935000
  C    -70.945400   55.449900  138.696000
  H    -71.602000   54.614200  138.706000
  H    -70.016000   55.200000  139.195000
  C    -71.403400   56.606400  139.497000
  H    -71.750000   56.334900  140.529000
  H    -70.548400   57.312200  139.657000
  H    -72.250300   57.037500  139.019000
  S    -72.267500   51.585000  132.676000
  C    -73.474100   50.312500  132.916000
  C    -74.011200   50.346400  134.126000
  C    -73.403800   51.284400  134.894000
  C    -72.398000   52.046500  134.329000
  H    -74.778600   49.657800  134.469000
  C    -73.483800   51.092900  136.408000
  H    -74.551800   50.820600  136.704000
  H    -73.373900   52.065000  136.934000
  C    -72.433700   50.264000  137.138000
  H    -72.544100   50.482200  138.186000
  H    -71.474200   50.621000  136.790000
  C    -72.451600   48.723300  136.911000
  H    -73.352200   48.159400  137.026000
  H    -71.765400   48.310300  137.629000
  H    -72.072800   48.511600  135.891000
  H    -68.546100   54.440700  136.347000
  H    -73.805000   49.686500  132.089000

 Total Charge           Charge          ....    0
 Multiplicity           Mult            ....    1
 Number of Electrons    NEL             ....  134
 Basis Dimension        Dim             ....  322

ORBITAL ENERGIES
----------------

  NO   OCC          E(Eh)            E(eV)
   0   2.0000     -88.965428     -2420.8724
   1   2.0000     -88.965178     -2420.8656
   2   2.0000     -10.325349      -280.9670
   3   2.0000     -10.320855      -280.8447
   4   2.0000     -10.315500      -280.6990
   5   2.0000     -10.309447      -280.5343
   6   2.0000     -10.296622      -280.1853
   7   2.0000     -10.292963      -280.0858
   8   2.0000     -10.290757      -280.0257
   9   2.0000     -10.288464      -279.9633
  10   2.0000     -10.284883      -279.8659
  11   2.0000     -10.281044      -279.7614
  12   2.0000     -10.278702      -279.6977
  13   2.0000     -10.277925      -279.6766
  14   2.0000     -10.273016      -279.5430
  15   2.0000     -10.269779      -279.4549
  16   2.0000      -8.080435      -219.8798
  17   2.0000      -8.079814      -219.8629
  18   2.0000      -6.038799      -164.3241
  19   2.0000      -6.038420      -164.3138
  20   2.0000      -6.034807      -164.2154
  21   2.0000      -6.034378      -164.2038
  22   2.0000      -6.031366      -164.1218
  23   2.0000      -6.030458      -164.0971
  24   2.0000      -1.018262       -27.7083
  25   2.0000      -0.992886       -27.0178
  26   2.0000      -0.930179       -25.3114
  27   2.0000      -0.901949       -24.5433
  28   2.0000      -0.883878       -24.0516
  29   2.0000      -0.854077       -23.2406
  30   2.0000      -0.849212       -23.1082
  31   2.0000      -0.817588       -22.2477
  32   2.0000      -0.784995       -21.3608
  33   2.0000      -0.774112       -21.0647
  34   2.0000      -0.714105       -19.4318
  35   2.0000      -0.705575       -19.1997
  36   2.0000      -0.687274       -18.7017
  37   2.0000      -0.667519       -18.1641
  38   2.0000      -0.650325       -17.6962
  39   2.0000      -0.617871       -16.8131
  40   2.0000      -0.597293       -16.2532
  41   2.0000      -0.584753       -15.9119
  42   2.0000      -0.574920       -15.6444
  43   2.0000      -0.551914       -15.0183
  44   2.0000      -0.540147       -14.6982
  45   2.0000      -0.526666       -14.3313
  46   2.0000      -0.521680       -14.1956
  47   2.0000      -0.517617       -14.0851
  48   2.0000      -0.508638       -13.8407
  49   2.0000      -0.505473       -13.7546
  50   2.0000      -0.488626       -13.2962
  51   2.0000      -0.482124       -13.1193
  52   2.0000      -0.476421       -12.9641
  53   2.0000      -0.468271       -12.7423
  54   2.0000      -0.462056       -12.5732
  55   2.0000      -0.445442       -12.1211
  56   2.0000      -0.443316       -12.0632
  57   2.0000      -0.431545       -11.7429
  58   2.0000      -0.431009       -11.7283
  59   2.0000      -0.428806       -11.6684
  60   2.0000      -0.417234       -11.3535
  61   2.0000      -0.409092       -11.1319
  62   2.0000      -0.407158       -11.0793
  63   2.0000      -0.347454        -9.4547
  64   2.0000      -0.336689        -9.1618
  65   2.0000      -0.326636        -8.8882
  66   2.0000      -0.296133        -8.0582
  67   0.0000       0.026147         0.7115
  68   0.0000       0.070607         1.9213
  69   0.0000       0.114338         3.1113
  70   0.0000       0.119880         3.2621
  71   0.0000       0.132866         3.6155

MULLIKEN ATOMIC CHARGES
-----------------------
   0 S :    0.104040
   1 C :   -0.101430
   2 C :   -0.087153
   3 C :    0.014963
   4 C :   -0.125955
   5 H :    0.005368
   6 C :    0.156593
   7 H :   -0.017933
   8 H :   -0.000046
   9 C :   -0.024640
  10 H :    0.014184
  11 H :    0.022672
  12 C :   -0.051327
  13 H :    0.034495
  14 H :    0.040344
  15 H :    0.017492
  16 S :    0.108835
  17 C :   -0.099601
  18 C :   -0.008351
  19 C :   -0.003723
  20 C :   -0.190883
  21 H :    0.024067
  22 C :    0.006337
  23 H :    0.020197
  24 H :    0.008569
  25 C :   -0.026228
  26 H :    0.027029
  27 H :    0.020566
  28 C :   -0.048440
  29 H :    0.019658
  30 H :    0.026577
  31 H :    0.036450
  32 H :    0.020791
  33 H :    0.056486
Sum of atomic charges:    0.0000000

LOEWDIN ATOMIC CHARGES
----------------------
   0 S :    0.402324
   1 C :   -0.170515
   2 C :   -0.056939
   3 C :   -0.056584
   4 C :   -0.202133
   5 H :    0.024664
   6 C :   -0.024402
   7 H :    0.022550
   8 H :    0.022315
   9 C :   -0.032910
  10 H :    0.020885
  11 H :    0.025243
  12 C :   -0.064328
  13 H :    0.030110
  14 H :    0.031903
  15 H :    0.015683
  16 S :    0.412939
  17 C :   -0.163707
  18 C :   -0.073358
  19 C :   -0.064996
  20 C :   -0.213126
  21 H :    0.041113
  22 C :   -0.042471
  23 H :    0.027726
  24 H :    0.027634
  25 C :   -0.031108
  26 H :    0.023876
  27 H :    0.021340
  28 C :   -0.070333
  29 H :    0.016540
  30 H :    0.025101
  31 H :    0.029168
  32 H :    0.017067
  33 H :    0.028728

  Mayer bond orders larger than 0.100000
B(  0-S ,  1-C ) :   1.1154 B(  0-S ,  4-C ) :   1.1491 B(  1-C ,  2-C ) :   1.6137
B(  1-C , 32-H ) :   0.9860 B(  2-C ,  3-C ) :   1.2034 B(  2-C ,  6-C ) :   1.0395
B(  3-C ,  4-C ) :   1.5673 B(  3-C ,  5-H ) :   1.0013 B(  4-C , 20-C ) :   1.0625
B(  6-C ,  7-H ) :   0.9182 B(  6-C ,  8-H ) :   0.9188 B(  6-C ,  9-C ) :   1.0662
B(  9-C , 10-H ) :   0.9499 B(  9-C , 11-H ) :   0.9533 B(  9-C , 12-C ) :   1.0926
B( 12-C , 13-H ) :   0.9712 B( 12-C , 14-H ) :   0.9743 B( 12-C , 15-H ) :   0.9734
B( 16-S , 17-C ) :   1.1670 B( 16-S , 20-C ) :   1.1394 B( 17-C , 18-C ) :   1.5791
B( 17-C , 33-H ) :   0.9636 B( 18-C , 19-C ) :   1.2896 B( 18-C , 21-H ) :   0.9945
B( 19-C , 20-C ) :   1.5550 B( 19-C , 22-C ) :   1.0552 B( 22-C , 23-H ) :   0.9361
B( 22-C , 24-H ) :   0.9267 B( 22-C , 25-C ) :   1.0725 B( 25-C , 26-H ) :   0.9557
B( 25-C , 27-H ) :   0.9450 B( 25-C , 28-C ) :   1.0816 B( 28-C , 29-H ) :   0.9781
B( 28-C , 30-H ) :   0.9742 B( 28-C , 31-H ) :   0.9743

Dispersion correction           -0.015401570
FINAL SINGLE POINT ENERGY     -1339.851701300385

DIPOLE MOMENT
-------------
                                X             Y             Z
Electronic contribution:      5.02010      -4.17662     -25.63533
Nuclear contribution   :     -5.25567       4.23608      26.20256
                        -----------------------------------------
Total Dipole Moment    :     -0.23557       0.05946       0.56723
                        -----------------------------------------
Magnitude (a.u.)       :      0.61707
Magnitude (Debye)      :      1.56848

Rotational constants in cm-1:     0.021932     0.008342     0.007328
Rotational constants in MHz :   657.492095   250.094348   219.696263

                             ****ORCA TERMINATED NORMALLY****
TOTAL RUN TIME: 0 days 0 hours 0 minutes 37 seconds 254 msec
