                         Program Version 4.2.1 -  RELEASE  -
|  1> ! wB97X-D3 SP def2-SVP
|  2> %pal
|  3> nprocs 16
|  4> end
|  5>
|  6> * xyz 0 1
|  7> S 	 -80.1357 	 44.6986 	 140.125
|  8> C 	 -80.465 	 43.0685 	 140.518
|  9> C 	 -80.0328 	 42.1723 	 139.51
| 10> C 	 -79.4455 	 42.8559 	 138.389
| 11> C 	 -79.4134 	 44.2195 	 138.578
| 12> H 	 -79.0651 	 42.3683 	 137.519
| 13> C 	 -80.2902 	 40.6474 	 139.631
| 14> H 	 -80.6404 	 40.2342 	 138.719
| 15> H 	 -81.1615 	 40.6102 	 140.276
| 16> C 	 -79.0624 	 39.8348 	 140.16
| 17> H 	 -78.7289 	 40.3646 	 141.029
| 18> H 	 -79.3148 	 38.7181 	 140.387
| 19> C 	 -77.981 	 39.6502 	 138.989
| 20> H 	 -77.8304 	 40.5082 	 138.396
| 21> H 	 -77.0637 	 39.3713 	 139.426
| 22> H 	 -78.1847 	 38.7754 	 138.345
| 23> S 	 -80.6421 	 46.1642 	 137.159
| 24> C 	 -79.7414 	 47.044 	 135.937
| 25> C 	 -78.3885 	 46.6705 	 135.96
| 26> C 	 -78.0827 	 45.5898 	 136.844
| 27> C 	 -79.1485 	 45.2674 	 137.661
| 28> H 	 -77.6496 	 47.1012 	 135.3
| 29> C 	 -76.7654 	 44.8849 	 136.961
| 30> H 	 -76.4689 	 44.8909 	 138.031
| 31> H 	 -76.0848 	 45.4855 	 136.401
| 32> C 	 -76.6532 	 43.4465 	 136.422
| 33> H 	 -76.9615 	 42.7231 	 137.16
| 34> H 	 -75.6164 	 43.0672 	 136.338
| 35> C 	 -77.3659 	 43.1313 	 135.07
| 36> H 	 -77.8163 	 43.9662 	 134.647
| 37> H 	 -78.1892 	 42.4097 	 135.157
| 38> H 	 -76.6062 	 42.8264 	 134.405
| 39> H 	 -80.9014 	 42.7334 	 141.444
| 40> H 	 -80.1831 	 47.7319 	 135.191
| 41> *
| 42>
| 43>                          ****END OF INPUT****

CARTESIAN COORDINATES (ANGSTROEM)
---------------------------------
  S    -80.135700   44.698600  140.125000
  C    -80.465000   43.068500  140.518000
  C    -80.032800   42.172300  139.510000
  C    -79.445500   42.855900  138.389000
  C    -79.413400   44.219500  138.578000
  H    -79.065100   42.368300  137.519000
  C    -80.290200   40.647400  139.631000
  H    -80.640400   40.234200  138.719000
  H    -81.161500   40.610200  140.276000
  C    -79.062400   39.834800  140.160000
  H    -78.728900   40.364600  141.029000
  H    -79.314800   38.718100  140.387000
  C    -77.981000   39.650200  138.989000
  H    -77.830400   40.508200  138.396000
  H    -77.063700   39.371300  139.426000
  H    -78.184700   38.775400  138.345000
  S    -80.642100   46.164200  137.159000
  C    -79.741400   47.044000  135.937000
  C    -78.388500   46.670500  135.960000
  C    -78.082700   45.589800  136.844000
  C    -79.148500   45.267400  137.661000
  H    -77.649600   47.101200  135.300000
  C    -76.765400   44.884900  136.961000
  H    -76.468900   44.890900  138.031000
  H    -76.084800   45.485500  136.401000
  C    -76.653200   43.446500  136.422000
  H    -76.961500   42.723100  137.160000
  H    -75.616400   43.067200  136.338000
  C    -77.365900   43.131300  135.070000
  H    -77.816300   43.966200  134.647000
  H    -78.189200   42.409700  135.157000
  H    -76.606200   42.826400  134.405000
  H    -80.901400   42.733400  141.444000
  H    -80.183100   47.731900  135.191000

 Total Charge           Charge          ....    0
 Multiplicity           Mult            ....    1
 Number of Electrons    NEL             ....  134
 Basis Dimension        Dim             ....  322

ORBITAL ENERGIES
----------------

  NO   OCC          E(Eh)            E(eV)
   0   2.0000     -88.967165     -2420.9196
   1   2.0000     -88.963877     -2420.8302
   2   2.0000     -10.326738      -281.0048
   3   2.0000     -10.324277      -280.9379
   4   2.0000     -10.322746      -280.8962
   5   2.0000     -10.314274      -280.6657
   6   2.0000     -10.305651      -280.4310
   7   2.0000     -10.302699      -280.3507
   8   2.0000     -10.299813      -280.2722
   9   2.0000     -10.297293      -280.2036
  10   2.0000     -10.296791      -280.1899
  11   2.0000     -10.291967      -280.0587
  12   2.0000     -10.291343      -280.0417
  13   2.0000     -10.286946      -279.9220
  14   2.0000     -10.276570      -279.6397
  15   2.0000     -10.269316      -279.4423
  16   2.0000      -8.082276      -219.9299
  17   2.0000      -8.077704      -219.8055
  18   2.0000      -6.040623      -164.3737
  19   2.0000      -6.036658      -164.2658
  20   2.0000      -6.036246      -164.2546
  21   2.0000      -6.033250      -164.1731
  22   2.0000      -6.032281      -164.1467
  23   2.0000      -6.028511      -164.0441
  24   2.0000      -1.005811       -27.3695
  25   2.0000      -0.978248       -26.6195
  26   2.0000      -0.906821       -24.6759
  27   2.0000      -0.901819       -24.5398
  28   2.0000      -0.868152       -23.6236
  29   2.0000      -0.848853       -23.0985
  30   2.0000      -0.845155       -22.9978
  31   2.0000      -0.812849       -22.1187
  32   2.0000      -0.787789       -21.4368
  33   2.0000      -0.770198       -20.9581
  34   2.0000      -0.712591       -19.3906
  35   2.0000      -0.700915       -19.0729
  36   2.0000      -0.692651       -18.8480
  37   2.0000      -0.666110       -18.1258
  38   2.0000      -0.645594       -17.5675
  39   2.0000      -0.616249       -16.7690
  40   2.0000      -0.584587       -15.9074
  41   2.0000      -0.568935       -15.4815
  42   2.0000      -0.557424       -15.1683
  43   2.0000      -0.551254       -15.0004
  44   2.0000      -0.544597       -14.8192
  45   2.0000      -0.536973       -14.6118
  46   2.0000      -0.515866       -14.0374
  47   2.0000      -0.504704       -13.7337
  48   2.0000      -0.502187       -13.6652
  49   2.0000      -0.492409       -13.3991
  50   2.0000      -0.490536       -13.3482
  51   2.0000      -0.485336       -13.2067
  52   2.0000      -0.473731       -12.8909
  53   2.0000      -0.463384       -12.6093
  54   2.0000      -0.461228       -12.5506
  55   2.0000      -0.447065       -12.1653
  56   2.0000      -0.442592       -12.0435
  57   2.0000      -0.435427       -11.8486
  58   2.0000      -0.434146       -11.8137
  59   2.0000      -0.428776       -11.6676
  60   2.0000      -0.427620       -11.6361
  61   2.0000      -0.411456       -11.1963
  62   2.0000      -0.404771       -11.0144
  63   2.0000      -0.347442        -9.4544
  64   2.0000      -0.331110        -9.0100
  65   2.0000      -0.326336        -8.8801
  66   2.0000      -0.290782        -7.9126
  67   0.0000       0.030370         0.8264
  68   0.0000       0.054770         1.4904
  69   0.0000       0.115422         3.1408
  70   0.0000       0.120119         3.2686
  71   0.0000       0.125014         3.4018

MULLIKEN ATOMIC CHARGES
-----------------------
   0 S :    0.121822
   1 C :   -0.105727
   2 C :   -0.133620
   3 C :    0.083066
   4 C :   -0.178769
   5 H :   -0.006435
   6 C :    0.083406
   7 H :    0.013980
   8 H :    0.017605
   9 C :   -0.076250
  10 H :    0.033787
  11 H :    0.049208
  12 C :   -0.039764
  13 H :    0.017354
  14 H :    0.020258
  15 H :    0.033562
  16 S :    0.100493
  17 C :   -0.102977
  18 C :   -0.025952
  19 C :   -0.072159
  20 C :   -0.147955
  21 H :    0.014074
  22 C :    0.130562
  23 H :    0.049395
  24 H :    0.005282
  25 C :   -0.110211
  26 H :    0.013836
  27 H :    0.025724
  28 C :   -0.011597
  29 H :    0.016314
  30 H :    0.036065
  31 H :    0.025778
  32 H :    0.045765
  33 H :    0.074083
Sum of atomic charges:    0.0000000

LOEWDIN ATOMIC CHARGES
----------------------
   0 S :    0.421208
   1 C :   -0.209294
   2 C :   -0.059883
   3 C :   -0.050295
   4 C :   -0.194447
   5 H :    0.027601
   6 C :   -0.030823
   7 H :    0.022321
   8 H :    0.028432
   9 C :   -0.034082
  10 H :    0.019340
  11 H :    0.036534
  12 C :   -0.063780
  13 H :    0.012286
  14 H :    0.021030
  15 H :    0.030281
  16 S :    0.383944
  17 C :   -0.187178
  18 C :   -0.074695
  19 C :   -0.056168
  20 C :   -0.185447
  21 H :    0.028335
  22 C :   -0.026623
  23 H :    0.044622
  24 H :    0.024537
  25 C :   -0.048046
  26 H :    0.016764
  27 H :    0.029494
  28 C :   -0.059885
  29 H :    0.018323
  30 H :    0.028056
  31 H :    0.023888
  32 H :    0.025211
  33 H :    0.038442

  Mayer bond orders larger than 0.100000
B(  0-S ,  1-C ) :   1.1561 B(  0-S ,  4-C ) :   1.1529 B(  1-C ,  2-C ) :   1.5927
B(  1-C , 32-H ) :   0.9659 B(  2-C ,  3-C ) :   1.2515 B(  2-C ,  6-C ) :   1.0142
B(  3-C ,  4-C ) :   1.5591 B(  3-C ,  5-H ) :   0.9938 B(  4-C , 20-C ) :   1.0382
B(  6-C ,  7-H ) :   0.9461 B(  6-C ,  8-H ) :   0.9442 B(  6-C ,  9-C ) :   1.0519
B(  9-C , 10-H ) :   0.9616 B(  9-C , 11-H ) :   0.9592 B(  9-C , 12-C ) :   1.0598
B( 12-C , 13-H ) :   0.9830 B( 12-C , 14-H ) :   0.9727 B( 12-C , 15-H ) :   0.9748
B( 16-S , 17-C ) :   1.1603 B( 16-S , 20-C ) :   1.1215 B( 17-C , 18-C ) :   1.5910
B( 17-C , 20-C ) :   0.1031 B( 17-C , 33-H ) :   0.9635 B( 18-C , 19-C ) :   1.2439
B( 18-C , 21-H ) :   0.9848 B( 19-C , 20-C ) :   1.6021 B( 19-C , 22-C ) :   1.0471
B( 22-C , 23-H ) :   0.9336 B( 22-C , 24-H ) :   0.9262 B( 22-C , 25-C ) :   1.0646
B( 25-C , 26-H ) :   0.9563 B( 25-C , 27-H ) :   0.9591 B( 25-C , 28-C ) :   1.0545
B( 28-C , 29-H ) :   0.9776 B( 28-C , 30-H ) :   0.9751 B( 28-C , 31-H ) :   0.9775

Dispersion correction           -0.015912340
FINAL SINGLE POINT ENERGY     -1339.866612533512

DIPOLE MOMENT
-------------
                                X             Y             Z
Electronic contribution:    -14.96255      24.16663       6.48967
Nuclear contribution   :     15.29104     -24.65488      -6.77156
                        -----------------------------------------
Total Dipole Moment    :      0.32849      -0.48825      -0.28189
                        -----------------------------------------
Magnitude (a.u.)       :      0.65250
Magnitude (Debye)      :      1.65853

Rotational constants in cm-1:     0.019634     0.010080     0.007426
Rotational constants in MHz :   588.606397   302.205101   222.617821

                             ****ORCA TERMINATED NORMALLY****
TOTAL RUN TIME: 0 days 0 hours 0 minutes 37 seconds 867 msec
