                         Program Version 4.2.1 -  RELEASE  -
|  1> ! wB97X-D3 SP def2-SVP
|  2> %pal
|  3> nprocs 16
|  4> end
|  5>
|  6> * xyz 0 1
|  7> S 	 6.22444 	 -4.81231 	 89.778
|  8> C 	 7.7907 	 -4.01788 	 89.9919
|  9> C 	 8.50986 	 -3.95419 	 88.7946
| 10> C 	 7.80606 	 -4.5802 	 87.7331
| 11> C 	 6.51367 	 -5.00161 	 88.0996
| 12> H 	 8.19674 	 -4.65055 	 86.6878
| 13> C 	 9.95342 	 -3.38615 	 88.6756
| 14> H 	 10.1217 	 -2.83022 	 89.5964
| 15> H 	 9.96169 	 -2.59389 	 87.9655
| 16> C 	 10.9739 	 -4.42355 	 88.3711
| 17> H 	 10.9551 	 -5.33247 	 89.0958
| 18> H 	 10.6035 	 -4.89775 	 87.4377
| 19> C 	 12.3694 	 -3.71999 	 88.0952
| 20> H 	 13.1692 	 -4.40223 	 88.1997
| 21> H 	 12.335 	 -3.34802 	 87.0561
| 22> H 	 12.4805 	 -2.9328 	 88.8884
| 23> S 	 4.39542 	 -6.83252 	 87.9154
| 24> C 	 3.51432 	 -7.02736 	 86.5026
| 25> C 	 4.09233 	 -6.37006 	 85.4455
| 26> C 	 5.29702 	 -5.61784 	 85.8354
| 27> C 	 5.58033 	 -5.69906 	 87.1908
| 28> H 	 3.78363 	 -6.44338 	 84.4415
| 29> C 	 5.86534 	 -4.67808 	 84.8029
| 30> H 	 6.30784 	 -3.84172 	 85.2283
| 31> H 	 5.02171 	 -4.27052 	 84.234
| 32> C 	 6.81754 	 -5.28983 	 83.8432
| 33> H 	 6.36715 	 -6.21926 	 83.3477
| 34> H 	 7.65165 	 -5.67177 	 84.3879
| 35> C 	 7.34904 	 -4.26022 	 82.8251
| 36> H 	 8.08936 	 -4.74419 	 82.1472
| 37> H 	 7.76411 	 -3.40143 	 83.2678
| 38> H 	 6.46777 	 -4.16103 	 82.161
| 39> H 	 8.19824 	 -3.81906 	 90.9304
| 40> H 	 2.50215 	 -7.36899 	 86.4373
| 41> *
| 42>
| 43>                          ****END OF INPUT****

CARTESIAN COORDINATES (ANGSTROEM)
---------------------------------
  S      6.224440   -4.812310   89.778000
  C      7.790700   -4.017880   89.991900
  C      8.509860   -3.954190   88.794600
  C      7.806060   -4.580200   87.733100
  C      6.513670   -5.001610   88.099600
  H      8.196740   -4.650550   86.687800
  C      9.953420   -3.386150   88.675600
  H     10.121700   -2.830220   89.596400
  H      9.961690   -2.593890   87.965500
  C     10.973900   -4.423550   88.371100
  H     10.955100   -5.332470   89.095800
  H     10.603500   -4.897750   87.437700
  C     12.369400   -3.719990   88.095200
  H     13.169200   -4.402230   88.199700
  H     12.335000   -3.348020   87.056100
  H     12.480500   -2.932800   88.888400
  S      4.395420   -6.832520   87.915400
  C      3.514320   -7.027360   86.502600
  C      4.092330   -6.370060   85.445500
  C      5.297020   -5.617840   85.835400
  C      5.580330   -5.699060   87.190800
  H      3.783630   -6.443380   84.441500
  C      5.865340   -4.678080   84.802900
  H      6.307840   -3.841720   85.228300
  H      5.021710   -4.270520   84.234000
  C      6.817540   -5.289830   83.843200
  H      6.367150   -6.219260   83.347700
  H      7.651650   -5.671770   84.387900
  C      7.349040   -4.260220   82.825100
  H      8.089360   -4.744190   82.147200
  H      7.764110   -3.401430   83.267800
  H      6.467770   -4.161030   82.161000
  H      8.198240   -3.819060   90.930400
  H      2.502150   -7.368990   86.437300

 Total Charge           Charge          ....    0
 Multiplicity           Mult            ....    1
 Number of Electrons    NEL             ....  134
 Basis Dimension        Dim             ....  322

ORBITAL ENERGIES
----------------

  NO   OCC          E(Eh)            E(eV)
   0   2.0000     -88.971652     -2421.0417
   1   2.0000     -88.960829     -2420.7472
   2   2.0000     -10.334690      -281.2212
   3   2.0000     -10.332374      -281.1582
   4   2.0000     -10.312898      -280.6282
   5   2.0000     -10.311305      -280.5849
   6   2.0000     -10.304782      -280.4074
   7   2.0000     -10.304732      -280.4060
   8   2.0000     -10.299266      -280.2573
   9   2.0000     -10.296663      -280.1864
  10   2.0000     -10.291538      -280.0470
  11   2.0000     -10.291032      -280.0332
  12   2.0000     -10.287433      -279.9353
  13   2.0000     -10.285265      -279.8763
  14   2.0000     -10.281656      -279.7781
  15   2.0000     -10.281266      -279.7675
  16   2.0000      -8.086364      -220.0412
  17   2.0000      -8.076703      -219.7783
  18   2.0000      -6.044794      -164.4872
  19   2.0000      -6.040872      -164.3805
  20   2.0000      -6.037208      -164.2808
  21   2.0000      -6.035285      -164.2285
  22   2.0000      -6.030950      -164.1105
  23   2.0000      -6.027425      -164.0146
  24   2.0000      -1.006901       -27.3992
  25   2.0000      -0.986027       -26.8312
  26   2.0000      -0.919821       -25.0296
  27   2.0000      -0.914886       -24.8953
  28   2.0000      -0.867693       -23.6111
  29   2.0000      -0.853141       -23.2152
  30   2.0000      -0.842792       -22.9335
  31   2.0000      -0.811699       -22.0874
  32   2.0000      -0.784576       -21.3494
  33   2.0000      -0.776173       -21.1207
  34   2.0000      -0.707016       -19.2389
  35   2.0000      -0.697891       -18.9906
  36   2.0000      -0.693304       -18.8658
  37   2.0000      -0.664953       -18.0943
  38   2.0000      -0.640387       -17.4258
  39   2.0000      -0.623389       -16.9633
  40   2.0000      -0.602896       -16.4056
  41   2.0000      -0.574197       -15.6247
  42   2.0000      -0.570606       -15.5270
  43   2.0000      -0.558500       -15.1975
  44   2.0000      -0.529421       -14.4063
  45   2.0000      -0.526145       -14.3171
  46   2.0000      -0.515127       -14.0173
  47   2.0000      -0.510788       -13.8992
  48   2.0000      -0.507665       -13.8143
  49   2.0000      -0.503387       -13.6979
  50   2.0000      -0.498290       -13.5592
  51   2.0000      -0.479937       -13.0598
  52   2.0000      -0.472183       -12.8488
  53   2.0000      -0.467571       -12.7232
  54   2.0000      -0.459011       -12.4903
  55   2.0000      -0.457595       -12.4518
  56   2.0000      -0.448018       -12.1912
  57   2.0000      -0.444522       -12.0960
  58   2.0000      -0.432918       -11.7803
  59   2.0000      -0.421144       -11.4599
  60   2.0000      -0.417553       -11.3622
  61   2.0000      -0.413130       -11.2418
  62   2.0000      -0.407807       -11.0970
  63   2.0000      -0.355729        -9.6799
  64   2.0000      -0.336597        -9.1593
  65   2.0000      -0.325201        -8.8492
  66   2.0000      -0.286679        -7.8009
  67   0.0000       0.020933         0.5696
  68   0.0000       0.084756         2.3063
  69   0.0000       0.104513         2.8439
  70   0.0000       0.119383         3.2486
  71   0.0000       0.125779         3.4226

MULLIKEN ATOMIC CHARGES
-----------------------
   0 S :    0.118558
   1 C :   -0.105191
   2 C :   -0.093061
   3 C :   -0.018898
   4 C :   -0.117543
   5 H :    0.027485
   6 C :    0.104823
   7 H :    0.008068
   8 H :    0.017515
   9 C :   -0.130325
  10 H :    0.050804
  11 H :    0.027572
  12 C :   -0.030227
  13 H :    0.030576
  14 H :    0.046907
  15 H :    0.041962
  16 S :    0.084994
  17 C :   -0.062442
  18 C :   -0.028158
  19 C :   -0.053904
  20 C :   -0.126626
  21 H :    0.005385
  22 C :    0.078307
  23 H :   -0.002632
  24 H :    0.016616
  25 C :   -0.103545
  26 H :    0.031830
  27 H :    0.014574
  28 C :   -0.027917
  29 H :    0.035939
  30 H :    0.036446
  31 H :    0.033017
  32 H :    0.026922
  33 H :    0.062167
Sum of atomic charges:   -0.0000000

LOEWDIN ATOMIC CHARGES
----------------------
   0 S :    0.422184
   1 C :   -0.188144
   2 C :   -0.053966
   3 C :   -0.073010
   4 C :   -0.201396
   5 H :    0.035878
   6 C :   -0.030766
   7 H :    0.025841
   8 H :    0.026499
   9 C :   -0.052176
  10 H :    0.035212
  11 H :    0.023469
  12 C :   -0.060032
  13 H :    0.019465
  14 H :    0.032810
  15 H :    0.031303
  16 S :    0.404079
  17 C :   -0.203019
  18 C :   -0.066270
  19 C :   -0.050490
  20 C :   -0.181857
  21 H :    0.022035
  22 C :   -0.032508
  23 H :    0.017675
  24 H :    0.031987
  25 C :   -0.043916
  26 H :    0.029364
  27 H :    0.012317
  28 C :   -0.061621
  29 H :    0.031184
  30 H :    0.018846
  31 H :    0.031580
  32 H :    0.014173
  33 H :    0.033268

  Mayer bond orders larger than 0.100000
B(  0-S ,  1-C ) :   1.1376 B(  0-S ,  4-C ) :   1.1724 B(  1-C ,  2-C ) :   1.5921
B(  1-C , 32-H ) :   0.9740 B(  2-C ,  3-C ) :   1.2779 B(  2-C ,  6-C ) :   1.0120
B(  3-C ,  4-C ) :   1.5230 B(  3-C ,  5-H ) :   0.9813 B(  4-C , 20-C ) :   1.0665
B(  6-C ,  7-H ) :   0.9339 B(  6-C ,  8-H ) :   0.9372 B(  6-C ,  9-C ) :   1.0558
B(  9-C , 10-H ) :   0.9572 B(  9-C , 11-H ) :   0.9580 B(  9-C , 12-C ) :   1.0553
B( 12-C , 13-H ) :   0.9774 B( 12-C , 14-H ) :   0.9755 B( 12-C , 15-H ) :   0.9780
B( 16-S , 17-C ) :   1.1694 B( 16-S , 20-C ) :   1.1118 B( 17-C , 18-C ) :   1.6037
B( 17-C , 33-H ) :   0.9638 B( 18-C , 19-C ) :   1.2410 B( 18-C , 21-H ) :   0.9940
B( 19-C , 20-C ) :   1.6094 B( 19-C , 22-C ) :   1.0448 B( 22-C , 23-H ) :   0.9315
B( 22-C , 24-H ) :   0.9351 B( 22-C , 25-C ) :   1.0631 B( 25-C , 26-H ) :   0.9541
B( 25-C , 27-H ) :   0.9492 B( 25-C , 28-C ) :   1.0780 B( 28-C , 29-H ) :   0.9741
B( 28-C , 30-H ) :   0.9740 B( 28-C , 31-H ) :   0.9755

Dispersion correction           -0.013614535
FINAL SINGLE POINT ENERGY     -1339.869718850674

DIPOLE MOMENT
-------------
                                X             Y             Z
Electronic contribution:    -24.24834      -9.62799      18.74600
Nuclear contribution   :     24.67284       9.89362     -19.22919
                        -----------------------------------------
Total Dipole Moment    :      0.42450       0.26563      -0.48319
                        -----------------------------------------
Magnitude (a.u.)       :      0.69587
Magnitude (Debye)      :      1.76876

Rotational constants in cm-1:     0.016770     0.008981     0.006215
Rotational constants in MHz :   502.766581   269.252141   186.331877

                             ****ORCA TERMINATED NORMALLY****
TOTAL RUN TIME: 0 days 0 hours 0 minutes 33 seconds 453 msec
