                         Program Version 4.2.1 -  RELEASE  -
|  1> ! wB97X-D3 SP def2-SVP
|  2> %pal
|  3> nprocs 16
|  4> end
|  5>
|  6> * xyz 0 1
|  7> S 	 -36.8365 	 23.9538 	 80.8476
|  8> C 	 -38.4602 	 24.5992 	 80.9121
|  9> C 	 -39.2299 	 24.1192 	 79.819
| 10> C 	 -38.369 	 23.2952 	 78.9201
| 11> C 	 -37.0731 	 23.1274 	 79.3689
| 12> H 	 -38.7399 	 22.9973 	 77.9694
| 13> C 	 -40.6549 	 24.3412 	 79.6974
| 14> H 	 -41.0642 	 24.4449 	 78.6632
| 15> H 	 -40.8397 	 25.2637 	 80.1396
| 16> C 	 -41.5595 	 23.364 	 80.3602
| 17> H 	 -42.5847 	 23.7395 	 80.2673
| 18> H 	 -41.4557 	 22.426 	 79.7314
| 19> C 	 -41.3213 	 23.1478 	 81.9139
| 20> H 	 -40.3341 	 22.688 	 82.0731
| 21> H 	 -41.515 	 24.1033 	 82.455
| 22> H 	 -42.0235 	 22.4304 	 82.4592
| 23> S 	 -35.0162 	 23.5905 	 77.5631
| 24> C 	 -34.3313 	 22.233 	 76.7679
| 25> C 	 -34.8141 	 21.0268 	 77.2118
| 26> C 	 -35.705 	 21.1509 	 78.2742
| 27> C 	 -35.9345 	 22.5199 	 78.6337
| 28> H 	 -34.4671 	 20.1302 	 76.8614
| 29> C 	 -36.4493 	 19.9342 	 78.9033
| 30> H 	 -36.8356 	 20.1272 	 79.9518
| 31> H 	 -35.7023 	 19.1744 	 78.9276
| 32> C 	 -37.648 	 19.4392 	 78.1413
| 33> H 	 -37.3444 	 19.0069 	 77.2064
| 34> H 	 -38.3771 	 20.2672 	 77.9282
| 35> C 	 -38.5435 	 18.4132 	 78.9252
| 36> H 	 -39.4741 	 18.185 	 78.3285
| 37> H 	 -38.7446 	 18.9082 	 79.8975
| 38> H 	 -38.1052 	 17.4138 	 79.1052
| 39> H 	 -38.8924 	 25.2192 	 81.6195
| 40> H 	 -33.5952 	 22.3389 	 75.9734
| 41> *
| 42>
| 43>                          ****END OF INPUT****

CARTESIAN COORDINATES (ANGSTROEM)
---------------------------------
  S    -36.836500   23.953800   80.847600
  C    -38.460200   24.599200   80.912100
  C    -39.229900   24.119200   79.819000
  C    -38.369000   23.295200   78.920100
  C    -37.073100   23.127400   79.368900
  H    -38.739900   22.997300   77.969400
  C    -40.654900   24.341200   79.697400
  H    -41.064200   24.444900   78.663200
  H    -40.839700   25.263700   80.139600
  C    -41.559500   23.364000   80.360200
  H    -42.584700   23.739500   80.267300
  H    -41.455700   22.426000   79.731400
  C    -41.321300   23.147800   81.913900
  H    -40.334100   22.688000   82.073100
  H    -41.515000   24.103300   82.455000
  H    -42.023500   22.430400   82.459200
  S    -35.016200   23.590500   77.563100
  C    -34.331300   22.233000   76.767900
  C    -34.814100   21.026800   77.211800
  C    -35.705000   21.150900   78.274200
  C    -35.934500   22.519900   78.633700
  H    -34.467100   20.130200   76.861400
  C    -36.449300   19.934200   78.903300
  H    -36.835600   20.127200   79.951800
  H    -35.702300   19.174400   78.927600
  C    -37.648000   19.439200   78.141300
  H    -37.344400   19.006900   77.206400
  H    -38.377100   20.267200   77.928200
  C    -38.543500   18.413200   78.925200
  H    -39.474100   18.185000   78.328500
  H    -38.744600   18.908200   79.897500
  H    -38.105200   17.413800   79.105200
  H    -38.892400   25.219200   81.619500
  H    -33.595200   22.338900   75.973400

 Total Charge           Charge          ....    0
 Multiplicity           Mult            ....    1
 Number of Electrons    NEL             ....  134
 Basis Dimension        Dim             ....  322

ORBITAL ENERGIES
----------------

  NO   OCC          E(Eh)            E(eV)
   0   2.0000     -88.968512     -2420.9563
   1   2.0000     -88.965412     -2420.8719
   2   2.0000     -10.329108      -281.0693
   3   2.0000     -10.328333      -281.0482
   4   2.0000     -10.317526      -280.7542
   5   2.0000     -10.312045      -280.6050
   6   2.0000     -10.308506      -280.5087
   7   2.0000     -10.303491      -280.3723
   8   2.0000     -10.296147      -280.1724
   9   2.0000     -10.294766      -280.1348
  10   2.0000     -10.292479      -280.0726
  11   2.0000     -10.287847      -279.9466
  12   2.0000     -10.286502      -279.9100
  13   2.0000     -10.286401      -279.9072
  14   2.0000     -10.285597      -279.8853
  15   2.0000     -10.283012      -279.8150
  16   2.0000      -8.083453      -219.9619
  17   2.0000      -8.080534      -219.8825
  18   2.0000      -6.041702      -164.4031
  19   2.0000      -6.039012      -164.3299
  20   2.0000      -6.037837      -164.2979
  21   2.0000      -6.034798      -164.2152
  22   2.0000      -6.034560      -164.2087
  23   2.0000      -6.031487      -164.1251
  24   2.0000      -1.004409       -27.3313
  25   2.0000      -0.984415       -26.7873
  26   2.0000      -0.922001       -25.0889
  27   2.0000      -0.907137       -24.6844
  28   2.0000      -0.863736       -23.5034
  29   2.0000      -0.850055       -23.1312
  30   2.0000      -0.838347       -22.8126
  31   2.0000      -0.811227       -22.0746
  32   2.0000      -0.784102       -21.3365
  33   2.0000      -0.772418       -21.0186
  34   2.0000      -0.705931       -19.2094
  35   2.0000      -0.693940       -18.8831
  36   2.0000      -0.687154       -18.6984
  37   2.0000      -0.663201       -18.0466
  38   2.0000      -0.640180       -17.4202
  39   2.0000      -0.621624       -16.9152
  40   2.0000      -0.600769       -16.3478
  41   2.0000      -0.575391       -15.6572
  42   2.0000      -0.568806       -15.4780
  43   2.0000      -0.555544       -15.1171
  44   2.0000      -0.542619       -14.7654
  45   2.0000      -0.518987       -14.1224
  46   2.0000      -0.514373       -13.9968
  47   2.0000      -0.509776       -13.8717
  48   2.0000      -0.503918       -13.7123
  49   2.0000      -0.495933       -13.4950
  50   2.0000      -0.495014       -13.4700
  51   2.0000      -0.471108       -12.8195
  52   2.0000      -0.467186       -12.7128
  53   2.0000      -0.465690       -12.6721
  54   2.0000      -0.459056       -12.4915
  55   2.0000      -0.454129       -12.3575
  56   2.0000      -0.437601       -11.9077
  57   2.0000      -0.435614       -11.8537
  58   2.0000      -0.432766       -11.7762
  59   2.0000      -0.422331       -11.4922
  60   2.0000      -0.420787       -11.4502
  61   2.0000      -0.412973       -11.2376
  62   2.0000      -0.410495       -11.1701
  63   2.0000      -0.342215        -9.3121
  64   2.0000      -0.325176        -8.8485
  65   2.0000      -0.317006        -8.6262
  66   2.0000      -0.309112        -8.4114
  67   0.0000       0.040215         1.0943
  68   0.0000       0.054852         1.4926
  69   0.0000       0.111684         3.0391
  70   0.0000       0.123928         3.3723
  71   0.0000       0.129784         3.5316

MULLIKEN ATOMIC CHARGES
-----------------------
   0 S :    0.120439
   1 C :   -0.078210
   2 C :   -0.137188
   3 C :    0.064007
   4 C :   -0.163123
   5 H :    0.003117
   6 C :    0.090860
   7 H :    0.031589
   8 H :   -0.005489
   9 C :   -0.078502
  10 H :    0.033147
  11 H :    0.034538
  12 C :   -0.102857
  13 H :    0.058204
  14 H :    0.034420
  15 H :    0.041264
  16 S :    0.127003
  17 C :   -0.092038
  18 C :    0.007191
  19 C :   -0.024200
  20 C :   -0.167357
  21 H :   -0.020823
  22 C :    0.082030
  23 H :    0.034660
  24 H :    0.016232
  25 C :   -0.079032
  26 H :    0.018676
  27 H :    0.035925
  28 C :   -0.083068
  29 H :    0.045480
  30 H :    0.039306
  31 H :    0.035015
  32 H :    0.019022
  33 H :    0.059763
Sum of atomic charges:   -0.0000000

LOEWDIN ATOMIC CHARGES
----------------------
   0 S :    0.429305
   1 C :   -0.188704
   2 C :   -0.054331
   3 C :   -0.056007
   4 C :   -0.220138
   5 H :    0.023062
   6 C :   -0.046737
   7 H :    0.040131
   8 H :    0.022154
   9 C :   -0.038756
  10 H :    0.025283
  11 H :    0.027421
  12 C :   -0.081993
  13 H :    0.028762
  14 H :    0.026613
  15 H :    0.033121
  16 S :    0.428847
  17 C :   -0.184974
  18 C :   -0.069165
  19 C :   -0.038887
  20 C :   -0.211567
  21 H :    0.017414
  22 C :   -0.029707
  23 H :    0.037778
  24 H :    0.025510
  25 C :   -0.044081
  26 H :    0.015875
  27 H :    0.030161
  28 C :   -0.072107
  29 H :    0.033088
  30 H :    0.027188
  31 H :    0.022278
  32 H :    0.013603
  33 H :    0.029559

  Mayer bond orders larger than 0.100000
B(  0-S ,  1-C ) :   1.1474 B(  0-S ,  4-C ) :   1.1638 B(  1-C ,  2-C ) :   1.5881
B(  1-C , 32-H ) :   0.9756 B(  2-C ,  3-C ) :   1.2343 B(  2-C ,  6-C ) :   1.0559
B(  3-C ,  4-C ) :   1.5744 B(  3-C ,  5-H ) :   0.9983 B(  4-C , 20-C ) :   0.9809
B(  6-C ,  7-H ) :   0.9337 B(  6-C ,  8-H ) :   0.9214 B(  6-C ,  9-C ) :   1.0745
B(  9-C , 10-H ) :   0.9551 B(  9-C , 11-H ) :   0.9568 B(  9-C , 12-C ) :   1.0667
B( 12-C , 13-H ) :   0.9727 B( 12-C , 14-H ) :   0.9732 B( 12-C , 15-H ) :   0.9760
B( 16-S , 17-C ) :   1.1942 B( 16-S , 20-C ) :   1.1624 B( 17-C , 18-C ) :   1.5541
B( 17-C , 20-C ) :   0.1059 B( 17-C , 33-H ) :   0.9653 B( 18-C , 19-C ) :   1.2969
B( 18-C , 21-H ) :   1.0056 B( 19-C , 20-C ) :   1.5567 B( 19-C , 22-C ) :   1.0344
B( 22-C , 23-H ) :   0.9381 B( 22-C , 24-H ) :   0.9305 B( 22-C , 25-C ) :   1.0728
B( 25-C , 26-H ) :   0.9516 B( 25-C , 27-H ) :   0.9540 B( 25-C , 28-C ) :   1.0769
B( 28-C , 29-H ) :   0.9755 B( 28-C , 30-H ) :   0.9737 B( 28-C , 31-H ) :   0.9771

Dispersion correction           -0.014790075
FINAL SINGLE POINT ENERGY     -1339.869239079531

DIPOLE MOMENT
-------------
                                X             Y             Z
Electronic contribution:     24.14733      15.83471      -4.47192
Nuclear contribution   :    -24.60407     -16.13890       4.18920
                        -----------------------------------------
Total Dipole Moment    :     -0.45674      -0.30419      -0.28273
                        -----------------------------------------
Magnitude (a.u.)       :      0.61731
Magnitude (Debye)      :      1.56909

Rotational constants in cm-1:     0.018317     0.009288     0.007039
Rotational constants in MHz :   549.143235   278.441096   211.033103

                             ****ORCA TERMINATED NORMALLY****
TOTAL RUN TIME: 0 days 0 hours 0 minutes 30 seconds 511 msec
