                         Program Version 4.2.1 -  RELEASE  -
|  1> ! wB97X-D3 SP def2-SVP
|  2> %pal
|  3> nprocs 16
|  4> end
|  5>
|  6> * xyz 0 1
|  7> S 	 18.1358 	 12.7263 	 87.9788
|  8> C 	 19.4784 	 11.9178 	 87.1945
|  9> C 	 19.1654 	 11.2439 	 86.0254
| 10> C 	 17.7362 	 11.3264 	 85.8383
| 11> C 	 17.0448 	 12.0423 	 86.8002
| 12> H 	 17.1557 	 10.8158 	 85.118
| 13> C 	 20.0076 	 10.4157 	 85.1347
| 14> H 	 19.4605 	 9.51834 	 84.7339
| 15> H 	 20.8423 	 10.063 	 85.7308
| 16> C 	 20.4622 	 11.0978 	 83.8327
| 17> H 	 20.8682 	 12.09 	 84.0421
| 18> H 	 21.1642 	 10.3446 	 83.5561
| 19> C 	 19.4734 	 11.1572 	 82.6504
| 20> H 	 18.6582 	 11.7859 	 82.9517
| 21> H 	 19.7993 	 11.6997 	 81.765
| 22> H 	 19.0905 	 10.1582 	 82.3125
| 23> S 	 15.0997 	 13.788 	 86.8988
| 24> C 	 13.4171 	 13.2828 	 87.2486
| 25> C 	 13.3168 	 11.9177 	 87.4236
| 26> C 	 14.5803 	 11.2636 	 87.3024
| 27> C 	 15.6234 	 12.1351 	 87.0637
| 28> H 	 12.3071 	 11.52 	 87.5917
| 29> C 	 14.7094 	 9.77973 	 87.4698
| 30> H 	 15.3555 	 9.50003 	 86.6458
| 31> H 	 13.7248 	 9.41112 	 87.2222
| 32> C 	 15.1139 	 9.19165 	 88.8602
| 33> H 	 16.1117 	 9.64165 	 89.0374
| 34> H 	 15.0936 	 8.06189 	 88.8012
| 35> C 	 14.1622 	 9.57988 	 89.9568
| 36> H 	 14.2938 	 10.5866 	 90.2887
| 37> H 	 14.2523 	 8.89478 	 90.8092
| 38> H 	 13.1132 	 9.42916 	 89.6273
| 39> H 	 20.5153 	 12.1694 	 87.4245
| 40> H 	 12.5962 	 13.9656 	 87.3964
| 41> *
| 42>
| 43>                          ****END OF INPUT****

CARTESIAN COORDINATES (ANGSTROEM)
---------------------------------
  S     18.135800   12.726300   87.978800
  C     19.478400   11.917800   87.194500
  C     19.165400   11.243900   86.025400
  C     17.736200   11.326400   85.838300
  C     17.044800   12.042300   86.800200
  H     17.155700   10.815800   85.118000
  C     20.007600   10.415700   85.134700
  H     19.460500    9.518340   84.733900
  H     20.842300   10.063000   85.730800
  C     20.462200   11.097800   83.832700
  H     20.868200   12.090000   84.042100
  H     21.164200   10.344600   83.556100
  C     19.473400   11.157200   82.650400
  H     18.658200   11.785900   82.951700
  H     19.799300   11.699700   81.765000
  H     19.090500   10.158200   82.312500
  S     15.099700   13.788000   86.898800
  C     13.417100   13.282800   87.248600
  C     13.316800   11.917700   87.423600
  C     14.580300   11.263600   87.302400
  C     15.623400   12.135100   87.063700
  H     12.307100   11.520000   87.591700
  C     14.709400    9.779730   87.469800
  H     15.355500    9.500030   86.645800
  H     13.724800    9.411120   87.222200
  C     15.113900    9.191650   88.860200
  H     16.111700    9.641650   89.037400
  H     15.093600    8.061890   88.801200
  C     14.162200    9.579880   89.956800
  H     14.293800   10.586600   90.288700
  H     14.252300    8.894780   90.809200
  H     13.113200    9.429160   89.627300
  H     20.515300   12.169400   87.424500
  H     12.596200   13.965600   87.396400

 Total Charge           Charge          ....    0
 Multiplicity           Mult            ....    1
 Number of Electrons    NEL             ....  134
 Basis Dimension        Dim             ....  322

ORBITAL ENERGIES
----------------

  NO   OCC          E(Eh)            E(eV)
   0   2.0000     -88.966234     -2420.8943
   1   2.0000     -88.962445     -2420.7912
   2   2.0000     -10.325954      -280.9835
   3   2.0000     -10.322223      -280.8820
   4   2.0000     -10.317068      -280.7417
   5   2.0000     -10.314343      -280.6675
   6   2.0000     -10.302514      -280.3457
   7   2.0000     -10.301472      -280.3173
   8   2.0000     -10.296110      -280.1714
   9   2.0000     -10.295826      -280.1637
  10   2.0000     -10.291064      -280.0341
  11   2.0000     -10.290494      -280.0186
  12   2.0000     -10.287143      -279.9274
  13   2.0000     -10.285067      -279.8709
  14   2.0000     -10.280610      -279.7496
  15   2.0000     -10.272544      -279.5301
  16   2.0000      -8.081078      -219.8973
  17   2.0000      -8.076985      -219.7859
  18   2.0000      -6.039583      -164.3454
  19   2.0000      -6.035587      -164.2367
  20   2.0000      -6.035535      -164.2353
  21   2.0000      -6.031821      -164.1342
  22   2.0000      -6.031493      -164.1253
  23   2.0000      -6.027737      -164.0231
  24   2.0000      -1.007247       -27.4086
  25   2.0000      -0.981623       -26.7113
  26   2.0000      -0.917287       -24.9606
  27   2.0000      -0.906452       -24.6658
  28   2.0000      -0.871016       -23.7016
  29   2.0000      -0.849052       -23.1039
  30   2.0000      -0.846457       -23.0333
  31   2.0000      -0.815652       -22.1950
  32   2.0000      -0.786348       -21.3976
  33   2.0000      -0.771047       -20.9813
  34   2.0000      -0.705860       -19.2074
  35   2.0000      -0.700950       -19.0738
  36   2.0000      -0.685671       -18.6580
  37   2.0000      -0.665309       -18.1040
  38   2.0000      -0.642899       -17.4942
  39   2.0000      -0.616768       -16.7831
  40   2.0000      -0.587141       -15.9769
  41   2.0000      -0.581502       -15.8235
  42   2.0000      -0.558640       -15.2014
  43   2.0000      -0.550506       -14.9800
  44   2.0000      -0.543106       -14.7787
  45   2.0000      -0.537067       -14.6143
  46   2.0000      -0.513911       -13.9842
  47   2.0000      -0.508411       -13.8346
  48   2.0000      -0.498167       -13.5558
  49   2.0000      -0.495287       -13.4774
  50   2.0000      -0.484369       -13.1803
  51   2.0000      -0.478337       -13.0162
  52   2.0000      -0.474915       -12.9231
  53   2.0000      -0.467871       -12.7314
  54   2.0000      -0.454666       -12.3721
  55   2.0000      -0.448116       -12.1939
  56   2.0000      -0.443250       -12.0614
  57   2.0000      -0.440212       -11.9788
  58   2.0000      -0.434992       -11.8367
  59   2.0000      -0.431487       -11.7414
  60   2.0000      -0.417033       -11.3481
  61   2.0000      -0.413782       -11.2596
  62   2.0000      -0.404487       -11.0066
  63   2.0000      -0.339132        -9.2282
  64   2.0000      -0.329465        -8.9652
  65   2.0000      -0.326240        -8.8774
  66   2.0000      -0.298798        -8.1307
  67   0.0000       0.036170         0.9842
  68   0.0000       0.060834         1.6554
  69   0.0000       0.107893         2.9359
  70   0.0000       0.112693         3.0665
  71   0.0000       0.130812         3.5596

MULLIKEN ATOMIC CHARGES
-----------------------
   0 S :    0.118472
   1 C :   -0.119069
   2 C :   -0.080286
   3 C :    0.053365
   4 C :   -0.168381
   5 H :   -0.005734
   6 C :    0.044061
   7 H :    0.029753
   8 H :    0.028685
   9 C :   -0.047207
  10 H :    0.035838
  11 H :    0.026421
  12 C :   -0.062686
  13 H :    0.026475
  14 H :    0.035986
  15 H :    0.034874
  16 S :    0.093531
  17 C :   -0.089615
  18 C :   -0.055698
  19 C :   -0.041584
  20 C :   -0.170450
  21 H :    0.030473
  22 C :    0.090550
  23 H :    0.020651
  24 H :    0.001731
  25 C :   -0.058046
  26 H :    0.043560
  27 H :    0.043039
  28 C :   -0.050796
  29 H :    0.043215
  30 H :    0.031511
  31 H :    0.018126
  32 H :    0.047477
  33 H :    0.051758
Sum of atomic charges:   -0.0000000

LOEWDIN ATOMIC CHARGES
----------------------
   0 S :    0.407786
   1 C :   -0.198683
   2 C :   -0.063934
   3 C :   -0.054688
   4 C :   -0.206193
   5 H :    0.022155
   6 C :   -0.034005
   7 H :    0.039514
   8 H :    0.032966
   9 C :   -0.034637
  10 H :    0.025807
  11 H :    0.024273
  12 C :   -0.072864
  13 H :    0.022124
  14 H :    0.030307
  15 H :    0.028371
  16 S :    0.394044
  17 C :   -0.170431
  18 C :   -0.072316
  19 C :   -0.059228
  20 C :   -0.203657
  21 H :    0.038760
  22 C :   -0.034267
  23 H :    0.030244
  24 H :    0.023413
  25 C :   -0.037677
  26 H :    0.030656
  27 H :    0.032980
  28 C :   -0.068425
  29 H :    0.024398
  30 H :    0.028250
  31 H :    0.023924
  32 H :    0.025648
  33 H :    0.025385

  Mayer bond orders larger than 0.100000
B(  0-S ,  1-C ) :   1.1394 B(  0-S ,  4-C ) :   1.1481 B(  1-C ,  2-C ) :   1.6298
B(  1-C , 32-H ) :   0.9574 B(  2-C ,  3-C ) :   1.2114 B(  2-C ,  6-C ) :   1.0338
B(  3-C ,  4-C ) :   1.6095 B(  3-C ,  5-H ) :   0.9996 B(  4-C , 20-C ) :   0.9905
B(  6-C ,  7-H ) :   0.9384 B(  6-C ,  8-H ) :   0.9405 B(  6-C ,  9-C ) :   1.0552
B(  9-C , 10-H ) :   0.9558 B(  9-C , 11-H ) :   0.9571 B(  9-C , 12-C ) :   1.0834
B( 12-C , 13-H ) :   0.9725 B( 12-C , 14-H ) :   0.9718 B( 12-C , 15-H ) :   0.9725
B( 16-S , 17-C ) :   1.1403 B( 16-S , 20-C ) :   1.1492 B( 17-C , 18-C ) :   1.6403
B( 17-C , 20-C ) :   0.1049 B( 17-C , 33-H ) :   0.9665 B( 18-C , 19-C ) :   1.2068
B( 18-C , 21-H ) :   0.9883 B( 19-C , 20-C ) :   1.6213 B( 19-C , 22-C ) :   1.0347
B( 22-C , 23-H ) :   0.9310 B( 22-C , 24-H ) :   0.9257 B( 22-C , 25-C ) :   1.0688
B( 25-C , 26-H ) :   0.9555 B( 25-C , 27-H ) :   0.9558 B( 25-C , 28-C ) :   1.0811
B( 28-C , 29-H ) :   0.9729 B( 28-C , 30-H ) :   0.9726 B( 28-C , 31-H ) :   0.9724

Dispersion correction           -0.014751665
FINAL SINGLE POINT ENERGY     -1339.874892255423

DIPOLE MOMENT
-------------
                                X             Y             Z
Electronic contribution:     -3.29460      18.50168       7.00851
Nuclear contribution   :      3.27252     -19.01840      -7.24723
                        -----------------------------------------
Total Dipole Moment    :     -0.02208      -0.51672      -0.23873
                        -----------------------------------------
Magnitude (a.u.)       :      0.56963
Magnitude (Debye)      :      1.44787

Rotational constants in cm-1:     0.020478     0.008064     0.007423
Rotational constants in MHz :   613.919159   241.739367   222.539861

                             ****ORCA TERMINATED NORMALLY****
TOTAL RUN TIME: 0 days 0 hours 0 minutes 35 seconds 240 msec
