                         Program Version 4.2.1 -  RELEASE  -
|  1> ! wB97X-D3 SP def2-SVP
|  2> %pal
|  3> nprocs 16
|  4> end
|  5>
|  6> * xyz 0 1
|  7> S 	 -34.9945 	 59.5794 	 113.802
|  8> C 	 -33.8649 	 59.2993 	 112.507
|  9> C 	 -32.6034 	 59.6477 	 112.782
| 10> C 	 -32.5638 	 60.3192 	 114.037
| 11> C 	 -33.7807 	 60.4834 	 114.657
| 12> H 	 -31.6183 	 60.772 	 114.44
| 13> C 	 -31.3914 	 59.4979 	 111.919
| 14> H 	 -31.0115 	 60.5498 	 111.822
| 15> H 	 -31.7084 	 59.1927 	 110.885
| 16> C 	 -30.2903 	 58.4864 	 112.384
| 17> H 	 -29.8849 	 58.7546 	 113.295
| 18> H 	 -30.5804 	 57.3913 	 112.4
| 19> C 	 -29.0449 	 58.5493 	 111.477
| 20> H 	 -28.2538 	 57.983 	 112.024
| 21> H 	 -29.2576 	 58.0175 	 110.52
| 22> H 	 -28.671 	 59.5326 	 111.211
| 23> S 	 -35.0271 	 60.5426 	 117.157
| 24> C 	 -35.0325 	 62.0544 	 118.003
| 25> C 	 -34.2756 	 63.0123 	 117.399
| 26> C 	 -33.6693 	 62.5448 	 116.142
| 27> C 	 -34.0333 	 61.2742 	 115.869
| 28> H 	 -34.2054 	 63.969 	 117.814
| 29> C 	 -32.7416 	 63.4893 	 115.327
| 30> H 	 -31.8237 	 62.9532 	 115.234
| 31> H 	 -32.4256 	 64.2809 	 116.008
| 32> C 	 -33.3745 	 63.9243 	 114.037
| 33> H 	 -34.3728 	 64.3452 	 114.278
| 34> H 	 -33.3502 	 63.105 	 113.364
| 35> C 	 -32.5377 	 64.9903 	 113.254
| 36> H 	 -33.1396 	 65.2879 	 112.379
| 37> H 	 -31.5721 	 64.666 	 112.991
| 38> H 	 -32.4014 	 65.9756 	 113.726
| 39> H 	 -34.0215 	 58.8652 	 111.523
| 40> H 	 -35.5885 	 62.4147 	 118.878
| 41> *
| 42>
| 43>                          ****END OF INPUT****

CARTESIAN COORDINATES (ANGSTROEM)
---------------------------------
  S    -34.994500   59.579400  113.802000
  C    -33.864900   59.299300  112.507000
  C    -32.603400   59.647700  112.782000
  C    -32.563800   60.319200  114.037000
  C    -33.780700   60.483400  114.657000
  H    -31.618300   60.772000  114.440000
  C    -31.391400   59.497900  111.919000
  H    -31.011500   60.549800  111.822000
  H    -31.708400   59.192700  110.885000
  C    -30.290300   58.486400  112.384000
  H    -29.884900   58.754600  113.295000
  H    -30.580400   57.391300  112.400000
  C    -29.044900   58.549300  111.477000
  H    -28.253800   57.983000  112.024000
  H    -29.257600   58.017500  110.520000
  H    -28.671000   59.532600  111.211000
  S    -35.027100   60.542600  117.157000
  C    -35.032500   62.054400  118.003000
  C    -34.275600   63.012300  117.399000
  C    -33.669300   62.544800  116.142000
  C    -34.033300   61.274200  115.869000
  H    -34.205400   63.969000  117.814000
  C    -32.741600   63.489300  115.327000
  H    -31.823700   62.953200  115.234000
  H    -32.425600   64.280900  116.008000
  C    -33.374500   63.924300  114.037000
  H    -34.372800   64.345200  114.278000
  H    -33.350200   63.105000  113.364000
  C    -32.537700   64.990300  113.254000
  H    -33.139600   65.287900  112.379000
  H    -31.572100   64.666000  112.991000
  H    -32.401400   65.975600  113.726000
  H    -34.021500   58.865200  111.523000
  H    -35.588500   62.414700  118.878000

 Total Charge           Charge          ....    0
 Multiplicity           Mult            ....    1
 Number of Electrons    NEL             ....  134
 Basis Dimension        Dim             ....  322

ORBITAL ENERGIES
----------------

  NO   OCC          E(Eh)            E(eV)
   0   2.0000     -88.967133     -2420.9188
   1   2.0000     -88.964774     -2420.8546
   2   2.0000     -10.327311      -281.0204
   3   2.0000     -10.324493      -280.9437
   4   2.0000     -10.313160      -280.6354
   5   2.0000     -10.306919      -280.4655
   6   2.0000     -10.303843      -280.3818
   7   2.0000     -10.301904      -280.3291
   8   2.0000     -10.292898      -280.0840
   9   2.0000     -10.291756      -280.0529
  10   2.0000     -10.291700      -280.0514
  11   2.0000     -10.289188      -279.9830
  12   2.0000     -10.287354      -279.9331
  13   2.0000     -10.285078      -279.8712
  14   2.0000     -10.283541      -279.8294
  15   2.0000     -10.275149      -279.6010
  16   2.0000      -8.082172      -219.9271
  17   2.0000      -8.079398      -219.8516
  18   2.0000      -6.040759      -164.3774
  19   2.0000      -6.038119      -164.3056
  20   2.0000      -6.036798      -164.2696
  21   2.0000      -6.034076      -164.1956
  22   2.0000      -6.032659      -164.1570
  23   2.0000      -6.029795      -164.0791
  24   2.0000      -1.009656       -27.4741
  25   2.0000      -0.986611       -26.8471
  26   2.0000      -0.911143       -24.7934
  27   2.0000      -0.908665       -24.7260
  28   2.0000      -0.871816       -23.7233
  29   2.0000      -0.852211       -23.1898
  30   2.0000      -0.844053       -22.9679
  31   2.0000      -0.814844       -22.1730
  32   2.0000      -0.783933       -21.3319
  33   2.0000      -0.774498       -21.0752
  34   2.0000      -0.710114       -19.3232
  35   2.0000      -0.700069       -19.0499
  36   2.0000      -0.692552       -18.8453
  37   2.0000      -0.660707       -17.9787
  38   2.0000      -0.633261       -17.2319
  39   2.0000      -0.621034       -16.8992
  40   2.0000      -0.589542       -16.0423
  41   2.0000      -0.571165       -15.5422
  42   2.0000      -0.567704       -15.4480
  43   2.0000      -0.563892       -15.3443
  44   2.0000      -0.529349       -14.4043
  45   2.0000      -0.527519       -14.3545
  46   2.0000      -0.516812       -14.0632
  47   2.0000      -0.507191       -13.8014
  48   2.0000      -0.501600       -13.6492
  49   2.0000      -0.499149       -13.5825
  50   2.0000      -0.493029       -13.4160
  51   2.0000      -0.479848       -13.0573
  52   2.0000      -0.467026       -12.7084
  53   2.0000      -0.459742       -12.5102
  54   2.0000      -0.456659       -12.4263
  55   2.0000      -0.449334       -12.2270
  56   2.0000      -0.445156       -12.1133
  57   2.0000      -0.441127       -12.0037
  58   2.0000      -0.436439       -11.8761
  59   2.0000      -0.424796       -11.5593
  60   2.0000      -0.423245       -11.5171
  61   2.0000      -0.418580       -11.3902
  62   2.0000      -0.411038       -11.1849
  63   2.0000      -0.349052        -9.4982
  64   2.0000      -0.331611        -9.0236
  65   2.0000      -0.330163        -8.9842
  66   2.0000      -0.294688        -8.0189
  67   0.0000       0.035310         0.9608
  68   0.0000       0.075504         2.0546
  69   0.0000       0.108602         2.9552
  70   0.0000       0.119299         3.2463
  71   0.0000       0.137067         3.7298

MULLIKEN ATOMIC CHARGES
-----------------------
   0 S :    0.125703
   1 C :   -0.115522
   2 C :   -0.059388
   3 C :   -0.009593
   4 C :   -0.147696
   5 H :    0.023373
   6 C :    0.034732
   7 H :    0.040068
   8 H :    0.018585
   9 C :   -0.044409
  10 H :    0.013338
  11 H :    0.050247
  12 C :   -0.082019
  13 H :    0.040805
  14 H :    0.033631
  15 H :    0.030463
  16 S :    0.105979
  17 C :   -0.070610
  18 C :   -0.036201
  19 C :   -0.068188
  20 C :   -0.157671
  21 H :   -0.004038
  22 C :    0.114618
  23 H :    0.007956
  24 H :    0.007188
  25 C :   -0.053681
  26 H :    0.042521
  27 H :    0.042242
  28 C :   -0.042243
  29 H :    0.032858
  30 H :    0.019331
  31 H :    0.020809
  32 H :    0.030264
  33 H :    0.056548
Sum of atomic charges:    0.0000000

LOEWDIN ATOMIC CHARGES
----------------------
   0 S :    0.410215
   1 C :   -0.197823
   2 C :   -0.076878
   3 C :   -0.067002
   4 C :   -0.196427
   5 H :    0.033998
   6 C :   -0.033618
   7 H :    0.039195
   8 H :    0.031376
   9 C :   -0.034677
  10 H :    0.011598
  11 H :    0.038609
  12 C :   -0.068568
  13 H :    0.031282
  14 H :    0.024701
  15 H :    0.019835
  16 S :    0.386559
  17 C :   -0.193132
  18 C :   -0.068269
  19 C :   -0.047464
  20 C :   -0.186483
  21 H :    0.020685
  22 C :   -0.028491
  23 H :    0.023249
  24 H :    0.028386
  25 C :   -0.031268
  26 H :    0.033541
  27 H :    0.026841
  28 C :   -0.066714
  29 H :    0.030251
  30 H :    0.014816
  31 H :    0.022136
  32 H :    0.030134
  33 H :    0.039404

  Mayer bond orders larger than 0.100000
B(  0-S ,  1-C ) :   1.1223 B(  0-S ,  4-C ) :   1.1380 B(  1-C ,  2-C ) :   1.6633
B(  1-C , 32-H ) :   0.9537 B(  2-C ,  3-C ) :   1.2208 B(  2-C ,  6-C ) :   1.0209
B(  3-C ,  4-C ) :   1.5905 B(  3-C ,  5-H ) :   0.9885 B(  4-C , 20-C ) :   1.0344
B(  6-C ,  7-H ) :   0.9410 B(  6-C ,  8-H ) :   0.9403 B(  6-C ,  9-C ) :   1.0604
B(  9-C , 10-H ) :   0.9589 B(  9-C , 11-H ) :   0.9557 B(  9-C , 12-C ) :   1.0779
B( 12-C , 13-H ) :   0.9768 B( 12-C , 14-H ) :   0.9775 B( 12-C , 15-H ) :   0.9759
B( 16-S , 17-C ) :   1.1265 B( 16-S , 20-C ) :   1.1087 B( 17-C , 18-C ) :   1.6777
B( 17-C , 33-H ) :   0.9566 B( 18-C , 19-C ) :   1.1935 B( 18-C , 21-H ) :   0.9941
B( 19-C , 20-C ) :   1.6798 B( 19-C , 22-C ) :   1.0232 B( 22-C , 23-H ) :   0.9272
B( 22-C , 24-H ) :   0.9313 B( 22-C , 25-C ) :   1.0665 B( 25-C , 26-H ) :   0.9569
B( 25-C , 27-H ) :   0.9500 B( 25-C , 28-C ) :   1.0863 B( 28-C , 29-H ) :   0.9750
B( 28-C , 30-H ) :   0.9746 B( 28-C , 31-H ) :   0.9752

Dispersion correction           -0.014296549
FINAL SINGLE POINT ENERGY     -1339.871800892977

DIPOLE MOMENT
-------------
                                X             Y             Z
Electronic contribution:    -23.44094      -9.55497      17.24563
Nuclear contribution   :     24.03160       9.96998     -17.53853
                        -----------------------------------------
Total Dipole Moment    :      0.59065       0.41501      -0.29291
                        -----------------------------------------
Magnitude (a.u.)       :      0.77904
Magnitude (Debye)      :      1.98016

Rotational constants in cm-1:     0.018136     0.008483     0.006886
Rotational constants in MHz :   543.689467   254.321179   206.433778

                             ****ORCA TERMINATED NORMALLY****
TOTAL RUN TIME: 0 days 0 hours 0 minutes 31 seconds 36 msec
