                         Program Version 4.2.1 -  RELEASE  -
|  1> ! wB97X-D3 SP def2-SVP
|  2> %pal
|  3> nprocs 16
|  4> end
|  5>
|  6> * xyz 0 1
|  7> S 	 -41.2598 	 26.8088 	 87.6297
|  8> C 	 -41.2214 	 28.16 	 88.8201
|  9> C 	 -42.4357 	 28.817 	 88.8324
| 10> C 	 -43.2972 	 28.3928 	 87.7891
| 11> C 	 -42.83 	 27.3481 	 87.0142
| 12> H 	 -44.2543 	 28.7734 	 87.5154
| 13> C 	 -42.7837 	 30.0101 	 89.6805
| 14> H 	 -42.0894 	 30.8326 	 89.5239
| 15> H 	 -42.7475 	 29.8026 	 90.7365
| 16> C 	 -44.179 	 30.6014 	 89.4039
| 17> H 	 -44.1549 	 30.8477 	 88.3823
| 18> H 	 -45.0263 	 29.8695 	 89.7178
| 19> C 	 -44.2295 	 31.8958 	 90.1454
| 20> H 	 -44.2686 	 31.7023 	 91.1882
| 21> H 	 -43.4051 	 32.6224 	 89.8765
| 22> H 	 -45.1389 	 32.4729 	 89.8791
| 23> S 	 -44.8666 	 25.591 	 86.3014
| 24> C 	 -44.9084 	 24.9451 	 84.6391
| 25> C 	 -43.9235 	 25.5145 	 83.9222
| 26> C 	 -43.0824 	 26.4442 	 84.6712
| 27> C 	 -43.5772 	 26.6961 	 85.948
| 28> H 	 -43.7652 	 25.2666 	 82.888
| 29> C 	 -41.9895 	 27.2256 	 83.9629
| 30> H 	 -41.6219 	 26.702 	 83.0908
| 31> H 	 -41.15 	 27.1753 	 84.7162
| 32> C 	 -42.2249 	 28.725 	 83.5387
| 33> H 	 -41.4107 	 29.0284 	 82.9077
| 34> H 	 -42.2627 	 29.3651 	 84.4013
| 35> C 	 -43.4422 	 29.0093 	 82.6672
| 36> H 	 -43.6051 	 28.3213 	 81.8538
| 37> H 	 -43.5003 	 30.0366 	 82.2511
| 38> H 	 -44.221 	 28.7981 	 83.4158
| 39> H 	 -40.5603 	 28.2812 	 89.6179
| 40> H 	 -45.4261 	 24.0554 	 84.2277
| 41> *
| 42>
| 43>                          ****END OF INPUT****

CARTESIAN COORDINATES (ANGSTROEM)
---------------------------------
  S    -41.259800   26.808800   87.629700
  C    -41.221400   28.160000   88.820100
  C    -42.435700   28.817000   88.832400
  C    -43.297200   28.392800   87.789100
  C    -42.830000   27.348100   87.014200
  H    -44.254300   28.773400   87.515400
  C    -42.783700   30.010100   89.680500
  H    -42.089400   30.832600   89.523900
  H    -42.747500   29.802600   90.736500
  C    -44.179000   30.601400   89.403900
  H    -44.154900   30.847700   88.382300
  H    -45.026300   29.869500   89.717800
  C    -44.229500   31.895800   90.145400
  H    -44.268600   31.702300   91.188200
  H    -43.405100   32.622400   89.876500
  H    -45.138900   32.472900   89.879100
  S    -44.866600   25.591000   86.301400
  C    -44.908400   24.945100   84.639100
  C    -43.923500   25.514500   83.922200
  C    -43.082400   26.444200   84.671200
  C    -43.577200   26.696100   85.948000
  H    -43.765200   25.266600   82.888000
  C    -41.989500   27.225600   83.962900
  H    -41.621900   26.702000   83.090800
  H    -41.150000   27.175300   84.716200
  C    -42.224900   28.725000   83.538700
  H    -41.410700   29.028400   82.907700
  H    -42.262700   29.365100   84.401300
  C    -43.442200   29.009300   82.667200
  H    -43.605100   28.321300   81.853800
  H    -43.500300   30.036600   82.251100
  H    -44.221000   28.798100   83.415800
  H    -40.560300   28.281200   89.617900
  H    -45.426100   24.055400   84.227700

 Total Charge           Charge          ....    0
 Multiplicity           Mult            ....    1
 Number of Electrons    NEL             ....  134
 Basis Dimension        Dim             ....  322

ORBITAL ENERGIES
----------------

  NO   OCC          E(Eh)            E(eV)
   0   2.0000     -88.969170     -2420.9742
   1   2.0000     -88.966705     -2420.9071
   2   2.0000     -10.330143      -281.0975
   3   2.0000     -10.326039      -280.9858
   4   2.0000     -10.320132      -280.8251
   5   2.0000     -10.312898      -280.6282
   6   2.0000     -10.305360      -280.4231
   7   2.0000     -10.300302      -280.2855
   8   2.0000     -10.293603      -280.1032
   9   2.0000     -10.291295      -280.0404
  10   2.0000     -10.289204      -279.9835
  11   2.0000     -10.288560      -279.9660
  12   2.0000     -10.287865      -279.9470
  13   2.0000     -10.280979      -279.7597
  14   2.0000     -10.279236      -279.7122
  15   2.0000     -10.271738      -279.5082
  16   2.0000      -8.082126      -219.9258
  17   2.0000      -8.081077      -219.8973
  18   2.0000      -6.040763      -164.3775
  19   2.0000      -6.039743      -164.3498
  20   2.0000      -6.036829      -164.2705
  21   2.0000      -6.035599      -164.2370
  22   2.0000      -6.032890      -164.1633
  23   2.0000      -6.031676      -164.1302
  24   2.0000      -1.004758       -27.3409
  25   2.0000      -0.981491       -26.7077
  26   2.0000      -0.920567       -25.0499
  27   2.0000      -0.900673       -24.5086
  28   2.0000      -0.875570       -23.8255
  29   2.0000      -0.848349       -23.0848
  30   2.0000      -0.843017       -22.9397
  31   2.0000      -0.820268       -22.3206
  32   2.0000      -0.778956       -21.1965
  33   2.0000      -0.768739       -20.9185
  34   2.0000      -0.714858       -19.4523
  35   2.0000      -0.693897       -18.8819
  36   2.0000      -0.684299       -18.6207
  37   2.0000      -0.663337       -18.0503
  38   2.0000      -0.637639       -17.3510
  39   2.0000      -0.618696       -16.8356
  40   2.0000      -0.586989       -15.9728
  41   2.0000      -0.585205       -15.9242
  42   2.0000      -0.572111       -15.5679
  43   2.0000      -0.552956       -15.0467
  44   2.0000      -0.542474       -14.7615
  45   2.0000      -0.521271       -14.1845
  46   2.0000      -0.517388       -14.0788
  47   2.0000      -0.510545       -13.8926
  48   2.0000      -0.500962       -13.6319
  49   2.0000      -0.497846       -13.5471
  50   2.0000      -0.482806       -13.1378
  51   2.0000      -0.478529       -13.0214
  52   2.0000      -0.475157       -12.9297
  53   2.0000      -0.469092       -12.7646
  54   2.0000      -0.454983       -12.3807
  55   2.0000      -0.453159       -12.3311
  56   2.0000      -0.439557       -11.9609
  57   2.0000      -0.438171       -11.9232
  58   2.0000      -0.429267       -11.6809
  59   2.0000      -0.424255       -11.5446
  60   2.0000      -0.420642       -11.4463
  61   2.0000      -0.411487       -11.1971
  62   2.0000      -0.398919       -10.8551
  63   2.0000      -0.344722        -9.3803
  64   2.0000      -0.333343        -9.0707
  65   2.0000      -0.324083        -8.8187
  66   2.0000      -0.302022        -8.2184
  67   0.0000       0.031012         0.8439
  68   0.0000       0.052758         1.4356
  69   0.0000       0.110768         3.0141
  70   0.0000       0.120230         3.2716
  71   0.0000       0.124791         3.3957

MULLIKEN ATOMIC CHARGES
-----------------------
   0 S :    0.111086
   1 C :   -0.098552
   2 C :   -0.043938
   3 C :    0.003952
   4 C :   -0.138879
   5 H :    0.005440
   6 C :    0.031924
   7 H :    0.033297
   8 H :    0.023541
   9 C :   -0.102255
  10 H :    0.028197
  11 H :    0.060758
  12 C :   -0.042605
  13 H :    0.025430
  14 H :    0.038971
  15 H :    0.031011
  16 S :    0.105705
  17 C :   -0.095375
  18 C :   -0.017845
  19 C :   -0.090581
  20 C :   -0.135524
  21 H :    0.015095
  22 C :    0.054077
  23 H :    0.017308
  24 H :    0.035244
  25 C :   -0.039697
  26 H :    0.021286
  27 H :    0.031947
  28 C :   -0.075372
  29 H :    0.021809
  30 H :    0.045752
  31 H :    0.037716
  32 H :    0.027949
  33 H :    0.073130
Sum of atomic charges:   -0.0000000

LOEWDIN ATOMIC CHARGES
----------------------
   0 S :    0.387778
   1 C :   -0.174974
   2 C :   -0.059879
   3 C :   -0.062815
   4 C :   -0.184207
   5 H :    0.027960
   6 C :   -0.033167
   7 H :    0.033950
   8 H :    0.027865
   9 C :   -0.045971
  10 H :    0.018413
  11 H :    0.039704
  12 C :   -0.066706
  13 H :    0.019052
  14 H :    0.032569
  15 H :    0.027649
  16 S :    0.403061
  17 C :   -0.182650
  18 C :   -0.071299
  19 C :   -0.055067
  20 C :   -0.214123
  21 H :    0.028805
  22 C :   -0.037190
  23 H :    0.026932
  24 H :    0.034318
  25 C :   -0.033021
  26 H :    0.020246
  27 H :    0.022903
  28 C :   -0.072793
  29 H :    0.017862
  30 H :    0.031002
  31 H :    0.029551
  32 H :    0.018425
  33 H :    0.045818

  Mayer bond orders larger than 0.100000
B(  0-S ,  1-C ) :   1.1244 B(  0-S ,  4-C ) :   1.1297 B(  1-C ,  2-C ) :   1.6314
B(  1-C , 32-H ) :   0.9748 B(  2-C ,  3-C ) :   1.2362 B(  2-C ,  6-C ) :   1.0018
B(  3-C ,  4-C ) :   1.5639 B(  3-C ,  5-H ) :   0.9973 B(  4-C , 20-C ) :   1.0650
B(  6-C ,  7-H ) :   0.9438 B(  6-C ,  8-H ) :   0.9307 B(  6-C ,  9-C ) :   1.1008
B(  9-C , 10-H ) :   0.9384 B(  9-C , 11-H ) :   0.9475 B(  9-C , 12-C ) :   1.0950
B( 12-C , 13-H ) :   0.9719 B( 12-C , 14-H ) :   0.9698 B( 12-C , 15-H ) :   0.9687
B( 16-S , 17-C ) :   1.1383 B( 16-S , 20-C ) :   1.1324 B( 17-C , 18-C ) :   1.6379
B( 17-C , 33-H ) :   0.9587 B( 18-C , 19-C ) :   1.2337 B( 18-C , 21-H ) :   0.9886
B( 19-C , 20-C ) :   1.5656 B( 19-C , 22-C ) :   1.0532 B( 22-C , 23-H ) :   0.9385
B( 22-C , 24-H ) :   0.9210 B( 22-C , 25-C ) :   1.0713 B( 25-C , 26-H ) :   0.9560
B( 25-C , 27-H ) :   0.9592 B( 25-C , 28-C ) :   1.0684 B( 28-C , 29-H ) :   0.9761
B( 28-C , 30-H ) :   0.9742 B( 28-C , 31-H ) :   0.9769

Dispersion correction           -0.014527733
FINAL SINGLE POINT ENERGY     -1339.863775249747

DIPOLE MOMENT
-------------
                                X             Y             Z
Electronic contribution:      2.02471     -23.43896       2.68542
Nuclear contribution   :     -2.02025      23.78843      -2.76631
                        -----------------------------------------
Total Dipole Moment    :      0.00445       0.34947      -0.08089
                        -----------------------------------------
Magnitude (a.u.)       :      0.35874
Magnitude (Debye)      :      0.91185

Rotational constants in cm-1:     0.018897     0.008006     0.007601
Rotational constants in MHz :   566.531899   240.025885   227.872437

                             ****ORCA TERMINATED NORMALLY****
TOTAL RUN TIME: 0 days 0 hours 0 minutes 29 seconds 307 msec
