                         Program Version 4.2.1 -  RELEASE  -
|  1> ! wB97X-D3 SP def2-SVP
|  2> %pal
|  3> nprocs 16
|  4> end
|  5>
|  6> * xyz 0 1
|  7> S 	 -14.1323 	 -11.9086 	 90.5238
|  8> C 	 -15.5824 	 -10.9824 	 90.7351
|  9> C 	 -15.3896 	 -9.65389 	 90.4073
| 10> C 	 -14.1031 	 -9.35142 	 89.9338
| 11> C 	 -13.2799 	 -10.4359 	 89.855
| 12> H 	 -13.6387 	 -8.4188 	 89.6357
| 13> C 	 -16.5071 	 -8.56713 	 90.3998
| 14> H 	 -17.4325 	 -9.13425 	 90.7479
| 15> H 	 -16.7832 	 -8.24266 	 89.3965
| 16> C 	 -16.1279 	 -7.31681 	 91.2889
| 17> H 	 -15.7328 	 -7.5815 	 92.3239
| 18> H 	 -15.2934 	 -6.79506 	 90.8605
| 19> C 	 -17.2949 	 -6.34217 	 91.4217
| 20> H 	 -17.6664 	 -6.08926 	 90.4146
| 21> H 	 -18.1858 	 -6.78741 	 91.8959
| 22> H 	 -17.0634 	 -5.43048 	 91.9768
| 23> S 	 -10.6897 	 -10.0585 	 90.7187
| 24> C 	 -9.43166 	 -10.403 	 89.6409
| 25> C 	 -9.87737 	 -10.7103 	 88.3701
| 26> C 	 -11.3037 	 -10.7123 	 88.2436
| 27> C 	 -11.9036 	 -10.4163 	 89.4948
| 28> H 	 -9.09367 	 -10.8241 	 87.5978
| 29> C 	 -11.9144 	 -11.1619 	 86.9335
| 30> H 	 -12.9554 	 -11.0729 	 87.0537
| 31> H 	 -11.6675 	 -12.166 	 86.7039
| 32> C 	 -11.506 	 -10.3609 	 85.6074
| 33> H 	 -10.4102 	 -10.3883 	 85.7317
| 34> H 	 -11.8604 	 -9.31215 	 85.5392
| 35> C 	 -11.9096 	 -11.1558 	 84.3659
| 36> H 	 -11.557 	 -10.5589 	 83.4976
| 37> H 	 -12.987 	 -11.3192 	 84.3077
| 38> H 	 -11.4026 	 -12.1533 	 84.4402
| 39> H 	 -16.6097 	 -11.3043 	 90.9154
| 40> H 	 -8.36955 	 -10.3416 	 89.8197
| 41> *
| 42>
| 43>                          ****END OF INPUT****

CARTESIAN COORDINATES (ANGSTROEM)
---------------------------------
  S    -14.132300  -11.908600   90.523800
  C    -15.582400  -10.982400   90.735100
  C    -15.389600   -9.653890   90.407300
  C    -14.103100   -9.351420   89.933800
  C    -13.279900  -10.435900   89.855000
  H    -13.638700   -8.418800   89.635700
  C    -16.507100   -8.567130   90.399800
  H    -17.432500   -9.134250   90.747900
  H    -16.783200   -8.242660   89.396500
  C    -16.127900   -7.316810   91.288900
  H    -15.732800   -7.581500   92.323900
  H    -15.293400   -6.795060   90.860500
  C    -17.294900   -6.342170   91.421700
  H    -17.666400   -6.089260   90.414600
  H    -18.185800   -6.787410   91.895900
  H    -17.063400   -5.430480   91.976800
  S    -10.689700  -10.058500   90.718700
  C     -9.431660  -10.403000   89.640900
  C     -9.877370  -10.710300   88.370100
  C    -11.303700  -10.712300   88.243600
  C    -11.903600  -10.416300   89.494800
  H     -9.093670  -10.824100   87.597800
  C    -11.914400  -11.161900   86.933500
  H    -12.955400  -11.072900   87.053700
  H    -11.667500  -12.166000   86.703900
  C    -11.506000  -10.360900   85.607400
  H    -10.410200  -10.388300   85.731700
  H    -11.860400   -9.312150   85.539200
  C    -11.909600  -11.155800   84.365900
  H    -11.557000  -10.558900   83.497600
  H    -12.987000  -11.319200   84.307700
  H    -11.402600  -12.153300   84.440200
  H    -16.609700  -11.304300   90.915400
  H     -8.369550  -10.341600   89.819700

 Total Charge           Charge          ....    0
 Multiplicity           Mult            ....    1
 Number of Electrons    NEL             ....  134
 Basis Dimension        Dim             ....  322

ORBITAL ENERGIES
----------------

  NO   OCC          E(Eh)            E(eV)
   0   2.0000     -88.967880     -2420.9391
   1   2.0000     -88.965013     -2420.8611
   2   2.0000     -10.325179      -280.9624
   3   2.0000     -10.324658      -280.9482
   4   2.0000     -10.313847      -280.6540
   5   2.0000     -10.312080      -280.6059
   6   2.0000     -10.308178      -280.4998
   7   2.0000     -10.302601      -280.3480
   8   2.0000     -10.298171      -280.2275
   9   2.0000     -10.292799      -280.0813
  10   2.0000     -10.292210      -280.0653
  11   2.0000     -10.291233      -280.0387
  12   2.0000     -10.290103      -280.0079
  13   2.0000     -10.285867      -279.8927
  14   2.0000     -10.284620      -279.8587
  15   2.0000     -10.279412      -279.7170
  16   2.0000      -8.083374      -219.9598
  17   2.0000      -8.078763      -219.8343
  18   2.0000      -6.041787      -164.4054
  19   2.0000      -6.037678      -164.2936
  20   2.0000      -6.037382      -164.2855
  21   2.0000      -6.034273      -164.2009
  22   2.0000      -6.033444      -164.1784
  23   2.0000      -6.029415      -164.0687
  24   2.0000      -1.005625       -27.3645
  25   2.0000      -0.983321       -26.7575
  26   2.0000      -0.906337       -24.6627
  27   2.0000      -0.900281       -24.4979
  28   2.0000      -0.873212       -23.7613
  29   2.0000      -0.852135       -23.1878
  30   2.0000      -0.846201       -23.0263
  31   2.0000      -0.813048       -22.1242
  32   2.0000      -0.780121       -21.2282
  33   2.0000      -0.763317       -20.7709
  34   2.0000      -0.709446       -19.3050
  35   2.0000      -0.695283       -18.9196
  36   2.0000      -0.692237       -18.8367
  37   2.0000      -0.652762       -17.7626
  38   2.0000      -0.641629       -17.4596
  39   2.0000      -0.616166       -16.7667
  40   2.0000      -0.595914       -16.2156
  41   2.0000      -0.571673       -15.5560
  42   2.0000      -0.565356       -15.3841
  43   2.0000      -0.550314       -14.9748
  44   2.0000      -0.526056       -14.3147
  45   2.0000      -0.520303       -14.1582
  46   2.0000      -0.515171       -14.0185
  47   2.0000      -0.509311       -13.8590
  48   2.0000      -0.500964       -13.6319
  49   2.0000      -0.499341       -13.5878
  50   2.0000      -0.491535       -13.3753
  51   2.0000      -0.477705       -12.9990
  52   2.0000      -0.469036       -12.7631
  53   2.0000      -0.465961       -12.6794
  54   2.0000      -0.457961       -12.4618
  55   2.0000      -0.446415       -12.1476
  56   2.0000      -0.441149       -12.0043
  57   2.0000      -0.440045       -11.9742
  58   2.0000      -0.438031       -11.9194
  59   2.0000      -0.427431       -11.6310
  60   2.0000      -0.417402       -11.3581
  61   2.0000      -0.415205       -11.2983
  62   2.0000      -0.409348       -11.1389
  63   2.0000      -0.338691        -9.2163
  64   2.0000      -0.330945        -9.0055
  65   2.0000      -0.313788        -8.5386
  66   2.0000      -0.311306        -8.4711
  67   0.0000       0.043343         1.1794
  68   0.0000       0.048903         1.3307
  69   0.0000       0.116090         3.1590
  70   0.0000       0.122592         3.3359
  71   0.0000       0.129625         3.5273

MULLIKEN ATOMIC CHARGES
-----------------------
   0 S :    0.109904
   1 C :   -0.103456
   2 C :   -0.081590
   3 C :    0.045007
   4 C :   -0.184683
   5 H :    0.016673
   6 C :    0.048807
   7 H :    0.018516
   8 H :    0.037725
   9 C :   -0.093829
  10 H :    0.042796
  11 H :    0.030743
  12 C :   -0.044635
  13 H :    0.020252
  14 H :    0.029039
  15 H :    0.040453
  16 S :    0.141555
  17 C :   -0.085420
  18 C :   -0.071862
  19 C :    0.013335
  20 C :   -0.216162
  21 H :    0.032352
  22 C :    0.102166
  23 H :    0.014184
  24 H :    0.022234
  25 C :   -0.121484
  26 H :    0.027047
  27 H :    0.044942
  28 C :   -0.056548
  29 H :    0.046727
  30 H :    0.040651
  31 H :    0.036843
  32 H :    0.047618
  33 H :    0.050100
Sum of atomic charges:    0.0000000

LOEWDIN ATOMIC CHARGES
----------------------
   0 S :    0.378987
   1 C :   -0.202642
   2 C :   -0.071622
   3 C :   -0.052655
   4 C :   -0.178872
   5 H :    0.036425
   6 C :   -0.028325
   7 H :    0.030729
   8 H :    0.028459
   9 C :   -0.044888
  10 H :    0.032547
  11 H :    0.020204
  12 C :   -0.070569
  13 H :    0.023825
  14 H :    0.025471
  15 H :    0.027102
  16 S :    0.436082
  17 C :   -0.202181
  18 C :   -0.083955
  19 C :   -0.040596
  20 C :   -0.215236
  21 H :    0.034246
  22 C :   -0.024043
  23 H :    0.021233
  24 H :    0.028689
  25 C :   -0.039273
  26 H :    0.021124
  27 H :    0.026755
  28 C :   -0.068891
  29 H :    0.032543
  30 H :    0.025183
  31 H :    0.029933
  32 H :    0.034089
  33 H :    0.030121

  Mayer bond orders larger than 0.100000
B(  0-S ,  1-C ) :   1.1396 B(  0-S ,  4-C ) :   1.1050 B(  1-C ,  2-C ) :   1.6417
B(  1-C , 32-H ) :   0.9559 B(  2-C ,  3-C ) :   1.2098 B(  2-C ,  6-C ) :   1.0180
B(  3-C ,  4-C ) :   1.6254 B(  3-C ,  5-H ) :   0.9931 B(  4-C , 20-C ) :   1.0633
B(  6-C ,  7-H ) :   0.9466 B(  6-C ,  8-H ) :   0.9462 B(  6-C ,  9-C ) :   1.0375
B(  9-C , 10-H ) :   0.9593 B(  9-C , 11-H ) :   0.9551 B(  9-C , 12-C ) :   1.0873
B( 12-C , 13-H ) :   0.9708 B( 12-C , 14-H ) :   0.9759 B( 12-C , 15-H ) :   0.9745
B( 16-S , 17-C ) :   1.1743 B( 16-S , 20-C ) :   1.1483 B( 17-C , 18-C ) :   1.6181
B( 17-C , 33-H ) :   0.9627 B( 18-C , 19-C ) :   1.2400 B( 18-C , 21-H ) :   0.9791
B( 19-C , 20-C ) :   1.5636 B( 19-C , 22-C ) :   1.0529 B( 22-C , 23-H ) :   0.9233
B( 22-C , 24-H ) :   0.9407 B( 22-C , 25-C ) :   1.0450 B( 25-C , 26-H ) :   0.9608
B( 25-C , 27-H ) :   0.9569 B( 25-C , 28-C ) :   1.0820 B( 28-C , 29-H ) :   0.9725
B( 28-C , 30-H ) :   0.9761 B( 28-C , 31-H ) :   0.9719

Dispersion correction           -0.013343681
FINAL SINGLE POINT ENERGY     -1339.877610004475

DIPOLE MOMENT
-------------
                                X             Y             Z
Electronic contribution:     11.99850     -12.50553      15.13507
Nuclear contribution   :    -12.04089      12.84861     -15.60027
                        -----------------------------------------
Total Dipole Moment    :     -0.04239       0.34308      -0.46520
                        -----------------------------------------
Magnitude (a.u.)       :      0.57958
Magnitude (Debye)      :      1.47317

Rotational constants in cm-1:     0.017827     0.007250     0.006489
Rotational constants in MHz :   534.427765   217.335695   194.524301

                             ****ORCA TERMINATED NORMALLY****
TOTAL RUN TIME: 0 days 0 hours 0 minutes 30 seconds 42 msec
