                         Program Version 4.2.1 -  RELEASE  -
|  1> ! wB97X-D3 SP def2-SVP
|  2> %pal
|  3> nprocs 16
|  4> end
|  5>
|  6> * xyz 0 1
|  7> S 	 -68.5714 	 60.4297 	 126.281
|  8> C 	 -68.2048 	 60.4928 	 127.941
|  9> C 	 -67.7606 	 59.2713 	 128.533
| 10> C 	 -67.9607 	 58.255 	 127.562
| 11> C 	 -68.3335 	 58.7112 	 126.304
| 12> H 	 -67.6305 	 57.2502 	 127.711
| 13> C 	 -67.195 	 59.0089 	 129.91
| 14> H 	 -67.6806 	 58.1637 	 130.356
| 15> H 	 -67.2931 	 59.8151 	 130.598
| 16> C 	 -65.6432 	 58.605 	 129.887
| 17> H 	 -65.3648 	 58.1634 	 130.811
| 18> H 	 -65.5775 	 57.8383 	 129.08
| 19> C 	 -64.6653 	 59.7026 	 129.578
| 20> H 	 -63.6182 	 59.2711 	 129.502
| 21> H 	 -64.8818 	 60.135 	 128.571
| 22> H 	 -64.6987 	 60.4422 	 130.341
| 23> S 	 -67.2488 	 58.0946 	 123.825
| 24> C 	 -68.0144 	 56.8274 	 122.869
| 25> C 	 -69.156 	 56.3267 	 123.457
| 26> C 	 -69.4092 	 56.8997 	 124.795
| 27> C 	 -68.4565 	 57.8739 	 125.148
| 28> H 	 -69.7422 	 55.533 	 122.904
| 29> C 	 -70.5573 	 56.4596 	 125.672
| 30> H 	 -71.4831 	 56.771 	 125.198
| 31> H 	 -70.6333 	 57.043 	 126.597
| 32> C 	 -70.5493 	 54.9676 	 125.877
| 33> H 	 -69.833 	 54.7294 	 126.599
| 34> H 	 -70.3917 	 54.4858 	 124.957
| 35> C 	 -71.9206 	 54.5099 	 126.386
| 36> H 	 -71.8795 	 53.4226 	 126.572
| 37> H 	 -72.7054 	 54.6025 	 125.71
| 38> H 	 -72.0165 	 54.92 	 127.38
| 39> H 	 -68.2522 	 61.4202 	 128.411
| 40> H 	 -67.645 	 56.3976 	 121.955
| 41> *
| 42>
| 43>                          ****END OF INPUT****

CARTESIAN COORDINATES (ANGSTROEM)
---------------------------------
  S    -68.571400   60.429700  126.281000
  C    -68.204800   60.492800  127.941000
  C    -67.760600   59.271300  128.533000
  C    -67.960700   58.255000  127.562000
  C    -68.333500   58.711200  126.304000
  H    -67.630500   57.250200  127.711000
  C    -67.195000   59.008900  129.910000
  H    -67.680600   58.163700  130.356000
  H    -67.293100   59.815100  130.598000
  C    -65.643200   58.605000  129.887000
  H    -65.364800   58.163400  130.811000
  H    -65.577500   57.838300  129.080000
  C    -64.665300   59.702600  129.578000
  H    -63.618200   59.271100  129.502000
  H    -64.881800   60.135000  128.571000
  H    -64.698700   60.442200  130.341000
  S    -67.248800   58.094600  123.825000
  C    -68.014400   56.827400  122.869000
  C    -69.156000   56.326700  123.457000
  C    -69.409200   56.899700  124.795000
  C    -68.456500   57.873900  125.148000
  H    -69.742200   55.533000  122.904000
  C    -70.557300   56.459600  125.672000
  H    -71.483100   56.771000  125.198000
  H    -70.633300   57.043000  126.597000
  C    -70.549300   54.967600  125.877000
  H    -69.833000   54.729400  126.599000
  H    -70.391700   54.485800  124.957000
  C    -71.920600   54.509900  126.386000
  H    -71.879500   53.422600  126.572000
  H    -72.705400   54.602500  125.710000
  H    -72.016500   54.920000  127.380000
  H    -68.252200   61.420200  128.411000
  H    -67.645000   56.397600  121.955000

 Total Charge           Charge          ....    0
 Multiplicity           Mult            ....    1
 Number of Electrons    NEL             ....  134
 Basis Dimension        Dim             ....  322

ORBITAL ENERGIES
----------------

  NO   OCC          E(Eh)            E(eV)
   0   2.0000     -88.970661     -2421.0148
   1   2.0000     -88.961507     -2420.7657
   2   2.0000     -10.326047      -280.9860
   3   2.0000     -10.322954      -280.9019
   4   2.0000     -10.316920      -280.7377
   5   2.0000     -10.311145      -280.5805
   6   2.0000     -10.308769      -280.5159
   7   2.0000     -10.306187      -280.4456
   8   2.0000     -10.301242      -280.3110
   9   2.0000     -10.294275      -280.1215
  10   2.0000     -10.291287      -280.0402
  11   2.0000     -10.287118      -279.9267
  12   2.0000     -10.284055      -279.8434
  13   2.0000     -10.277213      -279.6572
  14   2.0000     -10.273556      -279.5577
  15   2.0000     -10.270075      -279.4629
  16   2.0000      -8.086386      -220.0417
  17   2.0000      -8.075397      -219.7427
  18   2.0000      -6.044534      -164.4801
  19   2.0000      -6.040824      -164.3792
  20   2.0000      -6.037410      -164.2863
  21   2.0000      -6.034096      -164.1961
  22   2.0000      -6.030027      -164.0854
  23   2.0000      -6.026003      -163.9759
  24   2.0000      -1.005428       -27.3591
  25   2.0000      -0.975538       -26.5457
  26   2.0000      -0.914717       -24.8907
  27   2.0000      -0.908807       -24.7299
  28   2.0000      -0.868596       -23.6357
  29   2.0000      -0.855273       -23.2732
  30   2.0000      -0.843827       -22.9617
  31   2.0000      -0.810683       -22.0598
  32   2.0000      -0.784100       -21.3364
  33   2.0000      -0.768375       -20.9086
  34   2.0000      -0.706005       -19.2114
  35   2.0000      -0.699061       -19.0224
  36   2.0000      -0.691510       -18.8169
  37   2.0000      -0.651927       -17.7398
  38   2.0000      -0.646045       -17.5798
  39   2.0000      -0.625186       -17.0122
  40   2.0000      -0.598359       -16.2822
  41   2.0000      -0.573664       -15.6102
  42   2.0000      -0.566560       -15.4169
  43   2.0000      -0.546649       -14.8751
  44   2.0000      -0.544274       -14.8105
  45   2.0000      -0.523138       -14.2353
  46   2.0000      -0.515529       -14.0283
  47   2.0000      -0.512372       -13.9423
  48   2.0000      -0.505923       -13.7669
  49   2.0000      -0.493929       -13.4405
  50   2.0000      -0.489654       -13.3242
  51   2.0000      -0.478962       -13.0332
  52   2.0000      -0.467267       -12.7150
  53   2.0000      -0.465971       -12.6797
  54   2.0000      -0.457985       -12.4624
  55   2.0000      -0.450742       -12.2653
  56   2.0000      -0.444338       -12.0910
  57   2.0000      -0.438474       -11.9315
  58   2.0000      -0.430747       -11.7212
  59   2.0000      -0.428913       -11.6713
  60   2.0000      -0.425917       -11.5898
  61   2.0000      -0.416232       -11.3262
  62   2.0000      -0.410647       -11.1743
  63   2.0000      -0.340863        -9.2754
  64   2.0000      -0.328068        -8.9272
  65   2.0000      -0.324666        -8.8346
  66   2.0000      -0.293033        -7.9738
  67   0.0000       0.040794         1.1101
  68   0.0000       0.057804         1.5729
  69   0.0000       0.116979         3.1831
  70   0.0000       0.121241         3.2991
  71   0.0000       0.124272         3.3816

MULLIKEN ATOMIC CHARGES
-----------------------
   0 S :    0.147263
   1 C :   -0.111758
   2 C :   -0.078842
   3 C :    0.040137
   4 C :   -0.187187
   5 H :    0.007206
   6 C :    0.101150
   7 H :    0.026811
   8 H :    0.010763
   9 C :   -0.096406
  10 H :    0.023274
  11 H :    0.027970
  12 C :   -0.050846
  13 H :    0.042700
  14 H :    0.043536
  15 H :    0.023848
  16 S :    0.091451
  17 C :   -0.083658
  18 C :   -0.063654
  19 C :   -0.016317
  20 C :   -0.176262
  21 H :    0.046412
  22 C :    0.080661
  23 H :    0.019258
  24 H :    0.023357
  25 C :   -0.046616
  26 H :    0.019639
  27 H :    0.015532
  28 C :   -0.027616
  29 H :    0.019763
  30 H :    0.025869
  31 H :    0.027174
  32 H :    0.024076
  33 H :    0.051312
Sum of atomic charges:   -0.0000000

LOEWDIN ATOMIC CHARGES
----------------------
   0 S :    0.447068
   1 C :   -0.200850
   2 C :   -0.059193
   3 C :   -0.050861
   4 C :   -0.215994
   5 H :    0.026888
   6 C :   -0.024459
   7 H :    0.031943
   8 H :    0.022983
   9 C :   -0.036346
  10 H :    0.016839
  11 H :    0.024447
  12 C :   -0.067939
  13 H :    0.035386
  14 H :    0.031109
  15 H :    0.016069
  16 S :    0.367464
  17 C :   -0.178976
  18 C :   -0.081539
  19 C :   -0.042749
  20 C :   -0.190309
  21 H :    0.041857
  22 C :   -0.034648
  23 H :    0.031278
  24 H :    0.031968
  25 C :   -0.025988
  26 H :    0.020200
  27 H :    0.016095
  28 C :   -0.057150
  29 H :    0.027276
  30 H :    0.015260
  31 H :    0.025540
  32 H :    0.008718
  33 H :    0.028613

  Mayer bond orders larger than 0.100000
B(  0-S ,  1-C ) :   1.1837 B(  0-S ,  4-C ) :   1.1621 B(  1-C ,  2-C ) :   1.5459
B(  1-C ,  4-C ) :   0.1030 B(  1-C , 32-H ) :   0.9762 B(  2-C ,  3-C ) :   1.2759
B(  2-C ,  6-C ) :   1.0399 B(  3-C ,  4-C ) :   1.5529 B(  3-C ,  5-H ) :   0.9905
B(  4-C , 20-C ) :   1.0533 B(  6-C ,  7-H ) :   0.9365 B(  6-C ,  8-H ) :   0.9437
B(  6-C ,  9-C ) :   1.0573 B(  9-C , 10-H ) :   0.9577 B(  9-C , 11-H ) :   0.9590
B(  9-C , 12-C ) :   1.0832 B( 12-C , 13-H ) :   0.9709 B( 12-C , 14-H ) :   0.9745
B( 12-C , 15-H ) :   0.9752 B( 16-S , 17-C ) :   1.1378 B( 16-S , 20-C ) :   1.1084
B( 17-C , 18-C ) :   1.6654 B( 17-C , 33-H ) :   0.9643 B( 18-C , 19-C ) :   1.1861
B( 18-C , 21-H ) :   0.9733 B( 19-C , 20-C ) :   1.6339 B( 19-C , 22-C ) :   1.0492
B( 22-C , 23-H ) :   0.9327 B( 22-C , 24-H ) :   0.9266 B( 22-C , 25-C ) :   1.0604
B( 25-C , 26-H ) :   0.9530 B( 25-C , 27-H ) :   0.9575 B( 25-C , 28-C ) :   1.0975
B( 28-C , 29-H ) :   0.9711 B( 28-C , 30-H ) :   0.9770 B( 28-C , 31-H ) :   0.9722

Dispersion correction           -0.014035654
FINAL SINGLE POINT ENERGY     -1339.875912342927

DIPOLE MOMENT
-------------
                                X             Y             Z
Electronic contribution:      1.95083      13.63081     -17.70552
Nuclear contribution   :     -2.06731     -14.04609      18.11010
                        -----------------------------------------
Total Dipole Moment    :     -0.11647      -0.41527       0.40459
                        -----------------------------------------
Magnitude (a.u.)       :      0.59136
Magnitude (Debye)      :      1.50312

Rotational constants in cm-1:     0.018168     0.008192     0.006922
Rotational constants in MHz :   544.660931   245.586995   207.509476

                             ****ORCA TERMINATED NORMALLY****
TOTAL RUN TIME: 0 days 0 hours 0 minutes 33 seconds 635 msec
