                         Program Version 4.2.1 -  RELEASE  -
|  1> ! wB97X-D3 SP def2-SVP
|  2> %pal
|  3> nprocs 16
|  4> end
|  5>
|  6> * xyz 0 1
|  7> S 	 -36.3411 	 25.4339 	 75.7131
|  8> C 	 -35.1519 	 26.0931 	 74.6553
|  9> C 	 -34.8148 	 27.3904 	 75.0849
| 10> C 	 -35.4789 	 27.8159 	 76.2868
| 11> C 	 -36.2754 	 26.8307 	 76.8312
| 12> H 	 -35.2279 	 28.7691 	 76.8168
| 13> C 	 -33.7433 	 28.265 	 74.4
| 14> H 	 -33.282 	 27.7924 	 73.5071
| 15> H 	 -32.8287 	 28.3641 	 75.081
| 16> C 	 -34.1175 	 29.7159 	 74.0618
| 17> H 	 -34.8658 	 29.6461 	 73.2603
| 18> H 	 -34.436 	 30.2921 	 74.9221
| 19> C 	 -32.8882 	 30.5454 	 73.5117
| 20> H 	 -32.3967 	 30.1465 	 72.5966
| 21> H 	 -33.2261 	 31.5637 	 73.2932
| 22> H 	 -32.101 	 30.6096 	 74.2653
| 23> S 	 -36.2506 	 27.5785 	 79.5473
| 24> C 	 -37.6119 	 27.2595 	 80.5289
| 25> C 	 -38.6299 	 26.8399 	 79.7419
| 26> C 	 -38.2506 	 26.4654 	 78.4005
| 27> C 	 -37.0249 	 27.0071 	 78.0522
| 28> H 	 -39.6691 	 26.7019 	 80.0911
| 29> C 	 -39.3036 	 25.7917 	 77.4876
| 30> H 	 -39.6927 	 24.9947 	 78.0243
| 31> H 	 -38.7488 	 25.3834 	 76.644
| 32> C 	 -40.4016 	 26.7624 	 76.9622
| 33> H 	 -40.8717 	 27.1862 	 77.8261
| 34> H 	 -41.2113 	 26.1526 	 76.5357
| 35> C 	 -39.9071 	 27.8185 	 75.9561
| 36> H 	 -39.0979 	 28.4389 	 76.1765
| 37> H 	 -40.694 	 28.4547 	 75.6442
| 38> H 	 -39.551 	 27.2546 	 75.1213
| 39> H 	 -34.5138 	 25.3908 	 74.0732
| 40> H 	 -37.6914 	 27.5181 	 81.5842
| 41> *
| 42>
| 43>                          ****END OF INPUT****

CARTESIAN COORDINATES (ANGSTROEM)
---------------------------------
  S    -36.341100   25.433900   75.713100
  C    -35.151900   26.093100   74.655300
  C    -34.814800   27.390400   75.084900
  C    -35.478900   27.815900   76.286800
  C    -36.275400   26.830700   76.831200
  H    -35.227900   28.769100   76.816800
  C    -33.743300   28.265000   74.400000
  H    -33.282000   27.792400   73.507100
  H    -32.828700   28.364100   75.081000
  C    -34.117500   29.715900   74.061800
  H    -34.865800   29.646100   73.260300
  H    -34.436000   30.292100   74.922100
  C    -32.888200   30.545400   73.511700
  H    -32.396700   30.146500   72.596600
  H    -33.226100   31.563700   73.293200
  H    -32.101000   30.609600   74.265300
  S    -36.250600   27.578500   79.547300
  C    -37.611900   27.259500   80.528900
  C    -38.629900   26.839900   79.741900
  C    -38.250600   26.465400   78.400500
  C    -37.024900   27.007100   78.052200
  H    -39.669100   26.701900   80.091100
  C    -39.303600   25.791700   77.487600
  H    -39.692700   24.994700   78.024300
  H    -38.748800   25.383400   76.644000
  C    -40.401600   26.762400   76.962200
  H    -40.871700   27.186200   77.826100
  H    -41.211300   26.152600   76.535700
  C    -39.907100   27.818500   75.956100
  H    -39.097900   28.438900   76.176500
  H    -40.694000   28.454700   75.644200
  H    -39.551000   27.254600   75.121300
  H    -34.513800   25.390800   74.073200
  H    -37.691400   27.518100   81.584200

 Total Charge           Charge          ....    0
 Multiplicity           Mult            ....    1
 Number of Electrons    NEL             ....  134
 Basis Dimension        Dim             ....  322

ORBITAL ENERGIES
----------------

  NO   OCC          E(Eh)            E(eV)
   0   2.0000     -88.968675     -2420.9607
   1   2.0000     -88.963703     -2420.8254
   2   2.0000     -10.335356      -281.2393
   3   2.0000     -10.327703      -281.0311
   4   2.0000     -10.318845      -280.7901
   5   2.0000     -10.315015      -280.6858
   6   2.0000     -10.310376      -280.5596
   7   2.0000     -10.301516      -280.3185
   8   2.0000     -10.300188      -280.2824
   9   2.0000     -10.299576      -280.2657
  10   2.0000     -10.291921      -280.0574
  11   2.0000     -10.291782      -280.0536
  12   2.0000     -10.286784      -279.9176
  13   2.0000     -10.286321      -279.9050
  14   2.0000     -10.284140      -279.8457
  15   2.0000     -10.262310      -279.2516
  16   2.0000      -8.082753      -219.9429
  17   2.0000      -8.078841      -219.8364
  18   2.0000      -6.041442      -164.3960
  19   2.0000      -6.037540      -164.2898
  20   2.0000      -6.037185      -164.2802
  21   2.0000      -6.033524      -164.1805
  22   2.0000      -6.033294      -164.1743
  23   2.0000      -6.029348      -164.0669
  24   2.0000      -1.007869       -27.4255
  25   2.0000      -0.986134       -26.8341
  26   2.0000      -0.906221       -24.6595
  27   2.0000      -0.902214       -24.5505
  28   2.0000      -0.874736       -23.8028
  29   2.0000      -0.848385       -23.0857
  30   2.0000      -0.841450       -22.8970
  31   2.0000      -0.811987       -22.0953
  32   2.0000      -0.785614       -21.3776
  33   2.0000      -0.768578       -20.9141
  34   2.0000      -0.710064       -19.3218
  35   2.0000      -0.701523       -19.0894
  36   2.0000      -0.688089       -18.7238
  37   2.0000      -0.663263       -18.0483
  38   2.0000      -0.634328       -17.2609
  39   2.0000      -0.617124       -16.7928
  40   2.0000      -0.597300       -16.2534
  41   2.0000      -0.564969       -15.3736
  42   2.0000      -0.563686       -15.3387
  43   2.0000      -0.554445       -15.0872
  44   2.0000      -0.538037       -14.6407
  45   2.0000      -0.519911       -14.1475
  46   2.0000      -0.515793       -14.0354
  47   2.0000      -0.512977       -13.9588
  48   2.0000      -0.503458       -13.6998
  49   2.0000      -0.497904       -13.5487
  50   2.0000      -0.494172       -13.4471
  51   2.0000      -0.478105       -13.0099
  52   2.0000      -0.464776       -12.6472
  53   2.0000      -0.460959       -12.5433
  54   2.0000      -0.457199       -12.4410
  55   2.0000      -0.450390       -12.2557
  56   2.0000      -0.446270       -12.1436
  57   2.0000      -0.437934       -11.9168
  58   2.0000      -0.431881       -11.7521
  59   2.0000      -0.427178       -11.6241
  60   2.0000      -0.422623       -11.5002
  61   2.0000      -0.411223       -11.1900
  62   2.0000      -0.406555       -11.0629
  63   2.0000      -0.361721        -9.8429
  64   2.0000      -0.329957        -8.9786
  65   2.0000      -0.326451        -8.8832
  66   2.0000      -0.287144        -7.8136
  67   0.0000       0.024427         0.6647
  68   0.0000       0.067836         1.8459
  69   0.0000       0.109577         2.9817
  70   0.0000       0.111355         3.0301
  71   0.0000       0.128765         3.5039

MULLIKEN ATOMIC CHARGES
-----------------------
   0 S :    0.092258
   1 C :   -0.132317
   2 C :   -0.056620
   3 C :   -0.018768
   4 C :   -0.110008
   5 H :    0.042144
   6 C :    0.012685
   7 H :    0.021012
   8 H :    0.035120
   9 C :   -0.078722
  10 H :    0.041140
  11 H :    0.038113
  12 C :   -0.078242
  13 H :    0.036124
  14 H :    0.038822
  15 H :    0.029036
  16 S :    0.092326
  17 C :   -0.082037
  18 C :   -0.034284
  19 C :   -0.122394
  20 C :   -0.117970
  21 H :    0.026460
  22 C :    0.099282
  23 H :    0.011911
  24 H :    0.012269
  25 C :   -0.054040
  26 H :    0.010660
  27 H :    0.029470
  28 C :   -0.005886
  29 H :    0.027788
  30 H :    0.025079
  31 H :    0.018022
  32 H :    0.083938
  33 H :    0.067630
Sum of atomic charges:    0.0000000

LOEWDIN ATOMIC CHARGES
----------------------
   0 S :    0.410016
   1 C :   -0.221709
   2 C :   -0.058237
   3 C :   -0.071054
   4 C :   -0.172178
   5 H :    0.041332
   6 C :   -0.044903
   7 H :    0.029833
   8 H :    0.034209
   9 C :   -0.038031
  10 H :    0.026946
  11 H :    0.023684
  12 C :   -0.068874
  13 H :    0.025767
  14 H :    0.027606
  15 H :    0.021571
  16 S :    0.406547
  17 C :   -0.197197
  18 C :   -0.075932
  19 C :   -0.055293
  20 C :   -0.193185
  21 H :    0.031965
  22 C :   -0.024402
  23 H :    0.021792
  24 H :    0.013411
  25 C :   -0.030003
  26 H :    0.014403
  27 H :    0.027667
  28 C :   -0.057084
  29 H :    0.021301
  30 H :    0.024075
  31 H :    0.026099
  32 H :    0.042725
  33 H :    0.037133

  Mayer bond orders larger than 0.100000
B(  0-S ,  1-C ) :   1.1378 B(  0-S ,  4-C ) :   1.1413 B(  1-C ,  2-C ) :   1.5973
B(  1-C , 32-H ) :   0.9586 B(  2-C ,  3-C ) :   1.2465 B(  2-C ,  6-C ) :   1.0232
B(  3-C ,  4-C ) :   1.5458 B(  3-C ,  5-H ) :   0.9864 B(  4-C , 20-C ) :   1.0858
B(  6-C ,  7-H ) :   0.9494 B(  6-C ,  8-H ) :   0.9425 B(  6-C ,  9-C ) :   1.0587
B(  9-C , 10-H ) :   0.9585 B(  9-C , 11-H ) :   0.9541 B(  9-C , 12-C ) :   1.0780
B( 12-C , 13-H ) :   0.9771 B( 12-C , 14-H ) :   0.9763 B( 12-C , 15-H ) :   0.9755
B( 16-S , 17-C ) :   1.1529 B( 16-S , 20-C ) :   1.1192 B( 17-C , 18-C ) :   1.6126
B( 17-C , 33-H ) :   0.9657 B( 18-C , 19-C ) :   1.2334 B( 18-C , 21-H ) :   0.9824
B( 19-C , 20-C ) :   1.5869 B( 19-C , 22-C ) :   1.0438 B( 22-C , 23-H ) :   0.9251
B( 22-C , 24-H ) :   0.9330 B( 22-C , 25-C ) :   1.0762 B( 25-C , 26-H ) :   0.9563
B( 25-C , 27-H ) :   0.9541 B( 25-C , 28-C ) :   1.0672 B( 28-C , 29-H ) :   0.9777
B( 28-C , 30-H ) :   0.9725 B( 28-C , 31-H ) :   0.9725

Dispersion correction           -0.014692059
FINAL SINGLE POINT ENERGY     -1339.876216371859

DIPOLE MOMENT
-------------
                                X             Y             Z
Electronic contribution:      1.43040     -12.88723      15.68004
Nuclear contribution   :     -1.49663      13.07010     -15.75365
                        -----------------------------------------
Total Dipole Moment    :     -0.06623       0.18287      -0.07361
                        -----------------------------------------
Magnitude (a.u.)       :      0.20796
Magnitude (Debye)      :      0.52858

Rotational constants in cm-1:     0.020292     0.007910     0.007054
Rotational constants in MHz :   608.337547   237.147754   211.464242

                             ****ORCA TERMINATED NORMALLY****
TOTAL RUN TIME: 0 days 0 hours 0 minutes 30 seconds 52 msec
