                         Program Version 4.2.1 -  RELEASE  -
|  1> ! wB97X-D3 SP def2-SVP
|  2> %pal
|  3> nprocs 16
|  4> end
|  5>
|  6> * xyz 0 1
|  7> S 	 36.5947 	 7.33469 	 90.8308
|  8> C 	 38.0453 	 7.03563 	 89.9079
|  9> C 	 37.8361 	 7.35933 	 88.5152
| 10> C 	 36.5775 	 7.98118 	 88.3267
| 11> C 	 35.7325 	 7.9621 	 89.4544
| 12> H 	 36.2335 	 8.37633 	 87.4015
| 13> C 	 38.8427 	 7.19846 	 87.3414
| 14> H 	 38.3699 	 7.00612 	 86.3541
| 15> H 	 39.4107 	 6.23303 	 87.4119
| 16> C 	 39.8998 	 8.3281 	 87.1056
| 17> H 	 40.4805 	 8.45558 	 88.0551
| 18> H 	 40.6372 	 7.98792 	 86.3979
| 19> C 	 39.1922 	 9.68061 	 86.7705
| 20> H 	 39.0502 	 10.2743 	 87.7641
| 21> H 	 39.9459 	 10.3338 	 86.3349
| 22> H 	 38.2016 	 9.78087 	 86.3297
| 23> S 	 33.4834 	 7.68604 	 90.8336
| 24> C 	 32.1169 	 8.67724 	 90.4545
| 25> C 	 32.25 	 9.53091 	 89.3677
| 26> C 	 33.5538 	 9.31172 	 88.7274
| 27> C 	 34.3321 	 8.36542 	 89.4976
| 28> H 	 31.4837 	 10.1863 	 88.9729
| 29> C 	 33.9723 	 10.2541 	 87.633
| 30> H 	 35.0596 	 10.2217 	 87.6741
| 31> H 	 33.8106 	 11.4364 	 87.8293
| 32> C 	 33.6744 	 9.79234 	 86.1509
| 33> H 	 33.8719 	 8.72684 	 86.1763
| 34> H 	 34.5135 	 10.1664 	 85.6
| 35> C 	 32.2957 	 10.1561 	 85.6772
| 36> H 	 32.3047 	 10.2039 	 84.5982
| 37> H 	 32.0209 	 11.0794 	 86.1123
| 38> H 	 31.6333 	 9.39116 	 86.0859
| 39> H 	 38.8588 	 6.38742 	 90.2437
| 40> H 	 31.2394 	 8.63775 	 90.99
| 41> *
| 42>
| 43>                          ****END OF INPUT****

CARTESIAN COORDINATES (ANGSTROEM)
---------------------------------
  S     36.594700    7.334690   90.830800
  C     38.045300    7.035630   89.907900
  C     37.836100    7.359330   88.515200
  C     36.577500    7.981180   88.326700
  C     35.732500    7.962100   89.454400
  H     36.233500    8.376330   87.401500
  C     38.842700    7.198460   87.341400
  H     38.369900    7.006120   86.354100
  H     39.410700    6.233030   87.411900
  C     39.899800    8.328100   87.105600
  H     40.480500    8.455580   88.055100
  H     40.637200    7.987920   86.397900
  C     39.192200    9.680610   86.770500
  H     39.050200   10.274300   87.764100
  H     39.945900   10.333800   86.334900
  H     38.201600    9.780870   86.329700
  S     33.483400    7.686040   90.833600
  C     32.116900    8.677240   90.454500
  C     32.250000    9.530910   89.367700
  C     33.553800    9.311720   88.727400
  C     34.332100    8.365420   89.497600
  H     31.483700   10.186300   88.972900
  C     33.972300   10.254100   87.633000
  H     35.059600   10.221700   87.674100
  H     33.810600   11.436400   87.829300
  C     33.674400    9.792340   86.150900
  H     33.871900    8.726840   86.176300
  H     34.513500   10.166400   85.600000
  C     32.295700   10.156100   85.677200
  H     32.304700   10.203900   84.598200
  H     32.020900   11.079400   86.112300
  H     31.633300    9.391160   86.085900
  H     38.858800    6.387420   90.243700
  H     31.239400    8.637750   90.990000

 Total Charge           Charge          ....    0
 Multiplicity           Mult            ....    1
 Number of Electrons    NEL             ....  134
 Basis Dimension        Dim             ....  322

ORBITAL ENERGIES
----------------

  NO   OCC          E(Eh)            E(eV)
   0   2.0000     -88.973140     -2421.0822
   1   2.0000     -88.972054     -2421.0527
   2   2.0000     -10.334496      -281.2159
   3   2.0000     -10.332788      -281.1695
   4   2.0000     -10.320321      -280.8302
   5   2.0000     -10.313359      -280.6408
   6   2.0000     -10.312114      -280.6069
   7   2.0000     -10.311614      -280.5933
   8   2.0000     -10.302030      -280.3325
   9   2.0000     -10.301393      -280.3152
  10   2.0000     -10.298693      -280.2417
  11   2.0000     -10.295312      -280.1497
  12   2.0000     -10.291994      -280.0594
  13   2.0000     -10.284963      -279.8681
  14   2.0000     -10.284746      -279.8622
  15   2.0000     -10.273996      -279.5697
  16   2.0000      -8.087602      -220.0748
  17   2.0000      -8.087478      -220.0715
  18   2.0000      -6.046051      -164.5214
  19   2.0000      -6.045999      -164.5200
  20   2.0000      -6.042052      -164.4126
  21   2.0000      -6.041882      -164.4080
  22   2.0000      -6.038378      -164.3126
  23   2.0000      -6.038368      -164.3124
  24   2.0000      -1.007356       -27.4116
  25   2.0000      -0.980149       -26.6712
  26   2.0000      -0.910737       -24.7824
  27   2.0000      -0.900698       -24.5092
  28   2.0000      -0.866313       -23.5736
  29   2.0000      -0.856058       -23.2945
  30   2.0000      -0.843431       -22.9509
  31   2.0000      -0.809577       -22.0297
  32   2.0000      -0.783290       -21.3144
  33   2.0000      -0.769579       -20.9413
  34   2.0000      -0.706999       -19.2384
  35   2.0000      -0.701177       -19.0800
  36   2.0000      -0.687798       -18.7159
  37   2.0000      -0.666860       -18.1462
  38   2.0000      -0.637879       -17.3576
  39   2.0000      -0.617567       -16.8049
  40   2.0000      -0.597450       -16.2574
  41   2.0000      -0.565485       -15.3876
  42   2.0000      -0.553517       -15.0620
  43   2.0000      -0.543298       -14.7839
  44   2.0000      -0.540799       -14.7159
  45   2.0000      -0.535022       -14.5587
  46   2.0000      -0.511885       -13.9291
  47   2.0000      -0.508393       -13.8341
  48   2.0000      -0.507197       -13.8015
  49   2.0000      -0.497289       -13.5319
  50   2.0000      -0.487370       -13.2620
  51   2.0000      -0.479573       -13.0498
  52   2.0000      -0.478235       -13.0134
  53   2.0000      -0.468427       -12.7466
  54   2.0000      -0.460816       -12.5394
  55   2.0000      -0.455848       -12.4042
  56   2.0000      -0.436978       -11.8908
  57   2.0000      -0.435023       -11.8376
  58   2.0000      -0.430074       -11.7029
  59   2.0000      -0.423404       -11.5214
  60   2.0000      -0.418807       -11.3963
  61   2.0000      -0.409336       -11.1386
  62   2.0000      -0.407125       -11.0784
  63   2.0000      -0.357311        -9.7229
  64   2.0000      -0.336924        -9.1682
  65   2.0000      -0.330270        -8.9871
  66   2.0000      -0.275986        -7.5099
  67   0.0000       0.014813         0.4031
  68   0.0000       0.074079         2.0158
  69   0.0000       0.101527         2.7627
  70   0.0000       0.109307         2.9744
  71   0.0000       0.120674         3.2837

MULLIKEN ATOMIC CHARGES
-----------------------
   0 S :    0.116012
   1 C :   -0.122935
   2 C :   -0.072445
   3 C :    0.022272
   4 C :   -0.120674
   5 H :   -0.016467
   6 C :    0.004091
   7 H :    0.033289
   8 H :    0.026082
   9 C :   -0.050353
  10 H :    0.035808
  11 H :    0.034298
  12 C :   -0.093553
  13 H :    0.041149
  14 H :    0.033316
  15 H :    0.044294
  16 S :    0.113199
  17 C :   -0.054029
  18 C :   -0.022752
  19 C :   -0.031051
  20 C :   -0.129216
  21 H :    0.024325
  22 C :   -0.060163
  23 H :    0.009491
  24 H :    0.063552
  25 C :   -0.077103
  26 H :    0.028732
  27 H :    0.019219
  28 C :    0.021500
  29 H :    0.038921
  30 H :    0.015090
  31 H :    0.038559
  32 H :    0.064073
  33 H :    0.023469
Sum of atomic charges:   -0.0000000

LOEWDIN ATOMIC CHARGES
----------------------
   0 S :    0.419474
   1 C :   -0.215786
   2 C :   -0.052784
   3 C :   -0.067912
   4 C :   -0.198215
   5 H :    0.019768
   6 C :   -0.043226
   7 H :    0.032116
   8 H :    0.032450
   9 C :   -0.038122
  10 H :    0.031057
  11 H :    0.021277
  12 C :   -0.087339
  13 H :    0.041473
  14 H :    0.026873
  15 H :    0.023309
  16 S :    0.431113
  17 C :   -0.180578
  18 C :   -0.059940
  19 C :   -0.055595
  20 C :   -0.200939
  21 H :    0.033849
  22 C :   -0.053004
  23 H :    0.025362
  24 H :    0.047702
  25 C :   -0.038131
  26 H :    0.024238
  27 H :    0.018417
  28 C :   -0.057832
  29 H :    0.028991
  30 H :    0.017773
  31 H :    0.033149
  32 H :    0.032140
  33 H :    0.008871

  Mayer bond orders larger than 0.100000
B(  0-S ,  1-C ) :   1.1510 B(  0-S ,  4-C ) :   1.1639 B(  1-C ,  2-C ) :   1.5526
B(  1-C ,  4-C ) :   0.1107 B(  1-C , 32-H ) :   0.9642 B(  2-C ,  3-C ) :   1.3016
B(  2-C ,  6-C ) :   1.0177 B(  3-C ,  4-C ) :   1.5096 B(  3-C ,  5-H ) :   0.9937
B(  4-C , 20-C ) :   1.0932 B(  6-C ,  7-H ) :   0.9513 B(  6-C ,  8-H ) :   0.9439
B(  6-C ,  9-C ) :   1.0734 B(  9-C , 10-H ) :   0.9563 B(  9-C , 11-H ) :   0.9618
B(  9-C , 12-C ) :   1.0540 B( 12-C , 13-H ) :   0.9732 B( 12-C , 14-H ) :   0.9736
B( 12-C , 15-H ) :   0.9811 B( 16-S , 17-C ) :   1.1564 B( 16-S , 20-C ) :   1.1521
B( 17-C , 18-C ) :   1.6044 B( 17-C , 33-H ) :   0.9755 B( 18-C , 19-C ) :   1.2465
B( 18-C , 21-H ) :   0.9886 B( 19-C , 20-C ) :   1.5364 B( 19-C , 22-C ) :   1.0438
B( 22-C , 23-H ) :   0.9293 B( 22-C , 24-H ) :   0.9437 B( 22-C , 25-C ) :   1.0659
B( 25-C , 26-H ) :   0.9511 B( 25-C , 27-H ) :   0.9597 B( 25-C , 28-C ) :   1.0678
B( 28-C , 29-H ) :   0.9724 B( 28-C , 30-H ) :   0.9758 B( 28-C , 31-H ) :   0.9719

Dispersion correction           -0.014732272
FINAL SINGLE POINT ENERGY     -1339.847765193683

DIPOLE MOMENT
-------------
                                X             Y             Z
Electronic contribution:     -7.94174     -12.33337      26.11629
Nuclear contribution   :      8.01951      12.54156     -26.63067
                        -----------------------------------------
Total Dipole Moment    :      0.07777       0.20819      -0.51438
                        -----------------------------------------
Magnitude (a.u.)       :      0.56034
Magnitude (Debye)      :      1.42427

Rotational constants in cm-1:     0.017420     0.009694     0.006572
Rotational constants in MHz :   522.229814   290.633603   197.013309

                             ****ORCA TERMINATED NORMALLY****
TOTAL RUN TIME: 0 days 0 hours 0 minutes 30 seconds 858 msec
