                         Program Version 4.2.1 -  RELEASE  -
|  1> ! wB97X-D3 SP def2-SVP
|  2> %pal
|  3> nprocs 16
|  4> end
|  5>
|  6> * xyz 0 1
|  7> S 	 -1.28978 	 77.3877 	 46.1279
|  8> C 	 -1.44819 	 77.8828 	 47.832
|  9> C 	 -0.47889 	 77.4062 	 48.6601
| 10> C 	 0.246209 	 76.3497 	 47.9813
| 11> C 	 -0.181827 	 76.1152 	 46.6988
| 12> H 	 1.04347 	 75.7394 	 48.4857
| 13> C 	 -0.321088 	 77.8335 	 50.1348
| 14> H 	 -1.16971 	 77.4534 	 50.7656
| 15> H 	 -0.306423 	 78.9532 	 50.2103
| 16> C 	 1.03498 	 77.4782 	 50.7573
| 17> H 	 0.960403 	 77.5173 	 51.8855
| 18> H 	 1.1266 	 76.4321 	 50.4534
| 19> C 	 2.2756 	 78.2401 	 50.2343
| 20> H 	 2.20637 	 78.3025 	 49.1492
| 21> H 	 2.48184 	 79.2621 	 50.5586
| 22> H 	 3.23628 	 77.6308 	 50.4342
| 23> S 	 0.579593 	 75.6898 	 44.1399
| 24> C 	 1.21129 	 74.1514 	 43.5877
| 25> C 	 1.25184 	 73.3571 	 44.6579
| 26> C 	 0.845454 	 73.8814 	 45.8793
| 27> C 	 0.324522 	 75.1453 	 45.7438
| 28> H 	 1.73322 	 72.3625 	 44.5314
| 29> C 	 0.814922 	 73.0579 	 47.1213
| 30> H 	 0.312632 	 72.1907 	 46.8629
| 31> H 	 0.071806 	 73.4474 	 47.7341
| 32> C 	 2.18168 	 72.842 	 47.9098
| 33> H 	 1.78029 	 72.5353 	 48.9079
| 34> H 	 2.71017 	 73.826 	 47.9981
| 35> C 	 3.07595 	 71.6627 	 47.454
| 36> H 	 3.80466 	 71.3213 	 48.2399
| 37> H 	 3.67792 	 72.0332 	 46.6819
| 38> H 	 2.51496 	 70.8649 	 47.0656
| 39> H 	 -2.2353 	 78.5883 	 48.1981
| 40> H 	 1.5942 	 73.8001 	 42.5929
| 41> *
| 42>
| 43>                          ****END OF INPUT****

CARTESIAN COORDINATES (ANGSTROEM)
---------------------------------
  S     -1.289780   77.387700   46.127900
  C     -1.448190   77.882800   47.832000
  C     -0.478890   77.406200   48.660100
  C      0.246209   76.349700   47.981300
  C     -0.181827   76.115200   46.698800
  H      1.043470   75.739400   48.485700
  C     -0.321088   77.833500   50.134800
  H     -1.169710   77.453400   50.765600
  H     -0.306423   78.953200   50.210300
  C      1.034980   77.478200   50.757300
  H      0.960403   77.517300   51.885500
  H      1.126600   76.432100   50.453400
  C      2.275600   78.240100   50.234300
  H      2.206370   78.302500   49.149200
  H      2.481840   79.262100   50.558600
  H      3.236280   77.630800   50.434200
  S      0.579593   75.689800   44.139900
  C      1.211290   74.151400   43.587700
  C      1.251840   73.357100   44.657900
  C      0.845454   73.881400   45.879300
  C      0.324522   75.145300   45.743800
  H      1.733220   72.362500   44.531400
  C      0.814922   73.057900   47.121300
  H      0.312632   72.190700   46.862900
  H      0.071806   73.447400   47.734100
  C      2.181680   72.842000   47.909800
  H      1.780290   72.535300   48.907900
  H      2.710170   73.826000   47.998100
  C      3.075950   71.662700   47.454000
  H      3.804660   71.321300   48.239900
  H      3.677920   72.033200   46.681900
  H      2.514960   70.864900   47.065600
  H     -2.235300   78.588300   48.198100
  H      1.594200   73.800100   42.592900

 Total Charge           Charge          ....    0
 Multiplicity           Mult            ....    1
 Number of Electrons    NEL             ....  134
 Basis Dimension        Dim             ....  322

ORBITAL ENERGIES
----------------

  NO   OCC          E(Eh)            E(eV)
   0   2.0000     -88.967852     -2420.9383
   1   2.0000     -88.961128     -2420.7554
   2   2.0000     -10.333165      -281.1797
   3   2.0000     -10.321467      -280.8614
   4   2.0000     -10.316941      -280.7382
   5   2.0000     -10.314026      -280.6589
   6   2.0000     -10.305225      -280.4194
   7   2.0000     -10.303843      -280.3818
   8   2.0000     -10.303343      -280.3682
   9   2.0000     -10.299210      -280.2558
  10   2.0000     -10.295548      -280.1561
  11   2.0000     -10.290919      -280.0301
  12   2.0000     -10.286538      -279.9109
  13   2.0000     -10.283389      -279.8252
  14   2.0000     -10.279293      -279.7138
  15   2.0000     -10.276214      -279.6300
  16   2.0000      -8.081817      -219.9174
  17   2.0000      -8.076721      -219.7787
  18   2.0000      -6.040406      -164.3678
  19   2.0000      -6.036889      -164.2721
  20   2.0000      -6.035270      -164.2280
  21   2.0000      -6.032074      -164.1411
  22   2.0000      -6.031104      -164.1147
  23   2.0000      -6.027374      -164.0132
  24   2.0000      -1.015445       -27.6317
  25   2.0000      -0.986877       -26.8543
  26   2.0000      -0.911009       -24.7898
  27   2.0000      -0.905630       -24.6434
  28   2.0000      -0.873435       -23.7674
  29   2.0000      -0.852282       -23.1918
  30   2.0000      -0.839189       -22.8355
  31   2.0000      -0.818987       -22.2858
  32   2.0000      -0.785956       -21.3869
  33   2.0000      -0.776729       -21.1359
  34   2.0000      -0.712422       -19.3860
  35   2.0000      -0.700513       -19.0619
  36   2.0000      -0.687045       -18.6954
  37   2.0000      -0.657992       -17.9049
  38   2.0000      -0.636391       -17.3171
  39   2.0000      -0.622074       -16.9275
  40   2.0000      -0.598486       -16.2856
  41   2.0000      -0.565578       -15.3902
  42   2.0000      -0.552632       -15.0379
  43   2.0000      -0.547166       -14.8891
  44   2.0000      -0.536204       -14.5909
  45   2.0000      -0.532901       -14.5010
  46   2.0000      -0.522835       -14.2271
  47   2.0000      -0.510660       -13.8958
  48   2.0000      -0.501305       -13.6412
  49   2.0000      -0.496597       -13.5131
  50   2.0000      -0.491411       -13.3720
  51   2.0000      -0.479441       -13.0463
  52   2.0000      -0.476842       -12.9755
  53   2.0000      -0.469072       -12.7641
  54   2.0000      -0.460245       -12.5239
  55   2.0000      -0.452728       -12.3194
  56   2.0000      -0.444864       -12.1054
  57   2.0000      -0.439146       -11.9498
  58   2.0000      -0.436239       -11.8707
  59   2.0000      -0.424223       -11.5437
  60   2.0000      -0.416467       -11.3327
  61   2.0000      -0.409201       -11.1349
  62   2.0000      -0.407338       -11.0842
  63   2.0000      -0.359263        -9.7760
  64   2.0000      -0.334917        -9.1135
  65   2.0000      -0.327423        -8.9096
  66   2.0000      -0.286673        -7.8008
  67   0.0000       0.023620         0.6427
  68   0.0000       0.071129         1.9355
  69   0.0000       0.099907         2.7186
  70   0.0000       0.127236         3.4623
  71   0.0000       0.130567         3.5529

MULLIKEN ATOMIC CHARGES
-----------------------
   0 S :    0.101476
   1 C :   -0.134558
   2 C :   -0.075040
   3 C :   -0.018073
   4 C :   -0.120134
   5 H :    0.030802
   6 C :    0.034044
   7 H :    0.060473
   8 H :    0.038587
   9 C :   -0.091596
  10 H :    0.044315
  11 H :    0.024484
  12 C :   -0.078333
  13 H :    0.035851
  14 H :    0.040024
  15 H :    0.045046
  16 S :    0.083587
  17 C :   -0.091242
  18 C :   -0.053687
  19 C :   -0.052010
  20 C :   -0.119569
  21 H :    0.021409
  22 C :    0.094221
  23 H :    0.001759
  24 H :   -0.006266
  25 C :   -0.104343
  26 H :    0.034564
  27 H :    0.051521
  28 C :   -0.012242
  29 H :    0.044885
  30 H :    0.020414
  31 H :    0.022988
  32 H :    0.057770
  33 H :    0.068872
Sum of atomic charges:   -0.0000000

LOEWDIN ATOMIC CHARGES
----------------------
   0 S :    0.371465
   1 C :   -0.180917
   2 C :   -0.069786
   3 C :   -0.066824
   4 C :   -0.174307
   5 H :    0.038329
   6 C :   -0.038425
   7 H :    0.042208
   8 H :    0.035170
   9 C :   -0.051557
  10 H :    0.032471
  11 H :    0.020911
  12 C :   -0.077006
  13 H :    0.026540
  14 H :    0.025126
  15 H :    0.038583
  16 S :    0.409993
  17 C :   -0.197146
  18 C :   -0.081766
  19 C :   -0.071379
  20 C :   -0.200916
  21 H :    0.035526
  22 C :   -0.029687
  23 H :    0.025439
  24 H :    0.023695
  25 C :   -0.036311
  26 H :    0.028085
  27 H :    0.028716
  28 C :   -0.063347
  29 H :    0.036207
  30 H :    0.018442
  31 H :    0.018771
  32 H :    0.035251
  33 H :    0.048444

  Mayer bond orders larger than 0.100000
B(  0-S ,  1-C ) :   1.1167 B(  0-S ,  4-C ) :   1.1202 B(  1-C ,  2-C ) :   1.6758
B(  1-C , 32-H ) :   0.9626 B(  2-C ,  3-C ) :   1.1992 B(  2-C ,  6-C ) :   0.9990
B(  3-C ,  4-C ) :   1.6054 B(  3-C ,  5-H ) :   0.9801 B(  4-C , 20-C ) :   1.0504
B(  6-C ,  7-H ) :   0.9424 B(  6-C ,  8-H ) :   0.9472 B(  6-C ,  9-C ) :   1.0734
B(  9-C , 10-H ) :   0.9544 B(  9-C , 11-H ) :   0.9513 B(  9-C , 12-C ) :   1.0705
B( 12-C , 13-H ) :   0.9747 B( 12-C , 14-H ) :   0.9758 B( 12-C , 15-H ) :   0.9749
B( 16-S , 17-C ) :   1.1324 B( 16-S , 20-C ) :   1.1499 B( 17-C , 18-C ) :   1.6239
B( 17-C , 33-H ) :   0.9608 B( 18-C , 19-C ) :   1.2639 B( 18-C , 21-H ) :   0.9792
B( 19-C , 20-C ) :   1.5820 B( 19-C , 22-C ) :   1.0413 B( 22-C , 23-H ) :   0.9288
B( 22-C , 24-H ) :   0.9261 B( 22-C , 25-C ) :   1.0492 B( 25-C , 26-H ) :   0.9604
B( 25-C , 27-H ) :   0.9574 B( 25-C , 28-C ) :   1.0707 B( 28-C , 29-H ) :   0.9731
B( 28-C , 30-H ) :   0.9747 B( 28-C , 31-H ) :   0.9746

Dispersion correction           -0.014561317
FINAL SINGLE POINT ENERGY     -1339.857051885678

DIPOLE MOMENT
-------------
                                X             Y             Z
Electronic contribution:    -14.74484       8.77650     -23.73292
Nuclear contribution   :     15.04064      -9.11389      24.32745
                        -----------------------------------------
Total Dipole Moment    :      0.29580      -0.33739       0.59453
                        -----------------------------------------
Magnitude (a.u.)       :      0.74484
Magnitude (Debye)      :      1.89324

Rotational constants in cm-1:     0.016952     0.009876     0.006934
Rotational constants in MHz :   508.221858   296.081570   207.874255

                             ****ORCA TERMINATED NORMALLY****
TOTAL RUN TIME: 0 days 0 hours 0 minutes 35 seconds 249 msec
