                         Program Version 4.2.1 -  RELEASE  -
|  1> ! wB97X-D3 SP def2-SVP
|  2> %pal
|  3> nprocs 16
|  4> end
|  5>
|  6> * xyz 0 1
|  7> S 	 -40.3339 	 34.6147 	 82.2033
|  8> C 	 -40.2933 	 35.3226 	 80.5813
|  9> C 	 -40.2582 	 34.3449 	 79.6819
| 10> C 	 -40.565 	 33.0945 	 80.2108
| 11> C 	 -40.6069 	 32.9835 	 81.5718
| 12> H 	 -40.4947 	 32.1572 	 79.6465
| 13> C 	 -40.0147 	 34.5271 	 78.2097
| 14> H 	 -39.0439 	 34.2452 	 78.0578
| 15> H 	 -40.1352 	 35.5858 	 77.942
| 16> C 	 -41.0551 	 33.766 	 77.3501
| 17> H 	 -40.8439 	 32.7002 	 77.4639
| 18> H 	 -41.9806 	 33.8423 	 77.8126
| 19> C 	 -41.1107 	 34.3236 	 75.8977
| 20> H 	 -42.0405 	 33.9302 	 75.42
| 21> H 	 -41.178 	 35.4117 	 75.9728
| 22> H 	 -40.1989 	 34.0776 	 75.3394
| 23> S 	 -39.6618 	 31.6395 	 83.8114
| 24> C 	 -40.6185 	 30.2459 	 84.3172
| 25> C 	 -41.5248 	 29.8194 	 83.3966
| 26> C 	 -41.6395 	 30.7346 	 82.2602
| 27> C 	 -40.8512 	 31.8246 	 82.4739
| 28> H 	 -42.0622 	 28.8096 	 83.527
| 29> C 	 -42.6411 	 30.5022 	 81.1146
| 30> H 	 -42.7317 	 31.3163 	 80.4775
| 31> H 	 -43.558 	 30.2832 	 81.5944
| 32> C 	 -42.3811 	 29.2949 	 80.2841
| 33> H 	 -43.3863 	 28.8387 	 79.908
| 34> H 	 -41.9572 	 28.5286 	 80.9881
| 35> C 	 -41.4912 	 29.5277 	 79.0292
| 36> H 	 -40.5464 	 29.7937 	 79.5527
| 37> H 	 -41.8739 	 30.3671 	 78.3939
| 38> H 	 -41.3761 	 28.5895 	 78.4748
| 39> H 	 -39.8358 	 36.2805 	 80.3971
| 40> H 	 -40.3955 	 29.6184 	 85.178
| 41> *
| 42>
| 43>                          ****END OF INPUT****

CARTESIAN COORDINATES (ANGSTROEM)
---------------------------------
  S    -40.333900   34.614700   82.203300
  C    -40.293300   35.322600   80.581300
  C    -40.258200   34.344900   79.681900
  C    -40.565000   33.094500   80.210800
  C    -40.606900   32.983500   81.571800
  H    -40.494700   32.157200   79.646500
  C    -40.014700   34.527100   78.209700
  H    -39.043900   34.245200   78.057800
  H    -40.135200   35.585800   77.942000
  C    -41.055100   33.766000   77.350100
  H    -40.843900   32.700200   77.463900
  H    -41.980600   33.842300   77.812600
  C    -41.110700   34.323600   75.897700
  H    -42.040500   33.930200   75.420000
  H    -41.178000   35.411700   75.972800
  H    -40.198900   34.077600   75.339400
  S    -39.661800   31.639500   83.811400
  C    -40.618500   30.245900   84.317200
  C    -41.524800   29.819400   83.396600
  C    -41.639500   30.734600   82.260200
  C    -40.851200   31.824600   82.473900
  H    -42.062200   28.809600   83.527000
  C    -42.641100   30.502200   81.114600
  H    -42.731700   31.316300   80.477500
  H    -43.558000   30.283200   81.594400
  C    -42.381100   29.294900   80.284100
  H    -43.386300   28.838700   79.908000
  H    -41.957200   28.528600   80.988100
  C    -41.491200   29.527700   79.029200
  H    -40.546400   29.793700   79.552700
  H    -41.873900   30.367100   78.393900
  H    -41.376100   28.589500   78.474800
  H    -39.835800   36.280500   80.397100
  H    -40.395500   29.618400   85.178000

 Total Charge           Charge          ....    0
 Multiplicity           Mult            ....    1
 Number of Electrons    NEL             ....  134
 Basis Dimension        Dim             ....  322

ORBITAL ENERGIES
----------------

  NO   OCC          E(Eh)            E(eV)
   0   2.0000     -88.969469     -2420.9823
   1   2.0000     -88.957362     -2420.6529
   2   2.0000     -10.333299      -281.1834
   3   2.0000     -10.331246      -281.1275
   4   2.0000     -10.320092      -280.8240
   5   2.0000     -10.311395      -280.5873
   6   2.0000     -10.305019      -280.4138
   7   2.0000     -10.304288      -280.3939
   8   2.0000     -10.296681      -280.1869
   9   2.0000     -10.289867      -280.0015
  10   2.0000     -10.289095      -279.9805
  11   2.0000     -10.286507      -279.9101
  12   2.0000     -10.286062      -279.8980
  13   2.0000     -10.285627      -279.8861
  14   2.0000     -10.283916      -279.8396
  15   2.0000     -10.282941      -279.8130
  16   2.0000      -8.083428      -219.9613
  17   2.0000      -8.071955      -219.6491
  18   2.0000      -6.042033      -164.4121
  19   2.0000      -6.038514      -164.3163
  20   2.0000      -6.033646      -164.1839
  21   2.0000      -6.030567      -164.1001
  22   2.0000      -6.026534      -163.9903
  23   2.0000      -6.022547      -163.8818
  24   2.0000      -1.007673       -27.4202
  25   2.0000      -0.987739       -26.8778
  26   2.0000      -0.918030       -24.9809
  27   2.0000      -0.913428       -24.8556
  28   2.0000      -0.869862       -23.6701
  29   2.0000      -0.849178       -23.1073
  30   2.0000      -0.840106       -22.8605
  31   2.0000      -0.818488       -22.2722
  32   2.0000      -0.789178       -21.4746
  33   2.0000      -0.775696       -21.1078
  34   2.0000      -0.715164       -19.4606
  35   2.0000      -0.695519       -18.9260
  36   2.0000      -0.690616       -18.7926
  37   2.0000      -0.652479       -17.7548
  38   2.0000      -0.642370       -17.4798
  39   2.0000      -0.621359       -16.9080
  40   2.0000      -0.604105       -16.4385
  41   2.0000      -0.572708       -15.5842
  42   2.0000      -0.566156       -15.4059
  43   2.0000      -0.559758       -15.2318
  44   2.0000      -0.539872       -14.6907
  45   2.0000      -0.526366       -14.3231
  46   2.0000      -0.519942       -14.1483
  47   2.0000      -0.507799       -13.8179
  48   2.0000      -0.498571       -13.5668
  49   2.0000      -0.495484       -13.4828
  50   2.0000      -0.494496       -13.4559
  51   2.0000      -0.479869       -13.0579
  52   2.0000      -0.473311       -12.8795
  53   2.0000      -0.469150       -12.7662
  54   2.0000      -0.462410       -12.5828
  55   2.0000      -0.454999       -12.3811
  56   2.0000      -0.445035       -12.1100
  57   2.0000      -0.440959       -11.9991
  58   2.0000      -0.436149       -11.8682
  59   2.0000      -0.431131       -11.7317
  60   2.0000      -0.422237       -11.4896
  61   2.0000      -0.409653       -11.1472
  62   2.0000      -0.403699       -10.9852
  63   2.0000      -0.352294        -9.5864
  64   2.0000      -0.333946        -9.0871
  65   2.0000      -0.328204        -8.9309
  66   2.0000      -0.297744        -8.1020
  67   0.0000       0.026180         0.7124
  68   0.0000       0.073352         1.9960
  69   0.0000       0.091990         2.5032
  70   0.0000       0.125201         3.4069
  71   0.0000       0.130181         3.5424

MULLIKEN ATOMIC CHARGES
-----------------------
   0 S :    0.070258
   1 C :   -0.111671
   2 C :   -0.113731
   3 C :    0.000924
   4 C :   -0.134482
   5 H :   -0.007923
   6 C :    0.118129
   7 H :    0.020702
   8 H :    0.010652
   9 C :   -0.101787
  10 H :    0.034659
  11 H :    0.016995
  12 C :   -0.038562
  13 H :    0.045489
  14 H :    0.031898
  15 H :    0.041818
  16 S :    0.101044
  17 C :   -0.071407
  18 C :   -0.069102
  19 C :   -0.071065
  20 C :   -0.127788
  21 H :    0.054171
  22 C :    0.177047
  23 H :   -0.000203
  24 H :    0.020491
  25 C :   -0.161082
  26 H :    0.035788
  27 H :    0.034197
  28 C :   -0.066414
  29 H :    0.054172
  30 H :    0.050764
  31 H :    0.048881
  32 H :    0.052183
  33 H :    0.054955
Sum of atomic charges:    0.0000000

LOEWDIN ATOMIC CHARGES
----------------------
   0 S :    0.376122
   1 C :   -0.192113
   2 C :   -0.066482
   3 C :   -0.083271
   4 C :   -0.174410
   5 H :    0.029188
   6 C :   -0.016636
   7 H :    0.020478
   8 H :    0.028758
   9 C :   -0.037670
  10 H :    0.021301
  11 H :    0.015785
  12 C :   -0.062439
  13 H :    0.032843
  14 H :    0.024965
  15 H :    0.027896
  16 S :    0.373002
  17 C :   -0.174755
  18 C :   -0.080243
  19 C :   -0.047791
  20 C :   -0.177473
  21 H :    0.047391
  22 C :   -0.021062
  23 H :    0.019267
  24 H :    0.035646
  25 C :   -0.048249
  26 H :    0.026396
  27 H :    0.025769
  28 C :   -0.073276
  29 H :    0.031819
  30 H :    0.029230
  31 H :    0.030182
  32 H :    0.029080
  33 H :    0.030754

  Mayer bond orders larger than 0.100000
B(  0-S ,  1-C ) :   1.1162 B(  0-S ,  4-C ) :   1.1524 B(  1-C ,  2-C ) :   1.6604
B(  1-C , 32-H ) :   0.9554 B(  2-C ,  3-C ) :   1.2466 B(  2-C ,  6-C ) :   1.0125
B(  3-C ,  4-C ) :   1.5932 B(  3-C ,  5-H ) :   0.9794 B(  4-C , 20-C ) :   1.0131
B(  6-C ,  7-H ) :   0.9245 B(  6-C ,  8-H ) :   0.9468 B(  6-C ,  9-C ) :   1.0651
B(  9-C , 10-H ) :   0.9433 B(  9-C , 11-H ) :   0.9638 B(  9-C , 12-C ) :   1.0778
B( 12-C , 13-H ) :   0.9752 B( 12-C , 14-H ) :   0.9751 B( 12-C , 15-H ) :   0.9760
B( 16-S , 17-C ) :   1.1179 B( 16-S , 20-C ) :   1.1175 B( 17-C , 18-C ) :   1.6929
B( 17-C , 33-H ) :   0.9616 B( 18-C , 19-C ) :   1.1701 B( 18-C , 21-H ) :   0.9687
B( 19-C , 20-C ) :   1.6747 B( 19-C , 22-C ) :   1.0439 B( 22-C , 23-H ) :   0.9349
B( 22-C , 24-H ) :   0.9204 B( 22-C , 25-C ) :   1.0601 B( 25-C , 26-H ) :   0.9554
B( 25-C , 27-H ) :   0.9577 B( 25-C , 28-C ) :   1.0717 B( 28-C , 29-H ) :   0.9661
B( 28-C , 30-H ) :   0.9699 B( 28-C , 31-H ) :   0.9701

Dispersion correction           -0.014940001
FINAL SINGLE POINT ENERGY     -1339.858958989357

DIPOLE MOMENT
-------------
                                X             Y             Z
Electronic contribution:      8.34154       7.65370      29.73421
Nuclear contribution   :     -8.43605      -8.20171     -30.34104
                        -----------------------------------------
Total Dipole Moment    :     -0.09452      -0.54801      -0.60683
                        -----------------------------------------
Magnitude (a.u.)       :      0.82310
Magnitude (Debye)      :      2.09215

Rotational constants in cm-1:     0.018629     0.009665     0.006752
Rotational constants in MHz :   558.497941   289.747010   202.431784

                             ****ORCA TERMINATED NORMALLY****
TOTAL RUN TIME: 0 days 0 hours 0 minutes 31 seconds 871 msec
