                         Program Version 4.2.1 -  RELEASE  -
|  1> ! wB97X-D3 SP def2-SVP
|  2> %pal
|  3> nprocs 16
|  4> end
|  5>
|  6> * xyz 0 1
|  7> S 	 1.32763 	 -16.1453 	 76.8571
|  8> C 	 0.536427 	 -16.518 	 78.3618
|  9> C 	 1.33555 	 -16.2108 	 79.3739
| 10> C 	 2.67962 	 -15.8802 	 78.9913
| 11> C 	 2.84924 	 -15.8207 	 77.6422
| 12> H 	 3.57714 	 -15.7283 	 79.5748
| 13> C 	 0.919154 	 -16.1779 	 80.7968
| 14> H 	 -0.0825779 	 -16.5294 	 80.8959
| 15> H 	 0.920558 	 -15.0645 	 81.0794
| 16> C 	 1.7892 	 -17.0232 	 81.7174
| 17> H 	 1.70326 	 -18.1188 	 81.4808
| 18> H 	 2.78887 	 -16.6442 	 81.6672
| 19> C 	 1.4022 	 -16.9039 	 83.2267
| 20> H 	 0.360781 	 -16.94 	 83.1968
| 21> H 	 1.69505 	 -17.7106 	 83.8802
| 22> H 	 1.65906 	 -15.9554 	 83.7109
| 23> S 	 4.0852 	 -13.8794 	 75.9668
| 24> C 	 5.80758 	 -13.6684 	 75.9259
| 25> C 	 6.38479 	 -14.7772 	 76.5126
| 26> C 	 5.44284 	 -15.6472 	 77.2161
| 27> C 	 4.09377 	 -15.3784 	 76.9902
| 28> H 	 7.46359 	 -14.8951 	 76.492
| 29> C 	 5.98934 	 -16.8337 	 77.9453
| 30> H 	 6.70562 	 -17.3979 	 77.3429
| 31> H 	 5.13996 	 -17.5429 	 78.0632
| 32> C 	 6.72065 	 -16.533 	 79.2592
| 33> H 	 6.12909 	 -16.207 	 80.1004
| 34> H 	 7.58183 	 -15.7351 	 79.1543
| 35> C 	 7.46132 	 -17.8075 	 79.7725
| 36> H 	 7.97568 	 -17.5918 	 80.688
| 37> H 	 8.18442 	 -18.1789 	 79.088
| 38> H 	 6.72386 	 -18.5695 	 79.9361
| 39> H 	 -0.445278 	 -16.9478 	 78.5795
| 40> H 	 6.40318 	 -13.0987 	 75.2225
| 41> *
| 42>
| 43>                          ****END OF INPUT****

CARTESIAN COORDINATES (ANGSTROEM)
---------------------------------
  S      1.327630  -16.145300   76.857100
  C      0.536427  -16.518000   78.361800
  C      1.335550  -16.210800   79.373900
  C      2.679620  -15.880200   78.991300
  C      2.849240  -15.820700   77.642200
  H      3.577140  -15.728300   79.574800
  C      0.919154  -16.177900   80.796800
  H     -0.082578  -16.529400   80.895900
  H      0.920558  -15.064500   81.079400
  C      1.789200  -17.023200   81.717400
  H      1.703260  -18.118800   81.480800
  H      2.788870  -16.644200   81.667200
  C      1.402200  -16.903900   83.226700
  H      0.360781  -16.940000   83.196800
  H      1.695050  -17.710600   83.880200
  H      1.659060  -15.955400   83.710900
  S      4.085200  -13.879400   75.966800
  C      5.807580  -13.668400   75.925900
  C      6.384790  -14.777200   76.512600
  C      5.442840  -15.647200   77.216100
  C      4.093770  -15.378400   76.990200
  H      7.463590  -14.895100   76.492000
  C      5.989340  -16.833700   77.945300
  H      6.705620  -17.397900   77.342900
  H      5.139960  -17.542900   78.063200
  C      6.720650  -16.533000   79.259200
  H      6.129090  -16.207000   80.100400
  H      7.581830  -15.735100   79.154300
  C      7.461320  -17.807500   79.772500
  H      7.975680  -17.591800   80.688000
  H      8.184420  -18.178900   79.088000
  H      6.723860  -18.569500   79.936100
  H     -0.445278  -16.947800   78.579500
  H      6.403180  -13.098700   75.222500

 Total Charge           Charge          ....    0
 Multiplicity           Mult            ....    1
 Number of Electrons    NEL             ....  134
 Basis Dimension        Dim             ....  322

ORBITAL ENERGIES
----------------

  NO   OCC          E(Eh)            E(eV)
   0   2.0000     -88.966132     -2420.8915
   1   2.0000     -88.960545     -2420.7395
   2   2.0000     -10.337579      -281.2998
   3   2.0000     -10.332218      -281.1539
   4   2.0000     -10.318099      -280.7697
   5   2.0000     -10.311408      -280.5877
   6   2.0000     -10.307950      -280.4936
   7   2.0000     -10.296444      -280.1805
   8   2.0000     -10.296057      -280.1700
   9   2.0000     -10.294914      -280.1388
  10   2.0000     -10.294207      -280.1196
  11   2.0000     -10.293801      -280.1086
  12   2.0000     -10.293338      -280.0960
  13   2.0000     -10.291007      -280.0325
  14   2.0000     -10.273613      -279.5592
  15   2.0000     -10.272325      -279.5242
  16   2.0000      -8.081199      -219.9006
  17   2.0000      -8.074764      -219.7255
  18   2.0000      -6.039904      -164.3541
  19   2.0000      -6.035694      -164.2396
  20   2.0000      -6.033557      -164.1814
  21   2.0000      -6.031670      -164.1301
  22   2.0000      -6.029200      -164.0629
  23   2.0000      -6.025343      -163.9579
  24   2.0000      -1.012130       -27.5415
  25   2.0000      -0.985500       -26.8168
  26   2.0000      -0.917516       -24.9669
  27   2.0000      -0.908114       -24.7110
  28   2.0000      -0.876897       -23.8616
  29   2.0000      -0.851201       -23.1624
  30   2.0000      -0.843995       -22.9663
  31   2.0000      -0.820678       -22.3318
  32   2.0000      -0.781772       -21.2731
  33   2.0000      -0.772963       -21.0334
  34   2.0000      -0.713875       -19.4255
  35   2.0000      -0.698210       -18.9992
  36   2.0000      -0.694680       -18.9032
  37   2.0000      -0.658643       -17.9226
  38   2.0000      -0.644694       -17.5430
  39   2.0000      -0.622159       -16.9298
  40   2.0000      -0.594108       -16.1665
  41   2.0000      -0.574442       -15.6314
  42   2.0000      -0.570376       -15.5207
  43   2.0000      -0.561764       -15.2864
  44   2.0000      -0.529975       -14.4213
  45   2.0000      -0.524580       -14.2746
  46   2.0000      -0.523310       -14.2400
  47   2.0000      -0.516539       -14.0557
  48   2.0000      -0.511006       -13.9052
  49   2.0000      -0.504982       -13.7413
  50   2.0000      -0.497222       -13.5301
  51   2.0000      -0.484099       -13.1730
  52   2.0000      -0.466932       -12.7059
  53   2.0000      -0.465302       -12.6615
  54   2.0000      -0.456182       -12.4134
  55   2.0000      -0.448642       -12.2082
  56   2.0000      -0.444666       -12.1000
  57   2.0000      -0.439964       -11.9720
  58   2.0000      -0.435668       -11.8551
  59   2.0000      -0.425116       -11.5680
  60   2.0000      -0.416865       -11.3435
  61   2.0000      -0.414932       -11.2909
  62   2.0000      -0.406520       -11.0620
  63   2.0000      -0.354421        -9.6443
  64   2.0000      -0.329619        -8.9694
  65   2.0000      -0.323548        -8.8042
  66   2.0000      -0.301835        -8.2134
  67   0.0000       0.030892         0.8406
  68   0.0000       0.067976         1.8497
  69   0.0000       0.112591         3.0638
  70   0.0000       0.120049         3.2667
  71   0.0000       0.130507         3.5513

MULLIKEN ATOMIC CHARGES
-----------------------
   0 S :    0.111068
   1 C :   -0.112584
   2 C :   -0.072861
   3 C :    0.032698
   4 C :   -0.151398
   5 H :    0.007058
   6 C :    0.064906
   7 H :   -0.001277
   8 H :    0.057115
   9 C :   -0.098376
  10 H :    0.045925
  11 H :    0.030512
  12 C :   -0.027027
  13 H :    0.001677
  14 H :    0.035125
  15 H :    0.031460
  16 S :    0.073890
  17 C :   -0.067971
  18 C :   -0.050114
  19 C :   -0.044638
  20 C :   -0.105782
  21 H :    0.024940
  22 C :    0.034962
  23 H :    0.027328
  24 H :    0.034630
  25 C :   -0.117838
  26 H :    0.033609
  27 H :    0.042170
  28 C :   -0.032173
  29 H :    0.029090
  30 H :    0.024302
  31 H :    0.025406
  32 H :    0.047135
  33 H :    0.067032
Sum of atomic charges:   -0.0000000

LOEWDIN ATOMIC CHARGES
----------------------
   0 S :    0.406115
   1 C :   -0.197158
   2 C :   -0.070775
   3 C :   -0.054728
   4 C :   -0.194706
   5 H :    0.032433
   6 C :   -0.033012
   7 H :    0.020107
   8 H :    0.047114
   9 C :   -0.037396
  10 H :    0.034820
  11 H :    0.017532
  12 C :   -0.065858
  13 H :    0.013924
  14 H :    0.026073
  15 H :    0.025802
  16 S :    0.379745
  17 C :   -0.191645
  18 C :   -0.071039
  19 C :   -0.058664
  20 C :   -0.175413
  21 H :    0.029832
  22 C :   -0.041503
  23 H :    0.034465
  24 H :    0.035539
  25 C :   -0.042427
  26 H :    0.018287
  27 H :    0.032761
  28 C :   -0.060104
  29 H :    0.023543
  30 H :    0.017829
  31 H :    0.021378
  32 H :    0.039675
  33 H :    0.037451

  Mayer bond orders larger than 0.100000
B(  0-S ,  1-C ) :   1.1114 B(  0-S ,  4-C ) :   1.1383 B(  1-C ,  2-C ) :   1.6675
B(  1-C , 32-H ) :   0.9623 B(  2-C ,  3-C ) :   1.1843 B(  2-C ,  6-C ) :   1.0357
B(  3-C ,  4-C ) :   1.6104 B(  3-C ,  5-H ) :   0.9977 B(  4-C , 20-C ) :   1.0222
B(  6-C ,  7-H ) :   0.9312 B(  6-C ,  8-H ) :   0.9346 B(  6-C ,  9-C ) :   1.0648
B(  9-C , 10-H ) :   0.9568 B(  9-C , 11-H ) :   0.9577 B(  9-C , 12-C ) :   1.0770
B( 12-C , 13-H ) :   0.9720 B( 12-C , 14-H ) :   0.9765 B( 12-C , 15-H ) :   0.9762
B( 16-S , 17-C ) :   1.1576 B( 16-S , 20-C ) :   1.1068 B( 17-C , 18-C ) :   1.6232
B( 17-C , 33-H ) :   0.9575 B( 18-C , 19-C ) :   1.2261 B( 18-C , 21-H ) :   0.9855
B( 19-C , 20-C ) :   1.6114 B( 19-C , 22-C ) :   1.0537 B( 22-C , 23-H ) :   0.9440
B( 22-C , 24-H ) :   0.9373 B( 22-C , 25-C ) :   1.0457 B( 25-C , 26-H ) :   0.9555
B( 25-C , 27-H ) :   0.9587 B( 25-C , 28-C ) :   1.0799 B( 28-C , 29-H ) :   0.9748
B( 28-C , 30-H ) :   0.9765 B( 28-C , 31-H ) :   0.9745

Dispersion correction           -0.013786439
FINAL SINGLE POINT ENERGY     -1339.865026246570

DIPOLE MOMENT
-------------
                                X             Y             Z
Electronic contribution:     -9.59069      12.47757     -28.26421
Nuclear contribution   :      9.90069     -12.80991      28.93389
                        -----------------------------------------
Total Dipole Moment    :      0.31000      -0.33233       0.66968
                        -----------------------------------------
Magnitude (a.u.)       :      0.80933
Magnitude (Debye)      :      2.05715

Rotational constants in cm-1:     0.015937     0.009335     0.006529
Rotational constants in MHz :   477.784388   279.851562   195.729549

                             ****ORCA TERMINATED NORMALLY****
TOTAL RUN TIME: 0 days 0 hours 0 minutes 34 seconds 654 msec
