                         Program Version 4.2.1 -  RELEASE  -
|  1> ! wB97X-D3 SP def2-SVP
|  2> %pal
|  3> nprocs 16
|  4> end
|  5>
|  6> * xyz 0 1
|  7> S 	 17.8348 	 8.08177 	 88.4977
|  8> C 	 18.4199 	 6.56088 	 87.8046
|  9> C 	 17.3586 	 5.92471 	 87.1449
| 10> C 	 16.2904 	 6.77648 	 86.727
| 11> C 	 16.406 	 7.96661 	 87.4026
| 12> H 	 15.6258 	 6.50621 	 86.0005
| 13> C 	 17.2006 	 4.46705 	 86.7366
| 14> H 	 16.1504 	 4.27163 	 86.5157
| 15> H 	 17.5649 	 3.85717 	 87.5808
| 16> C 	 18.0211 	 4.1009 	 85.4642
| 17> H 	 19.0479 	 4.11629 	 85.6933
| 18> H 	 17.9135 	 3.0748 	 85.2703
| 19> C 	 17.787 	 4.93036 	 84.1742
| 20> H 	 18.4779 	 4.69497 	 83.3502
| 21> H 	 16.8661 	 4.5441 	 83.6534
| 22> H 	 17.6472 	 5.99631 	 84.3294
| 23> S 	 16.1458 	 10.7068 	 87.1335
| 24> C 	 14.5832 	 11.4294 	 87.3253
| 25> C 	 13.5888 	 10.4608 	 87.5687
| 26> C 	 14.1377 	 9.17172 	 87.4639
| 27> C 	 15.4797 	 9.16071 	 87.3605
| 28> H 	 12.515 	 10.6977 	 87.8528
| 29> C 	 13.2562 	 7.93791 	 87.6384
| 30> H 	 13.613 	 7.08595 	 87.1077
| 31> H 	 12.3251 	 8.12739 	 87.1226
| 32> C 	 12.9717 	 7.6462 	 89.189
| 33> H 	 12.1991 	 8.33735 	 89.5664
| 34> H 	 13.8871 	 7.8034 	 89.7442
| 35> C 	 12.4805 	 6.25696 	 89.4441
| 36> H 	 11.4354 	 6.17061 	 89.0069
| 37> H 	 12.5515 	 5.92921 	 90.5081
| 38> H 	 13.1625 	 5.59685 	 88.8616
| 39> H 	 19.1974 	 6.03026 	 88.2459
| 40> H 	 14.3875 	 12.5081 	 87.4068
| 41> *
| 42>
| 43>                          ****END OF INPUT****

CARTESIAN COORDINATES (ANGSTROEM)
---------------------------------
  S     17.834800    8.081770   88.497700
  C     18.419900    6.560880   87.804600
  C     17.358600    5.924710   87.144900
  C     16.290400    6.776480   86.727000
  C     16.406000    7.966610   87.402600
  H     15.625800    6.506210   86.000500
  C     17.200600    4.467050   86.736600
  H     16.150400    4.271630   86.515700
  H     17.564900    3.857170   87.580800
  C     18.021100    4.100900   85.464200
  H     19.047900    4.116290   85.693300
  H     17.913500    3.074800   85.270300
  C     17.787000    4.930360   84.174200
  H     18.477900    4.694970   83.350200
  H     16.866100    4.544100   83.653400
  H     17.647200    5.996310   84.329400
  S     16.145800   10.706800   87.133500
  C     14.583200   11.429400   87.325300
  C     13.588800   10.460800   87.568700
  C     14.137700    9.171720   87.463900
  C     15.479700    9.160710   87.360500
  H     12.515000   10.697700   87.852800
  C     13.256200    7.937910   87.638400
  H     13.613000    7.085950   87.107700
  H     12.325100    8.127390   87.122600
  C     12.971700    7.646200   89.189000
  H     12.199100    8.337350   89.566400
  H     13.887100    7.803400   89.744200
  C     12.480500    6.256960   89.444100
  H     11.435400    6.170610   89.006900
  H     12.551500    5.929210   90.508100
  H     13.162500    5.596850   88.861600
  H     19.197400    6.030260   88.245900
  H     14.387500   12.508100   87.406800

 Total Charge           Charge          ....    0
 Multiplicity           Mult            ....    1
 Number of Electrons    NEL             ....  134
 Basis Dimension        Dim             ....  322

ORBITAL ENERGIES
----------------

  NO   OCC          E(Eh)            E(eV)
   0   2.0000     -88.967793     -2420.9367
   1   2.0000     -88.967164     -2420.9196
   2   2.0000     -10.338189      -281.3164
   3   2.0000     -10.317521      -280.7540
   4   2.0000     -10.317377      -280.7501
   5   2.0000     -10.310052      -280.5508
   6   2.0000     -10.303036      -280.3599
   7   2.0000     -10.298045      -280.2240
   8   2.0000     -10.296480      -280.1815
   9   2.0000     -10.293896      -280.1111
  10   2.0000     -10.289537      -279.9925
  11   2.0000     -10.289485      -279.9911
  12   2.0000     -10.284749      -279.8622
  13   2.0000     -10.282200      -279.7929
  14   2.0000     -10.281882      -279.7842
  15   2.0000     -10.281100      -279.7630
  16   2.0000      -8.082887      -219.9465
  17   2.0000      -8.081297      -219.9033
  18   2.0000      -6.041238      -164.3904
  19   2.0000      -6.039877      -164.3534
  20   2.0000      -6.037232      -164.2814
  21   2.0000      -6.036250      -164.2547
  22   2.0000      -6.033778      -164.1874
  23   2.0000      -6.031774      -164.1329
  24   2.0000      -1.010921       -27.5086
  25   2.0000      -0.984052       -26.7774
  26   2.0000      -0.906361       -24.6633
  27   2.0000      -0.904660       -24.6170
  28   2.0000      -0.860197       -23.4072
  29   2.0000      -0.856438       -23.3049
  30   2.0000      -0.847716       -23.0675
  31   2.0000      -0.812023       -22.0963
  32   2.0000      -0.779871       -21.2214
  33   2.0000      -0.769119       -20.9288
  34   2.0000      -0.710114       -19.3232
  35   2.0000      -0.693986       -18.8843
  36   2.0000      -0.689833       -18.7713
  37   2.0000      -0.664316       -18.0770
  38   2.0000      -0.645586       -17.5673
  39   2.0000      -0.619176       -16.8486
  40   2.0000      -0.595087       -16.1932
  41   2.0000      -0.566248       -15.4084
  42   2.0000      -0.561826       -15.2881
  43   2.0000      -0.549408       -14.9502
  44   2.0000      -0.540815       -14.7163
  45   2.0000      -0.525829       -14.3085
  46   2.0000      -0.518886       -14.1196
  47   2.0000      -0.510491       -13.8912
  48   2.0000      -0.501795       -13.6545
  49   2.0000      -0.489450       -13.3186
  50   2.0000      -0.484324       -13.1791
  51   2.0000      -0.478263       -13.0142
  52   2.0000      -0.472174       -12.8485
  53   2.0000      -0.468673       -12.7532
  54   2.0000      -0.457461       -12.4481
  55   2.0000      -0.446680       -12.1548
  56   2.0000      -0.442663       -12.0455
  57   2.0000      -0.440129       -11.9765
  58   2.0000      -0.430924       -11.7260
  59   2.0000      -0.425031       -11.5657
  60   2.0000      -0.419873       -11.4253
  61   2.0000      -0.418047       -11.3756
  62   2.0000      -0.410780       -11.1779
  63   2.0000      -0.347426        -9.4539
  64   2.0000      -0.332672        -9.0525
  65   2.0000      -0.324509        -8.8303
  66   2.0000      -0.292296        -7.9538
  67   0.0000       0.028660         0.7799
  68   0.0000       0.069663         1.8956
  69   0.0000       0.094013         2.5582
  70   0.0000       0.118369         3.2210
  71   0.0000       0.136462         3.7133

MULLIKEN ATOMIC CHARGES
-----------------------
   0 S :    0.091455
   1 C :   -0.076909
   2 C :   -0.130131
   3 C :    0.043814
   4 C :   -0.112019
   5 H :   -0.001178
   6 C :    0.058018
   7 H :    0.027521
   8 H :    0.036722
   9 C :   -0.025666
  10 H :    0.011503
  11 H :    0.010810
  12 C :   -0.084821
  13 H :    0.038000
  14 H :    0.018817
  15 H :    0.056571
  16 S :    0.134063
  17 C :   -0.109101
  18 C :   -0.064581
  19 C :   -0.044719
  20 C :   -0.166894
  21 H :    0.045958
  22 C :    0.098086
  23 H :   -0.007181
  24 H :    0.014648
  25 C :   -0.070710
  26 H :    0.030797
  27 H :    0.037390
  28 C :   -0.070382
  29 H :    0.037686
  30 H :    0.049589
  31 H :    0.027738
  32 H :    0.030500
  33 H :    0.064608
Sum of atomic charges:   -0.0000000

LOEWDIN ATOMIC CHARGES
----------------------
   0 S :    0.372468
   1 C :   -0.196846
   2 C :   -0.045710
   3 C :   -0.056880
   4 C :   -0.148701
   5 H :    0.018872
   6 C :   -0.027006
   7 H :    0.028712
   8 H :    0.036975
   9 C :   -0.036527
  10 H :    0.016966
  11 H :    0.017850
  12 C :   -0.076280
  13 H :    0.032504
  14 H :    0.026943
  15 H :    0.027124
  16 S :    0.441586
  17 C :   -0.199798
  18 C :   -0.073655
  19 C :   -0.065197
  20 C :   -0.225734
  21 H :    0.044429
  22 C :   -0.023375
  23 H :    0.018447
  24 H :    0.028119
  25 C :   -0.038359
  26 H :    0.023891
  27 H :    0.024419
  28 C :   -0.075266
  29 H :    0.030127
  30 H :    0.031735
  31 H :    0.024379
  32 H :    0.011563
  33 H :    0.032225

  Mayer bond orders larger than 0.100000
B(  0-S ,  1-C ) :   1.1044 B(  0-S ,  4-C ) :   1.1576 B(  1-C ,  2-C ) :   1.6430
B(  1-C , 32-H ) :   0.9685 B(  2-C ,  3-C ) :   1.1930 B(  2-C ,  6-C ) :   1.0246
B(  3-C ,  4-C ) :   1.5970 B(  3-C ,  5-H ) :   1.0028 B(  4-C , 20-C ) :   0.9923
B(  6-C ,  7-H ) :   0.9482 B(  6-C ,  8-H ) :   0.9348 B(  6-C ,  9-C ) :   1.0758
B(  9-C , 10-H ) :   0.9556 B(  9-C , 11-H ) :   0.9537 B(  9-C , 12-C ) :   1.0714
B( 12-C , 13-H ) :   0.9722 B( 12-C , 14-H ) :   0.9735 B( 12-C , 15-H ) :   0.9745
B( 16-S , 17-C ) :   1.1720 B( 16-S , 20-C ) :   1.1604 B( 17-C , 18-C ) :   1.5796
B( 17-C , 33-H ) :   0.9661 B( 18-C , 19-C ) :   1.2677 B( 18-C , 21-H ) :   0.9806
B( 19-C , 20-C ) :   1.6043 B( 19-C , 22-C ) :   1.0548 B( 22-C , 23-H ) :   0.9370
B( 22-C , 24-H ) :   0.9249 B( 22-C , 25-C ) :   1.0424 B( 25-C , 26-H ) :   0.9542
B( 25-C , 27-H ) :   0.9620 B( 25-C , 28-C ) :   1.0895 B( 28-C , 29-H ) :   0.9720
B( 28-C , 30-H ) :   0.9725 B( 28-C , 31-H ) :   0.9760

Dispersion correction           -0.014826118
FINAL SINGLE POINT ENERGY     -1339.858667819764

DIPOLE MOMENT
-------------
                                X             Y             Z
Electronic contribution:     10.74681      23.05485       4.73845
Nuclear contribution   :    -11.15879     -23.59463      -4.76053
                        -----------------------------------------
Total Dipole Moment    :     -0.41199      -0.53979      -0.02208
                        -----------------------------------------
Magnitude (a.u.)       :      0.67940
Magnitude (Debye)      :      1.72690

Rotational constants in cm-1:     0.018055     0.009138     0.007506
Rotational constants in MHz :   541.266256   273.947492   225.024664

                             ****ORCA TERMINATED NORMALLY****
TOTAL RUN TIME: 0 days 0 hours 0 minutes 33 seconds 819 msec
