                         Program Version 4.2.1 -  RELEASE  -
|  1> ! wB97X-D3 SP def2-SVP
|  2> %pal
|  3> nprocs 16
|  4> end
|  5>
|  6> * xyz 0 1
|  7> S 	 -5.50418 	 44.8798 	 37.8244
|  8> C 	 -7.1038 	 44.2663 	 37.4356
|  9> C 	 -8.09978 	 44.6929 	 38.2914
| 10> C 	 -7.56567 	 45.5011 	 39.3355
| 11> C 	 -6.2676 	 45.8544 	 39.1176
| 12> H 	 -8.07842 	 45.9575 	 40.1047
| 13> C 	 -9.57128 	 44.4057 	 38.1301
| 14> H 	 -9.59266 	 43.3143 	 37.9396
| 15> H 	 -9.90547 	 44.9852 	 37.2643
| 16> C 	 -10.4887 	 44.6607 	 39.3439
| 17> H 	 -11.4707 	 44.2494 	 39.2587
| 18> H 	 -10.1263 	 44.1706 	 40.1541
| 19> C 	 -10.8733 	 46.1504 	 39.716
| 20> H 	 -10.0032 	 46.8191 	 39.7626
| 21> H 	 -11.6165 	 46.5037 	 38.9804
| 22> H 	 -11.2407 	 46.2264 	 40.7559
| 23> S 	 -4.33962 	 46.2516 	 40.9358
| 24> C 	 -4.21819 	 47.8201 	 41.7364
| 25> C 	 -5.13096 	 48.7201 	 41.2197
| 26> C 	 -6.05876 	 48.1149 	 40.3465
| 27> C 	 -5.6566 	 46.8769 	 39.9261
| 28> H 	 -5.2118 	 49.7597 	 41.4587
| 29> C 	 -7.25942 	 48.8597 	 39.8493
| 30> H 	 -7.57018 	 49.5356 	 40.6361
| 31> H 	 -8.04873 	 48.1389 	 39.6271
| 32> C 	 -6.99997 	 49.6729 	 38.5826
| 33> H 	 -6.61403 	 49.1491 	 37.6991
| 34> H 	 -6.24721 	 50.4348 	 38.8199
| 35> C 	 -8.25644 	 50.5035 	 38.1888
| 36> H 	 -8.62184 	 51.0878 	 39.0345
| 37> H 	 -8.99272 	 49.8056 	 37.7979
| 38> H 	 -7.95871 	 51.2152 	 37.3941
| 39> H 	 -7.26524 	 43.7184 	 36.5521
| 40> H 	 -3.60215 	 48.0863 	 42.5179
| 41> *
| 42>
| 43>                          ****END OF INPUT****

CARTESIAN COORDINATES (ANGSTROEM)
---------------------------------
  S     -5.504180   44.879800   37.824400
  C     -7.103800   44.266300   37.435600
  C     -8.099780   44.692900   38.291400
  C     -7.565670   45.501100   39.335500
  C     -6.267600   45.854400   39.117600
  H     -8.078420   45.957500   40.104700
  C     -9.571280   44.405700   38.130100
  H     -9.592660   43.314300   37.939600
  H     -9.905470   44.985200   37.264300
  C    -10.488700   44.660700   39.343900
  H    -11.470700   44.249400   39.258700
  H    -10.126300   44.170600   40.154100
  C    -10.873300   46.150400   39.716000
  H    -10.003200   46.819100   39.762600
  H    -11.616500   46.503700   38.980400
  H    -11.240700   46.226400   40.755900
  S     -4.339620   46.251600   40.935800
  C     -4.218190   47.820100   41.736400
  C     -5.130960   48.720100   41.219700
  C     -6.058760   48.114900   40.346500
  C     -5.656600   46.876900   39.926100
  H     -5.211800   49.759700   41.458700
  C     -7.259420   48.859700   39.849300
  H     -7.570180   49.535600   40.636100
  H     -8.048730   48.138900   39.627100
  C     -6.999970   49.672900   38.582600
  H     -6.614030   49.149100   37.699100
  H     -6.247210   50.434800   38.819900
  C     -8.256440   50.503500   38.188800
  H     -8.621840   51.087800   39.034500
  H     -8.992720   49.805600   37.797900
  H     -7.958710   51.215200   37.394100
  H     -7.265240   43.718400   36.552100
  H     -3.602150   48.086300   42.517900

 Total Charge           Charge          ....    0
 Multiplicity           Mult            ....    1
 Number of Electrons    NEL             ....  134
 Basis Dimension        Dim             ....  322

ORBITAL ENERGIES
----------------

  NO   OCC          E(Eh)            E(eV)
   0   2.0000     -88.967756     -2420.9357
   1   2.0000     -88.961951     -2420.7778
   2   2.0000     -10.324689      -280.9491
   3   2.0000     -10.320028      -280.8222
   4   2.0000     -10.312588      -280.6198
   5   2.0000     -10.307594      -280.4839
   6   2.0000     -10.299599      -280.2663
   7   2.0000     -10.297506      -280.2094
   8   2.0000     -10.296735      -280.1884
   9   2.0000     -10.289938      -280.0035
  10   2.0000     -10.289537      -279.9925
  11   2.0000     -10.287308      -279.9319
  12   2.0000     -10.285084      -279.8714
  13   2.0000     -10.283398      -279.8255
  14   2.0000     -10.282895      -279.8118
  15   2.0000     -10.278624      -279.6956
  16   2.0000      -8.081670      -219.9134
  17   2.0000      -8.076347      -219.7686
  18   2.0000      -6.040208      -164.3624
  19   2.0000      -6.036491      -164.2613
  20   2.0000      -6.034937      -164.2190
  21   2.0000      -6.032275      -164.1465
  22   2.0000      -6.030946      -164.1104
  23   2.0000      -6.026998      -164.0030
  24   2.0000      -1.006585       -27.3906
  25   2.0000      -0.982263       -26.7287
  26   2.0000      -0.910951       -24.7882
  27   2.0000      -0.908523       -24.7222
  28   2.0000      -0.872946       -23.7541
  29   2.0000      -0.851530       -23.1713
  30   2.0000      -0.845609       -23.0102
  31   2.0000      -0.815900       -22.2018
  32   2.0000      -0.782573       -21.2949
  33   2.0000      -0.770180       -20.9577
  34   2.0000      -0.712014       -19.3749
  35   2.0000      -0.701308       -19.0835
  36   2.0000      -0.693576       -18.8732
  37   2.0000      -0.671118       -18.2620
  38   2.0000      -0.647338       -17.6150
  39   2.0000      -0.620688       -16.8898
  40   2.0000      -0.597614       -16.2619
  41   2.0000      -0.571238       -15.5442
  42   2.0000      -0.567887       -15.4530
  43   2.0000      -0.547322       -14.8934
  44   2.0000      -0.537887       -14.6367
  45   2.0000      -0.525941       -14.3116
  46   2.0000      -0.521347       -14.1866
  47   2.0000      -0.513962       -13.9856
  48   2.0000      -0.501245       -13.6396
  49   2.0000      -0.498380       -13.5616
  50   2.0000      -0.493165       -13.4197
  51   2.0000      -0.490547       -13.3485
  52   2.0000      -0.472638       -12.8611
  53   2.0000      -0.459728       -12.5098
  54   2.0000      -0.458217       -12.4687
  55   2.0000      -0.445324       -12.1179
  56   2.0000      -0.444854       -12.1051
  57   2.0000      -0.440219       -11.9790
  58   2.0000      -0.437463       -11.9040
  59   2.0000      -0.431258       -11.7351
  60   2.0000      -0.421368       -11.4660
  61   2.0000      -0.418835       -11.3971
  62   2.0000      -0.412404       -11.2221
  63   2.0000      -0.343729        -9.3533
  64   2.0000      -0.329360        -8.9623
  65   2.0000      -0.326150        -8.8750
  66   2.0000      -0.289080        -7.8663
  67   0.0000       0.031587         0.8595
  68   0.0000       0.063748         1.7347
  69   0.0000       0.108996         2.9659
  70   0.0000       0.120318         3.2740
  71   0.0000       0.127187         3.4609

MULLIKEN ATOMIC CHARGES
-----------------------
   0 S :    0.114434
   1 C :   -0.117318
   2 C :   -0.077821
   3 C :    0.046076
   4 C :   -0.141239
   5 H :   -0.016890
   6 C :    0.076809
   7 H :    0.043470
   8 H :    0.046566
   9 C :   -0.039358
  10 H :    0.023768
  11 H :    0.004395
  12 C :   -0.081578
  13 H :    0.016777
  14 H :    0.046458
  15 H :    0.038813
  16 S :    0.090762
  17 C :   -0.045741
  18 C :   -0.022260
  19 C :   -0.061559
  20 C :   -0.151815
  21 H :    0.008143
  22 C :    0.088218
  23 H :    0.016369
  24 H :    0.017031
  25 C :   -0.091004
  26 H :    0.042804
  27 H :    0.017339
  28 C :   -0.049990
  29 H :    0.030469
  30 H :    0.036021
  31 H :    0.039009
  32 H :    0.026780
  33 H :    0.026059
Sum of atomic charges:   -0.0000000

LOEWDIN ATOMIC CHARGES
----------------------
   0 S :    0.381909
   1 C :   -0.190429
   2 C :   -0.057518
   3 C :   -0.051248
   4 C :   -0.183339
   5 H :    0.017197
   6 C :   -0.030281
   7 H :    0.042732
   8 H :    0.036814
   9 C :   -0.038285
  10 H :    0.028746
  11 H :    0.010985
  12 C :   -0.070140
  13 H :    0.015678
  14 H :    0.028888
  15 H :    0.032618
  16 S :    0.389344
  17 C :   -0.164256
  18 C :   -0.064355
  19 C :   -0.055446
  20 C :   -0.186073
  21 H :    0.027915
  22 C :   -0.029630
  23 H :    0.030711
  24 H :    0.026808
  25 C :   -0.038061
  26 H :    0.028828
  27 H :    0.020670
  28 C :   -0.065321
  29 H :    0.022743
  30 H :    0.023149
  31 H :    0.029457
  32 H :    0.015499
  33 H :    0.013691

  Mayer bond orders larger than 0.100000
B(  0-S ,  1-C ) :   1.1203 B(  0-S ,  4-C ) :   1.1308 B(  1-C ,  2-C ) :   1.6440
B(  1-C , 32-H ) :   0.9762 B(  2-C ,  3-C ) :   1.2117 B(  2-C ,  6-C ) :   0.9970
B(  3-C ,  4-C ) :   1.5900 B(  3-C ,  5-H ) :   1.0024 B(  4-C , 20-C ) :   1.0275
B(  6-C ,  7-H ) :   0.9355 B(  6-C ,  8-H ) :   0.9398 B(  6-C ,  9-C ) :   1.0903
B(  9-C , 10-H ) :   0.9543 B(  9-C , 11-H ) :   0.9515 B(  9-C , 12-C ) :   1.0667
B( 12-C , 13-H ) :   0.9825 B( 12-C , 14-H ) :   0.9759 B( 12-C , 15-H ) :   0.9692
B( 16-S , 17-C ) :   1.1503 B( 16-S , 20-C ) :   1.1257 B( 17-C , 18-C ) :   1.6053
B( 17-C , 20-C ) :   0.1025 B( 17-C , 33-H ) :   0.9765 B( 18-C , 19-C ) :   1.2381
B( 18-C , 21-H ) :   0.9881 B( 19-C , 20-C ) :   1.6252 B( 19-C , 22-C ) :   1.0544
B( 22-C , 23-H ) :   0.9241 B( 22-C , 24-H ) :   0.9224 B( 22-C , 25-C ) :   1.0770
B( 25-C , 26-H ) :   0.9566 B( 25-C , 27-H ) :   0.9538 B( 25-C , 28-C ) :   1.0809
B( 28-C , 29-H ) :   0.9741 B( 28-C , 30-H ) :   0.9774 B( 28-C , 31-H ) :   0.9752

Dispersion correction           -0.015077593
FINAL SINGLE POINT ENERGY     -1339.864347992642

DIPOLE MOMENT
-------------
                                X             Y             Z
Electronic contribution:     26.63519     -13.66948       2.65737
Nuclear contribution   :    -27.37115      14.02790      -2.60225
                        -----------------------------------------
Total Dipole Moment    :     -0.73595       0.35842       0.05512
                        -----------------------------------------
Magnitude (a.u.)       :      0.82044
Magnitude (Debye)      :      2.08540

Rotational constants in cm-1:     0.015409     0.010715     0.008040
Rotational constants in MHz :   461.946578   321.230136   241.046381

                             ****ORCA TERMINATED NORMALLY****
TOTAL RUN TIME: 0 days 0 hours 0 minutes 34 seconds 173 msec
