                         Program Version 4.2.1 -  RELEASE  -
|  1> ! wB97X-D3 SP def2-SVP
|  2> %pal
|  3> nprocs 16
|  4> end
|  5>
|  6> * xyz 0 1
|  7> S 	 42.7909 	 19.5747 	 48.0007
|  8> C 	 41.1667 	 19.0672 	 47.8834
|  9> C 	 40.4552 	 19.6445 	 46.8806
| 10> C 	 41.2762 	 20.4807 	 46.0944
| 11> C 	 42.5686 	 20.4663 	 46.572
| 12> H 	 41.0773 	 21.127 	 45.3045
| 13> C 	 38.8736 	 19.6028 	 46.6699
| 14> H 	 38.666 	 18.5825 	 47.0579
| 15> H 	 38.681 	 19.7487 	 45.614
| 16> C 	 38.1628 	 20.6694 	 47.5243
| 17> H 	 38.4163 	 21.5924 	 47.1258
| 18> H 	 37.0601 	 20.5652 	 47.3091
| 19> C 	 38.3983 	 20.6614 	 49.0886
| 20> H 	 38.0531 	 19.7171 	 49.5348
| 21> H 	 39.4853 	 20.8109 	 49.1939
| 22> H 	 37.8818 	 21.4093 	 49.6911
| 23> S 	 44.994 	 19.9172 	 45.4033
| 24> C 	 45.8148 	 21.1386 	 44.5712
| 25> C 	 45.2595 	 22.3944 	 44.8059
| 26> C 	 44.0354 	 22.3678 	 45.5485
| 27> C 	 43.6854 	 21.0484 	 45.8681
| 28> H 	 45.7128 	 23.3474 	 44.6632
| 29> C 	 43.3648 	 23.6925 	 46.0059
| 30> H 	 43.9909 	 24.5741 	 45.7234
| 31> H 	 43.4354 	 23.6844 	 47.1255
| 32> C 	 41.895 	 23.9366 	 45.6115
| 33> H 	 41.3104 	 23.4018 	 46.3615
| 34> H 	 41.8338 	 23.3844 	 44.6541
| 35> C 	 41.5267 	 25.439 	 45.3805
| 36> H 	 42.3268 	 25.9433 	 44.7997
| 37> H 	 41.52 	 25.9691 	 46.3558
| 38> H 	 40.5862 	 25.6663 	 44.9011
| 39> H 	 40.5652 	 18.6299 	 48.6687
| 40> H 	 46.8219 	 21.0849 	 44.1768
| 41> *
| 42>
| 43>                          ****END OF INPUT****

CARTESIAN COORDINATES (ANGSTROEM)
---------------------------------
  S     42.790900   19.574700   48.000700
  C     41.166700   19.067200   47.883400
  C     40.455200   19.644500   46.880600
  C     41.276200   20.480700   46.094400
  C     42.568600   20.466300   46.572000
  H     41.077300   21.127000   45.304500
  C     38.873600   19.602800   46.669900
  H     38.666000   18.582500   47.057900
  H     38.681000   19.748700   45.614000
  C     38.162800   20.669400   47.524300
  H     38.416300   21.592400   47.125800
  H     37.060100   20.565200   47.309100
  C     38.398300   20.661400   49.088600
  H     38.053100   19.717100   49.534800
  H     39.485300   20.810900   49.193900
  H     37.881800   21.409300   49.691100
  S     44.994000   19.917200   45.403300
  C     45.814800   21.138600   44.571200
  C     45.259500   22.394400   44.805900
  C     44.035400   22.367800   45.548500
  C     43.685400   21.048400   45.868100
  H     45.712800   23.347400   44.663200
  C     43.364800   23.692500   46.005900
  H     43.990900   24.574100   45.723400
  H     43.435400   23.684400   47.125500
  C     41.895000   23.936600   45.611500
  H     41.310400   23.401800   46.361500
  H     41.833800   23.384400   44.654100
  C     41.526700   25.439000   45.380500
  H     42.326800   25.943300   44.799700
  H     41.520000   25.969100   46.355800
  H     40.586200   25.666300   44.901100
  H     40.565200   18.629900   48.668700
  H     46.821900   21.084900   44.176800

 Total Charge           Charge          ....    0
 Multiplicity           Mult            ....    1
 Number of Electrons    NEL             ....  134
 Basis Dimension        Dim             ....  322

ORBITAL ENERGIES
----------------

  NO   OCC          E(Eh)            E(eV)
   0   2.0000     -88.971324     -2421.0328
   1   2.0000     -88.965902     -2420.8853
   2   2.0000     -10.325432      -280.9693
   3   2.0000     -10.319321      -280.8030
   4   2.0000     -10.312047      -280.6051
   5   2.0000     -10.305222      -280.4194
   6   2.0000     -10.303570      -280.3744
   7   2.0000     -10.302063      -280.3334
   8   2.0000     -10.300754      -280.2978
   9   2.0000     -10.297507      -280.2094
  10   2.0000     -10.291772      -280.0533
  11   2.0000     -10.290651      -280.0229
  12   2.0000     -10.288603      -279.9671
  13   2.0000     -10.286707      -279.9155
  14   2.0000     -10.284581      -279.8577
  15   2.0000     -10.284508      -279.8557
  16   2.0000      -8.087498      -220.0720
  17   2.0000      -8.081006      -219.8954
  18   2.0000      -6.045717      -164.5123
  19   2.0000      -6.041974      -164.4105
  20   2.0000      -6.039429      -164.3412
  21   2.0000      -6.038312      -164.3108
  22   2.0000      -6.035476      -164.2336
  23   2.0000      -6.031810      -164.1339
  24   2.0000      -1.016713       -27.6662
  25   2.0000      -0.987734       -26.8776
  26   2.0000      -0.906726       -24.6733
  27   2.0000      -0.904059       -24.6007
  28   2.0000      -0.867207       -23.5979
  29   2.0000      -0.853215       -23.2172
  30   2.0000      -0.848014       -23.0756
  31   2.0000      -0.806283       -21.9401
  32   2.0000      -0.786155       -21.3924
  33   2.0000      -0.776008       -21.1163
  34   2.0000      -0.708969       -19.2920
  35   2.0000      -0.700319       -19.0567
  36   2.0000      -0.688745       -18.7417
  37   2.0000      -0.662209       -18.0196
  38   2.0000      -0.646025       -17.5792
  39   2.0000      -0.612924       -16.6785
  40   2.0000      -0.593824       -16.1588
  41   2.0000      -0.567850       -15.4520
  42   2.0000      -0.562711       -15.3121
  43   2.0000      -0.551833       -15.0162
  44   2.0000      -0.538655       -14.6575
  45   2.0000      -0.523228       -14.2378
  46   2.0000      -0.514745       -14.0069
  47   2.0000      -0.506770       -13.7899
  48   2.0000      -0.502062       -13.6618
  49   2.0000      -0.494542       -13.4572
  50   2.0000      -0.485944       -13.2232
  51   2.0000      -0.478722       -13.0267
  52   2.0000      -0.469887       -12.7863
  53   2.0000      -0.464901       -12.6506
  54   2.0000      -0.460677       -12.5357
  55   2.0000      -0.456002       -12.4084
  56   2.0000      -0.451125       -12.2757
  57   2.0000      -0.446839       -12.1591
  58   2.0000      -0.434271       -11.8171
  59   2.0000      -0.428472       -11.6593
  60   2.0000      -0.424653       -11.5554
  61   2.0000      -0.412758       -11.2317
  62   2.0000      -0.406718       -11.0674
  63   2.0000      -0.342489        -9.3196
  64   2.0000      -0.335963        -9.1420
  65   2.0000      -0.328698        -8.9443
  66   2.0000      -0.292213        -7.9515
  67   0.0000       0.035518         0.9665
  68   0.0000       0.062585         1.7030
  69   0.0000       0.113054         3.0764
  70   0.0000       0.123027         3.3477
  71   0.0000       0.131860         3.5881

MULLIKEN ATOMIC CHARGES
-----------------------
   0 S :    0.145626
   1 C :   -0.106656
   2 C :   -0.125438
   3 C :    0.069707
   4 C :   -0.192961
   5 H :   -0.022804
   6 C :    0.084501
   7 H :    0.031086
   8 H :    0.037115
   9 C :   -0.055097
  10 H :    0.010713
  11 H :    0.036828
  12 C :   -0.080304
  13 H :    0.032019
  14 H :    0.054802
  15 H :    0.039383
  16 S :    0.121443
  17 C :   -0.074633
  18 C :   -0.036442
  19 C :   -0.041094
  20 C :   -0.187402
  21 H :    0.004206
  22 C :    0.045703
  23 H :    0.017455
  24 H :    0.044132
  25 C :   -0.101526
  26 H :    0.049128
  27 H :    0.047507
  28 C :   -0.055418
  29 H :    0.034313
  30 H :    0.033753
  31 H :    0.041748
  32 H :    0.037946
  33 H :    0.060663
Sum of atomic charges:    0.0000000

LOEWDIN ATOMIC CHARGES
----------------------
   0 S :    0.450125
   1 C :   -0.221706
   2 C :   -0.062681
   3 C :   -0.051968
   4 C :   -0.215236
   5 H :    0.020368
   6 C :   -0.018750
   7 H :    0.031960
   8 H :    0.033154
   9 C :   -0.037715
  10 H :    0.011694
  11 H :    0.028665
  12 C :   -0.071034
  13 H :    0.024172
  14 H :    0.030314
  15 H :    0.028601
  16 S :    0.421631
  17 C :   -0.211653
  18 C :   -0.072704
  19 C :   -0.056154
  20 C :   -0.192122
  21 H :    0.023647
  22 C :   -0.033063
  23 H :    0.028968
  24 H :    0.037483
  25 C :   -0.048245
  26 H :    0.025362
  27 H :    0.025670
  28 C :   -0.069203
  29 H :    0.028571
  30 H :    0.028858
  31 H :    0.025682
  32 H :    0.025313
  33 H :    0.031993

  Mayer bond orders larger than 0.100000
B(  0-S ,  1-C ) :   1.1374 B(  0-S ,  4-C ) :   1.1793 B(  1-C ,  2-C ) :   1.6387
B(  1-C , 32-H ) :   0.9533 B(  2-C ,  3-C ) :   1.2374 B(  2-C ,  6-C ) :   0.9998
B(  3-C ,  4-C ) :   1.5630 B(  3-C ,  5-H ) :   1.0056 B(  4-C , 20-C ) :   1.0323
B(  6-C ,  7-H ) :   0.9419 B(  6-C ,  8-H ) :   0.9441 B(  6-C ,  9-C ) :   1.0681
B(  9-C , 10-H ) :   0.9572 B(  9-C , 11-H ) :   0.9572 B(  9-C , 12-C ) :   1.0658
B( 12-C , 13-H ) :   0.9763 B( 12-C , 14-H ) :   0.9727 B( 12-C , 15-H ) :   0.9751
B( 16-S , 17-C ) :   1.1724 B( 16-S , 20-C ) :   1.1462 B( 17-C , 18-C ) :   1.5753
B( 17-C , 20-C ) :   0.1030 B( 17-C , 33-H ) :   0.9624 B( 18-C , 19-C ) :   1.2880
B( 18-C , 21-H ) :   0.9834 B( 19-C , 20-C ) :   1.5774 B( 19-C , 22-C ) :   1.0332
B( 22-C , 23-H ) :   0.9434 B( 22-C , 24-H ) :   0.9348 B( 22-C , 25-C ) :   1.0388
B( 25-C , 26-H ) :   0.9525 B( 25-C , 27-H ) :   0.9619 B( 25-C , 28-C ) :   1.0711
B( 28-C , 29-H ) :   0.9750 B( 28-C , 30-H ) :   0.9754 B( 28-C , 31-H ) :   0.9779

Dispersion correction           -0.015050113
FINAL SINGLE POINT ENERGY     -1339.864902196036

DIPOLE MOMENT
-------------
                                X             Y             Z
Electronic contribution:     22.82182     -18.04625      -2.10556
Nuclear contribution   :    -23.20886      18.62816       2.22950
                        -----------------------------------------
Total Dipole Moment    :     -0.38704       0.58192       0.12394
                        -----------------------------------------
Magnitude (a.u.)       :      0.70978
Magnitude (Debye)      :      1.80413

Rotational constants in cm-1:     0.018105     0.009693     0.006992
Rotational constants in MHz :   542.763964   290.588778   209.605550

                             ****ORCA TERMINATED NORMALLY****
TOTAL RUN TIME: 0 days 0 hours 0 minutes 33 seconds 610 msec
