                         Program Version 4.2.1 -  RELEASE  -
|  1> ! wB97X-D3 SP def2-SVP
|  2> %pal
|  3> nprocs 16
|  4> end
|  5>
|  6> * xyz 0 1
|  7> S 	 -28.4015 	 -10.5799 	 88.2409
|  8> C 	 -30.0878 	 -11.0078 	 88.23
|  9> C 	 -30.8032 	 -9.84195 	 87.9685
| 10> C 	 -29.9848 	 -8.65149 	 87.9567
| 11> C 	 -28.6706 	 -8.85262 	 88.1832
| 12> H 	 -30.3761 	 -7.64959 	 87.9674
| 13> C 	 -32.2636 	 -9.76481 	 87.7644
| 14> H 	 -32.6066 	 -8.74075 	 87.8032
| 15> H 	 -32.7756 	 -10.2457 	 88.5189
| 16> C 	 -32.6968 	 -10.3785 	 86.4232
| 17> H 	 -32.5465 	 -11.5016 	 86.4474
| 18> H 	 -33.7663 	 -10.221 	 86.2921
| 19> C 	 -32.1929 	 -9.56023 	 85.214
| 20> H 	 -32.9284 	 -9.66358 	 84.3883
| 21> H 	 -31.8889 	 -8.50507 	 85.3563
| 22> H 	 -31.2502 	 -9.97901 	 84.7749
| 23> S 	 -26.0746 	 -8.53181 	 88.7758
| 24> C 	 -25.1721 	 -7.03423 	 88.6105
| 25> C 	 -26.0067 	 -6.09815 	 88.0527
| 26> C 	 -27.3693 	 -6.523 	 87.8523
| 27> C 	 -27.5254 	 -7.87871 	 88.198
| 28> H 	 -25.5914 	 -5.18331 	 87.7593
| 29> C 	 -28.4506 	 -5.66787 	 87.3479
| 30> H 	 -29.0656 	 -5.51343 	 88.2184
| 31> H 	 -29.0968 	 -6.27165 	 86.6903
| 32> C 	 -28.1661 	 -4.28425 	 86.6847
| 33> H 	 -27.5085 	 -4.35684 	 85.8946
| 34> H 	 -27.6288 	 -3.67649 	 87.3269
| 35> C 	 -29.4427 	 -3.59907 	 86.1891
| 36> H 	 -29.1788 	 -2.64413 	 85.746
| 37> H 	 -30.1912 	 -3.45128 	 87.0134
| 38> H 	 -29.9298 	 -4.12254 	 85.4104
| 39> H 	 -30.4581 	 -12.0399 	 88.017
| 40> H 	 -24.076 	 -6.95301 	 88.7077
| 41> *
| 42>
| 43>                          ****END OF INPUT****

CARTESIAN COORDINATES (ANGSTROEM)
---------------------------------
  S    -28.401500  -10.579900   88.240900
  C    -30.087800  -11.007800   88.230000
  C    -30.803200   -9.841950   87.968500
  C    -29.984800   -8.651490   87.956700
  C    -28.670600   -8.852620   88.183200
  H    -30.376100   -7.649590   87.967400
  C    -32.263600   -9.764810   87.764400
  H    -32.606600   -8.740750   87.803200
  H    -32.775600  -10.245700   88.518900
  C    -32.696800  -10.378500   86.423200
  H    -32.546500  -11.501600   86.447400
  H    -33.766300  -10.221000   86.292100
  C    -32.192900   -9.560230   85.214000
  H    -32.928400   -9.663580   84.388300
  H    -31.888900   -8.505070   85.356300
  H    -31.250200   -9.979010   84.774900
  S    -26.074600   -8.531810   88.775800
  C    -25.172100   -7.034230   88.610500
  C    -26.006700   -6.098150   88.052700
  C    -27.369300   -6.523000   87.852300
  C    -27.525400   -7.878710   88.198000
  H    -25.591400   -5.183310   87.759300
  C    -28.450600   -5.667870   87.347900
  H    -29.065600   -5.513430   88.218400
  H    -29.096800   -6.271650   86.690300
  C    -28.166100   -4.284250   86.684700
  H    -27.508500   -4.356840   85.894600
  H    -27.628800   -3.676490   87.326900
  C    -29.442700   -3.599070   86.189100
  H    -29.178800   -2.644130   85.746000
  H    -30.191200   -3.451280   87.013400
  H    -29.929800   -4.122540   85.410400
  H    -30.458100  -12.039900   88.017000
  H    -24.076000   -6.953010   88.707700

 Total Charge           Charge          ....    0
 Multiplicity           Mult            ....    1
 Number of Electrons    NEL             ....  134
 Basis Dimension        Dim             ....  322

ORBITAL ENERGIES
----------------

  NO   OCC          E(Eh)            E(eV)
   0   2.0000     -88.962278     -2420.7866
   1   2.0000     -88.962058     -2420.7807
   2   2.0000     -10.333555      -281.1903
   3   2.0000     -10.330251      -281.1004
   4   2.0000     -10.318744      -280.7873
   5   2.0000     -10.316803      -280.7345
   6   2.0000     -10.307315      -280.4763
   7   2.0000     -10.300692      -280.2961
   8   2.0000     -10.292523      -280.0738
   9   2.0000     -10.292457      -280.0720
  10   2.0000     -10.292453      -280.0719
  11   2.0000     -10.289871      -280.0016
  12   2.0000     -10.282791      -279.8090
  13   2.0000     -10.281480      -279.7733
  14   2.0000     -10.281415      -279.7715
  15   2.0000     -10.280217      -279.7389
  16   2.0000      -8.078131      -219.8171
  17   2.0000      -8.077101      -219.7891
  18   2.0000      -6.036594      -164.2641
  19   2.0000      -6.035782      -164.2420
  20   2.0000      -6.032326      -164.1479
  21   2.0000      -6.031486      -164.1251
  22   2.0000      -6.029012      -164.0578
  23   2.0000      -6.027704      -164.0222
  24   2.0000      -1.012336       -27.5471
  25   2.0000      -0.989551       -26.9270
  26   2.0000      -0.916557       -24.9408
  27   2.0000      -0.913654       -24.8618
  28   2.0000      -0.869444       -23.6588
  29   2.0000      -0.858638       -23.3647
  30   2.0000      -0.841633       -22.9020
  31   2.0000      -0.823675       -22.4133
  32   2.0000      -0.781099       -21.2548
  33   2.0000      -0.772288       -21.0150
  34   2.0000      -0.721886       -19.6435
  35   2.0000      -0.702554       -19.1175
  36   2.0000      -0.694073       -18.8867
  37   2.0000      -0.660844       -17.9825
  38   2.0000      -0.637830       -17.3562
  39   2.0000      -0.621378       -16.9086
  40   2.0000      -0.600024       -16.3275
  41   2.0000      -0.575982       -15.6733
  42   2.0000      -0.571945       -15.5634
  43   2.0000      -0.554769       -15.0960
  44   2.0000      -0.543706       -14.7950
  45   2.0000      -0.532557       -14.4916
  46   2.0000      -0.517873       -14.0921
  47   2.0000      -0.510731       -13.8977
  48   2.0000      -0.506590       -13.7850
  49   2.0000      -0.500428       -13.6173
  50   2.0000      -0.486536       -13.2393
  51   2.0000      -0.482999       -13.1431
  52   2.0000      -0.479679       -13.0527
  53   2.0000      -0.468257       -12.7419
  54   2.0000      -0.462856       -12.5949
  55   2.0000      -0.455728       -12.4010
  56   2.0000      -0.439951       -11.9717
  57   2.0000      -0.435520       -11.8511
  58   2.0000      -0.434032       -11.8106
  59   2.0000      -0.431281       -11.7358
  60   2.0000      -0.427499       -11.6328
  61   2.0000      -0.412694       -11.2300
  62   2.0000      -0.402350       -10.9485
  63   2.0000      -0.363927        -9.9030
  64   2.0000      -0.332101        -9.0369
  65   2.0000      -0.321247        -8.7416
  66   2.0000      -0.287560        -7.8249
  67   0.0000       0.022082         0.6009
  68   0.0000       0.085043         2.3141
  69   0.0000       0.105634         2.8744
  70   0.0000       0.125669         3.4196
  71   0.0000       0.134456         3.6587

MULLIKEN ATOMIC CHARGES
-----------------------
   0 S :    0.084916
   1 C :   -0.116160
   2 C :   -0.105349
   3 C :   -0.034927
   4 C :   -0.064500
   5 H :    0.004912
   6 C :    0.112521
   7 H :    0.009623
   8 H :    0.012070
   9 C :   -0.094797
  10 H :    0.044193
  11 H :    0.028557
  12 C :   -0.086428
  13 H :    0.037687
  14 H :    0.039790
  15 H :    0.036463
  16 S :    0.087799
  17 C :   -0.090071
  18 C :   -0.030784
  19 C :   -0.033324
  20 C :   -0.127535
  21 H :   -0.002556
  22 C :   -0.007041
  23 H :    0.040691
  24 H :    0.036162
  25 C :    0.005114
  26 H :    0.006945
  27 H :    0.009652
  28 C :   -0.041369
  29 H :    0.030057
  30 H :    0.036270
  31 H :    0.024250
  32 H :    0.075469
  33 H :    0.071701
Sum of atomic charges:   -0.0000000

LOEWDIN ATOMIC CHARGES
----------------------
   0 S :    0.401810
   1 C :   -0.211300
   2 C :   -0.057298
   3 C :   -0.081648
   4 C :   -0.180381
   5 H :    0.026601
   6 C :   -0.030086
   7 H :    0.028022
   8 H :    0.023022
   9 C :   -0.042846
  10 H :    0.030015
  11 H :    0.023852
  12 C :   -0.079237
  13 H :    0.028006
  14 H :    0.029470
  15 H :    0.030163
  16 S :    0.427555
  17 C :   -0.190220
  18 C :   -0.068269
  19 C :   -0.057426
  20 C :   -0.207241
  21 H :    0.021547
  22 C :   -0.039194
  23 H :    0.035834
  24 H :    0.034107
  25 C :   -0.027582
  26 H :    0.016062
  27 H :    0.015519
  28 C :   -0.057245
  29 H :    0.028231
  30 H :    0.030005
  31 H :    0.019257
  32 H :    0.042067
  33 H :    0.038826

  Mayer bond orders larger than 0.100000
B(  0-S ,  1-C ) :   1.1307 B(  0-S ,  4-C ) :   1.1538 B(  1-C ,  2-C ) :   1.6003
B(  1-C , 32-H ) :   0.9624 B(  2-C ,  3-C ) :   1.2399 B(  2-C ,  6-C ) :   1.0324
B(  3-C ,  4-C ) :   1.5902 B(  3-C ,  5-H ) :   0.9924 B(  4-C , 20-C ) :   1.0363
B(  6-C ,  7-H ) :   0.9402 B(  6-C ,  8-H ) :   0.9319 B(  6-C ,  9-C ) :   1.0885
B(  9-C , 10-H ) :   0.9580 B(  9-C , 11-H ) :   0.9632 B(  9-C , 12-C ) :   1.0435
B( 12-C , 13-H ) :   0.9824 B( 12-C , 14-H ) :   0.9765 B( 12-C , 15-H ) :   0.9736
B( 16-S , 17-C ) :   1.1602 B( 16-S , 20-C ) :   1.1668 B( 17-C , 18-C ) :   1.5843
B( 17-C , 33-H ) :   0.9646 B( 18-C , 19-C ) :   1.2629 B( 18-C , 21-H ) :   0.9976
B( 19-C , 20-C ) :   1.5462 B( 19-C , 22-C ) :   1.0469 B( 22-C , 23-H ) :   0.9195
B( 22-C , 24-H ) :   0.9326 B( 22-C , 25-C ) :   1.0682 B( 25-C , 26-H ) :   0.9491
B( 25-C , 27-H ) :   0.9409 B( 25-C , 28-C ) :   1.0932 B( 28-C , 29-H ) :   0.9711
B( 28-C , 30-H ) :   0.9760 B( 28-C , 31-H ) :   0.9755

Dispersion correction           -0.013917385
FINAL SINGLE POINT ENERGY     -1339.868494265082

DIPOLE MOMENT
-------------
                                X             Y             Z
Electronic contribution:     21.40288     -15.49320      14.75673
Nuclear contribution   :    -21.82761      16.04844     -15.16758
                        -----------------------------------------
Total Dipole Moment    :     -0.42473       0.55524      -0.41085
                        -----------------------------------------
Magnitude (a.u.)       :      0.81085
Magnitude (Debye)      :      2.06102

Rotational constants in cm-1:     0.017016     0.009431     0.006368
Rotational constants in MHz :   510.131949   282.746001   190.921876

                             ****ORCA TERMINATED NORMALLY****
TOTAL RUN TIME: 0 days 0 hours 0 minutes 33 seconds 536 msec
