                         Program Version 4.2.1 -  RELEASE  -
|  1> ! wB97X-D3 SP def2-SVP
|  2> %pal
|  3> nprocs 16
|  4> end
|  5>
|  6> * xyz 0 1
|  7> S 	 35.8038 	 35.3313 	 55.4852
|  8> C 	 36.8254 	 36.6616 	 54.9991
|  9> C 	 38.0538 	 36.7055 	 55.6225
| 10> C 	 38.1749 	 35.6867 	 56.6218
| 11> C 	 37.0039 	 34.9641 	 56.7354
| 12> H 	 38.9655 	 35.5081 	 57.295
| 13> C 	 39.1523 	 37.6809 	 55.3649
| 14> H 	 40.1437 	 37.1545 	 55.3294
| 15> H 	 39.295 	 38.0855 	 56.3774
| 16> C 	 38.8921 	 38.8018 	 54.2992
| 17> H 	 38.4341 	 38.4119 	 53.4346
| 18> H 	 38.1054 	 39.4436 	 54.7089
| 19> C 	 40.1547 	 39.6444 	 53.9302
| 20> H 	 40.4928 	 40.1705 	 54.8117
| 21> H 	 40.9788 	 39.194 	 53.461
| 22> H 	 39.8947 	 40.4077 	 53.1554
| 23> S 	 37.4745 	 32.2946 	 57.6398
| 24> C 	 36.4573 	 31.6793 	 58.9387
| 25> C 	 35.739 	 32.7249 	 59.4915
| 26> C 	 35.8096 	 33.9515 	 58.7523
| 27> C 	 36.7067 	 33.8791 	 57.6604
| 28> H 	 34.9916 	 32.4714 	 60.196
| 29> C 	 34.9711 	 35.1258 	 58.9372
| 30> H 	 34.0922 	 34.9866 	 59.5699
| 31> H 	 34.3699 	 35.2785 	 58.0154
| 32> C 	 35.659 	 36.3484 	 59.4291
| 33> H 	 36.542 	 36.4155 	 58.8173
| 34> H 	 36.0512 	 36.1829 	 60.4636
| 35> C 	 34.9327 	 37.6317 	 59.3933
| 36> H 	 35.6183 	 38.5074 	 59.5438
| 37> H 	 34.0819 	 37.6177 	 60.0873
| 38> H 	 34.6326 	 37.7371 	 58.3291
| 39> H 	 36.4743 	 37.5317 	 54.4455
| 40> H 	 36.4312 	 30.613 	 59.2208
| 41> *
| 42>
| 43>                          ****END OF INPUT****

CARTESIAN COORDINATES (ANGSTROEM)
---------------------------------
  S     35.803800   35.331300   55.485200
  C     36.825400   36.661600   54.999100
  C     38.053800   36.705500   55.622500
  C     38.174900   35.686700   56.621800
  C     37.003900   34.964100   56.735400
  H     38.965500   35.508100   57.295000
  C     39.152300   37.680900   55.364900
  H     40.143700   37.154500   55.329400
  H     39.295000   38.085500   56.377400
  C     38.892100   38.801800   54.299200
  H     38.434100   38.411900   53.434600
  H     38.105400   39.443600   54.708900
  C     40.154700   39.644400   53.930200
  H     40.492800   40.170500   54.811700
  H     40.978800   39.194000   53.461000
  H     39.894700   40.407700   53.155400
  S     37.474500   32.294600   57.639800
  C     36.457300   31.679300   58.938700
  C     35.739000   32.724900   59.491500
  C     35.809600   33.951500   58.752300
  C     36.706700   33.879100   57.660400
  H     34.991600   32.471400   60.196000
  C     34.971100   35.125800   58.937200
  H     34.092200   34.986600   59.569900
  H     34.369900   35.278500   58.015400
  C     35.659000   36.348400   59.429100
  H     36.542000   36.415500   58.817300
  H     36.051200   36.182900   60.463600
  C     34.932700   37.631700   59.393300
  H     35.618300   38.507400   59.543800
  H     34.081900   37.617700   60.087300
  H     34.632600   37.737100   58.329100
  H     36.474300   37.531700   54.445500
  H     36.431200   30.613000   59.220800

 Total Charge           Charge          ....    0
 Multiplicity           Mult            ....    1
 Number of Electrons    NEL             ....  134
 Basis Dimension        Dim             ....  322

ORBITAL ENERGIES
----------------

  NO   OCC          E(Eh)            E(eV)
   0   2.0000     -88.967882     -2420.9392
   1   2.0000     -88.965098     -2420.8634
   2   2.0000     -10.330887      -281.1177
   3   2.0000     -10.324044      -280.9315
   4   2.0000     -10.321978      -280.8753
   5   2.0000     -10.309344      -280.5315
   6   2.0000     -10.302235      -280.3381
   7   2.0000     -10.302116      -280.3348
   8   2.0000     -10.299146      -280.2540
   9   2.0000     -10.294699      -280.1330
  10   2.0000     -10.294558      -280.1292
  11   2.0000     -10.292422      -280.0710
  12   2.0000     -10.281479      -279.7733
  13   2.0000     -10.279644      -279.7233
  14   2.0000     -10.275237      -279.6034
  15   2.0000     -10.270196      -279.4662
  16   2.0000      -8.082079      -219.9245
  17   2.0000      -8.079293      -219.8487
  18   2.0000      -6.040599      -164.3730
  19   2.0000      -6.037797      -164.2968
  20   2.0000      -6.036869      -164.2715
  21   2.0000      -6.033717      -164.1858
  22   2.0000      -6.032655      -164.1569
  23   2.0000      -6.030251      -164.0915
  24   2.0000      -1.004807       -27.3422
  25   2.0000      -0.982163       -26.7260
  26   2.0000      -0.917808       -24.9748
  27   2.0000      -0.908845       -24.7309
  28   2.0000      -0.865745       -23.5581
  29   2.0000      -0.855499       -23.2793
  30   2.0000      -0.851135       -23.1606
  31   2.0000      -0.815823       -22.1997
  32   2.0000      -0.783887       -21.3306
  33   2.0000      -0.766748       -20.8643
  34   2.0000      -0.724012       -19.7014
  35   2.0000      -0.700467       -19.0607
  36   2.0000      -0.684640       -18.6300
  37   2.0000      -0.658871       -17.9288
  38   2.0000      -0.643481       -17.5100
  39   2.0000      -0.612959       -16.6795
  40   2.0000      -0.598194       -16.2777
  41   2.0000      -0.571238       -15.5442
  42   2.0000      -0.565486       -15.3877
  43   2.0000      -0.560406       -15.2494
  44   2.0000      -0.527213       -14.3462
  45   2.0000      -0.523239       -14.2380
  46   2.0000      -0.518122       -14.0988
  47   2.0000      -0.515052       -14.0153
  48   2.0000      -0.513155       -13.9637
  49   2.0000      -0.494929       -13.4677
  50   2.0000      -0.490049       -13.3349
  51   2.0000      -0.483560       -13.1583
  52   2.0000      -0.473190       -12.8761
  53   2.0000      -0.464336       -12.6352
  54   2.0000      -0.456734       -12.4284
  55   2.0000      -0.452616       -12.3163
  56   2.0000      -0.444358       -12.0916
  57   2.0000      -0.437191       -11.8966
  58   2.0000      -0.434477       -11.8227
  59   2.0000      -0.423743       -11.5306
  60   2.0000      -0.421769       -11.4769
  61   2.0000      -0.416693       -11.3388
  62   2.0000      -0.398586       -10.8461
  63   2.0000      -0.333066        -9.0632
  64   2.0000      -0.332017        -9.0347
  65   2.0000      -0.319491        -8.6938
  66   2.0000      -0.301233        -8.1970
  67   0.0000       0.035052         0.9538
  68   0.0000       0.056455         1.5362
  69   0.0000       0.105118         2.8604
  70   0.0000       0.120992         3.2924
  71   0.0000       0.130093         3.5400

MULLIKEN ATOMIC CHARGES
-----------------------
   0 S :    0.123607
   1 C :   -0.137447
   2 C :   -0.091989
   3 C :    0.065937
   4 C :   -0.205482
   5 H :    0.000348
   6 C :    0.053690
   7 H :    0.035659
   8 H :    0.023645
   9 C :   -0.062703
  10 H :    0.027991
  11 H :    0.034442
  12 C :   -0.034799
  13 H :    0.031725
  14 H :    0.028351
  15 H :    0.031350
  16 S :    0.111341
  17 C :   -0.129525
  18 C :    0.004845
  19 C :   -0.021693
  20 C :   -0.152218
  21 H :    0.011600
  22 C :    0.069149
  23 H :   -0.002874
  24 H :    0.021021
  25 C :   -0.074736
  26 H :    0.019086
  27 H :    0.020938
  28 C :   -0.027849
  29 H :    0.039059
  30 H :    0.035372
  31 H :    0.024250
  32 H :    0.051092
  33 H :    0.076818
Sum of atomic charges:    0.0000000

LOEWDIN ATOMIC CHARGES
----------------------
   0 S :    0.403600
   1 C :   -0.214478
   2 C :   -0.058413
   3 C :   -0.048283
   4 C :   -0.174865
   5 H :    0.027883
   6 C :   -0.043050
   7 H :    0.040360
   8 H :    0.037491
   9 C :   -0.035171
  10 H :    0.017084
  11 H :    0.029803
  12 C :   -0.062912
  13 H :    0.025146
  14 H :    0.019194
  15 H :    0.033826
  16 S :    0.398774
  17 C :   -0.182288
  18 C :   -0.069899
  19 C :   -0.046658
  20 C :   -0.211847
  21 H :    0.026861
  22 C :   -0.050483
  23 H :    0.026278
  24 H :    0.031211
  25 C :   -0.050918
  26 H :    0.020911
  27 H :    0.024845
  28 C :   -0.065726
  29 H :    0.033915
  30 H :    0.023902
  31 H :    0.028560
  32 H :    0.027118
  33 H :    0.038228

  Mayer bond orders larger than 0.100000
B(  0-S ,  1-C ) :   1.1131 B(  0-S ,  4-C ) :   1.1509 B(  1-C ,  2-C ) :   1.6644
B(  1-C , 32-H ) :   0.9487 B(  2-C ,  3-C ) :   1.1967 B(  2-C ,  6-C ) :   1.0165
B(  3-C ,  4-C ) :   1.6093 B(  3-C ,  5-H ) :   1.0051 B(  4-C , 20-C ) :   1.0313
B(  6-C ,  7-H ) :   0.9382 B(  6-C ,  8-H ) :   0.9250 B(  6-C ,  9-C ) :   1.0540
B(  9-C , 10-H ) :   0.9583 B(  9-C , 11-H ) :   0.9507 B(  9-C , 12-C ) :   1.0817
B( 12-C , 13-H ) :   0.9766 B( 12-C , 14-H ) :   0.9789 B( 12-C , 15-H ) :   0.9730
B( 16-S , 17-C ) :   1.1691 B( 16-S , 20-C ) :   1.1383 B( 17-C , 18-C ) :   1.5833
B( 17-C , 20-C ) :   0.1022 B( 17-C , 33-H ) :   0.9650 B( 18-C , 19-C ) :   1.2674
B( 18-C , 21-H ) :   0.9905 B( 19-C , 20-C ) :   1.5530 B( 19-C , 22-C ) :   1.0604
B( 22-C , 23-H ) :   0.9180 B( 22-C , 24-H ) :   0.9178 B( 22-C , 25-C ) :   1.0567
B( 25-C , 26-H ) :   0.9541 B( 25-C , 27-H ) :   0.9409 B( 25-C , 28-C ) :   1.0971
B( 28-C , 29-H ) :   0.9693 B( 28-C , 30-H ) :   0.9717 B( 28-C , 31-H ) :   0.9690

Dispersion correction           -0.015013980
FINAL SINGLE POINT ENERGY     -1339.868838254064

DIPOLE MOMENT
-------------
                                X             Y             Z
Electronic contribution:     -4.17295     -26.55592      -1.10044
Nuclear contribution   :      4.27541      27.00253       1.25303
                        -----------------------------------------
Total Dipole Moment    :      0.10246       0.44661       0.15259
                        -----------------------------------------
Magnitude (a.u.)       :      0.48295
Magnitude (Debye)      :      1.22757

Rotational constants in cm-1:     0.022464     0.007777     0.006681
Rotational constants in MHz :   673.459004   233.163293   200.282699

                             ****ORCA TERMINATED NORMALLY****
TOTAL RUN TIME: 0 days 0 hours 0 minutes 33 seconds 677 msec
