                         Program Version 4.2.1 -  RELEASE  -
|  1> ! wB97X-D3 SP def2-SVP
|  2> %pal
|  3> nprocs 16
|  4> end
|  5>
|  6> * xyz 0 1
|  7> S 	 -69.7804 	 41.2682 	 122.324
|  8> C 	 -71.3982 	 40.4944 	 122.572
|  9> C 	 -72.4282 	 41.4655 	 122.553
| 10> C 	 -71.9161 	 42.8036 	 122.367
| 11> C 	 -70.5183 	 42.8757 	 122.247
| 12> H 	 -72.4868 	 43.7505 	 122.31
| 13> C 	 -73.8958 	 41.1719 	 122.77
| 14> H 	 -73.9967 	 41.1957 	 123.882
| 15> H 	 -74.2689 	 40.1786 	 122.447
| 16> C 	 -74.9028 	 42.2313 	 122.359
| 17> H 	 -74.5944 	 43.1631 	 122.933
| 18> H 	 -74.7763 	 42.5747 	 121.359
| 19> C 	 -76.4176 	 41.746 	 122.502
| 20> H 	 -76.7032 	 41.7014 	 123.577
| 21> H 	 -77.1414 	 42.4799 	 122.093
| 22> H 	 -76.5536 	 40.7656 	 121.914
| 23> S 	 -68.5116 	 44.4921 	 123.278
| 24> C 	 -67.7125 	 45.6088 	 122.144
| 25> C 	 -68.4481 	 45.8188 	 120.992
| 26> C 	 -69.5696 	 44.9088 	 120.964
| 27> C 	 -69.6703 	 44.0857 	 122.064
| 28> H 	 -68.0804 	 46.5694 	 120.271
| 29> C 	 -70.4873 	 44.7416 	 119.718
| 30> H 	 -71.4561 	 44.8929 	 120.19
| 31> H 	 -70.5221 	 43.6217 	 119.497
| 32> C 	 -70.0916 	 45.5405 	 118.418
| 33> H 	 -68.9804 	 45.3712 	 118.356
| 34> H 	 -70.0332 	 46.5924 	 118.695
| 35> C 	 -71.0314 	 45.4594 	 117.154
| 36> H 	 -71.4845 	 44.4839 	 117.07
| 37> H 	 -70.4438 	 45.4877 	 116.27
| 38> H 	 -71.7095 	 46.2804 	 117.083
| 39> H 	 -71.4977 	 39.4302 	 122.604
| 40> H 	 -66.7994 	 46.0966 	 122.332
| 41> *
| 42>
| 43>                          ****END OF INPUT****

CARTESIAN COORDINATES (ANGSTROEM)
---------------------------------
  S    -69.780400   41.268200  122.324000
  C    -71.398200   40.494400  122.572000
  C    -72.428200   41.465500  122.553000
  C    -71.916100   42.803600  122.367000
  C    -70.518300   42.875700  122.247000
  H    -72.486800   43.750500  122.310000
  C    -73.895800   41.171900  122.770000
  H    -73.996700   41.195700  123.882000
  H    -74.268900   40.178600  122.447000
  C    -74.902800   42.231300  122.359000
  H    -74.594400   43.163100  122.933000
  H    -74.776300   42.574700  121.359000
  C    -76.417600   41.746000  122.502000
  H    -76.703200   41.701400  123.577000
  H    -77.141400   42.479900  122.093000
  H    -76.553600   40.765600  121.914000
  S    -68.511600   44.492100  123.278000
  C    -67.712500   45.608800  122.144000
  C    -68.448100   45.818800  120.992000
  C    -69.569600   44.908800  120.964000
  C    -69.670300   44.085700  122.064000
  H    -68.080400   46.569400  120.271000
  C    -70.487300   44.741600  119.718000
  H    -71.456100   44.892900  120.190000
  H    -70.522100   43.621700  119.497000
  C    -70.091600   45.540500  118.418000
  H    -68.980400   45.371200  118.356000
  H    -70.033200   46.592400  118.695000
  C    -71.031400   45.459400  117.154000
  H    -71.484500   44.483900  117.070000
  H    -70.443800   45.487700  116.270000
  H    -71.709500   46.280400  117.083000
  H    -71.497700   39.430200  122.604000
  H    -66.799400   46.096600  122.332000

 Total Charge           Charge          ....    0
 Multiplicity           Mult            ....    1
 Number of Electrons    NEL             ....  134
 Basis Dimension        Dim             ....  322

ORBITAL ENERGIES
----------------

  NO   OCC          E(Eh)            E(eV)
   0   2.0000     -88.967297     -2420.9232
   1   2.0000     -88.964537     -2420.8481
   2   2.0000     -10.335603      -281.2461
   3   2.0000     -10.321698      -280.8677
   4   2.0000     -10.321187      -280.8538
   5   2.0000     -10.316221      -280.7186
   6   2.0000     -10.313043      -280.6322
   7   2.0000     -10.306621      -280.4574
   8   2.0000     -10.302567      -280.3471
   9   2.0000     -10.299459      -280.2625
  10   2.0000     -10.297717      -280.2151
  11   2.0000     -10.297575      -280.2113
  12   2.0000     -10.297290      -280.2035
  13   2.0000     -10.296565      -280.1838
  14   2.0000     -10.293462      -280.0993
  15   2.0000     -10.280005      -279.7332
  16   2.0000      -8.080551      -219.8830
  17   2.0000      -8.079254      -219.8477
  18   2.0000      -6.039143      -164.3334
  19   2.0000      -6.037736      -164.2952
  20   2.0000      -6.035210      -164.2264
  21   2.0000      -6.033860      -164.1897
  22   2.0000      -6.031362      -164.1217
  23   2.0000      -6.029947      -164.0832
  24   2.0000      -0.999818       -27.2064
  25   2.0000      -0.974237       -26.5103
  26   2.0000      -0.908745       -24.7282
  27   2.0000      -0.894011       -24.3273
  28   2.0000      -0.863621       -23.5003
  29   2.0000      -0.845833       -23.0163
  30   2.0000      -0.838659       -22.8211
  31   2.0000      -0.813771       -22.1438
  32   2.0000      -0.779642       -21.2151
  33   2.0000      -0.770191       -20.9580
  34   2.0000      -0.710876       -19.3439
  35   2.0000      -0.705600       -19.2004
  36   2.0000      -0.689017       -18.7491
  37   2.0000      -0.649396       -17.6710
  38   2.0000      -0.642346       -17.4791
  39   2.0000      -0.616144       -16.7661
  40   2.0000      -0.588281       -16.0079
  41   2.0000      -0.567837       -15.4516
  42   2.0000      -0.565024       -15.3751
  43   2.0000      -0.554969       -15.1015
  44   2.0000      -0.524586       -14.2747
  45   2.0000      -0.519943       -14.1484
  46   2.0000      -0.509966       -13.8769
  47   2.0000      -0.507044       -13.7974
  48   2.0000      -0.502682       -13.6787
  49   2.0000      -0.494798       -13.4641
  50   2.0000      -0.489369       -13.3164
  51   2.0000      -0.474507       -12.9120
  52   2.0000      -0.473043       -12.8722
  53   2.0000      -0.467057       -12.7093
  54   2.0000      -0.455345       -12.3906
  55   2.0000      -0.451570       -12.2878
  56   2.0000      -0.449117       -12.2211
  57   2.0000      -0.430966       -11.7272
  58   2.0000      -0.427609       -11.6358
  59   2.0000      -0.425729       -11.5847
  60   2.0000      -0.419375       -11.4118
  61   2.0000      -0.413475       -11.2512
  62   2.0000      -0.413095       -11.2409
  63   2.0000      -0.338369        -9.2075
  64   2.0000      -0.328215        -8.9312
  65   2.0000      -0.324710        -8.8358
  66   2.0000      -0.296938        -8.0801
  67   0.0000       0.031506         0.8573
  68   0.0000       0.060398         1.6435
  69   0.0000       0.114578         3.1178
  70   0.0000       0.116765         3.1773
  71   0.0000       0.127863         3.4793

MULLIKEN ATOMIC CHARGES
-----------------------
   0 S :    0.108007
   1 C :   -0.130230
   2 C :   -0.052398
   3 C :    0.013198
   4 C :   -0.166860
   5 H :    0.032887
   6 C :    0.048074
   7 H :    0.050270
   8 H :    0.028437
   9 C :   -0.116218
  10 H :    0.037276
  11 H :    0.023777
  12 C :   -0.079471
  13 H :    0.045640
  14 H :    0.042297
  15 H :    0.055411
  16 S :    0.113568
  17 C :   -0.081440
  18 C :   -0.064054
  19 C :   -0.039958
  20 C :   -0.180647
  21 H :    0.039237
  22 C :    0.055842
  23 H :    0.022617
  24 H :    0.050032
  25 C :   -0.112081
  26 H :    0.037399
  27 H :    0.024931
  28 C :    0.019278
  29 H :    0.030985
  30 H :    0.019644
  31 H :    0.039465
  32 H :    0.047660
  33 H :    0.037426
Sum of atomic charges:    0.0000000

LOEWDIN ATOMIC CHARGES
----------------------
   0 S :    0.382525
   1 C :   -0.179972
   2 C :   -0.054899
   3 C :   -0.070375
   4 C :   -0.185259
   5 H :    0.037420
   6 C :   -0.041957
   7 H :    0.045474
   8 H :    0.029685
   9 C :   -0.050953
  10 H :    0.028276
  11 H :    0.014235
  12 C :   -0.072813
  13 H :    0.029239
  14 H :    0.029875
  15 H :    0.037808
  16 S :    0.402110
  17 C :   -0.162244
  18 C :   -0.080248
  19 C :   -0.049033
  20 C :   -0.225063
  21 H :    0.041384
  22 C :   -0.041340
  23 H :    0.027545
  24 H :    0.040588
  25 C :   -0.053031
  26 H :    0.031325
  27 H :    0.021832
  28 C :   -0.055557
  29 H :    0.028128
  30 H :    0.027474
  31 H :    0.027029
  32 H :    0.023050
  33 H :    0.017741

  Mayer bond orders larger than 0.100000
B(  0-S ,  1-C ) :   1.1314 B(  0-S ,  4-C ) :   1.1572 B(  1-C ,  2-C ) :   1.5977
B(  1-C ,  4-C ) :   0.1051 B(  1-C , 32-H ) :   0.9779 B(  2-C ,  3-C ) :   1.2346
B(  2-C ,  6-C ) :   1.0178 B(  3-C ,  4-C ) :   1.5832 B(  3-C ,  5-H ) :   0.9777
B(  4-C , 20-C ) :   1.0166 B(  6-C ,  7-H ) :   0.9322 B(  6-C ,  8-H ) :   0.9502
B(  6-C ,  9-C ) :   1.0654 B(  9-C , 10-H ) :   0.9436 B(  9-C , 11-H ) :   0.9631
B(  9-C , 12-C ) :   1.0677 B( 12-C , 13-H ) :   0.9777 B( 12-C , 14-H ) :   0.9755
B( 12-C , 15-H ) :   0.9724 B( 16-S , 17-C ) :   1.1559 B( 16-S , 20-C ) :   1.1362
B( 17-C , 18-C ) :   1.6230 B( 17-C , 33-H ) :   0.9683 B( 18-C , 19-C ) :   1.2223
B( 18-C , 21-H ) :   0.9858 B( 19-C , 20-C ) :   1.6244 B( 19-C , 22-C ) :   1.0120
B( 22-C , 23-H ) :   0.9347 B( 22-C , 24-H ) :   0.9307 B( 22-C , 25-C ) :   1.0624
B( 25-C , 26-H ) :   0.9554 B( 25-C , 27-H ) :   0.9552 B( 25-C , 28-C ) :   1.0540
B( 28-C , 29-H ) :   0.9784 B( 28-C , 30-H ) :   0.9713 B( 28-C , 31-H ) :   0.9783

Dispersion correction           -0.013521333
FINAL SINGLE POINT ENERGY     -1339.858285995751

DIPOLE MOMENT
-------------
                                X             Y             Z
Electronic contribution:     24.46581      -3.96767      15.76914
Nuclear contribution   :    -24.95393       4.16961     -16.21301
                        -----------------------------------------
Total Dipole Moment    :     -0.48812       0.20195      -0.44387
                        -----------------------------------------
Magnitude (a.u.)       :      0.68998
Magnitude (Debye)      :      1.75378

Rotational constants in cm-1:     0.016004     0.008178     0.006305
Rotational constants in MHz :   479.782893   245.175674   189.011492

                             ****ORCA TERMINATED NORMALLY****
TOTAL RUN TIME: 0 days 0 hours 0 minutes 31 seconds 738 msec
