                         Program Version 4.2.1 -  RELEASE  -
|  1> ! wB97X-D3 SP def2-SVP
|  2> %pal
|  3> nprocs 16
|  4> end
|  5>
|  6> * xyz 0 1
|  7> S 	 -97.6156 	 54.2983 	 114.592
|  8> C 	 -96.0668 	 54.9496 	 115.18
|  9> C 	 -95.8969 	 54.6674 	 116.552
| 10> C 	 -97.1841 	 54.3313 	 117.15
| 11> C 	 -98.1911 	 54.1163 	 116.2
| 12> H 	 -97.3236 	 54.2298 	 118.21
| 13> C 	 -94.5356 	 54.9128 	 117.251
| 14> H 	 -93.7001 	 54.7178 	 116.544
| 15> H 	 -94.383 	 54.1442 	 118.018
| 16> C 	 -94.3109 	 56.3167 	 117.806
| 17> H 	 -95.1096 	 56.4279 	 118.449
| 18> H 	 -93.4173 	 56.2436 	 118.353
| 19> C 	 -94.3012 	 57.566 	 116.778
| 20> H 	 -94.4493 	 58.551 	 117.222
| 21> H 	 -93.4999 	 57.6424 	 116.116
| 22> H 	 -95.1321 	 57.527 	 116.16
| 23> S 	 -100.245 	 52.4125 	 115.337
| 24> C 	 -101.62 	 52.1419 	 116.469
| 25> C 	 -101.513 	 52.9671 	 117.568
| 26> C 	 -100.366 	 53.8848 	 117.54
| 27> C 	 -99.5225 	 53.6328 	 116.476
| 28> H 	 -102.498 	 53.1162 	 118.132
| 29> C 	 -100.235 	 54.9629 	 118.602
| 30> H 	 -99.2644 	 54.7357 	 119.036
| 31> H 	 -100.983 	 54.8247 	 119.409
| 32> C 	 -100.174 	 56.3054 	 117.966
| 33> H 	 -101.028 	 56.5431 	 117.396
| 34> H 	 -99.3445 	 56.1831 	 117.281
| 35> C 	 -99.8806 	 57.4645 	 118.933
| 36> H 	 -100.82 	 57.7535 	 119.453
| 37> H 	 -99.5043 	 58.3301 	 118.412
| 38> H 	 -99.1725 	 57.1678 	 119.686
| 39> H 	 -95.3041 	 55.3227 	 114.449
| 40> H 	 -102.508 	 51.5128 	 116.341
| 41> *
| 42>
| 43>                          ****END OF INPUT****

CARTESIAN COORDINATES (ANGSTROEM)
---------------------------------
  S    -97.615600   54.298300  114.592000
  C    -96.066800   54.949600  115.180000
  C    -95.896900   54.667400  116.552000
  C    -97.184100   54.331300  117.150000
  C    -98.191100   54.116300  116.200000
  H    -97.323600   54.229800  118.210000
  C    -94.535600   54.912800  117.251000
  H    -93.700100   54.717800  116.544000
  H    -94.383000   54.144200  118.018000
  C    -94.310900   56.316700  117.806000
  H    -95.109600   56.427900  118.449000
  H    -93.417300   56.243600  118.353000
  C    -94.301200   57.566000  116.778000
  H    -94.449300   58.551000  117.222000
  H    -93.499900   57.642400  116.116000
  H    -95.132100   57.527000  116.160000
  S    -100.245000   52.412500  115.337000
  C    -101.620000   52.141900  116.469000
  C    -101.513000   52.967100  117.568000
  C    -100.366000   53.884800  117.540000
  C    -99.522500   53.632800  116.476000
  H    -102.498000   53.116200  118.132000
  C    -100.235000   54.962900  118.602000
  H    -99.264400   54.735700  119.036000
  H    -100.983000   54.824700  119.409000
  C    -100.174000   56.305400  117.966000
  H    -101.028000   56.543100  117.396000
  H    -99.344500   56.183100  117.281000
  C    -99.880600   57.464500  118.933000
  H    -100.820000   57.753500  119.453000
  H    -99.504300   58.330100  118.412000
  H    -99.172500   57.167800  119.686000
  H    -95.304100   55.322700  114.449000
  H    -102.508000   51.512800  116.341000

 Total Charge           Charge          ....    0
 Multiplicity           Mult            ....    1
 Number of Electrons    NEL             ....  134
 Basis Dimension        Dim             ....  322

ORBITAL ENERGIES
----------------

  NO   OCC          E(Eh)            E(eV)
   0   2.0000     -88.969033     -2420.9705
   1   2.0000     -88.965842     -2420.8836
   2   2.0000     -10.332919      -281.1730
   3   2.0000     -10.331783      -281.1421
   4   2.0000     -10.324302      -280.9385
   5   2.0000     -10.323786      -280.9245
   6   2.0000     -10.314043      -280.6594
   7   2.0000     -10.306884      -280.4646
   8   2.0000     -10.303244      -280.3655
   9   2.0000     -10.300566      -280.2926
  10   2.0000     -10.300456      -280.2896
  11   2.0000     -10.291221      -280.0384
  12   2.0000     -10.285557      -279.8842
  13   2.0000     -10.274116      -279.5729
  14   2.0000     -10.273630      -279.5597
  15   2.0000     -10.272766      -279.5362
  16   2.0000      -8.083938      -219.9751
  17   2.0000      -8.078849      -219.8367
  18   2.0000      -6.042396      -164.4219
  19   2.0000      -6.038511      -164.3162
  20   2.0000      -6.037721      -164.2948
  21   2.0000      -6.034652      -164.2112
  22   2.0000      -6.033745      -164.1865
  23   2.0000      -6.029182      -164.0624
  24   2.0000      -1.003380       -27.3034
  25   2.0000      -0.974092       -26.5064
  26   2.0000      -0.914427       -24.8828
  27   2.0000      -0.909572       -24.7507
  28   2.0000      -0.865552       -23.5529
  29   2.0000      -0.848379       -23.0856
  30   2.0000      -0.838833       -22.8258
  31   2.0000      -0.811483       -22.0816
  32   2.0000      -0.790776       -21.5181
  33   2.0000      -0.774421       -21.0731
  34   2.0000      -0.716060       -19.4850
  35   2.0000      -0.704939       -19.1824
  36   2.0000      -0.688460       -18.7339
  37   2.0000      -0.657568       -17.8933
  38   2.0000      -0.637023       -17.3343
  39   2.0000      -0.621531       -16.9127
  40   2.0000      -0.588856       -16.0236
  41   2.0000      -0.570157       -15.5148
  42   2.0000      -0.567476       -15.4418
  43   2.0000      -0.548357       -14.9216
  44   2.0000      -0.534433       -14.5427
  45   2.0000      -0.524233       -14.2651
  46   2.0000      -0.514926       -14.0118
  47   2.0000      -0.510390       -13.8884
  48   2.0000      -0.500394       -13.6164
  49   2.0000      -0.494813       -13.4645
  50   2.0000      -0.493843       -13.4382
  51   2.0000      -0.488300       -13.2873
  52   2.0000      -0.475651       -12.9431
  53   2.0000      -0.462197       -12.5770
  54   2.0000      -0.459115       -12.4931
  55   2.0000      -0.449117       -12.2211
  56   2.0000      -0.443868       -12.0783
  57   2.0000      -0.440588       -11.9890
  58   2.0000      -0.436089       -11.8666
  59   2.0000      -0.429273       -11.6811
  60   2.0000      -0.417322       -11.3559
  61   2.0000      -0.414852       -11.2887
  62   2.0000      -0.411654       -11.2017
  63   2.0000      -0.353516        -9.6197
  64   2.0000      -0.334316        -9.0972
  65   2.0000      -0.326951        -8.8968
  66   2.0000      -0.284095        -7.7306
  67   0.0000       0.018009         0.4901
  68   0.0000       0.065657         1.7866
  69   0.0000       0.096211         2.6180
  70   0.0000       0.110364         3.0032
  71   0.0000       0.127137         3.4596

MULLIKEN ATOMIC CHARGES
-----------------------
   0 S :    0.109019
   1 C :   -0.144953
   2 C :   -0.095665
   3 C :    0.016696
   4 C :   -0.138060
   5 H :    0.011154
   6 C :    0.026133
   7 H :    0.027871
   8 H :    0.034137
   9 C :   -0.003487
  10 H :    0.007856
  11 H :    0.025778
  12 C :   -0.023952
  13 H :    0.029139
  14 H :    0.016261
  15 H :    0.009640
  16 S :    0.080746
  17 C :   -0.100609
  18 C :   -0.055600
  19 C :   -0.088673
  20 C :   -0.121266
  21 H :    0.053214
  22 C :    0.104212
  23 H :    0.011054
  24 H :    0.022590
  25 C :   -0.077110
  26 H :    0.022824
  27 H :    0.037415
  28 C :   -0.020034
  29 H :    0.030863
  30 H :    0.034078
  31 H :    0.017269
  32 H :    0.074549
  33 H :    0.066909
Sum of atomic charges:    0.0000000

LOEWDIN ATOMIC CHARGES
----------------------
   0 S :    0.408646
   1 C :   -0.195039
   2 C :   -0.054125
   3 C :   -0.063390
   4 C :   -0.202612
   5 H :    0.026847
   6 C :   -0.033353
   7 H :    0.031970
   8 H :    0.034352
   9 C :   -0.021089
  10 H :    0.014298
  11 H :    0.020035
  12 C :   -0.061113
  13 H :    0.032134
  14 H :    0.015590
  15 H :    0.017329
  16 S :    0.346459
  17 C :   -0.171440
  18 C :   -0.087662
  19 C :   -0.051484
  20 C :   -0.176705
  21 H :    0.046663
  22 C :   -0.028578
  23 H :    0.028276
  24 H :    0.029154
  25 C :   -0.038781
  26 H :    0.019957
  27 H :    0.028125
  28 C :   -0.060811
  29 H :    0.027518
  30 H :    0.025869
  31 H :    0.019445
  32 H :    0.035863
  33 H :    0.037653

  Mayer bond orders larger than 0.100000
B(  0-S ,  1-C ) :   1.1375 B(  0-S ,  4-C ) :   1.1563 B(  1-C ,  2-C ) :   1.5897
B(  1-C , 32-H ) :   0.9641 B(  2-C ,  3-C ) :   1.2475 B(  2-C ,  6-C ) :   1.0265
B(  3-C ,  4-C ) :   1.5324 B(  3-C ,  5-H ) :   0.9936 B(  4-C , 20-C ) :   1.0799
B(  6-C ,  7-H ) :   0.9446 B(  6-C ,  8-H ) :   0.9403 B(  6-C ,  9-C ) :   1.0691
B(  9-C , 10-H ) :   0.9571 B(  9-C , 11-H ) :   0.9580 B(  9-C , 12-C ) :   1.0624
B( 12-C , 13-H ) :   0.9758 B( 12-C , 14-H ) :   0.9799 B( 12-C , 15-H ) :   0.9709
B( 16-S , 17-C ) :   1.1215 B( 16-S , 20-C ) :   1.0901 B( 17-C , 18-C ) :   1.6809
B( 17-C , 33-H ) :   0.9605 B( 18-C , 19-C ) :   1.2102 B( 18-C , 21-H ) :   0.9634
B( 19-C , 20-C ) :   1.6354 B( 19-C , 22-C ) :   1.0361 B( 22-C , 23-H ) :   0.9197
B( 22-C , 24-H ) :   0.9357 B( 22-C , 25-C ) :   1.0642 B( 25-C , 26-H ) :   0.9566
B( 25-C , 27-H ) :   0.9513 B( 25-C , 28-C ) :   1.0895 B( 28-C , 29-H ) :   0.9747
B( 28-C , 30-H ) :   0.9741 B( 28-C , 31-H ) :   0.9730

Dispersion correction           -0.014812868
FINAL SINGLE POINT ENERGY     -1339.855580666620

DIPOLE MOMENT
-------------
                                X             Y             Z
Electronic contribution:    -11.04323     -21.28433     -17.43059
Nuclear contribution   :     11.22235      21.65265      17.92037
                        -----------------------------------------
Total Dipole Moment    :      0.17912       0.36832       0.48978
                        -----------------------------------------
Magnitude (a.u.)       :      0.63845
Magnitude (Debye)      :      1.62282

Rotational constants in cm-1:     0.019977     0.009043     0.006971
Rotational constants in MHz :   598.910337   271.091739   208.990385

                             ****ORCA TERMINATED NORMALLY****
TOTAL RUN TIME: 0 days 0 hours 0 minutes 36 seconds 373 msec
