                         Program Version 4.2.1 -  RELEASE  -
|  1> ! wB97X-D3 SP def2-SVP
|  2> %pal
|  3> nprocs 16
|  4> end
|  5>
|  6> * xyz 0 1
|  7> S 	 -13.7643 	 35.7977 	 37.7253
|  8> C 	 -13.7384 	 37.3633 	 38.4629
|  9> C 	 -14.7838 	 38.0853 	 37.8849
| 10> C 	 -15.5179 	 37.3925 	 36.9064
| 11> C 	 -15.1081 	 36.0848 	 36.6151
| 12> H 	 -16.4659 	 37.8056 	 36.5129
| 13> C 	 -15.1075 	 39.5309 	 38.0379
| 14> H 	 -15.545 	 39.8761 	 37.0987
| 15> H 	 -14.1961 	 40.0914 	 38.136
| 16> C 	 -16.0943 	 39.8718 	 39.1134
| 17> H 	 -15.573 	 39.5674 	 39.9777
| 18> H 	 -16.3127 	 40.9326 	 39.0689
| 19> C 	 -17.4924 	 39.2808 	 39.1259
| 20> H 	 -18.1148 	 39.6272 	 38.2739
| 21> H 	 -17.5044 	 38.2392 	 39.0606
| 22> H 	 -17.9505 	 39.5281 	 40.1072
| 23> S 	 -15.4113 	 33.4199 	 35.9745
| 24> C 	 -16.5287 	 33.0211 	 34.7239
| 25> C 	 -17.0822 	 34.1409 	 34.1525
| 26> C 	 -16.6206 	 35.3965 	 34.7132
| 27> C 	 -15.6962 	 35.1576 	 35.7311
| 28> H 	 -17.8441 	 34.0105 	 33.376
| 29> C 	 -17.2081 	 36.7118 	 34.2468
| 30> H 	 -17.8351 	 37.0721 	 34.9993
| 31> H 	 -17.9244 	 36.4128 	 33.5018
| 32> C 	 -16.2596 	 37.8211 	 33.7185
| 33> H 	 -15.7004 	 37.4647 	 32.8685
| 34> H 	 -15.5369 	 38.104 	 34.5262
| 35> C 	 -17.0493 	 39.0985 	 33.4321
| 36> H 	 -16.4495 	 39.8913 	 32.8806
| 37> H 	 -17.4979 	 39.5579 	 34.3263
| 38> H 	 -17.9457 	 38.9981 	 32.783
| 39> H 	 -12.9918 	 37.8414 	 39.0173
| 40> H 	 -16.9301 	 32.0847 	 34.3196
| 41> *
| 42>
| 43>                          ****END OF INPUT****

CARTESIAN COORDINATES (ANGSTROEM)
---------------------------------
  S    -13.764300   35.797700   37.725300
  C    -13.738400   37.363300   38.462900
  C    -14.783800   38.085300   37.884900
  C    -15.517900   37.392500   36.906400
  C    -15.108100   36.084800   36.615100
  H    -16.465900   37.805600   36.512900
  C    -15.107500   39.530900   38.037900
  H    -15.545000   39.876100   37.098700
  H    -14.196100   40.091400   38.136000
  C    -16.094300   39.871800   39.113400
  H    -15.573000   39.567400   39.977700
  H    -16.312700   40.932600   39.068900
  C    -17.492400   39.280800   39.125900
  H    -18.114800   39.627200   38.273900
  H    -17.504400   38.239200   39.060600
  H    -17.950500   39.528100   40.107200
  S    -15.411300   33.419900   35.974500
  C    -16.528700   33.021100   34.723900
  C    -17.082200   34.140900   34.152500
  C    -16.620600   35.396500   34.713200
  C    -15.696200   35.157600   35.731100
  H    -17.844100   34.010500   33.376000
  C    -17.208100   36.711800   34.246800
  H    -17.835100   37.072100   34.999300
  H    -17.924400   36.412800   33.501800
  C    -16.259600   37.821100   33.718500
  H    -15.700400   37.464700   32.868500
  H    -15.536900   38.104000   34.526200
  C    -17.049300   39.098500   33.432100
  H    -16.449500   39.891300   32.880600
  H    -17.497900   39.557900   34.326300
  H    -17.945700   38.998100   32.783000
  H    -12.991800   37.841400   39.017300
  H    -16.930100   32.084700   34.319600

 Total Charge           Charge          ....    0
 Multiplicity           Mult            ....    1
 Number of Electrons    NEL             ....  134
 Basis Dimension        Dim             ....  322

ORBITAL ENERGIES
----------------

  NO   OCC          E(Eh)            E(eV)
   0   2.0000     -88.972369     -2421.0612
   1   2.0000     -88.967034     -2420.9161
   2   2.0000     -10.333761      -281.1959
   3   2.0000     -10.331738      -281.1409
   4   2.0000     -10.318140      -280.7709
   5   2.0000     -10.312747      -280.6241
   6   2.0000     -10.309244      -280.5288
   7   2.0000     -10.295735      -280.1612
   8   2.0000     -10.295351      -280.1508
   9   2.0000     -10.291270      -280.0397
  10   2.0000     -10.291208      -280.0380
  11   2.0000     -10.291179      -280.0372
  12   2.0000     -10.287094      -279.9260
  13   2.0000     -10.282716      -279.8069
  14   2.0000     -10.276379      -279.6345
  15   2.0000     -10.274636      -279.5871
  16   2.0000      -8.086794      -220.0529
  17   2.0000      -8.081387      -219.9057
  18   2.0000      -6.045539      -164.5075
  19   2.0000      -6.041356      -164.3936
  20   2.0000      -6.040004      -164.3569
  21   2.0000      -6.037301      -164.2833
  22   2.0000      -6.035751      -164.2411
  23   2.0000      -6.032205      -164.1446
  24   2.0000      -1.010753       -27.5040
  25   2.0000      -0.987507       -26.8714
  26   2.0000      -0.919646       -25.0248
  27   2.0000      -0.912066       -24.8186
  28   2.0000      -0.878020       -23.8922
  29   2.0000      -0.854573       -23.2541
  30   2.0000      -0.846369       -23.0309
  31   2.0000      -0.816889       -22.2287
  32   2.0000      -0.787433       -21.4271
  33   2.0000      -0.776851       -21.1392
  34   2.0000      -0.717903       -19.5351
  35   2.0000      -0.701417       -19.0865
  36   2.0000      -0.698626       -19.0106
  37   2.0000      -0.663283       -18.0489
  38   2.0000      -0.635788       -17.3007
  39   2.0000      -0.622687       -16.9442
  40   2.0000      -0.594155       -16.1678
  41   2.0000      -0.583765       -15.8850
  42   2.0000      -0.565562       -15.3897
  43   2.0000      -0.554583       -15.0910
  44   2.0000      -0.543733       -14.7957
  45   2.0000      -0.526746       -14.3335
  46   2.0000      -0.519851       -14.1459
  47   2.0000      -0.511825       -13.9275
  48   2.0000      -0.510204       -13.8834
  49   2.0000      -0.505754       -13.7623
  50   2.0000      -0.494853       -13.4656
  51   2.0000      -0.478016       -13.0075
  52   2.0000      -0.476088       -12.9550
  53   2.0000      -0.468557       -12.7501
  54   2.0000      -0.459580       -12.5058
  55   2.0000      -0.452111       -12.3026
  56   2.0000      -0.443399       -12.0655
  57   2.0000      -0.441669       -12.0184
  58   2.0000      -0.432012       -11.7556
  59   2.0000      -0.426075       -11.5941
  60   2.0000      -0.418824       -11.3968
  61   2.0000      -0.410964       -11.1829
  62   2.0000      -0.405272       -11.0280
  63   2.0000      -0.368582       -10.0296
  64   2.0000      -0.335534        -9.1303
  65   2.0000      -0.326412        -8.8821
  66   2.0000      -0.279960        -7.6181
  67   0.0000       0.012828         0.3491
  68   0.0000       0.084920         2.3108
  69   0.0000       0.099472         2.7068
  70   0.0000       0.112548         3.0626
  71   0.0000       0.128316         3.4916

MULLIKEN ATOMIC CHARGES
-----------------------
   0 S :    0.100895
   1 C :   -0.075566
   2 C :   -0.115968
   3 C :   -0.037679
   4 C :   -0.110284
   5 H :    0.015232
   6 C :    0.078934
   7 H :    0.007458
   8 H :    0.018027
   9 C :   -0.040480
  10 H :    0.011099
  11 H :    0.030308
  12 C :   -0.055243
  13 H :    0.028579
  14 H :    0.023281
  15 H :    0.041536
  16 S :    0.123357
  17 C :   -0.068171
  18 C :   -0.063601
  19 C :   -0.067526
  20 C :   -0.117383
  21 H :    0.022269
  22 C :    0.083679
  23 H :    0.019337
  24 H :    0.002891
  25 C :   -0.047631
  26 H :    0.035639
  27 H :    0.055124
  28 C :   -0.082766
  29 H :    0.046616
  30 H :    0.025706
  31 H :    0.024165
  32 H :    0.031610
  33 H :    0.056556
Sum of atomic charges:    0.0000000

LOEWDIN ATOMIC CHARGES
----------------------
   0 S :    0.411110
   1 C :   -0.202891
   2 C :   -0.066795
   3 C :   -0.076568
   4 C :   -0.183925
   5 H :    0.031297
   6 C :   -0.032068
   7 H :    0.025912
   8 H :    0.029669
   9 C :   -0.037958
  10 H :    0.017853
  11 H :    0.026928
  12 C :   -0.064253
  13 H :    0.025437
  14 H :    0.013789
  15 H :    0.035702
  16 S :    0.410331
  17 C :   -0.200277
  18 C :   -0.075637
  19 C :   -0.045843
  20 C :   -0.188117
  21 H :    0.032523
  22 C :   -0.030784
  23 H :    0.023504
  24 H :    0.030721
  25 C :   -0.037487
  26 H :    0.026182
  27 H :    0.034191
  28 C :   -0.078637
  29 H :    0.034318
  30 H :    0.022729
  31 H :    0.023151
  32 H :    0.024348
  33 H :    0.041544

  Mayer bond orders larger than 0.100000
B(  0-S ,  1-C ) :   1.1393 B(  0-S ,  4-C ) :   1.1478 B(  1-C ,  2-C ) :   1.5602
B(  1-C ,  4-C ) :   0.1071 B(  1-C , 32-H ) :   0.9758 B(  2-C ,  3-C ) :   1.3124
B(  2-C ,  6-C ) :   1.0170 B(  3-C ,  4-C ) :   1.4994 B(  3-C ,  5-H ) :   0.9733
B(  4-C , 20-C ) :   1.1544 B(  6-C ,  7-H ) :   0.9396 B(  6-C ,  8-H ) :   0.9363
B(  6-C ,  9-C ) :   1.0808 B(  9-C , 10-H ) :   0.9517 B(  9-C , 11-H ) :   0.9542
B(  9-C , 12-C ) :   1.0923 B( 12-C , 13-H ) :   0.9723 B( 12-C , 14-H ) :   0.9701
B( 12-C , 15-H ) :   0.9707 B( 16-S , 17-C ) :   1.1419 B( 16-S , 20-C ) :   1.1126
B( 17-C , 18-C ) :   1.6420 B( 17-C , 33-H ) :   0.9573 B( 18-C , 19-C ) :   1.2462
B( 18-C , 21-H ) :   0.9809 B( 19-C , 20-C ) :   1.5722 B( 19-C , 22-C ) :   1.0369
B( 22-C , 23-H ) :   0.9238 B( 22-C , 24-H ) :   0.9187 B( 22-C , 25-C ) :   1.0559
B( 25-C , 26-H ) :   0.9543 B( 25-C , 27-H ) :   0.9493 B( 25-C , 28-C ) :   1.0750
B( 28-C , 29-H ) :   0.9740 B( 28-C , 30-H ) :   0.9724 B( 28-C , 31-H ) :   0.9733

Dispersion correction           -0.015119544
FINAL SINGLE POINT ENERGY     -1339.870011121870

DIPOLE MOMENT
-------------
                                X             Y             Z
Electronic contribution:     14.41059     -27.53256       3.26518
Nuclear contribution   :    -14.91682      28.04072      -3.55662
                        -----------------------------------------
Total Dipole Moment    :     -0.50624       0.50816      -0.29144
                        -----------------------------------------
Magnitude (a.u.)       :      0.77423
Magnitude (Debye)      :      1.96794

Rotational constants in cm-1:     0.017478     0.010250     0.007487
Rotational constants in MHz :   523.969013   307.300822   224.455669

                             ****ORCA TERMINATED NORMALLY****
TOTAL RUN TIME: 0 days 0 hours 0 minutes 34 seconds 85 msec
