                         Program Version 4.2.1 -  RELEASE  -
|  1> ! wB97X-D3 SP def2-SVP
|  2> %pal
|  3> nprocs 16
|  4> end
|  5>
|  6> * xyz 0 1
|  7> S 	 -11.6919 	 65.1574 	 52.8528
|  8> C 	 -11.9565 	 63.6663 	 52.0401
|  9> C 	 -11.0169 	 63.2875 	 51.1587
| 10> C 	 -10.1744 	 64.4059 	 50.8975
| 11> C 	 -10.3358 	 65.4672 	 51.7881
| 12> H 	 -9.41083 	 64.4661 	 50.2079
| 13> C 	 -10.8975 	 61.9961 	 50.394
| 14> H 	 -11.4201 	 61.2241 	 50.8825
| 15> H 	 -9.87804 	 61.6227 	 50.3489
| 16> C 	 -11.3553 	 62.1693 	 48.9165
| 17> H 	 -12.4203 	 62.3046 	 48.9957
| 18> H 	 -10.9146 	 63.1113 	 48.5089
| 19> C 	 -11.0986 	 61.0548 	 48.0049
| 20> H 	 -11.5873 	 61.081 	 47.0076
| 21> H 	 -10.0691 	 60.938 	 47.7776
| 22> H 	 -11.3123 	 60.1187 	 48.5246
| 23> S 	 -9.52168 	 67.6593 	 53.2808
| 24> C 	 -8.59938 	 68.9153 	 52.5875
| 25> C 	 -8.36106 	 68.6843 	 51.2775
| 26> C 	 -9.06407 	 67.5061 	 50.7612
| 27> C 	 -9.69354 	 66.8216 	 51.7476
| 28> H 	 -7.61317 	 69.3772 	 50.8928
| 29> C 	 -8.89601 	 67.0424 	 49.289
| 30> H 	 -9.86929 	 66.6195 	 49.0635
| 31> H 	 -8.29002 	 66.1962 	 49.2736
| 32> C 	 -8.64147 	 68.1676 	 48.3122
| 33> H 	 -7.66482 	 68.6403 	 48.5746
| 34> H 	 -9.37132 	 69.0058 	 48.4207
| 35> C 	 -8.78401 	 67.724 	 46.8645
| 36> H 	 -8.05096 	 66.9366 	 46.7988
| 37> H 	 -8.59646 	 68.5206 	 46.1673
| 38> H 	 -9.71834 	 67.2036 	 46.6899
| 39> H 	 -12.7967 	 62.9812 	 52.2161
| 40> H 	 -7.99209 	 69.6341 	 53.1293
| 41> *
| 42>
| 43>                          ****END OF INPUT****

CARTESIAN COORDINATES (ANGSTROEM)
---------------------------------
  S    -11.691900   65.157400   52.852800
  C    -11.956500   63.666300   52.040100
  C    -11.016900   63.287500   51.158700
  C    -10.174400   64.405900   50.897500
  C    -10.335800   65.467200   51.788100
  H     -9.410830   64.466100   50.207900
  C    -10.897500   61.996100   50.394000
  H    -11.420100   61.224100   50.882500
  H     -9.878040   61.622700   50.348900
  C    -11.355300   62.169300   48.916500
  H    -12.420300   62.304600   48.995700
  H    -10.914600   63.111300   48.508900
  C    -11.098600   61.054800   48.004900
  H    -11.587300   61.081000   47.007600
  H    -10.069100   60.938000   47.777600
  H    -11.312300   60.118700   48.524600
  S     -9.521680   67.659300   53.280800
  C     -8.599380   68.915300   52.587500
  C     -8.361060   68.684300   51.277500
  C     -9.064070   67.506100   50.761200
  C     -9.693540   66.821600   51.747600
  H     -7.613170   69.377200   50.892800
  C     -8.896010   67.042400   49.289000
  H     -9.869290   66.619500   49.063500
  H     -8.290020   66.196200   49.273600
  C     -8.641470   68.167600   48.312200
  H     -7.664820   68.640300   48.574600
  H     -9.371320   69.005800   48.420700
  C     -8.784010   67.724000   46.864500
  H     -8.050960   66.936600   46.798800
  H     -8.596460   68.520600   46.167300
  H     -9.718340   67.203600   46.689900
  H    -12.796700   62.981200   52.216100
  H     -7.992090   69.634100   53.129300

 Total Charge           Charge          ....    0
 Multiplicity           Mult            ....    1
 Number of Electrons    NEL             ....  134
 Basis Dimension        Dim             ....  322

ORBITAL ENERGIES
----------------

  NO   OCC          E(Eh)            E(eV)
   0   2.0000     -88.968320     -2420.9511
   1   2.0000     -88.959309     -2420.7059
   2   2.0000     -10.333135      -281.1789
   3   2.0000     -10.327129      -281.0155
   4   2.0000     -10.309756      -280.5427
   5   2.0000     -10.307940      -280.4933
   6   2.0000     -10.305817      -280.4355
   7   2.0000     -10.297489      -280.2089
   8   2.0000     -10.292559      -280.0748
   9   2.0000     -10.291407      -280.0434
  10   2.0000     -10.290507      -280.0189
  11   2.0000     -10.289514      -279.9919
  12   2.0000     -10.288767      -279.9716
  13   2.0000     -10.285568      -279.8845
  14   2.0000     -10.275248      -279.6037
  15   2.0000     -10.274839      -279.5926
  16   2.0000      -8.083622      -219.9665
  17   2.0000      -8.075225      -219.7380
  18   2.0000      -6.042135      -164.4149
  19   2.0000      -6.038192      -164.3076
  20   2.0000      -6.034202      -164.1990
  21   2.0000      -6.033800      -164.1881
  22   2.0000      -6.029625      -164.0744
  23   2.0000      -6.025799      -163.9703
  24   2.0000      -1.011639       -27.5281
  25   2.0000      -0.992500       -27.0073
  26   2.0000      -0.919842       -25.0302
  27   2.0000      -0.914286       -24.8790
  28   2.0000      -0.874316       -23.7913
  29   2.0000      -0.859223       -23.3807
  30   2.0000      -0.845021       -22.9942
  31   2.0000      -0.820671       -22.3316
  32   2.0000      -0.788206       -21.4482
  33   2.0000      -0.779045       -21.1989
  34   2.0000      -0.707756       -19.2590
  35   2.0000      -0.702761       -19.1231
  36   2.0000      -0.696532       -18.9536
  37   2.0000      -0.655559       -17.8387
  38   2.0000      -0.638015       -17.3613
  39   2.0000      -0.629701       -17.1350
  40   2.0000      -0.595883       -16.2148
  41   2.0000      -0.575942       -15.6722
  42   2.0000      -0.568663       -15.4741
  43   2.0000      -0.565942       -15.4001
  44   2.0000      -0.539415       -14.6782
  45   2.0000      -0.531864       -14.4728
  46   2.0000      -0.521876       -14.2010
  47   2.0000      -0.509443       -13.8626
  48   2.0000      -0.508571       -13.8389
  49   2.0000      -0.496449       -13.5091
  50   2.0000      -0.494458       -13.4549
  51   2.0000      -0.486261       -13.2318
  52   2.0000      -0.476489       -12.9659
  53   2.0000      -0.465960       -12.6794
  54   2.0000      -0.461553       -12.5595
  55   2.0000      -0.454613       -12.3707
  56   2.0000      -0.448274       -12.1982
  57   2.0000      -0.442280       -12.0351
  58   2.0000      -0.432244       -11.7620
  59   2.0000      -0.429926       -11.6989
  60   2.0000      -0.418570       -11.3899
  61   2.0000      -0.416710       -11.3393
  62   2.0000      -0.406134       -11.0515
  63   2.0000      -0.359751        -9.7893
  64   2.0000      -0.334050        -9.0900
  65   2.0000      -0.326871        -8.8946
  66   2.0000      -0.289684        -7.8827
  67   0.0000       0.032737         0.8908
  68   0.0000       0.080088         2.1793
  69   0.0000       0.106495         2.8979
  70   0.0000       0.122943         3.3454
  71   0.0000       0.133793         3.6407

MULLIKEN ATOMIC CHARGES
-----------------------
   0 S :    0.121899
   1 C :   -0.123146
   2 C :   -0.062014
   3 C :    0.005703
   4 C :   -0.112785
   5 H :   -0.033481
   6 C :    0.101402
   7 H :    0.004524
   8 H :    0.022167
   9 C :   -0.091764
  10 H :    0.023089
  11 H :    0.031903
  12 C :   -0.010816
  13 H :    0.045142
  14 H :    0.011482
  15 H :    0.017217
  16 S :    0.082468
  17 C :   -0.079199
  18 C :   -0.069319
  19 C :   -0.071252
  20 C :   -0.110745
  21 H :    0.025107
  22 C :    0.065244
  23 H :    0.019653
  24 H :    0.036223
  25 C :   -0.105059
  26 H :    0.035573
  27 H :    0.036426
  28 C :    0.003879
  29 H :    0.012192
  30 H :    0.040955
  31 H :    0.028199
  32 H :    0.042015
  33 H :    0.057121
Sum of atomic charges:   -0.0000000

LOEWDIN ATOMIC CHARGES
----------------------
   0 S :    0.415037
   1 C :   -0.199844
   2 C :   -0.063391
   3 C :   -0.051880
   4 C :   -0.184694
   5 H :    0.012356
   6 C :   -0.022159
   7 H :    0.021901
   8 H :    0.030924
   9 C :   -0.042167
  10 H :    0.022997
  11 H :    0.026510
  12 C :   -0.070243
  13 H :    0.035259
  14 H :    0.018475
  15 H :    0.025961
  16 S :    0.401204
  17 C :   -0.199712
  18 C :   -0.079752
  19 C :   -0.054570
  20 C :   -0.191296
  21 H :    0.035832
  22 C :   -0.029660
  23 H :    0.033033
  24 H :    0.020625
  25 C :   -0.045598
  26 H :    0.024333
  27 H :    0.029478
  28 C :   -0.058295
  29 H :    0.021818
  30 H :    0.026585
  31 H :    0.026159
  32 H :    0.031026
  33 H :    0.033747

  Mayer bond orders larger than 0.100000
B(  0-S ,  1-C ) :   1.1432 B(  0-S ,  4-C ) :   1.1401 B(  1-C ,  2-C ) :   1.6523
B(  1-C , 32-H ) :   0.9510 B(  2-C ,  3-C ) :   1.2063 B(  2-C ,  6-C ) :   1.0415
B(  3-C ,  4-C ) :   1.6012 B(  3-C ,  5-H ) :   1.0022 B(  4-C , 20-C ) :   1.0231
B(  6-C ,  7-H ) :   0.9294 B(  6-C ,  8-H ) :   0.9373 B(  6-C ,  9-C ) :   1.0517
B(  9-C , 10-H ) :   0.9527 B(  9-C , 11-H ) :   0.9582 B(  9-C , 12-C ) :   1.0959
B( 12-C , 13-H ) :   0.9696 B( 12-C , 14-H ) :   0.9675 B( 12-C , 15-H ) :   0.9652
B( 16-S , 17-C ) :   1.1473 B( 16-S , 20-C ) :   1.1240 B( 17-C , 18-C ) :   1.6753
B( 17-C , 33-H ) :   0.9580 B( 18-C , 19-C ) :   1.1805 B( 18-C , 21-H ) :   0.9881
B( 19-C , 20-C ) :   1.6673 B( 19-C , 22-C ) :   1.0191 B( 22-C , 23-H ) :   0.9307
B( 22-C , 24-H ) :   0.9317 B( 22-C , 25-C ) :   1.0640 B( 25-C , 26-H ) :   0.9459
B( 25-C , 27-H ) :   0.9589 B( 25-C , 28-C ) :   1.0802 B( 28-C , 29-H ) :   0.9721
B( 28-C , 30-H ) :   0.9723 B( 28-C , 31-H ) :   0.9727

Dispersion correction           -0.013473472
FINAL SINGLE POINT ENERGY     -1339.868435250193

DIPOLE MOMENT
-------------
                                X             Y             Z
Electronic contribution:     -4.06780      11.40199      30.34692
Nuclear contribution   :      4.37384     -11.74281     -31.03274
                        -----------------------------------------
Total Dipole Moment    :      0.30604      -0.34082      -0.68582
                        -----------------------------------------
Magnitude (a.u.)       :      0.82472
Magnitude (Debye)      :      2.09627

Rotational constants in cm-1:     0.016477     0.009157     0.006139
Rotational constants in MHz :   493.975086   274.511782   184.052583

                             ****ORCA TERMINATED NORMALLY****
TOTAL RUN TIME: 0 days 0 hours 0 minutes 33 seconds 949 msec
