                         Program Version 4.2.1 -  RELEASE  -
|  1> ! wB97X-D3 SP def2-SVP
|  2> %pal
|  3> nprocs 16
|  4> end
|  5>
|  6> * xyz 0 1
|  7> S 	 -101.218 	 50.7852 	 128.661
|  8> C 	 -99.9854 	 49.9043 	 127.815
|  9> C 	 -100.399 	 49.397 	 126.607
| 10> C 	 -101.759 	 49.793 	 126.367
| 11> C 	 -102.375 	 50.4273 	 127.406
| 12> H 	 -102.306 	 49.5054 	 125.487
| 13> C 	 -99.4965 	 48.6782 	 125.683
| 14> H 	 -99.8851 	 47.7236 	 125.45
| 15> H 	 -98.4135 	 48.6053 	 126.105
| 16> C 	 -99.3359 	 49.4862 	 124.388
| 17> H 	 -100.397 	 49.4251 	 124.08
| 18> H 	 -99.0799 	 50.5655 	 124.501
| 19> C 	 -98.4935 	 48.7633 	 123.31
| 20> H 	 -98.9842 	 47.8755 	 122.931
| 21> H 	 -98.3442 	 49.4697 	 122.573
| 22> H 	 -97.5123 	 48.4788 	 123.734
| 23> S 	 -103.927 	 52.6051 	 127.945
| 24> C 	 -105.641 	 52.3971 	 127.943
| 25> C 	 -106.085 	 51.1235 	 127.693
| 26> C 	 -104.996 	 50.2272 	 127.451
| 27> C 	 -103.762 	 50.8773 	 127.565
| 28> H 	 -107.122 	 50.9351 	 127.632
| 29> C 	 -105.199 	 48.819 	 127.112
| 30> H 	 -105.823 	 48.3693 	 127.878
| 31> H 	 -104.224 	 48.341 	 127.128
| 32> C 	 -105.934 	 48.4264 	 125.807
| 33> H 	 -105.225 	 48.6811 	 124.957
| 34> H 	 -106.862 	 49.0005 	 125.749
| 35> C 	 -106.285 	 46.9125 	 125.643
| 36> H 	 -106.726 	 46.7301 	 124.649
| 37> H 	 -107.075 	 46.6225 	 126.4
| 38> H 	 -105.432 	 46.2377 	 125.781
| 39> H 	 -98.8976 	 49.9591 	 128.125
| 40> H 	 -106.309 	 53.2166 	 128.184
| 41> *
| 42>
| 43>                          ****END OF INPUT****

CARTESIAN COORDINATES (ANGSTROEM)
---------------------------------
  S    -101.218000   50.785200  128.661000
  C    -99.985400   49.904300  127.815000
  C    -100.399000   49.397000  126.607000
  C    -101.759000   49.793000  126.367000
  C    -102.375000   50.427300  127.406000
  H    -102.306000   49.505400  125.487000
  C    -99.496500   48.678200  125.683000
  H    -99.885100   47.723600  125.450000
  H    -98.413500   48.605300  126.105000
  C    -99.335900   49.486200  124.388000
  H    -100.397000   49.425100  124.080000
  H    -99.079900   50.565500  124.501000
  C    -98.493500   48.763300  123.310000
  H    -98.984200   47.875500  122.931000
  H    -98.344200   49.469700  122.573000
  H    -97.512300   48.478800  123.734000
  S    -103.927000   52.605100  127.945000
  C    -105.641000   52.397100  127.943000
  C    -106.085000   51.123500  127.693000
  C    -104.996000   50.227200  127.451000
  C    -103.762000   50.877300  127.565000
  H    -107.122000   50.935100  127.632000
  C    -105.199000   48.819000  127.112000
  H    -105.823000   48.369300  127.878000
  H    -104.224000   48.341000  127.128000
  C    -105.934000   48.426400  125.807000
  H    -105.225000   48.681100  124.957000
  H    -106.862000   49.000500  125.749000
  C    -106.285000   46.912500  125.643000
  H    -106.726000   46.730100  124.649000
  H    -107.075000   46.622500  126.400000
  H    -105.432000   46.237700  125.781000
  H    -98.897600   49.959100  128.125000
  H    -106.309000   53.216600  128.184000

 Total Charge           Charge          ....    0
 Multiplicity           Mult            ....    1
 Number of Electrons    NEL             ....  134
 Basis Dimension        Dim             ....  322

ORBITAL ENERGIES
----------------

  NO   OCC          E(Eh)            E(eV)
   0   2.0000     -88.965991     -2420.8877
   1   2.0000     -88.961370     -2420.7619
   2   2.0000     -10.327749      -281.0323
   3   2.0000     -10.326702      -281.0038
   4   2.0000     -10.315068      -280.6873
   5   2.0000     -10.312576      -280.6195
   6   2.0000     -10.304671      -280.4044
   7   2.0000     -10.297318      -280.2043
   8   2.0000     -10.296109      -280.1714
   9   2.0000     -10.294244      -280.1206
  10   2.0000     -10.292735      -280.0796
  11   2.0000     -10.290446      -280.0173
  12   2.0000     -10.288775      -279.9718
  13   2.0000     -10.288737      -279.9708
  14   2.0000     -10.285854      -279.8923
  15   2.0000     -10.275019      -279.5975
  16   2.0000      -8.080986      -219.8948
  17   2.0000      -8.076907      -219.7838
  18   2.0000      -6.039325      -164.3384
  19   2.0000      -6.035631      -164.2379
  20   2.0000      -6.035355      -164.2304
  21   2.0000      -6.031729      -164.1317
  22   2.0000      -6.031349      -164.1213
  23   2.0000      -6.027629      -164.0201
  24   2.0000      -1.008378       -27.4394
  25   2.0000      -0.986607       -26.8469
  26   2.0000      -0.917491       -24.9662
  27   2.0000      -0.909716       -24.7546
  28   2.0000      -0.868324       -23.6283
  29   2.0000      -0.853004       -23.2114
  30   2.0000      -0.846083       -23.0231
  31   2.0000      -0.817336       -22.2408
  32   2.0000      -0.785378       -21.3712
  33   2.0000      -0.770376       -20.9630
  34   2.0000      -0.706357       -19.2209
  35   2.0000      -0.694312       -18.8932
  36   2.0000      -0.685996       -18.6669
  37   2.0000      -0.662314       -18.0225
  38   2.0000      -0.639987       -17.4149
  39   2.0000      -0.624223       -16.9860
  40   2.0000      -0.598660       -16.2904
  41   2.0000      -0.576801       -15.6955
  42   2.0000      -0.570057       -15.5120
  43   2.0000      -0.555042       -15.1035
  44   2.0000      -0.532342       -14.4858
  45   2.0000      -0.521052       -14.1785
  46   2.0000      -0.517131       -14.0719
  47   2.0000      -0.513355       -13.9691
  48   2.0000      -0.504855       -13.7378
  49   2.0000      -0.498543       -13.5660
  50   2.0000      -0.489760       -13.3271
  51   2.0000      -0.473769       -12.8919
  52   2.0000      -0.469215       -12.7680
  53   2.0000      -0.464189       -12.6312
  54   2.0000      -0.460694       -12.5361
  55   2.0000      -0.458220       -12.4688
  56   2.0000      -0.448218       -12.1966
  57   2.0000      -0.446321       -12.1450
  58   2.0000      -0.435919       -11.8620
  59   2.0000      -0.427449       -11.6315
  60   2.0000      -0.422043       -11.4844
  61   2.0000      -0.417814       -11.3693
  62   2.0000      -0.402379       -10.9493
  63   2.0000      -0.343073        -9.3355
  64   2.0000      -0.331062        -9.0086
  65   2.0000      -0.328777        -8.9465
  66   2.0000      -0.294010        -8.0004
  67   0.0000       0.035071         0.9543
  68   0.0000       0.071258         1.9390
  69   0.0000       0.111810         3.0425
  70   0.0000       0.123316         3.3556
  71   0.0000       0.126858         3.4520

MULLIKEN ATOMIC CHARGES
-----------------------
   0 S :    0.105624
   1 C :   -0.141074
   2 C :   -0.088927
   3 C :    0.038176
   4 C :   -0.157944
   5 H :    0.005361
   6 C :    0.083486
   7 H :    0.021477
   8 H :    0.030205
   9 C :   -0.164448
  10 H :    0.024621
  11 H :    0.049743
  12 C :    0.020362
  13 H :    0.030076
  14 H :    0.021431
  15 H :    0.025643
  16 S :    0.110256
  17 C :   -0.085858
  18 C :   -0.025474
  19 C :    0.011369
  20 C :   -0.170460
  21 H :    0.005425
  22 C :    0.069286
  23 H :    0.019512
  24 H :    0.021300
  25 C :   -0.100009
  26 H :    0.037412
  27 H :    0.032257
  28 C :   -0.069959
  29 H :    0.043919
  30 H :    0.036128
  31 H :    0.038397
  32 H :    0.068350
  33 H :    0.054335
Sum of atomic charges:   -0.0000000

LOEWDIN ATOMIC CHARGES
----------------------
   0 S :    0.405279
   1 C :   -0.207000
   2 C :   -0.068434
   3 C :   -0.064722
   4 C :   -0.196362
   5 H :    0.026267
   6 C :   -0.030067
   7 H :    0.025271
   8 H :    0.035108
   9 C :   -0.045478
  10 H :    0.023405
  11 H :    0.030685
  12 C :   -0.056068
  13 H :    0.025892
  14 H :    0.017811
  15 H :    0.025507
  16 S :    0.403963
  17 C :   -0.181381
  18 C :   -0.067351
  19 C :   -0.047060
  20 C :   -0.192857
  21 H :    0.026846
  22 C :   -0.039985
  23 H :    0.032585
  24 H :    0.030312
  25 C :   -0.039733
  26 H :    0.027170
  27 H :    0.022281
  28 C :   -0.071513
  29 H :    0.030485
  30 H :    0.028658
  31 H :    0.025114
  32 H :    0.038836
  33 H :    0.026539

  Mayer bond orders larger than 0.100000
B(  0-S ,  1-C ) :   1.1385 B(  0-S ,  4-C ) :   1.1530 B(  1-C ,  2-C ) :   1.6306
B(  1-C , 32-H ) :   0.9544 B(  2-C ,  3-C ) :   1.2220 B(  2-C ,  6-C ) :   1.0379
B(  3-C ,  4-C ) :   1.5948 B(  3-C ,  5-H ) :   0.9940 B(  4-C , 20-C ) :   1.0156
B(  6-C ,  7-H ) :   0.9303 B(  6-C ,  8-H ) :   0.9429 B(  6-C ,  9-C ) :   1.0463
B(  9-C , 10-H ) :   0.9558 B(  9-C , 11-H ) :   0.9619 B(  9-C , 12-C ) :   1.0798
B( 12-C , 13-H ) :   0.9725 B( 12-C , 14-H ) :   0.9732 B( 12-C , 15-H ) :   0.9736
B( 16-S , 17-C ) :   1.1584 B( 16-S , 20-C ) :   1.1378 B( 17-C , 18-C ) :   1.6279
B( 17-C , 33-H ) :   0.9635 B( 18-C , 19-C ) :   1.2030 B( 18-C , 21-H ) :   0.9997
B( 19-C , 20-C ) :   1.6023 B( 19-C , 22-C ) :   1.0768 B( 22-C , 23-H ) :   0.9226
B( 22-C , 24-H ) :   0.9236 B( 22-C , 25-C ) :   1.0610 B( 25-C , 26-H ) :   0.9549
B( 25-C , 27-H ) :   0.9552 B( 25-C , 28-C ) :   1.0810 B( 28-C , 29-H ) :   0.9747
B( 28-C , 30-H ) :   0.9736 B( 28-C , 31-H ) :   0.9762

Dispersion correction           -0.013530324
FINAL SINGLE POINT ENERGY     -1339.886495034748

DIPOLE MOMENT
-------------
                                X             Y             Z
Electronic contribution:     -1.17823      20.82198      20.82940
Nuclear contribution   :      0.99875     -21.18770     -21.33183
                        -----------------------------------------
Total Dipole Moment    :     -0.17948      -0.36572      -0.50243
                        -----------------------------------------
Magnitude (a.u.)       :      0.64684
Magnitude (Debye)      :      1.64413

Rotational constants in cm-1:     0.016556     0.008550     0.006399
Rotational constants in MHz :   496.331028   256.309024   191.840038

                             ****ORCA TERMINATED NORMALLY****
TOTAL RUN TIME: 0 days 0 hours 0 minutes 33 seconds 625 msec
