                         Program Version 4.2.1 -  RELEASE  -
|  1> ! wB97X-D3 SP def2-SVP
|  2> %pal
|  3> nprocs 16
|  4> end
|  5>
|  6> * xyz 0 1
|  7> S 	 -15.648 	 -3.90039 	 85.8906
|  8> C 	 -15.9335 	 -2.38184 	 84.9916
|  9> C 	 -16.0492 	 -1.24728 	 85.8106
| 10> C 	 -15.9578 	 -1.61698 	 87.2065
| 11> C 	 -15.6626 	 -2.95167 	 87.3727
| 12> H 	 -15.9702 	 -0.968947 	 88.0905
| 13> C 	 -16.2371 	 0.256574 	 85.4038
| 14> H 	 -16.1086 	 0.934872 	 86.2207
| 15> H 	 -17.2374 	 0.348897 	 85.1656
| 16> C 	 -15.4761 	 0.643631 	 84.0819
| 17> H 	 -15.6918 	 -0.158556 	 83.3703
| 18> H 	 -15.8222 	 1.58119 	 83.6004
| 19> C 	 -13.9934 	 0.921972 	 84.3319
| 20> H 	 -13.5423 	 1.34108 	 83.4676
| 21> H 	 -13.738 	 1.66506 	 85.1224
| 22> H 	 -13.4614 	 -0.0235199 	 84.4873
| 23> S 	 -14.0829 	 -4.52543 	 88.9482
| 24> C 	 -14.6235 	 -4.84974 	 90.6298
| 25> C 	 -15.7367 	 -4.10631 	 90.942
| 26> C 	 -16.2744 	 -3.36136 	 89.8233
| 27> C 	 -15.5321 	 -3.60056 	 88.6712
| 28> H 	 -16.2917 	 -4.21181 	 91.876
| 29> C 	 -17.4116 	 -2.39172 	 89.9956
| 30> H 	 -18.2509 	 -3.0023 	 90.1122
| 31> H 	 -17.7213 	 -1.97897 	 89.03
| 32> C 	 -17.1155 	 -1.33449 	 91.1403
| 33> H 	 -16.3628 	 -0.700108 	 90.8137
| 34> H 	 -16.8168 	 -1.68025 	 92.1159
| 35> C 	 -18.3567 	 -0.433779 	 91.2667
| 36> H 	 -18.1227 	 0.544234 	 91.7045
| 37> H 	 -19.3198 	 -0.916749 	 91.5836
| 38> H 	 -18.7294 	 -0.220821 	 90.2196
| 39> H 	 -16.2308 	 -2.40933 	 83.8919
| 40> H 	 -14.0703 	 -5.63552 	 91.2307
| 41> *
| 42>
| 43>                          ****END OF INPUT****

CARTESIAN COORDINATES (ANGSTROEM)
---------------------------------
  S    -15.648000   -3.900390   85.890600
  C    -15.933500   -2.381840   84.991600
  C    -16.049200   -1.247280   85.810600
  C    -15.957800   -1.616980   87.206500
  C    -15.662600   -2.951670   87.372700
  H    -15.970200   -0.968947   88.090500
  C    -16.237100    0.256574   85.403800
  H    -16.108600    0.934872   86.220700
  H    -17.237400    0.348897   85.165600
  C    -15.476100    0.643631   84.081900
  H    -15.691800   -0.158556   83.370300
  H    -15.822200    1.581190   83.600400
  C    -13.993400    0.921972   84.331900
  H    -13.542300    1.341080   83.467600
  H    -13.738000    1.665060   85.122400
  H    -13.461400   -0.023520   84.487300
  S    -14.082900   -4.525430   88.948200
  C    -14.623500   -4.849740   90.629800
  C    -15.736700   -4.106310   90.942000
  C    -16.274400   -3.361360   89.823300
  C    -15.532100   -3.600560   88.671200
  H    -16.291700   -4.211810   91.876000
  C    -17.411600   -2.391720   89.995600
  H    -18.250900   -3.002300   90.112200
  H    -17.721300   -1.978970   89.030000
  C    -17.115500   -1.334490   91.140300
  H    -16.362800   -0.700108   90.813700
  H    -16.816800   -1.680250   92.115900
  C    -18.356700   -0.433779   91.266700
  H    -18.122700    0.544234   91.704500
  H    -19.319800   -0.916749   91.583600
  H    -18.729400   -0.220821   90.219600
  H    -16.230800   -2.409330   83.891900
  H    -14.070300   -5.635520   91.230700

 Total Charge           Charge          ....    0
 Multiplicity           Mult            ....    1
 Number of Electrons    NEL             ....  134
 Basis Dimension        Dim             ....  322

ORBITAL ENERGIES
----------------

  NO   OCC          E(Eh)            E(eV)
   0   2.0000     -88.969432     -2420.9813
   1   2.0000     -88.961336     -2420.7610
   2   2.0000     -10.326184      -280.9897
   3   2.0000     -10.324339      -280.9395
   4   2.0000     -10.323263      -280.9103
   5   2.0000     -10.320882      -280.8455
   6   2.0000     -10.312378      -280.6141
   7   2.0000     -10.300896      -280.3016
   8   2.0000     -10.296731      -280.1883
   9   2.0000     -10.295404      -280.1522
  10   2.0000     -10.292715      -280.0790
  11   2.0000     -10.292377      -280.0698
  12   2.0000     -10.291415      -280.0436
  13   2.0000     -10.291234      -280.0387
  14   2.0000     -10.286285      -279.9041
  15   2.0000     -10.272360      -279.5251
  16   2.0000      -8.083330      -219.9586
  17   2.0000      -8.075909      -219.7567
  18   2.0000      -6.041838      -164.4068
  19   2.0000      -6.038170      -164.3070
  20   2.0000      -6.034446      -164.2056
  21   2.0000      -6.033935      -164.1917
  22   2.0000      -6.030601      -164.1010
  23   2.0000      -6.026492      -163.9892
  24   2.0000      -1.001264       -27.2458
  25   2.0000      -0.974868       -26.5275
  26   2.0000      -0.908877       -24.7318
  27   2.0000      -0.904480       -24.6122
  28   2.0000      -0.862645       -23.4738
  29   2.0000      -0.852221       -23.1901
  30   2.0000      -0.844476       -22.9794
  31   2.0000      -0.808462       -21.9994
  32   2.0000      -0.783940       -21.3321
  33   2.0000      -0.766394       -20.8546
  34   2.0000      -0.715096       -19.4587
  35   2.0000      -0.703845       -19.1526
  36   2.0000      -0.685994       -18.6668
  37   2.0000      -0.660868       -17.9831
  38   2.0000      -0.634530       -17.2665
  39   2.0000      -0.611207       -16.6318
  40   2.0000      -0.593901       -16.1609
  41   2.0000      -0.567745       -15.4491
  42   2.0000      -0.558836       -15.2067
  43   2.0000      -0.549142       -14.9429
  44   2.0000      -0.539745       -14.6872
  45   2.0000      -0.533036       -14.5047
  46   2.0000      -0.514670       -14.0049
  47   2.0000      -0.512321       -13.9410
  48   2.0000      -0.503348       -13.6968
  49   2.0000      -0.487578       -13.2677
  50   2.0000      -0.484368       -13.1803
  51   2.0000      -0.475566       -12.9408
  52   2.0000      -0.464027       -12.6268
  53   2.0000      -0.461523       -12.5587
  54   2.0000      -0.455832       -12.4038
  55   2.0000      -0.450008       -12.2453
  56   2.0000      -0.444664       -12.0999
  57   2.0000      -0.439738       -11.9659
  58   2.0000      -0.436939       -11.8897
  59   2.0000      -0.423782       -11.5317
  60   2.0000      -0.423422       -11.5219
  61   2.0000      -0.416841       -11.3428
  62   2.0000      -0.412404       -11.2221
  63   2.0000      -0.346458        -9.4276
  64   2.0000      -0.332339        -9.0434
  65   2.0000      -0.325694        -8.8626
  66   2.0000      -0.287647        -7.8273
  67   0.0000       0.029856         0.8124
  68   0.0000       0.071069         1.9339
  69   0.0000       0.103720         2.8224
  70   0.0000       0.113848         3.0979
  71   0.0000       0.128590         3.4991

MULLIKEN ATOMIC CHARGES
-----------------------
   0 S :    0.116268
   1 C :   -0.170492
   2 C :   -0.083776
   3 C :    0.001749
   4 C :   -0.154901
   5 H :    0.026501
   6 C :    0.126279
   7 H :    0.015379
   8 H :    0.017894
   9 C :   -0.096601
  10 H :    0.029044
  11 H :    0.029833
  12 C :   -0.045271
  13 H :    0.017040
  14 H :    0.036267
  15 H :    0.040721
  16 S :    0.088492
  17 C :   -0.122924
  18 C :   -0.020206
  19 C :   -0.067763
  20 C :   -0.141038
  21 H :    0.028897
  22 C :    0.077207
  23 H :    0.012385
  24 H :    0.014588
  25 C :   -0.014201
  26 H :    0.016857
  27 H :    0.039051
  28 C :   -0.075255
  29 H :    0.044824
  30 H :    0.037132
  31 H :    0.012324
  32 H :    0.079124
  33 H :    0.084572
Sum of atomic charges:    0.0000000

LOEWDIN ATOMIC CHARGES
----------------------
   0 S :    0.389603
   1 C :   -0.211137
   2 C :   -0.050561
   3 C :   -0.066063
   4 C :   -0.188064
   5 H :    0.036672
   6 C :   -0.019720
   7 H :    0.025695
   8 H :    0.025519
   9 C :   -0.038007
  10 H :    0.024466
  11 H :    0.026060
  12 C :   -0.070810
  13 H :    0.018591
  14 H :    0.030326
  15 H :    0.028460
  16 S :    0.380061
  17 C :   -0.177905
  18 C :   -0.069584
  19 C :   -0.057634
  20 C :   -0.205389
  21 H :    0.034496
  22 C :   -0.032266
  23 H :    0.027238
  24 H :    0.034105
  25 C :   -0.023161
  26 H :    0.019213
  27 H :    0.025188
  28 C :   -0.078990
  29 H :    0.026662
  30 H :    0.030265
  31 H :    0.026921
  32 H :    0.038780
  33 H :    0.040971

  Mayer bond orders larger than 0.100000
B(  0-S ,  1-C ) :   1.1207 B(  0-S ,  4-C ) :   1.1482 B(  1-C ,  2-C ) :   1.6362
B(  1-C , 32-H ) :   0.9526 B(  2-C ,  3-C ) :   1.2178 B(  2-C ,  6-C ) :   0.9982
B(  3-C ,  4-C ) :   1.6073 B(  3-C ,  5-H ) :   0.9871 B(  4-C , 20-C ) :   1.0135
B(  6-C ,  7-H ) :   0.9518 B(  6-C ,  8-H ) :   0.9278 B(  6-C ,  9-C ) :   1.0681
B(  9-C , 10-H ) :   0.9546 B(  9-C , 11-H ) :   0.9603 B(  9-C , 12-C ) :   1.0774
B( 12-C , 13-H ) :   0.9742 B( 12-C , 14-H ) :   0.9749 B( 12-C , 15-H ) :   0.9760
B( 16-S , 17-C ) :   1.1305 B( 16-S , 20-C ) :   1.1409 B( 17-C , 18-C ) :   1.6210
B( 17-C , 33-H ) :   0.9626 B( 18-C , 19-C ) :   1.2206 B( 18-C , 21-H ) :   0.9847
B( 19-C , 20-C ) :   1.6211 B( 19-C , 22-C ) :   1.0425 B( 22-C , 23-H ) :   0.9200
B( 22-C , 24-H ) :   0.9287 B( 22-C , 25-C ) :   1.0413 B( 25-C , 26-H ) :   0.9528
B( 25-C , 27-H ) :   0.9591 B( 25-C , 28-C ) :   1.0815 B( 28-C , 29-H ) :   0.9746
B( 28-C , 30-H ) :   0.9740 B( 28-C , 31-H ) :   0.9679

Dispersion correction           -0.014210697
FINAL SINGLE POINT ENERGY     -1339.856862953058

DIPOLE MOMENT
-------------
                                X             Y             Z
Electronic contribution:      8.99662     -25.66681      -0.98027
Nuclear contribution   :     -9.44119      26.26689       1.15229
                        -----------------------------------------
Total Dipole Moment    :     -0.44458       0.60008       0.17202
                        -----------------------------------------
Magnitude (a.u.)       :      0.76638
Magnitude (Debye)      :      1.94799

Rotational constants in cm-1:     0.017813     0.008657     0.006603
Rotational constants in MHz :   534.016663   259.529320   197.961768

                             ****ORCA TERMINATED NORMALLY****
TOTAL RUN TIME: 0 days 0 hours 0 minutes 33 seconds 446 msec
