                         Program Version 4.2.1 -  RELEASE  -
|  1> ! wB97X-D3 SP def2-SVP
|  2> %pal
|  3> nprocs 16
|  4> end
|  5>
|  6> * xyz 0 1
|  7> S 	 51.6421 	 7.02097 	 83.0771
|  8> C 	 51.8787 	 6.95339 	 84.8091
|  9> C 	 51.6932 	 5.67545 	 85.3245
| 10> C 	 51.2266 	 4.79285 	 84.3072
| 11> C 	 51.2337 	 5.33255 	 83.0524
| 12> H 	 50.9113 	 3.77041 	 84.5331
| 13> C 	 51.701 	 5.30561 	 86.786
| 14> H 	 50.7662 	 5.52744 	 87.2612
| 15> H 	 52.4864 	 5.9225 	 87.2044
| 16> C 	 51.985 	 3.77375 	 87.0947
| 17> H 	 51.9336 	 3.58466 	 88.1797
| 18> H 	 51.2553 	 3.0518 	 86.7066
| 19> C 	 53.3738 	 3.3526 	 86.6122
| 20> H 	 54.1378 	 3.93694 	 87.1075
| 21> H 	 53.6996 	 2.34453 	 86.8921
| 22> H 	 53.4108 	 3.36823 	 85.498
| 23> S 	 49.6621 	 5.38957 	 80.7932
| 24> C 	 49.3477 	 3.92039 	 79.9269
| 25> C 	 50.1208 	 2.87876 	 80.2639
| 26> C 	 50.8421 	 3.22171 	 81.4495
| 27> C 	 50.7251 	 4.57431 	 81.8662
| 28> H 	 50.0091 	 1.94026 	 79.7088
| 29> C 	 51.6515 	 2.2569 	 82.3269
| 30> H 	 52.2638 	 2.84296 	 83.0397
| 31> H 	 52.3546 	 1.75997 	 81.6751
| 32> C 	 50.7611 	 1.24521 	 83.0984
| 33> H 	 50.2237 	 0.62591 	 82.4359
| 34> H 	 50.0261 	 1.82451 	 83.579
| 35> C 	 51.3785 	 0.363014 	 84.1979
| 36> H 	 51.544 	 0.873226 	 85.0799
| 37> H 	 52.2484 	 -0.183685 	 83.8405
| 38> H 	 50.5425 	 -0.32247 	 84.4342
| 39> H 	 52.0401 	 7.84896 	 85.4488
| 40> H 	 48.8321 	 3.96085 	 78.9928
| 41> *
| 42>
| 43>                          ****END OF INPUT****

CARTESIAN COORDINATES (ANGSTROEM)
---------------------------------
  S     51.642100    7.020970   83.077100
  C     51.878700    6.953390   84.809100
  C     51.693200    5.675450   85.324500
  C     51.226600    4.792850   84.307200
  C     51.233700    5.332550   83.052400
  H     50.911300    3.770410   84.533100
  C     51.701000    5.305610   86.786000
  H     50.766200    5.527440   87.261200
  H     52.486400    5.922500   87.204400
  C     51.985000    3.773750   87.094700
  H     51.933600    3.584660   88.179700
  H     51.255300    3.051800   86.706600
  C     53.373800    3.352600   86.612200
  H     54.137800    3.936940   87.107500
  H     53.699600    2.344530   86.892100
  H     53.410800    3.368230   85.498000
  S     49.662100    5.389570   80.793200
  C     49.347700    3.920390   79.926900
  C     50.120800    2.878760   80.263900
  C     50.842100    3.221710   81.449500
  C     50.725100    4.574310   81.866200
  H     50.009100    1.940260   79.708800
  C     51.651500    2.256900   82.326900
  H     52.263800    2.842960   83.039700
  H     52.354600    1.759970   81.675100
  C     50.761100    1.245210   83.098400
  H     50.223700    0.625910   82.435900
  H     50.026100    1.824510   83.579000
  C     51.378500    0.363014   84.197900
  H     51.544000    0.873226   85.079900
  H     52.248400   -0.183685   83.840500
  H     50.542500   -0.322470   84.434200
  H     52.040100    7.848960   85.448800
  H     48.832100    3.960850   78.992800

 Total Charge           Charge          ....    0
 Multiplicity           Mult            ....    1
 Number of Electrons    NEL             ....  134
 Basis Dimension        Dim             ....  322

ORBITAL ENERGIES
----------------

  NO   OCC          E(Eh)            E(eV)
   0   2.0000     -88.971624     -2421.0410
   1   2.0000     -88.961600     -2420.7682
   2   2.0000     -10.330723      -281.1133
   3   2.0000     -10.327338      -281.0212
   4   2.0000     -10.317571      -280.7554
   5   2.0000     -10.308060      -280.4966
   6   2.0000     -10.306347      -280.4500
   7   2.0000     -10.300907      -280.3019
   8   2.0000     -10.296616      -280.1852
   9   2.0000     -10.295600      -280.1575
  10   2.0000     -10.294896      -280.1384
  11   2.0000     -10.290949      -280.0309
  12   2.0000     -10.287315      -279.9321
  13   2.0000     -10.278398      -279.6894
  14   2.0000     -10.277922      -279.6765
  15   2.0000     -10.274849      -279.5928
  16   2.0000      -8.086258      -220.0383
  17   2.0000      -8.077587      -219.8023
  18   2.0000      -6.044833      -164.4883
  19   2.0000      -6.040851      -164.3799
  20   2.0000      -6.036899      -164.2724
  21   2.0000      -6.035953      -164.2466
  22   2.0000      -6.031889      -164.1361
  23   2.0000      -6.028477      -164.0432
  24   2.0000      -1.010194       -27.4888
  25   2.0000      -0.989815       -26.9342
  26   2.0000      -0.910523       -24.7766
  27   2.0000      -0.904870       -24.6228
  28   2.0000      -0.870937       -23.6994
  29   2.0000      -0.852493       -23.1975
  30   2.0000      -0.846721       -23.0405
  31   2.0000      -0.820505       -22.3271
  32   2.0000      -0.783209       -21.3122
  33   2.0000      -0.769608       -20.9421
  34   2.0000      -0.708649       -19.2833
  35   2.0000      -0.700098       -19.0506
  36   2.0000      -0.692124       -18.8337
  37   2.0000      -0.657824       -17.9003
  38   2.0000      -0.633491       -17.2382
  39   2.0000      -0.630049       -17.1445
  40   2.0000      -0.591834       -16.1046
  41   2.0000      -0.569959       -15.5094
  42   2.0000      -0.567505       -15.4426
  43   2.0000      -0.557858       -15.1801
  44   2.0000      -0.539191       -14.6721
  45   2.0000      -0.524433       -14.2705
  46   2.0000      -0.521515       -14.1911
  47   2.0000      -0.508957       -13.8494
  48   2.0000      -0.503563       -13.7027
  49   2.0000      -0.495933       -13.4950
  50   2.0000      -0.489875       -13.3302
  51   2.0000      -0.485453       -13.2098
  52   2.0000      -0.468403       -12.7459
  53   2.0000      -0.467711       -12.7271
  54   2.0000      -0.457191       -12.4408
  55   2.0000      -0.452357       -12.3093
  56   2.0000      -0.444242       -12.0884
  57   2.0000      -0.440545       -11.9878
  58   2.0000      -0.432292       -11.7633
  59   2.0000      -0.428491       -11.6598
  60   2.0000      -0.424177       -11.5424
  61   2.0000      -0.419483       -11.4147
  62   2.0000      -0.409627       -11.1465
  63   2.0000      -0.354775        -9.6539
  64   2.0000      -0.334390        -9.0992
  65   2.0000      -0.327032        -8.8990
  66   2.0000      -0.289465        -7.8767
  67   0.0000       0.030128         0.8198
  68   0.0000       0.078904         2.1471
  69   0.0000       0.111436         3.0323
  70   0.0000       0.120487         3.2786
  71   0.0000       0.124954         3.4002

MULLIKEN ATOMIC CHARGES
-----------------------
   0 S :    0.123532
   1 C :   -0.148125
   2 C :   -0.086347
   3 C :   -0.006640
   4 C :   -0.099523
   5 H :    0.002924
   6 C :    0.100972
   7 H :    0.047320
   8 H :    0.026087
   9 C :   -0.113135
  10 H :    0.030593
  11 H :    0.034639
  12 C :   -0.063285
  13 H :    0.027469
  14 H :    0.025328
  15 H :    0.051130
  16 S :    0.096162
  17 C :   -0.083555
  18 C :   -0.029400
  19 C :   -0.076002
  20 C :   -0.143669
  21 H :    0.033796
  22 C :    0.071155
  23 H :    0.026121
  24 H :    0.016504
  25 C :   -0.064919
  26 H :    0.011038
  27 H :    0.009485
  28 C :   -0.010667
  29 H :    0.012251
  30 H :    0.038492
  31 H :    0.031289
  32 H :    0.060925
  33 H :    0.048055
Sum of atomic charges:   -0.0000000

LOEWDIN ATOMIC CHARGES
----------------------
   0 S :    0.413613
   1 C :   -0.204051
   2 C :   -0.065277
   3 C :   -0.064140
   4 C :   -0.196937
   5 H :    0.031118
   6 C :   -0.023342
   7 H :    0.033881
   8 H :    0.032888
   9 C :   -0.046282
  10 H :    0.027884
  11 H :    0.021165
  12 C :   -0.072853
  13 H :    0.024295
  14 H :    0.024592
  15 H :    0.028937
  16 S :    0.417689
  17 C :   -0.182699
  18 C :   -0.073584
  19 C :   -0.053034
  20 C :   -0.206345
  21 H :    0.043286
  22 C :   -0.034250
  23 H :    0.029023
  24 H :    0.023946
  25 C :   -0.036424
  26 H :    0.016345
  27 H :    0.015516
  28 C :   -0.055201
  29 H :    0.010888
  30 H :    0.026036
  31 H :    0.035594
  32 H :    0.036072
  33 H :    0.021649

  Mayer bond orders larger than 0.100000
B(  0-S ,  1-C ) :   1.1385 B(  0-S ,  4-C ) :   1.1527 B(  1-C ,  2-C ) :   1.6089
B(  1-C , 32-H ) :   0.9626 B(  2-C ,  3-C ) :   1.2539 B(  2-C ,  6-C ) :   1.0123
B(  3-C ,  4-C ) :   1.5581 B(  3-C ,  5-H ) :   0.9868 B(  4-C , 20-C ) :   1.0240
B(  6-C ,  7-H ) :   0.9394 B(  6-C ,  8-H ) :   0.9392 B(  6-C ,  9-C ) :   1.0698
B(  9-C , 10-H ) :   0.9536 B(  9-C , 11-H ) :   0.9527 B(  9-C , 12-C ) :   1.0800
B( 12-C , 13-H ) :   0.9731 B( 12-C , 14-H ) :   0.9716 B( 12-C , 15-H ) :   0.9717
B( 16-S , 17-C ) :   1.1709 B( 16-S , 20-C ) :   1.1478 B( 17-C , 18-C ) :   1.6241
B( 17-C , 33-H ) :   0.9593 B( 18-C , 19-C ) :   1.2326 B( 18-C , 21-H ) :   0.9938
B( 19-C , 20-C ) :   1.5881 B( 19-C , 22-C ) :   1.0453 B( 22-C , 23-H ) :   0.9393
B( 22-C , 24-H ) :   0.9277 B( 22-C , 25-C ) :   1.0516 B( 25-C , 26-H ) :   0.9561
B( 25-C , 27-H ) :   0.9505 B( 25-C , 28-C ) :   1.0888 B( 28-C , 29-H ) :   0.9757
B( 28-C , 30-H ) :   0.9743 B( 28-C , 31-H ) :   0.9710

Dispersion correction           -0.015918777
FINAL SINGLE POINT ENERGY     -1339.880451290494

DIPOLE MOMENT
-------------
                                X             Y             Z
Electronic contribution:     -7.69916      24.03297     -20.86995
Nuclear contribution   :      7.65700     -24.55022      21.33107
                        -----------------------------------------
Total Dipole Moment    :     -0.04217      -0.51725       0.46112
                        -----------------------------------------
Magnitude (a.u.)       :      0.69423
Magnitude (Debye)      :      1.76459

Rotational constants in cm-1:     0.016979     0.011352     0.007222
Rotational constants in MHz :   509.004134   340.316221   216.503325

                             ****ORCA TERMINATED NORMALLY****
TOTAL RUN TIME: 0 days 0 hours 0 minutes 33 seconds 31 msec
