                         Program Version 4.2.1 -  RELEASE  -
|  1> ! wB97X-D3 SP def2-SVP
|  2> %pal
|  3> nprocs 16
|  4> end
|  5>
|  6> * xyz 0 1
|  7> S 	 -29.6505 	 58.0886 	 107.225
|  8> C 	 -29.494 	 58.0658 	 105.532
|  9> C 	 -30.4678 	 58.7562 	 104.816
| 10> C 	 -31.4551 	 59.265 	 105.757
| 11> C 	 -31.2315 	 58.8068 	 107.069
| 12> H 	 -32.27 	 59.9095 	 105.582
| 13> C 	 -30.3728 	 59.1881 	 103.367
| 14> H 	 -31.4141 	 59.0458 	 103.008
| 15> H 	 -29.7497 	 58.5428 	 102.81
| 16> C 	 -29.7849 	 60.5693 	 103.137
| 17> H 	 -28.781 	 60.6006 	 103.589
| 18> H 	 -29.674 	 60.7659 	 102.092
| 19> C 	 -30.5768 	 61.7372 	 103.779
| 20> H 	 -29.9433 	 62.5978 	 103.785
| 21> H 	 -31.4998 	 61.967 	 103.187
| 22> H 	 -30.8707 	 61.586 	 104.802
| 23> S 	 -31.2298 	 59.8965 	 109.678
| 24> C 	 -32.8036 	 60.035 	 110.533
| 25> C 	 -33.7904 	 59.6863 	 109.702
| 26> C 	 -33.3565 	 59.1629 	 108.433
| 27> C 	 -31.9903 	 59.1404 	 108.251
| 28> H 	 -34.8065 	 59.8065 	 110.114
| 29> C 	 -34.4444 	 58.7101 	 107.459
| 30> H 	 -35.0094 	 58.0464 	 107.904
| 31> H 	 -34.031 	 58.2051 	 106.593
| 32> C 	 -35.2973 	 59.8851 	 107.04
| 33> H 	 -34.743 	 60.7495 	 106.646
| 34> H 	 -35.671 	 60.2967 	 108.021
| 35> C 	 -36.4996 	 59.4561 	 106.177
| 36> H 	 -36.2681 	 58.9578 	 105.241
| 37> H 	 -37.0843 	 60.3561 	 105.932
| 38> H 	 -37.1252 	 58.809 	 106.664
| 39> H 	 -28.6843 	 57.7128 	 104.965
| 40> H 	 -32.9822 	 60.5626 	 111.499
| 41> *
| 42>
| 43>                          ****END OF INPUT****

CARTESIAN COORDINATES (ANGSTROEM)
---------------------------------
  S    -29.650500   58.088600  107.225000
  C    -29.494000   58.065800  105.532000
  C    -30.467800   58.756200  104.816000
  C    -31.455100   59.265000  105.757000
  C    -31.231500   58.806800  107.069000
  H    -32.270000   59.909500  105.582000
  C    -30.372800   59.188100  103.367000
  H    -31.414100   59.045800  103.008000
  H    -29.749700   58.542800  102.810000
  C    -29.784900   60.569300  103.137000
  H    -28.781000   60.600600  103.589000
  H    -29.674000   60.765900  102.092000
  C    -30.576800   61.737200  103.779000
  H    -29.943300   62.597800  103.785000
  H    -31.499800   61.967000  103.187000
  H    -30.870700   61.586000  104.802000
  S    -31.229800   59.896500  109.678000
  C    -32.803600   60.035000  110.533000
  C    -33.790400   59.686300  109.702000
  C    -33.356500   59.162900  108.433000
  C    -31.990300   59.140400  108.251000
  H    -34.806500   59.806500  110.114000
  C    -34.444400   58.710100  107.459000
  H    -35.009400   58.046400  107.904000
  H    -34.031000   58.205100  106.593000
  C    -35.297300   59.885100  107.040000
  H    -34.743000   60.749500  106.646000
  H    -35.671000   60.296700  108.021000
  C    -36.499600   59.456100  106.177000
  H    -36.268100   58.957800  105.241000
  H    -37.084300   60.356100  105.932000
  H    -37.125200   58.809000  106.664000
  H    -28.684300   57.712800  104.965000
  H    -32.982200   60.562600  111.499000

 Total Charge           Charge          ....    0
 Multiplicity           Mult            ....    1
 Number of Electrons    NEL             ....  134
 Basis Dimension        Dim             ....  322

ORBITAL ENERGIES
----------------

  NO   OCC          E(Eh)            E(eV)
   0   2.0000     -88.969936     -2420.9950
   1   2.0000     -88.960207     -2420.7303
   2   2.0000     -10.329052      -281.0678
   3   2.0000     -10.327806      -281.0339
   4   2.0000     -10.319160      -280.7986
   5   2.0000     -10.307516      -280.4818
   6   2.0000     -10.302904      -280.3563
   7   2.0000     -10.301817      -280.3267
   8   2.0000     -10.297739      -280.2157
   9   2.0000     -10.292236      -280.0660
  10   2.0000     -10.291913      -280.0572
  11   2.0000     -10.289218      -279.9839
  12   2.0000     -10.287423      -279.9350
  13   2.0000     -10.275407      -279.6081
  14   2.0000     -10.274050      -279.5711
  15   2.0000     -10.273032      -279.5434
  16   2.0000      -8.085444      -220.0161
  17   2.0000      -8.074086      -219.7071
  18   2.0000      -6.043795      -164.4600
  19   2.0000      -6.040024      -164.3574
  20   2.0000      -6.036155      -164.2521
  21   2.0000      -6.032886      -164.1632
  22   2.0000      -6.028850      -164.0533
  23   2.0000      -6.024424      -163.9329
  24   2.0000      -1.006828       -27.3972
  25   2.0000      -0.983586       -26.7647
  26   2.0000      -0.915289       -24.9063
  27   2.0000      -0.912253       -24.8237
  28   2.0000      -0.873258       -23.7626
  29   2.0000      -0.849249       -23.1092
  30   2.0000      -0.840953       -22.8835
  31   2.0000      -0.818552       -22.2739
  32   2.0000      -0.787513       -21.4293
  33   2.0000      -0.775610       -21.1054
  34   2.0000      -0.707727       -19.2582
  35   2.0000      -0.702851       -19.1256
  36   2.0000      -0.701165       -19.0797
  37   2.0000      -0.659585       -17.9482
  38   2.0000      -0.640615       -17.4320
  39   2.0000      -0.616665       -16.7803
  40   2.0000      -0.595675       -16.2091
  41   2.0000      -0.573593       -15.6083
  42   2.0000      -0.564372       -15.3574
  43   2.0000      -0.551665       -15.0116
  44   2.0000      -0.543499       -14.7894
  45   2.0000      -0.528486       -14.3808
  46   2.0000      -0.522661       -14.2223
  47   2.0000      -0.508895       -13.8477
  48   2.0000      -0.506540       -13.7837
  49   2.0000      -0.499072       -13.5804
  50   2.0000      -0.492618       -13.4048
  51   2.0000      -0.476275       -12.9601
  52   2.0000      -0.472535       -12.8583
  53   2.0000      -0.467391       -12.7184
  54   2.0000      -0.461271       -12.5518
  55   2.0000      -0.450356       -12.2548
  56   2.0000      -0.446426       -12.1479
  57   2.0000      -0.440636       -11.9903
  58   2.0000      -0.438374       -11.9288
  59   2.0000      -0.428822       -11.6688
  60   2.0000      -0.418034       -11.3753
  61   2.0000      -0.413421       -11.2498
  62   2.0000      -0.409736       -11.1495
  63   2.0000      -0.354396        -9.6436
  64   2.0000      -0.330840        -9.0026
  65   2.0000      -0.326850        -8.8940
  66   2.0000      -0.289554        -7.8792
  67   0.0000       0.027589         0.7507
  68   0.0000       0.072834         1.9819
  69   0.0000       0.104672         2.8483
  70   0.0000       0.124755         3.3947
  71   0.0000       0.131830         3.5873

MULLIKEN ATOMIC CHARGES
-----------------------
   0 S :    0.132427
   1 C :   -0.067604
   2 C :   -0.125615
   3 C :    0.038194
   4 C :   -0.189429
   5 H :    0.002318
   6 C :    0.093292
   7 H :    0.032721
   8 H :    0.008588
   9 C :   -0.054897
  10 H :    0.028776
  11 H :    0.030905
  12 C :   -0.063058
  13 H :    0.025910
  14 H :    0.032602
  15 H :    0.037440
  16 S :    0.069198
  17 C :   -0.107148
  18 C :   -0.045692
  19 C :   -0.060472
  20 C :   -0.106533
  21 H :    0.034960
  22 C :    0.176377
  23 H :   -0.023895
  24 H :    0.015449
  25 C :   -0.135195
  26 H :    0.034098
  27 H :    0.020329
  28 C :    0.006762
  29 H :    0.026906
  30 H :    0.032899
  31 H :    0.007025
  32 H :    0.018526
  33 H :    0.073834
Sum of atomic charges:   -0.0000000

LOEWDIN ATOMIC CHARGES
----------------------
   0 S :    0.436519
   1 C :   -0.204034
   2 C :   -0.060227
   3 C :   -0.046983
   4 C :   -0.197385
   5 H :    0.022229
   6 C :   -0.031449
   7 H :    0.034879
   8 H :    0.024976
   9 C :   -0.033789
  10 H :    0.028593
  11 H :    0.023140
  12 C :   -0.066520
  13 H :    0.023226
  14 H :    0.027451
  15 H :    0.022936
  16 S :    0.352349
  17 C :   -0.172792
  18 C :   -0.079807
  19 C :   -0.051319
  20 C :   -0.189110
  21 H :    0.038717
  22 C :   -0.017292
  23 H :    0.007934
  24 H :    0.027204
  25 C :   -0.039369
  26 H :    0.023522
  27 H :    0.025803
  28 C :   -0.058819
  29 H :    0.024899
  30 H :    0.031461
  31 H :    0.012520
  32 H :    0.017178
  33 H :    0.043360

  Mayer bond orders larger than 0.100000
B(  0-S ,  1-C ) :   1.1565 B(  0-S ,  4-C ) :   1.1537 B(  1-C ,  2-C ) :   1.6104
B(  1-C , 32-H ) :   0.9638 B(  2-C ,  3-C ) :   1.2371 B(  2-C ,  6-C ) :   1.0334
B(  3-C ,  4-C ) :   1.5490 B(  3-C ,  5-H ) :   0.9938 B(  4-C , 20-C ) :   1.0698
B(  6-C ,  7-H ) :   0.9366 B(  6-C ,  8-H ) :   0.9327 B(  6-C ,  9-C ) :   1.0729
B(  9-C , 10-H ) :   0.9520 B(  9-C , 11-H ) :   0.9554 B(  9-C , 12-C ) :   1.0834
B( 12-C , 13-H ) :   0.9731 B( 12-C , 14-H ) :   0.9759 B( 12-C , 15-H ) :   0.9708
B( 16-S , 17-C ) :   1.1189 B( 16-S , 20-C ) :   1.1027 B( 17-C , 18-C ) :   1.6788
B( 17-C , 33-H ) :   0.9577 B( 18-C , 19-C ) :   1.1891 B( 18-C , 21-H ) :   0.9800
B( 19-C , 20-C ) :   1.6438 B( 19-C , 22-C ) :   1.0445 B( 22-C , 23-H ) :   0.9190
B( 22-C , 24-H ) :   0.9307 B( 22-C , 25-C ) :   1.0545 B( 25-C , 26-H ) :   0.9583
B( 25-C , 27-H ) :   0.9512 B( 25-C , 28-C ) :   1.0789 B( 28-C , 29-H ) :   0.9743
B( 28-C , 30-H ) :   0.9726 B( 28-C , 31-H ) :   0.9712

Dispersion correction           -0.014560888
FINAL SINGLE POINT ENERGY     -1339.866834573837

DIPOLE MOMENT
-------------
                                X             Y             Z
Electronic contribution:     16.20431      -8.91214      20.77096
Nuclear contribution   :    -16.64927       9.19232     -21.24305
                        -----------------------------------------
Total Dipole Moment    :     -0.44495       0.28017      -0.47208
                        -----------------------------------------
Magnitude (a.u.)       :      0.70664
Magnitude (Debye)      :      1.79615

Rotational constants in cm-1:     0.016793     0.009617     0.007230
Rotational constants in MHz :   503.443500   288.323564   216.758159

                             ****ORCA TERMINATED NORMALLY****
TOTAL RUN TIME: 0 days 0 hours 0 minutes 31 seconds 55 msec
