                         Program Version 4.2.1 -  RELEASE  -
|  1> ! wB97X-D3 SP def2-SVP
|  2> %pal
|  3> nprocs 16
|  4> end
|  5>
|  6> * xyz 0 1
|  7> S 	 -4.2793 	 -18.1596 	 57.6436
|  8> C 	 -2.92567 	 -17.5248 	 56.7793
|  9> C 	 -3.2872 	 -16.7149 	 55.7581
| 10> C 	 -4.71341 	 -16.6768 	 55.6551
| 11> C 	 -5.40275 	 -17.4611 	 56.5188
| 12> H 	 -5.29522 	 -16.0315 	 54.9453
| 13> C 	 -2.40713 	 -16.0625 	 54.7837
| 14> H 	 -1.39687 	 -16.3521 	 55.1023
| 15> H 	 -2.42943 	 -14.9496 	 54.8814
| 16> C 	 -2.61025 	 -16.5582 	 53.3537
| 17> H 	 -1.71861 	 -16.1359 	 52.8015
| 18> H 	 -2.43761 	 -17.6502 	 53.4437
| 19> C 	 -3.90724 	 -16.107 	 52.7072
| 20> H 	 -4.75019 	 -16.7097 	 52.9522
| 21> H 	 -4.17109 	 -15.0785 	 53.0462
| 22> H 	 -3.84284 	 -16.1979 	 51.5861
| 23> S 	 -7.27802 	 -19.2324 	 55.8358
| 24> C 	 -8.95854 	 -18.9873 	 55.9758
| 25> C 	 -9.10959 	 -17.6625 	 56.3512
| 26> C 	 -7.93442 	 -16.9029 	 56.6805
| 27> C 	 -6.79783 	 -17.7466 	 56.5015
| 28> H 	 -10.1719 	 -17.3548 	 56.445
| 29> C 	 -7.90932 	 -15.44 	 56.9827
| 30> H 	 -6.90586 	 -15.1222 	 56.9125
| 31> H 	 -8.28523 	 -15.304 	 58.0068
| 32> C 	 -8.8228 	 -14.5638 	 56.042
| 33> H 	 -9.73015 	 -15.139 	 56.0499
| 34> H 	 -8.37965 	 -14.471 	 55.0419
| 35> C 	 -9.1627 	 -13.1934 	 56.7033
| 36> H 	 -9.74463 	 -12.5435 	 55.9871
| 37> H 	 -8.15734 	 -12.7501 	 57.0126
| 38> H 	 -9.80132 	 -13.1279 	 57.6391
| 39> H 	 -1.87984 	 -17.7915 	 56.9737
| 40> H 	 -9.65472 	 -19.74 	 55.6497
| 41> *
| 42>
| 43>                          ****END OF INPUT****

CARTESIAN COORDINATES (ANGSTROEM)
---------------------------------
  S     -4.279300  -18.159600   57.643600
  C     -2.925670  -17.524800   56.779300
  C     -3.287200  -16.714900   55.758100
  C     -4.713410  -16.676800   55.655100
  C     -5.402750  -17.461100   56.518800
  H     -5.295220  -16.031500   54.945300
  C     -2.407130  -16.062500   54.783700
  H     -1.396870  -16.352100   55.102300
  H     -2.429430  -14.949600   54.881400
  C     -2.610250  -16.558200   53.353700
  H     -1.718610  -16.135900   52.801500
  H     -2.437610  -17.650200   53.443700
  C     -3.907240  -16.107000   52.707200
  H     -4.750190  -16.709700   52.952200
  H     -4.171090  -15.078500   53.046200
  H     -3.842840  -16.197900   51.586100
  S     -7.278020  -19.232400   55.835800
  C     -8.958540  -18.987300   55.975800
  C     -9.109590  -17.662500   56.351200
  C     -7.934420  -16.902900   56.680500
  C     -6.797830  -17.746600   56.501500
  H    -10.171900  -17.354800   56.445000
  C     -7.909320  -15.440000   56.982700
  H     -6.905860  -15.122200   56.912500
  H     -8.285230  -15.304000   58.006800
  C     -8.822800  -14.563800   56.042000
  H     -9.730150  -15.139000   56.049900
  H     -8.379650  -14.471000   55.041900
  C     -9.162700  -13.193400   56.703300
  H     -9.744630  -12.543500   55.987100
  H     -8.157340  -12.750100   57.012600
  H     -9.801320  -13.127900   57.639100
  H     -1.879840  -17.791500   56.973700
  H     -9.654720  -19.740000   55.649700

 Total Charge           Charge          ....    0
 Multiplicity           Mult            ....    1
 Number of Electrons    NEL             ....  134
 Basis Dimension        Dim             ....  322

ORBITAL ENERGIES
----------------

  NO   OCC          E(Eh)            E(eV)
   0   2.0000     -88.961621     -2420.7688
   1   2.0000     -88.959797     -2420.7192
   2   2.0000     -10.321823      -280.8711
   3   2.0000     -10.320120      -280.8247
   4   2.0000     -10.314519      -280.6723
   5   2.0000     -10.310045      -280.5506
   6   2.0000     -10.306966      -280.4668
   7   2.0000     -10.296555      -280.1835
   8   2.0000     -10.294153      -280.1182
   9   2.0000     -10.292456      -280.0720
  10   2.0000     -10.292209      -280.0653
  11   2.0000     -10.291845      -280.0553
  12   2.0000     -10.290926      -280.0303
  13   2.0000     -10.290818      -280.0274
  14   2.0000     -10.288974      -279.9772
  15   2.0000     -10.282411      -279.7986
  16   2.0000      -8.077318      -219.7950
  17   2.0000      -8.076539      -219.7738
  18   2.0000      -6.035827      -164.2432
  19   2.0000      -6.034734      -164.2135
  20   2.0000      -6.031712      -164.1312
  21   2.0000      -6.030515      -164.0987
  22   2.0000      -6.027992      -164.0300
  23   2.0000      -6.027731      -164.0229
  24   2.0000      -1.016424       -27.6583
  25   2.0000      -0.993626       -27.0379
  26   2.0000      -0.919810       -25.0293
  27   2.0000      -0.908248       -24.7147
  28   2.0000      -0.876677       -23.8556
  29   2.0000      -0.845954       -23.0196
  30   2.0000      -0.842282       -22.9197
  31   2.0000      -0.818054       -22.2604
  32   2.0000      -0.784435       -21.3456
  33   2.0000      -0.770651       -20.9705
  34   2.0000      -0.705985       -19.2108
  35   2.0000      -0.701287       -19.0830
  36   2.0000      -0.697020       -18.9669
  37   2.0000      -0.652427       -17.7535
  38   2.0000      -0.640915       -17.4402
  39   2.0000      -0.620640       -16.8885
  40   2.0000      -0.601786       -16.3754
  41   2.0000      -0.578071       -15.7301
  42   2.0000      -0.564264       -15.3544
  43   2.0000      -0.547927       -14.9098
  44   2.0000      -0.537275       -14.6200
  45   2.0000      -0.529397       -14.4056
  46   2.0000      -0.515906       -14.0385
  47   2.0000      -0.510907       -13.9025
  48   2.0000      -0.508738       -13.8435
  49   2.0000      -0.500624       -13.6227
  50   2.0000      -0.492424       -13.3995
  51   2.0000      -0.486807       -13.2467
  52   2.0000      -0.470250       -12.7962
  53   2.0000      -0.467465       -12.7204
  54   2.0000      -0.465336       -12.6624
  55   2.0000      -0.445564       -12.1244
  56   2.0000      -0.435777       -11.8581
  57   2.0000      -0.431518       -11.7422
  58   2.0000      -0.430347       -11.7103
  59   2.0000      -0.428203       -11.6520
  60   2.0000      -0.417682       -11.3657
  61   2.0000      -0.415518       -11.3068
  62   2.0000      -0.409900       -11.1539
  63   2.0000      -0.337941        -9.1958
  64   2.0000      -0.325928        -8.8690
  65   2.0000      -0.322445        -8.7742
  66   2.0000      -0.306764        -8.3475
  67   0.0000       0.040173         1.0932
  68   0.0000       0.067886         1.8473
  69   0.0000       0.114916         3.1270
  70   0.0000       0.121345         3.3020
  71   0.0000       0.138335         3.7643

MULLIKEN ATOMIC CHARGES
-----------------------
   0 S :    0.119893
   1 C :   -0.128981
   2 C :   -0.086819
   3 C :    0.029045
   4 C :   -0.192347
   5 H :    0.021012
   6 C :    0.054687
   7 H :    0.003549
   8 H :    0.044070
   9 C :   -0.082342
  10 H :    0.038812
  11 H :    0.038486
  12 C :   -0.049828
  13 H :    0.038990
  14 H :    0.034700
  15 H :    0.044638
  16 S :    0.117537
  17 C :   -0.104640
  18 C :   -0.075967
  19 C :   -0.011662
  20 C :   -0.173628
  21 H :    0.034004
  22 C :    0.096100
  23 H :    0.014873
  24 H :    0.035771
  25 C :   -0.068486
  26 H :    0.026799
  27 H :    0.047094
  28 C :   -0.114078
  29 H :    0.046765
  30 H :    0.042251
  31 H :    0.046912
  32 H :    0.047643
  33 H :    0.065146
Sum of atomic charges:   -0.0000000

LOEWDIN ATOMIC CHARGES
----------------------
   0 S :    0.415935
   1 C :   -0.199221
   2 C :   -0.075890
   3 C :   -0.060536
   4 C :   -0.213305
   5 H :    0.036330
   6 C :   -0.038697
   7 H :    0.029322
   8 H :    0.034361
   9 C :   -0.043313
  10 H :    0.031095
  11 H :    0.031219
  12 C :   -0.072500
  13 H :    0.021884
  14 H :    0.027904
  15 H :    0.035199
  16 S :    0.456934
  17 C :   -0.205211
  18 C :   -0.083580
  19 C :   -0.054651
  20 C :   -0.224775
  21 H :    0.032196
  22 C :   -0.028592
  23 H :    0.021550
  24 H :    0.038036
  25 C :   -0.033461
  26 H :    0.020132
  27 H :    0.029529
  28 C :   -0.084683
  29 H :    0.031008
  30 H :    0.030173
  31 H :    0.031929
  32 H :    0.031701
  33 H :    0.031977

  Mayer bond orders larger than 0.100000
B(  0-S ,  1-C ) :   1.1425 B(  0-S ,  4-C ) :   1.1447 B(  1-C ,  2-C ) :   1.6318
B(  1-C , 32-H ) :   0.9586 B(  2-C ,  3-C ) :   1.2280 B(  2-C ,  6-C ) :   1.0369
B(  3-C ,  4-C ) :   1.6017 B(  3-C ,  5-H ) :   0.9805 B(  4-C , 20-C ) :   1.0226
B(  6-C ,  7-H ) :   0.9302 B(  6-C ,  8-H ) :   0.9312 B(  6-C ,  9-C ) :   1.0741
B(  9-C , 10-H ) :   0.9558 B(  9-C , 11-H ) :   0.9512 B(  9-C , 12-C ) :   1.0761
B( 12-C , 13-H ) :   0.9660 B( 12-C , 14-H ) :   0.9706 B( 12-C , 15-H ) :   0.9671
B( 16-S , 17-C ) :   1.1837 B( 16-S , 20-C ) :   1.2058 B( 17-C , 18-C ) :   1.5518
B( 17-C , 20-C ) :   0.1098 B( 17-C , 33-H ) :   0.9768 B( 18-C , 19-C ) :   1.2657
B( 18-C , 21-H ) :   0.9801 B( 19-C , 20-C ) :   1.5149 B( 19-C , 22-C ) :   1.0599
B( 22-C , 23-H ) :   0.9251 B( 22-C , 24-H ) :   0.9285 B( 22-C , 25-C ) :   1.0577
B( 25-C , 26-H ) :   0.9568 B( 25-C , 27-H ) :   0.9580 B( 25-C , 28-C ) :   1.0699
B( 28-C , 29-H ) :   0.9742 B( 28-C , 30-H ) :   0.9753 B( 28-C , 31-H ) :   0.9754

Dispersion correction           -0.014353474
FINAL SINGLE POINT ENERGY     -1339.874863829459

DIPOLE MOMENT
-------------
                                X             Y             Z
Electronic contribution:      1.58155     -22.31551      11.99785
Nuclear contribution   :     -1.66290      22.74119     -12.41244
                        -----------------------------------------
Total Dipole Moment    :     -0.08134       0.42568      -0.41459
                        -----------------------------------------
Magnitude (a.u.)       :      0.59975
Magnitude (Debye)      :      1.52445

Rotational constants in cm-1:     0.016668     0.009167     0.007701
Rotational constants in MHz :   499.684854   274.809053   230.858302

                             ****ORCA TERMINATED NORMALLY****
TOTAL RUN TIME: 0 days 0 hours 0 minutes 31 seconds 470 msec
