                         Program Version 4.2.1 -  RELEASE  -
|  1> ! wB97X-D3 SP def2-SVP
|  2> %pal
|  3> nprocs 16
|  4> end
|  5>
|  6> * xyz 0 1
|  7> S 	 -64.2487 	 60.7979 	 124.885
|  8> C 	 -63.5372 	 60.8416 	 123.281
|  9> C 	 -64.1414 	 59.8342 	 122.557
| 10> C 	 -65.1653 	 59.088 	 123.262
| 11> C 	 -65.3217 	 59.4925 	 124.537
| 12> H 	 -65.9227 	 58.4693 	 122.761
| 13> C 	 -63.6797 	 59.5143 	 121.15
| 14> H 	 -63.9683 	 58.4884 	 120.903
| 15> H 	 -62.6252 	 59.4809 	 121.139
| 16> C 	 -64.2906 	 60.4306 	 120.015
| 17> H 	 -65.3649 	 60.3621 	 119.921
| 18> H 	 -64.0811 	 61.4617 	 120.246
| 19> C 	 -63.6329 	 60.2637 	 118.714
| 20> H 	 -63.7841 	 59.2673 	 118.489
| 21> H 	 -64.0652 	 60.9202 	 117.955
| 22> H 	 -62.4961 	 60.3851 	 118.734
| 23> S 	 -67.5884 	 60.6257 	 125.717
| 24> C 	 -68.7 	 59.498 	 126.54
| 25> C 	 -68.2583 	 58.2278 	 126.603
| 26> C 	 -67.0441 	 58.0694 	 125.844
| 27> C 	 -66.4958 	 59.2896 	 125.377
| 28> H 	 -68.7574 	 57.4674 	 127.115
| 29> C 	 -66.4777 	 56.7083 	 125.624
| 30> H 	 -65.4882 	 56.8442 	 125.067
| 31> H 	 -67.2401 	 56.3385 	 124.97
| 32> C 	 -66.3562 	 55.6674 	 126.813
| 33> H 	 -67.2134 	 55.7405 	 127.431
| 34> H 	 -65.5078 	 56.0168 	 127.468
| 35> C 	 -65.9722 	 54.2773 	 126.26
| 36> H 	 -64.9062 	 54.2512 	 125.942
| 37> H 	 -66.6276 	 53.8719 	 125.445
| 38> H 	 -66.008 	 53.7057 	 127.228
| 39> H 	 -62.6085 	 61.3654 	 123.047
| 40> H 	 -69.7127 	 59.699 	 126.851
| 41> *
| 42>
| 43>                          ****END OF INPUT****

CARTESIAN COORDINATES (ANGSTROEM)
---------------------------------
  S    -64.248700   60.797900  124.885000
  C    -63.537200   60.841600  123.281000
  C    -64.141400   59.834200  122.557000
  C    -65.165300   59.088000  123.262000
  C    -65.321700   59.492500  124.537000
  H    -65.922700   58.469300  122.761000
  C    -63.679700   59.514300  121.150000
  H    -63.968300   58.488400  120.903000
  H    -62.625200   59.480900  121.139000
  C    -64.290600   60.430600  120.015000
  H    -65.364900   60.362100  119.921000
  H    -64.081100   61.461700  120.246000
  C    -63.632900   60.263700  118.714000
  H    -63.784100   59.267300  118.489000
  H    -64.065200   60.920200  117.955000
  H    -62.496100   60.385100  118.734000
  S    -67.588400   60.625700  125.717000
  C    -68.700000   59.498000  126.540000
  C    -68.258300   58.227800  126.603000
  C    -67.044100   58.069400  125.844000
  C    -66.495800   59.289600  125.377000
  H    -68.757400   57.467400  127.115000
  C    -66.477700   56.708300  125.624000
  H    -65.488200   56.844200  125.067000
  H    -67.240100   56.338500  124.970000
  C    -66.356200   55.667400  126.813000
  H    -67.213400   55.740500  127.431000
  H    -65.507800   56.016800  127.468000
  C    -65.972200   54.277300  126.260000
  H    -64.906200   54.251200  125.942000
  H    -66.627600   53.871900  125.445000
  H    -66.008000   53.705700  127.228000
  H    -62.608500   61.365400  123.047000
  H    -69.712700   59.699000  126.851000

 Total Charge           Charge          ....    0
 Multiplicity           Mult            ....    1
 Number of Electrons    NEL             ....  134
 Basis Dimension        Dim             ....  322

ORBITAL ENERGIES
----------------

  NO   OCC          E(Eh)            E(eV)
   0   2.0000     -88.965967     -2420.8870
   1   2.0000     -88.959715     -2420.7169
   2   2.0000     -10.325608      -280.9741
   3   2.0000     -10.325191      -280.9627
   4   2.0000     -10.315220      -280.6914
   5   2.0000     -10.315206      -280.6910
   6   2.0000     -10.302477      -280.3446
   7   2.0000     -10.302324      -280.3405
   8   2.0000     -10.294219      -280.1199
   9   2.0000     -10.293726      -280.1065
  10   2.0000     -10.291059      -280.0340
  11   2.0000     -10.290429      -280.0168
  12   2.0000     -10.289302      -279.9861
  13   2.0000     -10.287047      -279.9248
  14   2.0000     -10.279524      -279.7201
  15   2.0000     -10.271431      -279.4998
  16   2.0000      -8.079799      -219.8625
  17   2.0000      -8.075233      -219.7383
  18   2.0000      -6.038487      -164.3156
  19   2.0000      -6.034548      -164.2084
  20   2.0000      -6.033733      -164.1862
  21   2.0000      -6.030292      -164.0926
  22   2.0000      -6.029507      -164.0712
  23   2.0000      -6.026037      -163.9768
  24   2.0000      -1.008168       -27.4337
  25   2.0000      -0.982247       -26.7283
  26   2.0000      -0.913354       -24.8536
  27   2.0000      -0.903129       -24.5754
  28   2.0000      -0.875798       -23.8317
  29   2.0000      -0.851000       -23.1569
  30   2.0000      -0.847464       -23.0607
  31   2.0000      -0.822512       -22.3817
  32   2.0000      -0.778480       -21.1835
  33   2.0000      -0.762184       -20.7401
  34   2.0000      -0.704872       -19.1806
  35   2.0000      -0.697964       -18.9926
  36   2.0000      -0.696348       -18.9486
  37   2.0000      -0.658303       -17.9133
  38   2.0000      -0.644962       -17.5503
  39   2.0000      -0.618343       -16.8260
  40   2.0000      -0.589560       -16.0427
  41   2.0000      -0.573351       -15.6017
  42   2.0000      -0.564793       -15.3688
  43   2.0000      -0.559915       -15.2361
  44   2.0000      -0.535068       -14.5599
  45   2.0000      -0.526009       -14.3134
  46   2.0000      -0.517647       -14.0859
  47   2.0000      -0.516643       -14.0586
  48   2.0000      -0.506886       -13.7931
  49   2.0000      -0.501305       -13.6412
  50   2.0000      -0.493793       -13.4368
  51   2.0000      -0.477934       -13.0053
  52   2.0000      -0.469483       -12.7753
  53   2.0000      -0.461979       -12.5711
  54   2.0000      -0.459419       -12.5014
  55   2.0000      -0.449481       -12.2310
  56   2.0000      -0.445777       -12.1302
  57   2.0000      -0.433036       -11.7835
  58   2.0000      -0.428271       -11.6539
  59   2.0000      -0.424659       -11.5555
  60   2.0000      -0.418200       -11.3798
  61   2.0000      -0.411057       -11.1854
  62   2.0000      -0.405961       -11.0468
  63   2.0000      -0.353811        -9.6277
  64   2.0000      -0.326869        -8.8946
  65   2.0000      -0.324148        -8.8205
  66   2.0000      -0.292255        -7.9527
  67   0.0000       0.036840         1.0025
  68   0.0000       0.065388         1.7793
  69   0.0000       0.116264         3.1637
  70   0.0000       0.120283         3.2731
  71   0.0000       0.128107         3.4860

MULLIKEN ATOMIC CHARGES
-----------------------
   0 S :    0.083971
   1 C :   -0.111458
   2 C :   -0.122093
   3 C :    0.045445
   4 C :   -0.157075
   5 H :    0.030851
   6 C :    0.059251
   7 H :    0.011595
   8 H :    0.015989
   9 C :   -0.054926
  10 H :    0.029788
  11 H :    0.014654
  12 C :   -0.027516
  13 H :    0.001847
  14 H :    0.039994
  15 H :    0.032522
  16 S :    0.112642
  17 C :   -0.077049
  18 C :   -0.010729
  19 C :   -0.048430
  20 C :   -0.133464
  21 H :    0.000402
  22 C :    0.019993
  23 H :    0.045229
  24 H :    0.029812
  25 C :   -0.078890
  26 H :    0.022053
  27 H :    0.043140
  28 C :   -0.074244
  29 H :    0.046653
  30 H :    0.051462
  31 H :    0.044640
  32 H :    0.065428
  33 H :    0.048513
Sum of atomic charges:    0.0000000

LOEWDIN ATOMIC CHARGES
----------------------
   0 S :    0.407042
   1 C :   -0.195433
   2 C :   -0.062053
   3 C :   -0.068218
   4 C :   -0.199950
   5 H :    0.038342
   6 C :   -0.027982
   7 H :    0.026945
   8 H :    0.024335
   9 C :   -0.038123
  10 H :    0.025244
  11 H :    0.018789
  12 C :   -0.063448
  13 H :    0.010059
  14 H :    0.029627
  15 H :    0.031141
  16 S :    0.387933
  17 C :   -0.166522
  18 C :   -0.066423
  19 C :   -0.049511
  20 C :   -0.209149
  21 H :    0.023395
  22 C :   -0.045746
  23 H :    0.038774
  24 H :    0.030882
  25 C :   -0.038889
  26 H :    0.013157
  27 H :    0.034849
  28 C :   -0.072737
  29 H :    0.032121
  30 H :    0.030196
  31 H :    0.036465
  32 H :    0.035666
  33 H :    0.029222

  Mayer bond orders larger than 0.100000
B(  0-S ,  1-C ) :   1.1241 B(  0-S ,  4-C ) :   1.1614 B(  1-C ,  2-C ) :   1.6089
B(  1-C , 32-H ) :   0.9717 B(  2-C ,  3-C ) :   1.2495 B(  2-C ,  6-C ) :   1.0268
B(  3-C ,  4-C ) :   1.5745 B(  3-C ,  5-H ) :   0.9841 B(  4-C , 20-C ) :   1.0147
B(  6-C ,  7-H ) :   0.9411 B(  6-C ,  8-H ) :   0.9468 B(  6-C ,  9-C ) :   1.0535
B(  9-C , 10-H ) :   0.9544 B(  9-C , 11-H ) :   0.9580 B(  9-C , 12-C ) :   1.0890
B( 12-C , 13-H ) :   0.9712 B( 12-C , 14-H ) :   0.9699 B( 12-C , 15-H ) :   0.9724
B( 16-S , 17-C ) :   1.1396 B( 16-S , 20-C ) :   1.1152 B( 17-C , 18-C ) :   1.6466
B( 17-C , 33-H ) :   0.9601 B( 18-C , 19-C ) :   1.2180 B( 18-C , 21-H ) :   0.9957
B( 19-C , 20-C ) :   1.6085 B( 19-C , 22-C ) :   1.0441 B( 22-C , 23-H ) :   0.9347
B( 22-C , 24-H ) :   0.9274 B( 22-C , 25-C ) :   1.0575 B( 25-C , 26-H ) :   0.9593
B( 25-C , 27-H ) :   0.9534 B( 25-C , 28-C ) :   1.0696 B( 28-C , 29-H ) :   0.9746
B( 28-C , 30-H ) :   0.9765 B( 28-C , 31-H ) :   0.9740

Dispersion correction           -0.013249898
FINAL SINGLE POINT ENERGY     -1339.859294822301

DIPOLE MOMENT
-------------
                                X             Y             Z
Electronic contribution:     -5.89073      18.55299      15.61431
Nuclear contribution   :      5.78395     -19.15296     -15.97277
                        -----------------------------------------
Total Dipole Moment    :     -0.10679      -0.59998      -0.35845
                        -----------------------------------------
Magnitude (a.u.)       :      0.70701
Magnitude (Debye)      :      1.79708

Rotational constants in cm-1:     0.018720     0.007309     0.006132
Rotational constants in MHz :   561.208368   219.126953   183.836300

                             ****ORCA TERMINATED NORMALLY****
TOTAL RUN TIME: 0 days 0 hours 0 minutes 32 seconds 292 msec
