                         Program Version 4.2.1 -  RELEASE  -
|  1> ! wB97X-D3 SP def2-SVP
|  2> %pal
|  3> nprocs 16
|  4> end
|  5>
|  6> * xyz 0 1
|  7> S 	 -14.6159 	 -5.219 	 87.609
|  8> C 	 -14.8135 	 -4.27809 	 86.1151
|  9> C 	 -15.7769 	 -3.33016 	 86.274
| 10> C 	 -16.3893 	 -3.33782 	 87.5951
| 11> C 	 -15.9104 	 -4.36224 	 88.3818
| 12> H 	 -17.0214 	 -2.63517 	 87.9419
| 13> C 	 -16.2207 	 -2.37795 	 85.1407
| 14> H 	 -16.9638 	 -1.75036 	 85.5611
| 15> H 	 -16.7329 	 -2.9932 	 84.4356
| 16> C 	 -15.1761 	 -1.62417 	 84.255
| 17> H 	 -14.4204 	 -2.31204 	 83.9569
| 18> H 	 -15.6332 	 -1.48468 	 83.2791
| 19> C 	 -14.666 	 -0.382501 	 84.8865
| 20> H 	 -13.9524 	 0.0637253 	 84.1908
| 21> H 	 -15.4174 	 0.35337 	 85.0709
| 22> H 	 -14.0841 	 -0.566518 	 85.7659
| 23> S 	 -14.7385 	 -4.44343 	 90.8666
| 24> C 	 -15.7854 	 -4.64599 	 92.2481
| 25> C 	 -17.1245 	 -4.73029 	 91.8321
| 26> C 	 -17.3225 	 -4.484 	 90.439
| 27> C 	 -16.1701 	 -4.53554 	 89.7634
| 28> H 	 -17.9143 	 -4.79281 	 92.5549
| 29> C 	 -18.7039 	 -4.47042 	 89.7814
| 30> H 	 -18.6084 	 -4.77 	 88.7165
| 31> H 	 -19.064 	 -3.53224 	 89.8263
| 32> C 	 -19.8347 	 -5.37762 	 90.3351
| 33> H 	 -20.1198 	 -5.07104 	 91.3363
| 34> H 	 -19.4322 	 -6.34675 	 90.5452
| 35> C 	 -21.1002 	 -5.43806 	 89.4793
| 36> H 	 -21.6403 	 -6.36892 	 89.7084
| 37> H 	 -20.7769 	 -5.53781 	 88.4394
| 38> H 	 -21.6796 	 -4.55251 	 89.5573
| 39> H 	 -14.387 	 -4.39849 	 85.1543
| 40> H 	 -15.4636 	 -4.63337 	 93.2822
| 41> *
| 42>
| 43>                          ****END OF INPUT****

CARTESIAN COORDINATES (ANGSTROEM)
---------------------------------
  S    -14.615900   -5.219000   87.609000
  C    -14.813500   -4.278090   86.115100
  C    -15.776900   -3.330160   86.274000
  C    -16.389300   -3.337820   87.595100
  C    -15.910400   -4.362240   88.381800
  H    -17.021400   -2.635170   87.941900
  C    -16.220700   -2.377950   85.140700
  H    -16.963800   -1.750360   85.561100
  H    -16.732900   -2.993200   84.435600
  C    -15.176100   -1.624170   84.255000
  H    -14.420400   -2.312040   83.956900
  H    -15.633200   -1.484680   83.279100
  C    -14.666000   -0.382501   84.886500
  H    -13.952400    0.063725   84.190800
  H    -15.417400    0.353370   85.070900
  H    -14.084100   -0.566518   85.765900
  S    -14.738500   -4.443430   90.866600
  C    -15.785400   -4.645990   92.248100
  C    -17.124500   -4.730290   91.832100
  C    -17.322500   -4.484000   90.439000
  C    -16.170100   -4.535540   89.763400
  H    -17.914300   -4.792810   92.554900
  C    -18.703900   -4.470420   89.781400
  H    -18.608400   -4.770000   88.716500
  H    -19.064000   -3.532240   89.826300
  C    -19.834700   -5.377620   90.335100
  H    -20.119800   -5.071040   91.336300
  H    -19.432200   -6.346750   90.545200
  C    -21.100200   -5.438060   89.479300
  H    -21.640300   -6.368920   89.708400
  H    -20.776900   -5.537810   88.439400
  H    -21.679600   -4.552510   89.557300
  H    -14.387000   -4.398490   85.154300
  H    -15.463600   -4.633370   93.282200

 Total Charge           Charge          ....    0
 Multiplicity           Mult            ....    1
 Number of Electrons    NEL             ....  134
 Basis Dimension        Dim             ....  322

ORBITAL ENERGIES
----------------

  NO   OCC          E(Eh)            E(eV)
   0   2.0000     -88.965313     -2420.8692
   1   2.0000     -88.963037     -2420.8073
   2   2.0000     -10.323513      -280.9171
   3   2.0000     -10.320301      -280.8297
   4   2.0000     -10.319721      -280.8139
   5   2.0000     -10.307337      -280.4769
   6   2.0000     -10.299515      -280.2641
   7   2.0000     -10.299495      -280.2635
   8   2.0000     -10.293790      -280.1083
   9   2.0000     -10.287338      -279.9327
  10   2.0000     -10.286874      -279.9201
  11   2.0000     -10.285935      -279.8945
  12   2.0000     -10.284844      -279.8648
  13   2.0000     -10.281973      -279.7867
  14   2.0000     -10.278061      -279.6803
  15   2.0000     -10.270111      -279.4639
  16   2.0000      -8.079802      -219.8626
  17   2.0000      -8.077231      -219.7926
  18   2.0000      -6.038468      -164.3151
  19   2.0000      -6.035875      -164.2445
  20   2.0000      -6.034331      -164.2025
  21   2.0000      -6.031898      -164.1363
  22   2.0000      -6.030402      -164.0956
  23   2.0000      -6.027776      -164.0241
  24   2.0000      -1.008391       -27.4397
  25   2.0000      -0.980324       -26.6760
  26   2.0000      -0.912483       -24.8299
  27   2.0000      -0.908423       -24.7194
  28   2.0000      -0.874386       -23.7933
  29   2.0000      -0.856057       -23.2945
  30   2.0000      -0.843823       -22.9616
  31   2.0000      -0.812485       -22.1088
  32   2.0000      -0.787158       -21.4196
  33   2.0000      -0.778385       -21.1809
  34   2.0000      -0.712919       -19.3995
  35   2.0000      -0.707652       -19.2562
  36   2.0000      -0.701683       -19.0938
  37   2.0000      -0.661532       -18.0012
  38   2.0000      -0.641019       -17.4430
  39   2.0000      -0.613779       -16.7018
  40   2.0000      -0.598041       -16.2735
  41   2.0000      -0.572143       -15.5688
  42   2.0000      -0.570806       -15.5324
  43   2.0000      -0.551948       -15.0193
  44   2.0000      -0.542189       -14.7537
  45   2.0000      -0.528513       -14.3816
  46   2.0000      -0.520764       -14.1707
  47   2.0000      -0.518766       -14.1163
  48   2.0000      -0.503971       -13.7137
  49   2.0000      -0.501648       -13.6505
  50   2.0000      -0.489940       -13.3319
  51   2.0000      -0.482247       -13.1226
  52   2.0000      -0.473841       -12.8939
  53   2.0000      -0.464471       -12.6389
  54   2.0000      -0.464168       -12.6307
  55   2.0000      -0.451610       -12.2889
  56   2.0000      -0.443510       -12.0685
  57   2.0000      -0.438481       -11.9317
  58   2.0000      -0.428510       -11.6604
  59   2.0000      -0.424218       -11.5436
  60   2.0000      -0.420966       -11.4551
  61   2.0000      -0.418554       -11.3894
  62   2.0000      -0.413296       -11.2464
  63   2.0000      -0.349122        -9.5001
  64   2.0000      -0.333294        -9.0694
  65   2.0000      -0.325921        -8.8688
  66   2.0000      -0.289942        -7.8897
  67   0.0000       0.030421         0.8278
  68   0.0000       0.068646         1.8679
  69   0.0000       0.111760         3.0411
  70   0.0000       0.121234         3.2990
  71   0.0000       0.131752         3.5852

MULLIKEN ATOMIC CHARGES
-----------------------
   0 S :    0.107816
   1 C :   -0.103950
   2 C :   -0.096828
   3 C :    0.068064
   4 C :   -0.151902
   5 H :   -0.032436
   6 C :    0.076267
   7 H :    0.000507
   8 H :    0.026153
   9 C :   -0.047822
  10 H :    0.005012
  11 H :    0.015853
  12 C :   -0.007016
  13 H :    0.023258
  14 H :    0.026586
  15 H :    0.035855
  16 S :    0.097378
  17 C :   -0.088183
  18 C :   -0.028389
  19 C :   -0.028231
  20 C :   -0.138005
  21 H :    0.008868
  22 C :    0.080371
  23 H :    0.039877
  24 H :    0.004197
  25 C :   -0.087604
  26 H :    0.014306
  27 H :    0.020823
  28 C :   -0.025504
  29 H :    0.042555
  30 H :    0.022368
  31 H :    0.033369
  32 H :    0.025617
  33 H :    0.060770
Sum of atomic charges:   -0.0000000

LOEWDIN ATOMIC CHARGES
----------------------
   0 S :    0.401759
   1 C :   -0.192390
   2 C :   -0.055001
   3 C :   -0.046456
   4 C :   -0.193496
   5 H :    0.010840
   6 C :   -0.027635
   7 H :    0.020987
   8 H :    0.032224
   9 C :   -0.038122
  10 H :    0.019123
  11 H :    0.025895
  12 C :   -0.060036
  13 H :    0.028564
  14 H :    0.022833
  15 H :    0.027767
  16 S :    0.378757
  17 C :   -0.182178
  18 C :   -0.068485
  19 C :   -0.053152
  20 C :   -0.177929
  21 H :    0.024919
  22 C :   -0.021777
  23 H :    0.036360
  24 H :    0.014643
  25 C :   -0.040819
  26 H :    0.016833
  27 H :    0.019697
  28 C :   -0.058293
  29 H :    0.034860
  30 H :    0.025167
  31 H :    0.021307
  32 H :    0.022150
  33 H :    0.031082

  Mayer bond orders larger than 0.100000
B(  0-S ,  1-C ) :   1.1064 B(  0-S ,  4-C ) :   1.1475 B(  1-C ,  2-C ) :   1.6519
B(  1-C , 32-H ) :   0.9719 B(  2-C ,  3-C ) :   1.2187 B(  2-C ,  6-C ) :   1.0089
B(  3-C ,  4-C ) :   1.5568 B(  3-C ,  5-H ) :   1.0119 B(  4-C , 20-C ) :   1.0571
B(  6-C ,  7-H ) :   0.9445 B(  6-C ,  8-H ) :   0.9337 B(  6-C ,  9-C ) :   1.0790
B(  9-C , 10-H ) :   0.9475 B(  9-C , 11-H ) :   0.9497 B(  9-C , 12-C ) :   1.0871
B( 12-C , 13-H ) :   0.9682 B( 12-C , 14-H ) :   0.9743 B( 12-C , 15-H ) :   0.9749
B( 16-S , 17-C ) :   1.1477 B( 16-S , 20-C ) :   1.1087 B( 17-C , 18-C ) :   1.6130
B( 17-C , 33-H ) :   0.9681 B( 18-C , 19-C ) :   1.2190 B( 18-C , 21-H ) :   0.9888
B( 19-C , 20-C ) :   1.6549 B( 19-C , 22-C ) :   1.0359 B( 22-C , 23-H ) :   0.9414
B( 22-C , 24-H ) :   0.9175 B( 22-C , 25-C ) :   1.0714 B( 25-C , 26-H ) :   0.9433
B( 25-C , 27-H ) :   0.9597 B( 25-C , 28-C ) :   1.0863 B( 28-C , 29-H ) :   0.9722
B( 28-C , 30-H ) :   0.9751 B( 28-C , 31-H ) :   0.9764

Dispersion correction           -0.013571567
FINAL SINGLE POINT ENERGY     -1339.864135940855

DIPOLE MOMENT
-------------
                                X             Y             Z
Electronic contribution:     18.35475     -10.38989      12.88093
Nuclear contribution   :    -18.93444      10.79953     -13.13043
                        -----------------------------------------
Total Dipole Moment    :     -0.57969       0.40963      -0.24950
                        -----------------------------------------
Magnitude (a.u.)       :      0.75239
Magnitude (Debye)      :      1.91243

Rotational constants in cm-1:     0.018446     0.007886     0.006363
Rotational constants in MHz :   552.990170   236.430200   190.770963

                             ****ORCA TERMINATED NORMALLY****
TOTAL RUN TIME: 0 days 0 hours 0 minutes 32 seconds 641 msec
