                         Program Version 4.2.1 -  RELEASE  -
|  1> ! wB97X-D3 SP def2-SVP
|  2> %pal
|  3> nprocs 16
|  4> end
|  5>
|  6> * xyz 0 1
|  7> S 	 11.399 	 11.3495 	 83.8516
|  8> C 	 11.7562 	 10.865 	 82.1401
|  9> C 	 10.6614 	 10.24 	 81.541
| 10> C 	 9.57177 	 10.1083 	 82.4094
| 11> C 	 9.7964 	 10.6581 	 83.6413
| 12> H 	 8.56471 	 9.84146 	 82.1817
| 13> C 	 10.5638 	 9.8489 	 80.1195
| 14> H 	 9.98473 	 8.88243 	 80.0107
| 15> H 	 11.5535 	 9.66823 	 79.8093
| 16> C 	 9.99612 	 10.9331 	 79.162
| 17> H 	 10.7525 	 11.6706 	 79.2397
| 18> H 	 9.97868 	 10.524 	 78.2095
| 19> C 	 8.57936 	 11.3262 	 79.5937
| 20> H 	 8.24074 	 11.9787 	 78.835
| 21> H 	 7.96226 	 10.3708 	 79.6106
| 22> H 	 8.44558 	 11.6716 	 80.5974
| 23> S 	 8.11086 	 12.1969 	 85.3411
| 24> C 	 7.20252 	 11.4175 	 86.5827
| 25> C 	 7.35197 	 10.0681 	 86.5337
| 26> C 	 8.38348 	 9.65057 	 85.5993
| 27> C 	 8.86124 	 10.6738 	 84.7701
| 28> H 	 6.77163 	 9.32891 	 87.1332
| 29> C 	 8.90441 	 8.21097 	 85.3583
| 30> H 	 9.35121 	 7.9561 	 84.3894
| 31> H 	 8.01452 	 7.60006 	 85.5611
| 32> C 	 10.0212 	 7.75106 	 86.3828
| 33> H 	 9.9084 	 7.84593 	 87.3868
| 34> H 	 10.9049 	 8.38024 	 86.1363
| 35> C 	 10.393 	 6.21565 	 86.221
| 36> H 	 10.9289 	 6.04811 	 85.3036
| 37> H 	 9.42498 	 5.71373 	 86.1597
| 38> H 	 10.9126 	 5.85867 	 87.0677
| 39> H 	 12.61 	 11.1284 	 81.5227
| 40> H 	 6.57475 	 11.7982 	 87.3105
| 41> *
| 42>
| 43>                          ****END OF INPUT****

CARTESIAN COORDINATES (ANGSTROEM)
---------------------------------
  S     11.399000   11.349500   83.851600
  C     11.756200   10.865000   82.140100
  C     10.661400   10.240000   81.541000
  C      9.571770   10.108300   82.409400
  C      9.796400   10.658100   83.641300
  H      8.564710    9.841460   82.181700
  C     10.563800    9.848900   80.119500
  H      9.984730    8.882430   80.010700
  H     11.553500    9.668230   79.809300
  C      9.996120   10.933100   79.162000
  H     10.752500   11.670600   79.239700
  H      9.978680   10.524000   78.209500
  C      8.579360   11.326200   79.593700
  H      8.240740   11.978700   78.835000
  H      7.962260   10.370800   79.610600
  H      8.445580   11.671600   80.597400
  S      8.110860   12.196900   85.341100
  C      7.202520   11.417500   86.582700
  C      7.351970   10.068100   86.533700
  C      8.383480    9.650570   85.599300
  C      8.861240   10.673800   84.770100
  H      6.771630    9.328910   87.133200
  C      8.904410    8.210970   85.358300
  H      9.351210    7.956100   84.389400
  H      8.014520    7.600060   85.561100
  C     10.021200    7.751060   86.382800
  H      9.908400    7.845930   87.386800
  H     10.904900    8.380240   86.136300
  C     10.393000    6.215650   86.221000
  H     10.928900    6.048110   85.303600
  H      9.424980    5.713730   86.159700
  H     10.912600    5.858670   87.067700
  H     12.610000   11.128400   81.522700
  H      6.574750   11.798200   87.310500

 Total Charge           Charge          ....    0
 Multiplicity           Mult            ....    1
 Number of Electrons    NEL             ....  134
 Basis Dimension        Dim             ....  322

ORBITAL ENERGIES
----------------

  NO   OCC          E(Eh)            E(eV)
   0   2.0000     -88.972352     -2421.0608
   1   2.0000     -88.963485     -2420.8195
   2   2.0000     -10.330482      -281.1067
   3   2.0000     -10.327132      -281.0155
   4   2.0000     -10.320042      -280.8226
   5   2.0000     -10.312774      -280.6249
   6   2.0000     -10.308680      -280.5134
   7   2.0000     -10.298887      -280.2470
   8   2.0000     -10.298235      -280.2292
   9   2.0000     -10.296419      -280.1798
  10   2.0000     -10.290372      -280.0152
  11   2.0000     -10.287202      -279.9290
  12   2.0000     -10.280870      -279.7567
  13   2.0000     -10.278339      -279.6878
  14   2.0000     -10.276377      -279.6344
  15   2.0000     -10.271226      -279.4943
  16   2.0000      -8.085607      -220.0205
  17   2.0000      -8.078000      -219.8135
  18   2.0000      -6.044157      -164.4699
  19   2.0000      -6.040418      -164.3681
  20   2.0000      -6.036607      -164.2644
  21   2.0000      -6.036299      -164.2560
  22   2.0000      -6.032415      -164.1503
  23   2.0000      -6.028776      -164.0513
  24   2.0000      -1.003482       -27.3061
  25   2.0000      -0.983005       -26.7489
  26   2.0000      -0.918404       -24.9911
  27   2.0000      -0.895949       -24.3800
  28   2.0000      -0.868185       -23.6245
  29   2.0000      -0.849723       -23.1221
  30   2.0000      -0.841232       -22.8911
  31   2.0000      -0.819737       -22.3062
  32   2.0000      -0.783513       -21.3205
  33   2.0000      -0.767556       -20.8863
  34   2.0000      -0.709651       -19.3106
  35   2.0000      -0.707100       -19.2412
  36   2.0000      -0.695563       -18.9272
  37   2.0000      -0.655861       -17.8469
  38   2.0000      -0.641859       -17.4659
  39   2.0000      -0.616339       -16.7714
  40   2.0000      -0.596650       -16.2357
  41   2.0000      -0.580576       -15.7983
  42   2.0000      -0.558869       -15.2076
  43   2.0000      -0.553620       -15.0648
  44   2.0000      -0.549780       -14.9603
  45   2.0000      -0.522223       -14.2104
  46   2.0000      -0.514293       -13.9946
  47   2.0000      -0.508614       -13.8401
  48   2.0000      -0.505337       -13.7509
  49   2.0000      -0.496428       -13.5085
  50   2.0000      -0.488946       -13.3049
  51   2.0000      -0.476058       -12.9542
  52   2.0000      -0.472836       -12.8665
  53   2.0000      -0.464201       -12.6315
  54   2.0000      -0.460903       -12.5418
  55   2.0000      -0.447327       -12.1724
  56   2.0000      -0.446229       -12.1425
  57   2.0000      -0.437121       -11.8947
  58   2.0000      -0.430667       -11.7190
  59   2.0000      -0.427287       -11.6271
  60   2.0000      -0.422951       -11.5091
  61   2.0000      -0.417883       -11.3712
  62   2.0000      -0.403991       -10.9931
  63   2.0000      -0.338538        -9.2121
  64   2.0000      -0.329566        -8.9679
  65   2.0000      -0.326044        -8.8721
  66   2.0000      -0.304347        -8.2817
  67   0.0000       0.032801         0.8926
  68   0.0000       0.060459         1.6452
  69   0.0000       0.105524         2.8715
  70   0.0000       0.120355         3.2750
  71   0.0000       0.123079         3.3492

MULLIKEN ATOMIC CHARGES
-----------------------
   0 S :    0.122271
   1 C :   -0.114060
   2 C :   -0.092661
   3 C :    0.057647
   4 C :   -0.174460
   5 H :    0.008880
   6 C :    0.037020
   7 H :    0.035002
   8 H :    0.001780
   9 C :    0.001150
  10 H :    0.014356
  11 H :    0.019676
  12 C :   -0.057960
  13 H :    0.035856
  14 H :    0.023622
  15 H :    0.051201
  16 S :    0.102188
  17 C :   -0.039886
  18 C :   -0.049648
  19 C :   -0.025815
  20 C :   -0.181620
  21 H :    0.034504
  22 C :    0.051860
  23 H :    0.042199
  24 H :    0.019546
  25 C :   -0.075649
  26 H :    0.006064
  27 H :    0.029697
  28 C :   -0.040987
  29 H :    0.033644
  30 H :    0.022021
  31 H :    0.031514
  32 H :    0.041545
  33 H :    0.029500
Sum of atomic charges:    0.0000000

LOEWDIN ATOMIC CHARGES
----------------------
   0 S :    0.389262
   1 C :   -0.183520
   2 C :   -0.061372
   3 C :   -0.055542
   4 C :   -0.186867
   5 H :    0.032294
   6 C :   -0.033192
   7 H :    0.033703
   8 H :    0.020773
   9 C :   -0.019585
  10 H :    0.018057
  11 H :    0.017650
  12 C :   -0.061566
  13 H :    0.022462
  14 H :    0.030837
  15 H :    0.024676
  16 S :    0.394268
  17 C :   -0.179550
  18 C :   -0.078630
  19 C :   -0.048543
  20 C :   -0.202001
  21 H :    0.038493
  22 C :   -0.027996
  23 H :    0.034965
  24 H :    0.026074
  25 C :   -0.033053
  26 H :    0.005066
  27 H :    0.025175
  28 C :   -0.058558
  29 H :    0.021744
  30 H :    0.023793
  31 H :    0.020482
  32 H :    0.028025
  33 H :    0.022177

  Mayer bond orders larger than 0.100000
B(  0-S ,  1-C ) :   1.1187 B(  0-S ,  4-C ) :   1.1514 B(  1-C ,  2-C ) :   1.6289
B(  1-C ,  4-C ) :   0.1015 B(  1-C , 32-H ) :   0.9621 B(  2-C ,  3-C ) :   1.2200
B(  2-C ,  6-C ) :   1.0353 B(  3-C ,  4-C ) :   1.5999 B(  3-C ,  5-H ) :   0.9957
B(  4-C , 20-C ) :   1.0194 B(  6-C ,  7-H ) :   0.9405 B(  6-C ,  8-H ) :   0.9296
B(  6-C ,  9-C ) :   1.0726 B(  9-C , 10-H ) :   0.9519 B(  9-C , 11-H ) :   0.9534
B(  9-C , 12-C ) :   1.0822 B( 12-C , 13-H ) :   0.9731 B( 12-C , 14-H ) :   0.9712
B( 12-C , 15-H ) :   0.9708 B( 16-S , 17-C ) :   1.1567 B( 16-S , 20-C ) :   1.1165
B( 17-C , 18-C ) :   1.6181 B( 17-C , 33-H ) :   0.9704 B( 18-C , 19-C ) :   1.2445
B( 18-C , 21-H ) :   0.9785 B( 19-C , 20-C ) :   1.6064 B( 19-C , 22-C ) :   1.0361
B( 22-C , 23-H ) :   0.9468 B( 22-C , 24-H ) :   0.9347 B( 22-C , 25-C ) :   1.0488
B( 25-C , 26-H ) :   0.9665 B( 25-C , 27-H ) :   0.9576 B( 25-C , 28-C ) :   1.0726
B( 28-C , 29-H ) :   0.9789 B( 28-C , 30-H ) :   0.9763 B( 28-C , 31-H ) :   0.9792

Dispersion correction           -0.014742453
FINAL SINGLE POINT ENERGY     -1339.855964808109

DIPOLE MOMENT
-------------
                                X             Y             Z
Electronic contribution:      0.26938      17.64994      11.00821
Nuclear contribution   :     -0.44116     -18.05725     -11.32772
                        -----------------------------------------
Total Dipole Moment    :     -0.17178      -0.40731      -0.31951
                        -----------------------------------------
Magnitude (a.u.)       :      0.54543
Magnitude (Debye)      :      1.38637

Rotational constants in cm-1:     0.017688     0.008928     0.007410
Rotational constants in MHz :   530.272112   267.646429   222.134873

                             ****ORCA TERMINATED NORMALLY****
TOTAL RUN TIME: 0 days 0 hours 0 minutes 35 seconds 316 msec
