                         Program Version 4.2.1 -  RELEASE  -
|  1> ! wB97X-D3 SP def2-SVP
|  2> %pal
|  3> nprocs 16
|  4> end
|  5>
|  6> * xyz 0 1
|  7> S 	 44.504 	 22.247 	 88.5985
|  8> C 	 45.8882 	 23.2951 	 88.5518
|  9> C 	 47.0515 	 22.6811 	 88.9039
| 10> C 	 46.8232 	 21.3105 	 89.188
| 11> C 	 45.556 	 20.8384 	 88.9021
| 12> H 	 47.5891 	 20.6448 	 89.5621
| 13> C 	 48.2808 	 23.4458 	 89.4187
| 14> H 	 48.5436 	 23.1359 	 90.4747
| 15> H 	 48.1616 	 24.4848 	 89.6373
| 16> C 	 49.4785 	 23.3425 	 88.4675
| 17> H 	 49.9381 	 22.3249 	 88.3852
| 18> H 	 49.1314 	 23.6238 	 87.4669
| 19> C 	 50.6133 	 24.2407 	 89.0175
| 20> H 	 50.3685 	 25.2655 	 88.8768
| 21> H 	 50.8575 	 24.152 	 90.1088
| 22> H 	 51.5264 	 23.9117 	 88.4262
| 23> S 	 43.6207 	 19.4567 	 90.2534
| 24> C 	 43.819 	 17.6792 	 90.3839
| 25> C 	 44.7154 	 17.1378 	 89.494
| 26> C 	 45.5204 	 18.2004 	 88.9759
| 27> C 	 45.0624 	 19.472 	 89.2529
| 28> H 	 44.697 	 16.075 	 89.2754
| 29> C 	 46.7504 	 17.862 	 88.1115
| 30> H 	 46.9345 	 18.7779 	 87.5907
| 31> H 	 46.5498 	 17.069 	 87.4277
| 32> C 	 47.9598 	 17.3393 	 88.9309
| 33> H 	 48.7027 	 16.9416 	 88.29
| 34> H 	 47.6595 	 16.4512 	 89.5185
| 35> C 	 48.8307 	 18.3856 	 89.6756
| 36> H 	 48.1337 	 18.6284 	 90.4507
| 37> H 	 49.2313 	 19.2242 	 88.9985
| 38> H 	 49.7416 	 17.9804 	 90.1503
| 39> H 	 45.8377 	 24.3055 	 88.3384
| 40> H 	 43.003 	 17.0823 	 90.8724
| 41> *
| 42>
| 43>                          ****END OF INPUT****

CARTESIAN COORDINATES (ANGSTROEM)
---------------------------------
  S     44.504000   22.247000   88.598500
  C     45.888200   23.295100   88.551800
  C     47.051500   22.681100   88.903900
  C     46.823200   21.310500   89.188000
  C     45.556000   20.838400   88.902100
  H     47.589100   20.644800   89.562100
  C     48.280800   23.445800   89.418700
  H     48.543600   23.135900   90.474700
  H     48.161600   24.484800   89.637300
  C     49.478500   23.342500   88.467500
  H     49.938100   22.324900   88.385200
  H     49.131400   23.623800   87.466900
  C     50.613300   24.240700   89.017500
  H     50.368500   25.265500   88.876800
  H     50.857500   24.152000   90.108800
  H     51.526400   23.911700   88.426200
  S     43.620700   19.456700   90.253400
  C     43.819000   17.679200   90.383900
  C     44.715400   17.137800   89.494000
  C     45.520400   18.200400   88.975900
  C     45.062400   19.472000   89.252900
  H     44.697000   16.075000   89.275400
  C     46.750400   17.862000   88.111500
  H     46.934500   18.777900   87.590700
  H     46.549800   17.069000   87.427700
  C     47.959800   17.339300   88.930900
  H     48.702700   16.941600   88.290000
  H     47.659500   16.451200   89.518500
  C     48.830700   18.385600   89.675600
  H     48.133700   18.628400   90.450700
  H     49.231300   19.224200   88.998500
  H     49.741600   17.980400   90.150300
  H     45.837700   24.305500   88.338400
  H     43.003000   17.082300   90.872400

 Total Charge           Charge          ....    0
 Multiplicity           Mult            ....    1
 Number of Electrons    NEL             ....  134
 Basis Dimension        Dim             ....  322

ORBITAL ENERGIES
----------------

  NO   OCC          E(Eh)            E(eV)
   0   2.0000     -88.967659     -2420.9331
   1   2.0000     -88.964674     -2420.8519
   2   2.0000     -10.332484      -281.1612
   3   2.0000     -10.330213      -281.0994
   4   2.0000     -10.321492      -280.8621
   5   2.0000     -10.308326      -280.5038
   6   2.0000     -10.304401      -280.3970
   7   2.0000     -10.298060      -280.2245
   8   2.0000     -10.296271      -280.1758
   9   2.0000     -10.295009      -280.1414
  10   2.0000     -10.290206      -280.0108
  11   2.0000     -10.289988      -280.0048
  12   2.0000     -10.288653      -279.9685
  13   2.0000     -10.285319      -279.8778
  14   2.0000     -10.283999      -279.8418
  15   2.0000     -10.283375      -279.8249
  16   2.0000      -8.082038      -219.9234
  17   2.0000      -8.079048      -219.8421
  18   2.0000      -6.040673      -164.3751
  19   2.0000      -6.037572      -164.2907
  20   2.0000      -6.036718      -164.2674
  21   2.0000      -6.033911      -164.1911
  22   2.0000      -6.032581      -164.1549
  23   2.0000      -6.029498      -164.0710
  24   2.0000      -1.004575       -27.3359
  25   2.0000      -0.984119       -26.7792
  26   2.0000      -0.909127       -24.7386
  27   2.0000      -0.904196       -24.6044
  28   2.0000      -0.868958       -23.6455
  29   2.0000      -0.848083       -23.0775
  30   2.0000      -0.844743       -22.9866
  31   2.0000      -0.815959       -22.2034
  32   2.0000      -0.779286       -21.2055
  33   2.0000      -0.770537       -20.9674
  34   2.0000      -0.704556       -19.1719
  35   2.0000      -0.695966       -18.9382
  36   2.0000      -0.690952       -18.8018
  37   2.0000      -0.661434       -17.9985
  38   2.0000      -0.643702       -17.5160
  39   2.0000      -0.622162       -16.9299
  40   2.0000      -0.589651       -16.0452
  41   2.0000      -0.571074       -15.5397
  42   2.0000      -0.561234       -15.2720
  43   2.0000      -0.555567       -15.1177
  44   2.0000      -0.544672       -14.8213
  45   2.0000      -0.523165       -14.2361
  46   2.0000      -0.517431       -14.0800
  47   2.0000      -0.506055       -13.7705
  48   2.0000      -0.501016       -13.6333
  49   2.0000      -0.497270       -13.5314
  50   2.0000      -0.488133       -13.2828
  51   2.0000      -0.482289       -13.1237
  52   2.0000      -0.471620       -12.8334
  53   2.0000      -0.464206       -12.6317
  54   2.0000      -0.454413       -12.3652
  55   2.0000      -0.451044       -12.2735
  56   2.0000      -0.447293       -12.1714
  57   2.0000      -0.438159       -11.9229
  58   2.0000      -0.431332       -11.7371
  59   2.0000      -0.426320       -11.6007
  60   2.0000      -0.415704       -11.3119
  61   2.0000      -0.411065       -11.1856
  62   2.0000      -0.397646       -10.8205
  63   2.0000      -0.352182        -9.5834
  64   2.0000      -0.332452        -9.0465
  65   2.0000      -0.327762        -8.9189
  66   2.0000      -0.290283        -7.8990
  67   0.0000       0.029756         0.8097
  68   0.0000       0.063199         1.7197
  69   0.0000       0.103391         2.8134
  70   0.0000       0.113218         3.0808
  71   0.0000       0.129949         3.5361

MULLIKEN ATOMIC CHARGES
-----------------------
   0 S :    0.098106
   1 C :   -0.092540
   2 C :   -0.020304
   3 C :    0.032502
   4 C :   -0.125729
   5 H :   -0.019866
   6 C :    0.016464
   7 H :    0.035957
   8 H :    0.008578
   9 C :   -0.089895
  10 H :    0.038198
  11 H :    0.036007
  12 C :   -0.068830
  13 H :    0.029175
  14 H :    0.038642
  15 H :    0.044186
  16 S :    0.089430
  17 C :   -0.115858
  18 C :   -0.025549
  19 C :   -0.079212
  20 C :   -0.133706
  21 H :    0.035628
  22 C :    0.113414
  23 H :    0.021387
  24 H :    0.021039
  25 C :   -0.091122
  26 H :    0.014688
  27 H :    0.031912
  28 C :   -0.083681
  29 H :    0.053731
  30 H :    0.059336
  31 H :    0.037751
  32 H :    0.020798
  33 H :    0.069361
Sum of atomic charges:   -0.0000000

LOEWDIN ATOMIC CHARGES
----------------------
   0 S :    0.391093
   1 C :   -0.174936
   2 C :   -0.070822
   3 C :   -0.052485
   4 C :   -0.189179
   5 H :    0.028782
   6 C :   -0.034345
   7 H :    0.038439
   8 H :    0.023771
   9 C :   -0.043512
  10 H :    0.024988
  11 H :    0.026163
  12 C :   -0.072550
  13 H :    0.016874
  14 H :    0.029695
  15 H :    0.034305
  16 S :    0.377911
  17 C :   -0.173458
  18 C :   -0.066485
  19 C :   -0.060372
  20 C :   -0.189356
  21 H :    0.039729
  22 C :   -0.020377
  23 H :    0.026738
  24 H :    0.030548
  25 C :   -0.043387
  26 H :    0.015683
  27 H :    0.027087
  28 C :   -0.075408
  29 H :    0.024684
  30 H :    0.036769
  31 H :    0.028199
  32 H :    0.013685
  33 H :    0.031528

  Mayer bond orders larger than 0.100000
B(  0-S ,  1-C ) :   1.1478 B(  0-S ,  4-C ) :   1.1290 B(  1-C ,  2-C ) :   1.6042
B(  1-C , 32-H ) :   0.9720 B(  2-C ,  3-C ) :   1.2560 B(  2-C ,  6-C ) :   1.0112
B(  3-C ,  4-C ) :   1.5736 B(  3-C ,  5-H ) :   0.9814 B(  4-C , 20-C ) :   1.0275
B(  6-C ,  7-H ) :   0.9477 B(  6-C ,  8-H ) :   0.9556 B(  6-C ,  9-C ) :   1.0450
B(  9-C , 10-H ) :   0.9629 B(  9-C , 11-H ) :   0.9569 B(  9-C , 12-C ) :   1.0689
B( 12-C , 13-H ) :   0.9762 B( 12-C , 14-H ) :   0.9744 B( 12-C , 15-H ) :   0.9767
B( 16-S , 17-C ) :   1.1426 B( 16-S , 20-C ) :   1.1232 B( 17-C , 18-C ) :   1.6485
B( 17-C , 33-H ) :   0.9558 B( 18-C , 19-C ) :   1.1958 B( 18-C , 21-H ) :   0.9896
B( 19-C , 20-C ) :   1.6481 B( 19-C , 22-C ) :   1.0404 B( 22-C , 23-H ) :   0.9370
B( 22-C , 24-H ) :   0.9351 B( 22-C , 25-C ) :   1.0648 B( 25-C , 26-H ) :   0.9576
B( 25-C , 27-H ) :   0.9568 B( 25-C , 28-C ) :   1.0680 B( 28-C , 29-H ) :   0.9673
B( 28-C , 30-H ) :   0.9625 B( 28-C , 31-H ) :   0.9693

Dispersion correction           -0.014684426
FINAL SINGLE POINT ENERGY     -1339.851359707188

DIPOLE MOMENT
-------------
                                X             Y             Z
Electronic contribution:    -31.50111      -1.03242       1.29146
Nuclear contribution   :     32.09814       0.83097      -1.27786
                        -----------------------------------------
Total Dipole Moment    :      0.59704      -0.20145       0.01360
                        -----------------------------------------
Magnitude (a.u.)       :      0.63025
Magnitude (Debye)      :      1.60198

Rotational constants in cm-1:     0.019489     0.008919     0.006573
Rotational constants in MHz :   584.274120   267.393481   197.051191

                             ****ORCA TERMINATED NORMALLY****
TOTAL RUN TIME: 0 days 0 hours 0 minutes 32 seconds 555 msec
