                         Program Version 4.2.1 -  RELEASE  -
|  1> ! wB97X-D3 SP def2-SVP
|  2> %pal
|  3> nprocs 16
|  4> end
|  5>
|  6> * xyz 0 1
|  7> S 	 57.1342 	 28.8677 	 40.3163
|  8> C 	 56.6941 	 29.7304 	 38.816
|  9> C 	 55.3253 	 29.5733 	 38.5516
| 10> C 	 54.7032 	 28.63 	 39.4241
| 11> C 	 55.5826 	 28.0848 	 40.374
| 12> H 	 53.6561 	 28.342 	 39.4437
| 13> C 	 54.5877 	 30.2567 	 37.4181
| 14> H 	 53.4722 	 30.2498 	 37.6541
| 15> H 	 54.7211 	 29.5963 	 36.524
| 16> C 	 54.9731 	 31.6668 	 36.9572
| 17> H 	 56.052 	 31.7909 	 36.9702
| 18> H 	 54.5988 	 31.7466 	 35.921
| 19> C 	 54.5205 	 32.7375 	 38.0454
| 20> H 	 53.5294 	 32.6744 	 38.3431
| 21> H 	 55.1036 	 32.6565 	 38.9409
| 22> H 	 54.5532 	 33.7124 	 37.5588
| 23> S 	 54.5132 	 25.4194 	 40.4876
| 24> C 	 54.4315 	 24.6253 	 42.0389
| 25> C 	 55.1041 	 25.3772 	 42.978
| 26> C 	 55.5635 	 26.6142 	 42.4876
| 27> C 	 55.3279 	 26.8621 	 41.1414
| 28> H 	 55.172 	 25.0308 	 43.9722
| 29> C 	 56.1675 	 27.6573 	 43.4078
| 30> H 	 55.3182 	 28.3443 	 43.4825
| 31> H 	 56.8783 	 28.2043 	 42.8186
| 32> C 	 56.7636 	 27.3168 	 44.7842
| 33> H 	 57.5208 	 26.5645 	 44.7485
| 34> H 	 55.9946 	 26.9566 	 45.4778
| 35> C 	 57.437 	 28.4569 	 45.3858
| 36> H 	 56.973 	 29.3453 	 45.0736
| 37> H 	 58.5222 	 28.5923 	 45.1737
| 38> H 	 57.3079 	 28.4377 	 46.4747
| 39> H 	 57.4257 	 30.3527 	 38.2601
| 40> H 	 53.8564 	 23.6902 	 42.2104
| 41> *
| 42>
| 43>                          ****END OF INPUT****

CARTESIAN COORDINATES (ANGSTROEM)
---------------------------------
  S     57.134200   28.867700   40.316300
  C     56.694100   29.730400   38.816000
  C     55.325300   29.573300   38.551600
  C     54.703200   28.630000   39.424100
  C     55.582600   28.084800   40.374000
  H     53.656100   28.342000   39.443700
  C     54.587700   30.256700   37.418100
  H     53.472200   30.249800   37.654100
  H     54.721100   29.596300   36.524000
  C     54.973100   31.666800   36.957200
  H     56.052000   31.790900   36.970200
  H     54.598800   31.746600   35.921000
  C     54.520500   32.737500   38.045400
  H     53.529400   32.674400   38.343100
  H     55.103600   32.656500   38.940900
  H     54.553200   33.712400   37.558800
  S     54.513200   25.419400   40.487600
  C     54.431500   24.625300   42.038900
  C     55.104100   25.377200   42.978000
  C     55.563500   26.614200   42.487600
  C     55.327900   26.862100   41.141400
  H     55.172000   25.030800   43.972200
  C     56.167500   27.657300   43.407800
  H     55.318200   28.344300   43.482500
  H     56.878300   28.204300   42.818600
  C     56.763600   27.316800   44.784200
  H     57.520800   26.564500   44.748500
  H     55.994600   26.956600   45.477800
  C     57.437000   28.456900   45.385800
  H     56.973000   29.345300   45.073600
  H     58.522200   28.592300   45.173700
  H     57.307900   28.437700   46.474700
  H     57.425700   30.352700   38.260100
  H     53.856400   23.690200   42.210400

 Total Charge           Charge          ....    0
 Multiplicity           Mult            ....    1
 Number of Electrons    NEL             ....  134
 Basis Dimension        Dim             ....  322

ORBITAL ENERGIES
----------------

  NO   OCC          E(Eh)            E(eV)
   0   2.0000     -88.968200     -2420.9478
   1   2.0000     -88.964013     -2420.8339
   2   2.0000     -10.332512      -281.1620
   3   2.0000     -10.325016      -280.9580
   4   2.0000     -10.322078      -280.8780
   5   2.0000     -10.320004      -280.8216
   6   2.0000     -10.307477      -280.4807
   7   2.0000     -10.298539      -280.2375
   8   2.0000     -10.298037      -280.2238
   9   2.0000     -10.297178      -280.2005
  10   2.0000     -10.293765      -280.1076
  11   2.0000     -10.287269      -279.9308
  12   2.0000     -10.286983      -279.9230
  13   2.0000     -10.280908      -279.7577
  14   2.0000     -10.272223      -279.5214
  15   2.0000     -10.268820      -279.4288
  16   2.0000      -8.082176      -219.9272
  17   2.0000      -8.078065      -219.8153
  18   2.0000      -6.040745      -164.3770
  19   2.0000      -6.036807      -164.2699
  20   2.0000      -6.036634      -164.2652
  21   2.0000      -6.032914      -164.1639
  22   2.0000      -6.032555      -164.1542
  23   2.0000      -6.028897      -164.0546
  24   2.0000      -1.002653       -27.2836
  25   2.0000      -0.981288       -26.7022
  26   2.0000      -0.916500       -24.9392
  27   2.0000      -0.907889       -24.7049
  28   2.0000      -0.866151       -23.5692
  29   2.0000      -0.855713       -23.2851
  30   2.0000      -0.845565       -23.0090
  31   2.0000      -0.810157       -22.0455
  32   2.0000      -0.782510       -21.2932
  33   2.0000      -0.770206       -20.9584
  34   2.0000      -0.709995       -19.3199
  35   2.0000      -0.703264       -19.1368
  36   2.0000      -0.696783       -18.9604
  37   2.0000      -0.653869       -17.7927
  38   2.0000      -0.636169       -17.3110
  39   2.0000      -0.607851       -16.5405
  40   2.0000      -0.596388       -16.2285
  41   2.0000      -0.577947       -15.7267
  42   2.0000      -0.573182       -15.5971
  43   2.0000      -0.548412       -14.9231
  44   2.0000      -0.535241       -14.5647
  45   2.0000      -0.534981       -14.5576
  46   2.0000      -0.517319       -14.0770
  47   2.0000      -0.514611       -14.0033
  48   2.0000      -0.506713       -13.7884
  49   2.0000      -0.494209       -13.4481
  50   2.0000      -0.489448       -13.3186
  51   2.0000      -0.483467       -13.1558
  52   2.0000      -0.472764       -12.8646
  53   2.0000      -0.469555       -12.7772
  54   2.0000      -0.457302       -12.4438
  55   2.0000      -0.449496       -12.2314
  56   2.0000      -0.441682       -12.0188
  57   2.0000      -0.433750       -11.8029
  58   2.0000      -0.428778       -11.6676
  59   2.0000      -0.423816       -11.5326
  60   2.0000      -0.419152       -11.4057
  61   2.0000      -0.417878       -11.3710
  62   2.0000      -0.409066       -11.1313
  63   2.0000      -0.343723        -9.3532
  64   2.0000      -0.330763        -9.0005
  65   2.0000      -0.328561        -8.9406
  66   2.0000      -0.285318        -7.7639
  67   0.0000       0.020607         0.5607
  68   0.0000       0.071260         1.9391
  69   0.0000       0.102606         2.7920
  70   0.0000       0.119103         3.2410
  71   0.0000       0.132569         3.6074

MULLIKEN ATOMIC CHARGES
-----------------------
   0 S :    0.098353
   1 C :   -0.153303
   2 C :   -0.056740
   3 C :   -0.001539
   4 C :   -0.166783
   5 H :    0.022272
   6 C :    0.000951
   7 H :    0.038514
   8 H :    0.052573
   9 C :   -0.066530
  10 H :    0.026209
  11 H :    0.040951
  12 C :   -0.034192
  13 H :    0.008478
  14 H :    0.042541
  15 H :    0.032984
  16 S :    0.103811
  17 C :   -0.113369
  18 C :   -0.020697
  19 C :   -0.064766
  20 C :   -0.114228
  21 H :    0.003807
  22 C :    0.063350
  23 H :    0.043643
  24 H :    0.006581
  25 C :   -0.032703
  26 H :    0.022966
  27 H :    0.029966
  28 C :   -0.032635
  29 H :    0.007827
  30 H :    0.041882
  31 H :    0.025115
  32 H :    0.068595
  33 H :    0.076116
Sum of atomic charges:   -0.0000000

LOEWDIN ATOMIC CHARGES
----------------------
   0 S :    0.405336
   1 C :   -0.196658
   2 C :   -0.062970
   3 C :   -0.064264
   4 C :   -0.191249
   5 H :    0.034076
   6 C :   -0.044968
   7 H :    0.036290
   8 H :    0.040424
   9 C :   -0.038602
  10 H :    0.021827
  11 H :    0.030683
  12 C :   -0.058686
  13 H :    0.012143
  14 H :    0.027801
  15 H :    0.028627
  16 S :    0.399228
  17 C :   -0.186743
  18 C :   -0.075747
  19 C :   -0.055434
  20 C :   -0.202179
  21 H :    0.025398
  22 C :   -0.036843
  23 H :    0.042526
  24 H :    0.014084
  25 C :   -0.044261
  26 H :    0.024687
  27 H :    0.026634
  28 C :   -0.063113
  29 H :    0.016640
  30 H :    0.031034
  31 H :    0.030115
  32 H :    0.033793
  33 H :    0.040368

  Mayer bond orders larger than 0.100000
B(  0-S ,  1-C ) :   1.1314 B(  0-S ,  4-C ) :   1.1602 B(  1-C ,  2-C ) :   1.5838
B(  1-C , 32-H ) :   0.9673 B(  2-C ,  3-C ) :   1.2420 B(  2-C ,  6-C ) :   1.0120
B(  3-C ,  4-C ) :   1.5438 B(  3-C ,  5-H ) :   0.9995 B(  4-C , 20-C ) :   1.0604
B(  6-C ,  7-H ) :   0.9498 B(  6-C ,  8-H ) :   0.9345 B(  6-C ,  9-C ) :   1.0784
B(  9-C , 10-H ) :   0.9556 B(  9-C , 11-H ) :   0.9567 B(  9-C , 12-C ) :   1.0588
B( 12-C , 13-H ) :   0.9794 B( 12-C , 14-H ) :   0.9773 B( 12-C , 15-H ) :   0.9769
B( 16-S , 17-C ) :   1.1763 B( 16-S , 20-C ) :   1.1219 B( 17-C , 18-C ) :   1.5587
B( 17-C , 33-H ) :   0.9615 B( 18-C , 19-C ) :   1.2835 B( 18-C , 21-H ) :   1.0029
B( 19-C , 20-C ) :   1.5527 B( 19-C , 22-C ) :   1.0312 B( 22-C , 23-H ) :   0.9115
B( 22-C , 24-H ) :   0.9273 B( 22-C , 25-C ) :   1.0834 B( 25-C , 26-H ) :   0.9529
B( 25-C , 27-H ) :   0.9447 B( 25-C , 28-C ) :   1.0976 B( 28-C , 29-H ) :   0.9694
B( 28-C , 30-H ) :   0.9720 B( 28-C , 31-H ) :   0.9692

Dispersion correction           -0.013741490
FINAL SINGLE POINT ENERGY     -1339.869109366019

DIPOLE MOMENT
-------------
                                X             Y             Z
Electronic contribution:     -0.08783     -18.33681      -5.14888
Nuclear contribution   :     -0.11920      18.62840       5.29153
                        -----------------------------------------
Total Dipole Moment    :     -0.20703       0.29159       0.14266
                        -----------------------------------------
Magnitude (a.u.)       :      0.38502
Magnitude (Debye)      :      0.97864

Rotational constants in cm-1:     0.020817     0.007548     0.006032
Rotational constants in MHz :   624.081345   226.271567   180.838892

                             ****ORCA TERMINATED NORMALLY****
TOTAL RUN TIME: 0 days 0 hours 0 minutes 28 seconds 962 msec
