                         Program Version 4.2.1 -  RELEASE  -
|  1> ! wB97X-D3 SP def2-SVP
|  2> %pal
|  3> nprocs 16
|  4> end
|  5>
|  6> * xyz 0 1
|  7> S 	 7.66952 	 24.653 	 66.2559
|  8> C 	 7.00656 	 24.3158 	 64.6362
|  9> C 	 6.72788 	 25.5012 	 63.9275
| 10> C 	 7.07263 	 26.6425 	 64.6719
| 11> C 	 7.49835 	 26.4252 	 65.9553
| 12> H 	 7.01954 	 27.6686 	 64.245
| 13> C 	 6.27124 	 25.5617 	 62.4704
| 14> H 	 5.42631 	 26.1818 	 62.4203
| 15> H 	 5.93998 	 24.5899 	 62.1116
| 16> C 	 7.18707 	 26.16 	 61.4793
| 17> H 	 6.79451 	 26.229 	 60.4139
| 18> H 	 7.31429 	 27.2272 	 61.7751
| 19> C 	 8.50325 	 25.3637 	 61.3359
| 20> H 	 8.34365 	 24.3806 	 60.9014
| 21> H 	 9.2159 	 25.8842 	 60.7006
| 22> H 	 9.05186 	 25.2018 	 62.2339
| 23> S 	 9.02173 	 26.8647 	 68.2774
| 24> C 	 9.00899 	 28.3431 	 69.0957
| 25> C 	 8.18617 	 29.2495 	 68.4771
| 26> C 	 7.52324 	 28.6782 	 67.2995
| 27> C 	 7.8699 	 27.3777 	 67.0043
| 28> H 	 8.09635 	 30.2424 	 68.9013
| 29> C 	 6.60803 	 29.6091 	 66.4857
| 30> H 	 7.17256 	 29.8052 	 65.5655
| 31> H 	 6.57675 	 30.5707 	 67.024
| 32> C 	 5.17812 	 29.1403 	 66.3108
| 33> H 	 4.51285 	 29.1415 	 67.1913
| 34> H 	 5.22047 	 28.1248 	 65.9235
| 35> C 	 4.34229 	 29.9008 	 65.3289
| 36> H 	 3.35336 	 29.4042 	 65.4022
| 37> H 	 4.74102 	 29.839 	 64.2988
| 38> H 	 4.24656 	 30.9506 	 65.6848
| 39> H 	 6.8112 	 23.3635 	 64.2801
| 40> H 	 9.65299 	 28.7633 	 69.8966
| 41> *
| 42>
| 43>                          ****END OF INPUT****

CARTESIAN COORDINATES (ANGSTROEM)
---------------------------------
  S      7.669520   24.653000   66.255900
  C      7.006560   24.315800   64.636200
  C      6.727880   25.501200   63.927500
  C      7.072630   26.642500   64.671900
  C      7.498350   26.425200   65.955300
  H      7.019540   27.668600   64.245000
  C      6.271240   25.561700   62.470400
  H      5.426310   26.181800   62.420300
  H      5.939980   24.589900   62.111600
  C      7.187070   26.160000   61.479300
  H      6.794510   26.229000   60.413900
  H      7.314290   27.227200   61.775100
  C      8.503250   25.363700   61.335900
  H      8.343650   24.380600   60.901400
  H      9.215900   25.884200   60.700600
  H      9.051860   25.201800   62.233900
  S      9.021730   26.864700   68.277400
  C      9.008990   28.343100   69.095700
  C      8.186170   29.249500   68.477100
  C      7.523240   28.678200   67.299500
  C      7.869900   27.377700   67.004300
  H      8.096350   30.242400   68.901300
  C      6.608030   29.609100   66.485700
  H      7.172560   29.805200   65.565500
  H      6.576750   30.570700   67.024000
  C      5.178120   29.140300   66.310800
  H      4.512850   29.141500   67.191300
  H      5.220470   28.124800   65.923500
  C      4.342290   29.900800   65.328900
  H      3.353360   29.404200   65.402200
  H      4.741020   29.839000   64.298800
  H      4.246560   30.950600   65.684800
  H      6.811200   23.363500   64.280100
  H      9.652990   28.763300   69.896600

 Total Charge           Charge          ....    0
 Multiplicity           Mult            ....    1
 Number of Electrons    NEL             ....  134
 Basis Dimension        Dim             ....  322

ORBITAL ENERGIES
----------------

  NO   OCC          E(Eh)            E(eV)
   0   2.0000     -88.970330     -2421.0058
   1   2.0000     -88.964726     -2420.8533
   2   2.0000     -10.340329      -281.3747
   3   2.0000     -10.333110      -281.1782
   4   2.0000     -10.317956      -280.7659
   5   2.0000     -10.316831      -280.7352
   6   2.0000     -10.308411      -280.5061
   7   2.0000     -10.306618      -280.4573
   8   2.0000     -10.298797      -280.2445
   9   2.0000     -10.294098      -280.1166
  10   2.0000     -10.293763      -280.1075
  11   2.0000     -10.293254      -280.0937
  12   2.0000     -10.287507      -279.9373
  13   2.0000     -10.279523      -279.7200
  14   2.0000     -10.278860      -279.7020
  15   2.0000     -10.270317      -279.4695
  16   2.0000      -8.083585      -219.9655
  17   2.0000      -8.079991      -219.8677
  18   2.0000      -6.042236      -164.4176
  19   2.0000      -6.038618      -164.3191
  20   2.0000      -6.038414      -164.3136
  21   2.0000      -6.034378      -164.2038
  22   2.0000      -6.034167      -164.1980
  23   2.0000      -6.030608      -164.1012
  24   2.0000      -1.005480       -27.3605
  25   2.0000      -0.983665       -26.7669
  26   2.0000      -0.918264       -24.9872
  27   2.0000      -0.912730       -24.8367
  28   2.0000      -0.870199       -23.6793
  29   2.0000      -0.854021       -23.2391
  30   2.0000      -0.844300       -22.9746
  31   2.0000      -0.817348       -22.2412
  32   2.0000      -0.787630       -21.4325
  33   2.0000      -0.775748       -21.1092
  34   2.0000      -0.710538       -19.3347
  35   2.0000      -0.696727       -18.9589
  36   2.0000      -0.684756       -18.6332
  37   2.0000      -0.659740       -17.9525
  38   2.0000      -0.641936       -17.4680
  39   2.0000      -0.627493       -17.0749
  40   2.0000      -0.589168       -16.0321
  41   2.0000      -0.572764       -15.5857
  42   2.0000      -0.566771       -15.4226
  43   2.0000      -0.558523       -15.1982
  44   2.0000      -0.546582       -14.8733
  45   2.0000      -0.532755       -14.4970
  46   2.0000      -0.520198       -14.1553
  47   2.0000      -0.511324       -13.9138
  48   2.0000      -0.503010       -13.6876
  49   2.0000      -0.498941       -13.5769
  50   2.0000      -0.492112       -13.3911
  51   2.0000      -0.484048       -13.1716
  52   2.0000      -0.475715       -12.9449
  53   2.0000      -0.467683       -12.7263
  54   2.0000      -0.459929       -12.5153
  55   2.0000      -0.448631       -12.2079
  56   2.0000      -0.438470       -11.9314
  57   2.0000      -0.435590       -11.8530
  58   2.0000      -0.430822       -11.7233
  59   2.0000      -0.426079       -11.5942
  60   2.0000      -0.412813       -11.2332
  61   2.0000      -0.409669       -11.1477
  62   2.0000      -0.407901       -11.0996
  63   2.0000      -0.362557        -9.8657
  64   2.0000      -0.337254        -9.1771
  65   2.0000      -0.328054        -8.9268
  66   2.0000      -0.285713        -7.7746
  67   0.0000       0.019290         0.5249
  68   0.0000       0.074823         2.0360
  69   0.0000       0.097790         2.6610
  70   0.0000       0.116701         3.1756
  71   0.0000       0.130733         3.5574

MULLIKEN ATOMIC CHARGES
-----------------------
   0 S :    0.096241
   1 C :   -0.086673
   2 C :   -0.093155
   3 C :   -0.016016
   4 C :   -0.110748
   5 H :    0.025836
   6 C :    0.133671
   7 H :    0.012572
   8 H :    0.009092
   9 C :   -0.112617
  10 H :    0.042223
  11 H :    0.027830
  12 C :   -0.042874
  13 H :    0.024160
  14 H :    0.026018
  15 H :    0.033650
  16 S :    0.093970
  17 C :   -0.070785
  18 C :   -0.064329
  19 C :   -0.075042
  20 C :   -0.111277
  21 H :    0.021827
  22 C :    0.067832
  23 H :    0.042636
  24 H :    0.011737
  25 C :   -0.087358
  26 H :    0.032860
  27 H :    0.031478
  28 C :   -0.056537
  29 H :    0.039696
  30 H :    0.030417
  31 H :    0.032263
  32 H :    0.020547
  33 H :    0.070853
Sum of atomic charges:   -0.0000000

LOEWDIN ATOMIC CHARGES
----------------------
   0 S :    0.372362
   1 C :   -0.169608
   2 C :   -0.055774
   3 C :   -0.071986
   4 C :   -0.163691
   5 H :    0.037422
   6 C :   -0.029929
   7 H :    0.027056
   8 H :    0.027872
   9 C :   -0.046331
  10 H :    0.035378
  11 H :    0.022969
  12 C :   -0.067495
  13 H :    0.024510
  14 H :    0.025241
  15 H :    0.021755
  16 S :    0.407149
  17 C :   -0.207398
  18 C :   -0.082272
  19 C :   -0.051865
  20 C :   -0.189082
  21 H :    0.031607
  22 C :   -0.035258
  23 H :    0.033623
  24 H :    0.029983
  25 C :   -0.052394
  26 H :    0.031542
  27 H :    0.023029
  28 C :   -0.065437
  29 H :    0.032497
  30 H :    0.020405
  31 H :    0.024107
  32 H :    0.012241
  33 H :    0.047771

  Mayer bond orders larger than 0.100000
B(  0-S ,  1-C ) :   1.1311 B(  0-S ,  4-C ) :   1.1318 B(  1-C ,  2-C ) :   1.6014
B(  1-C ,  4-C ) :   0.1078 B(  1-C , 32-H ) :   0.9769 B(  2-C ,  3-C ) :   1.2445
B(  2-C ,  6-C ) :   1.0266 B(  3-C ,  4-C ) :   1.5775 B(  3-C ,  5-H ) :   0.9811
B(  4-C , 20-C ) :   1.0784 B(  6-C ,  7-H ) :   0.9261 B(  6-C ,  8-H ) :   0.9376
B(  6-C ,  9-C ) :   1.0868 B(  9-C , 10-H ) :   0.9527 B(  9-C , 11-H ) :   0.9510
B(  9-C , 12-C ) :   1.0704 B( 12-C , 13-H ) :   0.9734 B( 12-C , 14-H ) :   0.9742
B( 12-C , 15-H ) :   0.9774 B( 16-S , 17-C ) :   1.1662 B( 16-S , 20-C ) :   1.1078
B( 17-C , 18-C ) :   1.6276 B( 17-C , 33-H ) :   0.9546 B( 18-C , 19-C ) :   1.2380
B( 18-C , 21-H ) :   0.9885 B( 19-C , 20-C ) :   1.6102 B( 19-C , 22-C ) :   1.0318
B( 22-C , 23-H ) :   0.9378 B( 22-C , 24-H ) :   0.9292 B( 22-C , 25-C ) :   1.0629
B( 25-C , 26-H ) :   0.9540 B( 25-C , 27-H ) :   0.9533 B( 25-C , 28-C ) :   1.0911
B( 28-C , 29-H ) :   0.9746 B( 28-C , 30-H ) :   0.9738 B( 28-C , 31-H ) :   0.9726

Dispersion correction           -0.014612820
FINAL SINGLE POINT ENERGY     -1339.876909706462

DIPOLE MOMENT
-------------
                                X             Y             Z
Electronic contribution:     12.11255     -11.54999      22.70127
Nuclear contribution   :    -12.33688      12.04387     -23.11461
                        -----------------------------------------
Total Dipole Moment    :     -0.22434       0.49388      -0.41334
                        -----------------------------------------
Magnitude (a.u.)       :      0.68198
Magnitude (Debye)      :      1.73345

Rotational constants in cm-1:     0.017902     0.009428     0.007116
Rotational constants in MHz :   536.691364   282.651581   213.332665

                             ****ORCA TERMINATED NORMALLY****
TOTAL RUN TIME: 0 days 0 hours 0 minutes 36 seconds 167 msec
