                         Program Version 4.2.1 -  RELEASE  -
|  1> ! wB97X-D3 SP def2-SVP
|  2> %pal
|  3> nprocs 16
|  4> end
|  5>
|  6> * xyz 0 1
|  7> S 	 -12.3101 	 51.5272 	 34.0775
|  8> C 	 -11.9043 	 51.8361 	 32.4255
|  9> C 	 -11.0892 	 50.9296 	 31.8218
| 10> C 	 -11.0274 	 49.7768 	 32.6725
| 11> C 	 -11.6052 	 49.9866 	 33.9266
| 12> H 	 -10.6204 	 48.8035 	 32.41
| 13> C 	 -10.4547 	 51.0128 	 30.4391
| 14> H 	 -11.2199 	 51.4052 	 29.7534
| 15> H 	 -10.2133 	 49.9336 	 30.0713
| 16> C 	 -9.10155 	 51.7198 	 30.4026
| 17> H 	 -9.02091 	 52.7031 	 30.9478
| 18> H 	 -8.43887 	 51.0586 	 31.0134
| 19> C 	 -8.52953 	 51.8207 	 28.9916
| 20> H 	 -8.41014 	 50.8904 	 28.4316
| 21> H 	 -9.12909 	 52.4851 	 28.3141
| 22> H 	 -7.54909 	 52.3196 	 29.0525
| 23> S 	 -10.5149 	 49.8341 	 36.3647
| 24> C 	 -10.7731 	 48.4697 	 37.3428
| 25> C 	 -11.3372 	 47.4237 	 36.6649
| 26> C 	 -11.6485 	 47.7635 	 35.2817
| 27> C 	 -11.3752 	 49.095 	 35.05
| 28> H 	 -11.395 	 46.4148 	 37.1387
| 29> C 	 -12.1624 	 46.5797 	 34.3999
| 30> H 	 -11.7072 	 45.6848 	 34.8822
| 31> H 	 -11.7477 	 46.7494 	 33.4397
| 32> C 	 -13.7311 	 46.3285 	 34.3413
| 33> H 	 -14.2499 	 47.1826 	 33.8729
| 34> H 	 -14.0862 	 46.4849 	 35.3699
| 35> C 	 -14.1238 	 45.0225 	 33.6993
| 36> H 	 -13.6855 	 44.1095 	 34.1418
| 37> H 	 -13.8668 	 45.0099 	 32.6985
| 38> H 	 -15.188 	 44.839 	 33.7635
| 39> H 	 -12.0915 	 52.8145 	 31.9953
| 40> H 	 -10.4115 	 48.516 	 38.3703
| 41> *
| 42>
| 43>                          ****END OF INPUT****

CARTESIAN COORDINATES (ANGSTROEM)
---------------------------------
  S    -12.310100   51.527200   34.077500
  C    -11.904300   51.836100   32.425500
  C    -11.089200   50.929600   31.821800
  C    -11.027400   49.776800   32.672500
  C    -11.605200   49.986600   33.926600
  H    -10.620400   48.803500   32.410000
  C    -10.454700   51.012800   30.439100
  H    -11.219900   51.405200   29.753400
  H    -10.213300   49.933600   30.071300
  C     -9.101550   51.719800   30.402600
  H     -9.020910   52.703100   30.947800
  H     -8.438870   51.058600   31.013400
  C     -8.529530   51.820700   28.991600
  H     -8.410140   50.890400   28.431600
  H     -9.129090   52.485100   28.314100
  H     -7.549090   52.319600   29.052500
  S    -10.514900   49.834100   36.364700
  C    -10.773100   48.469700   37.342800
  C    -11.337200   47.423700   36.664900
  C    -11.648500   47.763500   35.281700
  C    -11.375200   49.095000   35.050000
  H    -11.395000   46.414800   37.138700
  C    -12.162400   46.579700   34.399900
  H    -11.707200   45.684800   34.882200
  H    -11.747700   46.749400   33.439700
  C    -13.731100   46.328500   34.341300
  H    -14.249900   47.182600   33.872900
  H    -14.086200   46.484900   35.369900
  C    -14.123800   45.022500   33.699300
  H    -13.685500   44.109500   34.141800
  H    -13.866800   45.009900   32.698500
  H    -15.188000   44.839000   33.763500
  H    -12.091500   52.814500   31.995300
  H    -10.411500   48.516000   38.370300

 Total Charge           Charge          ....    0
 Multiplicity           Mult            ....    1
 Number of Electrons    NEL             ....  134
 Basis Dimension        Dim             ....  322

ORBITAL ENERGIES
----------------

  NO   OCC          E(Eh)            E(eV)
   0   2.0000     -88.968986     -2420.9692
   1   2.0000     -88.959663     -2420.7155
   2   2.0000     -10.320978      -280.8481
   3   2.0000     -10.320563      -280.8368
   4   2.0000     -10.308493      -280.5083
   5   2.0000     -10.307638      -280.4851
   6   2.0000     -10.303891      -280.3831
   7   2.0000     -10.303511      -280.3728
   8   2.0000     -10.299422      -280.2615
   9   2.0000     -10.297245      -280.2023
  10   2.0000     -10.295022      -280.1418
  11   2.0000     -10.292916      -280.0845
  12   2.0000     -10.292295      -280.0676
  13   2.0000     -10.288104      -279.9535
  14   2.0000     -10.283869      -279.8383
  15   2.0000     -10.272295      -279.5233
  16   2.0000      -8.084906      -220.0015
  17   2.0000      -8.076167      -219.7637
  18   2.0000      -6.043155      -164.4426
  19   2.0000      -6.039404      -164.3405
  20   2.0000      -6.035710      -164.2400
  21   2.0000      -6.034501      -164.2071
  22   2.0000      -6.030521      -164.0988
  23   2.0000      -6.026915      -164.0007
  24   2.0000      -1.013595       -27.5813
  25   2.0000      -0.989300       -26.9202
  26   2.0000      -0.911890       -24.8138
  27   2.0000      -0.900023       -24.4909
  28   2.0000      -0.869134       -23.6503
  29   2.0000      -0.854311       -23.2470
  30   2.0000      -0.848470       -23.0880
  31   2.0000      -0.807216       -21.9655
  32   2.0000      -0.783141       -21.3103
  33   2.0000      -0.773659       -21.0523
  34   2.0000      -0.705820       -19.2063
  35   2.0000      -0.697391       -18.9770
  36   2.0000      -0.688952       -18.7473
  37   2.0000      -0.662364       -18.0239
  38   2.0000      -0.639797       -17.4098
  39   2.0000      -0.615061       -16.7367
  40   2.0000      -0.593377       -16.1466
  41   2.0000      -0.568989       -15.4830
  42   2.0000      -0.556873       -15.1533
  43   2.0000      -0.549481       -14.9521
  44   2.0000      -0.526231       -14.3195
  45   2.0000      -0.522050       -14.2057
  46   2.0000      -0.520972       -14.1764
  47   2.0000      -0.507944       -13.8219
  48   2.0000      -0.504982       -13.7413
  49   2.0000      -0.493622       -13.4321
  50   2.0000      -0.488511       -13.2930
  51   2.0000      -0.478698       -13.0260
  52   2.0000      -0.471954       -12.8425
  53   2.0000      -0.464336       -12.6352
  54   2.0000      -0.460303       -12.5255
  55   2.0000      -0.451065       -12.2741
  56   2.0000      -0.447664       -12.1816
  57   2.0000      -0.439398       -11.9566
  58   2.0000      -0.431300       -11.7363
  59   2.0000      -0.428535       -11.6610
  60   2.0000      -0.423923       -11.5355
  61   2.0000      -0.413325       -11.2471
  62   2.0000      -0.411042       -11.1850
  63   2.0000      -0.340929        -9.2771
  64   2.0000      -0.335370        -9.1259
  65   2.0000      -0.325454        -8.8561
  66   2.0000      -0.291488        -7.9318
  67   0.0000       0.040136         1.0921
  68   0.0000       0.070706         1.9240
  69   0.0000       0.111129         3.0240
  70   0.0000       0.119764         3.2589
  71   0.0000       0.130323         3.5463

MULLIKEN ATOMIC CHARGES
-----------------------
   0 S :    0.136525
   1 C :   -0.124799
   2 C :   -0.056580
   3 C :    0.021522
   4 C :   -0.153226
   5 H :    0.010102
   6 C :    0.026420
   7 H :    0.039177
   8 H :    0.035336
   9 C :   -0.087910
  10 H :    0.043475
  11 H :    0.031366
  12 C :   -0.052678
  13 H :    0.033835
  14 H :    0.031529
  15 H :    0.038135
  16 S :    0.108012
  17 C :   -0.103845
  18 C :   -0.050882
  19 C :   -0.041159
  20 C :   -0.190683
  21 H :    0.035881
  22 C :    0.081612
  23 H :    0.027068
  24 H :    0.013121
  25 C :   -0.071428
  26 H :    0.033219
  27 H :    0.021489
  28 C :   -0.008241
  29 H :    0.025307
  30 H :    0.017396
  31 H :    0.031045
  32 H :    0.039315
  33 H :    0.060540
Sum of atomic charges:   -0.0000000

LOEWDIN ATOMIC CHARGES
----------------------
   0 S :    0.440582
   1 C :   -0.201822
   2 C :   -0.064035
   3 C :   -0.056763
   4 C :   -0.222527
   5 H :    0.027673
   6 C :   -0.036091
   7 H :    0.030893
   8 H :    0.040691
   9 C :   -0.050077
  10 H :    0.030790
  11 H :    0.029917
  12 C :   -0.073240
  13 H :    0.024808
  14 H :    0.027342
  15 H :    0.030561
  16 S :    0.424786
  17 C :   -0.203735
  18 C :   -0.081046
  19 C :   -0.058599
  20 C :   -0.203063
  21 H :    0.038403
  22 C :   -0.020854
  23 H :    0.035023
  24 H :    0.018820
  25 C :   -0.043803
  26 H :    0.029531
  27 H :    0.024344
  28 C :   -0.062931
  29 H :    0.027853
  30 H :    0.016981
  31 H :    0.029816
  32 H :    0.022153
  33 H :    0.027620

  Mayer bond orders larger than 0.100000
B(  0-S ,  1-C ) :   1.1472 B(  0-S ,  4-C ) :   1.1702 B(  1-C ,  2-C ) :   1.6247
B(  1-C , 32-H ) :   0.9620 B(  2-C ,  3-C ) :   1.2546 B(  2-C ,  6-C ) :   1.0090
B(  3-C ,  4-C ) :   1.5641 B(  3-C ,  5-H ) :   0.9905 B(  4-C , 20-C ) :   1.0221
B(  6-C ,  7-H ) :   0.9482 B(  6-C ,  8-H ) :   0.9450 B(  6-C ,  9-C ) :   1.0502
B(  9-C , 10-H ) :   0.9585 B(  9-C , 11-H ) :   0.9510 B(  9-C , 12-C ) :   1.0837
B( 12-C , 13-H ) :   0.9728 B( 12-C , 14-H ) :   0.9743 B( 12-C , 15-H ) :   0.9727
B( 16-S , 17-C ) :   1.1623 B( 16-S , 20-C ) :   1.1576 B( 17-C , 18-C ) :   1.6146
B( 17-C , 33-H ) :   0.9674 B( 18-C , 19-C ) :   1.2234 B( 18-C , 21-H ) :   0.9828
B( 19-C , 20-C ) :   1.6293 B( 19-C , 22-C ) :   1.0265 B( 22-C , 23-H ) :   0.9407
B( 22-C , 24-H ) :   0.9359 B( 22-C , 25-C ) :   1.0570 B( 25-C , 26-H ) :   0.9526
B( 25-C , 27-H ) :   0.9566 B( 25-C , 28-C ) :   1.0829 B( 28-C , 29-H ) :   0.9730
B( 28-C , 30-H ) :   0.9732 B( 28-C , 31-H ) :   0.9709

Dispersion correction           -0.013304264
FINAL SINGLE POINT ENERGY     -1339.878040516185

DIPOLE MOMENT
-------------
                                X             Y             Z
Electronic contribution:     -1.17893      12.47628      20.96083
Nuclear contribution   :      1.34780     -12.76429     -21.36007
                        -----------------------------------------
Total Dipole Moment    :      0.16887      -0.28801      -0.39925
                        -----------------------------------------
Magnitude (a.u.)       :      0.52045
Magnitude (Debye)      :      1.32287

Rotational constants in cm-1:     0.018138     0.007499     0.006312
Rotational constants in MHz :   543.758498   224.802343   189.230400

                             ****ORCA TERMINATED NORMALLY****
TOTAL RUN TIME: 0 days 0 hours 0 minutes 32 seconds 306 msec
