                         Program Version 4.2.1 -  RELEASE  -
|  1> ! wB97X-D3 SP def2-SVP
|  2> %pal
|  3> nprocs 16
|  4> end
|  5>
|  6> * xyz 0 1
|  7> S 	 40.2355 	 13.6164 	 81.434
|  8> C 	 41.3838 	 14.8962 	 81.0092
|  9> C 	 42.4113 	 14.2514 	 80.3515
| 10> C 	 42.4782 	 12.8106 	 80.5182
| 11> C 	 41.3257 	 12.3139 	 81.1227
| 12> H 	 43.1532 	 12.0536 	 80.1436
| 13> C 	 43.3389 	 15 	 79.4576
| 14> H 	 44.1422 	 14.3519 	 79.0738
| 15> H 	 43.8597 	 15.7143 	 80.0625
| 16> C 	 42.6569 	 15.5776 	 78.1496
| 17> H 	 41.8039 	 16.233 	 78.4303
| 18> H 	 43.3795 	 16.4248 	 77.676
| 19> C 	 42.2178 	 14.5376 	 77.1578
| 20> H 	 43.1455 	 14.4517 	 76.6284
| 21> H 	 41.93 	 13.5534 	 77.6231
| 22> H 	 41.3042 	 14.7873 	 76.4886
| 23> S 	 40.8323 	 10.4198 	 83.1374
| 24> C 	 40.6063 	 8.77387 	 82.6048
| 25> C 	 40.7345 	 8.65685 	 81.2336
| 26> C 	 40.7261 	 9.90082 	 80.5383
| 27> C 	 40.9689 	 10.9498 	 81.427
| 28> H 	 40.8541 	 7.69356 	 80.777
| 29> C 	 40.9403 	 10.0834 	 79.024
| 30> H 	 40.8445 	 11.1351 	 78.8264
| 31> H 	 40.0379 	 9.69833 	 78.632
| 32> C 	 42.1522 	 9.38206 	 78.3923
| 33> H 	 42.1343 	 8.42394 	 78.8
| 34> H 	 43.0874 	 9.87711 	 78.7558
| 35> C 	 42.314 	 9.23624 	 76.9178
| 36> H 	 43.2349 	 8.76964 	 76.6179
| 37> H 	 42.1191 	 10.0782 	 76.2522
| 38> H 	 41.6184 	 8.50152 	 76.5276
| 39> H 	 41.1447 	 15.9676 	 81.1616
| 40> H 	 40.6341 	 7.83667 	 83.2099
| 41> *
| 42>
| 43>                          ****END OF INPUT****

CARTESIAN COORDINATES (ANGSTROEM)
---------------------------------
  S     40.235500   13.616400   81.434000
  C     41.383800   14.896200   81.009200
  C     42.411300   14.251400   80.351500
  C     42.478200   12.810600   80.518200
  C     41.325700   12.313900   81.122700
  H     43.153200   12.053600   80.143600
  C     43.338900   15.000000   79.457600
  H     44.142200   14.351900   79.073800
  H     43.859700   15.714300   80.062500
  C     42.656900   15.577600   78.149600
  H     41.803900   16.233000   78.430300
  H     43.379500   16.424800   77.676000
  C     42.217800   14.537600   77.157800
  H     43.145500   14.451700   76.628400
  H     41.930000   13.553400   77.623100
  H     41.304200   14.787300   76.488600
  S     40.832300   10.419800   83.137400
  C     40.606300    8.773870   82.604800
  C     40.734500    8.656850   81.233600
  C     40.726100    9.900820   80.538300
  C     40.968900   10.949800   81.427000
  H     40.854100    7.693560   80.777000
  C     40.940300   10.083400   79.024000
  H     40.844500   11.135100   78.826400
  H     40.037900    9.698330   78.632000
  C     42.152200    9.382060   78.392300
  H     42.134300    8.423940   78.800000
  H     43.087400    9.877110   78.755800
  C     42.314000    9.236240   76.917800
  H     43.234900    8.769640   76.617900
  H     42.119100   10.078200   76.252200
  H     41.618400    8.501520   76.527600
  H     41.144700   15.967600   81.161600
  H     40.634100    7.836670   83.209900

 Total Charge           Charge          ....    0
 Multiplicity           Mult            ....    1
 Number of Electrons    NEL             ....  134
 Basis Dimension        Dim             ....  322

ORBITAL ENERGIES
----------------

  NO   OCC          E(Eh)            E(eV)
   0   2.0000     -88.969210     -2420.9753
   1   2.0000     -88.959607     -2420.7140
   2   2.0000     -10.328924      -281.0643
   3   2.0000     -10.326709      -281.0040
   4   2.0000     -10.320621      -280.8384
   5   2.0000     -10.318798      -280.7888
   6   2.0000     -10.307165      -280.4722
   7   2.0000     -10.304856      -280.4094
   8   2.0000     -10.300201      -280.2827
   9   2.0000     -10.297659      -280.2135
  10   2.0000     -10.294161      -280.1183
  11   2.0000     -10.290765      -280.0260
  12   2.0000     -10.289062      -279.9796
  13   2.0000     -10.287882      -279.9475
  14   2.0000     -10.284669      -279.8601
  15   2.0000     -10.276215      -279.6300
  16   2.0000      -8.083103      -219.9524
  17   2.0000      -8.074766      -219.7255
  18   2.0000      -6.041655      -164.4018
  19   2.0000      -6.037802      -164.2969
  20   2.0000      -6.033772      -164.1873
  21   2.0000      -6.033333      -164.1753
  22   2.0000      -6.029061      -164.0591
  23   2.0000      -6.025557      -163.9638
  24   2.0000      -1.005837       -27.3702
  25   2.0000      -0.982988       -26.7485
  26   2.0000      -0.912739       -24.8369
  27   2.0000      -0.908996       -24.7350
  28   2.0000      -0.869692       -23.6655
  29   2.0000      -0.856146       -23.2969
  30   2.0000      -0.842059       -22.9136
  31   2.0000      -0.816467       -22.2172
  32   2.0000      -0.788901       -21.4671
  33   2.0000      -0.769662       -20.9436
  34   2.0000      -0.710538       -19.3347
  35   2.0000      -0.699573       -19.0364
  36   2.0000      -0.690966       -18.8021
  37   2.0000      -0.656330       -17.8597
  38   2.0000      -0.645470       -17.5641
  39   2.0000      -0.605905       -16.4875
  40   2.0000      -0.592016       -16.1096
  41   2.0000      -0.572558       -15.5801
  42   2.0000      -0.567139       -15.4326
  43   2.0000      -0.549236       -14.9455
  44   2.0000      -0.541807       -14.7433
  45   2.0000      -0.532373       -14.4866
  46   2.0000      -0.524638       -14.2761
  47   2.0000      -0.515886       -14.0380
  48   2.0000      -0.511701       -13.9241
  49   2.0000      -0.497603       -13.5405
  50   2.0000      -0.490506       -13.3474
  51   2.0000      -0.474868       -12.9218
  52   2.0000      -0.471506       -12.8303
  53   2.0000      -0.465520       -12.6675
  54   2.0000      -0.461144       -12.5484
  55   2.0000      -0.454780       -12.3752
  56   2.0000      -0.441088       -12.0026
  57   2.0000      -0.434143       -11.8136
  58   2.0000      -0.429265       -11.6809
  59   2.0000      -0.420999       -11.4560
  60   2.0000      -0.415881       -11.3167
  61   2.0000      -0.413306       -11.2466
  62   2.0000      -0.400387       -10.8951
  63   2.0000      -0.335316        -9.1244
  64   2.0000      -0.329661        -8.9705
  65   2.0000      -0.320374        -8.7178
  66   2.0000      -0.305017        -8.2999
  67   0.0000       0.030911         0.8411
  68   0.0000       0.056708         1.5431
  69   0.0000       0.108410         2.9500
  70   0.0000       0.114004         3.1022
  71   0.0000       0.127763         3.4766

MULLIKEN ATOMIC CHARGES
-----------------------
   0 S :    0.099937
   1 C :   -0.138785
   2 C :   -0.094542
   3 C :    0.060367
   4 C :   -0.185652
   5 H :    0.009828
   6 C :    0.079728
   7 H :    0.013144
   8 H :    0.030241
   9 C :   -0.121940
  10 H :    0.025948
  11 H :    0.042059
  12 C :   -0.078281
  13 H :    0.037262
  14 H :    0.052085
  15 H :    0.057486
  16 S :    0.126948
  17 C :   -0.093478
  18 C :   -0.063103
  19 C :   -0.029181
  20 C :   -0.181094
  21 H :    0.020460
  22 C :    0.113204
  23 H :    0.021736
  24 H :    0.006641
  25 C :   -0.038907
  26 H :    0.006691
  27 H :    0.029986
  28 C :   -0.026465
  29 H :    0.026506
  30 H :    0.032433
  31 H :    0.009878
  32 H :    0.076604
  33 H :    0.072256
Sum of atomic charges:   -0.0000000

LOEWDIN ATOMIC CHARGES
----------------------
   0 S :    0.405714
   1 C :   -0.192296
   2 C :   -0.066509
   3 C :   -0.064875
   4 C :   -0.203844
   5 H :    0.033282
   6 C :   -0.035343
   7 H :    0.027639
   8 H :    0.030801
   9 C :   -0.052763
  10 H :    0.015844
  11 H :    0.032957
  12 C :   -0.082207
  13 H :    0.027723
  14 H :    0.032102
  15 H :    0.041395
  16 S :    0.398252
  17 C :   -0.195536
  18 C :   -0.072757
  19 C :   -0.044643
  20 C :   -0.192683
  21 H :    0.027389
  22 C :   -0.025268
  23 H :    0.026986
  24 H :    0.026617
  25 C :   -0.038039
  26 H :    0.018965
  27 H :    0.027530
  28 C :   -0.069012
  29 H :    0.029177
  30 H :    0.026739
  31 H :    0.023834
  32 H :    0.040759
  33 H :    0.042069

  Mayer bond orders larger than 0.100000
B(  0-S ,  1-C ) :   1.1323 B(  0-S ,  4-C ) :   1.1777 B(  1-C ,  2-C ) :   1.5772
B(  1-C , 32-H ) :   0.9764 B(  2-C ,  3-C ) :   1.2213 B(  2-C ,  6-C ) :   1.0317
B(  3-C ,  4-C ) :   1.5569 B(  3-C ,  5-H ) :   0.9996 B(  4-C , 20-C ) :   1.0403
B(  6-C ,  7-H ) :   0.9463 B(  6-C ,  8-H ) :   0.9362 B(  6-C ,  9-C ) :   1.0528
B(  9-C , 10-H ) :   0.9605 B(  9-C , 11-H ) :   0.9626 B(  9-C , 12-C ) :   1.0377
B( 12-C , 13-H ) :   0.9766 B( 12-C , 14-H ) :   0.9774 B( 12-C , 15-H ) :   0.9725
B( 16-S , 17-C ) :   1.1467 B( 16-S , 20-C ) :   1.1358 B( 17-C , 18-C ) :   1.6420
B( 17-C , 20-C ) :   0.1011 B( 17-C , 33-H ) :   0.9569 B( 18-C , 19-C ) :   1.2230
B( 18-C , 21-H ) :   0.9840 B( 19-C , 20-C ) :   1.5885 B( 19-C , 22-C ) :   1.0508
B( 22-C , 23-H ) :   0.9278 B( 22-C , 24-H ) :   0.9142 B( 22-C , 25-C ) :   1.0578
B( 25-C , 26-H ) :   0.9464 B( 25-C , 27-H ) :   0.9536 B( 25-C , 28-C ) :   1.0968
B( 28-C , 29-H ) :   0.9689 B( 28-C , 30-H ) :   0.9752 B( 28-C , 31-H ) :   0.9665

Dispersion correction           -0.015307549
FINAL SINGLE POINT ENERGY     -1339.846797940523

DIPOLE MOMENT
-------------
                                X             Y             Z
Electronic contribution:    -11.16700      -1.07484      28.81199
Nuclear contribution   :     11.53865       0.84617     -29.45337
                        -----------------------------------------
Total Dipole Moment    :      0.37165      -0.22867      -0.64138
                        -----------------------------------------
Magnitude (a.u.)       :      0.77575
Magnitude (Debye)      :      1.97179

Rotational constants in cm-1:     0.017551     0.010163     0.006993
Rotational constants in MHz :   526.177287   304.679284   209.657501

                             ****ORCA TERMINATED NORMALLY****
TOTAL RUN TIME: 0 days 0 hours 0 minutes 29 seconds 516 msec
