                         Program Version 4.2.1 -  RELEASE  -
|  1> ! wB97X-D3 SP def2-SVP
|  2> %pal
|  3> nprocs 16
|  4> end
|  5>
|  6> * xyz 0 1
|  7> S 	 -64.7718 	 57.3488 	 126.504
|  8> C 	 -65.9658 	 56.1047 	 126.798
|  9> C 	 -65.4079 	 54.8491 	 126.678
| 10> C 	 -63.9887 	 54.9021 	 126.503
| 11> C 	 -63.4631 	 56.2191 	 126.381
| 12> H 	 -63.3226 	 54.1207 	 126.63
| 13> C 	 -66.098 	 53.5357 	 126.909
| 14> H 	 -66.8961 	 53.4594 	 126.216
| 15> H 	 -66.5547 	 53.438 	 127.926
| 16> C 	 -65.2474 	 52.3115 	 126.665
| 17> H 	 -64.7314 	 52.3007 	 125.734
| 18> H 	 -64.5131 	 52.4416 	 127.502
| 19> C 	 -65.9798 	 50.9667 	 126.906
| 20> H 	 -66.9164 	 50.9279 	 126.301
| 21> H 	 -65.3128 	 50.2236 	 126.622
| 22> H 	 -66.1544 	 50.7896 	 127.973
| 23> S 	 -61.6945 	 58.3338 	 126.519
| 24> C 	 -60.0042 	 58.0975 	 126.134
| 25> C 	 -59.8156 	 56.829 	 125.704
| 26> C 	 -60.9366 	 55.9756 	 125.676
| 27> C 	 -62.1091 	 56.644 	 126.166
| 28> H 	 -58.7932 	 56.6307 	 125.515
| 29> C 	 -60.7914 	 54.4715 	 125.199
| 30> H 	 -61.4566 	 53.7854 	 125.738
| 31> H 	 -59.8828 	 54.1078 	 125.685
| 32> C 	 -60.6116 	 54.2152 	 123.65
| 33> H 	 -59.7762 	 54.8847 	 123.299
| 34> H 	 -61.4787 	 54.5689 	 123.102
| 35> C 	 -60.229 	 52.7883 	 123.221
| 36> H 	 -60.4412 	 52.6584 	 122.188
| 37> H 	 -60.8456 	 51.9886 	 123.752
| 38> H 	 -59.1416 	 52.5607 	 123.334
| 39> H 	 -66.9806 	 56.2876 	 126.785
| 40> H 	 -59.1955 	 58.79 	 126.006
| 41> *
| 42>
| 43>                          ****END OF INPUT****

CARTESIAN COORDINATES (ANGSTROEM)
---------------------------------
  S    -64.771800   57.348800  126.504000
  C    -65.965800   56.104700  126.798000
  C    -65.407900   54.849100  126.678000
  C    -63.988700   54.902100  126.503000
  C    -63.463100   56.219100  126.381000
  H    -63.322600   54.120700  126.630000
  C    -66.098000   53.535700  126.909000
  H    -66.896100   53.459400  126.216000
  H    -66.554700   53.438000  127.926000
  C    -65.247400   52.311500  126.665000
  H    -64.731400   52.300700  125.734000
  H    -64.513100   52.441600  127.502000
  C    -65.979800   50.966700  126.906000
  H    -66.916400   50.927900  126.301000
  H    -65.312800   50.223600  126.622000
  H    -66.154400   50.789600  127.973000
  S    -61.694500   58.333800  126.519000
  C    -60.004200   58.097500  126.134000
  C    -59.815600   56.829000  125.704000
  C    -60.936600   55.975600  125.676000
  C    -62.109100   56.644000  126.166000
  H    -58.793200   56.630700  125.515000
  C    -60.791400   54.471500  125.199000
  H    -61.456600   53.785400  125.738000
  H    -59.882800   54.107800  125.685000
  C    -60.611600   54.215200  123.650000
  H    -59.776200   54.884700  123.299000
  H    -61.478700   54.568900  123.102000
  C    -60.229000   52.788300  123.221000
  H    -60.441200   52.658400  122.188000
  H    -60.845600   51.988600  123.752000
  H    -59.141600   52.560700  123.334000
  H    -66.980600   56.287600  126.785000
  H    -59.195500   58.790000  126.006000

 Total Charge           Charge          ....    0
 Multiplicity           Mult            ....    1
 Number of Electrons    NEL             ....  134
 Basis Dimension        Dim             ....  322

ORBITAL ENERGIES
----------------

  NO   OCC          E(Eh)            E(eV)
   0   2.0000     -88.966687     -2420.9066
   1   2.0000     -88.966268     -2420.8952
   2   2.0000     -10.337191      -281.2893
   3   2.0000     -10.332580      -281.1638
   4   2.0000     -10.314276      -280.6657
   5   2.0000     -10.312498      -280.6173
   6   2.0000     -10.307634      -280.4850
   7   2.0000     -10.302546      -280.3465
   8   2.0000     -10.300868      -280.3009
   9   2.0000     -10.295620      -280.1581
  10   2.0000     -10.289696      -279.9969
  11   2.0000     -10.288080      -279.9529
  12   2.0000     -10.286467      -279.9090
  13   2.0000     -10.286306      -279.9046
  14   2.0000     -10.285717      -279.8886
  15   2.0000     -10.279365      -279.7158
  16   2.0000      -8.081213      -219.9010
  17   2.0000      -8.080935      -219.8934
  18   2.0000      -6.039753      -164.3500
  19   2.0000      -6.039586      -164.3455
  20   2.0000      -6.035513      -164.2347
  21   2.0000      -6.035451      -164.2330
  22   2.0000      -6.032117      -164.1423
  23   2.0000      -6.031621      -164.1288
  24   2.0000      -1.006011       -27.3750
  25   2.0000      -0.983805       -26.7707
  26   2.0000      -0.918516       -24.9941
  27   2.0000      -0.896833       -24.4041
  28   2.0000      -0.876108       -23.8401
  29   2.0000      -0.850339       -23.1389
  30   2.0000      -0.843633       -22.9564
  31   2.0000      -0.816929       -22.2298
  32   2.0000      -0.785168       -21.3655
  33   2.0000      -0.775599       -21.1051
  34   2.0000      -0.718990       -19.5647
  35   2.0000      -0.697524       -18.9806
  36   2.0000      -0.693446       -18.8696
  37   2.0000      -0.657756       -17.8985
  38   2.0000      -0.640100       -17.4180
  39   2.0000      -0.625256       -17.0141
  40   2.0000      -0.593279       -16.1439
  41   2.0000      -0.580350       -15.7921
  42   2.0000      -0.570552       -15.5255
  43   2.0000      -0.552934       -15.0461
  44   2.0000      -0.529400       -14.4057
  45   2.0000      -0.521845       -14.2001
  46   2.0000      -0.515052       -14.0153
  47   2.0000      -0.511554       -13.9201
  48   2.0000      -0.508876       -13.8472
  49   2.0000      -0.500325       -13.6145
  50   2.0000      -0.497456       -13.5365
  51   2.0000      -0.486231       -13.2310
  52   2.0000      -0.472649       -12.8614
  53   2.0000      -0.465195       -12.6586
  54   2.0000      -0.457115       -12.4387
  55   2.0000      -0.450003       -12.2452
  56   2.0000      -0.445912       -12.1339
  57   2.0000      -0.440368       -11.9830
  58   2.0000      -0.433981       -11.8092
  59   2.0000      -0.426608       -11.6086
  60   2.0000      -0.415792       -11.3143
  61   2.0000      -0.411581       -11.1997
  62   2.0000      -0.408192       -11.1075
  63   2.0000      -0.362678        -9.8690
  64   2.0000      -0.335535        -9.1304
  65   2.0000      -0.328844        -8.9483
  66   2.0000      -0.278137        -7.5685
  67   0.0000       0.011976         0.3259
  68   0.0000       0.087748         2.3877
  69   0.0000       0.102593         2.7917
  70   0.0000       0.120353         3.2750
  71   0.0000       0.133316         3.6277

MULLIKEN ATOMIC CHARGES
-----------------------
   0 S :    0.103316
   1 C :   -0.089547
   2 C :   -0.073496
   3 C :   -0.000792
   4 C :   -0.104104
   5 H :   -0.019581
   6 C :    0.085877
   7 H :    0.009991
   8 H :    0.046130
   9 C :   -0.163768
  10 H :    0.034987
  11 H :    0.038129
  12 C :    0.008679
  13 H :    0.038910
  14 H :    0.018300
  15 H :    0.032968
  16 S :    0.092267
  17 C :   -0.070788
  18 C :   -0.043682
  19 C :   -0.020225
  20 C :   -0.139027
  21 H :    0.004053
  22 C :    0.063390
  23 H :    0.012500
  24 H :    0.014449
  25 C :   -0.074959
  26 H :    0.034222
  27 H :    0.040401
  28 C :   -0.063172
  29 H :    0.030295
  30 H :    0.038535
  31 H :    0.042402
  32 H :    0.022868
  33 H :    0.050472
Sum of atomic charges:   -0.0000000

LOEWDIN ATOMIC CHARGES
----------------------
   0 S :    0.418011
   1 C :   -0.187352
   2 C :   -0.057201
   3 C :   -0.061673
   4 C :   -0.192442
   5 H :    0.012198
   6 C :   -0.035319
   7 H :    0.022239
   8 H :    0.040786
   9 C :   -0.045433
  10 H :    0.019028
  11 H :    0.028458
  12 C :   -0.056631
  13 H :    0.029588
  14 H :    0.018730
  15 H :    0.028294
  16 S :    0.394344
  17 C :   -0.187715
  18 C :   -0.072569
  19 C :   -0.054075
  20 C :   -0.184116
  21 H :    0.027403
  22 C :   -0.036095
  23 H :    0.025548
  24 H :    0.031871
  25 C :   -0.042480
  26 H :    0.031548
  27 H :    0.025101
  28 C :   -0.072413
  29 H :    0.024094
  30 H :    0.030998
  31 H :    0.029846
  32 H :    0.013600
  33 H :    0.033828

  Mayer bond orders larger than 0.100000
B(  0-S ,  1-C ) :   1.1401 B(  0-S ,  4-C ) :   1.1668 B(  1-C ,  2-C ) :   1.5935
B(  1-C ,  4-C ) :   0.1027 B(  1-C , 32-H ) :   0.9814 B(  2-C ,  3-C ) :   1.2836
B(  2-C ,  6-C ) :   1.0123 B(  3-C ,  4-C ) :   1.5046 B(  3-C ,  5-H ) :   0.9964
B(  4-C , 20-C ) :   1.1232 B(  6-C ,  7-H ) :   0.9217 B(  6-C ,  8-H ) :   0.9404
B(  6-C ,  9-C ) :   1.0930 B(  9-C , 10-H ) :   0.9555 B(  9-C , 11-H ) :   0.9436
B(  9-C , 12-C ) :   1.0808 B( 12-C , 13-H ) :   0.9734 B( 12-C , 14-H ) :   0.9702
B( 12-C , 15-H ) :   0.9731 B( 16-S , 17-C ) :   1.1353 B( 16-S , 20-C ) :   1.1435
B( 17-C , 18-C ) :   1.6374 B( 17-C , 20-C ) :   0.1020 B( 17-C , 33-H ) :   0.9628
B( 18-C , 19-C ) :   1.2572 B( 18-C , 21-H ) :   0.9904 B( 19-C , 20-C ) :   1.5370
B( 19-C , 22-C ) :   1.0201 B( 22-C , 23-H ) :   0.9441 B( 22-C , 24-H ) :   0.9345
B( 22-C , 25-C ) :   1.0447 B( 25-C , 26-H ) :   0.9558 B( 25-C , 27-H ) :   0.9618
B( 25-C , 28-C ) :   1.0768 B( 28-C , 29-H ) :   0.9738 B( 28-C , 30-H ) :   0.9753
B( 28-C , 31-H ) :   0.9761

Dispersion correction           -0.013256865
FINAL SINGLE POINT ENERGY     -1339.862894844582

DIPOLE MOMENT
-------------
                                X             Y             Z
Electronic contribution:     -1.11462      32.63817       7.56343
Nuclear contribution   :      1.32537     -33.38347      -7.79099
                        -----------------------------------------
Total Dipole Moment    :      0.21074      -0.74530      -0.22756
                        -----------------------------------------
Magnitude (a.u.)       :      0.80726
Magnitude (Debye)      :      2.05189

Rotational constants in cm-1:     0.015462     0.009525     0.006250
Rotational constants in MHz :   463.533324   285.541930   187.377371

                             ****ORCA TERMINATED NORMALLY****
TOTAL RUN TIME: 0 days 0 hours 0 minutes 32 seconds 675 msec
