                         Program Version 4.2.1 -  RELEASE  -
|  1> ! wB97X-D3 SP def2-SVP
|  2> %pal
|  3> nprocs 16
|  4> end
|  5>
|  6> * xyz 0 1
|  7> S 	 -2.92059 	 77.7004 	 50.8645
|  8> C 	 -1.51276 	 78.6766 	 50.975
|  9> C 	 -0.924634 	 78.6307 	 52.2816
| 10> C 	 -1.7133 	 77.804 	 53.1447
| 11> C 	 -2.87259 	 77.3262 	 52.6183
| 12> H 	 -1.47073 	 77.5381 	 54.1664
| 13> C 	 0.248933 	 79.4396 	 52.6198
| 14> H 	 0.0257741 	 79.9844 	 53.5021
| 15> H 	 0.394656 	 80.193 	 51.8503
| 16> C 	 1.47399 	 78.5376 	 52.7064
| 17> H 	 2.43693 	 79.1018 	 52.8022
| 18> H 	 1.45555 	 77.9692 	 53.5823
| 19> C 	 1.75649 	 77.6233 	 51.5424
| 20> H 	 2.62352 	 77.05 	 51.766
| 21> H 	 0.878793 	 76.9398 	 51.3393
| 22> H 	 2.13892 	 78.2661 	 50.7296
| 23> S 	 -5.32809 	 77.1681 	 53.8393
| 24> C 	 -5.81885 	 75.7481 	 54.6218
| 25> C 	 -4.84823 	 74.7741 	 54.461
| 26> C 	 -3.73137 	 75.1249 	 53.6888
| 27> C 	 -3.81169 	 76.4274 	 53.2739
| 28> H 	 -4.99113 	 73.798 	 54.9067
| 29> C 	 -2.53699 	 74.1432 	 53.4797
| 30> H 	 -1.87866 	 74.6356 	 52.7855
| 31> H 	 -2.81404 	 73.2447 	 53.0271
| 32> C 	 -1.73467 	 73.7155 	 54.7083
| 33> H 	 -1.0762 	 72.8638 	 54.5694
| 34> H 	 -2.44089 	 73.3401 	 55.5294
| 35> C 	 -0.953267 	 74.8131 	 55.4424
| 36> H 	 -0.673078 	 74.4745 	 56.397
| 37> H 	 -1.55101 	 75.6591 	 55.7125
| 38> H 	 0.0505091 	 74.994 	 54.9483
| 39> H 	 -1.04465 	 79.1206 	 50.1315
| 40> H 	 -6.80565 	 75.6029 	 55.0143
| 41> *
| 42>
| 43>                          ****END OF INPUT****

CARTESIAN COORDINATES (ANGSTROEM)
---------------------------------
  S     -2.920590   77.700400   50.864500
  C     -1.512760   78.676600   50.975000
  C     -0.924634   78.630700   52.281600
  C     -1.713300   77.804000   53.144700
  C     -2.872590   77.326200   52.618300
  H     -1.470730   77.538100   54.166400
  C      0.248933   79.439600   52.619800
  H      0.025774   79.984400   53.502100
  H      0.394656   80.193000   51.850300
  C      1.473990   78.537600   52.706400
  H      2.436930   79.101800   52.802200
  H      1.455550   77.969200   53.582300
  C      1.756490   77.623300   51.542400
  H      2.623520   77.050000   51.766000
  H      0.878793   76.939800   51.339300
  H      2.138920   78.266100   50.729600
  S     -5.328090   77.168100   53.839300
  C     -5.818850   75.748100   54.621800
  C     -4.848230   74.774100   54.461000
  C     -3.731370   75.124900   53.688800
  C     -3.811690   76.427400   53.273900
  H     -4.991130   73.798000   54.906700
  C     -2.536990   74.143200   53.479700
  H     -1.878660   74.635600   52.785500
  H     -2.814040   73.244700   53.027100
  C     -1.734670   73.715500   54.708300
  H     -1.076200   72.863800   54.569400
  H     -2.440890   73.340100   55.529400
  C     -0.953267   74.813100   55.442400
  H     -0.673078   74.474500   56.397000
  H     -1.551010   75.659100   55.712500
  H      0.050509   74.994000   54.948300
  H     -1.044650   79.120600   50.131500
  H     -6.805650   75.602900   55.014300

 Total Charge           Charge          ....    0
 Multiplicity           Mult            ....    1
 Number of Electrons    NEL             ....  134
 Basis Dimension        Dim             ....  322

ORBITAL ENERGIES
----------------

  NO   OCC          E(Eh)            E(eV)
   0   2.0000     -88.963921     -2420.8314
   1   2.0000     -88.962216     -2420.7850
   2   2.0000     -10.325697      -280.9765
   3   2.0000     -10.325512      -280.9715
   4   2.0000     -10.313186      -280.6361
   5   2.0000     -10.312441      -280.6158
   6   2.0000     -10.304335      -280.3952
   7   2.0000     -10.300234      -280.2836
   8   2.0000     -10.293120      -280.0900
   9   2.0000     -10.291700      -280.0514
  10   2.0000     -10.289597      -279.9942
  11   2.0000     -10.288660      -279.9687
  12   2.0000     -10.284828      -279.8644
  13   2.0000     -10.279004      -279.7059
  14   2.0000     -10.274532      -279.5842
  15   2.0000     -10.274126      -279.5732
  16   2.0000      -8.078451      -219.8258
  17   2.0000      -8.077842      -219.8092
  18   2.0000      -6.036804      -164.2698
  19   2.0000      -6.036120      -164.2512
  20   2.0000      -6.032955      -164.1650
  21   2.0000      -6.032100      -164.1418
  22   2.0000      -6.029427      -164.0690
  23   2.0000      -6.028901      -164.0547
  24   2.0000      -1.007358       -27.4116
  25   2.0000      -0.985295       -26.8112
  26   2.0000      -0.918892       -25.0043
  27   2.0000      -0.907990       -24.7077
  28   2.0000      -0.869114       -23.6498
  29   2.0000      -0.851204       -23.1624
  30   2.0000      -0.848828       -23.0978
  31   2.0000      -0.815379       -22.1876
  32   2.0000      -0.791928       -21.5495
  33   2.0000      -0.772846       -21.0302
  34   2.0000      -0.706026       -19.2119
  35   2.0000      -0.695484       -18.9251
  36   2.0000      -0.689103       -18.7515
  37   2.0000      -0.658628       -17.9222
  38   2.0000      -0.644191       -17.5293
  39   2.0000      -0.620612       -16.8877
  40   2.0000      -0.600597       -16.3431
  41   2.0000      -0.572360       -15.5747
  42   2.0000      -0.558046       -15.1852
  43   2.0000      -0.555570       -15.1178
  44   2.0000      -0.549088       -14.9414
  45   2.0000      -0.542435       -14.7604
  46   2.0000      -0.519038       -14.1237
  47   2.0000      -0.513802       -13.9813
  48   2.0000      -0.504334       -13.7236
  49   2.0000      -0.495556       -13.4848
  50   2.0000      -0.490987       -13.3604
  51   2.0000      -0.475004       -12.9255
  52   2.0000      -0.467693       -12.7266
  53   2.0000      -0.465600       -12.6696
  54   2.0000      -0.460572       -12.5328
  55   2.0000      -0.446194       -12.1416
  56   2.0000      -0.443676       -12.0730
  57   2.0000      -0.439671       -11.9641
  58   2.0000      -0.436229       -11.8704
  59   2.0000      -0.422977       -11.5098
  60   2.0000      -0.417537       -11.3618
  61   2.0000      -0.409935       -11.1549
  62   2.0000      -0.405541       -11.0353
  63   2.0000      -0.339400        -9.2355
  64   2.0000      -0.333211        -9.0671
  65   2.0000      -0.321035        -8.7358
  66   2.0000      -0.303204        -8.2506
  67   0.0000       0.041746         1.1360
  68   0.0000       0.056179         1.5287
  69   0.0000       0.115097         3.1319
  70   0.0000       0.126752         3.4491
  71   0.0000       0.130881         3.5614

MULLIKEN ATOMIC CHARGES
-----------------------
   0 S :    0.114429
   1 C :   -0.103874
   2 C :   -0.149870
   3 C :    0.066110
   4 C :   -0.166208
   5 H :    0.001950
   6 C :    0.150880
   7 H :    0.025671
   8 H :    0.011214
   9 C :   -0.093728
  10 H :    0.022096
  11 H :    0.012670
  12 C :   -0.051989
  13 H :    0.020242
  14 H :    0.065557
  15 H :    0.025002
  16 S :    0.113506
  17 C :   -0.082225
  18 C :   -0.059270
  19 C :    0.003244
  20 C :   -0.216971
  21 H :    0.013795
  22 C :    0.161261
  23 H :    0.017882
  24 H :    0.014950
  25 C :   -0.122280
  26 H :    0.031000
  27 H :    0.027445
  28 C :   -0.039352
  29 H :    0.006009
  30 H :    0.040240
  31 H :    0.039127
  32 H :    0.043261
  33 H :    0.058223
Sum of atomic charges:    0.0000000

LOEWDIN ATOMIC CHARGES
----------------------
   0 S :    0.403639
   1 C :   -0.199148
   2 C :   -0.061374
   3 C :   -0.051255
   4 C :   -0.196871
   5 H :    0.031631
   6 C :   -0.028870
   7 H :    0.031370
   8 H :    0.031209
   9 C :   -0.043791
  10 H :    0.027369
  11 H :    0.012116
  12 C :   -0.068538
  13 H :    0.022516
  14 H :    0.034337
  15 H :    0.026980
  16 S :    0.423760
  17 C :   -0.197933
  18 C :   -0.078008
  19 C :   -0.051070
  20 C :   -0.194385
  21 H :    0.027625
  22 C :   -0.019131
  23 H :    0.028967
  24 H :    0.026662
  25 C :   -0.044930
  26 H :    0.025449
  27 H :    0.028323
  28 C :   -0.070440
  29 H :    0.019353
  30 H :    0.023390
  31 H :    0.031097
  32 H :    0.020840
  33 H :    0.029111

  Mayer bond orders larger than 0.100000
B(  0-S ,  1-C ) :   1.1702 B(  0-S ,  4-C ) :   1.1356 B(  1-C ,  2-C ) :   1.5611
B(  1-C ,  4-C ) :   0.1014 B(  1-C , 32-H ) :   0.9696 B(  2-C ,  3-C ) :   1.2413
B(  2-C ,  6-C ) :   1.0374 B(  3-C ,  4-C ) :   1.5956 B(  3-C ,  5-H ) :   0.9950
B(  4-C , 20-C ) :   1.0066 B(  6-C ,  7-H ) :   0.9370 B(  6-C ,  8-H ) :   0.9360
B(  6-C ,  9-C ) :   1.0523 B(  9-C , 10-H ) :   0.9546 B(  9-C , 11-H ) :   0.9596
B(  9-C , 12-C ) :   1.0910 B( 12-C , 13-H ) :   0.9679 B( 12-C , 14-H ) :   0.9660
B( 12-C , 15-H ) :   0.9743 B( 16-S , 17-C ) :   1.1795 B( 16-S , 20-C ) :   1.1627
B( 17-C , 18-C ) :   1.5726 B( 17-C , 20-C ) :   0.1048 B( 17-C , 33-H ) :   0.9716
B( 18-C , 19-C ) :   1.2573 B( 18-C , 21-H ) :   0.9912 B( 19-C , 20-C ) :   1.5937
B( 19-C , 22-C ) :   1.0337 B( 22-C , 23-H ) :   0.9315 B( 22-C , 24-H ) :   0.9299
B( 22-C , 25-C ) :   1.0666 B( 25-C , 26-H ) :   0.9559 B( 25-C , 27-H ) :   0.9574
B( 25-C , 28-C ) :   1.0875 B( 28-C , 29-H ) :   0.9651 B( 28-C , 30-H ) :   0.9677
B( 28-C , 31-H ) :   0.9726

Dispersion correction           -0.015833117
FINAL SINGLE POINT ENERGY     -1339.875230089300

DIPOLE MOMENT
-------------
                                X             Y             Z
Electronic contribution:    -26.40208       7.14003      -7.22899
Nuclear contribution   :     26.95716      -7.45632       7.57828
                        -----------------------------------------
Total Dipole Moment    :      0.55508      -0.31628       0.34929
                        -----------------------------------------
Magnitude (a.u.)       :      0.72811
Magnitude (Debye)      :      1.85072

Rotational constants in cm-1:     0.019662     0.009633     0.007485
Rotational constants in MHz :   589.439763   288.785175   224.406744

                             ****ORCA TERMINATED NORMALLY****
TOTAL RUN TIME: 0 days 0 hours 0 minutes 33 seconds 379 msec
