                         Program Version 4.2.1 -  RELEASE  -
|  1> ! wB97X-D3 SP def2-SVP
|  2> %pal
|  3> nprocs 16
|  4> end
|  5>
|  6> * xyz 0 1
|  7> S 	 -76.6494 	 43.2787 	 142.544
|  8> C 	 -76.0422 	 41.6209 	 142.691
|  9> C 	 -76.6 	 40.8179 	 141.669
| 10> C 	 -77.37 	 41.6002 	 140.727
| 11> C 	 -77.3729 	 42.9196 	 141.005
| 12> H 	 -78.0448 	 41.2736 	 139.966
| 13> C 	 -76.662 	 39.3242 	 141.784
| 14> H 	 -76.2649 	 39.2122 	 142.747
| 15> H 	 -75.9383 	 38.9985 	 140.99
| 16> C 	 -77.9653 	 38.4896 	 141.718
| 17> H 	 -78.3961 	 38.4292 	 140.732
| 18> H 	 -77.8298 	 37.399 	 141.841
| 19> C 	 -79.0495 	 39.0267 	 142.731
| 20> H 	 -78.896 	 38.4581 	 143.672
| 21> H 	 -78.9675 	 40.1028 	 142.944
| 22> H 	 -80.076 	 38.7535 	 142.431
| 23> S 	 -79.7668 	 44.4629 	 141.055
| 24> C 	 -80.0674 	 45.5875 	 139.757
| 25> C 	 -79.0466 	 45.5093 	 138.808
| 26> C 	 -78.1322 	 44.5127 	 139.097
| 27> C 	 -78.2412 	 43.9091 	 140.358
| 28> H 	 -79.097 	 46.0887 	 137.874
| 29> C 	 -76.9856 	 44.2326 	 138.142
| 30> H 	 -75.965 	 44.2824 	 138.61
| 31> H 	 -77.023 	 44.9759 	 137.323
| 32> C 	 -76.9554 	 42.8313 	 137.496
| 33> H 	 -76.7087 	 42.0155 	 138.164
| 34> H 	 -76.1086 	 42.864 	 136.781
| 35> C 	 -78.1922 	 42.5006 	 136.635
| 36> H 	 -78.2277 	 41.553 	 136.064
| 37> H 	 -78.3435 	 43.278 	 135.847
| 38> H 	 -79.1056 	 42.6061 	 137.275
| 39> H 	 -75.6563 	 41.2555 	 143.567
| 40> H 	 -80.8883 	 46.2557 	 139.674
| 41> *
| 42>
| 43>                          ****END OF INPUT****

CARTESIAN COORDINATES (ANGSTROEM)
---------------------------------
  S    -76.649400   43.278700  142.544000
  C    -76.042200   41.620900  142.691000
  C    -76.600000   40.817900  141.669000
  C    -77.370000   41.600200  140.727000
  C    -77.372900   42.919600  141.005000
  H    -78.044800   41.273600  139.966000
  C    -76.662000   39.324200  141.784000
  H    -76.264900   39.212200  142.747000
  H    -75.938300   38.998500  140.990000
  C    -77.965300   38.489600  141.718000
  H    -78.396100   38.429200  140.732000
  H    -77.829800   37.399000  141.841000
  C    -79.049500   39.026700  142.731000
  H    -78.896000   38.458100  143.672000
  H    -78.967500   40.102800  142.944000
  H    -80.076000   38.753500  142.431000
  S    -79.766800   44.462900  141.055000
  C    -80.067400   45.587500  139.757000
  C    -79.046600   45.509300  138.808000
  C    -78.132200   44.512700  139.097000
  C    -78.241200   43.909100  140.358000
  H    -79.097000   46.088700  137.874000
  C    -76.985600   44.232600  138.142000
  H    -75.965000   44.282400  138.610000
  H    -77.023000   44.975900  137.323000
  C    -76.955400   42.831300  137.496000
  H    -76.708700   42.015500  138.164000
  H    -76.108600   42.864000  136.781000
  C    -78.192200   42.500600  136.635000
  H    -78.227700   41.553000  136.064000
  H    -78.343500   43.278000  135.847000
  H    -79.105600   42.606100  137.275000
  H    -75.656300   41.255500  143.567000
  H    -80.888300   46.255700  139.674000

 Total Charge           Charge          ....    0
 Multiplicity           Mult            ....    1
 Number of Electrons    NEL             ....  134
 Basis Dimension        Dim             ....  322

ORBITAL ENERGIES
----------------

  NO   OCC          E(Eh)            E(eV)
   0   2.0000     -88.969252     -2420.9764
   1   2.0000     -88.967734     -2420.9351
   2   2.0000     -10.327574      -281.0276
   3   2.0000     -10.327127      -281.0154
   4   2.0000     -10.318390      -280.7777
   5   2.0000     -10.315268      -280.6927
   6   2.0000     -10.309289      -280.5300
   7   2.0000     -10.299122      -280.2534
   8   2.0000     -10.294678      -280.1324
   9   2.0000     -10.293624      -280.1038
  10   2.0000     -10.293166      -280.0913
  11   2.0000     -10.293111      -280.0898
  12   2.0000     -10.292946      -280.0853
  13   2.0000     -10.283942      -279.8403
  14   2.0000     -10.282710      -279.8068
  15   2.0000     -10.279448      -279.7180
  16   2.0000      -8.083415      -219.9609
  17   2.0000      -8.082305      -219.9307
  18   2.0000      -6.041806      -164.4059
  19   2.0000      -6.040786      -164.3781
  20   2.0000      -6.037820      -164.2974
  21   2.0000      -6.036943      -164.2736
  22   2.0000      -6.034509      -164.2073
  23   2.0000      -6.032990      -164.1660
  24   2.0000      -1.008259       -27.4361
  25   2.0000      -0.986182       -26.8354
  26   2.0000      -0.910195       -24.7677
  27   2.0000      -0.903372       -24.5820
  28   2.0000      -0.868529       -23.6339
  29   2.0000      -0.846187       -23.0259
  30   2.0000      -0.845062       -22.9953
  31   2.0000      -0.818642       -22.2764
  32   2.0000      -0.779636       -21.2150
  33   2.0000      -0.769397       -20.9364
  34   2.0000      -0.714491       -19.4423
  35   2.0000      -0.704037       -19.1578
  36   2.0000      -0.686429       -18.6787
  37   2.0000      -0.661054       -17.9882
  38   2.0000      -0.648961       -17.6591
  39   2.0000      -0.617945       -16.8151
  40   2.0000      -0.590026       -16.0554
  41   2.0000      -0.565147       -15.3784
  42   2.0000      -0.556759       -15.1502
  43   2.0000      -0.548266       -14.9191
  44   2.0000      -0.542255       -14.7555
  45   2.0000      -0.539977       -14.6935
  46   2.0000      -0.518253       -14.1024
  47   2.0000      -0.510899       -13.9023
  48   2.0000      -0.506423       -13.7805
  49   2.0000      -0.489398       -13.3172
  50   2.0000      -0.481078       -13.0908
  51   2.0000      -0.478238       -13.0135
  52   2.0000      -0.472043       -12.8449
  53   2.0000      -0.464577       -12.6418
  54   2.0000      -0.463434       -12.6107
  55   2.0000      -0.454539       -12.3686
  56   2.0000      -0.437529       -11.9058
  57   2.0000      -0.434075       -11.8118
  58   2.0000      -0.430481       -11.7140
  59   2.0000      -0.427675       -11.6376
  60   2.0000      -0.422139       -11.4870
  61   2.0000      -0.409810       -11.1515
  62   2.0000      -0.405243       -11.0272
  63   2.0000      -0.341996        -9.3062
  64   2.0000      -0.331311        -9.0154
  65   2.0000      -0.323824        -8.8117
  66   2.0000      -0.302108        -8.2208
  67   0.0000       0.030314         0.8249
  68   0.0000       0.054256         1.4764
  69   0.0000       0.103312         2.8113
  70   0.0000       0.126443         3.4407
  71   0.0000       0.130551         3.5525

MULLIKEN ATOMIC CHARGES
-----------------------
   0 S :    0.107115
   1 C :   -0.079413
   2 C :   -0.144717
   3 C :    0.060403
   4 C :   -0.171269
   5 H :    0.023816
   6 C :    0.097969
   7 H :   -0.000280
   8 H :    0.050811
   9 C :   -0.055293
  10 H :    0.017343
  11 H :    0.032173
  12 C :   -0.091030
  13 H :    0.033944
  14 H :    0.059873
  15 H :    0.037516
  16 S :    0.118801
  17 C :   -0.087035
  18 C :   -0.045835
  19 C :   -0.018991
  20 C :   -0.169461
  21 H :    0.030457
  22 C :    0.061892
  23 H :    0.049809
  24 H :    0.016435
  25 C :   -0.083050
  26 H :    0.034412
  27 H :    0.024829
  28 C :   -0.088276
  29 H :    0.043957
  30 H :    0.019828
  31 H :    0.040427
  32 H :    0.024826
  33 H :    0.048013
Sum of atomic charges:   -0.0000000

LOEWDIN ATOMIC CHARGES
----------------------
   0 S :    0.408304
   1 C :   -0.182302
   2 C :   -0.054944
   3 C :   -0.054727
   4 C :   -0.197148
   5 H :    0.033741
   6 C :   -0.034330
   7 H :    0.023108
   8 H :    0.043110
   9 C :   -0.044939
  10 H :    0.018089
  11 H :    0.032835
  12 C :   -0.072324
  13 H :    0.028093
  14 H :    0.030702
  15 H :    0.028026
  16 S :    0.413910
  17 C :   -0.181458
  18 C :   -0.078106
  19 C :   -0.062328
  20 C :   -0.206448
  21 H :    0.037971
  22 C :   -0.030066
  23 H :    0.043039
  24 H :    0.028877
  25 C :   -0.045835
  26 H :    0.019471
  27 H :    0.026053
  28 C :   -0.082093
  29 H :    0.027944
  30 H :    0.023898
  31 H :    0.026539
  32 H :    0.008330
  33 H :    0.025007

  Mayer bond orders larger than 0.100000
B(  0-S ,  1-C ) :   1.1411 B(  0-S ,  4-C ) :   1.1539 B(  1-C ,  2-C ) :   1.6064
B(  1-C , 32-H ) :   0.9733 B(  2-C ,  3-C ) :   1.2119 B(  2-C ,  6-C ) :   1.0254
B(  3-C ,  4-C ) :   1.6113 B(  3-C ,  5-H ) :   0.9868 B(  4-C , 20-C ) :   1.0178
B(  6-C ,  7-H ) :   0.9398 B(  6-C ,  8-H ) :   0.9271 B(  6-C ,  9-C ) :   1.0698
B(  9-C , 10-H ) :   0.9564 B(  9-C , 11-H ) :   0.9560 B(  9-C , 12-C ) :   1.0537
B( 12-C , 13-H ) :   0.9792 B( 12-C , 14-H ) :   0.9813 B( 12-C , 15-H ) :   0.9776
B( 16-S , 17-C ) :   1.1840 B( 16-S , 20-C ) :   1.1492 B( 17-C , 18-C ) :   1.5538
B( 17-C , 20-C ) :   0.1136 B( 17-C , 33-H ) :   0.9710 B( 18-C , 19-C ) :   1.3061
B( 18-C , 21-H ) :   0.9844 B( 19-C , 20-C ) :   1.5458 B( 19-C , 22-C ) :   1.0426
B( 22-C , 23-H ) :   0.9330 B( 22-C , 24-H ) :   0.9396 B( 22-C , 25-C ) :   1.0716
B( 25-C , 26-H ) :   0.9542 B( 25-C , 27-H ) :   0.9534 B( 25-C , 28-C ) :   1.0632
B( 28-C , 29-H ) :   0.9766 B( 28-C , 30-H ) :   0.9731 B( 28-C , 31-H ) :   0.9747

Dispersion correction           -0.015670645
FINAL SINGLE POINT ENERGY     -1339.865797741043

DIPOLE MOMENT
-------------
                                X             Y             Z
Electronic contribution:     -0.51763      18.82482      12.73340
Nuclear contribution   :      0.37471     -19.24688     -13.01655
                        -----------------------------------------
Total Dipole Moment    :     -0.14292      -0.42206      -0.28316
                        -----------------------------------------
Magnitude (a.u.)       :      0.52796
Magnitude (Debye)      :      1.34196

Rotational constants in cm-1:     0.018881     0.009250     0.008130
Rotational constants in MHz :   566.034943   277.296978   243.732984

                             ****ORCA TERMINATED NORMALLY****
TOTAL RUN TIME: 0 days 0 hours 0 minutes 34 seconds 304 msec
