                         Program Version 4.2.1 -  RELEASE  -
|  1> ! wB97X-D3 SP def2-SVP
|  2> %pal
|  3> nprocs 16
|  4> end
|  5>
|  6> * xyz 0 1
|  7> S 	 -37.6384 	 51.8965 	 110.287
|  8> C 	 -38.3938 	 53.4798 	 110.128
|  9> C 	 -39.3156 	 53.634 	 111.094
| 10> C 	 -39.3617 	 52.5193 	 111.978
| 11> C 	 -38.6406 	 51.4472 	 111.572
| 12> H 	 -40.1021 	 52.4511 	 112.886
| 13> C 	 -40.4205 	 54.6724 	 111.269
| 14> H 	 -40.314 	 55.4785 	 110.556
| 15> H 	 -40.3738 	 54.9472 	 112.326
| 16> C 	 -41.8172 	 54.2218 	 110.892
| 17> H 	 -42.2009 	 53.3297 	 111.419
| 18> H 	 -42.5818 	 54.9956 	 111.127
| 19> C 	 -42.0039 	 54.0051 	 109.384
| 20> H 	 -42.4025 	 53.0954 	 109.117
| 21> H 	 -42.6686 	 54.7202 	 108.893
| 22> H 	 -40.9584 	 54.1598 	 108.94
| 23> S 	 -38.3509 	 50.0729 	 113.8
| 24> C 	 -38.1945 	 48.3491 	 113.805
| 25> C 	 -38.3869 	 47.8157 	 112.536
| 26> C 	 -38.7085 	 48.8202 	 111.561
| 27> C 	 -38.7133 	 50.1089 	 112.126
| 28> H 	 -38.391 	 46.7451 	 112.364
| 29> C 	 -38.9179 	 48.5285 	 110.086
| 30> H 	 -38.3214 	 47.6027 	 109.949
| 31> H 	 -38.2583 	 49.1717 	 109.543
| 32> C 	 -40.3704 	 48.6509 	 109.542
| 33> H 	 -41.0373 	 49.5208 	 109.803
| 34> H 	 -40.9453 	 47.7491 	 109.844
| 35> C 	 -40.3446 	 48.6373 	 108.013
| 36> H 	 -40.2718 	 47.6296 	 107.508
| 37> H 	 -39.4842 	 49.2536 	 107.678
| 38> H 	 -41.2274 	 49.1542 	 107.619
| 39> H 	 -38.4441 	 54.0207 	 109.19
| 40> H 	 -38.033 	 47.6844 	 114.654
| 41> *
| 42>
| 43>                          ****END OF INPUT****

CARTESIAN COORDINATES (ANGSTROEM)
---------------------------------
  S    -37.638400   51.896500  110.287000
  C    -38.393800   53.479800  110.128000
  C    -39.315600   53.634000  111.094000
  C    -39.361700   52.519300  111.978000
  C    -38.640600   51.447200  111.572000
  H    -40.102100   52.451100  112.886000
  C    -40.420500   54.672400  111.269000
  H    -40.314000   55.478500  110.556000
  H    -40.373800   54.947200  112.326000
  C    -41.817200   54.221800  110.892000
  H    -42.200900   53.329700  111.419000
  H    -42.581800   54.995600  111.127000
  C    -42.003900   54.005100  109.384000
  H    -42.402500   53.095400  109.117000
  H    -42.668600   54.720200  108.893000
  H    -40.958400   54.159800  108.940000
  S    -38.350900   50.072900  113.800000
  C    -38.194500   48.349100  113.805000
  C    -38.386900   47.815700  112.536000
  C    -38.708500   48.820200  111.561000
  C    -38.713300   50.108900  112.126000
  H    -38.391000   46.745100  112.364000
  C    -38.917900   48.528500  110.086000
  H    -38.321400   47.602700  109.949000
  H    -38.258300   49.171700  109.543000
  C    -40.370400   48.650900  109.542000
  H    -41.037300   49.520800  109.803000
  H    -40.945300   47.749100  109.844000
  C    -40.344600   48.637300  108.013000
  H    -40.271800   47.629600  107.508000
  H    -39.484200   49.253600  107.678000
  H    -41.227400   49.154200  107.619000
  H    -38.444100   54.020700  109.190000
  H    -38.033000   47.684400  114.654000

 Total Charge           Charge          ....    0
 Multiplicity           Mult            ....    1
 Number of Electrons    NEL             ....  134
 Basis Dimension        Dim             ....  322

ORBITAL ENERGIES
----------------

  NO   OCC          E(Eh)            E(eV)
   0   2.0000     -88.968205     -2420.9479
   1   2.0000     -88.962847     -2420.8021
   2   2.0000     -10.324161      -280.9347
   3   2.0000     -10.322875      -280.8997
   4   2.0000     -10.317347      -280.7493
   5   2.0000     -10.308563      -280.5103
   6   2.0000     -10.306133      -280.4441
   7   2.0000     -10.298263      -280.2300
   8   2.0000     -10.295888      -280.1654
   9   2.0000     -10.294883      -280.1380
  10   2.0000     -10.294103      -280.1168
  11   2.0000     -10.293499      -280.1003
  12   2.0000     -10.293176      -280.0916
  13   2.0000     -10.287716      -279.9430
  14   2.0000     -10.278920      -279.7036
  15   2.0000     -10.274791      -279.5913
  16   2.0000      -8.083532      -219.9641
  17   2.0000      -8.078582      -219.8294
  18   2.0000      -6.041956      -164.4100
  19   2.0000      -6.037774      -164.2962
  20   2.0000      -6.037204      -164.2807
  21   2.0000      -6.034524      -164.2077
  22   2.0000      -6.032935      -164.1645
  23   2.0000      -6.029152      -164.0616
  24   2.0000      -1.018207       -27.7068
  25   2.0000      -0.991807       -26.9884
  26   2.0000      -0.918171       -24.9847
  27   2.0000      -0.905553       -24.6413
  28   2.0000      -0.874593       -23.7989
  29   2.0000      -0.853557       -23.2265
  30   2.0000      -0.844138       -22.9702
  31   2.0000      -0.813362       -22.1327
  32   2.0000      -0.786306       -21.3965
  33   2.0000      -0.770987       -20.9796
  34   2.0000      -0.705843       -19.2070
  35   2.0000      -0.697489       -18.9797
  36   2.0000      -0.692000       -18.8303
  37   2.0000      -0.667007       -18.1502
  38   2.0000      -0.631099       -17.1731
  39   2.0000      -0.624096       -16.9825
  40   2.0000      -0.594490       -16.1769
  41   2.0000      -0.570747       -15.5308
  42   2.0000      -0.564866       -15.3708
  43   2.0000      -0.553723       -15.0676
  44   2.0000      -0.540371       -14.7042
  45   2.0000      -0.531104       -14.4521
  46   2.0000      -0.518095       -14.0981
  47   2.0000      -0.507146       -13.8001
  48   2.0000      -0.503609       -13.7039
  49   2.0000      -0.496886       -13.5210
  50   2.0000      -0.494230       -13.4487
  51   2.0000      -0.475887       -12.9495
  52   2.0000      -0.470971       -12.8158
  53   2.0000      -0.467488       -12.7210
  54   2.0000      -0.454235       -12.3604
  55   2.0000      -0.447468       -12.1762
  56   2.0000      -0.443635       -12.0719
  57   2.0000      -0.436260       -11.8712
  58   2.0000      -0.432721       -11.7749
  59   2.0000      -0.424685       -11.5563
  60   2.0000      -0.422303       -11.4915
  61   2.0000      -0.410451       -11.1690
  62   2.0000      -0.403586       -10.9821
  63   2.0000      -0.347934        -9.4678
  64   2.0000      -0.331097        -9.0096
  65   2.0000      -0.329119        -8.9558
  66   2.0000      -0.296959        -8.0807
  67   0.0000       0.027645         0.7523
  68   0.0000       0.077424         2.1068
  69   0.0000       0.113016         3.0753
  70   0.0000       0.122880         3.3437
  71   0.0000       0.130309         3.5459

MULLIKEN ATOMIC CHARGES
-----------------------
   0 S :    0.101032
   1 C :   -0.127039
   2 C :   -0.080824
   3 C :   -0.035136
   4 C :   -0.116668
   5 H :    0.047285
   6 C :    0.080715
   7 H :    0.018726
   8 H :    0.041396
   9 C :   -0.091627
  10 H :    0.030192
  11 H :    0.035869
  12 C :   -0.046594
  13 H :    0.018013
  14 H :    0.030397
  15 H :    0.022583
  16 S :    0.126720
  17 C :   -0.089380
  18 C :   -0.048978
  19 C :   -0.072050
  20 C :   -0.148109
  21 H :    0.020825
  22 C :    0.083712
  23 H :    0.020280
  24 H :    0.005105
  25 C :   -0.059370
  26 H :    0.056133
  27 H :    0.035307
  28 C :   -0.081378
  29 H :    0.045092
  30 H :    0.030600
  31 H :    0.030018
  32 H :    0.058079
  33 H :    0.059076
Sum of atomic charges:    0.0000000

LOEWDIN ATOMIC CHARGES
----------------------
   0 S :    0.422989
   1 C :   -0.204388
   2 C :   -0.063521
   3 C :   -0.085772
   4 C :   -0.212277
   5 H :    0.043395
   6 C :   -0.026856
   7 H :    0.028679
   8 H :    0.038400
   9 C :   -0.049144
  10 H :    0.021938
  11 H :    0.030471
  12 C :   -0.065109
  13 H :    0.013805
  14 H :    0.026212
  15 H :    0.030900
  16 S :    0.448598
  17 C :   -0.197974
  18 C :   -0.072992
  19 C :   -0.055283
  20 C :   -0.211846
  21 H :    0.032125
  22 C :   -0.040747
  23 H :    0.039838
  24 H :    0.018259
  25 C :   -0.044714
  26 H :    0.039757
  27 H :    0.029058
  28 C :   -0.076239
  29 H :    0.029161
  30 H :    0.025216
  31 H :    0.024705
  32 H :    0.030095
  33 H :    0.033260

  Mayer bond orders larger than 0.100000
B(  0-S ,  1-C ) :   1.1121 B(  0-S ,  4-C ) :   1.1594 B(  1-C ,  2-C ) :   1.6601
B(  1-C , 32-H ) :   0.9566 B(  2-C ,  3-C ) :   1.2256 B(  2-C ,  6-C ) :   1.0262
B(  3-C ,  4-C ) :   1.5782 B(  3-C ,  5-H ) :   0.9772 B(  4-C , 20-C ) :   1.0209
B(  6-C ,  7-H ) :   0.9452 B(  6-C ,  8-H ) :   0.9321 B(  6-C ,  9-C ) :   1.0824
B(  9-C , 10-H ) :   0.9578 B(  9-C , 11-H ) :   0.9614 B(  9-C , 12-C ) :   1.0516
B( 12-C , 13-H ) :   0.9760 B( 12-C , 14-H ) :   0.9768 B( 12-C , 15-H ) :   0.9811
B( 16-S , 17-C ) :   1.1715 B( 16-S , 20-C ) :   1.1683 B( 17-C , 18-C ) :   1.5831
B( 17-C , 33-H ) :   0.9648 B( 18-C , 19-C ) :   1.2776 B( 18-C , 21-H ) :   0.9887
B( 19-C , 20-C ) :   1.5520 B( 19-C , 22-C ) :   1.0394 B( 22-C , 23-H ) :   0.9295
B( 22-C , 24-H ) :   0.9315 B( 22-C , 25-C ) :   1.0375 B( 25-C , 26-H ) :   0.9652
B( 25-C , 27-H ) :   0.9547 B( 25-C , 28-C ) :   1.0726 B( 28-C , 29-H ) :   0.9766
B( 28-C , 30-H ) :   0.9756 B( 28-C , 31-H ) :   0.9772

Dispersion correction           -0.014789893
FINAL SINGLE POINT ENERGY     -1339.857615175258

DIPOLE MOMENT
-------------
                                X             Y             Z
Electronic contribution:     18.62330      -2.74583      17.05032
Nuclear contribution   :    -19.16855       2.57704     -17.24014
                        -----------------------------------------
Total Dipole Moment    :     -0.54525      -0.16879      -0.18983
                        -----------------------------------------
Magnitude (a.u.)       :      0.60152
Magnitude (Debye)      :      1.52894

Rotational constants in cm-1:     0.017897     0.009828     0.007898
Rotational constants in MHz :   536.534818   294.632170   236.787444

                             ****ORCA TERMINATED NORMALLY****
TOTAL RUN TIME: 0 days 0 hours 0 minutes 29 seconds 712 msec
