                         Program Version 4.2.1 -  RELEASE  -
|  1> ! wB97X-D3 SP def2-SVP
|  2> %pal
|  3> nprocs 16
|  4> end
|  5>
|  6> * xyz 0 1
|  7> S 	 42.1173 	 21.4025 	 86.0005
|  8> C 	 41.1023 	 21.3675 	 87.4289
|  9> C 	 40.5594 	 22.6423 	 87.6785
| 10> C 	 40.9188 	 23.6118 	 86.6793
| 11> C 	 41.707 	 23.1009 	 85.6696
| 12> H 	 40.8212 	 24.7139 	 86.5962
| 13> C 	 39.6949 	 23.0171 	 88.8904
| 14> H 	 39.9422 	 24.0774 	 89.111
| 15> H 	 39.9681 	 22.2869 	 89.6346
| 16> C 	 38.2033 	 22.8299 	 88.6878
| 17> H 	 37.9082 	 23.6052 	 87.9937
| 18> H 	 37.9487 	 21.8262 	 88.299
| 19> C 	 37.5336 	 22.9352 	 90.0174
| 20> H 	 37.8181 	 23.8773 	 90.5411
| 21> H 	 36.4917 	 23.0095 	 90.0063
| 22> H 	 37.8628 	 22.1645 	 90.7048
| 23> S 	 44.1655 	 23.9785 	 84.5335
| 24> C 	 44.0397 	 25.0336 	 83.1421
| 25> C 	 42.7395 	 25.3619 	 82.8286
| 26> C 	 41.7957 	 24.8344 	 83.7832
| 27> C 	 42.3663 	 23.9479 	 84.7199
| 28> H 	 42.514 	 25.9926 	 81.937
| 29> C 	 40.2686 	 25.0896 	 83.5804
| 30> H 	 39.8871 	 25.8222 	 84.279
| 31> H 	 39.6939 	 24.1634 	 83.8842
| 32> C 	 39.7313 	 25.4568 	 82.1751
| 33> H 	 39.9981 	 24.759 	 81.4426
| 34> H 	 40.0228 	 26.4735 	 82.0296
| 35> C 	 38.2282 	 25.7196 	 82.2292
| 36> H 	 37.8888 	 26.0301 	 81.234
| 37> H 	 37.895 	 26.5805 	 82.8088
| 38> H 	 37.8035 	 24.7696 	 82.6322
| 39> H 	 41.1017 	 20.5743 	 88.1702
| 40> H 	 44.9402 	 25.4017 	 82.5631
| 41> *
| 42>
| 43>                          ****END OF INPUT****

CARTESIAN COORDINATES (ANGSTROEM)
---------------------------------
  S     42.117300   21.402500   86.000500
  C     41.102300   21.367500   87.428900
  C     40.559400   22.642300   87.678500
  C     40.918800   23.611800   86.679300
  C     41.707000   23.100900   85.669600
  H     40.821200   24.713900   86.596200
  C     39.694900   23.017100   88.890400
  H     39.942200   24.077400   89.111000
  H     39.968100   22.286900   89.634600
  C     38.203300   22.829900   88.687800
  H     37.908200   23.605200   87.993700
  H     37.948700   21.826200   88.299000
  C     37.533600   22.935200   90.017400
  H     37.818100   23.877300   90.541100
  H     36.491700   23.009500   90.006300
  H     37.862800   22.164500   90.704800
  S     44.165500   23.978500   84.533500
  C     44.039700   25.033600   83.142100
  C     42.739500   25.361900   82.828600
  C     41.795700   24.834400   83.783200
  C     42.366300   23.947900   84.719900
  H     42.514000   25.992600   81.937000
  C     40.268600   25.089600   83.580400
  H     39.887100   25.822200   84.279000
  H     39.693900   24.163400   83.884200
  C     39.731300   25.456800   82.175100
  H     39.998100   24.759000   81.442600
  H     40.022800   26.473500   82.029600
  C     38.228200   25.719600   82.229200
  H     37.888800   26.030100   81.234000
  H     37.895000   26.580500   82.808800
  H     37.803500   24.769600   82.632200
  H     41.101700   20.574300   88.170200
  H     44.940200   25.401700   82.563100

 Total Charge           Charge          ....    0
 Multiplicity           Mult            ....    1
 Number of Electrons    NEL             ....  134
 Basis Dimension        Dim             ....  322

ORBITAL ENERGIES
----------------

  NO   OCC          E(Eh)            E(eV)
   0   2.0000     -88.968098     -2420.9450
   1   2.0000     -88.966685     -2420.9066
   2   2.0000     -10.331256      -281.1278
   3   2.0000     -10.327637      -281.0293
   4   2.0000     -10.322352      -280.8855
   5   2.0000     -10.318754      -280.7876
   6   2.0000     -10.311456      -280.5890
   7   2.0000     -10.306440      -280.4525
   8   2.0000     -10.297588      -280.2116
   9   2.0000     -10.296691      -280.1872
  10   2.0000     -10.295882      -280.1652
  11   2.0000     -10.292349      -280.0691
  12   2.0000     -10.283216      -279.8205
  13   2.0000     -10.281785      -279.7816
  14   2.0000     -10.281206      -279.7658
  15   2.0000     -10.271868      -279.5117
  16   2.0000      -8.082054      -219.9239
  17   2.0000      -8.080425      -219.8795
  18   2.0000      -6.040623      -164.3737
  19   2.0000      -6.039014      -164.3299
  20   2.0000      -6.036636      -164.2652
  21   2.0000      -6.035094      -164.2233
  22   2.0000      -6.032820      -164.1614
  23   2.0000      -6.031134      -164.1155
  24   2.0000      -0.999829       -27.2067
  25   2.0000      -0.976275       -26.5658
  26   2.0000      -0.918322       -24.9888
  27   2.0000      -0.909133       -24.7388
  28   2.0000      -0.872879       -23.7522
  29   2.0000      -0.851327       -23.1658
  30   2.0000      -0.844483       -22.9795
  31   2.0000      -0.810790       -22.0627
  32   2.0000      -0.778975       -21.1970
  33   2.0000      -0.766588       -20.8599
  34   2.0000      -0.704170       -19.1614
  35   2.0000      -0.697997       -18.9935
  36   2.0000      -0.695957       -18.9380
  37   2.0000      -0.648676       -17.6514
  38   2.0000      -0.641119       -17.4457
  39   2.0000      -0.614059       -16.7094
  40   2.0000      -0.594632       -16.1808
  41   2.0000      -0.581738       -15.8299
  42   2.0000      -0.576683       -15.6923
  43   2.0000      -0.561827       -15.2881
  44   2.0000      -0.524743       -14.2790
  45   2.0000      -0.522118       -14.2076
  46   2.0000      -0.515783       -14.0352
  47   2.0000      -0.510405       -13.8888
  48   2.0000      -0.501761       -13.6536
  49   2.0000      -0.500766       -13.6265
  50   2.0000      -0.493780       -13.4364
  51   2.0000      -0.471425       -12.8281
  52   2.0000      -0.470538       -12.8040
  53   2.0000      -0.464497       -12.6396
  54   2.0000      -0.457556       -12.4507
  55   2.0000      -0.455013       -12.3815
  56   2.0000      -0.439765       -11.9666
  57   2.0000      -0.437287       -11.8992
  58   2.0000      -0.432440       -11.7673
  59   2.0000      -0.427477       -11.6322
  60   2.0000      -0.418896       -11.3987
  61   2.0000      -0.416170       -11.3246
  62   2.0000      -0.404317       -11.0020
  63   2.0000      -0.348019        -9.4701
  64   2.0000      -0.331725        -9.0267
  65   2.0000      -0.326787        -8.8923
  66   2.0000      -0.289420        -7.8755
  67   0.0000       0.023443         0.6379
  68   0.0000       0.067286         1.8310
  69   0.0000       0.115828         3.1518
  70   0.0000       0.119738         3.2582
  71   0.0000       0.132413         3.6031

MULLIKEN ATOMIC CHARGES
-----------------------
   0 S :    0.108150
   1 C :   -0.116390
   2 C :   -0.089538
   3 C :    0.003930
   4 C :   -0.157651
   5 H :    0.035625
   6 C :    0.055457
   7 H :    0.039200
   8 H :    0.008346
   9 C :   -0.043963
  10 H :    0.024826
  11 H :    0.033798
  12 C :   -0.024323
  13 H :    0.013709
  14 H :    0.022701
  15 H :    0.026995
  16 S :    0.107239
  17 C :   -0.115545
  18 C :   -0.051115
  19 C :   -0.005800
  20 C :   -0.167774
  21 H :    0.042588
  22 C :   -0.002893
  23 H :    0.026279
  24 H :    0.036094
  25 C :   -0.040728
  26 H :    0.039399
  27 H :    0.021436
  28 C :   -0.064877
  29 H :    0.032626
  30 H :    0.031181
  31 H :    0.035784
  32 H :    0.055243
  33 H :    0.079988
Sum of atomic charges:    0.0000000

LOEWDIN ATOMIC CHARGES
----------------------
   0 S :    0.396185
   1 C :   -0.202815
   2 C :   -0.057948
   3 C :   -0.064845
   4 C :   -0.191304
   5 H :    0.042181
   6 C :   -0.027366
   7 H :    0.036932
   8 H :    0.025522
   9 C :   -0.038773
  10 H :    0.023015
  11 H :    0.029002
  12 C :   -0.065055
  13 H :    0.026802
  14 H :    0.017341
  15 H :    0.024816
  16 S :    0.380990
  17 C :   -0.191976
  18 C :   -0.084018
  19 C :   -0.050159
  20 C :   -0.188804
  21 H :    0.041901
  22 C :   -0.039405
  23 H :    0.027303
  24 H :    0.033850
  25 C :   -0.037104
  26 H :    0.020506
  27 H :    0.023239
  28 C :   -0.063107
  29 H :    0.028337
  30 H :    0.024627
  31 H :    0.026270
  32 H :    0.030480
  33 H :    0.043381

  Mayer bond orders larger than 0.100000
B(  0-S ,  1-C ) :   1.1368 B(  0-S ,  4-C ) :   1.1334 B(  1-C ,  2-C ) :   1.6047
B(  1-C , 32-H ) :   0.9664 B(  2-C ,  3-C ) :   1.2308 B(  2-C ,  6-C ) :   1.0219
B(  3-C ,  4-C ) :   1.5735 B(  3-C ,  5-H ) :   0.9840 B(  4-C , 20-C ) :   1.0984
B(  6-C ,  7-H ) :   0.9396 B(  6-C ,  8-H ) :   0.9384 B(  6-C ,  9-C ) :   1.0755
B(  9-C , 10-H ) :   0.9509 B(  9-C , 11-H ) :   0.9544 B(  9-C , 12-C ) :   1.0896
B( 12-C , 13-H ) :   0.9661 B( 12-C , 14-H ) :   0.9718 B( 12-C , 15-H ) :   0.9727
B( 16-S , 17-C ) :   1.1539 B( 16-S , 20-C ) :   1.1145 B( 17-C , 18-C ) :   1.6147
B( 17-C , 33-H ) :   0.9545 B( 18-C , 19-C ) :   1.2491 B( 18-C , 21-H ) :   0.9803
B( 19-C , 20-C ) :   1.5917 B( 19-C , 22-C ) :   1.0184 B( 22-C , 23-H ) :   0.9348
B( 22-C , 24-H ) :   0.9373 B( 22-C , 25-C ) :   1.0860 B( 25-C , 26-H ) :   0.9606
B( 25-C , 27-H ) :   0.9413 B( 25-C , 28-C ) :   1.0786 B( 28-C , 29-H ) :   0.9717
B( 28-C , 30-H ) :   0.9753 B( 28-C , 31-H ) :   0.9751

Dispersion correction           -0.013263005
FINAL SINGLE POINT ENERGY     -1339.864977386771

DIPOLE MOMENT
-------------
                                X             Y             Z
Electronic contribution:     28.66101      -9.69995      -4.77215
Nuclear contribution   :    -29.15736      10.16042       4.84228
                        -----------------------------------------
Total Dipole Moment    :     -0.49635       0.46047       0.07014
                        -----------------------------------------
Magnitude (a.u.)       :      0.68067
Magnitude (Debye)      :      1.73012

Rotational constants in cm-1:     0.016759     0.008227     0.006061
Rotational constants in MHz :   502.436651   246.624983   181.703223

                             ****ORCA TERMINATED NORMALLY****
TOTAL RUN TIME: 0 days 0 hours 0 minutes 27 seconds 313 msec
