                         Program Version 4.2.1 -  RELEASE  -
|  1> ! wB97X-D3 SP def2-SVP
|  2> %pal
|  3> nprocs 16
|  4> end
|  5>
|  6> * xyz 0 1
|  7> S 	 -94.3728 	 58.1279 	 130.021
|  8> C 	 -93.9875 	 57.7841 	 131.707
|  9> C 	 -92.869 	 58.3915 	 132.101
| 10> C 	 -92.2577 	 59.0851 	 130.977
| 11> C 	 -93.0213 	 59.1601 	 129.818
| 12> H 	 -91.2593 	 59.4911 	 130.925
| 13> C 	 -92.1496 	 58.1278 	 133.429
| 14> H 	 -92.7599 	 58.2272 	 134.359
| 15> H 	 -91.4665 	 58.937 	 133.622
| 16> C 	 -91.3746 	 56.7941 	 133.506
| 17> H 	 -92.0891 	 55.9733 	 133.368
| 18> H 	 -90.6744 	 56.7845 	 132.71
| 19> C 	 -90.671 	 56.7534 	 134.85
| 20> H 	 -90.0316 	 57.6607 	 134.938
| 21> H 	 -91.2908 	 56.7425 	 135.737
| 22> H 	 -90.0112 	 55.8745 	 135.042
| 23> S 	 -93.8311 	 60.2713 	 127.451
| 24> C 	 -92.7889 	 60.7973 	 126.203
| 25> C 	 -91.5023 	 60.3236 	 126.545
| 26> C 	 -91.3593 	 59.6694 	 127.851
| 27> C 	 -92.6102 	 59.6501 	 128.549
| 28> H 	 -90.7699 	 60.3688 	 125.72
| 29> C 	 -90.0866 	 59.0237 	 128.417
| 30> H 	 -89.8347 	 58.3419 	 127.603
| 31> H 	 -90.3511 	 58.3207 	 129.222
| 32> C 	 -88.8917 	 59.924 	 128.821
| 33> H 	 -89.0387 	 60.7038 	 129.629
| 34> H 	 -88.6759 	 60.4541 	 127.893
| 35> C 	 -87.6578 	 59.094 	 129.263
| 36> H 	 -86.7547 	 59.6675 	 129.553
| 37> H 	 -87.307 	 58.431 	 128.398
| 38> H 	 -87.9541 	 58.4411 	 130.116
| 39> H 	 -94.5546 	 57.2128 	 132.401
| 40> H 	 -93.0667 	 61.2699 	 125.221
| 41> *
| 42>
| 43>                          ****END OF INPUT****

CARTESIAN COORDINATES (ANGSTROEM)
---------------------------------
  S    -94.372800   58.127900  130.021000
  C    -93.987500   57.784100  131.707000
  C    -92.869000   58.391500  132.101000
  C    -92.257700   59.085100  130.977000
  C    -93.021300   59.160100  129.818000
  H    -91.259300   59.491100  130.925000
  C    -92.149600   58.127800  133.429000
  H    -92.759900   58.227200  134.359000
  H    -91.466500   58.937000  133.622000
  C    -91.374600   56.794100  133.506000
  H    -92.089100   55.973300  133.368000
  H    -90.674400   56.784500  132.710000
  C    -90.671000   56.753400  134.850000
  H    -90.031600   57.660700  134.938000
  H    -91.290800   56.742500  135.737000
  H    -90.011200   55.874500  135.042000
  S    -93.831100   60.271300  127.451000
  C    -92.788900   60.797300  126.203000
  C    -91.502300   60.323600  126.545000
  C    -91.359300   59.669400  127.851000
  C    -92.610200   59.650100  128.549000
  H    -90.769900   60.368800  125.720000
  C    -90.086600   59.023700  128.417000
  H    -89.834700   58.341900  127.603000
  H    -90.351100   58.320700  129.222000
  C    -88.891700   59.924000  128.821000
  H    -89.038700   60.703800  129.629000
  H    -88.675900   60.454100  127.893000
  C    -87.657800   59.094000  129.263000
  H    -86.754700   59.667500  129.553000
  H    -87.307000   58.431000  128.398000
  H    -87.954100   58.441100  130.116000
  H    -94.554600   57.212800  132.401000
  H    -93.066700   61.269900  125.221000

 Total Charge           Charge          ....    0
 Multiplicity           Mult            ....    1
 Number of Electrons    NEL             ....  134
 Basis Dimension        Dim             ....  322

ORBITAL ENERGIES
----------------

  NO   OCC          E(Eh)            E(eV)
   0   2.0000     -88.964962     -2420.8597
   1   2.0000     -88.964482     -2420.8466
   2   2.0000     -10.332238      -281.1545
   3   2.0000     -10.327556      -281.0271
   4   2.0000     -10.326025      -280.9854
   5   2.0000     -10.317783      -280.7611
   6   2.0000     -10.309930      -280.5475
   7   2.0000     -10.304643      -280.4036
   8   2.0000     -10.301228      -280.3107
   9   2.0000     -10.298671      -280.2411
  10   2.0000     -10.297264      -280.2028
  11   2.0000     -10.295878      -280.1651
  12   2.0000     -10.295535      -280.1557
  13   2.0000     -10.291171      -280.0370
  14   2.0000     -10.288821      -279.9731
  15   2.0000     -10.283932      -279.8400
  16   2.0000      -8.080304      -219.8763
  17   2.0000      -8.079754      -219.8613
  18   2.0000      -6.038950      -164.3282
  19   2.0000      -6.038238      -164.3088
  20   2.0000      -6.034735      -164.2135
  21   2.0000      -6.033889      -164.1905
  22   2.0000      -6.030837      -164.1074
  23   2.0000      -6.030772      -164.1056
  24   2.0000      -1.011905       -27.5353
  25   2.0000      -0.985739       -26.8233
  26   2.0000      -0.916911       -24.9504
  27   2.0000      -0.905529       -24.6407
  28   2.0000      -0.878688       -23.9103
  29   2.0000      -0.849554       -23.1175
  30   2.0000      -0.839389       -22.8409
  31   2.0000      -0.813715       -22.1423
  32   2.0000      -0.780701       -21.2440
  33   2.0000      -0.772475       -21.0201
  34   2.0000      -0.709688       -19.3116
  35   2.0000      -0.707949       -19.2643
  36   2.0000      -0.697056       -18.9678
  37   2.0000      -0.659598       -17.9486
  38   2.0000      -0.638140       -17.3647
  39   2.0000      -0.619479       -16.8569
  40   2.0000      -0.592392       -16.1198
  41   2.0000      -0.575927       -15.6718
  42   2.0000      -0.565061       -15.3761
  43   2.0000      -0.559211       -15.2169
  44   2.0000      -0.527064       -14.3422
  45   2.0000      -0.520149       -14.1540
  46   2.0000      -0.519297       -14.1308
  47   2.0000      -0.519036       -14.1237
  48   2.0000      -0.506473       -13.7818
  49   2.0000      -0.503545       -13.7021
  50   2.0000      -0.495442       -13.4817
  51   2.0000      -0.482127       -13.1193
  52   2.0000      -0.472253       -12.8506
  53   2.0000      -0.463786       -12.6203
  54   2.0000      -0.454532       -12.3684
  55   2.0000      -0.449908       -12.2426
  56   2.0000      -0.446147       -12.1403
  57   2.0000      -0.435724       -11.8566
  58   2.0000      -0.432948       -11.7811
  59   2.0000      -0.428134       -11.6501
  60   2.0000      -0.422774       -11.5043
  61   2.0000      -0.419713       -11.4210
  62   2.0000      -0.404066       -10.9952
  63   2.0000      -0.359492        -9.7823
  64   2.0000      -0.329097        -8.9552
  65   2.0000      -0.325652        -8.8614
  66   2.0000      -0.290424        -7.9028
  67   0.0000       0.023319         0.6345
  68   0.0000       0.075623         2.0578
  69   0.0000       0.112038         3.0487
  70   0.0000       0.118961         3.2371
  71   0.0000       0.123745         3.3673

MULLIKEN ATOMIC CHARGES
-----------------------
   0 S :    0.105089
   1 C :   -0.101595
   2 C :   -0.035445
   3 C :   -0.025292
   4 C :   -0.092448
   5 H :    0.005298
   6 C :    0.012629
   7 H :    0.028406
   8 H :    0.009157
   9 C :   -0.011723
  10 H :    0.030609
  11 H :    0.021136
  12 C :   -0.070394
  13 H :    0.029587
  14 H :    0.027692
  15 H :    0.038513
  16 S :    0.102618
  17 C :   -0.112795
  18 C :   -0.067898
  19 C :   -0.016217
  20 C :   -0.164018
  21 H :    0.030578
  22 C :    0.026440
  23 H :    0.032105
  24 H :    0.026923
  25 C :   -0.062750
  26 H :    0.049730
  27 H :    0.030105
  28 C :   -0.090990
  29 H :    0.047108
  30 H :    0.038001
  31 H :    0.037873
  32 H :    0.032002
  33 H :    0.089967
Sum of atomic charges:   -0.0000000

LOEWDIN ATOMIC CHARGES
----------------------
   0 S :    0.412809
   1 C :   -0.178298
   2 C :   -0.066109
   3 C :   -0.061067
   4 C :   -0.208866
   5 H :    0.025912
   6 C :   -0.035248
   7 H :    0.034068
   8 H :    0.024229
   9 C :   -0.030403
  10 H :    0.025040
  11 H :    0.020454
  12 C :   -0.072964
  13 H :    0.028711
  14 H :    0.022779
  15 H :    0.029807
  16 S :    0.425435
  17 C :   -0.213958
  18 C :   -0.084976
  19 C :   -0.051172
  20 C :   -0.200616
  21 H :    0.032109
  22 C :   -0.039497
  23 H :    0.038145
  24 H :    0.029456
  25 C :   -0.046484
  26 H :    0.031913
  27 H :    0.024402
  28 C :   -0.077353
  29 H :    0.029046
  30 H :    0.030628
  31 H :    0.026316
  32 H :    0.025457
  33 H :    0.050295

  Mayer bond orders larger than 0.100000
B(  0-S ,  1-C ) :   1.1288 B(  0-S ,  4-C ) :   1.1423 B(  1-C ,  2-C ) :   1.6424
B(  1-C , 32-H ) :   0.9688 B(  2-C ,  3-C ) :   1.2160 B(  2-C ,  6-C ) :   1.0252
B(  3-C ,  4-C ) :   1.5688 B(  3-C ,  5-H ) :   1.0031 B(  4-C , 20-C ) :   1.0837
B(  6-C ,  7-H ) :   0.9447 B(  6-C ,  8-H ) :   0.9402 B(  6-C ,  9-C ) :   1.0564
B(  9-C , 10-H ) :   0.9561 B(  9-C , 11-H ) :   0.9538 B(  9-C , 12-C ) :   1.0756
B( 12-C , 13-H ) :   0.9731 B( 12-C , 14-H ) :   0.9753 B( 12-C , 15-H ) :   0.9731
B( 16-S , 17-C ) :   1.1769 B( 16-S , 20-C ) :   1.1550 B( 17-C , 18-C ) :   1.5658
B( 17-C , 20-C ) :   0.1084 B( 17-C , 33-H ) :   0.9633 B( 18-C , 19-C ) :   1.2666
B( 18-C , 21-H ) :   0.9847 B( 19-C , 20-C ) :   1.5183 B( 19-C , 22-C ) :   1.0346
B( 22-C , 23-H ) :   0.9313 B( 22-C , 24-H ) :   0.9393 B( 22-C , 25-C ) :   1.0469
B( 25-C , 26-H ) :   0.9580 B( 25-C , 27-H ) :   0.9539 B( 25-C , 28-C ) :   1.0743
B( 28-C , 29-H ) :   0.9755 B( 28-C , 30-H ) :   0.9752 B( 28-C , 31-H ) :   0.9749

Dispersion correction           -0.013742078
FINAL SINGLE POINT ENERGY     -1339.871708568655

DIPOLE MOMENT
-------------
                                X             Y             Z
Electronic contribution:    -27.46745       7.39744     -18.01545
Nuclear contribution   :     28.18035      -7.64286      18.20045
                        -----------------------------------------
Total Dipole Moment    :      0.71289      -0.24542       0.18500
                        -----------------------------------------
Magnitude (a.u.)       :      0.77632
Magnitude (Debye)      :      1.97325

Rotational constants in cm-1:     0.017657     0.008970     0.006188
Rotational constants in MHz :   529.353360   268.917951   185.517796

                             ****ORCA TERMINATED NORMALLY****
TOTAL RUN TIME: 0 days 0 hours 0 minutes 34 seconds 409 msec
