                         Program Version 4.2.1 -  RELEASE  -
|  1> ! wB97X-D3 SP def2-SVP
|  2> %pal
|  3> nprocs 16
|  4> end
|  5>
|  6> * xyz 0 1
|  7> S 	 62.8941 	 -8.09217 	 87.8053
|  8> C 	 62.8896 	 -6.43153 	 88.2332
|  9> C 	 61.6482 	 -5.88938 	 87.9885
| 10> C 	 60.7812 	 -6.68441 	 87.2337
| 11> C 	 61.4794 	 -7.87037 	 86.848
| 12> H 	 59.7412 	 -6.44182 	 86.9417
| 13> C 	 61.1649 	 -4.53803 	 88.522
| 14> H 	 61.1343 	 -3.82016 	 87.6898
| 15> H 	 61.9149 	 -4.11023 	 89.152
| 16> C 	 59.7896 	 -4.47185 	 89.2326
| 17> H 	 59.6649 	 -3.58244 	 89.8484
| 18> H 	 58.99 	 -4.40936 	 88.4629
| 19> C 	 59.4533 	 -5.59683 	 90.2485
| 20> H 	 58.4686 	 -5.48805 	 90.7227
| 21> H 	 59.3819 	 -6.54139 	 89.6911
| 22> H 	 60.2991 	 -5.48481 	 91.048
| 23> S 	 61.0423 	 -10.6444 	 86.8707
| 24> C 	 59.9805 	 -11.259 	 85.5043
| 25> C 	 59.4367 	 -10.2469 	 84.7854
| 26> C 	 60.0065 	 -8.97714 	 85.0555
| 27> C 	 60.9631 	 -8.98779 	 86.0468
| 28> H 	 58.6545 	 -10.4418 	 84.0461
| 29> C 	 59.5929 	 -7.71322 	 84.3151
| 30> H 	 59.968 	 -6.75852 	 84.7605
| 31> H 	 58.5249 	 -7.64839 	 84.4722
| 32> C 	 59.7109 	 -7.71388 	 82.7773
| 33> H 	 59.2829 	 -6.76401 	 82.3885
| 34> H 	 59.1344 	 -8.56152 	 82.2934
| 35> C 	 61.1949 	 -7.70499 	 82.384
| 36> H 	 61.298 	 -7.67648 	 81.2907
| 37> H 	 61.8279 	 -8.60461 	 82.7702
| 38> H 	 61.7042 	 -6.89559 	 82.8906
| 39> H 	 63.8237 	 -5.95843 	 88.6304
| 40> H 	 59.642 	 -12.3267 	 85.5281
| 41> *
| 42>
| 43>                          ****END OF INPUT****

CARTESIAN COORDINATES (ANGSTROEM)
---------------------------------
  S     62.894100   -8.092170   87.805300
  C     62.889600   -6.431530   88.233200
  C     61.648200   -5.889380   87.988500
  C     60.781200   -6.684410   87.233700
  C     61.479400   -7.870370   86.848000
  H     59.741200   -6.441820   86.941700
  C     61.164900   -4.538030   88.522000
  H     61.134300   -3.820160   87.689800
  H     61.914900   -4.110230   89.152000
  C     59.789600   -4.471850   89.232600
  H     59.664900   -3.582440   89.848400
  H     58.990000   -4.409360   88.462900
  C     59.453300   -5.596830   90.248500
  H     58.468600   -5.488050   90.722700
  H     59.381900   -6.541390   89.691100
  H     60.299100   -5.484810   91.048000
  S     61.042300  -10.644400   86.870700
  C     59.980500  -11.259000   85.504300
  C     59.436700  -10.246900   84.785400
  C     60.006500   -8.977140   85.055500
  C     60.963100   -8.987790   86.046800
  H     58.654500  -10.441800   84.046100
  C     59.592900   -7.713220   84.315100
  H     59.968000   -6.758520   84.760500
  H     58.524900   -7.648390   84.472200
  C     59.710900   -7.713880   82.777300
  H     59.282900   -6.764010   82.388500
  H     59.134400   -8.561520   82.293400
  C     61.194900   -7.704990   82.384000
  H     61.298000   -7.676480   81.290700
  H     61.827900   -8.604610   82.770200
  H     61.704200   -6.895590   82.890600
  H     63.823700   -5.958430   88.630400
  H     59.642000  -12.326700   85.528100

 Total Charge           Charge          ....    0
 Multiplicity           Mult            ....    1
 Number of Electrons    NEL             ....  134
 Basis Dimension        Dim             ....  322

ORBITAL ENERGIES
----------------

  NO   OCC          E(Eh)            E(eV)
   0   2.0000     -88.966448     -2420.9001
   1   2.0000     -88.962084     -2420.7814
   2   2.0000     -10.332530      -281.1624
   3   2.0000     -10.331371      -281.1309
   4   2.0000     -10.327348      -281.0214
   5   2.0000     -10.313267      -280.6383
   6   2.0000     -10.306091      -280.4430
   7   2.0000     -10.300422      -280.2887
   8   2.0000     -10.299914      -280.2749
   9   2.0000     -10.298415      -280.2341
  10   2.0000     -10.295861      -280.1646
  11   2.0000     -10.295395      -280.1519
  12   2.0000     -10.291426      -280.0439
  13   2.0000     -10.290675      -280.0235
  14   2.0000     -10.284668      -279.8601
  15   2.0000     -10.278342      -279.6879
  16   2.0000      -8.082493      -219.9358
  17   2.0000      -8.074689      -219.7234
  18   2.0000      -6.040711      -164.3761
  19   2.0000      -6.037050      -164.2765
  20   2.0000      -6.033436      -164.1781
  21   2.0000      -6.033259      -164.1733
  22   2.0000      -6.029972      -164.0839
  23   2.0000      -6.024839      -163.9442
  24   2.0000      -1.009303       -27.4645
  25   2.0000      -0.979791       -26.6615
  26   2.0000      -0.907616       -24.6975
  27   2.0000      -0.903679       -24.5904
  28   2.0000      -0.866727       -23.5848
  29   2.0000      -0.850325       -23.1385
  30   2.0000      -0.838791       -22.8247
  31   2.0000      -0.810235       -22.0476
  32   2.0000      -0.781528       -21.2664
  33   2.0000      -0.770429       -20.9644
  34   2.0000      -0.703641       -19.1471
  35   2.0000      -0.690498       -18.7894
  36   2.0000      -0.687664       -18.7123
  37   2.0000      -0.657126       -17.8813
  38   2.0000      -0.637202       -17.3392
  39   2.0000      -0.620534       -16.8856
  40   2.0000      -0.596122       -16.2213
  41   2.0000      -0.558909       -15.2087
  42   2.0000      -0.554884       -15.0992
  43   2.0000      -0.549360       -14.9488
  44   2.0000      -0.541262       -14.7285
  45   2.0000      -0.534645       -14.5484
  46   2.0000      -0.521593       -14.1933
  47   2.0000      -0.514227       -13.9928
  48   2.0000      -0.493466       -13.4279
  49   2.0000      -0.492218       -13.3939
  50   2.0000      -0.488314       -13.2877
  51   2.0000      -0.474628       -12.9153
  52   2.0000      -0.467272       -12.7151
  53   2.0000      -0.463687       -12.6176
  54   2.0000      -0.455150       -12.3852
  55   2.0000      -0.448100       -12.1934
  56   2.0000      -0.439457       -11.9582
  57   2.0000      -0.437218       -11.8973
  58   2.0000      -0.430825       -11.7233
  59   2.0000      -0.418506       -11.3881
  60   2.0000      -0.416650       -11.3376
  61   2.0000      -0.410982       -11.1834
  62   2.0000      -0.409430       -11.1411
  63   2.0000      -0.352164        -9.5829
  64   2.0000      -0.333085        -9.0637
  65   2.0000      -0.328442        -8.9374
  66   2.0000      -0.281451        -7.6587
  67   0.0000       0.015129         0.4117
  68   0.0000       0.065201         1.7742
  69   0.0000       0.083890         2.2828
  70   0.0000       0.120061         3.2670
  71   0.0000       0.124552         3.3892

MULLIKEN ATOMIC CHARGES
-----------------------
   0 S :    0.115926
   1 C :   -0.145429
   2 C :   -0.088017
   3 C :    0.012055
   4 C :   -0.173330
   5 H :    0.038432
   6 C :    0.106384
   7 H :    0.034536
   8 H :    0.003183
   9 C :   -0.112787
  10 H :    0.032262
  11 H :    0.024600
  12 C :   -0.077143
  13 H :    0.039014
  14 H :    0.044917
  15 H :    0.049702
  16 S :    0.042788
  17 C :   -0.105271
  18 C :   -0.015637
  19 C :   -0.050036
  20 C :   -0.086197
  21 H :    0.029258
  22 C :    0.032861
  23 H :    0.037922
  24 H :    0.023439
  25 C :   -0.079520
  26 H :    0.034528
  27 H :    0.040826
  28 C :   -0.077719
  29 H :    0.040294
  30 H :    0.050920
  31 H :    0.027818
  32 H :    0.070940
  33 H :    0.078479
Sum of atomic charges:    0.0000000

LOEWDIN ATOMIC CHARGES
----------------------
   0 S :    0.436295
   1 C :   -0.217620
   2 C :   -0.067462
   3 C :   -0.067143
   4 C :   -0.193754
   5 H :    0.039258
   6 C :   -0.031698
   7 H :    0.035244
   8 H :    0.022535
   9 C :   -0.049243
  10 H :    0.026952
  11 H :    0.018371
  12 C :   -0.074026
  13 H :    0.026167
  14 H :    0.025831
  15 H :    0.038465
  16 S :    0.309490
  17 C :   -0.151734
  18 C :   -0.068242
  19 C :   -0.055638
  20 C :   -0.163753
  21 H :    0.037927
  22 C :   -0.038310
  23 H :    0.034806
  24 H :    0.031107
  25 C :   -0.044463
  26 H :    0.029409
  27 H :    0.027097
  28 C :   -0.078063
  29 H :    0.024127
  30 H :    0.037276
  31 H :    0.023330
  32 H :    0.039010
  33 H :    0.038453

  Mayer bond orders larger than 0.100000
B(  0-S ,  1-C ) :   1.1479 B(  0-S ,  4-C ) :   1.2018 B(  1-C ,  2-C ) :   1.5677
B(  1-C ,  4-C ) :   0.1057 B(  1-C , 32-H ) :   0.9677 B(  2-C ,  3-C ) :   1.2823
B(  2-C ,  6-C ) :   1.0196 B(  3-C ,  4-C ) :   1.4767 B(  3-C ,  5-H ) :   0.9868
B(  4-C , 20-C ) :   1.0593 B(  6-C ,  7-H ) :   0.9388 B(  6-C ,  8-H ) :   0.9401
B(  6-C ,  9-C ) :   1.0636 B(  9-C , 10-H ) :   0.9606 B(  9-C , 11-H ) :   0.9527
B(  9-C , 12-C ) :   1.0772 B( 12-C , 13-H ) :   0.9738 B( 12-C , 14-H ) :   0.9712
B( 12-C , 15-H ) :   0.9762 B( 16-S , 17-C ) :   1.1137 B( 16-S , 20-C ) :   1.0918
B( 17-C , 18-C ) :   1.6570 B( 17-C , 33-H ) :   0.9602 B( 18-C , 19-C ) :   1.2005
B( 18-C , 21-H ) :   0.9870 B( 19-C , 20-C ) :   1.6520 B( 19-C , 22-C ) :   1.0337
B( 22-C , 23-H ) :   0.9392 B( 22-C , 24-H ) :   0.9248 B( 22-C , 25-C ) :   1.0812
B( 25-C , 26-H ) :   0.9504 B( 25-C , 27-H ) :   0.9541 B( 25-C , 28-C ) :   1.0682
B( 28-C , 29-H ) :   0.9759 B( 28-C , 30-H ) :   0.9740 B( 28-C , 31-H ) :   0.9725

Dispersion correction           -0.014798776
FINAL SINGLE POINT ENERGY     -1339.856259887883

DIPOLE MOMENT
-------------
                                X             Y             Z
Electronic contribution:     11.52596     -18.63718       5.82648
Nuclear contribution   :    -12.11915      19.15900      -5.99253
                        -----------------------------------------
Total Dipole Moment    :     -0.59320       0.52182      -0.16606
                        -----------------------------------------
Magnitude (a.u.)       :      0.80731
Magnitude (Debye)      :      2.05203

Rotational constants in cm-1:     0.018555     0.008919     0.007701
Rotational constants in MHz :   556.277754   267.387236   230.869018

                             ****ORCA TERMINATED NORMALLY****
TOTAL RUN TIME: 0 days 0 hours 0 minutes 32 seconds 281 msec
