                         Program Version 4.2.1 -  RELEASE  -
|  1> ! wB97X-D3 SP def2-SVP
|  2> %pal
|  3> nprocs 16
|  4> end
|  5>
|  6> * xyz 0 1
|  7> S 	 -30.3172 	 63.5718 	 106.983
|  8> C 	 -30.1444 	 64.93 	 108.055
|  9> C 	 -30.4962 	 66.019 	 107.327
| 10> C 	 -30.7754 	 65.8104 	 105.965
| 11> C 	 -30.8951 	 64.4999 	 105.672
| 12> H 	 -30.9662 	 66.4583 	 105.176
| 13> C 	 -30.4613 	 67.3956 	 107.894
| 14> H 	 -30.7041 	 67.3209 	 109.005
| 15> H 	 -31.3365 	 67.924 	 107.529
| 16> C 	 -29.1729 	 68.2213 	 107.596
| 17> H 	 -28.9686 	 68.4934 	 106.552
| 18> H 	 -29.2328 	 69.224 	 107.903
| 19> C 	 -28.0214 	 67.5814 	 108.149
| 20> H 	 -27.9067 	 66.6183 	 107.723
| 21> H 	 -27.0863 	 67.9809 	 107.85
| 22> H 	 -27.9839 	 67.3895 	 109.211
| 23> S 	 -32.8323 	 64.5009 	 103.757
| 24> C 	 -32.7242 	 63.4332 	 102.373
| 25> C 	 -31.6025 	 62.741 	 102.435
| 26> C 	 -30.8507 	 62.8705 	 103.659
| 27> C 	 -31.2704 	 63.9602 	 104.316
| 28> H 	 -31.3152 	 62.1517 	 101.569
| 29> C 	 -29.5522 	 62.1527 	 104.033
| 30> H 	 -29.8638 	 61.5102 	 104.797
| 31> H 	 -28.913 	 62.9638 	 104.375
| 32> C 	 -28.8644 	 61.4201 	 102.845
| 33> H 	 -28.9842 	 62.0355 	 101.948
| 34> H 	 -29.4385 	 60.5216 	 102.514
| 35> C 	 -27.4762 	 60.9648 	 103.162
| 36> H 	 -27.3625 	 60.2647 	 103.945
| 37> H 	 -26.7572 	 61.7565 	 103.298
| 38> H 	 -27.0964 	 60.5067 	 102.299
| 39> H 	 -29.9225 	 64.8466 	 109.069
| 40> H 	 -33.3546 	 63.4962 	 101.521
| 41> *
| 42>
| 43>                          ****END OF INPUT****

CARTESIAN COORDINATES (ANGSTROEM)
---------------------------------
  S    -30.317200   63.571800  106.983000
  C    -30.144400   64.930000  108.055000
  C    -30.496200   66.019000  107.327000
  C    -30.775400   65.810400  105.965000
  C    -30.895100   64.499900  105.672000
  H    -30.966200   66.458300  105.176000
  C    -30.461300   67.395600  107.894000
  H    -30.704100   67.320900  109.005000
  H    -31.336500   67.924000  107.529000
  C    -29.172900   68.221300  107.596000
  H    -28.968600   68.493400  106.552000
  H    -29.232800   69.224000  107.903000
  C    -28.021400   67.581400  108.149000
  H    -27.906700   66.618300  107.723000
  H    -27.086300   67.980900  107.850000
  H    -27.983900   67.389500  109.211000
  S    -32.832300   64.500900  103.757000
  C    -32.724200   63.433200  102.373000
  C    -31.602500   62.741000  102.435000
  C    -30.850700   62.870500  103.659000
  C    -31.270400   63.960200  104.316000
  H    -31.315200   62.151700  101.569000
  C    -29.552200   62.152700  104.033000
  H    -29.863800   61.510200  104.797000
  H    -28.913000   62.963800  104.375000
  C    -28.864400   61.420100  102.845000
  H    -28.984200   62.035500  101.948000
  H    -29.438500   60.521600  102.514000
  C    -27.476200   60.964800  103.162000
  H    -27.362500   60.264700  103.945000
  H    -26.757200   61.756500  103.298000
  H    -27.096400   60.506700  102.299000
  H    -29.922500   64.846600  109.069000
  H    -33.354600   63.496200  101.521000

 Total Charge           Charge          ....    0
 Multiplicity           Mult            ....    1
 Number of Electrons    NEL             ....  134
 Basis Dimension        Dim             ....  322

ORBITAL ENERGIES
----------------

  NO   OCC          E(Eh)            E(eV)
   0   2.0000     -88.960200     -2420.7301
   1   2.0000     -88.958097     -2420.6729
   2   2.0000     -10.323211      -280.9089
   3   2.0000     -10.321274      -280.8562
   4   2.0000     -10.307363      -280.4776
   5   2.0000     -10.307191      -280.4729
   6   2.0000     -10.297297      -280.2037
   7   2.0000     -10.293464      -280.0994
   8   2.0000     -10.290496      -280.0186
   9   2.0000     -10.289772      -279.9989
  10   2.0000     -10.288594      -279.9669
  11   2.0000     -10.287864      -279.9470
  12   2.0000     -10.280331      -279.7420
  13   2.0000     -10.276335      -279.6333
  14   2.0000     -10.267364      -279.3892
  15   2.0000     -10.255909      -279.0775
  16   2.0000      -8.075906      -219.7566
  17   2.0000      -8.073470      -219.6903
  18   2.0000      -6.034366      -164.2034
  19   2.0000      -6.032099      -164.1418
  20   2.0000      -6.030162      -164.0890
  21   2.0000      -6.027975      -164.0295
  22   2.0000      -6.026766      -163.9966
  23   2.0000      -6.023966      -163.9204
  24   2.0000      -1.018024       -27.7018
  25   2.0000      -0.997129       -27.1333
  26   2.0000      -0.918613       -24.9967
  27   2.0000      -0.910615       -24.7791
  28   2.0000      -0.876795       -23.8588
  29   2.0000      -0.857320       -23.3289
  30   2.0000      -0.851287       -23.1647
  31   2.0000      -0.825147       -22.4534
  32   2.0000      -0.784274       -21.3412
  33   2.0000      -0.775533       -21.1033
  34   2.0000      -0.711653       -19.3651
  35   2.0000      -0.709707       -19.3121
  36   2.0000      -0.698089       -18.9960
  37   2.0000      -0.662092       -18.0164
  38   2.0000      -0.643212       -17.5027
  39   2.0000      -0.615014       -16.7354
  40   2.0000      -0.598507       -16.2862
  41   2.0000      -0.575571       -15.6621
  42   2.0000      -0.571138       -15.5415
  43   2.0000      -0.561542       -15.2803
  44   2.0000      -0.540997       -14.7213
  45   2.0000      -0.533921       -14.5287
  46   2.0000      -0.529990       -14.4218
  47   2.0000      -0.521919       -14.2021
  48   2.0000      -0.508568       -13.8388
  49   2.0000      -0.502163       -13.6646
  50   2.0000      -0.488875       -13.3030
  51   2.0000      -0.484532       -13.1848
  52   2.0000      -0.480561       -13.0767
  53   2.0000      -0.466495       -12.6940
  54   2.0000      -0.457788       -12.4570
  55   2.0000      -0.450256       -12.2521
  56   2.0000      -0.442962       -12.0536
  57   2.0000      -0.433444       -11.7946
  58   2.0000      -0.430243       -11.7075
  59   2.0000      -0.421925       -11.4812
  60   2.0000      -0.413984       -11.2651
  61   2.0000      -0.413068       -11.2401
  62   2.0000      -0.400471       -10.8974
  63   2.0000      -0.354896        -9.6572
  64   2.0000      -0.329590        -8.9686
  65   2.0000      -0.324842        -8.8394
  66   2.0000      -0.302059        -8.2194
  67   0.0000       0.037555         1.0219
  68   0.0000       0.083080         2.2607
  69   0.0000       0.118214         3.2168
  70   0.0000       0.129287         3.5181
  71   0.0000       0.136958         3.7268

MULLIKEN ATOMIC CHARGES
-----------------------
   0 S :    0.084296
   1 C :   -0.091490
   2 C :   -0.069661
   3 C :    0.028947
   4 C :   -0.117215
   5 H :   -0.013769
   6 C :    0.042143
   7 H :    0.030900
   8 H :    0.020795
   9 C :   -0.005590
  10 H :    0.015048
  11 H :    0.005190
  12 C :   -0.010958
  13 H :    0.013733
  14 H :    0.007016
  15 H :    0.016951
  16 S :    0.083007
  17 C :   -0.056698
  18 C :   -0.040367
  19 C :   -0.093553
  20 C :   -0.137671
  21 H :    0.015761
  22 C :    0.099072
  23 H :    0.034756
  24 H :    0.047525
  25 C :   -0.120977
  26 H :    0.028762
  27 H :    0.028112
  28 C :    0.029415
  29 H :    0.027074
  30 H :    0.020475
  31 H :    0.007112
  32 H :    0.029388
  33 H :    0.042472
Sum of atomic charges:    0.0000000

LOEWDIN ATOMIC CHARGES
----------------------
   0 S :    0.423928
   1 C :   -0.185972
   2 C :   -0.066826
   3 C :   -0.064900
   4 C :   -0.196369
   5 H :    0.022081
   6 C :   -0.031423
   7 H :    0.036640
   8 H :    0.028133
   9 C :   -0.043971
  10 H :    0.031175
  11 H :    0.018833
  12 C :   -0.067251
  13 H :    0.023294
  14 H :    0.022294
  15 H :    0.021689
  16 S :    0.393445
  17 C :   -0.175646
  18 C :   -0.073022
  19 C :   -0.060167
  20 C :   -0.188995
  21 H :    0.031492
  22 C :   -0.026437
  23 H :    0.025238
  24 H :    0.035394
  25 C :   -0.044682
  26 H :    0.024560
  27 H :    0.027871
  28 C :   -0.058093
  29 H :    0.023621
  30 H :    0.024848
  31 H :    0.023413
  32 H :    0.020334
  33 H :    0.025472

  Mayer bond orders larger than 0.100000
B(  0-S ,  1-C ) :   1.1289 B(  0-S ,  4-C ) :   1.1649 B(  1-C ,  2-C ) :   1.5847
B(  1-C , 32-H ) :   0.9903 B(  2-C ,  3-C ) :   1.2177 B(  2-C ,  6-C ) :   1.0373
B(  3-C ,  4-C ) :   1.5627 B(  3-C ,  5-H ) :   1.0173 B(  4-C , 20-C ) :   0.9865
B(  6-C ,  7-H ) :   0.9473 B(  6-C ,  8-H ) :   0.9354 B(  6-C ,  9-C ) :   1.0618
B(  9-C , 10-H ) :   0.9453 B(  9-C , 11-H ) :   0.9465 B(  9-C , 12-C ) :   1.0979
B( 12-C , 13-H ) :   0.9616 B( 12-C , 14-H ) :   0.9599 B( 12-C , 15-H ) :   0.9709
B( 16-S , 17-C ) :   1.1241 B( 16-S , 20-C ) :   1.1361 B( 17-C , 18-C ) :   1.6704
B( 17-C , 33-H ) :   0.9632 B( 18-C , 19-C ) :   1.1815 B( 18-C , 21-H ) :   0.9866
B( 19-C , 20-C ) :   1.6702 B( 19-C , 22-C ) :   1.0072 B( 22-C , 23-H ) :   0.9149
B( 22-C , 24-H ) :   0.9485 B( 22-C , 25-C ) :   1.0866 B( 25-C , 26-H ) :   0.9541
B( 25-C , 27-H ) :   0.9464 B( 25-C , 28-C ) :   1.0969 B( 28-C , 29-H ) :   0.9716
B( 28-C , 30-H ) :   0.9694 B( 28-C , 31-H ) :   0.9635

Dispersion correction           -0.014169636
FINAL SINGLE POINT ENERGY     -1339.851207509043

DIPOLE MOMENT
-------------
                                X             Y             Z
Electronic contribution:    -19.47503      -3.19928      -1.28651
Nuclear contribution   :     19.88713       3.23474       1.04414
                        -----------------------------------------
Total Dipole Moment    :      0.41210       0.03546      -0.24237
                        -----------------------------------------
Magnitude (a.u.)       :      0.47940
Magnitude (Debye)      :      1.21854

Rotational constants in cm-1:     0.020007     0.008232     0.006661
Rotational constants in MHz :   599.804525   246.780982   199.701387

                             ****ORCA TERMINATED NORMALLY****
TOTAL RUN TIME: 0 days 0 hours 0 minutes 30 seconds 40 msec
