                         Program Version 4.2.1 -  RELEASE  -
|  1> ! wB97X-D3 SP def2-SVP
|  2> %pal
|  3> nprocs 16
|  4> end
|  5>
|  6> * xyz 0 1
|  7> S 	 42.4759 	 9.65941 	 79.4178
|  8> C 	 42.6926 	 8.13624 	 80.286
|  9> C 	 43.5782 	 8.24852 	 81.3223
| 10> C 	 44.022 	 9.61546 	 81.5126
| 11> C 	 43.4656 	 10.5537 	 80.6032
| 12> H 	 44.6726 	 9.84425 	 82.3476
| 13> C 	 43.9375 	 7.10278 	 82.2749
| 14> H 	 44.8991 	 7.40471 	 82.7873
| 15> H 	 44.1126 	 6.15179 	 81.6868
| 16> C 	 42.9431 	 6.69228 	 83.3307
| 17> H 	 42.0255 	 6.55216 	 82.7879
| 18> H 	 43.1697 	 5.68456 	 83.6381
| 19> C 	 42.6318 	 7.77164 	 84.4026
| 20> H 	 42.3214 	 8.7452 	 83.9606
| 21> H 	 41.7782 	 7.35828 	 84.9066
| 22> H 	 43.389 	 8.07399 	 85.1896
| 23> S 	 44.903 	 12.6725 	 79.4233
| 24> C 	 44.2022 	 14.2291 	 79.5846
| 25> C 	 43.2644 	 14.3151 	 80.5585
| 26> C 	 42.8076 	 13.0336 	 80.9956
| 27> C 	 43.6466 	 12.0255 	 80.4952
| 28> H 	 42.8475 	 15.2569 	 80.8308
| 29> C 	 41.6274 	 12.8097 	 81.805
| 30> H 	 40.8594 	 12.2404 	 81.1981
| 31> H 	 41.1285 	 13.8131 	 81.8962
| 32> C 	 41.828 	 12.2124 	 83.1725
| 33> H 	 41.9444 	 11.1125 	 83.1428
| 34> H 	 40.9359 	 12.281 	 83.8568
| 35> C 	 42.9361 	 12.8459 	 84.032
| 36> H 	 43.8581 	 12.4165 	 83.716
| 37> H 	 42.8072 	 12.5677 	 85.0736
| 38> H 	 42.9441 	 13.9221 	 84.1047
| 39> H 	 42.3543 	 7.13404 	 79.8705
| 40> H 	 44.5191 	 15.0881 	 78.9866
| 41> *
| 42>
| 43>                          ****END OF INPUT****

CARTESIAN COORDINATES (ANGSTROEM)
---------------------------------
  S     42.475900    9.659410   79.417800
  C     42.692600    8.136240   80.286000
  C     43.578200    8.248520   81.322300
  C     44.022000    9.615460   81.512600
  C     43.465600   10.553700   80.603200
  H     44.672600    9.844250   82.347600
  C     43.937500    7.102780   82.274900
  H     44.899100    7.404710   82.787300
  H     44.112600    6.151790   81.686800
  C     42.943100    6.692280   83.330700
  H     42.025500    6.552160   82.787900
  H     43.169700    5.684560   83.638100
  C     42.631800    7.771640   84.402600
  H     42.321400    8.745200   83.960600
  H     41.778200    7.358280   84.906600
  H     43.389000    8.073990   85.189600
  S     44.903000   12.672500   79.423300
  C     44.202200   14.229100   79.584600
  C     43.264400   14.315100   80.558500
  C     42.807600   13.033600   80.995600
  C     43.646600   12.025500   80.495200
  H     42.847500   15.256900   80.830800
  C     41.627400   12.809700   81.805000
  H     40.859400   12.240400   81.198100
  H     41.128500   13.813100   81.896200
  C     41.828000   12.212400   83.172500
  H     41.944400   11.112500   83.142800
  H     40.935900   12.281000   83.856800
  C     42.936100   12.845900   84.032000
  H     43.858100   12.416500   83.716000
  H     42.807200   12.567700   85.073600
  H     42.944100   13.922100   84.104700
  H     42.354300    7.134040   79.870500
  H     44.519100   15.088100   78.986600

 Total Charge           Charge          ....    0
 Multiplicity           Mult            ....    1
 Number of Electrons    NEL             ....  134
 Basis Dimension        Dim             ....  322

ORBITAL ENERGIES
----------------

  NO   OCC          E(Eh)            E(eV)
   0   2.0000     -88.966217     -2420.8938
   1   2.0000     -88.965993     -2420.8878
   2   2.0000     -10.337814      -281.3062
   3   2.0000     -10.325854      -280.9808
   4   2.0000     -10.318900      -280.7915
   5   2.0000     -10.314057      -280.6598
   6   2.0000     -10.302380      -280.3420
   7   2.0000     -10.301726      -280.3242
   8   2.0000     -10.301271      -280.3118
   9   2.0000     -10.298210      -280.2286
  10   2.0000     -10.292521      -280.0737
  11   2.0000     -10.288554      -279.9658
  12   2.0000     -10.286330      -279.9053
  13   2.0000     -10.286150      -279.9004
  14   2.0000     -10.283610      -279.8313
  15   2.0000     -10.269121      -279.4370
  16   2.0000      -8.081330      -219.9042
  17   2.0000      -8.079739      -219.8609
  18   2.0000      -6.039723      -164.3492
  19   2.0000      -6.038297      -164.3104
  20   2.0000      -6.035870      -164.2444
  21   2.0000      -6.034311      -164.2019
  22   2.0000      -6.032109      -164.1420
  23   2.0000      -6.030568      -164.1001
  24   2.0000      -1.002866       -27.2894
  25   2.0000      -0.980299       -26.6753
  26   2.0000      -0.913977       -24.8706
  27   2.0000      -0.910027       -24.7631
  28   2.0000      -0.863221       -23.4894
  29   2.0000      -0.851177       -23.1617
  30   2.0000      -0.839391       -22.8410
  31   2.0000      -0.811868       -22.0920
  32   2.0000      -0.785676       -21.3793
  33   2.0000      -0.772697       -21.0262
  34   2.0000      -0.708384       -19.2761
  35   2.0000      -0.700629       -19.0651
  36   2.0000      -0.685343       -18.6491
  37   2.0000      -0.660034       -17.9604
  38   2.0000      -0.631852       -17.1936
  39   2.0000      -0.611051       -16.6275
  40   2.0000      -0.590972       -16.0812
  41   2.0000      -0.570179       -15.5153
  42   2.0000      -0.553137       -15.0516
  43   2.0000      -0.552186       -15.0258
  44   2.0000      -0.547655       -14.9025
  45   2.0000      -0.532475       -14.4894
  46   2.0000      -0.515717       -14.0334
  47   2.0000      -0.513384       -13.9699
  48   2.0000      -0.494500       -13.4560
  49   2.0000      -0.492395       -13.3987
  50   2.0000      -0.484228       -13.1765
  51   2.0000      -0.478258       -13.0141
  52   2.0000      -0.474190       -12.9034
  53   2.0000      -0.467435       -12.7196
  54   2.0000      -0.458787       -12.4842
  55   2.0000      -0.444744       -12.1021
  56   2.0000      -0.441163       -12.0047
  57   2.0000      -0.438023       -11.9192
  58   2.0000      -0.433674       -11.8009
  59   2.0000      -0.424646       -11.5552
  60   2.0000      -0.419106       -11.4045
  61   2.0000      -0.409320       -11.1382
  62   2.0000      -0.403077       -10.9683
  63   2.0000      -0.334725        -9.1083
  64   2.0000      -0.328955        -8.9513
  65   2.0000      -0.316733        -8.6187
  66   2.0000      -0.311016        -8.4632
  67   0.0000       0.040842         1.1114
  68   0.0000       0.047056         1.2804
  69   0.0000       0.111789         3.0419
  70   0.0000       0.118128         3.2144
  71   0.0000       0.125655         3.4192

MULLIKEN ATOMIC CHARGES
-----------------------
   0 S :    0.109930
   1 C :   -0.151332
   2 C :   -0.094516
   3 C :    0.052849
   4 C :   -0.173866
   5 H :    0.012025
   6 C :    0.015390
   7 H :    0.028626
   8 H :    0.035257
   9 C :   -0.015223
  10 H :    0.009275
  11 H :    0.025231
  12 C :   -0.078646
  13 H :    0.042679
  14 H :    0.030843
  15 H :    0.042907
  16 S :    0.127191
  17 C :   -0.100502
  18 C :   -0.006688
  19 C :   -0.042042
  20 C :   -0.179243
  21 H :    0.005192
  22 C :    0.090618
  23 H :    0.049716
  24 H :    0.016245
  25 C :   -0.107662
  26 H :    0.045235
  27 H :    0.025674
  28 C :   -0.023639
  29 H :    0.029067
  30 H :    0.019933
  31 H :    0.025854
  32 H :    0.072311
  33 H :    0.061308
Sum of atomic charges:    0.0000000

LOEWDIN ATOMIC CHARGES
----------------------
   0 S :    0.389919
   1 C :   -0.201252
   2 C :   -0.074946
   3 C :   -0.056569
   4 C :   -0.188206
   5 H :    0.029214
   6 C :   -0.039115
   7 H :    0.031090
   8 H :    0.037237
   9 C :   -0.040850
  10 H :    0.024216
  11 H :    0.024895
  12 C :   -0.075186
  13 H :    0.030359
  14 H :    0.025876
  15 H :    0.029790
  16 S :    0.414387
  17 C :   -0.186915
  18 C :   -0.071281
  19 C :   -0.044649
  20 C :   -0.209884
  21 H :    0.027069
  22 C :   -0.045156
  23 H :    0.046902
  24 H :    0.035675
  25 C :   -0.048600
  26 H :    0.026836
  27 H :    0.028313
  28 C :   -0.063004
  29 H :    0.020081
  30 H :    0.026440
  31 H :    0.023152
  32 H :    0.041795
  33 H :    0.032367

  Mayer bond orders larger than 0.100000
B(  0-S ,  1-C ) :   1.1411 B(  0-S ,  4-C ) :   1.1476 B(  1-C ,  2-C ) :   1.6210
B(  1-C , 32-H ) :   0.9539 B(  2-C ,  3-C ) :   1.2504 B(  2-C ,  6-C ) :   1.0240
B(  3-C ,  4-C ) :   1.5690 B(  3-C ,  5-H ) :   0.9920 B(  4-C , 20-C ) :   1.0250
B(  6-C ,  7-H ) :   0.9418 B(  6-C ,  8-H ) :   0.9397 B(  6-C ,  9-C ) :   1.0832
B(  9-C , 10-H ) :   0.9460 B(  9-C , 11-H ) :   0.9548 B(  9-C , 12-C ) :   1.0633
B( 12-C , 13-H ) :   0.9739 B( 12-C , 14-H ) :   0.9730 B( 12-C , 15-H ) :   0.9754
B( 16-S , 17-C ) :   1.1725 B( 16-S , 20-C ) :   1.1379 B( 17-C , 18-C ) :   1.6155
B( 17-C , 33-H ) :   0.9612 B( 18-C , 19-C ) :   1.2385 B( 18-C , 21-H ) :   0.9905
B( 19-C , 20-C ) :   1.5807 B( 19-C , 22-C ) :   1.0620 B( 22-C , 23-H ) :   0.9196
B( 22-C , 24-H ) :   0.9238 B( 22-C , 25-C ) :   1.0698 B( 25-C , 26-H ) :   0.9495
B( 25-C , 27-H ) :   0.9571 B( 25-C , 28-C ) :   1.0782 B( 28-C , 29-H ) :   0.9710
B( 28-C , 30-H ) :   0.9726 B( 28-C , 31-H ) :   0.9756

Dispersion correction           -0.016270808
FINAL SINGLE POINT ENERGY     -1339.876436098516

DIPOLE MOMENT
-------------
                                X             Y             Z
Electronic contribution:      7.06085       7.85570     -25.92580
Nuclear contribution   :     -7.27729      -7.91878      26.35934
                        -----------------------------------------
Total Dipole Moment    :     -0.21645      -0.06308       0.43354
                        -----------------------------------------
Magnitude (a.u.)       :      0.48865
Magnitude (Debye)      :      1.24206

Rotational constants in cm-1:     0.020872     0.009387     0.007544
Rotational constants in MHz :   625.730832   281.424945   226.157764

                             ****ORCA TERMINATED NORMALLY****
TOTAL RUN TIME: 0 days 0 hours 0 minutes 32 seconds 546 msec
