                         Program Version 4.2.1 -  RELEASE  -
|  1> ! wB97X-D3 SP def2-SVP
|  2> %pal
|  3> nprocs 16
|  4> end
|  5>
|  6> * xyz 0 1
|  7> S 	 -4.52265 	 -21.5468 	 83.8017
|  8> C 	 -3.01028 	 -21.3293 	 83.0198
|  9> C 	 -1.93548 	 -21.3819 	 83.9124
| 10> C 	 -2.43382 	 -21.3943 	 85.2769
| 11> C 	 -3.74187 	 -21.6219 	 85.4179
| 12> H 	 -1.76728 	 -21.4268 	 86.1898
| 13> C 	 -0.504817 	 -21.167 	 83.5513
| 14> H 	 -0.273992 	 -20.0819 	 83.5353
| 15> H 	 -0.349795 	 -21.5209 	 82.5438
| 16> C 	 0.562384 	 -21.7121 	 84.5333
| 17> H 	 1.5945 	 -21.3616 	 84.3022
| 18> H 	 0.420672 	 -21.2396 	 85.5035
| 19> C 	 0.385267 	 -23.2549 	 84.7127
| 20> H 	 0.489114 	 -23.9029 	 83.8077
| 21> H 	 1.28825 	 -23.5712 	 85.24
| 22> H 	 -0.512496 	 -23.5485 	 85.2488
| 23> S 	 -4.13381 	 -23.6894 	 87.1589
| 24> C 	 -5.3189 	 -23.5748 	 88.4093
| 25> C 	 -5.85746 	 -22.2816 	 88.5674
| 26> C 	 -5.41198 	 -21.4391 	 87.4837
| 27> C 	 -4.45751 	 -22.0591 	 86.6437
| 28> H 	 -6.57534 	 -22.1105 	 89.3673
| 29> C 	 -5.69079 	 -19.9707 	 87.4535
| 30> H 	 -6.40717 	 -19.6527 	 88.1605
| 31> H 	 -6.22777 	 -19.6805 	 86.5855
| 32> C 	 -4.48607 	 -19.0713 	 87.7138
| 33> H 	 -3.57472 	 -19.532 	 87.2812
| 34> H 	 -4.38618 	 -18.9208 	 88.8398
| 35> C 	 -4.4865 	 -17.7997 	 86.9112
| 36> H 	 -4.81192 	 -18.0541 	 85.8817
| 37> H 	 -3.56405 	 -17.25 	 86.8784
| 38> H 	 -5.20504 	 -17.2133 	 87.3668
| 39> H 	 -3.00833 	 -21.2436 	 81.906
| 40> H 	 -5.61098 	 -24.3312 	 89.0879
| 41> *
| 42>
| 43>                          ****END OF INPUT****

CARTESIAN COORDINATES (ANGSTROEM)
---------------------------------
  S     -4.522650  -21.546800   83.801700
  C     -3.010280  -21.329300   83.019800
  C     -1.935480  -21.381900   83.912400
  C     -2.433820  -21.394300   85.276900
  C     -3.741870  -21.621900   85.417900
  H     -1.767280  -21.426800   86.189800
  C     -0.504817  -21.167000   83.551300
  H     -0.273992  -20.081900   83.535300
  H     -0.349795  -21.520900   82.543800
  C      0.562384  -21.712100   84.533300
  H      1.594500  -21.361600   84.302200
  H      0.420672  -21.239600   85.503500
  C      0.385267  -23.254900   84.712700
  H      0.489114  -23.902900   83.807700
  H      1.288250  -23.571200   85.240000
  H     -0.512496  -23.548500   85.248800
  S     -4.133810  -23.689400   87.158900
  C     -5.318900  -23.574800   88.409300
  C     -5.857460  -22.281600   88.567400
  C     -5.411980  -21.439100   87.483700
  C     -4.457510  -22.059100   86.643700
  H     -6.575340  -22.110500   89.367300
  C     -5.690790  -19.970700   87.453500
  H     -6.407170  -19.652700   88.160500
  H     -6.227770  -19.680500   86.585500
  C     -4.486070  -19.071300   87.713800
  H     -3.574720  -19.532000   87.281200
  H     -4.386180  -18.920800   88.839800
  C     -4.486500  -17.799700   86.911200
  H     -4.811920  -18.054100   85.881700
  H     -3.564050  -17.250000   86.878400
  H     -5.205040  -17.213300   87.366800
  H     -3.008330  -21.243600   81.906000
  H     -5.610980  -24.331200   89.087900

 Total Charge           Charge          ....    0
 Multiplicity           Mult            ....    1
 Number of Electrons    NEL             ....  134
 Basis Dimension        Dim             ....  322

ORBITAL ENERGIES
----------------

  NO   OCC          E(Eh)            E(eV)
   0   2.0000     -88.970230     -2421.0030
   1   2.0000     -88.962107     -2420.7820
   2   2.0000     -10.329242      -281.0730
   3   2.0000     -10.327773      -281.0330
   4   2.0000     -10.318567      -280.7825
   5   2.0000     -10.314999      -280.6854
   6   2.0000     -10.307813      -280.4899
   7   2.0000     -10.304626      -280.4031
   8   2.0000     -10.298405      -280.2338
   9   2.0000     -10.297144      -280.1995
  10   2.0000     -10.294149      -280.1180
  11   2.0000     -10.290852      -280.0283
  12   2.0000     -10.280032      -279.7339
  13   2.0000     -10.278144      -279.6825
  14   2.0000     -10.277799      -279.6731
  15   2.0000     -10.263407      -279.2815
  16   2.0000      -8.085012      -220.0044
  17   2.0000      -8.077060      -219.7880
  18   2.0000      -6.043367      -164.4484
  19   2.0000      -6.039356      -164.3392
  20   2.0000      -6.036110      -164.2509
  21   2.0000      -6.035623      -164.2377
  22   2.0000      -6.031519      -164.1260
  23   2.0000      -6.027759      -164.0237
  24   2.0000      -1.004693       -27.3391
  25   2.0000      -0.984003       -26.7761
  26   2.0000      -0.912429       -24.8285
  27   2.0000      -0.907681       -24.6993
  28   2.0000      -0.868583       -23.6353
  29   2.0000      -0.851715       -23.1763
  30   2.0000      -0.840137       -22.8613
  31   2.0000      -0.817033       -22.2326
  32   2.0000      -0.782998       -21.3065
  33   2.0000      -0.767954       -20.8971
  34   2.0000      -0.707371       -19.2485
  35   2.0000      -0.692721       -18.8499
  36   2.0000      -0.681469       -18.5437
  37   2.0000      -0.663271       -18.0485
  38   2.0000      -0.640367       -17.4253
  39   2.0000      -0.623806       -16.9746
  40   2.0000      -0.597894       -16.2695
  41   2.0000      -0.568363       -15.4659
  42   2.0000      -0.560353       -15.2480
  43   2.0000      -0.546879       -14.8813
  44   2.0000      -0.534541       -14.5456
  45   2.0000      -0.524261       -14.2659
  46   2.0000      -0.516931       -14.0664
  47   2.0000      -0.508249       -13.8302
  48   2.0000      -0.506295       -13.7770
  49   2.0000      -0.498235       -13.5577
  50   2.0000      -0.488101       -13.2819
  51   2.0000      -0.484421       -13.1818
  52   2.0000      -0.472426       -12.8554
  53   2.0000      -0.466260       -12.6876
  54   2.0000      -0.459675       -12.5084
  55   2.0000      -0.448746       -12.2110
  56   2.0000      -0.440662       -11.9910
  57   2.0000      -0.432264       -11.7625
  58   2.0000      -0.428916       -11.6714
  59   2.0000      -0.420128       -11.4323
  60   2.0000      -0.417264       -11.3543
  61   2.0000      -0.411477       -11.1969
  62   2.0000      -0.402716       -10.9585
  63   2.0000      -0.338661        -9.2154
  64   2.0000      -0.334412        -9.0998
  65   2.0000      -0.318610        -8.6698
  66   2.0000      -0.301635        -8.2079
  67   0.0000       0.040355         1.0981
  68   0.0000       0.055469         1.5094
  69   0.0000       0.106430         2.8961
  70   0.0000       0.118223         3.2170
  71   0.0000       0.125829         3.4240

MULLIKEN ATOMIC CHARGES
-----------------------
   0 S :    0.106763
   1 C :   -0.140966
   2 C :   -0.093216
   3 C :    0.012127
   4 C :   -0.145091
   5 H :    0.041050
   6 C :    0.075391
   7 H :    0.044820
   8 H :    0.020770
   9 C :   -0.095247
  10 H :    0.034143
  11 H :    0.026145
  12 C :   -0.065223
  13 H :    0.033910
  14 H :    0.026251
  15 H :    0.049075
  16 S :    0.140689
  17 C :   -0.086974
  18 C :   -0.048856
  19 C :   -0.003062
  20 C :   -0.203850
  21 H :    0.028835
  22 C :    0.103727
  23 H :   -0.004638
  24 H :    0.010478
  25 C :   -0.101077
  26 H :    0.033034
  27 H :    0.039937
  28 C :   -0.027144
  29 H :    0.036460
  30 H :    0.033350
  31 H :    0.006033
  32 H :    0.070884
  33 H :    0.041474
Sum of atomic charges:    0.0000000

LOEWDIN ATOMIC CHARGES
----------------------
   0 S :    0.394007
   1 C :   -0.201962
   2 C :   -0.069478
   3 C :   -0.068748
   4 C :   -0.190976
   5 H :    0.041474
   6 C :   -0.037425
   7 H :    0.038662
   8 H :    0.027670
   9 C :   -0.043667
  10 H :    0.030288
  11 H :    0.022092
  12 C :   -0.074925
  13 H :    0.029578
  14 H :    0.026397
  15 H :    0.026380
  16 S :    0.438389
  17 C :   -0.189816
  18 C :   -0.069710
  19 C :   -0.044511
  20 C :   -0.211180
  21 H :    0.035794
  22 C :   -0.038033
  23 H :    0.026330
  24 H :    0.027817
  25 C :   -0.043958
  26 H :    0.026012
  27 H :    0.028718
  28 C :   -0.058086
  29 H :    0.031006
  30 H :    0.024284
  31 H :    0.009873
  32 H :    0.036643
  33 H :    0.021064

  Mayer bond orders larger than 0.100000
B(  0-S ,  1-C ) :   1.1586 B(  0-S ,  4-C ) :   1.1170 B(  1-C ,  2-C ) :   1.6051
B(  1-C , 32-H ) :   0.9638 B(  2-C ,  3-C ) :   1.2102 B(  2-C ,  6-C ) :   1.0315
B(  3-C ,  4-C ) :   1.6364 B(  3-C ,  5-H ) :   0.9714 B(  4-C , 20-C ) :   1.0233
B(  6-C ,  7-H ) :   0.9364 B(  6-C ,  8-H ) :   0.9420 B(  6-C ,  9-C ) :   1.0758
B(  9-C , 10-H ) :   0.9581 B(  9-C , 11-H ) :   0.9466 B(  9-C , 12-C ) :   1.0686
B( 12-C , 13-H ) :   0.9773 B( 12-C , 14-H ) :   0.9746 B( 12-C , 15-H ) :   0.9723
B( 16-S , 17-C ) :   1.1832 B( 16-S , 20-C ) :   1.1560 B( 17-C , 18-C ) :   1.5888
B( 17-C , 20-C ) :   0.1023 B( 17-C , 33-H ) :   0.9688 B( 18-C , 19-C ) :   1.2583
B( 18-C , 21-H ) :   0.9888 B( 19-C , 20-C ) :   1.5590 B( 19-C , 22-C ) :   1.0623
B( 22-C , 23-H ) :   0.9251 B( 22-C , 24-H ) :   0.9234 B( 22-C , 25-C ) :   1.0441
B( 25-C , 26-H ) :   0.9675 B( 25-C , 27-H ) :   0.9572 B( 25-C , 28-C ) :   1.0678
B( 28-C , 29-H ) :   0.9746 B( 28-C , 30-H ) :   0.9744 B( 28-C , 31-H ) :   0.9757

Dispersion correction           -0.015339934
FINAL SINGLE POINT ENERGY     -1339.865712566204

DIPOLE MOMENT
-------------
                                X             Y             Z
Electronic contribution:    -13.86499     -13.04578      -2.16698
Nuclear contribution   :     14.14490      13.26454       2.34855
                        -----------------------------------------
Total Dipole Moment    :      0.27991       0.21876       0.18157
                        -----------------------------------------
Magnitude (a.u.)       :      0.39896
Magnitude (Debye)      :      1.01408

Rotational constants in cm-1:     0.017910     0.009558     0.008100
Rotational constants in MHz :   536.934947   286.534685   242.826915

                             ****ORCA TERMINATED NORMALLY****
TOTAL RUN TIME: 0 days 0 hours 0 minutes 33 seconds 49 msec
