                         Program Version 4.2.1 -  RELEASE  -
|  1> ! wB97X-D3 SP def2-SVP
|  2> %pal
|  3> nprocs 16
|  4> end
|  5>
|  6> * xyz 0 1
|  7> S 	 -101.619 	 42.278 	 129.163
|  8> C 	 -99.9532 	 42.3887 	 129.803
|  9> C 	 -99.0392 	 42.6637 	 128.815
| 10> C 	 -99.6784 	 42.7572 	 127.503
| 11> C 	 -101.021 	 42.4335 	 127.545
| 12> H 	 -99.2025 	 43.0297 	 126.633
| 13> C 	 -97.6482 	 43.0126 	 129.001
| 14> H 	 -97.5671 	 43.4735 	 129.937
| 15> H 	 -97.3766 	 43.7015 	 128.185
| 16> C 	 -96.593 	 41.9022 	 128.918
| 17> H 	 -96.7335 	 41.3197 	 129.829
| 18> H 	 -96.7567 	 41.3004 	 128.026
| 19> C 	 -95.1749 	 42.5168 	 129.004
| 20> H 	 -95.1012 	 43.3021 	 129.732
| 21> H 	 -94.501 	 41.67 	 129.08
| 22> H 	 -94.9864 	 43.0103 	 127.996
| 23> S 	 -103.122 	 43.7503 	 126.695
| 24> C 	 -103.574 	 43.7514 	 125.041
| 25> C 	 -102.893 	 42.835 	 124.286
| 26> C 	 -101.903 	 42.1348 	 125.077
| 27> C 	 -101.982 	 42.4933 	 126.428
| 28> H 	 -102.988 	 42.7384 	 123.221
| 29> C 	 -100.916 	 41.2379 	 124.448
| 30> H 	 -101.454 	 40.7658 	 123.628
| 31> H 	 -100.529 	 40.4336 	 125.074
| 32> C 	 -99.6434 	 41.924 	 123.83
| 33> H 	 -99.0109 	 42.4413 	 124.533
| 34> H 	 -99.9487 	 42.7157 	 123.158
| 35> C 	 -98.7668 	 40.8514 	 123.066
| 36> H 	 -99.3991 	 40.4038 	 122.285
| 37> H 	 -98.3939 	 40.1321 	 123.682
| 38> H 	 -97.9623 	 41.5036 	 122.518
| 39> H 	 -99.6035 	 42.4897 	 130.817
| 40> H 	 -104.225 	 44.5403 	 124.651
| 41> *
| 42>
| 43>                          ****END OF INPUT****

CARTESIAN COORDINATES (ANGSTROEM)
---------------------------------
  S    -101.619000   42.278000  129.163000
  C    -99.953200   42.388700  129.803000
  C    -99.039200   42.663700  128.815000
  C    -99.678400   42.757200  127.503000
  C    -101.021000   42.433500  127.545000
  H    -99.202500   43.029700  126.633000
  C    -97.648200   43.012600  129.001000
  H    -97.567100   43.473500  129.937000
  H    -97.376600   43.701500  128.185000
  C    -96.593000   41.902200  128.918000
  H    -96.733500   41.319700  129.829000
  H    -96.756700   41.300400  128.026000
  C    -95.174900   42.516800  129.004000
  H    -95.101200   43.302100  129.732000
  H    -94.501000   41.670000  129.080000
  H    -94.986400   43.010300  127.996000
  S    -103.122000   43.750300  126.695000
  C    -103.574000   43.751400  125.041000
  C    -102.893000   42.835000  124.286000
  C    -101.903000   42.134800  125.077000
  C    -101.982000   42.493300  126.428000
  H    -102.988000   42.738400  123.221000
  C    -100.916000   41.237900  124.448000
  H    -101.454000   40.765800  123.628000
  H    -100.529000   40.433600  125.074000
  C    -99.643400   41.924000  123.830000
  H    -99.010900   42.441300  124.533000
  H    -99.948700   42.715700  123.158000
  C    -98.766800   40.851400  123.066000
  H    -99.399100   40.403800  122.285000
  H    -98.393900   40.132100  123.682000
  H    -97.962300   41.503600  122.518000
  H    -99.603500   42.489700  130.817000
  H    -104.225000   44.540300  124.651000

 Total Charge           Charge          ....    0
 Multiplicity           Mult            ....    1
 Number of Electrons    NEL             ....  134
 Basis Dimension        Dim             ....  322

ORBITAL ENERGIES
----------------

  NO   OCC          E(Eh)            E(eV)
   0   2.0000     -88.965612     -2420.8774
   1   2.0000     -88.963319     -2420.8150
   2   2.0000     -10.328635      -281.0564
   3   2.0000     -10.321853      -280.8719
   4   2.0000     -10.315707      -280.7047
   5   2.0000     -10.309628      -280.5392
   6   2.0000     -10.305282      -280.4210
   7   2.0000     -10.294873      -280.1377
   8   2.0000     -10.294785      -280.1354
   9   2.0000     -10.291409      -280.0435
  10   2.0000     -10.290778      -280.0263
  11   2.0000     -10.286802      -279.9181
  12   2.0000     -10.286404      -279.9073
  13   2.0000     -10.285588      -279.8851
  14   2.0000     -10.283904      -279.8393
  15   2.0000     -10.281596      -279.7764
  16   2.0000      -8.079967      -219.8671
  17   2.0000      -8.079688      -219.8595
  18   2.0000      -6.038691      -164.3211
  19   2.0000      -6.038001      -164.3024
  20   2.0000      -6.034657      -164.2114
  21   2.0000      -6.033908      -164.1910
  22   2.0000      -6.030569      -164.1001
  23   2.0000      -6.030399      -164.0955
  24   2.0000      -1.011312       -27.5192
  25   2.0000      -0.983796       -26.7704
  26   2.0000      -0.920217       -25.0404
  27   2.0000      -0.908825       -24.7304
  28   2.0000      -0.870634       -23.6912
  29   2.0000      -0.851872       -23.1806
  30   2.0000      -0.846530       -23.0352
  31   2.0000      -0.815523       -22.1915
  32   2.0000      -0.780845       -21.2479
  33   2.0000      -0.770014       -20.9532
  34   2.0000      -0.709024       -19.2935
  35   2.0000      -0.700789       -19.0694
  36   2.0000      -0.693999       -18.8847
  37   2.0000      -0.668069       -18.1791
  38   2.0000      -0.638504       -17.3746
  39   2.0000      -0.623285       -16.9604
  40   2.0000      -0.602743       -16.4015
  41   2.0000      -0.574960       -15.6454
  42   2.0000      -0.567553       -15.4439
  43   2.0000      -0.559971       -15.2376
  44   2.0000      -0.532147       -14.4805
  45   2.0000      -0.524221       -14.2648
  46   2.0000      -0.520384       -14.1604
  47   2.0000      -0.510320       -13.8865
  48   2.0000      -0.503235       -13.6937
  49   2.0000      -0.498161       -13.5557
  50   2.0000      -0.495529       -13.4840
  51   2.0000      -0.484639       -13.1877
  52   2.0000      -0.469852       -12.7853
  53   2.0000      -0.463708       -12.6181
  54   2.0000      -0.457407       -12.4467
  55   2.0000      -0.451222       -12.2784
  56   2.0000      -0.445316       -12.1177
  57   2.0000      -0.439602       -11.9622
  58   2.0000      -0.439177       -11.9506
  59   2.0000      -0.431103       -11.7309
  60   2.0000      -0.425319       -11.5735
  61   2.0000      -0.418372       -11.3845
  62   2.0000      -0.413704       -11.2575
  63   2.0000      -0.347779        -9.4635
  64   2.0000      -0.325509        -8.8575
  65   2.0000      -0.325369        -8.8537
  66   2.0000      -0.292665        -7.9638
  67   0.0000       0.035477         0.9654
  68   0.0000       0.068497         1.8639
  69   0.0000       0.102148         2.7796
  70   0.0000       0.121136         3.2963
  71   0.0000       0.128472         3.4959

MULLIKEN ATOMIC CHARGES
-----------------------
   0 S :    0.099266
   1 C :   -0.094897
   2 C :   -0.087327
   3 C :    0.067129
   4 C :   -0.133861
   5 H :   -0.042234
   6 C :    0.051574
   7 H :    0.006662
   8 H :    0.018106
   9 C :   -0.073125
  10 H :    0.024491
  11 H :    0.033111
  12 C :   -0.039539
  13 H :    0.033881
  14 H :    0.043728
  15 H :    0.029923
  16 S :    0.108678
  17 C :   -0.094543
  18 C :   -0.016784
  19 C :   -0.054128
  20 C :   -0.114866
  21 H :    0.014929
  22 C :    0.050631
  23 H :    0.017066
  24 H :    0.031967
  25 C :   -0.085046
  26 H :    0.025637
  27 H :    0.019754
  28 C :   -0.046699
  29 H :    0.032249
  30 H :    0.028105
  31 H :    0.048944
  32 H :    0.032310
  33 H :    0.064911
Sum of atomic charges:   -0.0000000

LOEWDIN ATOMIC CHARGES
----------------------
   0 S :    0.391753
   1 C :   -0.195057
   2 C :   -0.055162
   3 C :   -0.055102
   4 C :   -0.192733
   5 H :    0.011099
   6 C :   -0.037153
   7 H :    0.023031
   8 H :    0.032999
   9 C :   -0.032944
  10 H :    0.021185
  11 H :    0.023775
  12 C :   -0.062535
  13 H :    0.022344
  14 H :    0.028114
  15 H :    0.029733
  16 S :    0.438509
  17 C :   -0.192376
  18 C :   -0.070076
  19 C :   -0.052741
  20 C :   -0.213922
  21 H :    0.030141
  22 C :   -0.036385
  23 H :    0.032199
  24 H :    0.033322
  25 C :   -0.033576
  26 H :    0.015615
  27 H :    0.019643
  28 C :   -0.056921
  29 H :    0.025653
  30 H :    0.008912
  31 H :    0.040919
  32 H :    0.026427
  33 H :    0.031309

  Mayer bond orders larger than 0.100000
B(  0-S ,  1-C ) :   1.1010 B(  0-S ,  4-C ) :   1.1492 B(  1-C ,  2-C ) :   1.6556
B(  1-C , 32-H ) :   0.9624 B(  2-C ,  3-C ) :   1.2056 B(  2-C ,  6-C ) :   1.0433
B(  3-C ,  4-C ) :   1.5878 B(  3-C ,  5-H ) :   1.0062 B(  4-C , 20-C ) :   0.9906
B(  6-C ,  7-H ) :   0.9296 B(  6-C ,  8-H ) :   0.9383 B(  6-C ,  9-C ) :   1.0689
B(  9-C , 10-H ) :   0.9537 B(  9-C , 11-H ) :   0.9574 B(  9-C , 12-C ) :   1.0760
B( 12-C , 13-H ) :   0.9737 B( 12-C , 14-H ) :   0.9747 B( 12-C , 15-H ) :   0.9746
B( 16-S , 17-C ) :   1.1832 B( 16-S , 20-C ) :   1.1532 B( 17-C , 18-C ) :   1.5850
B( 17-C , 33-H ) :   0.9652 B( 18-C , 19-C ) :   1.2445 B( 18-C , 21-H ) :   0.9964
B( 19-C , 20-C ) :   1.6018 B( 19-C , 22-C ) :   1.0666 B( 22-C , 23-H ) :   0.9289
B( 22-C , 24-H ) :   0.9406 B( 22-C , 25-C ) :   1.0530 B( 25-C , 26-H ) :   0.9539
B( 25-C , 27-H ) :   0.9553 B( 25-C , 28-C ) :   1.0732 B( 28-C , 29-H ) :   0.9772
B( 28-C , 30-H ) :   0.9798 B( 28-C , 31-H ) :   0.9750

Dispersion correction           -0.013853201
FINAL SINGLE POINT ENERGY     -1339.867279053640

DIPOLE MOMENT
-------------
                                X             Y             Z
Electronic contribution:    -29.85193       6.00285      10.67206
Nuclear contribution   :     30.48953      -5.79964     -11.16003
                        -----------------------------------------
Total Dipole Moment    :      0.63760       0.20320      -0.48798
                        -----------------------------------------
Magnitude (a.u.)       :      0.82822
Magnitude (Debye)      :      2.10516

Rotational constants in cm-1:     0.017127     0.009225     0.006471
Rotational constants in MHz :   513.454374   276.564908   193.984376

                             ****ORCA TERMINATED NORMALLY****
TOTAL RUN TIME: 0 days 0 hours 0 minutes 34 seconds 43 msec
