                         Program Version 4.2.1 -  RELEASE  -
|  1> ! wB97X-D3 SP def2-SVP
|  2> %pal
|  3> nprocs 16
|  4> end
|  5>
|  6> * xyz 0 1
|  7> S 	 -4.2024 	 47.206 	 37.5837
|  8> C 	 -5.37359 	 45.9746 	 37.7443
|  9> C 	 -5.65422 	 45.6871 	 39.0773
| 10> C 	 -4.89042 	 46.4686 	 39.9968
| 11> C 	 -4.01294 	 47.3258 	 39.3632
| 12> H 	 -4.97261 	 46.3976 	 41.1125
| 13> C 	 -6.7 	 44.7071 	 39.5582
| 14> H 	 -6.15276 	 43.753 	 39.59
| 15> H 	 -7.41241 	 44.604 	 38.7439
| 16> C 	 -7.48193 	 44.8598 	 40.9378
| 17> H 	 -8.09055 	 43.9463 	 41.0277
| 18> H 	 -6.82592 	 44.921 	 41.814
| 19> C 	 -8.38706 	 46.1427 	 40.9584
| 20> H 	 -9.37128 	 45.9663 	 40.4583
| 21> H 	 -8.5414 	 46.3278 	 42.0071
| 22> H 	 -7.76252 	 46.9564 	 40.4986
| 23> S 	 -1.66117 	 48.6397 	 38.991
| 24> C 	 -1.07714 	 49.7044 	 40.276
| 25> C 	 -1.77246 	 49.4979 	 41.4399
| 26> C 	 -2.95126 	 48.6443 	 41.2752
| 27> C 	 -3.02929 	 48.1951 	 40.0034
| 28> H 	 -1.46537 	 49.9895 	 42.3227
| 29> C 	 -4.14053 	 48.6376 	 42.2684
| 30> H 	 -4.25797 	 47.9006 	 43.0417
| 31> H 	 -5.07498 	 48.5279 	 41.689
| 32> C 	 -4.32687 	 50.0312 	 42.9996
| 33> H 	 -4.34148 	 50.8312 	 42.2373
| 34> H 	 -3.43725 	 50.2919 	 43.5502
| 35> C 	 -5.62323 	 50.199 	 43.8215
| 36> H 	 -5.40757 	 51.076 	 44.411
| 37> H 	 -5.76551 	 49.3793 	 44.4749
| 38> H 	 -6.48478 	 50.3336 	 43.1387
| 39> H 	 -5.77625 	 45.3505 	 36.9441
| 40> H 	 -0.283317 	 50.354 	 40.1357
| 41> *
| 42>
| 43>                          ****END OF INPUT****

CARTESIAN COORDINATES (ANGSTROEM)
---------------------------------
  S     -4.202400   47.206000   37.583700
  C     -5.373590   45.974600   37.744300
  C     -5.654220   45.687100   39.077300
  C     -4.890420   46.468600   39.996800
  C     -4.012940   47.325800   39.363200
  H     -4.972610   46.397600   41.112500
  C     -6.700000   44.707100   39.558200
  H     -6.152760   43.753000   39.590000
  H     -7.412410   44.604000   38.743900
  C     -7.481930   44.859800   40.937800
  H     -8.090550   43.946300   41.027700
  H     -6.825920   44.921000   41.814000
  C     -8.387060   46.142700   40.958400
  H     -9.371280   45.966300   40.458300
  H     -8.541400   46.327800   42.007100
  H     -7.762520   46.956400   40.498600
  S     -1.661170   48.639700   38.991000
  C     -1.077140   49.704400   40.276000
  C     -1.772460   49.497900   41.439900
  C     -2.951260   48.644300   41.275200
  C     -3.029290   48.195100   40.003400
  H     -1.465370   49.989500   42.322700
  C     -4.140530   48.637600   42.268400
  H     -4.257970   47.900600   43.041700
  H     -5.074980   48.527900   41.689000
  C     -4.326870   50.031200   42.999600
  H     -4.341480   50.831200   42.237300
  H     -3.437250   50.291900   43.550200
  C     -5.623230   50.199000   43.821500
  H     -5.407570   51.076000   44.411000
  H     -5.765510   49.379300   44.474900
  H     -6.484780   50.333600   43.138700
  H     -5.776250   45.350500   36.944100
  H     -0.283317   50.354000   40.135700

 Total Charge           Charge          ....    0
 Multiplicity           Mult            ....    1
 Number of Electrons    NEL             ....  134
 Basis Dimension        Dim             ....  322

ORBITAL ENERGIES
----------------

  NO   OCC          E(Eh)            E(eV)
   0   2.0000     -88.968808     -2420.9644
   1   2.0000     -88.962284     -2420.7868
   2   2.0000     -10.331611      -281.1374
   3   2.0000     -10.325858      -280.9809
   4   2.0000     -10.313783      -280.6523
   5   2.0000     -10.311800      -280.5983
   6   2.0000     -10.306693      -280.4594
   7   2.0000     -10.300510      -280.2911
   8   2.0000     -10.298655      -280.2406
   9   2.0000     -10.298037      -280.2238
  10   2.0000     -10.296596      -280.1846
  11   2.0000     -10.295964      -280.1674
  12   2.0000     -10.293805      -280.1087
  13   2.0000     -10.286956      -279.9223
  14   2.0000     -10.283775      -279.8357
  15   2.0000     -10.278870      -279.7023
  16   2.0000      -8.083237      -219.9561
  17   2.0000      -8.077160      -219.7907
  18   2.0000      -6.041799      -164.4057
  19   2.0000      -6.037787      -164.2965
  20   2.0000      -6.035763      -164.2415
  21   2.0000      -6.033965      -164.1925
  22   2.0000      -6.031849      -164.1350
  23   2.0000      -6.027616      -164.0198
  24   2.0000      -1.006775       -27.3957
  25   2.0000      -0.983345       -26.7582
  26   2.0000      -0.903063       -24.5736
  27   2.0000      -0.901555       -24.5326
  28   2.0000      -0.871751       -23.7215
  29   2.0000      -0.852444       -23.1962
  30   2.0000      -0.842598       -22.9283
  31   2.0000      -0.817060       -22.2333
  32   2.0000      -0.782387       -21.2898
  33   2.0000      -0.769911       -20.9503
  34   2.0000      -0.707022       -19.2390
  35   2.0000      -0.702368       -19.1124
  36   2.0000      -0.691407       -18.8141
  37   2.0000      -0.660904       -17.9841
  38   2.0000      -0.632988       -17.2245
  39   2.0000      -0.623189       -16.9578
  40   2.0000      -0.602789       -16.4027
  41   2.0000      -0.563386       -15.3305
  42   2.0000      -0.561917       -15.2905
  43   2.0000      -0.548101       -14.9146
  44   2.0000      -0.537120       -14.6158
  45   2.0000      -0.528943       -14.3933
  46   2.0000      -0.518038       -14.0965
  47   2.0000      -0.513797       -13.9811
  48   2.0000      -0.501026       -13.6336
  49   2.0000      -0.499286       -13.5863
  50   2.0000      -0.487572       -13.2675
  51   2.0000      -0.486387       -13.2353
  52   2.0000      -0.472745       -12.8640
  53   2.0000      -0.463085       -12.6012
  54   2.0000      -0.458106       -12.4657
  55   2.0000      -0.452134       -12.3032
  56   2.0000      -0.445612       -12.1257
  57   2.0000      -0.432174       -11.7601
  58   2.0000      -0.428681       -11.6650
  59   2.0000      -0.424961       -11.5638
  60   2.0000      -0.420516       -11.4428
  61   2.0000      -0.419224       -11.4077
  62   2.0000      -0.413348       -11.2478
  63   2.0000      -0.360538        -9.8107
  64   2.0000      -0.331429        -9.0187
  65   2.0000      -0.327776        -8.9192
  66   2.0000      -0.284197        -7.7334
  67   0.0000       0.021601         0.5878
  68   0.0000       0.086178         2.3450
  69   0.0000       0.096184         2.6173
  70   0.0000       0.119350         3.2477
  71   0.0000       0.127229         3.4621

MULLIKEN ATOMIC CHARGES
-----------------------
   0 S :    0.116869
   1 C :   -0.118396
   2 C :   -0.103966
   3 C :   -0.027785
   4 C :   -0.110690
   5 H :    0.031899
   6 C :    0.044993
   7 H :    0.044572
   8 H :    0.020016
   9 C :   -0.091093
  10 H :    0.038285
  11 H :    0.033865
  12 C :   -0.072765
  13 H :    0.049106
  14 H :    0.031777
  15 H :    0.056549
  16 S :    0.083159
  17 C :   -0.062155
  18 C :   -0.014063
  19 C :   -0.019891
  20 C :   -0.119331
  21 H :    0.006019
  22 C :    0.020048
  23 H :    0.030746
  24 H :    0.037535
  25 C :   -0.134221
  26 H :    0.032034
  27 H :    0.024561
  28 C :   -0.016693
  29 H :    0.034710
  30 H :    0.022533
  31 H :    0.048289
  32 H :    0.051545
  33 H :    0.031937
Sum of atomic charges:   -0.0000000

LOEWDIN ATOMIC CHARGES
----------------------
   0 S :    0.406080
   1 C :   -0.218565
   2 C :   -0.067352
   3 C :   -0.070606
   4 C :   -0.178053
   5 H :    0.040872
   6 C :   -0.040779
   7 H :    0.038100
   8 H :    0.028348
   9 C :   -0.039596
  10 H :    0.029362
  11 H :    0.020842
  12 C :   -0.071404
  13 H :    0.031145
  14 H :    0.022216
  15 H :    0.034125
  16 S :    0.377532
  17 C :   -0.160576
  18 C :   -0.055141
  19 C :   -0.060725
  20 C :   -0.177542
  21 H :    0.024372
  22 C :   -0.035503
  23 H :    0.022155
  24 H :    0.034365
  25 C :   -0.043476
  26 H :    0.025865
  27 H :    0.013701
  28 C :   -0.057944
  29 H :    0.031427
  30 H :    0.016386
  31 H :    0.032248
  32 H :    0.033856
  33 H :    0.014265

  Mayer bond orders larger than 0.100000
B(  0-S ,  1-C ) :   1.1380 B(  0-S ,  4-C ) :   1.1426 B(  1-C ,  2-C ) :   1.6080
B(  1-C , 32-H ) :   0.9623 B(  2-C ,  3-C ) :   1.2558 B(  2-C ,  6-C ) :   1.0115
B(  3-C ,  4-C ) :   1.5600 B(  3-C ,  5-H ) :   0.9787 B(  4-C , 20-C ) :   1.0726
B(  6-C ,  7-H ) :   0.9312 B(  6-C ,  8-H ) :   0.9453 B(  6-C ,  9-C ) :   1.0727
B(  9-C , 10-H ) :   0.9543 B(  9-C , 11-H ) :   0.9585 B(  9-C , 12-C ) :   1.0641
B( 12-C , 13-H ) :   0.9766 B( 12-C , 14-H ) :   0.9791 B( 12-C , 15-H ) :   0.9763
B( 16-S , 17-C ) :   1.1206 B( 16-S , 20-C ) :   1.1176 B( 17-C , 18-C ) :   1.6529
B( 17-C , 33-H ) :   0.9803 B( 18-C , 19-C ) :   1.1826 B( 18-C , 21-H ) :   0.9940
B( 19-C , 20-C ) :   1.6645 B( 19-C , 22-C ) :   1.0209 B( 22-C , 23-H ) :   0.9360
B( 22-C , 24-H ) :   0.9477 B( 22-C , 25-C ) :   1.0562 B( 25-C , 26-H ) :   0.9567
B( 25-C , 27-H ) :   0.9551 B( 25-C , 28-C ) :   1.0794 B( 28-C , 29-H ) :   0.9721
B( 28-C , 30-H ) :   0.9766 B( 28-C , 31-H ) :   0.9765

Dispersion correction           -0.014197596
FINAL SINGLE POINT ENERGY     -1339.876301275532

DIPOLE MOMENT
-------------
                                X             Y             Z
Electronic contribution:     22.27230       0.96676     -22.70373
Nuclear contribution   :    -22.67201      -1.05468      23.30685
                        -----------------------------------------
Total Dipole Moment    :     -0.39971      -0.08793       0.60312
                        -----------------------------------------
Magnitude (a.u.)       :      0.72888
Magnitude (Debye)      :      1.85265

Rotational constants in cm-1:     0.015886     0.010432     0.006704
Rotational constants in MHz :   476.239166   312.730448   200.979973

                             ****ORCA TERMINATED NORMALLY****
TOTAL RUN TIME: 0 days 0 hours 0 minutes 32 seconds 135 msec
