                         Program Version 4.2.1 -  RELEASE  -
|  1> ! wB97X-D3 SP def2-SVP
|  2> %pal
|  3> nprocs 16
|  4> end
|  5>
|  6> * xyz 0 1
|  7> S 	 6.89767 	 79.1921 	 48.4506
|  8> C 	 7.59025 	 77.6276 	 49.0282
|  9> C 	 6.74608 	 76.6072 	 48.769
| 10> C 	 5.52155 	 77.0224 	 48.2
| 11> C 	 5.41536 	 78.3724 	 47.968
| 12> H 	 4.68908 	 76.4027 	 47.9081
| 13> C 	 7.05608 	 75.2034 	 49.1219
| 14> H 	 7.39675 	 75.2183 	 50.132
| 15> H 	 7.7728 	 74.8227 	 48.3517
| 16> C 	 5.77401 	 74.2923 	 49.1442
| 17> H 	 4.99087 	 74.8983 	 49.6367
| 18> H 	 5.39477 	 74.1866 	 48.1285
| 19> C 	 5.79713 	 72.9214 	 49.7556
| 20> H 	 4.78239 	 72.4774 	 49.5569
| 21> H 	 6.50706 	 72.3187 	 49.2151
| 22> H 	 6.03564 	 72.9505 	 50.8104
| 23> S 	 4.58142 	 79.9004 	 45.7603
| 24> C 	 2.87319 	 80.2916 	 45.6242
| 25> C 	 2.20798 	 79.9275 	 46.792
| 26> C 	 3.00204 	 79.1606 	 47.7217
| 27> C 	 4.32756 	 79.1198 	 47.3371
| 28> H 	 1.11259 	 80.0235 	 46.888
| 29> C 	 2.32152 	 78.4394 	 48.8896
| 30> H 	 2.77459 	 77.486 	 48.8976
| 31> H 	 1.23363 	 78.2815 	 48.6029
| 32> C 	 2.20493 	 79.1764 	 50.2941
| 33> H 	 1.60667 	 78.5187 	 50.9897
| 34> H 	 1.66673 	 80.0804 	 50.1611
| 35> C 	 3.56196 	 79.7238 	 50.8086
| 36> H 	 3.44482 	 80.0503 	 51.8886
| 37> H 	 3.85242 	 80.5663 	 50.1349
| 38> H 	 4.26602 	 78.9266 	 50.7901
| 39> H 	 8.58834 	 77.6707 	 49.4963
| 40> H 	 2.47571 	 80.6954 	 44.7641
| 41> *
| 42>
| 43>                          ****END OF INPUT****

CARTESIAN COORDINATES (ANGSTROEM)
---------------------------------
  S      6.897670   79.192100   48.450600
  C      7.590250   77.627600   49.028200
  C      6.746080   76.607200   48.769000
  C      5.521550   77.022400   48.200000
  C      5.415360   78.372400   47.968000
  H      4.689080   76.402700   47.908100
  C      7.056080   75.203400   49.121900
  H      7.396750   75.218300   50.132000
  H      7.772800   74.822700   48.351700
  C      5.774010   74.292300   49.144200
  H      4.990870   74.898300   49.636700
  H      5.394770   74.186600   48.128500
  C      5.797130   72.921400   49.755600
  H      4.782390   72.477400   49.556900
  H      6.507060   72.318700   49.215100
  H      6.035640   72.950500   50.810400
  S      4.581420   79.900400   45.760300
  C      2.873190   80.291600   45.624200
  C      2.207980   79.927500   46.792000
  C      3.002040   79.160600   47.721700
  C      4.327560   79.119800   47.337100
  H      1.112590   80.023500   46.888000
  C      2.321520   78.439400   48.889600
  H      2.774590   77.486000   48.897600
  H      1.233630   78.281500   48.602900
  C      2.204930   79.176400   50.294100
  H      1.606670   78.518700   50.989700
  H      1.666730   80.080400   50.161100
  C      3.561960   79.723800   50.808600
  H      3.444820   80.050300   51.888600
  H      3.852420   80.566300   50.134900
  H      4.266020   78.926600   50.790100
  H      8.588340   77.670700   49.496300
  H      2.475710   80.695400   44.764100

 Total Charge           Charge          ....    0
 Multiplicity           Mult            ....    1
 Number of Electrons    NEL             ....  134
 Basis Dimension        Dim             ....  322

ORBITAL ENERGIES
----------------

  NO   OCC          E(Eh)            E(eV)
   0   2.0000     -88.965950     -2420.8866
   1   2.0000     -88.960375     -2420.7349
   2   2.0000     -10.328472      -281.0520
   3   2.0000     -10.327954      -281.0379
   4   2.0000     -10.317578      -280.7556
   5   2.0000     -10.315164      -280.6899
   6   2.0000     -10.305706      -280.4325
   7   2.0000     -10.298465      -280.2355
   8   2.0000     -10.297093      -280.1981
   9   2.0000     -10.296883      -280.1924
  10   2.0000     -10.293117      -280.0899
  11   2.0000     -10.290807      -280.0271
  12   2.0000     -10.289331      -279.9869
  13   2.0000     -10.286455      -279.9087
  14   2.0000     -10.281075      -279.7623
  15   2.0000     -10.274732      -279.5897
  16   2.0000      -8.080246      -219.8747
  17   2.0000      -8.074526      -219.7190
  18   2.0000      -6.038804      -164.3242
  19   2.0000      -6.034835      -164.2162
  20   2.0000      -6.033004      -164.1664
  21   2.0000      -6.030960      -164.1108
  22   2.0000      -6.029162      -164.0618
  23   2.0000      -6.025312      -163.9571
  24   2.0000      -1.003190       -27.2982
  25   2.0000      -0.981864       -26.7179
  26   2.0000      -0.913531       -24.8584
  27   2.0000      -0.898967       -24.4621
  28   2.0000      -0.871048       -23.7024
  29   2.0000      -0.847834       -23.0707
  30   2.0000      -0.842148       -22.9160
  31   2.0000      -0.815773       -22.1983
  32   2.0000      -0.782358       -21.2890
  33   2.0000      -0.771776       -21.0011
  34   2.0000      -0.711455       -19.3597
  35   2.0000      -0.693892       -18.8818
  36   2.0000      -0.687206       -18.6998
  37   2.0000      -0.657500       -17.8915
  38   2.0000      -0.643166       -17.5014
  39   2.0000      -0.618452       -16.8289
  40   2.0000      -0.595265       -16.1980
  41   2.0000      -0.579110       -15.7584
  42   2.0000      -0.560584       -15.2543
  43   2.0000      -0.543501       -14.7894
  44   2.0000      -0.535799       -14.5798
  45   2.0000      -0.527837       -14.3632
  46   2.0000      -0.518859       -14.1189
  47   2.0000      -0.516644       -14.0586
  48   2.0000      -0.507881       -13.8201
  49   2.0000      -0.495601       -13.4860
  50   2.0000      -0.489542       -13.3211
  51   2.0000      -0.482920       -13.1409
  52   2.0000      -0.470448       -12.8015
  53   2.0000      -0.465195       -12.6586
  54   2.0000      -0.458949       -12.4886
  55   2.0000      -0.447292       -12.1714
  56   2.0000      -0.442873       -12.0512
  57   2.0000      -0.429403       -11.6847
  58   2.0000      -0.425787       -11.5862
  59   2.0000      -0.421203       -11.4615
  60   2.0000      -0.417533       -11.3616
  61   2.0000      -0.413883       -11.2623
  62   2.0000      -0.409943       -11.1551
  63   2.0000      -0.341076        -9.2811
  64   2.0000      -0.332663        -9.0522
  65   2.0000      -0.329008        -8.9528
  66   2.0000      -0.296954        -8.0805
  67   0.0000       0.035480         0.9655
  68   0.0000       0.059679         1.6239
  69   0.0000       0.113169         3.0795
  70   0.0000       0.116205         3.1621
  71   0.0000       0.131600         3.5810

MULLIKEN ATOMIC CHARGES
-----------------------
   0 S :    0.085682
   1 C :   -0.167881
   2 C :   -0.074444
   3 C :    0.026297
   4 C :   -0.164963
   5 H :    0.013192
   6 C :    0.118620
   7 H :    0.026495
   8 H :    0.056252
   9 C :   -0.173142
  10 H :    0.028966
  11 H :    0.029123
  12 C :    0.004953
  13 H :    0.040962
  14 H :    0.025071
  15 H :    0.036238
  16 S :    0.106777
  17 C :   -0.076539
  18 C :   -0.022297
  19 C :   -0.067041
  20 C :   -0.149459
  21 H :    0.029677
  22 C :    0.071124
  23 H :    0.012681
  24 H :    0.029067
  25 C :   -0.070487
  26 H :    0.043301
  27 H :    0.018828
  28 C :   -0.064243
  29 H :    0.041776
  30 H :    0.054648
  31 H :    0.033647
  32 H :    0.061561
  33 H :    0.035557
Sum of atomic charges:   -0.0000000

LOEWDIN ATOMIC CHARGES
----------------------
   0 S :    0.372208
   1 C :   -0.177049
   2 C :   -0.070520
   3 C :   -0.068372
   4 C :   -0.181237
   5 H :    0.030799
   6 C :   -0.027964
   7 H :    0.030819
   8 H :    0.042929
   9 C :   -0.053191
  10 H :    0.022997
  11 H :    0.020600
  12 C :   -0.060846
  13 H :    0.038111
  14 H :    0.022364
  15 H :    0.023427
  16 S :    0.393678
  17 C :   -0.166417
  18 C :   -0.070627
  19 C :   -0.055844
  20 C :   -0.199162
  21 H :    0.033835
  22 C :   -0.029509
  23 H :    0.020631
  24 H :    0.038446
  25 C :   -0.039574
  26 H :    0.028778
  27 H :    0.018076
  28 C :   -0.067602
  29 H :    0.032625
  30 H :    0.034276
  31 H :    0.016346
  32 H :    0.033294
  33 H :    0.013676

  Mayer bond orders larger than 0.100000
B(  0-S ,  1-C ) :   1.1213 B(  0-S ,  4-C ) :   1.1504 B(  1-C ,  2-C ) :   1.6257
B(  1-C ,  4-C ) :   0.1008 B(  1-C , 32-H ) :   0.9768 B(  2-C ,  3-C ) :   1.2282
B(  2-C ,  6-C ) :   1.0039 B(  3-C ,  4-C ) :   1.5858 B(  3-C ,  5-H ) :   0.9910
B(  4-C , 20-C ) :   1.0154 B(  6-C ,  7-H ) :   0.9388 B(  6-C ,  8-H ) :   0.9254
B(  6-C ,  9-C ) :   1.0941 B(  9-C , 10-H ) :   0.9542 B(  9-C , 11-H ) :   0.9434
B(  9-C , 12-C ) :   1.0897 B( 12-C , 13-H ) :   0.9682 B( 12-C , 14-H ) :   0.9703
B( 12-C , 15-H ) :   0.9731 B( 16-S , 17-C ) :   1.1528 B( 16-S , 20-C ) :   1.1357
B( 17-C , 18-C ) :   1.6025 B( 17-C , 33-H ) :   0.9823 B( 18-C , 19-C ) :   1.2407
B( 18-C , 21-H ) :   0.9797 B( 19-C , 20-C ) :   1.6078 B( 19-C , 22-C ) :   1.0278
B( 22-C , 23-H ) :   0.9348 B( 22-C , 24-H ) :   0.9380 B( 22-C , 25-C ) :   1.0609
B( 25-C , 26-H ) :   0.9581 B( 25-C , 27-H ) :   0.9575 B( 25-C , 28-C ) :   1.0706
B( 28-C , 29-H ) :   0.9733 B( 28-C , 30-H ) :   0.9712 B( 28-C , 31-H ) :   0.9808

Dispersion correction           -0.015152239
FINAL SINGLE POINT ENERGY     -1339.879384825525

DIPOLE MOMENT
-------------
                                X             Y             Z
Electronic contribution:      8.26333      18.87845     -17.14566
Nuclear contribution   :     -8.63994     -19.46971      17.34611
                        -----------------------------------------
Total Dipole Moment    :     -0.37661      -0.59125       0.20045
                        -----------------------------------------
Magnitude (a.u.)       :      0.72911
Magnitude (Debye)      :      1.85325

Rotational constants in cm-1:     0.018359     0.008727     0.007780
Rotational constants in MHz :   550.400087   261.624626   233.231402

                             ****ORCA TERMINATED NORMALLY****
TOTAL RUN TIME: 0 days 0 hours 0 minutes 35 seconds 254 msec
