                         Program Version 4.2.1 -  RELEASE  -
|  1> ! wB97X-D3 SP def2-SVP
|  2> %pal
|  3> nprocs 16
|  4> end
|  5>
|  6> * xyz 0 1
|  7> S 	 -23.1084 	 -3.95745 	 98.0323
|  8> C 	 -23.2472 	 -5.56161 	 98.7628
|  9> C 	 -24.3268 	 -5.52147 	 99.6672
| 10> C 	 -25.0552 	 -4.31221 	 99.6746
| 11> C 	 -24.5785 	 -3.38984 	 98.8096
| 12> H 	 -26.009 	 -4.14478 	 100.137
| 13> C 	 -24.7703 	 -6.72516 	 100.517
| 14> H 	 -24.7211 	 -6.51789 	 101.608
| 15> H 	 -24.0452 	 -7.53033 	 100.415
| 16> C 	 -26.1133 	 -7.32662 	 100.212
| 17> H 	 -25.9498 	 -7.74869 	 99.2678
| 18> H 	 -26.2161 	 -8.13671 	 100.987
| 19> C 	 -27.375 	 -6.5393 	 100.397
| 20> H 	 -27.2449 	 -6.00899 	 101.298
| 21> H 	 -27.5032 	 -5.76263 	 99.6083
| 22> H 	 -28.2561 	 -7.16944 	 100.334
| 23> S 	 -23.7651 	 -0.85695 	 98.5475
| 24> C 	 -24.9582 	 0.374993 	 98.2569
| 25> C 	 -26.2384 	 -0.112701 	 98.414
| 26> C 	 -26.3206 	 -1.50575 	 98.6478
| 27> C 	 -25.0405 	 -2.0345 	 98.7352
| 28> H 	 -26.979 	 0.603778 	 98.3605
| 29> C 	 -27.6492 	 -2.25192 	 98.7826
| 30> H 	 -27.5916 	 -2.54182 	 99.8186
| 31> H 	 -27.6968 	 -3.13367 	 98.1121
| 32> C 	 -28.9664 	 -1.59424 	 98.4592
| 33> H 	 -28.9896 	 -1.2815 	 97.4326
| 34> H 	 -28.8793 	 -0.590615 	 98.9752
| 35> C 	 -30.2422 	 -2.42288 	 98.8372
| 36> H 	 -30.1514 	 -2.9466 	 99.7679
| 37> H 	 -30.4077 	 -3.17589 	 98.0572
| 38> H 	 -31.1266 	 -1.78424 	 98.8921
| 39> H 	 -22.5625 	 -6.3876 	 98.7332
| 40> H 	 -24.8213 	 1.36833 	 97.8428
| 41> *
| 42>
| 43>                          ****END OF INPUT****

CARTESIAN COORDINATES (ANGSTROEM)
---------------------------------
  S    -23.108400   -3.957450   98.032300
  C    -23.247200   -5.561610   98.762800
  C    -24.326800   -5.521470   99.667200
  C    -25.055200   -4.312210   99.674600
  C    -24.578500   -3.389840   98.809600
  H    -26.009000   -4.144780  100.137000
  C    -24.770300   -6.725160  100.517000
  H    -24.721100   -6.517890  101.608000
  H    -24.045200   -7.530330  100.415000
  C    -26.113300   -7.326620  100.212000
  H    -25.949800   -7.748690   99.267800
  H    -26.216100   -8.136710  100.987000
  C    -27.375000   -6.539300  100.397000
  H    -27.244900   -6.008990  101.298000
  H    -27.503200   -5.762630   99.608300
  H    -28.256100   -7.169440  100.334000
  S    -23.765100   -0.856950   98.547500
  C    -24.958200    0.374993   98.256900
  C    -26.238400   -0.112701   98.414000
  C    -26.320600   -1.505750   98.647800
  C    -25.040500   -2.034500   98.735200
  H    -26.979000    0.603778   98.360500
  C    -27.649200   -2.251920   98.782600
  H    -27.591600   -2.541820   99.818600
  H    -27.696800   -3.133670   98.112100
  C    -28.966400   -1.594240   98.459200
  H    -28.989600   -1.281500   97.432600
  H    -28.879300   -0.590615   98.975200
  C    -30.242200   -2.422880   98.837200
  H    -30.151400   -2.946600   99.767900
  H    -30.407700   -3.175890   98.057200
  H    -31.126600   -1.784240   98.892100
  H    -22.562500   -6.387600   98.733200
  H    -24.821300    1.368330   97.842800

 Total Charge           Charge          ....    0
 Multiplicity           Mult            ....    1
 Number of Electrons    NEL             ....  134
 Basis Dimension        Dim             ....  322

ORBITAL ENERGIES
----------------

  NO   OCC          E(Eh)            E(eV)
   0   2.0000     -88.966982     -2420.9147
   1   2.0000     -88.966796     -2420.9096
   2   2.0000     -10.323683      -280.9217
   3   2.0000     -10.323356      -280.9128
   4   2.0000     -10.317156      -280.7441
   5   2.0000     -10.312484      -280.6170
   6   2.0000     -10.306127      -280.4440
   7   2.0000     -10.301700      -280.3235
   8   2.0000     -10.295288      -280.1490
   9   2.0000     -10.292869      -280.0832
  10   2.0000     -10.290376      -280.0154
  11   2.0000     -10.286463      -279.9089
  12   2.0000     -10.286153      -279.9004
  13   2.0000     -10.285055      -279.8706
  14   2.0000     -10.279582      -279.7216
  15   2.0000     -10.276205      -279.6297
  16   2.0000      -8.081974      -219.9217
  17   2.0000      -8.080886      -219.8921
  18   2.0000      -6.040450      -164.3690
  19   2.0000      -6.039490      -164.3429
  20   2.0000      -6.036455      -164.2603
  21   2.0000      -6.035461      -164.2333
  22   2.0000      -6.032737      -164.1591
  23   2.0000      -6.031577      -164.1276
  24   2.0000      -1.011503       -27.5244
  25   2.0000      -0.984405       -26.7870
  26   2.0000      -0.917217       -24.9588
  27   2.0000      -0.912697       -24.8357
  28   2.0000      -0.874024       -23.7834
  29   2.0000      -0.855651       -23.2835
  30   2.0000      -0.843553       -22.9543
  31   2.0000      -0.819561       -22.3014
  32   2.0000      -0.790111       -21.5000
  33   2.0000      -0.777723       -21.1629
  34   2.0000      -0.711676       -19.3657
  35   2.0000      -0.702120       -19.1057
  36   2.0000      -0.693201       -18.8629
  37   2.0000      -0.657201       -17.8833
  38   2.0000      -0.640246       -17.4220
  39   2.0000      -0.621152       -16.9024
  40   2.0000      -0.598843       -16.2953
  41   2.0000      -0.579800       -15.7772
  42   2.0000      -0.572363       -15.5748
  43   2.0000      -0.554323       -15.0839
  44   2.0000      -0.541430       -14.7331
  45   2.0000      -0.525659       -14.3039
  46   2.0000      -0.515483       -14.0270
  47   2.0000      -0.512538       -13.9469
  48   2.0000      -0.510137       -13.8815
  49   2.0000      -0.506307       -13.7773
  50   2.0000      -0.491067       -13.3626
  51   2.0000      -0.485756       -13.2181
  52   2.0000      -0.477479       -12.9929
  53   2.0000      -0.471610       -12.8332
  54   2.0000      -0.462633       -12.5889
  55   2.0000      -0.455715       -12.4006
  56   2.0000      -0.442676       -12.0458
  57   2.0000      -0.440451       -11.9853
  58   2.0000      -0.431066       -11.7299
  59   2.0000      -0.427930       -11.6446
  60   2.0000      -0.418308       -11.3827
  61   2.0000      -0.409417       -11.1408
  62   2.0000      -0.403401       -10.9771
  63   2.0000      -0.352321        -9.5871
  64   2.0000      -0.335164        -9.1203
  65   2.0000      -0.329167        -8.9571
  66   2.0000      -0.285053        -7.7567
  67   0.0000       0.023118         0.6291
  68   0.0000       0.075900         2.0653
  69   0.0000       0.107789         2.9331
  70   0.0000       0.127195         3.4611
  71   0.0000       0.130448         3.5497

MULLIKEN ATOMIC CHARGES
-----------------------
   0 S :    0.103183
   1 C :   -0.107067
   2 C :   -0.080497
   3 C :    0.015792
   4 C :   -0.115168
   5 H :   -0.007530
   6 C :    0.048278
   7 H :    0.030149
   8 H :    0.007863
   9 C :   -0.076017
  10 H :    0.016740
  11 H :    0.029375
  12 C :   -0.020556
  13 H :    0.020182
  14 H :    0.030574
  15 H :    0.040372
  16 S :    0.115280
  17 C :   -0.091173
  18 C :   -0.041654
  19 C :   -0.004744
  20 C :   -0.168867
  21 H :   -0.014240
  22 C :    0.032080
  23 H :    0.049891
  24 H :    0.046370
  25 C :   -0.099193
  26 H :    0.029222
  27 H :    0.026481
  28 C :   -0.022460
  29 H :    0.029623
  30 H :    0.037650
  31 H :    0.041079
  32 H :    0.044680
  33 H :    0.054300
Sum of atomic charges:   -0.0000000

LOEWDIN ATOMIC CHARGES
----------------------
   0 S :    0.393964
   1 C :   -0.197548
   2 C :   -0.057111
   3 C :   -0.066179
   4 C :   -0.186823
   5 H :    0.028295
   6 C :   -0.036628
   7 H :    0.030012
   8 H :    0.028521
   9 C :   -0.042006
  10 H :    0.015898
  11 H :    0.032112
  12 C :   -0.063061
  13 H :    0.018933
  14 H :    0.024492
  15 H :    0.030244
  16 S :    0.414849
  17 C :   -0.192662
  18 C :   -0.066137
  19 C :   -0.052446
  20 C :   -0.192293
  21 H :    0.017220
  22 C :   -0.038175
  23 H :    0.031926
  24 H :    0.037257
  25 C :   -0.046777
  26 H :    0.022430
  27 H :    0.023433
  28 C :   -0.057209
  29 H :    0.023297
  30 H :    0.029493
  31 H :    0.031752
  32 H :    0.028807
  33 H :    0.032118

  Mayer bond orders larger than 0.100000
B(  0-S ,  1-C ) :   1.1231 B(  0-S ,  4-C ) :   1.1390 B(  1-C ,  2-C ) :   1.6002
B(  1-C , 32-H ) :   0.9701 B(  2-C ,  3-C ) :   1.2475 B(  2-C ,  6-C ) :   1.0253
B(  3-C ,  4-C ) :   1.5634 B(  3-C ,  5-H ) :   0.9908 B(  4-C , 20-C ) :   1.0751
B(  6-C ,  7-H ) :   0.9373 B(  6-C ,  8-H ) :   0.9374 B(  6-C ,  9-C ) :   1.0841
B(  9-C , 10-H ) :   0.9531 B(  9-C , 11-H ) :   0.9500 B(  9-C , 12-C ) :   1.0892
B( 12-C , 13-H ) :   0.9670 B( 12-C , 14-H ) :   0.9654 B( 12-C , 15-H ) :   0.9678
B( 16-S , 17-C ) :   1.1475 B( 16-S , 20-C ) :   1.1434 B( 17-C , 18-C ) :   1.6247
B( 17-C , 33-H ) :   0.9608 B( 18-C , 19-C ) :   1.2416 B( 18-C , 21-H ) :   0.9975
B( 19-C , 20-C ) :   1.5916 B( 19-C , 22-C ) :   1.0158 B( 22-C , 23-H ) :   0.9242
B( 22-C , 24-H ) :   0.9346 B( 22-C , 25-C ) :   1.0858 B( 25-C , 26-H ) :   0.9550
B( 25-C , 27-H ) :   0.9450 B( 25-C , 28-C ) :   1.0687 B( 28-C , 29-H ) :   0.9779
B( 28-C , 30-H ) :   0.9750 B( 28-C , 31-H ) :   0.9749

Dispersion correction           -0.014417292
FINAL SINGLE POINT ENERGY     -1339.865876347751

DIPOLE MOMENT
-------------
                                X             Y             Z
Electronic contribution:     28.19801      13.23319      -7.82389
Nuclear contribution   :    -28.89282     -13.44229       8.00341
                        -----------------------------------------
Total Dipole Moment    :     -0.69481      -0.20910       0.17952
                        -----------------------------------------
Magnitude (a.u.)       :      0.74747
Magnitude (Debye)      :      1.89993

Rotational constants in cm-1:     0.015295     0.010963     0.006692
Rotational constants in MHz :   458.541430   328.671648   200.616497

                             ****ORCA TERMINATED NORMALLY****
TOTAL RUN TIME: 0 days 0 hours 0 minutes 30 seconds 369 msec
