                         Program Version 4.2.1 -  RELEASE  -
|  1> ! wB97X-D3 SP def2-SVP
|  2> %pal
|  3> nprocs 16
|  4> end
|  5>
|  6> * xyz 0 1
|  7> S 	 38.3067 	 11.8862 	 79.8252
|  8> C 	 39.0339 	 13.4022 	 79.1709
|  9> C 	 39.4908 	 14.2538 	 80.1928
| 10> C 	 39.4086 	 13.5433 	 81.4517
| 11> C 	 38.8229 	 12.2942 	 81.3992
| 12> H 	 39.6861 	 13.9114 	 82.3717
| 13> C 	 40.2298 	 15.5745 	 79.9249
| 14> H 	 40.4042 	 16.101 	 80.8642
| 15> H 	 39.488 	 16.1515 	 79.3224
| 16> C 	 41.5743 	 15.3315 	 79.164
| 17> H 	 41.2385 	 14.9939 	 78.1704
| 18> H 	 41.9092 	 16.3397 	 78.9469
| 19> C 	 42.5429 	 14.4596 	 79.8718
| 20> H 	 43.4713 	 14.3092 	 79.3335
| 21> H 	 42.8805 	 14.8705 	 80.7513
| 22> H 	 42.053 	 13.5352 	 80.2135
| 23> S 	 36.6533 	 11.3706 	 82.7814
| 24> C 	 36.9296 	 10.6769 	 84.3219
| 25> C 	 38.2585 	 10.5851 	 84.7177
| 26> C 	 39.1232 	 11.1267 	 83.7056
| 27> C 	 38.442 	 11.5506 	 82.5866
| 28> H 	 38.6026 	 10.1901 	 85.6711
| 29> C 	 40.6151 	 11.164 	 83.8056
| 30> H 	 41.1463 	 10.989 	 82.8749
| 31> H 	 40.9544 	 10.2237 	 84.3811
| 32> C 	 41.1916 	 12.417 	 84.5203
| 33> H 	 40.7491 	 13.4255 	 84.2811
| 34> H 	 42.2048 	 12.4834 	 84.0426
| 35> C 	 41.3894 	 12.1687 	 86.0125
| 36> H 	 40.573 	 11.5956 	 86.4759
| 37> H 	 41.5658 	 13.1398 	 86.5148
| 38> H 	 42.2961 	 11.5814 	 86.3009
| 39> H 	 39.0227 	 13.6118 	 78.142
| 40> H 	 36.1934 	 10.1979 	 84.9178
| 41> *
| 42>
| 43>                          ****END OF INPUT****

CARTESIAN COORDINATES (ANGSTROEM)
---------------------------------
  S     38.306700   11.886200   79.825200
  C     39.033900   13.402200   79.170900
  C     39.490800   14.253800   80.192800
  C     39.408600   13.543300   81.451700
  C     38.822900   12.294200   81.399200
  H     39.686100   13.911400   82.371700
  C     40.229800   15.574500   79.924900
  H     40.404200   16.101000   80.864200
  H     39.488000   16.151500   79.322400
  C     41.574300   15.331500   79.164000
  H     41.238500   14.993900   78.170400
  H     41.909200   16.339700   78.946900
  C     42.542900   14.459600   79.871800
  H     43.471300   14.309200   79.333500
  H     42.880500   14.870500   80.751300
  H     42.053000   13.535200   80.213500
  S     36.653300   11.370600   82.781400
  C     36.929600   10.676900   84.321900
  C     38.258500   10.585100   84.717700
  C     39.123200   11.126700   83.705600
  C     38.442000   11.550600   82.586600
  H     38.602600   10.190100   85.671100
  C     40.615100   11.164000   83.805600
  H     41.146300   10.989000   82.874900
  H     40.954400   10.223700   84.381100
  C     41.191600   12.417000   84.520300
  H     40.749100   13.425500   84.281100
  H     42.204800   12.483400   84.042600
  C     41.389400   12.168700   86.012500
  H     40.573000   11.595600   86.475900
  H     41.565800   13.139800   86.514800
  H     42.296100   11.581400   86.300900
  H     39.022700   13.611800   78.142000
  H     36.193400   10.197900   84.917800

 Total Charge           Charge          ....    0
 Multiplicity           Mult            ....    1
 Number of Electrons    NEL             ....  134
 Basis Dimension        Dim             ....  322

ORBITAL ENERGIES
----------------

  NO   OCC          E(Eh)            E(eV)
   0   2.0000     -88.967043     -2420.9163
   1   2.0000     -88.964389     -2420.8441
   2   2.0000     -10.323960      -280.9292
   3   2.0000     -10.323282      -280.9108
   4   2.0000     -10.315849      -280.7085
   5   2.0000     -10.312270      -280.6111
   6   2.0000     -10.306983      -280.4673
   7   2.0000     -10.301362      -280.3143
   8   2.0000     -10.299833      -280.2727
   9   2.0000     -10.296165      -280.1729
  10   2.0000     -10.295559      -280.1564
  11   2.0000     -10.294591      -280.1301
  12   2.0000     -10.288575      -279.9663
  13   2.0000     -10.287714      -279.9429
  14   2.0000     -10.283406      -279.8257
  15   2.0000     -10.269251      -279.4405
  16   2.0000      -8.081658      -219.9131
  17   2.0000      -8.079150      -219.8448
  18   2.0000      -6.040110      -164.3597
  19   2.0000      -6.037568      -164.2906
  20   2.0000      -6.036182      -164.2529
  21   2.0000      -6.033803      -164.1881
  22   2.0000      -6.032497      -164.1526
  23   2.0000      -6.029857      -164.0807
  24   2.0000      -1.004498       -27.3338
  25   2.0000      -0.979255       -26.6469
  26   2.0000      -0.914669       -24.8894
  27   2.0000      -0.907707       -24.7000
  28   2.0000      -0.866126       -23.5685
  29   2.0000      -0.851572       -23.1725
  30   2.0000      -0.844144       -22.9703
  31   2.0000      -0.811633       -22.0856
  32   2.0000      -0.786832       -21.4108
  33   2.0000      -0.772078       -21.0093
  34   2.0000      -0.708696       -19.2846
  35   2.0000      -0.704084       -19.1591
  36   2.0000      -0.689156       -18.7529
  37   2.0000      -0.663416       -18.0525
  38   2.0000      -0.645459       -17.5638
  39   2.0000      -0.610091       -16.6014
  40   2.0000      -0.597928       -16.2704
  41   2.0000      -0.572622       -15.5818
  42   2.0000      -0.556668       -15.1477
  43   2.0000      -0.550611       -14.9829
  44   2.0000      -0.539134       -14.6706
  45   2.0000      -0.528351       -14.3772
  46   2.0000      -0.513970       -13.9858
  47   2.0000      -0.512817       -13.9545
  48   2.0000      -0.505218       -13.7477
  49   2.0000      -0.495944       -13.4953
  50   2.0000      -0.488483       -13.2923
  51   2.0000      -0.481478       -13.1017
  52   2.0000      -0.472805       -12.8657
  53   2.0000      -0.465524       -12.6675
  54   2.0000      -0.461637       -12.5618
  55   2.0000      -0.449249       -12.2247
  56   2.0000      -0.445768       -12.1300
  57   2.0000      -0.440236       -11.9794
  58   2.0000      -0.435605       -11.8534
  59   2.0000      -0.425070       -11.5667
  60   2.0000      -0.415742       -11.3129
  61   2.0000      -0.413009       -11.2385
  62   2.0000      -0.406884       -11.0719
  63   2.0000      -0.338384        -9.2079
  64   2.0000      -0.333334        -9.0705
  65   2.0000      -0.329026        -8.9532
  66   2.0000      -0.291402        -7.9294
  67   0.0000       0.032494         0.8842
  68   0.0000       0.063870         1.7380
  69   0.0000       0.110285         3.0010
  70   0.0000       0.121879         3.3165
  71   0.0000       0.125340         3.4107

MULLIKEN ATOMIC CHARGES
-----------------------
   0 S :    0.109840
   1 C :   -0.126198
   2 C :   -0.082898
   3 C :    0.067265
   4 C :   -0.143826
   5 H :   -0.048793
   6 C :    0.029771
   7 H :    0.025845
   8 H :    0.045022
   9 C :   -0.051698
  10 H :    0.019604
  11 H :    0.021618
  12 C :    0.012939
  13 H :    0.033559
  14 H :   -0.003429
  15 H :    0.046151
  16 S :    0.107336
  17 C :   -0.062677
  18 C :   -0.044681
  19 C :   -0.004122
  20 C :   -0.159207
  21 H :    0.019735
  22 C :    0.003435
  23 H :    0.033137
  24 H :    0.033162
  25 C :   -0.083890
  26 H :    0.053943
  27 H :    0.031409
  28 C :   -0.061070
  29 H :    0.031922
  30 H :    0.034881
  31 H :    0.034470
  32 H :    0.034790
  33 H :    0.042655
Sum of atomic charges:    0.0000000

LOEWDIN ATOMIC CHARGES
----------------------
   0 S :    0.405482
   1 C :   -0.175512
   2 C :   -0.054893
   3 C :   -0.055478
   4 C :   -0.214213
   5 H :    0.010676
   6 C :   -0.030385
   7 H :    0.025941
   8 H :    0.039234
   9 C :   -0.036175
  10 H :    0.022429
  11 H :    0.022123
  12 C :   -0.062037
  13 H :    0.031522
  14 H :    0.015383
  15 H :    0.035878
  16 S :    0.396909
  17 C :   -0.187161
  18 C :   -0.072917
  19 C :   -0.056367
  20 C :   -0.177995
  21 H :    0.030977
  22 C :   -0.037442
  23 H :    0.030947
  24 H :    0.041115
  25 C :   -0.049418
  26 H :    0.029244
  27 H :    0.032028
  28 C :   -0.075965
  29 H :    0.022529
  30 H :    0.029054
  31 H :    0.029475
  32 H :    0.013132
  33 H :    0.021879

  Mayer bond orders larger than 0.100000
B(  0-S ,  1-C ) :   1.1381 B(  0-S ,  4-C ) :   1.1543 B(  1-C ,  2-C ) :   1.5868
B(  1-C , 32-H ) :   0.9793 B(  2-C ,  3-C ) :   1.2331 B(  2-C ,  6-C ) :   1.0162
B(  3-C ,  4-C ) :   1.5684 B(  3-C ,  5-H ) :   1.0051 B(  4-C , 20-C ) :   1.0241
B(  6-C ,  7-H ) :   0.9467 B(  6-C ,  8-H ) :   0.9390 B(  6-C ,  9-C ) :   1.0700
B(  9-C , 10-H ) :   0.9534 B(  9-C , 11-H ) :   0.9537 B(  9-C , 12-C ) :   1.0759
B( 12-C , 13-H ) :   0.9678 B( 12-C , 14-H ) :   0.9655 B( 12-C , 15-H ) :   0.9686
B( 16-S , 17-C ) :   1.1650 B( 16-S , 20-C ) :   1.1168 B( 17-C , 18-C ) :   1.6176
B( 17-C , 33-H ) :   0.9636 B( 18-C , 19-C ) :   1.2257 B( 18-C , 21-H ) :   0.9860
B( 19-C , 20-C ) :   1.6426 B( 19-C , 22-C ) :   1.0445 B( 22-C , 23-H ) :   0.9440
B( 22-C , 24-H ) :   0.9416 B( 22-C , 25-C ) :   1.0437 B( 25-C , 26-H ) :   0.9595
B( 25-C , 27-H ) :   0.9546 B( 25-C , 28-C ) :   1.0729 B( 28-C , 29-H ) :   0.9774
B( 28-C , 30-H ) :   0.9731 B( 28-C , 31-H ) :   0.9731

Dispersion correction           -0.015259533
FINAL SINGLE POINT ENERGY     -1339.871344605138

DIPOLE MOMENT
-------------
                                X             Y             Z
Electronic contribution:    -25.34426     -11.60734      -7.12089
Nuclear contribution   :     25.95233      11.95384       7.34015
                        -----------------------------------------
Total Dipole Moment    :      0.60807       0.34649       0.21926
                        -----------------------------------------
Magnitude (a.u.)       :      0.73340
Magnitude (Debye)      :      1.86416

Rotational constants in cm-1:     0.018575     0.009751     0.006981
Rotational constants in MHz :   556.869934   292.331554   209.282959

                             ****ORCA TERMINATED NORMALLY****
TOTAL RUN TIME: 0 days 0 hours 0 minutes 31 seconds 680 msec
