                         Program Version 4.2.1 -  RELEASE  -
|  1> ! wB97X-D3 SP def2-SVP
|  2> %pal
|  3> nprocs 16
|  4> end
|  5>
|  6> * xyz 0 1
|  7> S 	 -12.2338 	 -2.45635 	 81.47
|  8> C 	 -12.1236 	 -1.18206 	 82.6661
|  9> C 	 -13.136 	 -0.25537 	 82.5672
| 10> C 	 -14.1468 	 -0.690678 	 81.6222
| 11> C 	 -13.8314 	 -1.89676 	 81.0075
| 12> H 	 -15.0697 	 -0.153717 	 81.4688
| 13> C 	 -13.2624 	 1.07423 	 83.2727
| 14> H 	 -13.8208 	 1.73752 	 82.5481
| 15> H 	 -12.2747 	 1.59009 	 83.2743
| 16> C 	 -13.9408 	 1.19557 	 84.706
| 17> H 	 -14.9471 	 0.824718 	 84.6406
| 18> H 	 -13.4677 	 0.660236 	 85.5093
| 19> C 	 -14.0665 	 2.70709 	 85.1611
| 20> H 	 -14.4714 	 3.19016 	 84.2943
| 21> H 	 -14.7414 	 2.74657 	 86.0649
| 22> H 	 -13.1217 	 3.1364 	 85.4547
| 23> S 	 -13.8559 	 -2.85098 	 78.5028
| 24> C 	 -15.2072 	 -3.82701 	 77.9418
| 25> C 	 -16.1786 	 -3.9176 	 78.9526
| 26> C 	 -15.8474 	 -3.26436 	 80.175
| 27> C 	 -14.6259 	 -2.69456 	 80.0722
| 28> H 	 -17.1103 	 -4.44692 	 78.7604
| 29> C 	 -16.6494 	 -3.41826 	 81.468
| 30> H 	 -15.9916 	 -3.17247 	 82.2616
| 31> H 	 -16.9768 	 -4.45469 	 81.5132
| 32> C 	 -17.9057 	 -2.44737 	 81.6872
| 33> H 	 -18.3923 	 -2.61577 	 82.6751
| 34> H 	 -18.685 	 -2.87692 	 81.059
| 35> C 	 -17.7279 	 -0.893225 	 81.4278
| 36> H 	 -17.2445 	 -0.622984 	 80.4959
| 37> H 	 -17.3179 	 -0.405703 	 82.3018
| 38> H 	 -18.6626 	 -0.380663 	 81.39
| 39> H 	 -11.3622 	 -1.06871 	 83.4287
| 40> H 	 -15.1934 	 -4.21057 	 76.9447
| 41> *
| 42>
| 43>                          ****END OF INPUT****

CARTESIAN COORDINATES (ANGSTROEM)
---------------------------------
  S    -12.233800   -2.456350   81.470000
  C    -12.123600   -1.182060   82.666100
  C    -13.136000   -0.255370   82.567200
  C    -14.146800   -0.690678   81.622200
  C    -13.831400   -1.896760   81.007500
  H    -15.069700   -0.153717   81.468800
  C    -13.262400    1.074230   83.272700
  H    -13.820800    1.737520   82.548100
  H    -12.274700    1.590090   83.274300
  C    -13.940800    1.195570   84.706000
  H    -14.947100    0.824718   84.640600
  H    -13.467700    0.660236   85.509300
  C    -14.066500    2.707090   85.161100
  H    -14.471400    3.190160   84.294300
  H    -14.741400    2.746570   86.064900
  H    -13.121700    3.136400   85.454700
  S    -13.855900   -2.850980   78.502800
  C    -15.207200   -3.827010   77.941800
  C    -16.178600   -3.917600   78.952600
  C    -15.847400   -3.264360   80.175000
  C    -14.625900   -2.694560   80.072200
  H    -17.110300   -4.446920   78.760400
  C    -16.649400   -3.418260   81.468000
  H    -15.991600   -3.172470   82.261600
  H    -16.976800   -4.454690   81.513200
  C    -17.905700   -2.447370   81.687200
  H    -18.392300   -2.615770   82.675100
  H    -18.685000   -2.876920   81.059000
  C    -17.727900   -0.893225   81.427800
  H    -17.244500   -0.622984   80.495900
  H    -17.317900   -0.405703   82.301800
  H    -18.662600   -0.380663   81.390000
  H    -11.362200   -1.068710   83.428700
  H    -15.193400   -4.210570   76.944700

 Total Charge           Charge          ....    0
 Multiplicity           Mult            ....    1
 Number of Electrons    NEL             ....  134
 Basis Dimension        Dim             ....  322

ORBITAL ENERGIES
----------------

  NO   OCC          E(Eh)            E(eV)
   0   2.0000     -88.966405     -2420.8990
   1   2.0000     -88.962353     -2420.7887
   2   2.0000     -10.327401      -281.0229
   3   2.0000     -10.321889      -280.8729
   4   2.0000     -10.318092      -280.7696
   5   2.0000     -10.311677      -280.5950
   6   2.0000     -10.302638      -280.3490
   7   2.0000     -10.300675      -280.2956
   8   2.0000     -10.299986      -280.2769
   9   2.0000     -10.296970      -280.1948
  10   2.0000     -10.296860      -280.1918
  11   2.0000     -10.294441      -280.1260
  12   2.0000     -10.293577      -280.1025
  13   2.0000     -10.291403      -280.0433
  14   2.0000     -10.283333      -279.8237
  15   2.0000     -10.280049      -279.7344
  16   2.0000      -8.080950      -219.8938
  17   2.0000      -8.077324      -219.7952
  18   2.0000      -6.039466      -164.3422
  19   2.0000      -6.035768      -164.2416
  20   2.0000      -6.035522      -164.2349
  21   2.0000      -6.031822      -164.1342
  22   2.0000      -6.031679      -164.1303
  23   2.0000      -6.028121      -164.0335
  24   2.0000      -1.005577       -27.3631
  25   2.0000      -0.980698       -26.6862
  26   2.0000      -0.901237       -24.5239
  27   2.0000      -0.896633       -24.3986
  28   2.0000      -0.864658       -23.5285
  29   2.0000      -0.848121       -23.0785
  30   2.0000      -0.845086       -22.9960
  31   2.0000      -0.809075       -22.0161
  32   2.0000      -0.785972       -21.3874
  33   2.0000      -0.770263       -20.9599
  34   2.0000      -0.708298       -19.2738
  35   2.0000      -0.704011       -19.1571
  36   2.0000      -0.694161       -18.8891
  37   2.0000      -0.665141       -18.0994
  38   2.0000      -0.637011       -17.3339
  39   2.0000      -0.616014       -16.7626
  40   2.0000      -0.591691       -16.1007
  41   2.0000      -0.566300       -15.4098
  42   2.0000      -0.555873       -15.1261
  43   2.0000      -0.546715       -14.8769
  44   2.0000      -0.543377       -14.7860
  45   2.0000      -0.522910       -14.2291
  46   2.0000      -0.515592       -14.0300
  47   2.0000      -0.502219       -13.6661
  48   2.0000      -0.501399       -13.6438
  49   2.0000      -0.493880       -13.4392
  50   2.0000      -0.488721       -13.2988
  51   2.0000      -0.474463       -12.9108
  52   2.0000      -0.470680       -12.8079
  53   2.0000      -0.463934       -12.6243
  54   2.0000      -0.463876       -12.6227
  55   2.0000      -0.445665       -12.1271
  56   2.0000      -0.443874       -12.0784
  57   2.0000      -0.441181       -12.0051
  58   2.0000      -0.435159       -11.8413
  59   2.0000      -0.426227       -11.5982
  60   2.0000      -0.423327       -11.5193
  61   2.0000      -0.419540       -11.4163
  62   2.0000      -0.410616       -11.1734
  63   2.0000      -0.337563        -9.1856
  64   2.0000      -0.333591        -9.0775
  65   2.0000      -0.327596        -8.9143
  66   2.0000      -0.295578        -8.0431
  67   0.0000       0.038161         1.0384
  68   0.0000       0.062385         1.6976
  69   0.0000       0.107088         2.9140
  70   0.0000       0.122775         3.3409
  71   0.0000       0.126691         3.4474

MULLIKEN ATOMIC CHARGES
-----------------------
   0 S :    0.120443
   1 C :   -0.111041
   2 C :   -0.075054
   3 C :    0.057312
   4 C :   -0.165104
   5 H :   -0.008933
   6 C :    0.003308
   7 H :    0.028211
   8 H :    0.033637
   9 C :   -0.048466
  10 H :    0.024622
  11 H :    0.030708
  12 C :   -0.067982
  13 H :    0.030803
  14 H :    0.045869
  15 H :    0.035632
  16 S :    0.098488
  17 C :   -0.094820
  18 C :   -0.040951
  19 C :   -0.006053
  20 C :   -0.182656
  21 H :    0.019949
  22 C :    0.094628
  23 H :    0.027828
  24 H :    0.035086
  25 C :   -0.094626
  26 H :    0.031963
  27 H :    0.018904
  28 C :   -0.046556
  29 H :    0.056731
  30 H :    0.034255
  31 H :    0.019004
  32 H :    0.039466
  33 H :    0.055394
Sum of atomic charges:   -0.0000000

LOEWDIN ATOMIC CHARGES
----------------------
   0 S :    0.404757
   1 C :   -0.193840
   2 C :   -0.068898
   3 C :   -0.055437
   4 C :   -0.197853
   5 H :    0.028418
   6 C :   -0.043532
   7 H :    0.036499
   8 H :    0.034073
   9 C :   -0.033309
  10 H :    0.020177
  11 H :    0.019846
  12 C :   -0.062410
  13 H :    0.020630
  14 H :    0.033903
  15 H :    0.020631
  16 S :    0.397017
  17 C :   -0.179720
  18 C :   -0.067066
  19 C :   -0.063306
  20 C :   -0.191736
  21 H :    0.030634
  22 C :   -0.018171
  23 H :    0.027049
  24 H :    0.035444
  25 C :   -0.041384
  26 H :    0.029044
  27 H :    0.017824
  28 C :   -0.070740
  29 H :    0.028259
  30 H :    0.024956
  31 H :    0.027009
  32 H :    0.027887
  33 H :    0.023342

  Mayer bond orders larger than 0.100000
B(  0-S ,  1-C ) :   1.1324 B(  0-S ,  4-C ) :   1.1491 B(  1-C ,  2-C ) :   1.6362
B(  1-C , 32-H ) :   0.9664 B(  2-C ,  3-C ) :   1.2245 B(  2-C ,  6-C ) :   1.0213
B(  3-C ,  4-C ) :   1.5860 B(  3-C ,  5-H ) :   0.9922 B(  4-C , 20-C ) :   0.9914
B(  6-C ,  7-H ) :   0.9416 B(  6-C ,  8-H ) :   0.9446 B(  6-C ,  9-C ) :   1.0510
B(  9-C , 10-H ) :   0.9582 B(  9-C , 11-H ) :   0.9610 B(  9-C , 12-C ) :   1.0701
B( 12-C , 13-H ) :   0.9781 B( 12-C , 14-H ) :   0.9762 B( 12-C , 15-H ) :   0.9799
B( 16-S , 17-C ) :   1.1454 B( 16-S , 20-C ) :   1.1576 B( 17-C , 18-C ) :   1.6003
B( 17-C , 20-C ) :   0.1035 B( 17-C , 33-H ) :   0.9778 B( 18-C , 19-C ) :   1.2127
B( 18-C , 21-H ) :   0.9892 B( 19-C , 20-C ) :   1.6328 B( 19-C , 22-C ) :   1.0355
B( 22-C , 23-H ) :   0.9346 B( 22-C , 24-H ) :   0.9432 B( 22-C , 25-C ) :   1.0558
B( 25-C , 26-H ) :   0.9590 B( 25-C , 27-H ) :   0.9621 B( 25-C , 28-C ) :   1.0708
B( 28-C , 29-H ) :   0.9691 B( 28-C , 30-H ) :   0.9711 B( 28-C , 31-H ) :   0.9656

Dispersion correction           -0.014746266
FINAL SINGLE POINT ENERGY     -1339.878441170251

DIPOLE MOMENT
-------------
                                X             Y             Z
Electronic contribution:     16.79491     -17.90479     -19.70419
Nuclear contribution   :    -17.33261      18.17748      20.08736
                        -----------------------------------------
Total Dipole Moment    :     -0.53770       0.27268       0.38317
                        -----------------------------------------
Magnitude (a.u.)       :      0.71435
Magnitude (Debye)      :      1.81573

Rotational constants in cm-1:     0.019976     0.008622     0.006652
Rotational constants in MHz :   598.865738   258.474682   199.418153

                             ****ORCA TERMINATED NORMALLY****
TOTAL RUN TIME: 0 days 0 hours 0 minutes 32 seconds 720 msec
