                         Program Version 4.2.1 -  RELEASE  -
|  1> ! wB97X-D3 SP def2-SVP
|  2> %pal
|  3> nprocs 16
|  4> end
|  5>
|  6> * xyz 0 1
|  7> S 	 -12.4307 	 58.1532 	 57.2663
|  8> C 	 -11.5944 	 57.2522 	 56.0375
|  9> C 	 -10.3619 	 57.7918 	 55.7201
| 10> C 	 -10.0522 	 58.8855 	 56.5715
| 11> C 	 -11.0666 	 59.1988 	 57.4504
| 12> H 	 -9.24975 	 59.5436 	 56.5412
| 13> C 	 -9.5948 	 57.4627 	 54.4256
| 14> H 	 -9.65377 	 58.2399 	 53.6767
| 15> H 	 -10.0077 	 56.6326 	 53.9217
| 16> C 	 -8.1507 	 57.1049 	 54.6618
| 17> H 	 -7.56017 	 56.9716 	 53.7677
| 18> H 	 -7.67461 	 57.9273 	 55.1834
| 19> C 	 -8.06245 	 55.7574 	 55.2895
| 20> H 	 -8.52262 	 55.0636 	 54.7305
| 21> H 	 -7.00728 	 55.4047 	 55.6126
| 22> H 	 -8.75734 	 55.7321 	 56.1268
| 23> S 	 -12.2234 	 60.0949 	 59.8547
| 24> C 	 -11.9313 	 61.5883 	 60.5148
| 25> C 	 -10.9188 	 62.1688 	 59.8292
| 26> C 	 -10.473 	 61.4873 	 58.6183
| 27> C 	 -11.142 	 60.3024 	 58.415
| 28> H 	 -10.4822 	 63.0325 	 60.2081
| 29> C 	 -9.39411 	 62.0359 	 57.7813
| 30> H 	 -9.62077 	 63.0629 	 57.7517
| 31> H 	 -9.43233 	 61.6571 	 56.7733
| 32> C 	 -7.96739 	 61.871 	 58.3884
| 33> H 	 -8.029 	 62.1282 	 59.5007
| 34> H 	 -7.25714 	 62.5363 	 57.9003
| 35> C 	 -7.35222 	 60.4887 	 58.2578
| 36> H 	 -6.48459 	 60.4671 	 58.9369
| 37> H 	 -7.01351 	 60.1839 	 57.2869
| 38> H 	 -8.08502 	 59.7712 	 58.6276
| 39> H 	 -12.0845 	 56.547 	 55.3705
| 40> H 	 -12.205 	 61.9718 	 61.4886
| 41> *
| 42>
| 43>                          ****END OF INPUT****

CARTESIAN COORDINATES (ANGSTROEM)
---------------------------------
  S    -12.430700   58.153200   57.266300
  C    -11.594400   57.252200   56.037500
  C    -10.361900   57.791800   55.720100
  C    -10.052200   58.885500   56.571500
  C    -11.066600   59.198800   57.450400
  H     -9.249750   59.543600   56.541200
  C     -9.594800   57.462700   54.425600
  H     -9.653770   58.239900   53.676700
  H    -10.007700   56.632600   53.921700
  C     -8.150700   57.104900   54.661800
  H     -7.560170   56.971600   53.767700
  H     -7.674610   57.927300   55.183400
  C     -8.062450   55.757400   55.289500
  H     -8.522620   55.063600   54.730500
  H     -7.007280   55.404700   55.612600
  H     -8.757340   55.732100   56.126800
  S    -12.223400   60.094900   59.854700
  C    -11.931300   61.588300   60.514800
  C    -10.918800   62.168800   59.829200
  C    -10.473000   61.487300   58.618300
  C    -11.142000   60.302400   58.415000
  H    -10.482200   63.032500   60.208100
  C     -9.394110   62.035900   57.781300
  H     -9.620770   63.062900   57.751700
  H     -9.432330   61.657100   56.773300
  C     -7.967390   61.871000   58.388400
  H     -8.029000   62.128200   59.500700
  H     -7.257140   62.536300   57.900300
  C     -7.352220   60.488700   58.257800
  H     -6.484590   60.467100   58.936900
  H     -7.013510   60.183900   57.286900
  H     -8.085020   59.771200   58.627600
  H    -12.084500   56.547000   55.370500
  H    -12.205000   61.971800   61.488600

 Total Charge           Charge          ....    0
 Multiplicity           Mult            ....    1
 Number of Electrons    NEL             ....  134
 Basis Dimension        Dim             ....  322

ORBITAL ENERGIES
----------------

  NO   OCC          E(Eh)            E(eV)
   0   2.0000     -88.969426     -2420.9812
   1   2.0000     -88.959158     -2420.7018
   2   2.0000     -10.332729      -281.1678
   3   2.0000     -10.332111      -281.1510
   4   2.0000     -10.313950      -280.6569
   5   2.0000     -10.311059      -280.5782
   6   2.0000     -10.305546      -280.4282
   7   2.0000     -10.303648      -280.3765
   8   2.0000     -10.294191      -280.1192
   9   2.0000     -10.290786      -280.0265
  10   2.0000     -10.289833      -280.0006
  11   2.0000     -10.286708      -279.9155
  12   2.0000     -10.286043      -279.8975
  13   2.0000     -10.277594      -279.6675
  14   2.0000     -10.275399      -279.6078
  15   2.0000     -10.266380      -279.3624
  16   2.0000      -8.084626      -219.9939
  17   2.0000      -8.075139      -219.7357
  18   2.0000      -6.043050      -164.4397
  19   2.0000      -6.039077      -164.3316
  20   2.0000      -6.035421      -164.2322
  21   2.0000      -6.033736      -164.1863
  22   2.0000      -6.029402      -164.0684
  23   2.0000      -6.025759      -163.9692
  24   2.0000      -1.013758       -27.5858
  25   2.0000      -0.993485       -27.0341
  26   2.0000      -0.923782       -25.1374
  27   2.0000      -0.917316       -24.9614
  28   2.0000      -0.874750       -23.8032
  29   2.0000      -0.856181       -23.2979
  30   2.0000      -0.848174       -23.0800
  31   2.0000      -0.818387       -22.2694
  32   2.0000      -0.788190       -21.4477
  33   2.0000      -0.779972       -21.2241
  34   2.0000      -0.714167       -19.4335
  35   2.0000      -0.697540       -18.9810
  36   2.0000      -0.694414       -18.8960
  37   2.0000      -0.662631       -18.0311
  38   2.0000      -0.646292       -17.5865
  39   2.0000      -0.631121       -17.1737
  40   2.0000      -0.602409       -16.3924
  41   2.0000      -0.574912       -15.6441
  42   2.0000      -0.560537       -15.2530
  43   2.0000      -0.556610       -15.1461
  44   2.0000      -0.544996       -14.8301
  45   2.0000      -0.542022       -14.7492
  46   2.0000      -0.526052       -14.3146
  47   2.0000      -0.513822       -13.9818
  48   2.0000      -0.506694       -13.7878
  49   2.0000      -0.497588       -13.5401
  50   2.0000      -0.493811       -13.4373
  51   2.0000      -0.484377       -13.1806
  52   2.0000      -0.478329       -13.0160
  53   2.0000      -0.472139       -12.8476
  54   2.0000      -0.462990       -12.5986
  55   2.0000      -0.448970       -12.2171
  56   2.0000      -0.442613       -12.0441
  57   2.0000      -0.440201       -11.9785
  58   2.0000      -0.434031       -11.8106
  59   2.0000      -0.427661       -11.6373
  60   2.0000      -0.425594       -11.5810
  61   2.0000      -0.408877       -11.1261
  62   2.0000      -0.405135       -11.0243
  63   2.0000      -0.364868        -9.9286
  64   2.0000      -0.336058        -9.1446
  65   2.0000      -0.323129        -8.7928
  66   2.0000      -0.288785        -7.8582
  67   0.0000       0.023974         0.6524
  68   0.0000       0.083469         2.2713
  69   0.0000       0.102576         2.7912
  70   0.0000       0.112336         3.0568
  71   0.0000       0.135639         3.6909

MULLIKEN ATOMIC CHARGES
-----------------------
   0 S :    0.119749
   1 C :   -0.109582
   2 C :   -0.076553
   3 C :    0.044292
   4 C :   -0.123630
   5 H :   -0.058333
   6 C :    0.078882
   7 H :    0.036788
   8 H :   -0.005633
   9 C :   -0.059761
  10 H :    0.019727
  11 H :    0.025112
  12 C :   -0.013506
  13 H :   -0.013969
  14 H :    0.050409
  15 H :    0.014249
  16 S :    0.075946
  17 C :   -0.042764
  18 C :   -0.041396
  19 C :   -0.085818
  20 C :   -0.104787
  21 H :   -0.012758
  22 C :    0.089889
  23 H :    0.014938
  24 H :    0.025675
  25 C :   -0.092682
  26 H :    0.038707
  27 H :    0.032182
  28 C :   -0.049044
  29 H :    0.035824
  30 H :    0.035873
  31 H :    0.040996
  32 H :    0.050657
  33 H :    0.060320
Sum of atomic charges:    0.0000000

LOEWDIN ATOMIC CHARGES
----------------------
   0 S :    0.425430
   1 C :   -0.201368
   2 C :   -0.055923
   3 C :   -0.059552
   4 C :   -0.186159
   5 H :    0.014123
   6 C :   -0.020524
   7 H :    0.033032
   8 H :    0.021489
   9 C :   -0.044125
  10 H :    0.023199
  11 H :    0.019328
  12 C :   -0.063749
  13 H :    0.006740
  14 H :    0.036935
  15 H :    0.025412
  16 S :    0.402895
  17 C :   -0.206365
  18 C :   -0.073006
  19 C :   -0.058529
  20 C :   -0.176797
  21 H :    0.015560
  22 C :   -0.032932
  23 H :    0.030240
  24 H :    0.028365
  25 C :   -0.035847
  26 H :    0.032697
  27 H :    0.022446
  28 C :   -0.069202
  29 H :    0.032186
  30 H :    0.017621
  31 H :    0.028017
  32 H :    0.028807
  33 H :    0.039555

  Mayer bond orders larger than 0.100000
B(  0-S ,  1-C ) :   1.1446 B(  0-S ,  4-C ) :   1.1593 B(  1-C ,  2-C ) :   1.6140
B(  1-C , 32-H ) :   0.9618 B(  2-C ,  3-C ) :   1.2275 B(  2-C ,  6-C ) :   1.0213
B(  3-C ,  4-C ) :   1.5805 B(  3-C ,  5-H ) :   0.9947 B(  4-C , 20-C ) :   1.0521
B(  6-C ,  7-H ) :   0.9419 B(  6-C ,  8-H ) :   0.9400 B(  6-C ,  9-C ) :   1.0751
B(  9-C , 10-H ) :   0.9516 B(  9-C , 11-H ) :   0.9569 B(  9-C , 12-C ) :   1.0726
B( 12-C , 13-H ) :   0.9610 B( 12-C , 14-H ) :   0.9715 B( 12-C , 15-H ) :   0.9685
B( 16-S , 17-C ) :   1.1629 B( 16-S , 20-C ) :   1.1183 B( 17-C , 18-C ) :   1.6138
B( 17-C , 33-H ) :   0.9627 B( 18-C , 19-C ) :   1.2274 B( 18-C , 21-H ) :   0.9959
B( 19-C , 20-C ) :   1.6044 B( 19-C , 22-C ) :   1.0574 B( 22-C , 23-H ) :   0.9166
B( 22-C , 24-H ) :   0.9327 B( 22-C , 25-C ) :   1.0703 B( 25-C , 26-H ) :   0.9559
B( 25-C , 27-H ) :   0.9549 B( 25-C , 28-C ) :   1.0907 B( 28-C , 29-H ) :   0.9673
B( 28-C , 30-H ) :   0.9672 B( 28-C , 31-H ) :   0.9696

Dispersion correction           -0.015134511
FINAL SINGLE POINT ENERGY     -1339.864776492744

DIPOLE MOMENT
-------------
                                X             Y             Z
Electronic contribution:    -26.22272       2.61136      11.94632
Nuclear contribution   :     26.76624      -2.26954     -12.27087
                        -----------------------------------------
Total Dipole Moment    :      0.54352       0.34182      -0.32455
                        -----------------------------------------
Magnitude (a.u.)       :      0.71944
Magnitude (Debye)      :      1.82866

Rotational constants in cm-1:     0.020477     0.009515     0.007044
Rotational constants in MHz :   613.898228   285.254476   211.165479

                             ****ORCA TERMINATED NORMALLY****
TOTAL RUN TIME: 0 days 0 hours 0 minutes 35 seconds 920 msec
