                         Program Version 4.2.1 -  RELEASE  -
|  1> ! wB97X-D3 SP def2-SVP
|  2> %pal
|  3> nprocs 16
|  4> end
|  5>
|  6> * xyz 0 1
|  7> S 	 7.47274 	 24.416 	 68.2754
|  8> C 	 8.12725 	 22.9545 	 67.6511
|  9> C 	 9.22755 	 23.1674 	 66.7845
| 10> C 	 9.5732 	 24.5625 	 66.7721
| 11> C 	 8.85595 	 25.3333 	 67.7034
| 12> H 	 10.4347 	 25.0166 	 66.1893
| 13> C 	 9.84477 	 22.1935 	 65.7778
| 14> H 	 10.029 	 21.253 	 66.2445
| 15> H 	 10.7918 	 22.5771 	 65.478
| 16> C 	 8.87417 	 21.7795 	 64.5946
| 17> H 	 9.21636 	 20.8285 	 64.137
| 18> H 	 7.90931 	 21.5144 	 64.9381
| 19> C 	 8.77461 	 22.8354 	 63.4684
| 20> H 	 8.12262 	 22.5882 	 62.6585
| 21> H 	 8.39071 	 23.7224 	 63.8238
| 22> H 	 9.70752 	 22.9993 	 62.8935
| 23> S 	 7.59039 	 27.685 	 68.6123
| 24> C 	 8.63802 	 29.0517 	 68.9299
| 25> C 	 9.85144 	 28.9109 	 68.3919
| 26> C 	 10.1073 	 27.6046 	 67.8397
| 27> C 	 8.97551 	 26.7908 	 67.9105
| 28> H 	 10.5655 	 29.693 	 68.3154
| 29> C 	 11.5177 	 27.2616 	 67.3739
| 30> H 	 12.0859 	 28.1609 	 67.1764
| 31> H 	 11.3667 	 26.8103 	 66.3806
| 32> C 	 12.2872 	 26.2736 	 68.2273
| 33> H 	 11.6477 	 25.503 	 68.6083
| 34> H 	 12.7158 	 26.7603 	 69.0737
| 35> C 	 13.2898 	 25.4704 	 67.4328
| 36> H 	 12.8804 	 24.9545 	 66.4863
| 37> H 	 13.7749 	 24.634 	 67.9745
| 38> H 	 14.0418 	 26.2105 	 66.9794
| 39> H 	 7.56396 	 21.9871 	 67.6499
| 40> H 	 8.27442 	 30.0382 	 69.1446
| 41> *
| 42>
| 43>                          ****END OF INPUT****

CARTESIAN COORDINATES (ANGSTROEM)
---------------------------------
  S      7.472740   24.416000   68.275400
  C      8.127250   22.954500   67.651100
  C      9.227550   23.167400   66.784500
  C      9.573200   24.562500   66.772100
  C      8.855950   25.333300   67.703400
  H     10.434700   25.016600   66.189300
  C      9.844770   22.193500   65.777800
  H     10.029000   21.253000   66.244500
  H     10.791800   22.577100   65.478000
  C      8.874170   21.779500   64.594600
  H      9.216360   20.828500   64.137000
  H      7.909310   21.514400   64.938100
  C      8.774610   22.835400   63.468400
  H      8.122620   22.588200   62.658500
  H      8.390710   23.722400   63.823800
  H      9.707520   22.999300   62.893500
  S      7.590390   27.685000   68.612300
  C      8.638020   29.051700   68.929900
  C      9.851440   28.910900   68.391900
  C     10.107300   27.604600   67.839700
  C      8.975510   26.790800   67.910500
  H     10.565500   29.693000   68.315400
  C     11.517700   27.261600   67.373900
  H     12.085900   28.160900   67.176400
  H     11.366700   26.810300   66.380600
  C     12.287200   26.273600   68.227300
  H     11.647700   25.503000   68.608300
  H     12.715800   26.760300   69.073700
  C     13.289800   25.470400   67.432800
  H     12.880400   24.954500   66.486300
  H     13.774900   24.634000   67.974500
  H     14.041800   26.210500   66.979400
  H      7.563960   21.987100   67.649900
  H      8.274420   30.038200   69.144600

 Total Charge           Charge          ....    0
 Multiplicity           Mult            ....    1
 Number of Electrons    NEL             ....  134
 Basis Dimension        Dim             ....  322

ORBITAL ENERGIES
----------------

  NO   OCC          E(Eh)            E(eV)
   0   2.0000     -88.971099     -2421.0267
   1   2.0000     -88.966134     -2420.8916
   2   2.0000     -10.334172      -281.2071
   3   2.0000     -10.334032      -281.2033
   4   2.0000     -10.318958      -280.7931
   5   2.0000     -10.311395      -280.5873
   6   2.0000     -10.307383      -280.4781
   7   2.0000     -10.304611      -280.4027
   8   2.0000     -10.301639      -280.3218
   9   2.0000     -10.294591      -280.1301
  10   2.0000     -10.294386      -280.1245
  11   2.0000     -10.291617      -280.0491
  12   2.0000     -10.290345      -280.0145
  13   2.0000     -10.288174      -279.9555
  14   2.0000     -10.279185      -279.7108
  15   2.0000     -10.268454      -279.4188
  16   2.0000      -8.085905      -220.0286
  17   2.0000      -8.080428      -219.8796
  18   2.0000      -6.044398      -164.4764
  19   2.0000      -6.040514      -164.3707
  20   2.0000      -6.039194      -164.3348
  21   2.0000      -6.036577      -164.2636
  22   2.0000      -6.035148      -164.2247
  23   2.0000      -6.030814      -164.1068
  24   2.0000      -1.004705       -27.3394
  25   2.0000      -0.983846       -26.7718
  26   2.0000      -0.914689       -24.8900
  27   2.0000      -0.905408       -24.6374
  28   2.0000      -0.866684       -23.5837
  29   2.0000      -0.852892       -23.2084
  30   2.0000      -0.845891       -23.0179
  31   2.0000      -0.813609       -22.1394
  32   2.0000      -0.784503       -21.3474
  33   2.0000      -0.770832       -20.9754
  34   2.0000      -0.710660       -19.3380
  35   2.0000      -0.705491       -19.1974
  36   2.0000      -0.689781       -18.7699
  37   2.0000      -0.665713       -18.1150
  38   2.0000      -0.633028       -17.2256
  39   2.0000      -0.616515       -16.7762
  40   2.0000      -0.597827       -16.2677
  41   2.0000      -0.568607       -15.4726
  42   2.0000      -0.567578       -15.4446
  43   2.0000      -0.544551       -14.8180
  44   2.0000      -0.541967       -14.7477
  45   2.0000      -0.524735       -14.2788
  46   2.0000      -0.518942       -14.1211
  47   2.0000      -0.509623       -13.8675
  48   2.0000      -0.499326       -13.5874
  49   2.0000      -0.496156       -13.5011
  50   2.0000      -0.487295       -13.2600
  51   2.0000      -0.484225       -13.1764
  52   2.0000      -0.475222       -12.9314
  53   2.0000      -0.462375       -12.5819
  54   2.0000      -0.459562       -12.5053
  55   2.0000      -0.454987       -12.3808
  56   2.0000      -0.440839       -11.9958
  57   2.0000      -0.438041       -11.9197
  58   2.0000      -0.431804       -11.7500
  59   2.0000      -0.425403       -11.5758
  60   2.0000      -0.423827       -11.5329
  61   2.0000      -0.421483       -11.4691
  62   2.0000      -0.408756       -11.1228
  63   2.0000      -0.361651        -9.8410
  64   2.0000      -0.335436        -9.1277
  65   2.0000      -0.327652        -8.9159
  66   2.0000      -0.281141        -7.6502
  67   0.0000       0.015266         0.4154
  68   0.0000       0.076869         2.0917
  69   0.0000       0.091617         2.4930
  70   0.0000       0.118514         3.2249
  71   0.0000       0.130164         3.5420

MULLIKEN ATOMIC CHARGES
-----------------------
   0 S :    0.114469
   1 C :   -0.126428
   2 C :   -0.106021
   3 C :   -0.020905
   4 C :   -0.125959
   5 H :    0.027304
   6 C :    0.108170
   7 H :    0.019826
   8 H :    0.013362
   9 C :   -0.058002
  10 H :    0.024977
  11 H :    0.015409
  12 C :   -0.028667
  13 H :    0.016420
  14 H :    0.021553
  15 H :    0.025835
  16 S :    0.082649
  17 C :   -0.060370
  18 C :   -0.019229
  19 C :   -0.078585
  20 C :   -0.123075
  21 H :    0.004728
  22 C :    0.052692
  23 H :    0.018459
  24 H :    0.024862
  25 C :   -0.005071
  26 H :    0.035715
  27 H :    0.028166
  28 C :   -0.113670
  29 H :    0.029470
  30 H :    0.049664
  31 H :    0.033243
  32 H :    0.066317
  33 H :    0.052692
Sum of atomic charges:   -0.0000000

LOEWDIN ATOMIC CHARGES
----------------------
   0 S :    0.423318
   1 C :   -0.219042
   2 C :   -0.062728
   3 C :   -0.072970
   4 C :   -0.193263
   5 H :    0.037360
   6 C :   -0.021437
   7 H :    0.030978
   8 H :    0.025004
   9 C :   -0.028757
  10 H :    0.025268
  11 H :    0.017473
  12 C :   -0.066064
  13 H :    0.023739
  14 H :    0.014905
  15 H :    0.028098
  16 S :    0.374925
  17 C :   -0.179784
  18 C :   -0.064720
  19 C :   -0.053531
  20 C :   -0.177431
  21 H :    0.026220
  22 C :   -0.029598
  23 H :    0.029294
  24 H :    0.029679
  25 C :   -0.041519
  26 H :    0.027842
  27 H :    0.024941
  28 C :   -0.076038
  29 H :    0.026046
  30 H :    0.029918
  31 H :    0.027070
  32 H :    0.036155
  33 H :    0.028648

  Mayer bond orders larger than 0.100000
B(  0-S ,  1-C ) :   1.1617 B(  0-S ,  4-C ) :   1.1590 B(  1-C ,  2-C ) :   1.5676
B(  1-C , 32-H ) :   0.9597 B(  2-C ,  3-C ) :   1.2852 B(  2-C ,  6-C ) :   1.0359
B(  3-C ,  4-C ) :   1.5211 B(  3-C ,  5-H ) :   0.9735 B(  4-C , 20-C ) :   1.0845
B(  6-C ,  7-H ) :   0.9323 B(  6-C ,  8-H ) :   0.9464 B(  6-C ,  9-C ) :   1.0575
B(  9-C , 10-H ) :   0.9589 B(  9-C , 11-H ) :   0.9576 B(  9-C , 12-C ) :   1.0762
B( 12-C , 13-H ) :   0.9711 B( 12-C , 14-H ) :   0.9782 B( 12-C , 15-H ) :   0.9758
B( 16-S , 17-C ) :   1.1315 B( 16-S , 20-C ) :   1.1145 B( 17-C , 18-C ) :   1.6484
B( 17-C , 33-H ) :   0.9574 B( 18-C , 19-C ) :   1.2430 B( 18-C , 21-H ) :   0.9900
B( 19-C , 20-C ) :   1.6112 B( 19-C , 22-C ) :   1.0378 B( 22-C , 23-H ) :   0.9277
B( 22-C , 24-H ) :   0.9382 B( 22-C , 25-C ) :   1.0531 B( 25-C , 26-H ) :   0.9551
B( 25-C , 27-H ) :   0.9497 B( 25-C , 28-C ) :   1.0737 B( 28-C , 29-H ) :   0.9723
B( 28-C , 30-H ) :   0.9732 B( 28-C , 31-H ) :   0.9718

Dispersion correction           -0.015038365
FINAL SINGLE POINT ENERGY     -1339.868861932605

DIPOLE MOMENT
-------------
                                X             Y             Z
Electronic contribution:    -20.25875      12.00333      16.85235
Nuclear contribution   :     20.72478     -12.10294     -17.31096
                        -----------------------------------------
Total Dipole Moment    :      0.46603      -0.09961      -0.45861
                        -----------------------------------------
Magnitude (a.u.)       :      0.66138
Magnitude (Debye)      :      1.68110

Rotational constants in cm-1:     0.018568     0.009345     0.007212
Rotational constants in MHz :   556.667693   280.161940   216.224364

                             ****ORCA TERMINATED NORMALLY****
TOTAL RUN TIME: 0 days 0 hours 0 minutes 36 seconds 575 msec
