                         Program Version 4.2.1 -  RELEASE  -
|  1> ! wB97X-D3 SP def2-SVP
|  2> %pal
|  3> nprocs 16
|  4> end
|  5>
|  6> * xyz 0 1
|  7> S 	 -12.2646 	 64.9178 	 50.9063
|  8> C 	 -12.4689 	 63.2736 	 51.3308
|  9> C 	 -11.3101 	 62.6796 	 51.8407
| 10> C 	 -10.2604 	 63.631 	 51.8967
| 11> C 	 -10.6248 	 64.8897 	 51.4449
| 12> H 	 -9.28494 	 63.4185 	 52.3161
| 13> C 	 -11.2952 	 61.1982 	 52.2729
| 14> H 	 -12.0123 	 61.1712 	 53.1468
| 15> H 	 -10.3206 	 60.8697 	 52.6112
| 16> C 	 -11.6782 	 60.1522 	 51.1447
| 17> H 	 -11.6954 	 59.157 	 51.7002
| 18> H 	 -12.6537 	 60.4956 	 50.8627
| 19> C 	 -10.6885 	 60.1691 	 49.9995
| 20> H 	 -9.64605 	 60.3487 	 50.3026
| 21> H 	 -10.6374 	 59.2144 	 49.4726
| 22> H 	 -10.8944 	 60.9735 	 49.2794
| 23> S 	 -10.3248 	 67.3795 	 52.519
| 24> C 	 -8.86431 	 68.281 	 52.2711
| 25> C 	 -8.02184 	 67.6236 	 51.3912
| 26> C 	 -8.4814 	 66.31 	 51.0113
| 27> C 	 -9.81143 	 66.0799 	 51.4309
| 28> H 	 -7.14258 	 68.0895 	 51.1435
| 29> C 	 -7.59824 	 65.3517 	 50.2137
| 30> H 	 -7.34948 	 65.7499 	 49.1919
| 31> H 	 -8.26918 	 64.4695 	 49.8411
| 32> C 	 -6.26598 	 64.8088 	 50.8839
| 33> H 	 -6.42885 	 64.3171 	 51.8622
| 34> H 	 -5.46145 	 65.5556 	 50.965
| 35> C 	 -5.65488 	 63.7664 	 49.9976
| 36> H 	 -4.6071 	 63.6032 	 50.3517
| 37> H 	 -5.73235 	 63.9128 	 48.8923
| 38> H 	 -6.26195 	 62.8605 	 50.0854
| 39> H 	 -13.3044 	 62.6736 	 51.2291
| 40> H 	 -8.83825 	 69.3587 	 52.2272
| 41> *
| 42>
| 43>                          ****END OF INPUT****

CARTESIAN COORDINATES (ANGSTROEM)
---------------------------------
  S    -12.264600   64.917800   50.906300
  C    -12.468900   63.273600   51.330800
  C    -11.310100   62.679600   51.840700
  C    -10.260400   63.631000   51.896700
  C    -10.624800   64.889700   51.444900
  H     -9.284940   63.418500   52.316100
  C    -11.295200   61.198200   52.272900
  H    -12.012300   61.171200   53.146800
  H    -10.320600   60.869700   52.611200
  C    -11.678200   60.152200   51.144700
  H    -11.695400   59.157000   51.700200
  H    -12.653700   60.495600   50.862700
  C    -10.688500   60.169100   49.999500
  H     -9.646050   60.348700   50.302600
  H    -10.637400   59.214400   49.472600
  H    -10.894400   60.973500   49.279400
  S    -10.324800   67.379500   52.519000
  C     -8.864310   68.281000   52.271100
  C     -8.021840   67.623600   51.391200
  C     -8.481400   66.310000   51.011300
  C     -9.811430   66.079900   51.430900
  H     -7.142580   68.089500   51.143500
  C     -7.598240   65.351700   50.213700
  H     -7.349480   65.749900   49.191900
  H     -8.269180   64.469500   49.841100
  C     -6.265980   64.808800   50.883900
  H     -6.428850   64.317100   51.862200
  H     -5.461450   65.555600   50.965000
  C     -5.654880   63.766400   49.997600
  H     -4.607100   63.603200   50.351700
  H     -5.732350   63.912800   48.892300
  H     -6.261950   62.860500   50.085400
  H    -13.304400   62.673600   51.229100
  H     -8.838250   69.358700   52.227200

 Total Charge           Charge          ....    0
 Multiplicity           Mult            ....    1
 Number of Electrons    NEL             ....  134
 Basis Dimension        Dim             ....  322

ORBITAL ENERGIES
----------------

  NO   OCC          E(Eh)            E(eV)
   0   2.0000     -88.972156     -2421.0555
   1   2.0000     -88.961631     -2420.7690
   2   2.0000     -10.329689      -281.0851
   3   2.0000     -10.325384      -280.9680
   4   2.0000     -10.310214      -280.5552
   5   2.0000     -10.309748      -280.5425
   6   2.0000     -10.306897      -280.4649
   7   2.0000     -10.306655      -280.4583
   8   2.0000     -10.301481      -280.3175
   9   2.0000     -10.300205      -280.2828
  10   2.0000     -10.296089      -280.1708
  11   2.0000     -10.295387      -280.1517
  12   2.0000     -10.294050      -280.1153
  13   2.0000     -10.289516      -279.9920
  14   2.0000     -10.281179      -279.7651
  15   2.0000     -10.279938      -279.7313
  16   2.0000      -8.087506      -220.0722
  17   2.0000      -8.076468      -219.7719
  18   2.0000      -6.045772      -164.5138
  19   2.0000      -6.041883      -164.4080
  20   2.0000      -6.038539      -164.3170
  21   2.0000      -6.035027      -164.2214
  22   2.0000      -6.030843      -164.1076
  23   2.0000      -6.027273      -164.0104
  24   2.0000      -1.010025       -27.4842
  25   2.0000      -0.983546       -26.7637
  26   2.0000      -0.909547       -24.7500
  27   2.0000      -0.904291       -24.6070
  28   2.0000      -0.870727       -23.6937
  29   2.0000      -0.854459       -23.2510
  30   2.0000      -0.848811       -23.0973
  31   2.0000      -0.814364       -22.1600
  32   2.0000      -0.781349       -21.2616
  33   2.0000      -0.765068       -20.8186
  34   2.0000      -0.705780       -19.2052
  35   2.0000      -0.701714       -19.0946
  36   2.0000      -0.692884       -18.8543
  37   2.0000      -0.659817       -17.9545
  38   2.0000      -0.640700       -17.4343
  39   2.0000      -0.615339       -16.7442
  40   2.0000      -0.592101       -16.1119
  41   2.0000      -0.580392       -15.7933
  42   2.0000      -0.563034       -15.3209
  43   2.0000      -0.547503       -14.8983
  44   2.0000      -0.546910       -14.8822
  45   2.0000      -0.527140       -14.3442
  46   2.0000      -0.517428       -14.0799
  47   2.0000      -0.513980       -13.9861
  48   2.0000      -0.500975       -13.6322
  49   2.0000      -0.494036       -13.4434
  50   2.0000      -0.492821       -13.4104
  51   2.0000      -0.474621       -12.9151
  52   2.0000      -0.472753       -12.8643
  53   2.0000      -0.460483       -12.5304
  54   2.0000      -0.451864       -12.2959
  55   2.0000      -0.448234       -12.1971
  56   2.0000      -0.444867       -12.1055
  57   2.0000      -0.440536       -11.9876
  58   2.0000      -0.434235       -11.8161
  59   2.0000      -0.425427       -11.5765
  60   2.0000      -0.419989       -11.4285
  61   2.0000      -0.413766       -11.2592
  62   2.0000      -0.412030       -11.2119
  63   2.0000      -0.343463        -9.3461
  64   2.0000      -0.331699        -9.0260
  65   2.0000      -0.326368        -8.8809
  66   2.0000      -0.296985        -8.0814
  67   0.0000       0.026420         0.7189
  68   0.0000       0.065626         1.7858
  69   0.0000       0.112249         3.0544
  70   0.0000       0.121688         3.3113
  71   0.0000       0.126095         3.4312

MULLIKEN ATOMIC CHARGES
-----------------------
   0 S :    0.147379
   1 C :   -0.086191
   2 C :   -0.106771
   3 C :    0.048589
   4 C :   -0.181421
   5 H :    0.005451
   6 C :    0.023227
   7 H :    0.055162
   8 H :    0.015158
   9 C :   -0.067987
  10 H :    0.048735
  11 H :    0.022846
  12 C :   -0.050404
  13 H :    0.021453
  14 H :    0.038632
  15 H :    0.045478
  16 S :    0.091859
  17 C :   -0.075476
  18 C :   -0.029276
  19 C :    0.001781
  20 C :   -0.138512
  21 H :   -0.008077
  22 C :   -0.032767
  23 H :    0.039132
  24 H :    0.038672
  25 C :   -0.049510
  26 H :    0.042024
  27 H :    0.035439
  28 C :   -0.078340
  29 H :    0.046373
  30 H :    0.032786
  31 H :    0.022904
  32 H :    0.012510
  33 H :    0.069139
Sum of atomic charges:   -0.0000000

LOEWDIN ATOMIC CHARGES
----------------------
   0 S :    0.449007
   1 C :   -0.203574
   2 C :   -0.064601
   3 C :   -0.054867
   4 C :   -0.216922
   5 H :    0.031390
   6 C :   -0.033037
   7 H :    0.040187
   8 H :    0.020888
   9 C :   -0.037704
  10 H :    0.034706
  11 H :    0.016469
  12 C :   -0.072631
  13 H :    0.025058
  14 H :    0.028937
  15 H :    0.032931
  16 S :    0.403761
  17 C :   -0.205332
  18 C :   -0.051635
  19 C :   -0.056361
  20 C :   -0.193429
  21 H :    0.016733
  22 C :   -0.049295
  23 H :    0.036338
  24 H :    0.039768
  25 C :   -0.042039
  26 H :    0.029901
  27 H :    0.025293
  28 C :   -0.075393
  29 H :    0.031996
  30 H :    0.027293
  31 H :    0.022336
  32 H :    0.010800
  33 H :    0.033026

  Mayer bond orders larger than 0.100000
B(  0-S ,  1-C ) :   1.1633 B(  0-S ,  4-C ) :   1.1744 B(  1-C ,  2-C ) :   1.5733
B(  1-C ,  4-C ) :   0.1018 B(  1-C , 32-H ) :   0.9741 B(  2-C ,  3-C ) :   1.2912
B(  2-C ,  6-C ) :   1.0027 B(  3-C ,  4-C ) :   1.5290 B(  3-C ,  5-H ) :   1.0003
B(  4-C , 20-C ) :   1.0191 B(  6-C ,  7-H ) :   0.9460 B(  6-C ,  8-H ) :   0.9486
B(  6-C ,  9-C ) :   1.0629 B(  9-C , 10-H ) :   0.9585 B(  9-C , 11-H ) :   0.9603
B(  9-C , 12-C ) :   1.0665 B( 12-C , 13-H ) :   0.9766 B( 12-C , 14-H ) :   0.9751
B( 12-C , 15-H ) :   0.9714 B( 16-S , 17-C ) :   1.1564 B( 16-S , 20-C ) :   1.1534
B( 17-C , 18-C ) :   1.6183 B( 17-C , 20-C ) :   0.1042 B( 17-C , 33-H ) :   0.9501
B( 18-C , 19-C ) :   1.2367 B( 18-C , 21-H ) :   1.0010 B( 19-C , 20-C ) :   1.5760
B( 19-C , 22-C ) :   1.0429 B( 22-C , 23-H ) :   0.9380 B( 22-C , 24-H ) :   0.9430
B( 22-C , 25-C ) :   1.0475 B( 25-C , 26-H ) :   0.9559 B( 25-C , 27-H ) :   0.9579
B( 25-C , 28-C ) :   1.0772 B( 28-C , 29-H ) :   0.9740 B( 28-C , 30-H ) :   0.9711
B( 28-C , 31-H ) :   0.9749

Dispersion correction           -0.014246344
FINAL SINGLE POINT ENERGY     -1339.866564720592

DIPOLE MOMENT
-------------
                                X             Y             Z
Electronic contribution:    -16.55073      24.35218       7.61802
Nuclear contribution   :     16.96150     -24.88999      -7.83126
                        -----------------------------------------
Total Dipole Moment    :      0.41078      -0.53781      -0.21324
                        -----------------------------------------
Magnitude (a.u.)       :      0.70954
Magnitude (Debye)      :      1.80350

Rotational constants in cm-1:     0.017466     0.009331     0.006586
Rotational constants in MHz :   523.628469   279.733783   197.453705

                             ****ORCA TERMINATED NORMALLY****
TOTAL RUN TIME: 0 days 0 hours 0 minutes 34 seconds 875 msec
