                         Program Version 4.2.1 -  RELEASE  -
|  1> ! wB97X-D3 SP def2-SVP
|  2> %pal
|  3> nprocs 16
|  4> end
|  5>
|  6> * xyz 0 1
|  7> S 	 0.231453 	 76.1869 	 47.8571
|  8> C 	 -0.561048 	 74.8997 	 48.7266
|  9> C 	 -0.866946 	 73.8081 	 47.9588
| 10> C 	 -0.42514 	 74.0289 	 46.6085
| 11> C 	 0.305948 	 75.2235 	 46.4475
| 12> H 	 -0.487113 	 73.3149 	 45.7874
| 13> C 	 -1.52491 	 72.5008 	 48.3518
| 14> H 	 -0.783163 	 71.8069 	 48.2125
| 15> H 	 -2.356 	 72.1301 	 47.6818
| 16> C 	 -1.87332 	 72.2297 	 49.7662
| 17> H 	 -2.05741 	 71.1669 	 49.8093
| 18> H 	 -1.03953 	 72.4577 	 50.4285
| 19> C 	 -2.92998 	 73.0684 	 50.352
| 20> H 	 -3.01481 	 72.654 	 51.338
| 21> H 	 -2.87185 	 74.1808 	 50.5123
| 22> H 	 -3.81776 	 72.9454 	 49.7798
| 23> S 	 0.491655 	 75.828 	 43.8938
| 24> C 	 2.02761 	 76.1121 	 43.1506
| 25> C 	 3.01246 	 76.0218 	 44.0771
| 26> C 	 2.57918 	 75.8073 	 45.3785
| 27> C 	 1.23812 	 75.5187 	 45.4102
| 28> H 	 4.00295 	 76.1796 	 43.6951
| 29> C 	 3.53539 	 75.7894 	 46.5789
| 30> H 	 4.58701 	 75.6135 	 46.2325
| 31> H 	 3.1536 	 74.9507 	 47.1419
| 32> C 	 3.55558 	 77.0895 	 47.3694
| 33> H 	 3.74663 	 76.6926 	 48.3252
| 34> H 	 2.536 	 77.394 	 47.5561
| 35> C 	 4.52979 	 78.1778 	 46.7474
| 36> H 	 5.40288 	 77.5727 	 46.5534
| 37> H 	 4.86973 	 78.8908 	 47.5448
| 38> H 	 4.17032 	 78.6587 	 45.8884
| 39> H 	 -0.733392 	 75.0078 	 49.793
| 40> H 	 2.25025 	 76.2221 	 42.0869
| 41> *
| 42>
| 43>                          ****END OF INPUT****

CARTESIAN COORDINATES (ANGSTROEM)
---------------------------------
  S      0.231453   76.186900   47.857100
  C     -0.561048   74.899700   48.726600
  C     -0.866946   73.808100   47.958800
  C     -0.425140   74.028900   46.608500
  C      0.305948   75.223500   46.447500
  H     -0.487113   73.314900   45.787400
  C     -1.524910   72.500800   48.351800
  H     -0.783163   71.806900   48.212500
  H     -2.356000   72.130100   47.681800
  C     -1.873320   72.229700   49.766200
  H     -2.057410   71.166900   49.809300
  H     -1.039530   72.457700   50.428500
  C     -2.929980   73.068400   50.352000
  H     -3.014810   72.654000   51.338000
  H     -2.871850   74.180800   50.512300
  H     -3.817760   72.945400   49.779800
  S      0.491655   75.828000   43.893800
  C      2.027610   76.112100   43.150600
  C      3.012460   76.021800   44.077100
  C      2.579180   75.807300   45.378500
  C      1.238120   75.518700   45.410200
  H      4.002950   76.179600   43.695100
  C      3.535390   75.789400   46.578900
  H      4.587010   75.613500   46.232500
  H      3.153600   74.950700   47.141900
  C      3.555580   77.089500   47.369400
  H      3.746630   76.692600   48.325200
  H      2.536000   77.394000   47.556100
  C      4.529790   78.177800   46.747400
  H      5.402880   77.572700   46.553400
  H      4.869730   78.890800   47.544800
  H      4.170320   78.658700   45.888400
  H     -0.733392   75.007800   49.793000
  H      2.250250   76.222100   42.086900

 Total Charge           Charge          ....    0
 Multiplicity           Mult            ....    1
 Number of Electrons    NEL             ....  134
 Basis Dimension        Dim             ....  322

ORBITAL ENERGIES
----------------

  NO   OCC          E(Eh)            E(eV)
   0   2.0000     -88.966386     -2420.8984
   1   2.0000     -88.959475     -2420.7104
   2   2.0000     -10.323407      -280.9142
   3   2.0000     -10.314857      -280.6815
   4   2.0000     -10.312150      -280.6079
   5   2.0000     -10.306228      -280.4467
   6   2.0000     -10.304180      -280.3910
   7   2.0000     -10.296659      -280.1863
   8   2.0000     -10.293227      -280.0929
   9   2.0000     -10.287989      -279.9504
  10   2.0000     -10.286455      -279.9087
  11   2.0000     -10.280441      -279.7450
  12   2.0000     -10.280217      -279.7389
  13   2.0000     -10.280052      -279.7344
  14   2.0000     -10.276156      -279.6284
  15   2.0000     -10.270145      -279.4649
  16   2.0000      -8.081700      -219.9142
  17   2.0000      -8.075231      -219.7382
  18   2.0000      -6.040060      -164.3584
  19   2.0000      -6.036112      -164.2510
  20   2.0000      -6.033629      -164.1834
  21   2.0000      -6.032596      -164.1553
  22   2.0000      -6.029536      -164.0720
  23   2.0000      -6.026116      -163.9789
  24   2.0000      -1.015822       -27.6419
  25   2.0000      -0.990394       -26.9500
  26   2.0000      -0.928380       -25.2625
  27   2.0000      -0.906528       -24.6679
  28   2.0000      -0.876086       -23.8395
  29   2.0000      -0.855379       -23.2761
  30   2.0000      -0.843363       -22.9491
  31   2.0000      -0.810586       -22.0572
  32   2.0000      -0.794720       -21.6254
  33   2.0000      -0.776924       -21.1412
  34   2.0000      -0.709176       -19.2977
  35   2.0000      -0.701524       -19.0894
  36   2.0000      -0.692922       -18.8554
  37   2.0000      -0.661942       -18.0124
  38   2.0000      -0.642669       -17.4879
  39   2.0000      -0.610411       -16.6101
  40   2.0000      -0.592969       -16.1355
  41   2.0000      -0.582345       -15.8464
  42   2.0000      -0.562822       -15.3152
  43   2.0000      -0.555354       -15.1119
  44   2.0000      -0.542035       -14.7495
  45   2.0000      -0.537622       -14.6294
  46   2.0000      -0.521741       -14.1973
  47   2.0000      -0.512964       -13.9585
  48   2.0000      -0.506403       -13.7799
  49   2.0000      -0.491194       -13.3661
  50   2.0000      -0.490640       -13.3510
  51   2.0000      -0.485983       -13.2243
  52   2.0000      -0.480290       -13.0693
  53   2.0000      -0.470830       -12.8119
  54   2.0000      -0.459339       -12.4992
  55   2.0000      -0.450864       -12.2686
  56   2.0000      -0.438542       -11.9333
  57   2.0000      -0.437732       -11.9113
  58   2.0000      -0.428427       -11.6581
  59   2.0000      -0.426072       -11.5940
  60   2.0000      -0.421472       -11.4688
  61   2.0000      -0.406692       -11.0666
  62   2.0000      -0.402223       -10.9450
  63   2.0000      -0.339662        -9.2427
  64   2.0000      -0.333334        -9.0705
  65   2.0000      -0.324591        -8.8326
  66   2.0000      -0.293814        -7.9951
  67   0.0000       0.033958         0.9241
  68   0.0000       0.077254         2.1022
  69   0.0000       0.112642         3.0651
  70   0.0000       0.123162         3.3514
  71   0.0000       0.136805         3.7227

MULLIKEN ATOMIC CHARGES
-----------------------
   0 S :    0.118848
   1 C :   -0.153579
   2 C :   -0.056008
   3 C :    0.027219
   4 C :   -0.159263
   5 H :    0.015007
   6 C :    0.098831
   7 H :    0.009771
   8 H :    0.043274
   9 C :   -0.072951
  10 H :    0.028940
  11 H :    0.015618
  12 C :   -0.046873
  13 H :    0.025552
  14 H :    0.044039
  15 H :    0.014624
  16 S :    0.112096
  17 C :   -0.091641
  18 C :   -0.054577
  19 C :   -0.009095
  20 C :   -0.181635
  21 H :    0.003534
  22 C :    0.028958
  23 H :    0.023913
  24 H :    0.033260
  25 C :   -0.021302
  26 H :    0.004682
  27 H :    0.011654
  28 C :   -0.016947
  29 H :    0.015183
  30 H :    0.044497
  31 H :    0.045240
  32 H :    0.046196
  33 H :    0.052938
Sum of atomic charges:    0.0000000

LOEWDIN ATOMIC CHARGES
----------------------
   0 S :    0.444328
   1 C :   -0.202631
   2 C :   -0.057255
   3 C :   -0.053369
   4 C :   -0.217533
   5 H :    0.030626
   6 C :   -0.035722
   7 H :    0.027838
   8 H :    0.041603
   9 C :   -0.044848
  10 H :    0.031575
  11 H :    0.024972
  12 C :   -0.070136
  13 H :    0.026922
  14 H :    0.032670
  15 H :    0.017234
  16 S :    0.430087
  17 C :   -0.198375
  18 C :   -0.077342
  19 C :   -0.061335
  20 C :   -0.212843
  21 H :    0.028896
  22 C :   -0.027622
  23 H :    0.030757
  24 H :    0.030937
  25 C :   -0.044651
  26 H :    0.021316
  27 H :    0.004412
  28 C :   -0.055542
  29 H :    0.022710
  30 H :    0.035743
  31 H :    0.021623
  32 H :    0.022466
  33 H :    0.032488

  Mayer bond orders larger than 0.100000
B(  0-S ,  1-C ) :   1.1384 B(  0-S ,  4-C ) :   1.1645 B(  1-C ,  2-C ) :   1.6189
B(  1-C , 32-H ) :   0.9612 B(  2-C ,  3-C ) :   1.2521 B(  2-C ,  6-C ) :   0.9990
B(  3-C ,  4-C ) :   1.5598 B(  3-C ,  5-H ) :   0.9922 B(  4-C , 20-C ) :   1.0113
B(  6-C ,  7-H ) :   0.9225 B(  6-C ,  8-H ) :   0.9336 B(  6-C ,  9-C ) :   1.1122
B(  9-C , 10-H ) :   0.9457 B(  9-C , 11-H ) :   0.9462 B(  9-C , 12-C ) :   1.0779
B( 12-C , 13-H ) :   0.9723 B( 12-C , 14-H ) :   0.9728 B( 12-C , 15-H ) :   0.9708
B( 16-S , 17-C ) :   1.1551 B( 16-S , 20-C ) :   1.1679 B( 17-C , 18-C ) :   1.6152
B( 17-C , 20-C ) :   0.1039 B( 17-C , 33-H ) :   0.9634 B( 18-C , 19-C ) :   1.2455
B( 18-C , 21-H ) :   0.9969 B( 19-C , 20-C ) :   1.5830 B( 19-C , 22-C ) :   1.0257
B( 22-C , 23-H ) :   0.9426 B( 22-C , 24-H ) :   0.9327 B( 22-C , 25-C ) :   1.0750
B( 25-C , 26-H ) :   0.9508 B( 25-C , 27-H ) :   0.9452 B( 25-C , 28-C ) :   1.0437
B( 28-C , 29-H ) :   0.9765 B( 28-C , 30-H ) :   0.9759 B( 28-C , 31-H ) :   0.9795

Dispersion correction           -0.014768433
FINAL SINGLE POINT ENERGY     -1339.849211025915

DIPOLE MOMENT
-------------
                                X             Y             Z
Electronic contribution:     -3.28888       6.05468     -16.23376
Nuclear contribution   :      3.53157      -6.50298      16.54450
                        -----------------------------------------
Total Dipole Moment    :      0.24269      -0.44830       0.31075
                        -----------------------------------------
Magnitude (a.u.)       :      0.59703
Magnitude (Debye)      :      1.51752

Rotational constants in cm-1:     0.024975     0.007744     0.006482
Rotational constants in MHz :   748.718887   232.162760   194.326804

                             ****ORCA TERMINATED NORMALLY****
TOTAL RUN TIME: 0 days 0 hours 0 minutes 34 seconds 595 msec
