                         Program Version 4.2.1 -  RELEASE  -
|  1> ! wB97X-D3 SP def2-SVP
|  2> %pal
|  3> nprocs 16
|  4> end
|  5>
|  6> * xyz 0 1
|  7> S 	 22.944 	 7.53559 	 65.5446
|  8> C 	 23.4634 	 8.44349 	 64.2022
|  9> C 	 23.7352 	 9.72313 	 64.5382
| 10> C 	 23.4842 	 9.94613 	 65.9285
| 11> C 	 22.9832 	 8.93457 	 66.6641
| 12> H 	 23.6508 	 10.8206 	 66.4647
| 13> C 	 24.1668 	 10.9319 	 63.6482
| 14> H 	 24.9982 	 10.5853 	 63.0666
| 15> H 	 24.4545 	 11.672 	 64.3523
| 16> C 	 22.9399 	 11.5059 	 62.9313
| 17> H 	 22.4639 	 12.1856 	 63.639
| 18> H 	 23.1167 	 12.2264 	 62.1617
| 19> C 	 21.8816 	 10.5228 	 62.4389
| 20> H 	 21.0934 	 11.0774 	 61.8844
| 21> H 	 22.3943 	 9.92492 	 61.7143
| 22> H 	 21.4972 	 9.9892 	 63.3382
| 23> S 	 21.1877 	 8.59682 	 68.7208
| 24> C 	 21.8961 	 8.17062 	 70.2596
| 25> C 	 23.2165 	 8.42865 	 70.3866
| 26> C 	 23.7743 	 8.8496 	 69.1196
| 27> C 	 22.8375 	 8.7836 	 68.1027
| 28> H 	 23.6278 	 8.29654 	 71.3217
| 29> C 	 25.29 	 9.14059 	 68.9424
| 30> H 	 25.3543 	 10.2437 	 68.9707
| 31> H 	 25.5261 	 8.75998 	 67.9377
| 32> C 	 26.3147 	 8.36015 	 69.8181
| 33> H 	 26.5698 	 7.33417 	 69.6051
| 34> H 	 25.9525 	 8.44178 	 70.8439
| 35> C 	 27.6685 	 8.98919 	 69.6309
| 36> H 	 28.1274 	 8.69384 	 68.5566
| 37> H 	 28.425 	 8.66333 	 70.3591
| 38> H 	 27.6542 	 10.0802 	 69.674
| 39> H 	 23.6632 	 8.05197 	 63.2822
| 40> H 	 21.2518 	 8.05732 	 71.1351
| 41> *
| 42>
| 43>                          ****END OF INPUT****

CARTESIAN COORDINATES (ANGSTROEM)
---------------------------------
  S     22.944000    7.535590   65.544600
  C     23.463400    8.443490   64.202200
  C     23.735200    9.723130   64.538200
  C     23.484200    9.946130   65.928500
  C     22.983200    8.934570   66.664100
  H     23.650800   10.820600   66.464700
  C     24.166800   10.931900   63.648200
  H     24.998200   10.585300   63.066600
  H     24.454500   11.672000   64.352300
  C     22.939900   11.505900   62.931300
  H     22.463900   12.185600   63.639000
  H     23.116700   12.226400   62.161700
  C     21.881600   10.522800   62.438900
  H     21.093400   11.077400   61.884400
  H     22.394300    9.924920   61.714300
  H     21.497200    9.989200   63.338200
  S     21.187700    8.596820   68.720800
  C     21.896100    8.170620   70.259600
  C     23.216500    8.428650   70.386600
  C     23.774300    8.849600   69.119600
  C     22.837500    8.783600   68.102700
  H     23.627800    8.296540   71.321700
  C     25.290000    9.140590   68.942400
  H     25.354300   10.243700   68.970700
  H     25.526100    8.759980   67.937700
  C     26.314700    8.360150   69.818100
  H     26.569800    7.334170   69.605100
  H     25.952500    8.441780   70.843900
  C     27.668500    8.989190   69.630900
  H     28.127400    8.693840   68.556600
  H     28.425000    8.663330   70.359100
  H     27.654200   10.080200   69.674000
  H     23.663200    8.051970   63.282200
  H     21.251800    8.057320   71.135100

 Total Charge           Charge          ....    0
 Multiplicity           Mult            ....    1
 Number of Electrons    NEL             ....  134
 Basis Dimension        Dim             ....  322

ORBITAL ENERGIES
----------------

  NO   OCC          E(Eh)            E(eV)
   0   2.0000     -88.963055     -2420.8078
   1   2.0000     -88.957620     -2420.6599
   2   2.0000     -10.326194      -280.9900
   3   2.0000     -10.322942      -280.9015
   4   2.0000     -10.313176      -280.6358
   5   2.0000     -10.310455      -280.5618
   6   2.0000     -10.303233      -280.3652
   7   2.0000     -10.299220      -280.2560
   8   2.0000     -10.294888      -280.1382
   9   2.0000     -10.291258      -280.0394
  10   2.0000     -10.289103      -279.9807
  11   2.0000     -10.288502      -279.9644
  12   2.0000     -10.288454      -279.9631
  13   2.0000     -10.283620      -279.8315
  14   2.0000     -10.279083      -279.7081
  15   2.0000     -10.273796      -279.5642
  16   2.0000      -8.077994      -219.8134
  17   2.0000      -8.073009      -219.6777
  18   2.0000      -6.036357      -164.2576
  19   2.0000      -6.032815      -164.1612
  20   2.0000      -6.031527      -164.1262
  21   2.0000      -6.028560      -164.0454
  22   2.0000      -6.027339      -164.0122
  23   2.0000      -6.023771      -163.9151
  24   2.0000      -1.008022       -27.4297
  25   2.0000      -0.987934       -26.8831
  26   2.0000      -0.910662       -24.7804
  27   2.0000      -0.908771       -24.7289
  28   2.0000      -0.874749       -23.8031
  29   2.0000      -0.851650       -23.1746
  30   2.0000      -0.843071       -22.9411
  31   2.0000      -0.819533       -22.3006
  32   2.0000      -0.784208       -21.3394
  33   2.0000      -0.770220       -20.9587
  34   2.0000      -0.706930       -19.2365
  35   2.0000      -0.696668       -18.9573
  36   2.0000      -0.693307       -18.8658
  37   2.0000      -0.657369       -17.8879
  38   2.0000      -0.652966       -17.7681
  39   2.0000      -0.618504       -16.8304
  40   2.0000      -0.594585       -16.1795
  41   2.0000      -0.572890       -15.5891
  42   2.0000      -0.569027       -15.4840
  43   2.0000      -0.555870       -15.1260
  44   2.0000      -0.548827       -14.9343
  45   2.0000      -0.526525       -14.3275
  46   2.0000      -0.519186       -14.1278
  47   2.0000      -0.515161       -14.0182
  48   2.0000      -0.511721       -13.9246
  49   2.0000      -0.497572       -13.5396
  50   2.0000      -0.483059       -13.1447
  51   2.0000      -0.479030       -13.0351
  52   2.0000      -0.465614       -12.6700
  53   2.0000      -0.460788       -12.5387
  54   2.0000      -0.458066       -12.4646
  55   2.0000      -0.454488       -12.3672
  56   2.0000      -0.439630       -11.9630
  57   2.0000      -0.438684       -11.9372
  58   2.0000      -0.430738       -11.7210
  59   2.0000      -0.423106       -11.5133
  60   2.0000      -0.413317       -11.2469
  61   2.0000      -0.406203       -11.0533
  62   2.0000      -0.405375       -11.0308
  63   2.0000      -0.339786        -9.2460
  64   2.0000      -0.332219        -9.0401
  65   2.0000      -0.327879        -8.9220
  66   2.0000      -0.303830        -8.2676
  67   0.0000       0.039371         1.0713
  68   0.0000       0.062538         1.7018
  69   0.0000       0.108626         2.9559
  70   0.0000       0.126022         3.4292
  71   0.0000       0.135827         3.6960

MULLIKEN ATOMIC CHARGES
-----------------------
   0 S :    0.098690
   1 C :   -0.080556
   2 C :   -0.144424
   3 C :    0.043062
   4 C :   -0.144106
   5 H :   -0.022745
   6 C :    0.157504
   7 H :    0.032289
   8 H :    0.011202
   9 C :   -0.093059
  10 H :    0.013092
  11 H :    0.016605
  12 C :   -0.050290
  13 H :    0.035572
  14 H :    0.021158
  15 H :    0.075187
  16 S :    0.104448
  17 C :   -0.079688
  18 C :   -0.024163
  19 C :    0.007423
  20 C :   -0.199502
  21 H :   -0.008272
  22 C :    0.033717
  23 H :    0.052784
  24 H :    0.044627
  25 C :   -0.047191
  26 H :    0.044906
  27 H :    0.029628
  28 C :   -0.104692
  29 H :    0.044476
  30 H :    0.039612
  31 H :    0.027384
  32 H :    0.009634
  33 H :    0.055688
Sum of atomic charges:   -0.0000000

LOEWDIN ATOMIC CHARGES
----------------------
   0 S :    0.402338
   1 C :   -0.183677
   2 C :   -0.069651
   3 C :   -0.057108
   4 C :   -0.191884
   5 H :    0.018617
   6 C :   -0.016568
   7 H :    0.026299
   8 H :    0.029162
   9 C :   -0.049136
  10 H :    0.022901
  11 H :    0.019299
  12 C :   -0.064861
  13 H :    0.029893
  14 H :    0.017576
  15 H :    0.036019
  16 S :    0.391607
  17 C :   -0.173740
  18 C :   -0.067644
  19 C :   -0.040793
  20 C :   -0.199479
  21 H :    0.021104
  22 C :   -0.032126
  23 H :    0.039192
  24 H :    0.038710
  25 C :   -0.044134
  26 H :    0.032633
  27 H :    0.019433
  28 C :   -0.073152
  29 H :    0.036973
  30 H :    0.025740
  31 H :    0.017998
  32 H :    0.011187
  33 H :    0.027268

  Mayer bond orders larger than 0.100000
B(  0-S ,  1-C ) :   1.1604 B(  0-S ,  4-C ) :   1.1228 B(  1-C ,  2-C ) :   1.6078
B(  1-C , 32-H ) :   0.9814 B(  2-C ,  3-C ) :   1.2292 B(  2-C ,  6-C ) :   1.0053
B(  3-C ,  4-C ) :   1.6185 B(  3-C ,  5-H ) :   1.0104 B(  4-C , 20-C ) :   1.0212
B(  6-C ,  7-H ) :   0.9423 B(  6-C ,  8-H ) :   0.9399 B(  6-C ,  9-C ) :   1.0546
B(  9-C , 10-H ) :   0.9522 B(  9-C , 11-H ) :   0.9559 B(  9-C , 12-C ) :   1.0977
B( 12-C , 13-H ) :   0.9696 B( 12-C , 14-H ) :   0.9772 B( 12-C , 15-H ) :   0.9628
B( 16-S , 17-C ) :   1.1452 B( 16-S , 20-C ) :   1.1344 B( 17-C , 18-C ) :   1.6591
B( 17-C , 33-H ) :   0.9574 B( 18-C , 19-C ) :   1.1882 B( 18-C , 21-H ) :   1.0053
B( 19-C , 20-C ) :   1.6361 B( 19-C , 22-C ) :   1.0167 B( 22-C , 23-H ) :   0.9385
B( 22-C , 24-H ) :   0.9406 B( 22-C , 25-C ) :   1.0596 B( 25-C , 26-H ) :   0.9588
B( 25-C , 27-H ) :   0.9514 B( 25-C , 28-C ) :   1.0776 B( 28-C , 29-H ) :   0.9738
B( 28-C , 30-H ) :   0.9722 B( 28-C , 31-H ) :   0.9758

Dispersion correction           -0.014360235
FINAL SINGLE POINT ENERGY     -1339.847096551606

DIPOLE MOMENT
-------------
                                X             Y             Z
Electronic contribution:    -16.59472     -11.22043       6.28779
Nuclear contribution   :     17.14969      11.66603      -6.15454
                        -----------------------------------------
Total Dipole Moment    :      0.55498       0.44561       0.13325
                        -----------------------------------------
Magnitude (a.u.)       :      0.72410
Magnitude (Debye)      :      1.84051

Rotational constants in cm-1:     0.019433     0.008217     0.006636
Rotational constants in MHz :   582.573184   246.330678   198.932844

                             ****ORCA TERMINATED NORMALLY****
TOTAL RUN TIME: 0 days 0 hours 0 minutes 30 seconds 400 msec
