                         Program Version 4.2.1 -  RELEASE  -
|  1> ! wB97X-D3 SP def2-SVP
|  2> %pal
|  3> nprocs 16
|  4> end
|  5>
|  6> * xyz 0 1
|  7> S 	 -2.77768 	 -17.1874 	 89.7115
|  8> C 	 -4.30057 	 -16.9455 	 90.5345
|  9> C 	 -5.03434 	 -15.9657 	 89.8456
| 10> C 	 -4.4228 	 -15.4645 	 88.6905
| 11> C 	 -3.19345 	 -16.0256 	 88.4239
| 12> H 	 -4.89947 	 -14.8275 	 88.0096
| 13> C 	 -6.47753 	 -15.4773 	 90.2956
| 14> H 	 -6.49983 	 -15.3574 	 91.3641
| 15> H 	 -7.30785 	 -16.1655 	 90.0309
| 16> C 	 -7.01852 	 -14.1081 	 89.7941
| 17> H 	 -6.39982 	 -13.3965 	 90.3087
| 18> H 	 -6.92112 	 -13.9309 	 88.7302
| 19> C 	 -8.46436 	 -13.9243 	 90.237
| 20> H 	 -8.70764 	 -12.927 	 90.4861
| 21> H 	 -9.18819 	 -14.1013 	 89.4414
| 22> H 	 -8.84702 	 -14.5298 	 91.096
| 23> S 	 -0.702069 	 -15.4634 	 87.3705
| 24> C 	 -0.398457 	 -15.6177 	 85.643
| 25> C 	 -1.49079 	 -16.1872 	 84.9278
| 26> C 	 -2.653 	 -16.2923 	 85.8484
| 27> C 	 -2.39853 	 -15.8965 	 87.1791
| 28> H 	 -1.48608 	 -16.4902 	 83.8928
| 29> C 	 -3.93647 	 -16.8724 	 85.2877
| 30> H 	 -4.31886 	 -17.5737 	 86.057
| 31> H 	 -3.65441 	 -17.589 	 84.4743
| 32> C 	 -5.0696 	 -16.0121 	 84.8538
| 33> H 	 -5.25293 	 -15.3939 	 85.6674
| 34> H 	 -5.88453 	 -16.6634 	 84.5987
| 35> C 	 -4.68913 	 -15.0303 	 83.7644
| 36> H 	 -5.50731 	 -14.3755 	 83.5807
| 37> H 	 -4.32703 	 -15.5014 	 82.8758
| 38> H 	 -3.9759 	 -14.3049 	 84.1849
| 39> H 	 -4.65874 	 -17.4191 	 91.416
| 40> H 	 0.486651 	 -15.4039 	 85.1367
| 41> *
| 42>
| 43>                          ****END OF INPUT****

CARTESIAN COORDINATES (ANGSTROEM)
---------------------------------
  S     -2.777680  -17.187400   89.711500
  C     -4.300570  -16.945500   90.534500
  C     -5.034340  -15.965700   89.845600
  C     -4.422800  -15.464500   88.690500
  C     -3.193450  -16.025600   88.423900
  H     -4.899470  -14.827500   88.009600
  C     -6.477530  -15.477300   90.295600
  H     -6.499830  -15.357400   91.364100
  H     -7.307850  -16.165500   90.030900
  C     -7.018520  -14.108100   89.794100
  H     -6.399820  -13.396500   90.308700
  H     -6.921120  -13.930900   88.730200
  C     -8.464360  -13.924300   90.237000
  H     -8.707640  -12.927000   90.486100
  H     -9.188190  -14.101300   89.441400
  H     -8.847020  -14.529800   91.096000
  S     -0.702069  -15.463400   87.370500
  C     -0.398457  -15.617700   85.643000
  C     -1.490790  -16.187200   84.927800
  C     -2.653000  -16.292300   85.848400
  C     -2.398530  -15.896500   87.179100
  H     -1.486080  -16.490200   83.892800
  C     -3.936470  -16.872400   85.287700
  H     -4.318860  -17.573700   86.057000
  H     -3.654410  -17.589000   84.474300
  C     -5.069600  -16.012100   84.853800
  H     -5.252930  -15.393900   85.667400
  H     -5.884530  -16.663400   84.598700
  C     -4.689130  -15.030300   83.764400
  H     -5.507310  -14.375500   83.580700
  H     -4.327030  -15.501400   82.875800
  H     -3.975900  -14.304900   84.184900
  H     -4.658740  -17.419100   91.416000
  H      0.486651  -15.403900   85.136700

 Total Charge           Charge          ....    0
 Multiplicity           Mult            ....    1
 Number of Electrons    NEL             ....  134
 Basis Dimension        Dim             ....  322

ORBITAL ENERGIES
----------------

  NO   OCC          E(Eh)            E(eV)
   0   2.0000     -88.970182     -2421.0017
   1   2.0000     -88.968780     -2420.9636
   2   2.0000     -10.334745      -281.2227
   3   2.0000     -10.332986      -281.1748
   4   2.0000     -10.321535      -280.8632
   5   2.0000     -10.317069      -280.7417
   6   2.0000     -10.312719      -280.6233
   7   2.0000     -10.305113      -280.4164
   8   2.0000     -10.304204      -280.3916
   9   2.0000     -10.296573      -280.1840
  10   2.0000     -10.290359      -280.0149
  11   2.0000     -10.287430      -279.9352
  12   2.0000     -10.287169      -279.9281
  13   2.0000     -10.277830      -279.6740
  14   2.0000     -10.274840      -279.5926
  15   2.0000     -10.268779      -279.4277
  16   2.0000      -8.084032      -219.9777
  17   2.0000      -8.082922      -219.9475
  18   2.0000      -6.042568      -164.4266
  19   2.0000      -6.041555      -164.3991
  20   2.0000      -6.038553      -164.3174
  21   2.0000      -6.037453      -164.2874
  22   2.0000      -6.034899      -164.2180
  23   2.0000      -6.033649      -164.1839
  24   2.0000      -1.000364       -27.2213
  25   2.0000      -0.976996       -26.5854
  26   2.0000      -0.916662       -24.9436
  27   2.0000      -0.906854       -24.6767
  28   2.0000      -0.865746       -23.5582
  29   2.0000      -0.850359       -23.1394
  30   2.0000      -0.845639       -23.0110
  31   2.0000      -0.814281       -22.1577
  32   2.0000      -0.782782       -21.3006
  33   2.0000      -0.772163       -21.0116
  34   2.0000      -0.712150       -19.3786
  35   2.0000      -0.698509       -19.0074
  36   2.0000      -0.686308       -18.6754
  37   2.0000      -0.665849       -18.1187
  38   2.0000      -0.645138       -17.5551
  39   2.0000      -0.624865       -17.0034
  40   2.0000      -0.595091       -16.1933
  41   2.0000      -0.569581       -15.4991
  42   2.0000      -0.567513       -15.4428
  43   2.0000      -0.556675       -15.1479
  44   2.0000      -0.548769       -14.9328
  45   2.0000      -0.524533       -14.2733
  46   2.0000      -0.515477       -14.0268
  47   2.0000      -0.511067       -13.9069
  48   2.0000      -0.499445       -13.5906
  49   2.0000      -0.497034       -13.5250
  50   2.0000      -0.485964       -13.2238
  51   2.0000      -0.481045       -13.0899
  52   2.0000      -0.476490       -12.9660
  53   2.0000      -0.468261       -12.7420
  54   2.0000      -0.460837       -12.5400
  55   2.0000      -0.450283       -12.2528
  56   2.0000      -0.446160       -12.1406
  57   2.0000      -0.433515       -11.7965
  58   2.0000      -0.432039       -11.7564
  59   2.0000      -0.422623       -11.5001
  60   2.0000      -0.418718       -11.3939
  61   2.0000      -0.413232       -11.2446
  62   2.0000      -0.408413       -11.1135
  63   2.0000      -0.343218        -9.3394
  64   2.0000      -0.333725        -9.0811
  65   2.0000      -0.327876        -8.9220
  66   2.0000      -0.295436        -8.0392
  67   0.0000       0.031280         0.8512
  68   0.0000       0.054912         1.4942
  69   0.0000       0.104354         2.8396
  70   0.0000       0.121415         3.3039
  71   0.0000       0.128329         3.4920

MULLIKEN ATOMIC CHARGES
-----------------------
   0 S :    0.120876
   1 C :   -0.104901
   2 C :   -0.072958
   3 C :    0.053409
   4 C :   -0.127983
   5 H :   -0.011465
   6 C :    0.015402
   7 H :    0.028849
   8 H :    0.047135
   9 C :   -0.066686
  10 H :    0.029249
  11 H :    0.036102
  12 C :   -0.055584
  13 H :    0.017032
  14 H :    0.026994
  15 H :    0.035030
  16 S :    0.107882
  17 C :   -0.065800
  18 C :   -0.029414
  19 C :   -0.056376
  20 C :   -0.173860
  21 H :    0.029062
  22 C :    0.010805
  23 H :    0.033751
  24 H :    0.019509
  25 C :    0.017427
  26 H :   -0.008665
  27 H :    0.031515
  28 C :   -0.041387
  29 H :    0.018744
  30 H :    0.026550
  31 H :    0.033070
  32 H :    0.038019
  33 H :    0.038665
Sum of atomic charges:   -0.0000000

LOEWDIN ATOMIC CHARGES
----------------------
   0 S :    0.404764
   1 C :   -0.192991
   2 C :   -0.063073
   3 C :   -0.058489
   4 C :   -0.185558
   5 H :    0.022173
   6 C :   -0.032485
   7 H :    0.026971
   8 H :    0.032046
   9 C :   -0.040550
  10 H :    0.022662
  11 H :    0.021136
  12 C :   -0.071376
  13 H :    0.021800
  14 H :    0.027658
  15 H :    0.031290
  16 S :    0.404280
  17 C :   -0.171667
  18 C :   -0.063085
  19 C :   -0.045489
  20 C :   -0.207514
  21 H :    0.032475
  22 C :   -0.043426
  23 H :    0.035937
  24 H :    0.030300
  25 C :   -0.032708
  26 H :    0.015063
  27 H :    0.026309
  28 C :   -0.061135
  29 H :    0.022085
  30 H :    0.017556
  31 H :    0.032027
  32 H :    0.026499
  33 H :    0.016515

  Mayer bond orders larger than 0.100000
B(  0-S ,  1-C ) :   1.1468 B(  0-S ,  4-C ) :   1.1540 B(  1-C ,  2-C ) :   1.5913
B(  1-C ,  4-C ) :   0.1058 B(  1-C , 32-H ) :   0.9774 B(  2-C ,  3-C ) :   1.2789
B(  2-C ,  6-C ) :   0.9875 B(  3-C ,  4-C ) :   1.5527 B(  3-C ,  5-H ) :   1.0039
B(  4-C , 20-C ) :   1.0264 B(  6-C ,  7-H ) :   0.9510 B(  6-C ,  8-H ) :   0.9519
B(  6-C ,  9-C ) :   1.0695 B(  9-C , 10-H ) :   0.9641 B(  9-C , 11-H ) :   0.9525
B(  9-C , 12-C ) :   1.0725 B( 12-C , 13-H ) :   0.9717 B( 12-C , 14-H ) :   0.9734
B( 12-C , 15-H ) :   0.9761 B( 16-S , 17-C ) :   1.1652 B( 16-S , 20-C ) :   1.1256
B( 17-C , 18-C ) :   1.5972 B( 17-C , 33-H ) :   0.9738 B( 18-C , 19-C ) :   1.2353
B( 18-C , 21-H ) :   0.9877 B( 19-C , 20-C ) :   1.5965 B( 19-C , 22-C ) :   1.0371
B( 22-C , 23-H ) :   0.9277 B( 22-C , 24-H ) :   0.9377 B( 22-C , 25-C ) :   1.0878
B( 25-C , 26-H ) :   0.9436 B( 25-C , 27-H ) :   0.9485 B( 25-C , 28-C ) :   1.0933
B( 28-C , 29-H ) :   0.9699 B( 28-C , 30-H ) :   0.9778 B( 28-C , 31-H ) :   0.9672

Dispersion correction           -0.014327474
FINAL SINGLE POINT ENERGY     -1339.861633510848

DIPOLE MOMENT
-------------
                                X             Y             Z
Electronic contribution:     28.42599      -8.48100       7.70257
Nuclear contribution   :    -29.07212       8.53451      -7.98473
                        -----------------------------------------
Total Dipole Moment    :     -0.64613       0.05351      -0.28216
                        -----------------------------------------
Magnitude (a.u.)       :      0.70708
Magnitude (Debye)      :      1.79725

Rotational constants in cm-1:     0.017947     0.008735     0.006618
Rotational constants in MHz :   538.033612   261.871785   198.408687

                             ****ORCA TERMINATED NORMALLY****
TOTAL RUN TIME: 0 days 0 hours 0 minutes 33 seconds 980 msec
