                         Program Version 4.2.1 -  RELEASE  -
|  1> ! wB97X-D3 SP def2-SVP
|  2> %pal
|  3> nprocs 16
|  4> end
|  5>
|  6> * xyz 0 1
|  7> S 	 -34.3785 	 60.4071 	 114.776
|  8> C 	 -33.8627 	 59.8373 	 113.289
|  9> C 	 -32.4634 	 59.617 	 113.266
| 10> C 	 -31.7959 	 60.0957 	 114.454
| 11> C 	 -32.6969 	 60.6337 	 115.365
| 12> H 	 -30.7702 	 60.0005 	 114.678
| 13> C 	 -31.6466 	 59.0935 	 112.087
| 14> H 	 -30.5632 	 59.0473 	 112.375
| 15> H 	 -31.7321 	 59.7138 	 111.206
| 16> C 	 -31.9295 	 57.7158 	 111.811
| 17> H 	 -31.8249 	 57.1219 	 112.679
| 18> H 	 -32.9749 	 57.7727 	 111.437
| 19> C 	 -31.0026 	 57.2779 	 110.649
| 20> H 	 -31.108 	 56.2266 	 110.32
| 21> H 	 -31.3442 	 57.8019 	 109.78
| 22> H 	 -29.9951 	 57.6771 	 110.807
| 23> S 	 -33.5935 	 60.6272 	 117.978
| 24> C 	 -32.6028 	 61.3073 	 119.269
| 25> C 	 -31.4244 	 61.7947 	 118.759
| 26> C 	 -31.2929 	 61.6883 	 117.299
| 27> C 	 -32.4485 	 61.0639 	 116.734
| 28> H 	 -30.6915 	 62.2071 	 119.47
| 29> C 	 -30.1016 	 62.276 	 116.499
| 30> H 	 -29.5871 	 61.5982 	 115.89
| 31> H 	 -29.2522 	 62.6318 	 117.183
| 32> C 	 -30.5197 	 63.3618 	 115.537
| 33> H 	 -30.962 	 64.1852 	 116.132
| 34> H 	 -31.3096 	 63.0861 	 114.889
| 35> C 	 -29.3422 	 63.911 	 114.66
| 36> H 	 -29.6377 	 64.6206 	 113.864
| 37> H 	 -28.6612 	 63.0905 	 114.202
| 38> H 	 -28.7002 	 64.4471 	 115.366
| 39> H 	 -34.6085 	 59.5393 	 112.536
| 40> H 	 -32.8799 	 61.3537 	 120.269
| 41> *
| 42>
| 43>                          ****END OF INPUT****

CARTESIAN COORDINATES (ANGSTROEM)
---------------------------------
  S    -34.378500   60.407100  114.776000
  C    -33.862700   59.837300  113.289000
  C    -32.463400   59.617000  113.266000
  C    -31.795900   60.095700  114.454000
  C    -32.696900   60.633700  115.365000
  H    -30.770200   60.000500  114.678000
  C    -31.646600   59.093500  112.087000
  H    -30.563200   59.047300  112.375000
  H    -31.732100   59.713800  111.206000
  C    -31.929500   57.715800  111.811000
  H    -31.824900   57.121900  112.679000
  H    -32.974900   57.772700  111.437000
  C    -31.002600   57.277900  110.649000
  H    -31.108000   56.226600  110.320000
  H    -31.344200   57.801900  109.780000
  H    -29.995100   57.677100  110.807000
  S    -33.593500   60.627200  117.978000
  C    -32.602800   61.307300  119.269000
  C    -31.424400   61.794700  118.759000
  C    -31.292900   61.688300  117.299000
  C    -32.448500   61.063900  116.734000
  H    -30.691500   62.207100  119.470000
  C    -30.101600   62.276000  116.499000
  H    -29.587100   61.598200  115.890000
  H    -29.252200   62.631800  117.183000
  C    -30.519700   63.361800  115.537000
  H    -30.962000   64.185200  116.132000
  H    -31.309600   63.086100  114.889000
  C    -29.342200   63.911000  114.660000
  H    -29.637700   64.620600  113.864000
  H    -28.661200   63.090500  114.202000
  H    -28.700200   64.447100  115.366000
  H    -34.608500   59.539300  112.536000
  H    -32.879900   61.353700  120.269000

 Total Charge           Charge          ....    0
 Multiplicity           Mult            ....    1
 Number of Electrons    NEL             ....  134
 Basis Dimension        Dim             ....  322

ORBITAL ENERGIES
----------------

  NO   OCC          E(Eh)            E(eV)
   0   2.0000     -88.968696     -2420.9613
   1   2.0000     -88.966566     -2420.9033
   2   2.0000     -10.334342      -281.2117
   3   2.0000     -10.333682      -281.1938
   4   2.0000     -10.318278      -280.7746
   5   2.0000     -10.314800      -280.6800
   6   2.0000     -10.313866      -280.6546
   7   2.0000     -10.306430      -280.4522
   8   2.0000     -10.300396      -280.2880
   9   2.0000     -10.297786      -280.2170
  10   2.0000     -10.296351      -280.1779
  11   2.0000     -10.286616      -279.9131
  12   2.0000     -10.285957      -279.8951
  13   2.0000     -10.280104      -279.7358
  14   2.0000     -10.277890      -279.6756
  15   2.0000     -10.277154      -279.6556
  16   2.0000      -8.084127      -219.9803
  17   2.0000      -8.081102      -219.8980
  18   2.0000      -6.042510      -164.4251
  19   2.0000      -6.039769      -164.3505
  20   2.0000      -6.038444      -164.3144
  21   2.0000      -6.035548      -164.2356
  22   2.0000      -6.035081      -164.2229
  23   2.0000      -6.031798      -164.1336
  24   2.0000      -1.005306       -27.3558
  25   2.0000      -0.981459       -26.7069
  26   2.0000      -0.929514       -25.2934
  27   2.0000      -0.906537       -24.6681
  28   2.0000      -0.872185       -23.7334
  29   2.0000      -0.854076       -23.2406
  30   2.0000      -0.838588       -22.8191
  31   2.0000      -0.812908       -22.1204
  32   2.0000      -0.778036       -21.1714
  33   2.0000      -0.766520       -20.8581
  34   2.0000      -0.705282       -19.1917
  35   2.0000      -0.698288       -19.0014
  36   2.0000      -0.689575       -18.7643
  37   2.0000      -0.666281       -18.1304
  38   2.0000      -0.644481       -17.5372
  39   2.0000      -0.624114       -16.9830
  40   2.0000      -0.599439       -16.3116
  41   2.0000      -0.585335       -15.9278
  42   2.0000      -0.564539       -15.3619
  43   2.0000      -0.558462       -15.1965
  44   2.0000      -0.523974       -14.2581
  45   2.0000      -0.518658       -14.1134
  46   2.0000      -0.514472       -13.9995
  47   2.0000      -0.513432       -13.9712
  48   2.0000      -0.507722       -13.8158
  49   2.0000      -0.497261       -13.5312
  50   2.0000      -0.492206       -13.3936
  51   2.0000      -0.485595       -13.2137
  52   2.0000      -0.474965       -12.9244
  53   2.0000      -0.461092       -12.5469
  54   2.0000      -0.456727       -12.4282
  55   2.0000      -0.447129       -12.1670
  56   2.0000      -0.443283       -12.0624
  57   2.0000      -0.439629       -11.9629
  58   2.0000      -0.435505       -11.8507
  59   2.0000      -0.424023       -11.5382
  60   2.0000      -0.418702       -11.3935
  61   2.0000      -0.412431       -11.2228
  62   2.0000      -0.408208       -11.1079
  63   2.0000      -0.361073        -9.8253
  64   2.0000      -0.334411        -9.0998
  65   2.0000      -0.326220        -8.8769
  66   2.0000      -0.283137        -7.7046
  67   0.0000       0.019442         0.5290
  68   0.0000       0.075374         2.0510
  69   0.0000       0.102978         2.8022
  70   0.0000       0.118768         3.2318
  71   0.0000       0.136995         3.7278

MULLIKEN ATOMIC CHARGES
-----------------------
   0 S :    0.111434
   1 C :   -0.121721
   2 C :   -0.083241
   3 C :    0.036649
   4 C :   -0.141546
   5 H :    0.003408
   6 C :    0.027475
   7 H :    0.012474
   8 H :    0.036669
   9 C :   -0.070228
  10 H :    0.030386
  11 H :    0.022635
  12 C :   -0.018025
  13 H :    0.042778
  14 H :    0.007751
  15 H :    0.025667
  16 S :    0.097742
  17 C :   -0.072910
  18 C :   -0.038658
  19 C :   -0.027596
  20 C :   -0.131025
  21 H :    0.030089
  22 C :    0.065063
  23 H :    0.001961
  24 H :    0.028799
  25 C :   -0.076511
  26 H :    0.030692
  27 H :    0.037994
  28 C :   -0.087919
  29 H :    0.048955
  30 H :    0.039229
  31 H :    0.027557
  32 H :    0.068116
  33 H :    0.035858
Sum of atomic charges:    0.0000000

LOEWDIN ATOMIC CHARGES
----------------------
   0 S :    0.423830
   1 C :   -0.223098
   2 C :   -0.058432
   3 C :   -0.049260
   4 C :   -0.181578
   5 H :    0.026897
   6 C :   -0.037267
   7 H :    0.028679
   8 H :    0.029316
   9 C :   -0.040000
  10 H :    0.020158
  11 H :    0.025380
  12 C :   -0.067250
  13 H :    0.030206
  14 H :    0.022266
  15 H :    0.024593
  16 S :    0.400580
  17 C :   -0.176966
  18 C :   -0.069572
  19 C :   -0.054437
  20 C :   -0.196762
  21 H :    0.036660
  22 C :   -0.034483
  23 H :    0.015644
  24 H :    0.038787
  25 C :   -0.041816
  26 H :    0.027796
  27 H :    0.019543
  28 C :   -0.075670
  29 H :    0.030372
  30 H :    0.030867
  31 H :    0.022372
  32 H :    0.034084
  33 H :    0.018557

  Mayer bond orders larger than 0.100000
B(  0-S ,  1-C ) :   1.1732 B(  0-S ,  4-C ) :   1.1527 B(  1-C ,  2-C ) :   1.5550
B(  1-C , 32-H ) :   0.9674 B(  2-C ,  3-C ) :   1.2759 B(  2-C ,  6-C ) :   1.0098
B(  3-C ,  4-C ) :   1.5329 B(  3-C ,  5-H ) :   0.9990 B(  4-C , 20-C ) :   1.0807
B(  6-C ,  7-H ) :   0.9431 B(  6-C ,  8-H ) :   0.9487 B(  6-C ,  9-C ) :   1.0609
B(  9-C , 10-H ) :   0.9577 B(  9-C , 11-H ) :   0.9548 B(  9-C , 12-C ) :   1.0776
B( 12-C , 13-H ) :   0.9726 B( 12-C , 14-H ) :   0.9681 B( 12-C , 15-H ) :   0.9704
B( 16-S , 17-C ) :   1.1367 B( 16-S , 20-C ) :   1.1493 B( 17-C , 18-C ) :   1.6201
B( 17-C , 33-H ) :   0.9777 B( 18-C , 19-C ) :   1.2424 B( 18-C , 21-H ) :   0.9853
B( 19-C , 20-C ) :   1.5588 B( 19-C , 22-C ) :   1.0384 B( 22-C , 23-H ) :   0.9333
B( 22-C , 24-H ) :   0.9389 B( 22-C , 25-C ) :   1.0561 B( 25-C , 26-H ) :   0.9536
B( 25-C , 27-H ) :   0.9573 B( 25-C , 28-C ) :   1.0695 B( 28-C , 29-H ) :   0.9756
B( 28-C , 30-H ) :   0.9741 B( 28-C , 31-H ) :   0.9772

Dispersion correction           -0.013885336
FINAL SINGLE POINT ENERGY     -1339.866698589108

DIPOLE MOMENT
-------------
                                X             Y             Z
Electronic contribution:    -21.17555      -0.49551      20.20613
Nuclear contribution   :     21.62595       0.48372     -20.47867
                        -----------------------------------------
Total Dipole Moment    :      0.45040      -0.01179      -0.27254
                        -----------------------------------------
Magnitude (a.u.)       :      0.52657
Magnitude (Debye)      :      1.33844

Rotational constants in cm-1:     0.018692     0.008350     0.006579
Rotational constants in MHz :   560.376044   250.330891   197.241842

                             ****ORCA TERMINATED NORMALLY****
TOTAL RUN TIME: 0 days 0 hours 0 minutes 28 seconds 254 msec
