                         Program Version 4.2.1 -  RELEASE  -
|  1> ! wB97X-D3 SP def2-SVP
|  2> %pal
|  3> nprocs 16
|  4> end
|  5>
|  6> * xyz 0 1
|  7> S 	 55.0905 	 4.48625 	 88.2484
|  8> C 	 55.4153 	 5.21303 	 86.6714
|  9> C 	 55.5005 	 4.30267 	 85.6469
| 10> C 	 55.0977 	 3.01391 	 86.2023
| 11> C 	 54.6642 	 2.98288 	 87.4595
| 12> H 	 55.0021 	 2.08488 	 85.7018
| 13> C 	 55.9022 	 4.45622 	 84.1721
| 14> H 	 55.956 	 5.53524 	 83.8268
| 15> H 	 55.0705 	 4.08737 	 83.5574
| 16> C 	 57.2105 	 3.74144 	 83.7581
| 17> H 	 58.1002 	 3.95174 	 84.3766
| 18> H 	 57.0647 	 2.65612 	 83.772
| 19> C 	 57.6367 	 4.0398 	 82.3263
| 20> H 	 57.477 	 5.08894 	 82.1465
| 21> H 	 58.6135 	 3.7182 	 82.1219
| 22> H 	 56.909 	 3.56946 	 81.6052
| 23> S 	 52.2375 	 2.26558 	 88.675
| 24> C 	 52.0589 	 0.494913 	 89.0728
| 25> C 	 53.1674 	 -0.177744 	 88.906
| 26> C 	 54.247 	 0.589387 	 88.2808
| 27> C 	 53.8736 	 1.92032 	 88.073
| 28> H 	 53.1669 	 -1.25483 	 89.0142
| 29> C 	 55.6028 	 -0.0248508 	 87.9804
| 30> H 	 56.2762 	 0.799737 	 88.1969
| 31> H 	 55.6524 	 -0.275611 	 86.9262
| 32> C 	 55.9844 	 -1.30889 	 88.8154
| 33> H 	 55.2097 	 -2.11267 	 88.6043
| 34> H 	 55.9919 	 -1.0836 	 89.8393
| 35> C 	 57.305 	 -1.93925 	 88.3166
| 36> H 	 57.26 	 -2.17919 	 87.1841
| 37> H 	 57.4863 	 -2.8926 	 88.8693
| 38> H 	 58.1215 	 -1.30198 	 88.4871
| 39> H 	 55.6152 	 6.27722 	 86.6676
| 40> H 	 51.1508 	 0.0714556 	 89.4822
| 41> *
| 42>
| 43>                          ****END OF INPUT****

CARTESIAN COORDINATES (ANGSTROEM)
---------------------------------
  S     55.090500    4.486250   88.248400
  C     55.415300    5.213030   86.671400
  C     55.500500    4.302670   85.646900
  C     55.097700    3.013910   86.202300
  C     54.664200    2.982880   87.459500
  H     55.002100    2.084880   85.701800
  C     55.902200    4.456220   84.172100
  H     55.956000    5.535240   83.826800
  H     55.070500    4.087370   83.557400
  C     57.210500    3.741440   83.758100
  H     58.100200    3.951740   84.376600
  H     57.064700    2.656120   83.772000
  C     57.636700    4.039800   82.326300
  H     57.477000    5.088940   82.146500
  H     58.613500    3.718200   82.121900
  H     56.909000    3.569460   81.605200
  S     52.237500    2.265580   88.675000
  C     52.058900    0.494913   89.072800
  C     53.167400   -0.177744   88.906000
  C     54.247000    0.589387   88.280800
  C     53.873600    1.920320   88.073000
  H     53.166900   -1.254830   89.014200
  C     55.602800   -0.024851   87.980400
  H     56.276200    0.799737   88.196900
  H     55.652400   -0.275611   86.926200
  C     55.984400   -1.308890   88.815400
  H     55.209700   -2.112670   88.604300
  H     55.991900   -1.083600   89.839300
  C     57.305000   -1.939250   88.316600
  H     57.260000   -2.179190   87.184100
  H     57.486300   -2.892600   88.869300
  H     58.121500   -1.301980   88.487100
  H     55.615200    6.277220   86.667600
  H     51.150800    0.071456   89.482200

 Total Charge           Charge          ....    0
 Multiplicity           Mult            ....    1
 Number of Electrons    NEL             ....  134
 Basis Dimension        Dim             ....  322

ORBITAL ENERGIES
----------------

  NO   OCC          E(Eh)            E(eV)
   0   2.0000     -88.961812     -2420.7740
   1   2.0000     -88.958564     -2420.6856
   2   2.0000     -10.327368      -281.0220
   3   2.0000     -10.319806      -280.8162
   4   2.0000     -10.316304      -280.7209
   5   2.0000     -10.314799      -280.6799
   6   2.0000     -10.309329      -280.5311
   7   2.0000     -10.305878      -280.4372
   8   2.0000     -10.305281      -280.4210
   9   2.0000     -10.293859      -280.1101
  10   2.0000     -10.293350      -280.0963
  11   2.0000     -10.290086      -280.0075
  12   2.0000     -10.288282      -279.9584
  13   2.0000     -10.286354      -279.9059
  14   2.0000     -10.286215      -279.9021
  15   2.0000     -10.276431      -279.6359
  16   2.0000      -8.075341      -219.7412
  17   2.0000      -8.073814      -219.6997
  18   2.0000      -6.034110      -164.1965
  19   2.0000      -6.032365      -164.1490
  20   2.0000      -6.030273      -164.0921
  21   2.0000      -6.028539      -164.0449
  22   2.0000      -6.025640      -163.9660
  23   2.0000      -6.024219      -163.9273
  24   2.0000      -1.003748       -27.3134
  25   2.0000      -0.978887       -26.6369
  26   2.0000      -0.910021       -24.7629
  27   2.0000      -0.902550       -24.5596
  28   2.0000      -0.874540       -23.7974
  29   2.0000      -0.848312       -23.0837
  30   2.0000      -0.842177       -22.9168
  31   2.0000      -0.821356       -22.3502
  32   2.0000      -0.781296       -21.2602
  33   2.0000      -0.766772       -20.8649
  34   2.0000      -0.704608       -19.1734
  35   2.0000      -0.699843       -19.0437
  36   2.0000      -0.693693       -18.8763
  37   2.0000      -0.653147       -17.7730
  38   2.0000      -0.646225       -17.5847
  39   2.0000      -0.617288       -16.7973
  40   2.0000      -0.594362       -16.1734
  41   2.0000      -0.573110       -15.5951
  42   2.0000      -0.569604       -15.4997
  43   2.0000      -0.558837       -15.2067
  44   2.0000      -0.533937       -14.5292
  45   2.0000      -0.526237       -14.3196
  46   2.0000      -0.516504       -14.0548
  47   2.0000      -0.510467       -13.8905
  48   2.0000      -0.506702       -13.7881
  49   2.0000      -0.490474       -13.3465
  50   2.0000      -0.485752       -13.2180
  51   2.0000      -0.477599       -12.9961
  52   2.0000      -0.468250       -12.7417
  53   2.0000      -0.458735       -12.4828
  54   2.0000      -0.456143       -12.4123
  55   2.0000      -0.452315       -12.3081
  56   2.0000      -0.447213       -12.1693
  57   2.0000      -0.438962       -11.9448
  58   2.0000      -0.438458       -11.9311
  59   2.0000      -0.424320       -11.5463
  60   2.0000      -0.420766       -11.4496
  61   2.0000      -0.415911       -11.3175
  62   2.0000      -0.413389       -11.2489
  63   2.0000      -0.347247        -9.4491
  64   2.0000      -0.326364        -8.8808
  65   2.0000      -0.325556        -8.8588
  66   2.0000      -0.299290        -8.1441
  67   0.0000       0.036537         0.9942
  68   0.0000       0.070290         1.9127
  69   0.0000       0.108692         2.9576
  70   0.0000       0.112570         3.0632
  71   0.0000       0.132830         3.6145

MULLIKEN ATOMIC CHARGES
-----------------------
   0 S :    0.093578
   1 C :   -0.150796
   2 C :   -0.014178
   3 C :    0.036772
   4 C :   -0.182502
   5 H :   -0.007761
   6 C :    0.043398
   7 H :    0.028033
   8 H :    0.036817
   9 C :   -0.094763
  10 H :    0.041394
  11 H :    0.031959
  12 C :   -0.027268
  13 H :    0.017230
  14 H :    0.033440
  15 H :    0.025637
  16 S :    0.089836
  17 C :   -0.082786
  18 C :   -0.009221
  19 C :   -0.064112
  20 C :   -0.147347
  21 H :    0.020096
  22 C :    0.074902
  23 H :    0.040350
  24 H :    0.034708
  25 C :   -0.099813
  26 H :    0.040315
  27 H :    0.033573
  28 C :   -0.053729
  29 H :    0.041745
  30 H :    0.042491
  31 H :    0.027131
  32 H :    0.049817
  33 H :    0.051051
Sum of atomic charges:   -0.0000000

LOEWDIN ATOMIC CHARGES
----------------------
   0 S :    0.376393
   1 C :   -0.175433
   2 C :   -0.059757
   3 C :   -0.053535
   4 C :   -0.195947
   5 H :    0.023815
   6 C :   -0.034698
   7 H :    0.034425
   8 H :    0.035782
   9 C :   -0.044427
  10 H :    0.028907
  11 H :    0.024275
  12 C :   -0.060151
  13 H :    0.019529
  14 H :    0.020131
  15 H :    0.028713
  16 S :    0.353881
  17 C :   -0.150307
  18 C :   -0.075456
  19 C :   -0.051090
  20 C :   -0.190777
  21 H :    0.033969
  22 C :   -0.033132
  23 H :    0.034911
  24 H :    0.030687
  25 C :   -0.036310
  26 H :    0.028943
  27 H :    0.018247
  28 C :   -0.066443
  29 H :    0.034865
  30 H :    0.031459
  31 H :    0.014853
  32 H :    0.023566
  33 H :    0.030112

  Mayer bond orders larger than 0.100000
B(  0-S ,  1-C ) :   1.1332 B(  0-S ,  4-C ) :   1.1116 B(  1-C ,  2-C ) :   1.6390
B(  1-C , 32-H ) :   0.9721 B(  2-C ,  3-C ) :   1.1762 B(  2-C ,  6-C ) :   1.0238
B(  3-C ,  4-C ) :   1.6630 B(  3-C ,  5-H ) :   0.9934 B(  4-C , 20-C ) :   1.0374
B(  6-C ,  7-H ) :   0.9468 B(  6-C ,  8-H ) :   0.9373 B(  6-C ,  9-C ) :   1.0563
B(  9-C , 10-H ) :   0.9598 B(  9-C , 11-H ) :   0.9533 B(  9-C , 12-C ) :   1.0886
B( 12-C , 13-H ) :   0.9743 B( 12-C , 14-H ) :   0.9753 B( 12-C , 15-H ) :   0.9732
B( 16-S , 17-C ) :   1.1063 B( 16-S , 20-C ) :   1.1123 B( 17-C , 18-C ) :   1.7016
B( 17-C , 33-H ) :   0.9591 B( 18-C , 19-C ) :   1.1880 B( 18-C , 21-H ) :   0.9799
B( 19-C , 20-C ) :   1.6513 B( 19-C , 22-C ) :   1.0328 B( 22-C , 23-H ) :   0.9297
B( 22-C , 24-H ) :   0.9264 B( 22-C , 25-C ) :   1.0785 B( 25-C , 26-H ) :   0.9481
B( 25-C , 27-H ) :   0.9588 B( 25-C , 28-C ) :   1.0829 B( 28-C , 29-H ) :   0.9733
B( 28-C , 30-H ) :   0.9738 B( 28-C , 31-H ) :   0.9767

Dispersion correction           -0.013391717
FINAL SINGLE POINT ENERGY     -1339.869466586695

DIPOLE MOMENT
-------------
                                X             Y             Z
Electronic contribution:    -20.00702      12.99672      17.64161
Nuclear contribution   :     20.39159     -13.50709     -18.10864
                        -----------------------------------------
Total Dipole Moment    :      0.38456      -0.51038      -0.46703
                        -----------------------------------------
Magnitude (a.u.)       :      0.79151
Magnitude (Debye)      :      2.01186

Rotational constants in cm-1:     0.016323     0.008162     0.006213
Rotational constants in MHz :   489.354597   244.690373   186.268864

                             ****ORCA TERMINATED NORMALLY****
TOTAL RUN TIME: 0 days 0 hours 0 minutes 28 seconds 819 msec
