                         Program Version 4.2.1 -  RELEASE  -
|  1> ! wB97X-D3 SP def2-SVP
|  2> %pal
|  3> nprocs 16
|  4> end
|  5>
|  6> * xyz 0 1
|  7> S 	 58.9252 	 -10.2738 	 91.0708
|  8> C 	 58.6404 	 -8.5708 	 91.2534
|  9> C 	 59.2916 	 -7.87475 	 90.2557
| 10> C 	 60.0064 	 -8.62761 	 89.3445
| 11> C 	 59.9969 	 -9.97182 	 89.6593
| 12> H 	 60.5028 	 -8.22722 	 88.4696
| 13> C 	 59.2672 	 -6.36683 	 90.0378
| 14> H 	 58.3532 	 -5.91242 	 90.412
| 15> H 	 59.2227 	 -6.06893 	 88.9431
| 16> C 	 60.3925 	 -5.64425 	 90.8009
| 17> H 	 60.2883 	 -4.60407 	 90.9246
| 18> H 	 60.3278 	 -5.83825 	 91.8373
| 19> C 	 61.7863 	 -6.08596 	 90.4836
| 20> H 	 62.3553 	 -5.36289 	 91.0671
| 21> H 	 62.0704 	 -7.09065 	 90.8405
| 22> H 	 62.1007 	 -5.99235 	 89.4037
| 23> S 	 59.6967 	 -12.4844 	 88.5915
| 24> C 	 61.1016 	 -13.3299 	 87.8713
| 25> C 	 62.1908 	 -12.5726 	 87.7692
| 26> C 	 61.9661 	 -11.2627 	 88.3753
| 27> C 	 60.6862 	 -11.1162 	 88.975
| 28> H 	 63.0982 	 -13.058 	 87.3864
| 29> C 	 63.0395 	 -10.198 	 88.5556
| 30> H 	 62.8109 	 -9.30416 	 87.984
| 31> H 	 63.9495 	 -10.5387 	 88.0632
| 32> C 	 63.3789 	 -9.67481 	 89.9492
| 33> H 	 62.5614 	 -9.1088 	 90.3313
| 34> H 	 64.3239 	 -9.11805 	 89.8227
| 35> C 	 63.5075 	 -10.8026 	 90.963
| 36> H 	 63.7284 	 -11.7193 	 90.4269
| 37> H 	 62.569 	 -10.8962 	 91.5237
| 38> H 	 64.2861 	 -10.5594 	 91.6514
| 39> H 	 58.0419 	 -8.22334 	 92.1232
| 40> H 	 61.0921 	 -14.3846 	 87.5384
| 41> *
| 42>
| 43>                          ****END OF INPUT****

CARTESIAN COORDINATES (ANGSTROEM)
---------------------------------
  S     58.925200  -10.273800   91.070800
  C     58.640400   -8.570800   91.253400
  C     59.291600   -7.874750   90.255700
  C     60.006400   -8.627610   89.344500
  C     59.996900   -9.971820   89.659300
  H     60.502800   -8.227220   88.469600
  C     59.267200   -6.366830   90.037800
  H     58.353200   -5.912420   90.412000
  H     59.222700   -6.068930   88.943100
  C     60.392500   -5.644250   90.800900
  H     60.288300   -4.604070   90.924600
  H     60.327800   -5.838250   91.837300
  C     61.786300   -6.085960   90.483600
  H     62.355300   -5.362890   91.067100
  H     62.070400   -7.090650   90.840500
  H     62.100700   -5.992350   89.403700
  S     59.696700  -12.484400   88.591500
  C     61.101600  -13.329900   87.871300
  C     62.190800  -12.572600   87.769200
  C     61.966100  -11.262700   88.375300
  C     60.686200  -11.116200   88.975000
  H     63.098200  -13.058000   87.386400
  C     63.039500  -10.198000   88.555600
  H     62.810900   -9.304160   87.984000
  H     63.949500  -10.538700   88.063200
  C     63.378900   -9.674810   89.949200
  H     62.561400   -9.108800   90.331300
  H     64.323900   -9.118050   89.822700
  C     63.507500  -10.802600   90.963000
  H     63.728400  -11.719300   90.426900
  H     62.569000  -10.896200   91.523700
  H     64.286100  -10.559400   91.651400
  H     58.041900   -8.223340   92.123200
  H     61.092100  -14.384600   87.538400

 Total Charge           Charge          ....    0
 Multiplicity           Mult            ....    1
 Number of Electrons    NEL             ....  134
 Basis Dimension        Dim             ....  322

ORBITAL ENERGIES
----------------

  NO   OCC          E(Eh)            E(eV)
   0   2.0000     -88.970046     -2420.9980
   1   2.0000     -88.963187     -2420.8114
   2   2.0000     -10.338847      -281.3343
   3   2.0000     -10.331333      -281.1299
   4   2.0000     -10.320902      -280.8460
   5   2.0000     -10.316504      -280.7264
   6   2.0000     -10.310800      -280.5711
   7   2.0000     -10.300410      -280.2884
   8   2.0000     -10.297155      -280.1998
   9   2.0000     -10.294521      -280.1282
  10   2.0000     -10.293978      -280.1134
  11   2.0000     -10.284738      -279.8619
  12   2.0000     -10.276890      -279.6484
  13   2.0000     -10.276492      -279.6376
  14   2.0000     -10.274907      -279.5944
  15   2.0000     -10.261870      -279.2397
  16   2.0000      -8.084245      -219.9835
  17   2.0000      -8.077869      -219.8100
  18   2.0000      -6.042639      -164.4286
  19   2.0000      -6.038799      -164.3241
  20   2.0000      -6.036494      -164.2614
  21   2.0000      -6.035177      -164.2255
  22   2.0000      -6.032414      -164.1503
  23   2.0000      -6.028470      -164.0430
  24   2.0000      -1.006079       -27.3768
  25   2.0000      -0.985529       -26.8176
  26   2.0000      -0.913373       -24.8541
  27   2.0000      -0.907229       -24.6870
  28   2.0000      -0.871508       -23.7149
  29   2.0000      -0.855718       -23.2853
  30   2.0000      -0.839205       -22.8359
  31   2.0000      -0.819873       -22.3099
  32   2.0000      -0.781736       -21.2721
  33   2.0000      -0.768422       -20.9098
  34   2.0000      -0.704978       -19.1834
  35   2.0000      -0.703043       -19.1308
  36   2.0000      -0.678352       -18.4589
  37   2.0000      -0.659558       -17.9475
  38   2.0000      -0.642613       -17.4864
  39   2.0000      -0.623129       -16.9562
  40   2.0000      -0.589265       -16.0347
  41   2.0000      -0.572130       -15.5685
  42   2.0000      -0.558881       -15.2079
  43   2.0000      -0.552216       -15.0266
  44   2.0000      -0.544690       -14.8218
  45   2.0000      -0.538038       -14.6408
  46   2.0000      -0.517303       -14.0765
  47   2.0000      -0.507432       -13.8079
  48   2.0000      -0.503107       -13.6902
  49   2.0000      -0.493484       -13.4284
  50   2.0000      -0.486474       -13.2376
  51   2.0000      -0.481488       -13.1020
  52   2.0000      -0.476787       -12.9740
  53   2.0000      -0.464631       -12.6433
  54   2.0000      -0.458055       -12.4643
  55   2.0000      -0.444191       -12.0871
  56   2.0000      -0.440219       -11.9790
  57   2.0000      -0.432556       -11.7705
  58   2.0000      -0.425709       -11.5841
  59   2.0000      -0.424970       -11.5640
  60   2.0000      -0.415802       -11.3145
  61   2.0000      -0.410324       -11.1655
  62   2.0000      -0.401459       -10.9243
  63   2.0000      -0.355920        -9.6851
  64   2.0000      -0.338693        -9.2163
  65   2.0000      -0.325637        -8.8610
  66   2.0000      -0.290301        -7.8995
  67   0.0000       0.023102         0.6286
  68   0.0000       0.071778         1.9532
  69   0.0000       0.104823         2.8524
  70   0.0000       0.122879         3.3437
  71   0.0000       0.132109         3.5949

MULLIKEN ATOMIC CHARGES
-----------------------
   0 S :    0.105353
   1 C :   -0.141935
   2 C :   -0.068748
   3 C :    0.043674
   4 C :   -0.156633
   5 H :    0.019429
   6 C :    0.054933
   7 H :    0.011308
   8 H :    0.041297
   9 C :   -0.028320
  10 H :    0.011209
  11 H :   -0.002432
  12 C :   -0.069140
  13 H :    0.023421
  14 H :    0.047368
  15 H :    0.032427
  16 S :    0.093200
  17 C :   -0.099962
  18 C :   -0.025884
  19 C :   -0.051834
  20 C :   -0.137979
  21 H :    0.033506
  22 C :    0.049886
  23 H :    0.022571
  24 H :    0.008540
  25 C :   -0.090582
  26 H :    0.046570
  27 H :    0.036524
  28 C :   -0.021509
  29 H :    0.023807
  30 H :    0.032621
  31 H :    0.023831
  32 H :    0.070855
  33 H :    0.062629
Sum of atomic charges:   -0.0000000

LOEWDIN ATOMIC CHARGES
----------------------
   0 S :    0.397741
   1 C :   -0.201086
   2 C :   -0.068210
   3 C :   -0.056371
   4 C :   -0.176862
   5 H :    0.037722
   6 C :   -0.033136
   7 H :    0.026792
   8 H :    0.035995
   9 C :   -0.048171
  10 H :    0.020228
  11 H :    0.024935
  12 C :   -0.070030
  13 H :    0.029539
  14 H :    0.026243
  15 H :    0.023809
  16 S :    0.389980
  17 C :   -0.172852
  18 C :   -0.076035
  19 C :   -0.055982
  20 C :   -0.203034
  21 H :    0.043074
  22 C :   -0.041799
  23 H :    0.028817
  24 H :    0.026102
  25 C :   -0.040292
  26 H :    0.017997
  27 H :    0.029035
  28 C :   -0.060842
  29 H :    0.022249
  30 H :    0.028876
  31 H :    0.020878
  32 H :    0.038690
  33 H :    0.036001

  Mayer bond orders larger than 0.100000
B(  0-S ,  1-C ) :   1.1438 B(  0-S ,  4-C ) :   1.1661 B(  1-C ,  2-C ) :   1.5846
B(  1-C ,  4-C ) :   0.1088 B(  1-C , 32-H ) :   0.9684 B(  2-C ,  3-C ) :   1.2698
B(  2-C ,  6-C ) :   1.0123 B(  3-C ,  4-C ) :   1.5318 B(  3-C ,  5-H ) :   1.0006
B(  4-C , 20-C ) :   1.0255 B(  6-C ,  7-H ) :   0.9382 B(  6-C ,  8-H ) :   0.9525
B(  6-C ,  9-C ) :   1.0711 B(  9-C , 10-H ) :   0.9558 B(  9-C , 11-H ) :   0.9377
B(  9-C , 12-C ) :   1.0876 B( 12-C , 13-H ) :   0.9650 B( 12-C , 14-H ) :   0.9677
B( 12-C , 15-H ) :   0.9742 B( 16-S , 17-C ) :   1.1278 B( 16-S , 20-C ) :   1.1462
B( 17-C , 18-C ) :   1.6721 B( 17-C , 33-H ) :   0.9572 B( 18-C , 19-C ) :   1.2011
B( 18-C , 21-H ) :   0.9862 B( 19-C , 20-C ) :   1.5958 B( 19-C , 22-C ) :   1.0464
B( 22-C , 23-H ) :   0.9277 B( 22-C , 24-H ) :   0.9352 B( 22-C , 25-C ) :   1.0864
B( 25-C , 26-H ) :   0.9392 B( 25-C , 27-H ) :   0.9578 B( 25-C , 28-C ) :   1.0824
B( 28-C , 29-H ) :   0.9789 B( 28-C , 30-H ) :   0.9727 B( 28-C , 31-H ) :   0.9741

Dispersion correction           -0.017010945
FINAL SINGLE POINT ENERGY     -1339.869408262003

DIPOLE MOMENT
-------------
                                X             Y             Z
Electronic contribution:    -17.91828     -20.04107      -4.25045
Nuclear contribution   :     18.27547      20.52886       4.25458
                        -----------------------------------------
Total Dipole Moment    :      0.35718       0.48779       0.00413
                        -----------------------------------------
Magnitude (a.u.)       :      0.60460
Magnitude (Debye)      :      1.53676

Rotational constants in cm-1:     0.021264     0.010144     0.008020
Rotational constants in MHz :   637.487558   304.112769   240.427111

                             ****ORCA TERMINATED NORMALLY****
TOTAL RUN TIME: 0 days 0 hours 0 minutes 33 seconds 945 msec
