                         Program Version 4.2.1 -  RELEASE  -
|  1> ! wB97X-D3 SP def2-SVP
|  2> %pal
|  3> nprocs 16
|  4> end
|  5>
|  6> * xyz 0 1
|  7> S 	 15.2724 	 13.8793 	 86.2754
|  8> C 	 16.3273 	 13.8998 	 84.949
|  9> C 	 15.6972 	 13.6324 	 83.7017
| 10> C 	 14.3239 	 13.3032 	 83.87
| 11> C 	 13.9348 	 13.4509 	 85.1433
| 12> H 	 13.7038 	 12.8855 	 83.1034
| 13> C 	 16.4845 	 13.5209 	 82.3323
| 14> H 	 15.7368 	 13.2001 	 81.5934
| 15> H 	 17.222 	 12.7186 	 82.2961
| 16> C 	 16.9431 	 14.8423 	 81.8026
| 17> H 	 17.6273 	 15.4149 	 82.5301
| 18> H 	 17.5177 	 14.5114 	 80.9562
| 19> C 	 15.825 	 15.9257 	 81.5578
| 20> H 	 15.3392 	 16.0678 	 82.5241
| 21> H 	 16.091 	 16.946 	 81.3561
| 22> H 	 15.1013 	 15.573 	 80.7403
| 23> S 	 11.5423 	 14.3209 	 86.4175
| 24> C 	 10.1932 	 13.2675 	 86.4975
| 25> C 	 10.5527 	 12.0341 	 86.0409
| 26> C 	 11.8693 	 11.9275 	 85.492
| 27> C 	 12.5913 	 13.119 	 85.604
| 28> H 	 9.76334 	 11.2185 	 86.1357
| 29> C 	 12.4215 	 10.6324 	 85.0565
| 30> H 	 12.3483 	 10.0333 	 85.9749
| 31> H 	 13.4354 	 10.8173 	 84.7903
| 32> C 	 11.7409 	 9.79749 	 83.9496
| 33> H 	 10.8262 	 9.2595 	 84.2682
| 34> H 	 12.3731 	 8.98808 	 83.6798
| 35> C 	 11.1704 	 10.4834 	 82.6378
| 36> H 	 10.5384 	 9.82949 	 81.9418
| 37> H 	 11.9845 	 10.7967 	 82.0051
| 38> H 	 10.6341 	 11.4419 	 82.7974
| 39> H 	 17.3814 	 14.0724 	 85.0168
| 40> H 	 9.24366 	 13.5147 	 86.9395
| 41> *
| 42>
| 43>                          ****END OF INPUT****

CARTESIAN COORDINATES (ANGSTROEM)
---------------------------------
  S     15.272400   13.879300   86.275400
  C     16.327300   13.899800   84.949000
  C     15.697200   13.632400   83.701700
  C     14.323900   13.303200   83.870000
  C     13.934800   13.450900   85.143300
  H     13.703800   12.885500   83.103400
  C     16.484500   13.520900   82.332300
  H     15.736800   13.200100   81.593400
  H     17.222000   12.718600   82.296100
  C     16.943100   14.842300   81.802600
  H     17.627300   15.414900   82.530100
  H     17.517700   14.511400   80.956200
  C     15.825000   15.925700   81.557800
  H     15.339200   16.067800   82.524100
  H     16.091000   16.946000   81.356100
  H     15.101300   15.573000   80.740300
  S     11.542300   14.320900   86.417500
  C     10.193200   13.267500   86.497500
  C     10.552700   12.034100   86.040900
  C     11.869300   11.927500   85.492000
  C     12.591300   13.119000   85.604000
  H      9.763340   11.218500   86.135700
  C     12.421500   10.632400   85.056500
  H     12.348300   10.033300   85.974900
  H     13.435400   10.817300   84.790300
  C     11.740900    9.797490   83.949600
  H     10.826200    9.259500   84.268200
  H     12.373100    8.988080   83.679800
  C     11.170400   10.483400   82.637800
  H     10.538400    9.829490   81.941800
  H     11.984500   10.796700   82.005100
  H     10.634100   11.441900   82.797400
  H     17.381400   14.072400   85.016800
  H      9.243660   13.514700   86.939500

 Total Charge           Charge          ....    0
 Multiplicity           Mult            ....    1
 Number of Electrons    NEL             ....  134
 Basis Dimension        Dim             ....  322

ORBITAL ENERGIES
----------------

  NO   OCC          E(Eh)            E(eV)
   0   2.0000     -88.972328     -2421.0601
   1   2.0000     -88.959521     -2420.7116
   2   2.0000     -10.327924      -281.0371
   3   2.0000     -10.326490      -280.9981
   4   2.0000     -10.314561      -280.6735
   5   2.0000     -10.312469      -280.6165
   6   2.0000     -10.305120      -280.4166
   7   2.0000     -10.301705      -280.3236
   8   2.0000     -10.297522      -280.2098
   9   2.0000     -10.293037      -280.0878
  10   2.0000     -10.292985      -280.0864
  11   2.0000     -10.291866      -280.0559
  12   2.0000     -10.290730      -280.0250
  13   2.0000     -10.288914      -279.9756
  14   2.0000     -10.284504      -279.8556
  15   2.0000     -10.282309      -279.7959
  16   2.0000      -8.087058      -220.0600
  17   2.0000      -8.074528      -219.7191
  18   2.0000      -6.045468      -164.5056
  19   2.0000      -6.041652      -164.4017
  20   2.0000      -6.037837      -164.2979
  21   2.0000      -6.033057      -164.1678
  22   2.0000      -6.028879      -164.0541
  23   2.0000      -6.025378      -163.9589
  24   2.0000      -1.006585       -27.3906
  25   2.0000      -0.985814       -26.8254
  26   2.0000      -0.908683       -24.7265
  27   2.0000      -0.906737       -24.6736
  28   2.0000      -0.873138       -23.7593
  29   2.0000      -0.848666       -23.0934
  30   2.0000      -0.842431       -22.9237
  31   2.0000      -0.809517       -22.0281
  32   2.0000      -0.784766       -21.3546
  33   2.0000      -0.773469       -21.0472
  34   2.0000      -0.708805       -19.2876
  35   2.0000      -0.698822       -19.0159
  36   2.0000      -0.692593       -18.8464
  37   2.0000      -0.654772       -17.8173
  38   2.0000      -0.642146       -17.4737
  39   2.0000      -0.616630       -16.7794
  40   2.0000      -0.593958       -16.1624
  41   2.0000      -0.571342       -15.5470
  42   2.0000      -0.552246       -15.0274
  43   2.0000      -0.549244       -14.9457
  44   2.0000      -0.537896       -14.6369
  45   2.0000      -0.536086       -14.5876
  46   2.0000      -0.521025       -14.1778
  47   2.0000      -0.504524       -13.7288
  48   2.0000      -0.497846       -13.5471
  49   2.0000      -0.493836       -13.4380
  50   2.0000      -0.488490       -13.2925
  51   2.0000      -0.474871       -12.9219
  52   2.0000      -0.473856       -12.8943
  53   2.0000      -0.465407       -12.6644
  54   2.0000      -0.458950       -12.4887
  55   2.0000      -0.455781       -12.4024
  56   2.0000      -0.446253       -12.1432
  57   2.0000      -0.443443       -12.0667
  58   2.0000      -0.438007       -11.9188
  59   2.0000      -0.416211       -11.3257
  60   2.0000      -0.412614       -11.2278
  61   2.0000      -0.406921       -11.0729
  62   2.0000      -0.402194       -10.9443
  63   2.0000      -0.351706        -9.5704
  64   2.0000      -0.331363        -9.0168
  65   2.0000      -0.324906        -8.8411
  66   2.0000      -0.293593        -7.9891
  67   0.0000       0.036890         1.0038
  68   0.0000       0.061740         1.6800
  69   0.0000       0.108029         2.9396
  70   0.0000       0.120908         3.2901
  71   0.0000       0.133830         3.6417

MULLIKEN ATOMIC CHARGES
-----------------------
   0 S :    0.134621
   1 C :   -0.105505
   2 C :   -0.122644
   3 C :    0.043200
   4 C :   -0.158250
   5 H :    0.014433
   6 C :    0.076188
   7 H :    0.008681
   8 H :    0.044836
   9 C :   -0.084048
  10 H :    0.034863
  11 H :    0.028396
  12 C :   -0.073243
  13 H :    0.044131
  14 H :    0.032807
  15 H :    0.040912
  16 S :    0.094114
  17 C :   -0.090084
  18 C :   -0.060065
  19 C :   -0.035826
  20 C :   -0.170548
  21 H :    0.038623
  22 C :    0.097505
  23 H :    0.046849
  24 H :    0.022963
  25 C :   -0.063360
  26 H :    0.026015
  27 H :    0.025634
  28 C :   -0.102972
  29 H :    0.045807
  30 H :    0.019158
  31 H :    0.048017
  32 H :    0.042723
  33 H :    0.056069
Sum of atomic charges:   -0.0000000

LOEWDIN ATOMIC CHARGES
----------------------
   0 S :    0.415525
   1 C :   -0.206939
   2 C :   -0.063882
   3 C :   -0.050361
   4 C :   -0.183017
   5 H :    0.035672
   6 C :   -0.032202
   7 H :    0.029666
   8 H :    0.032868
   9 C :   -0.047339
  10 H :    0.027962
  11 H :    0.020925
  12 C :   -0.073579
  13 H :    0.031407
  14 H :    0.024137
  15 H :    0.029849
  16 S :    0.395202
  17 C :   -0.192161
  18 C :   -0.086391
  19 C :   -0.058711
  20 C :   -0.192901
  21 H :    0.041013
  22 C :   -0.030500
  23 H :    0.047888
  24 H :    0.027814
  25 C :   -0.042199
  26 H :    0.025786
  27 H :    0.023065
  28 C :   -0.083052
  29 H :    0.035811
  30 H :    0.014280
  31 H :    0.030074
  32 H :    0.023050
  33 H :    0.031239

  Mayer bond orders larger than 0.100000
B(  0-S ,  1-C ) :   1.1625 B(  0-S ,  4-C ) :   1.1349 B(  1-C ,  2-C ) :   1.5959
B(  1-C , 32-H ) :   0.9687 B(  2-C ,  3-C ) :   1.2435 B(  2-C ,  6-C ) :   0.9982
B(  3-C ,  4-C ) :   1.5885 B(  3-C ,  5-H ) :   1.0004 B(  4-C , 20-C ) :   1.0335
B(  6-C ,  7-H ) :   0.9390 B(  6-C ,  8-H ) :   0.9494 B(  6-C ,  9-C ) :   1.0637
B(  9-C , 10-H ) :   0.9604 B(  9-C , 11-H ) :   0.9586 B(  9-C , 12-C ) :   1.0576
B( 12-C , 13-H ) :   0.9701 B( 12-C , 14-H ) :   0.9776 B( 12-C , 15-H ) :   0.9760
B( 16-S , 17-C ) :   1.1630 B( 16-S , 20-C ) :   1.1305 B( 17-C , 18-C ) :   1.6128
B( 17-C , 33-H ) :   0.9688 B( 18-C , 19-C ) :   1.2251 B( 18-C , 21-H ) :   0.9818
B( 19-C , 20-C ) :   1.5792 B( 19-C , 22-C ) :   1.0592 B( 22-C , 23-H ) :   0.9293
B( 22-C , 24-H ) :   0.9273 B( 22-C , 25-C ) :   1.0649 B( 25-C , 26-H ) :   0.9565
B( 25-C , 27-H ) :   0.9572 B( 25-C , 28-C ) :   1.0635 B( 28-C , 29-H ) :   0.9764
B( 28-C , 30-H ) :   0.9759 B( 28-C , 31-H ) :   0.9735

Dispersion correction           -0.015000354
FINAL SINGLE POINT ENERGY     -1339.863361056036

DIPOLE MOMENT
-------------
                                X             Y             Z
Electronic contribution:     -2.80807       8.41261      23.61115
Nuclear contribution   :      2.90320      -8.89925     -23.99506
                        -----------------------------------------
Total Dipole Moment    :      0.09513      -0.48663      -0.38391
                        -----------------------------------------
Magnitude (a.u.)       :      0.62710
Magnitude (Debye)      :      1.59395

Rotational constants in cm-1:     0.018787     0.008649     0.007191
Rotational constants in MHz :   563.228391   259.292081   215.573871

                             ****ORCA TERMINATED NORMALLY****
TOTAL RUN TIME: 0 days 0 hours 0 minutes 33 seconds 308 msec
