                         Program Version 4.2.1 -  RELEASE  -
|  1> ! wB97X-D3 SP def2-SVP
|  2> %pal
|  3> nprocs 16
|  4> end
|  5>
|  6> * xyz 0 1
|  7> S 	 -8.57632 	 50.1979 	 29.6983
|  8> C 	 -8.32866 	 49.0374 	 28.3916
|  9> C 	 -7.14005 	 49.3976 	 27.7023
| 10> C 	 -6.56902 	 50.63 	 28.1109
| 11> C 	 -7.20938 	 51.2054 	 29.2303
| 12> H 	 -5.72739 	 51.0894 	 27.6812
| 13> C 	 -6.52742 	 48.6861 	 26.5079
| 14> H 	 -6.69572 	 47.6014 	 26.6081
| 15> H 	 -5.45648 	 48.6531 	 26.7811
| 16> C 	 -6.91496 	 49.145 	 25.1131
| 17> H 	 -7.82407 	 49.6523 	 25.2751
| 18> H 	 -6.17746 	 49.8823 	 24.9375
| 19> C 	 -6.91992 	 48.0398 	 24.0128
| 20> H 	 -5.98021 	 47.4546 	 24.1712
| 21> H 	 -7.76639 	 47.3925 	 24.0746
| 22> H 	 -6.8929 	 48.4835 	 22.9415
| 23> S 	 -7.97011 	 53.4791 	 30.5512
| 24> C 	 -6.83146 	 54.3755 	 31.4676
| 25> C 	 -5.6055 	 53.8217 	 31.3932
| 26> C 	 -5.5128 	 52.6147 	 30.6162
| 27> C 	 -6.74463 	 52.3204 	 30.0737
| 28> H 	 -4.82207 	 54.4864 	 31.7836
| 29> C 	 -4.25515 	 51.8664 	 30.4771
| 30> H 	 -3.45499 	 52.6084 	 30.6524
| 31> H 	 -4.08959 	 51.7334 	 29.4582
| 32> C 	 -3.9825 	 50.5806 	 31.3122
| 33> H 	 -2.92186 	 50.2909 	 31.224
| 34> H 	 -4.48888 	 49.7248 	 30.8917
| 35> C 	 -4.2765 	 50.8283 	 32.834
| 36> H 	 -3.80134 	 51.752 	 33.1966
| 37> H 	 -3.9174 	 50.0414 	 33.4933
| 38> H 	 -5.34695 	 50.9014 	 33.0077
| 39> H 	 -8.99918 	 48.2326 	 28.1045
| 40> H 	 -6.97731 	 55.3662 	 31.7782
| 41> *
| 42>
| 43>                          ****END OF INPUT****

CARTESIAN COORDINATES (ANGSTROEM)
---------------------------------
  S     -8.576320   50.197900   29.698300
  C     -8.328660   49.037400   28.391600
  C     -7.140050   49.397600   27.702300
  C     -6.569020   50.630000   28.110900
  C     -7.209380   51.205400   29.230300
  H     -5.727390   51.089400   27.681200
  C     -6.527420   48.686100   26.507900
  H     -6.695720   47.601400   26.608100
  H     -5.456480   48.653100   26.781100
  C     -6.914960   49.145000   25.113100
  H     -7.824070   49.652300   25.275100
  H     -6.177460   49.882300   24.937500
  C     -6.919920   48.039800   24.012800
  H     -5.980210   47.454600   24.171200
  H     -7.766390   47.392500   24.074600
  H     -6.892900   48.483500   22.941500
  S     -7.970110   53.479100   30.551200
  C     -6.831460   54.375500   31.467600
  C     -5.605500   53.821700   31.393200
  C     -5.512800   52.614700   30.616200
  C     -6.744630   52.320400   30.073700
  H     -4.822070   54.486400   31.783600
  C     -4.255150   51.866400   30.477100
  H     -3.454990   52.608400   30.652400
  H     -4.089590   51.733400   29.458200
  C     -3.982500   50.580600   31.312200
  H     -2.921860   50.290900   31.224000
  H     -4.488880   49.724800   30.891700
  C     -4.276500   50.828300   32.834000
  H     -3.801340   51.752000   33.196600
  H     -3.917400   50.041400   33.493300
  H     -5.346950   50.901400   33.007700
  H     -8.999180   48.232600   28.104500
  H     -6.977310   55.366200   31.778200

 Total Charge           Charge          ....    0
 Multiplicity           Mult            ....    1
 Number of Electrons    NEL             ....  134
 Basis Dimension        Dim             ....  322

ORBITAL ENERGIES
----------------

  NO   OCC          E(Eh)            E(eV)
   0   2.0000     -88.968246     -2420.9491
   1   2.0000     -88.962480     -2420.7922
   2   2.0000     -10.334235      -281.2088
   3   2.0000     -10.328310      -281.0476
   4   2.0000     -10.320365      -280.8314
   5   2.0000     -10.306800      -280.4623
   6   2.0000     -10.304186      -280.3912
   7   2.0000     -10.304065      -280.3879
   8   2.0000     -10.292634      -280.0768
   9   2.0000     -10.291361      -280.0422
  10   2.0000     -10.290531      -280.0196
  11   2.0000     -10.290452      -280.0174
  12   2.0000     -10.288661      -279.9687
  13   2.0000     -10.286044      -279.8975
  14   2.0000     -10.280597      -279.7493
  15   2.0000     -10.275339      -279.6062
  16   2.0000      -8.082104      -219.9252
  17   2.0000      -8.078225      -219.8197
  18   2.0000      -6.040624      -164.3737
  19   2.0000      -6.036601      -164.2643
  20   2.0000      -6.036515      -164.2619
  21   2.0000      -6.033107      -164.1692
  22   2.0000      -6.032572      -164.1546
  23   2.0000      -6.029074      -164.0594
  24   2.0000      -1.008673       -27.4474
  25   2.0000      -0.982667       -26.7397
  26   2.0000      -0.911135       -24.7932
  27   2.0000      -0.908735       -24.7279
  28   2.0000      -0.867848       -23.6153
  29   2.0000      -0.849004       -23.1026
  30   2.0000      -0.843644       -22.9567
  31   2.0000      -0.813993       -22.1499
  32   2.0000      -0.783971       -21.3329
  33   2.0000      -0.772128       -21.0107
  34   2.0000      -0.713840       -19.4246
  35   2.0000      -0.706715       -19.2307
  36   2.0000      -0.694847       -18.9077
  37   2.0000      -0.661409       -17.9979
  38   2.0000      -0.641419       -17.4539
  39   2.0000      -0.621144       -16.9022
  40   2.0000      -0.591605       -16.0984
  41   2.0000      -0.572481       -15.5780
  42   2.0000      -0.558394       -15.1947
  43   2.0000      -0.550238       -14.9727
  44   2.0000      -0.546226       -14.8636
  45   2.0000      -0.520535       -14.1645
  46   2.0000      -0.515155       -14.0181
  47   2.0000      -0.507386       -13.8067
  48   2.0000      -0.503367       -13.6973
  49   2.0000      -0.502169       -13.6647
  50   2.0000      -0.485468       -13.2102
  51   2.0000      -0.480497       -13.0750
  52   2.0000      -0.472804       -12.8657
  53   2.0000      -0.468972       -12.7614
  54   2.0000      -0.456584       -12.4243
  55   2.0000      -0.445535       -12.1236
  56   2.0000      -0.441863       -12.0237
  57   2.0000      -0.436968       -11.8905
  58   2.0000      -0.433030       -11.7834
  59   2.0000      -0.426922       -11.6171
  60   2.0000      -0.422346       -11.4926
  61   2.0000      -0.413914       -11.2632
  62   2.0000      -0.404020       -10.9939
  63   2.0000      -0.347032        -9.4432
  64   2.0000      -0.332608        -9.0507
  65   2.0000      -0.331005        -9.0071
  66   2.0000      -0.292721        -7.9653
  67   0.0000       0.026883         0.7315
  68   0.0000       0.068771         1.8714
  69   0.0000       0.114272         3.1095
  70   0.0000       0.115696         3.1482
  71   0.0000       0.138958         3.7812

MULLIKEN ATOMIC CHARGES
-----------------------
   0 S :    0.111898
   1 C :   -0.117690
   2 C :   -0.123503
   3 C :    0.041788
   4 C :   -0.124652
   5 H :   -0.003341
   6 C :    0.009789
   7 H :    0.007676
   8 H :    0.025658
   9 C :    0.009757
  10 H :    0.025903
  11 H :    0.018712
  12 C :   -0.080485
  13 H :    0.041737
  14 H :    0.039088
  15 H :    0.051672
  16 S :    0.101292
  17 C :   -0.065728
  18 C :   -0.059262
  19 C :   -0.033923
  20 C :   -0.175492
  21 H :    0.026315
  22 C :    0.100812
  23 H :    0.009044
  24 H :   -0.001769
  25 C :   -0.036602
  26 H :    0.027148
  27 H :    0.034992
  28 C :   -0.066927
  29 H :    0.027893
  30 H :    0.032404
  31 H :    0.047120
  32 H :    0.057524
  33 H :    0.041149
Sum of atomic charges:    0.0000000

LOEWDIN ATOMIC CHARGES
----------------------
   0 S :    0.406381
   1 C :   -0.202713
   2 C :   -0.062334
   3 C :   -0.062444
   4 C :   -0.190188
   5 H :    0.022646
   6 C :   -0.045770
   7 H :    0.025715
   8 H :    0.031908
   9 C :   -0.037763
  10 H :    0.021496
  11 H :    0.022680
  12 C :   -0.066111
  13 H :    0.031069
  14 H :    0.020602
  15 H :    0.038791
  16 S :    0.413516
  17 C :   -0.188169
  18 C :   -0.074885
  19 C :   -0.054539
  20 C :   -0.194529
  21 H :    0.036363
  22 C :   -0.037040
  23 H :    0.036037
  24 H :    0.022522
  25 C :   -0.030073
  26 H :    0.027081
  27 H :    0.024091
  28 C :   -0.067761
  29 H :    0.025267
  30 H :    0.024875
  31 H :    0.028042
  32 H :    0.033187
  33 H :    0.022053

  Mayer bond orders larger than 0.100000
B(  0-S ,  1-C ) :   1.1432 B(  0-S ,  4-C ) :   1.1727 B(  1-C ,  2-C ) :   1.5581
B(  1-C ,  4-C ) :   0.1134 B(  1-C , 32-H ) :   0.9733 B(  2-C ,  3-C ) :   1.2723
B(  2-C ,  6-C ) :   1.0367 B(  3-C ,  4-C ) :   1.5295 B(  3-C ,  5-H ) :   1.0071
B(  4-C , 20-C ) :   1.0284 B(  6-C ,  7-H ) :   0.9427 B(  6-C ,  8-H ) :   0.9367
B(  6-C ,  9-C ) :   1.0252 B(  9-C , 10-H ) :   0.9614 B(  9-C , 11-H ) :   0.9521
B(  9-C , 12-C ) :   1.0743 B( 12-C , 13-H ) :   0.9764 B( 12-C , 14-H ) :   0.9780
B( 12-C , 15-H ) :   0.9758 B( 16-S , 17-C ) :   1.1480 B( 16-S , 20-C ) :   1.1514
B( 17-C , 18-C ) :   1.6506 B( 17-C , 33-H ) :   0.9659 B( 18-C , 19-C ) :   1.2137
B( 18-C , 21-H ) :   0.9806 B( 19-C , 20-C ) :   1.5921 B( 19-C , 22-C ) :   1.0481
B( 22-C , 23-H ) :   0.9215 B( 22-C , 24-H ) :   0.9215 B( 22-C , 25-C ) :   1.0645
B( 25-C , 26-H ) :   0.9555 B( 25-C , 27-H ) :   0.9585 B( 25-C , 28-C ) :   1.0684
B( 28-C , 29-H ) :   0.9773 B( 28-C , 30-H ) :   0.9767 B( 28-C , 31-H ) :   0.9747

Dispersion correction           -0.014573133
FINAL SINGLE POINT ENERGY     -1339.870633336954

DIPOLE MOMENT
-------------
                                X             Y             Z
Electronic contribution:    -17.37788      13.42698      10.78472
Nuclear contribution   :     17.99884     -13.50441     -11.08507
                        -----------------------------------------
Total Dipole Moment    :      0.62097      -0.07743      -0.30034
                        -----------------------------------------
Magnitude (a.u.)       :      0.69412
Magnitude (Debye)      :      1.76431

Rotational constants in cm-1:     0.021667     0.007582     0.006711
Rotational constants in MHz :   649.547632   227.299145   201.200288

                             ****ORCA TERMINATED NORMALLY****
TOTAL RUN TIME: 0 days 0 hours 0 minutes 33 seconds 453 msec
