                         Program Version 4.2.1 -  RELEASE  -
|  1> ! wB97X-D3 SP def2-SVP
|  2> %pal
|  3> nprocs 16
|  4> end
|  5>
|  6> * xyz 0 1
|  7> S 	 -82.0079 	 35.0898 	 135.409
|  8> C 	 -80.3489 	 34.8604 	 135.902
|  9> C 	 -79.7723 	 36.1376 	 136.196
| 10> C 	 -80.5862 	 37.2136 	 135.781
| 11> C 	 -81.8062 	 36.8271 	 135.292
| 12> H 	 -80.4696 	 38.2917 	 135.847
| 13> C 	 -78.4345 	 36.4239 	 136.78
| 14> H 	 -78.3959 	 37.4945 	 136.923
| 15> H 	 -77.6853 	 36.2592 	 136.034
| 16> C 	 -78.041 	 35.585 	 138.055
| 17> H 	 -77.9027 	 34.5408 	 137.732
| 18> H 	 -77.1122 	 35.8372 	 138.386
| 19> C 	 -78.9724 	 35.6541 	 139.244
| 20> H 	 -78.8194 	 36.6433 	 139.671
| 21> H 	 -80.0453 	 35.4892 	 138.934
| 22> H 	 -78.7292 	 34.8658 	 139.98
| 23> S 	 -84.3752 	 37.6317 	 135.923
| 24> C 	 -85.0821 	 38.9585 	 135.025
| 25> C 	 -84.2135 	 39.5196 	 134.104
| 26> C 	 -82.9464 	 38.8649 	 134.109
| 27> C 	 -82.9404 	 37.7322 	 134.943
| 28> H 	 -84.4912 	 40.4566 	 133.605
| 29> C 	 -81.8863 	 39.343 	 133.164
| 30> H 	 -82.4138 	 39.6964 	 132.22
| 31> H 	 -81.3431 	 38.4361 	 132.786
| 32> C 	 -80.9196 	 40.4732 	 133.648
| 33> H 	 -80.3691 	 40.2395 	 134.624
| 34> H 	 -81.4229 	 41.3966 	 133.73
| 35> C 	 -79.7981 	 40.7006 	 132.602
| 36> H 	 -80.0558 	 40.8909 	 131.53
| 37> H 	 -79.0539 	 39.8378 	 132.612
| 38> H 	 -79.2482 	 41.6345 	 132.741
| 39> H 	 -79.9817 	 33.9321 	 136.278
| 40> H 	 -85.9612 	 39.5631 	 135.253
| 41> *
| 42>
| 43>                          ****END OF INPUT****

CARTESIAN COORDINATES (ANGSTROEM)
---------------------------------
  S    -82.007900   35.089800  135.409000
  C    -80.348900   34.860400  135.902000
  C    -79.772300   36.137600  136.196000
  C    -80.586200   37.213600  135.781000
  C    -81.806200   36.827100  135.292000
  H    -80.469600   38.291700  135.847000
  C    -78.434500   36.423900  136.780000
  H    -78.395900   37.494500  136.923000
  H    -77.685300   36.259200  136.034000
  C    -78.041000   35.585000  138.055000
  H    -77.902700   34.540800  137.732000
  H    -77.112200   35.837200  138.386000
  C    -78.972400   35.654100  139.244000
  H    -78.819400   36.643300  139.671000
  H    -80.045300   35.489200  138.934000
  H    -78.729200   34.865800  139.980000
  S    -84.375200   37.631700  135.923000
  C    -85.082100   38.958500  135.025000
  C    -84.213500   39.519600  134.104000
  C    -82.946400   38.864900  134.109000
  C    -82.940400   37.732200  134.943000
  H    -84.491200   40.456600  133.605000
  C    -81.886300   39.343000  133.164000
  H    -82.413800   39.696400  132.220000
  H    -81.343100   38.436100  132.786000
  C    -80.919600   40.473200  133.648000
  H    -80.369100   40.239500  134.624000
  H    -81.422900   41.396600  133.730000
  C    -79.798100   40.700600  132.602000
  H    -80.055800   40.890900  131.530000
  H    -79.053900   39.837800  132.612000
  H    -79.248200   41.634500  132.741000
  H    -79.981700   33.932100  136.278000
  H    -85.961200   39.563100  135.253000

 Total Charge           Charge          ....    0
 Multiplicity           Mult            ....    1
 Number of Electrons    NEL             ....  134
 Basis Dimension        Dim             ....  322

ORBITAL ENERGIES
----------------

  NO   OCC          E(Eh)            E(eV)
   0   2.0000     -88.970982     -2421.0235
   1   2.0000     -88.967063     -2420.9169
   2   2.0000     -10.329884      -281.0904
   3   2.0000     -10.328571      -281.0547
   4   2.0000     -10.315958      -280.7115
   5   2.0000     -10.315610      -280.7020
   6   2.0000     -10.304756      -280.4067
   7   2.0000     -10.303721      -280.3785
   8   2.0000     -10.299650      -280.2677
   9   2.0000     -10.298367      -280.2328
  10   2.0000     -10.293403      -280.0977
  11   2.0000     -10.290698      -280.0241
  12   2.0000     -10.288855      -279.9740
  13   2.0000     -10.286258      -279.9033
  14   2.0000     -10.280847      -279.7561
  15   2.0000     -10.277997      -279.6785
  16   2.0000      -8.085448      -220.0162
  17   2.0000      -8.081577      -219.9109
  18   2.0000      -6.043940      -164.4640
  19   2.0000      -6.040045      -164.3580
  20   2.0000      -6.039961      -164.3557
  21   2.0000      -6.036182      -164.2529
  22   2.0000      -6.036069      -164.2498
  23   2.0000      -6.032536      -164.1536
  24   2.0000      -1.005631       -27.3646
  25   2.0000      -0.983987       -26.7757
  26   2.0000      -0.910323       -24.7711
  27   2.0000      -0.903858       -24.5952
  28   2.0000      -0.864619       -23.5275
  29   2.0000      -0.854836       -23.2613
  30   2.0000      -0.850517       -23.1437
  31   2.0000      -0.814319       -22.1587
  32   2.0000      -0.779930       -21.2230
  33   2.0000      -0.766098       -20.8466
  34   2.0000      -0.707450       -19.2507
  35   2.0000      -0.703530       -19.1440
  36   2.0000      -0.689383       -18.7591
  37   2.0000      -0.659417       -17.9436
  38   2.0000      -0.644075       -17.5262
  39   2.0000      -0.609770       -16.5927
  40   2.0000      -0.589192       -16.0327
  41   2.0000      -0.573629       -15.6092
  42   2.0000      -0.562644       -15.3103
  43   2.0000      -0.550741       -14.9864
  44   2.0000      -0.543710       -14.7951
  45   2.0000      -0.520021       -14.1505
  46   2.0000      -0.517895       -14.0926
  47   2.0000      -0.509224       -13.8567
  48   2.0000      -0.502412       -13.6713
  49   2.0000      -0.494517       -13.4565
  50   2.0000      -0.486086       -13.2271
  51   2.0000      -0.476118       -12.9558
  52   2.0000      -0.470509       -12.8032
  53   2.0000      -0.463106       -12.6018
  54   2.0000      -0.458968       -12.4892
  55   2.0000      -0.447443       -12.1756
  56   2.0000      -0.440299       -11.9811
  57   2.0000      -0.435892       -11.8612
  58   2.0000      -0.434546       -11.8246
  59   2.0000      -0.426969       -11.6184
  60   2.0000      -0.424567       -11.5531
  61   2.0000      -0.416288       -11.3278
  62   2.0000      -0.415208       -11.2984
  63   2.0000      -0.347148        -9.4464
  64   2.0000      -0.332016        -9.0346
  65   2.0000      -0.327717        -8.9176
  66   2.0000      -0.291740        -7.9387
  67   0.0000       0.029380         0.7995
  68   0.0000       0.062190         1.6923
  69   0.0000       0.110877         3.0171
  70   0.0000       0.123675         3.3654
  71   0.0000       0.125518         3.4155

MULLIKEN ATOMIC CHARGES
-----------------------
   0 S :    0.106596
   1 C :   -0.096327
   2 C :   -0.118410
   3 C :    0.039355
   4 C :   -0.166798
   5 H :    0.002589
   6 C :    0.089146
   7 H :    0.009935
   8 H :    0.036697
   9 C :   -0.048892
  10 H :    0.018276
  11 H :   -0.000660
  12 C :   -0.065006
  13 H :    0.033512
  14 H :    0.050946
  15 H :    0.039132
  16 S :    0.123361
  17 C :   -0.087680
  18 C :   -0.053709
  19 C :   -0.015214
  20 C :   -0.146845
  21 H :    0.029446
  22 C :   -0.005408
  23 H :    0.035147
  24 H :    0.042435
  25 C :   -0.033920
  26 H :    0.048555
  27 H :    0.023649
  28 C :   -0.100152
  29 H :    0.030476
  30 H :    0.045611
  31 H :    0.028788
  32 H :    0.048481
  33 H :    0.056886
Sum of atomic charges:   -0.0000000

LOEWDIN ATOMIC CHARGES
----------------------
   0 S :    0.412429
   1 C :   -0.204719
   2 C :   -0.056117
   3 C :   -0.068137
   4 C :   -0.193253
   5 H :    0.033258
   6 C :   -0.029449
   7 H :    0.026946
   8 H :    0.035830
   9 C :   -0.036068
  10 H :    0.021976
  11 H :    0.010456
  12 C :   -0.068644
  13 H :    0.025059
  14 H :    0.031774
  15 H :    0.029948
  16 S :    0.418513
  17 C :   -0.194760
  18 C :   -0.071674
  19 C :   -0.061993
  20 C :   -0.204125
  21 H :    0.036288
  22 C :   -0.043031
  23 H :    0.039886
  24 H :    0.037964
  25 C :   -0.035105
  26 H :    0.033011
  27 H :    0.018568
  28 C :   -0.082957
  29 H :    0.027102
  30 H :    0.031081
  31 H :    0.024547
  32 H :    0.021430
  33 H :    0.033960

  Mayer bond orders larger than 0.100000
B(  0-S ,  1-C ) :   1.1493 B(  0-S ,  4-C ) :   1.1684 B(  1-C ,  2-C ) :   1.5547
B(  1-C ,  4-C ) :   0.1066 B(  1-C , 32-H ) :   0.9728 B(  2-C ,  3-C ) :   1.2563
B(  2-C ,  6-C ) :   1.0273 B(  3-C ,  4-C ) :   1.5707 B(  3-C ,  5-H ) :   0.9891
B(  4-C , 20-C ) :   1.0098 B(  6-C ,  7-H ) :   0.9422 B(  6-C ,  8-H ) :   0.9307
B(  6-C ,  9-C ) :   1.0677 B(  9-C , 10-H ) :   0.9538 B(  9-C , 11-H ) :   0.9527
B(  9-C , 12-C ) :   1.0800 B( 12-C , 13-H ) :   0.9765 B( 12-C , 14-H ) :   0.9737
B( 12-C , 15-H ) :   0.9727 B( 16-S , 17-C ) :   1.1522 B( 16-S , 20-C ) :   1.1524
B( 17-C , 18-C ) :   1.6243 B( 17-C , 33-H ) :   0.9594 B( 18-C , 19-C ) :   1.2535
B( 18-C , 21-H ) :   0.9823 B( 19-C , 20-C ) :   1.5843 B( 19-C , 22-C ) :   1.0418
B( 22-C , 23-H ) :   0.9406 B( 22-C , 24-H ) :   0.9430 B( 22-C , 25-C ) :   1.0507
B( 25-C , 26-H ) :   0.9528 B( 25-C , 27-H ) :   0.9537 B( 25-C , 28-C ) :   1.0752
B( 28-C , 29-H ) :   0.9737 B( 28-C , 30-H ) :   0.9775 B( 28-C , 31-H ) :   0.9739

Dispersion correction           -0.014429912
FINAL SINGLE POINT ENERGY     -1339.871248039302

DIPOLE MOMENT
-------------
                                X             Y             Z
Electronic contribution:    -23.11012     -10.87641      -0.83055
Nuclear contribution   :     23.60240      11.46069       0.91535
                        -----------------------------------------
Total Dipole Moment    :      0.49228       0.58428       0.08480
                        -----------------------------------------
Magnitude (a.u.)       :      0.76871
Magnitude (Debye)      :      1.95391

Rotational constants in cm-1:     0.017781     0.008816     0.006819
Rotational constants in MHz :   533.065250   264.284052   204.437356

                             ****ORCA TERMINATED NORMALLY****
TOTAL RUN TIME: 0 days 0 hours 0 minutes 34 seconds 978 msec
