                         Program Version 4.2.1 -  RELEASE  -
|  1> ! wB97X-D3 SP def2-SVP
|  2> %pal
|  3> nprocs 16
|  4> end
|  5>
|  6> * xyz 0 1
|  7> S 	 -101.875 	 52.2909 	 119.582
|  8> C 	 -100.34 	 52.0472 	 118.68
|  9> C 	 -100.192 	 53.0103 	 117.745
| 10> C 	 -101.175 	 54.0456 	 117.759
| 11> C 	 -102.164 	 53.8821 	 118.735
| 12> H 	 -101.178 	 54.9512 	 117.163
| 13> C 	 -99.0295 	 53.2111 	 116.822
| 14> H 	 -98.2056 	 52.6554 	 117.262
| 15> H 	 -98.7127 	 54.2954 	 116.949
| 16> C 	 -99.0927 	 52.7288 	 115.371
| 17> H 	 -99.6059 	 53.4931 	 114.729
| 18> H 	 -98.0302 	 52.6999 	 115.051
| 19> C 	 -99.5792 	 51.2994 	 115.104
| 20> H 	 -100.529 	 51.1136 	 115.578
| 21> H 	 -99.7013 	 51.1976 	 113.996
| 22> H 	 -98.8251 	 50.5877 	 115.485
| 23> S 	 -104.837 	 54.0246 	 119.028
| 24> C 	 -105.572 	 55.5663 	 119.339
| 25> C 	 -104.667 	 56.5915 	 119.29
| 26> C 	 -103.318 	 56.1115 	 119.099
| 27> C 	 -103.241 	 54.7454 	 119.112
| 28> H 	 -105.032 	 57.5962 	 119.501
| 29> C 	 -102.204 	 57.1492 	 119.061
| 30> H 	 -101.214 	 56.6778 	 119.319
| 31> H 	 -102.227 	 57.8472 	 119.879
| 32> C 	 -102.146 	 57.8494 	 117.69
| 33> H 	 -103.045 	 58.5177 	 117.544
| 34> H 	 -102.201 	 57.0616 	 116.855
| 35> C 	 -100.876 	 58.7326 	 117.617
| 36> H 	 -100.819 	 59.3854 	 118.491
| 37> H 	 -100.86 	 59.3619 	 116.713
| 38> H 	 -99.9358 	 58.2652 	 117.787
| 39> H 	 -99.6586 	 51.2708 	 118.896
| 40> H 	 -106.622 	 55.6599 	 119.618
| 41> *
| 42>
| 43>                          ****END OF INPUT****

CARTESIAN COORDINATES (ANGSTROEM)
---------------------------------
  S    -101.875000   52.290900  119.582000
  C    -100.340000   52.047200  118.680000
  C    -100.192000   53.010300  117.745000
  C    -101.175000   54.045600  117.759000
  C    -102.164000   53.882100  118.735000
  H    -101.178000   54.951200  117.163000
  C    -99.029500   53.211100  116.822000
  H    -98.205600   52.655400  117.262000
  H    -98.712700   54.295400  116.949000
  C    -99.092700   52.728800  115.371000
  H    -99.605900   53.493100  114.729000
  H    -98.030200   52.699900  115.051000
  C    -99.579200   51.299400  115.104000
  H    -100.529000   51.113600  115.578000
  H    -99.701300   51.197600  113.996000
  H    -98.825100   50.587700  115.485000
  S    -104.837000   54.024600  119.028000
  C    -105.572000   55.566300  119.339000
  C    -104.667000   56.591500  119.290000
  C    -103.318000   56.111500  119.099000
  C    -103.241000   54.745400  119.112000
  H    -105.032000   57.596200  119.501000
  C    -102.204000   57.149200  119.061000
  H    -101.214000   56.677800  119.319000
  H    -102.227000   57.847200  119.879000
  C    -102.146000   57.849400  117.690000
  H    -103.045000   58.517700  117.544000
  H    -102.201000   57.061600  116.855000
  C    -100.876000   58.732600  117.617000
  H    -100.819000   59.385400  118.491000
  H    -100.860000   59.361900  116.713000
  H    -99.935800   58.265200  117.787000
  H    -99.658600   51.270800  118.896000
  H    -106.622000   55.659900  119.618000

 Total Charge           Charge          ....    0
 Multiplicity           Mult            ....    1
 Number of Electrons    NEL             ....  134
 Basis Dimension        Dim             ....  322

ORBITAL ENERGIES
----------------

  NO   OCC          E(Eh)            E(eV)
   0   2.0000     -88.962426     -2420.7907
   1   2.0000     -88.961282     -2420.7595
   2   2.0000     -10.333944      -281.2009
   3   2.0000     -10.324122      -280.9336
   4   2.0000     -10.316403      -280.7236
   5   2.0000     -10.314157      -280.6625
   6   2.0000     -10.306682      -280.4591
   7   2.0000     -10.303163      -280.3633
   8   2.0000     -10.296791      -280.1899
   9   2.0000     -10.296335      -280.1775
  10   2.0000     -10.295325      -280.1500
  11   2.0000     -10.294973      -280.1405
  12   2.0000     -10.292188      -280.0647
  13   2.0000     -10.290790      -280.0266
  14   2.0000     -10.280500      -279.7466
  15   2.0000     -10.280268      -279.7403
  16   2.0000      -8.077940      -219.8119
  17   2.0000      -8.074554      -219.7198
  18   2.0000      -6.036540      -164.2626
  19   2.0000      -6.033298      -164.1744
  20   2.0000      -6.032414      -164.1503
  21   2.0000      -6.029337      -164.0666
  22   2.0000      -6.028466      -164.0429
  23   2.0000      -6.025085      -163.9509
  24   2.0000      -1.006835       -27.3974
  25   2.0000      -0.979649       -26.6576
  26   2.0000      -0.909347       -24.7446
  27   2.0000      -0.908073       -24.7099
  28   2.0000      -0.872622       -23.7453
  29   2.0000      -0.850589       -23.1457
  30   2.0000      -0.841478       -22.8978
  31   2.0000      -0.814016       -22.1505
  32   2.0000      -0.782230       -21.2856
  33   2.0000      -0.774124       -21.0650
  34   2.0000      -0.709748       -19.3132
  35   2.0000      -0.699674       -19.0391
  36   2.0000      -0.692878       -18.8542
  37   2.0000      -0.662851       -18.0371
  38   2.0000      -0.639497       -17.4016
  39   2.0000      -0.618987       -16.8435
  40   2.0000      -0.599518       -16.3137
  41   2.0000      -0.564128       -15.3507
  42   2.0000      -0.556929       -15.1548
  43   2.0000      -0.547717       -14.9042
  44   2.0000      -0.543881       -14.7997
  45   2.0000      -0.531219       -14.4552
  46   2.0000      -0.518661       -14.1135
  47   2.0000      -0.516685       -14.0597
  48   2.0000      -0.505034       -13.7427
  49   2.0000      -0.500238       -13.6122
  50   2.0000      -0.487292       -13.2599
  51   2.0000      -0.477863       -13.0033
  52   2.0000      -0.468561       -12.7502
  53   2.0000      -0.464003       -12.6262
  54   2.0000      -0.456572       -12.4240
  55   2.0000      -0.449030       -12.2187
  56   2.0000      -0.442516       -12.0415
  57   2.0000      -0.437184       -11.8964
  58   2.0000      -0.433000       -11.7825
  59   2.0000      -0.422272       -11.4906
  60   2.0000      -0.415406       -11.3038
  61   2.0000      -0.412392       -11.2218
  62   2.0000      -0.407686       -11.0937
  63   2.0000      -0.350999        -9.5512
  64   2.0000      -0.330885        -9.0039
  65   2.0000      -0.328254        -8.9322
  66   2.0000      -0.293379        -7.9832
  67   0.0000       0.025046         0.6815
  68   0.0000       0.070881         1.9288
  69   0.0000       0.106800         2.9062
  70   0.0000       0.115105         3.1322
  71   0.0000       0.124484         3.3874

MULLIKEN ATOMIC CHARGES
-----------------------
   0 S :    0.074296
   1 C :   -0.106344
   2 C :   -0.068745
   3 C :    0.037336
   4 C :   -0.152187
   5 H :    0.002466
   6 C :    0.042476
   7 H :    0.004362
   8 H :    0.042166
   9 C :   -0.086808
  10 H :    0.036262
  11 H :    0.032873
  12 C :   -0.057468
  13 H :    0.045616
  14 H :    0.045252
  15 H :    0.033574
  16 S :    0.096039
  17 C :   -0.095909
  18 C :   -0.028336
  19 C :   -0.036643
  20 C :   -0.104936
  21 H :    0.024221
  22 C :    0.032205
  23 H :    0.029013
  24 H :    0.023437
  25 C :   -0.111599
  26 H :    0.044352
  27 H :    0.050889
  28 C :   -0.021486
  29 H :    0.013378
  30 H :    0.044659
  31 H :    0.018092
  32 H :    0.033986
  33 H :    0.063509
Sum of atomic charges:    0.0000000

LOEWDIN ATOMIC CHARGES
----------------------
   0 S :    0.344450
   1 C :   -0.168080
   2 C :   -0.071879
   3 C :   -0.056891
   4 C :   -0.164253
   5 H :    0.030575
   6 C :   -0.041720
   7 H :    0.025768
   8 H :    0.041312
   9 C :   -0.048493
  10 H :    0.024037
  11 H :    0.029822
  12 C :   -0.065430
  13 H :    0.023135
  14 H :    0.035511
  15 H :    0.026950
  16 S :    0.405522
  17 C :   -0.181669
  18 C :   -0.071130
  19 C :   -0.050303
  20 C :   -0.201510
  21 H :    0.034906
  22 C :   -0.038250
  23 H :    0.034137
  24 H :    0.027613
  25 C :   -0.042585
  26 H :    0.031164
  27 H :    0.029039
  28 C :   -0.072248
  29 H :    0.026819
  30 H :    0.029606
  31 H :    0.020547
  32 H :    0.022475
  33 H :    0.031058

  Mayer bond orders larger than 0.100000
B(  0-S ,  1-C ) :   1.1085 B(  0-S ,  4-C ) :   1.1199 B(  1-C ,  2-C ) :   1.6394
B(  1-C , 32-H ) :   0.9746 B(  2-C ,  3-C ) :   1.2013 B(  2-C ,  6-C ) :   1.0224
B(  3-C ,  4-C ) :   1.5982 B(  3-C ,  5-H ) :   0.9945 B(  4-C , 20-C ) :   1.0402
B(  6-C ,  7-H ) :   0.9367 B(  6-C ,  8-H ) :   0.9433 B(  6-C ,  9-C ) :   1.0667
B(  9-C , 10-H ) :   0.9570 B(  9-C , 11-H ) :   0.9565 B(  9-C , 12-C ) :   1.0767
B( 12-C , 13-H ) :   0.9749 B( 12-C , 14-H ) :   0.9729 B( 12-C , 15-H ) :   0.9751
B( 16-S , 17-C ) :   1.1540 B( 16-S , 20-C ) :   1.1296 B( 17-C , 18-C ) :   1.6294
B( 17-C , 33-H ) :   0.9649 B( 18-C , 19-C ) :   1.1992 B( 18-C , 21-H ) :   0.9936
B( 19-C , 20-C ) :   1.6322 B( 19-C , 22-C ) :   1.0384 B( 22-C , 23-H ) :   0.9460
B( 22-C , 24-H ) :   0.9406 B( 22-C , 25-C ) :   1.0383 B( 25-C , 26-H ) :   0.9531
B( 25-C , 27-H ) :   0.9555 B( 25-C , 28-C ) :   1.0745 B( 28-C , 29-H ) :   0.9655
B( 28-C , 30-H ) :   0.9756 B( 28-C , 31-H ) :   0.9737

Dispersion correction           -0.014463059
FINAL SINGLE POINT ENERGY     -1339.880008277936

DIPOLE MOMENT
-------------
                                X             Y             Z
Electronic contribution:    -19.03424     -12.16264      16.45755
Nuclear contribution   :     19.42577      12.78657     -16.70988
                        -----------------------------------------
Total Dipole Moment    :      0.39153       0.62393      -0.25233
                        -----------------------------------------
Magnitude (a.u.)       :      0.77862
Magnitude (Debye)      :      1.97910

Rotational constants in cm-1:     0.017421     0.009179     0.006844
Rotational constants in MHz :   522.277825   275.183756   205.175253

                             ****ORCA TERMINATED NORMALLY****
TOTAL RUN TIME: 0 days 0 hours 0 minutes 35 seconds 688 msec
