                         Program Version 4.2.1 -  RELEASE  -
|  1> ! wB97X-D3 SP def2-SVP
|  2> %pal
|  3> nprocs 16
|  4> end
|  5>
|  6> * xyz 0 1
|  7> S 	 19.3549 	 34.3829 	 62.6284
|  8> C 	 19.5393 	 35.2282 	 61.1401
|  9> C 	 18.5387 	 34.8631 	 60.2557
| 10> C 	 17.4748 	 34.2571 	 60.9444
| 11> C 	 17.6639 	 34.0016 	 62.2811
| 12> H 	 16.4809 	 34.0169 	 60.6196
| 13> C 	 18.3601 	 35.4108 	 58.7885
| 14> H 	 17.8781 	 34.6441 	 58.058
| 15> H 	 19.3872 	 35.3368 	 58.3651
| 16> C 	 17.7031 	 36.7844 	 58.598
| 17> H 	 18.4051 	 37.5339 	 59.0564
| 18> H 	 17.7025 	 36.9875 	 57.5372
| 19> C 	 16.2949 	 36.9564 	 59.1463
| 20> H 	 16.2849 	 37.0733 	 60.1908
| 21> H 	 15.7935 	 37.7611 	 58.7231
| 22> H 	 15.7644 	 36.0863 	 58.9164
| 23> S 	 15.1635 	 34.3203 	 63.2942
| 24> C 	 14.4574 	 33.2029 	 64.4119
| 25> C 	 15.4548 	 32.3775 	 64.936
| 26> C 	 16.7364 	 32.4884 	 64.2449
| 27> C 	 16.7068 	 33.4919 	 63.26
| 28> H 	 15.1982 	 31.7273 	 65.765
| 29> C 	 17.9281 	 31.6027 	 64.558
| 30> H 	 18.6771 	 31.5626 	 63.8561
| 31> H 	 17.4821 	 30.6086 	 64.5441
| 32> C 	 18.5294 	 31.7743 	 65.8981
| 33> H 	 19.3993 	 31.1981 	 66.0071
| 34> H 	 17.8954 	 31.3016 	 66.6647
| 35> C 	 18.9246 	 33.2002 	 66.1767
| 36> H 	 17.964 	 33.7161 	 66.3917
| 37> H 	 19.4419 	 33.6054 	 65.3379
| 38> H 	 19.6116 	 33.3034 	 66.9872
| 39> H 	 20.4158 	 35.8453 	 60.9023
| 40> H 	 13.4514 	 33.2719 	 64.7488
| 41> *
| 42>
| 43>                          ****END OF INPUT****

CARTESIAN COORDINATES (ANGSTROEM)
---------------------------------
  S     19.354900   34.382900   62.628400
  C     19.539300   35.228200   61.140100
  C     18.538700   34.863100   60.255700
  C     17.474800   34.257100   60.944400
  C     17.663900   34.001600   62.281100
  H     16.480900   34.016900   60.619600
  C     18.360100   35.410800   58.788500
  H     17.878100   34.644100   58.058000
  H     19.387200   35.336800   58.365100
  C     17.703100   36.784400   58.598000
  H     18.405100   37.533900   59.056400
  H     17.702500   36.987500   57.537200
  C     16.294900   36.956400   59.146300
  H     16.284900   37.073300   60.190800
  H     15.793500   37.761100   58.723100
  H     15.764400   36.086300   58.916400
  S     15.163500   34.320300   63.294200
  C     14.457400   33.202900   64.411900
  C     15.454800   32.377500   64.936000
  C     16.736400   32.488400   64.244900
  C     16.706800   33.491900   63.260000
  H     15.198200   31.727300   65.765000
  C     17.928100   31.602700   64.558000
  H     18.677100   31.562600   63.856100
  H     17.482100   30.608600   64.544100
  C     18.529400   31.774300   65.898100
  H     19.399300   31.198100   66.007100
  H     17.895400   31.301600   66.664700
  C     18.924600   33.200200   66.176700
  H     17.964000   33.716100   66.391700
  H     19.441900   33.605400   65.337900
  H     19.611600   33.303400   66.987200
  H     20.415800   35.845300   60.902300
  H     13.451400   33.271900   64.748800

 Total Charge           Charge          ....    0
 Multiplicity           Mult            ....    1
 Number of Electrons    NEL             ....  134
 Basis Dimension        Dim             ....  322

ORBITAL ENERGIES
----------------

  NO   OCC          E(Eh)            E(eV)
   0   2.0000     -88.965582     -2420.8766
   1   2.0000     -88.964175     -2420.8383
   2   2.0000     -10.329974      -281.0929
   3   2.0000     -10.328793      -281.0607
   4   2.0000     -10.318673      -280.7854
   5   2.0000     -10.316881      -280.7366
   6   2.0000     -10.309594      -280.5383
   7   2.0000     -10.305320      -280.4220
   8   2.0000     -10.304423      -280.3976
   9   2.0000     -10.300071      -280.2792
  10   2.0000     -10.290580      -280.0209
  11   2.0000     -10.288205      -279.9563
  12   2.0000     -10.279577      -279.7215
  13   2.0000     -10.271476      -279.5011
  14   2.0000     -10.263631      -279.2876
  15   2.0000     -10.260833      -279.2115
  16   2.0000      -8.080186      -219.8731
  17   2.0000      -8.079164      -219.8452
  18   2.0000      -6.038653      -164.3201
  19   2.0000      -6.037677      -164.2935
  20   2.0000      -6.034747      -164.2138
  21   2.0000      -6.033567      -164.1817
  22   2.0000      -6.030959      -164.1107
  23   2.0000      -6.029970      -164.0838
  24   2.0000      -1.008595       -27.4453
  25   2.0000      -0.986253       -26.8373
  26   2.0000      -0.920156       -25.0387
  27   2.0000      -0.905139       -24.6301
  28   2.0000      -0.871589       -23.7171
  29   2.0000      -0.848997       -23.1024
  30   2.0000      -0.843704       -22.9584
  31   2.0000      -0.814288       -22.1579
  32   2.0000      -0.788702       -21.4617
  33   2.0000      -0.776949       -21.1419
  34   2.0000      -0.705735       -19.2040
  35   2.0000      -0.698866       -19.0171
  36   2.0000      -0.691112       -18.8061
  37   2.0000      -0.662766       -18.0348
  38   2.0000      -0.640607       -17.4318
  39   2.0000      -0.615593       -16.7511
  40   2.0000      -0.600427       -16.3384
  41   2.0000      -0.573029       -15.5929
  42   2.0000      -0.558857       -15.2073
  43   2.0000      -0.550611       -14.9829
  44   2.0000      -0.547215       -14.8905
  45   2.0000      -0.545570       -14.8457
  46   2.0000      -0.518606       -14.1120
  47   2.0000      -0.511636       -13.9223
  48   2.0000      -0.502684       -13.6787
  49   2.0000      -0.494132       -13.4460
  50   2.0000      -0.488690       -13.2979
  51   2.0000      -0.477984       -13.0066
  52   2.0000      -0.474790       -12.9197
  53   2.0000      -0.469623       -12.7791
  54   2.0000      -0.465663       -12.6713
  55   2.0000      -0.447195       -12.1688
  56   2.0000      -0.441977       -12.0268
  57   2.0000      -0.436163       -11.8686
  58   2.0000      -0.433425       -11.7941
  59   2.0000      -0.421683       -11.4746
  60   2.0000      -0.412426       -11.2227
  61   2.0000      -0.407396       -11.0858
  62   2.0000      -0.405511       -11.0345
  63   2.0000      -0.349503        -9.5105
  64   2.0000      -0.333386        -9.0719
  65   2.0000      -0.326226        -8.8771
  66   2.0000      -0.290422        -7.9028
  67   0.0000       0.027221         0.7407
  68   0.0000       0.066272         1.8033
  69   0.0000       0.101931         2.7737
  70   0.0000       0.115350         3.1388
  71   0.0000       0.135757         3.6941

MULLIKEN ATOMIC CHARGES
-----------------------
   0 S :    0.100016
   1 C :   -0.125296
   2 C :   -0.043767
   3 C :    0.021654
   4 C :   -0.141604
   5 H :    0.002343
   6 C :   -0.014697
   7 H :    0.039687
   8 H :    0.028318
   9 C :   -0.060491
  10 H :    0.028128
  11 H :    0.027476
  12 C :    0.020784
  13 H :    0.030867
  14 H :    0.018569
  15 H :    0.009953
  16 S :    0.103446
  17 C :   -0.092515
  18 C :   -0.041691
  19 C :   -0.048987
  20 C :   -0.161978
  21 H :    0.023783
  22 C :    0.114076
  23 H :   -0.001422
  24 H :    0.021821
  25 C :   -0.062303
  26 H :    0.006140
  27 H :    0.016632
  28 C :   -0.024627
  29 H :    0.049620
  30 H :    0.017258
  31 H :    0.021538
  32 H :    0.062893
  33 H :    0.054377
Sum of atomic charges:   -0.0000000

LOEWDIN ATOMIC CHARGES
----------------------
   0 S :    0.414223
   1 C :   -0.192449
   2 C :   -0.071632
   3 C :   -0.059340
   4 C :   -0.192945
   5 H :    0.026354
   6 C :   -0.045571
   7 H :    0.037912
   8 H :    0.032178
   9 C :   -0.039539
  10 H :    0.026333
  11 H :    0.024061
  12 C :   -0.050953
  13 H :    0.023950
  14 H :    0.021324
  15 H :    0.018968
  16 S :    0.417212
  17 C :   -0.188950
  18 C :   -0.069838
  19 C :   -0.051928
  20 C :   -0.196972
  21 H :    0.031307
  22 C :   -0.028115
  23 H :    0.015196
  24 H :    0.038659
  25 C :   -0.043228
  26 H :    0.017577
  27 H :    0.021188
  28 C :   -0.060538
  29 H :    0.033911
  30 H :    0.011237
  31 H :    0.020877
  32 H :    0.034278
  33 H :    0.025253

  Mayer bond orders larger than 0.100000
B(  0-S ,  1-C ) :   1.1674 B(  0-S ,  4-C ) :   1.1256 B(  1-C ,  2-C ) :   1.5794
B(  1-C , 32-H ) :   0.9700 B(  2-C ,  3-C ) :   1.2269 B(  2-C ,  6-C ) :   1.0177
B(  3-C ,  4-C ) :   1.5842 B(  3-C ,  5-H ) :   1.0001 B(  4-C , 20-C ) :   1.0507
B(  6-C ,  7-H ) :   0.9456 B(  6-C ,  8-H ) :   0.9407 B(  6-C ,  9-C ) :   1.0739
B(  9-C , 10-H ) :   0.9545 B(  9-C , 11-H ) :   0.9521 B(  9-C , 12-C ) :   1.0831
B( 12-C , 13-H ) :   0.9707 B( 12-C , 14-H ) :   0.9698 B( 12-C , 15-H ) :   0.9710
B( 16-S , 17-C ) :   1.1594 B( 16-S , 20-C ) :   1.1519 B( 17-C , 18-C ) :   1.5935
B( 17-C , 33-H ) :   0.9744 B( 18-C , 19-C ) :   1.2303 B( 18-C , 21-H ) :   0.9913
B( 19-C , 20-C ) :   1.5663 B( 19-C , 22-C ) :   1.0432 B( 22-C , 23-H ) :   0.9371
B( 22-C , 24-H ) :   0.9233 B( 22-C , 25-C ) :   1.0920 B( 25-C , 26-H ) :   0.9479
B( 25-C , 27-H ) :   0.9508 B( 25-C , 28-C ) :   1.0768 B( 28-C , 29-H ) :   0.9699
B( 28-C , 30-H ) :   0.9702 B( 28-C , 31-H ) :   0.9711

Dispersion correction           -0.015572970
FINAL SINGLE POINT ENERGY     -1339.864559984234

DIPOLE MOMENT
-------------
                                X             Y             Z
Electronic contribution:     -3.55549      -1.94125       3.61639
Nuclear contribution   :      3.55073       1.87186      -3.75050
                        -----------------------------------------
Total Dipole Moment    :     -0.00477      -0.06938      -0.13411
                        -----------------------------------------
Magnitude (a.u.)       :      0.15107
Magnitude (Debye)      :      0.38399

Rotational constants in cm-1:     0.023250     0.008845     0.006906
Rotational constants in MHz :   697.032061   265.155858   207.036342

                             ****ORCA TERMINATED NORMALLY****
TOTAL RUN TIME: 0 days 0 hours 0 minutes 33 seconds 699 msec
