                         Program Version 4.2.1 -  RELEASE  -
|  1> ! wB97X-D3 SP def2-SVP
|  2> %pal
|  3> nprocs 16
|  4> end
|  5>
|  6> * xyz 0 1
|  7> S 	 -37.6217 	 52.5682 	 110.423
|  8> C 	 -38.8034 	 53.4062 	 111.328
|  9> C 	 -39.7829 	 52.5294 	 111.752
| 10> C 	 -39.5824 	 51.2333 	 111.247
| 11> C 	 -38.5308 	 51.1467 	 110.368
| 12> H 	 -40.2058 	 50.3666 	 111.411
| 13> C 	 -41.0253 	 52.7871 	 112.571
| 14> H 	 -40.7259 	 53.5602 	 113.282
| 15> H 	 -41.198 	 51.9387 	 113.192
| 16> C 	 -42.2699 	 53.2133 	 111.775
| 17> H 	 -42.5852 	 52.4584 	 110.959
| 18> H 	 -43.0115 	 53.3195 	 112.524
| 19> C 	 -42.0884 	 54.5824 	 111.097
| 20> H 	 -42.0213 	 55.4251 	 111.75
| 21> H 	 -41.3155 	 54.8065 	 110.36
| 22> H 	 -42.9897 	 54.8029 	 110.431
| 23> S 	 -36.482 	 49.3404 	 110.287
| 24> C 	 -36.3597 	 48.3671 	 108.826
| 25> C 	 -37.4494 	 48.509 	 108.013
| 26> C 	 -38.3866 	 49.4827 	 108.507
| 27> C 	 -37.9749 	 50.0103 	 109.678
| 28> H 	 -37.5557 	 47.9823 	 107.107
| 29> C 	 -39.6098 	 49.8616 	 107.641
| 30> H 	 -39.3192 	 49.6525 	 106.619
| 31> H 	 -39.8105 	 50.9799 	 107.674
| 32> C 	 -40.8807 	 49.0272 	 107.834
| 33> H 	 -41.5686 	 49.3556 	 107.07
| 34> H 	 -41.3412 	 49.3064 	 108.787
| 35> C 	 -40.7248 	 47.4628 	 107.773
| 36> H 	 -40.2338 	 47.0794 	 108.694
| 37> H 	 -40.1321 	 47.1182 	 106.901
| 38> H 	 -41.6563 	 46.9771 	 107.808
| 39> H 	 -38.7469 	 54.4386 	 111.711
| 40> H 	 -35.4994 	 47.813 	 108.53
| 41> *
| 42>
| 43>                          ****END OF INPUT****

CARTESIAN COORDINATES (ANGSTROEM)
---------------------------------
  S    -37.621700   52.568200  110.423000
  C    -38.803400   53.406200  111.328000
  C    -39.782900   52.529400  111.752000
  C    -39.582400   51.233300  111.247000
  C    -38.530800   51.146700  110.368000
  H    -40.205800   50.366600  111.411000
  C    -41.025300   52.787100  112.571000
  H    -40.725900   53.560200  113.282000
  H    -41.198000   51.938700  113.192000
  C    -42.269900   53.213300  111.775000
  H    -42.585200   52.458400  110.959000
  H    -43.011500   53.319500  112.524000
  C    -42.088400   54.582400  111.097000
  H    -42.021300   55.425100  111.750000
  H    -41.315500   54.806500  110.360000
  H    -42.989700   54.802900  110.431000
  S    -36.482000   49.340400  110.287000
  C    -36.359700   48.367100  108.826000
  C    -37.449400   48.509000  108.013000
  C    -38.386600   49.482700  108.507000
  C    -37.974900   50.010300  109.678000
  H    -37.555700   47.982300  107.107000
  C    -39.609800   49.861600  107.641000
  H    -39.319200   49.652500  106.619000
  H    -39.810500   50.979900  107.674000
  C    -40.880700   49.027200  107.834000
  H    -41.568600   49.355600  107.070000
  H    -41.341200   49.306400  108.787000
  C    -40.724800   47.462800  107.773000
  H    -40.233800   47.079400  108.694000
  H    -40.132100   47.118200  106.901000
  H    -41.656300   46.977100  107.808000
  H    -38.746900   54.438600  111.711000
  H    -35.499400   47.813000  108.530000

 Total Charge           Charge          ....    0
 Multiplicity           Mult            ....    1
 Number of Electrons    NEL             ....  134
 Basis Dimension        Dim             ....  322

ORBITAL ENERGIES
----------------

  NO   OCC          E(Eh)            E(eV)
   0   2.0000     -88.963998     -2420.8335
   1   2.0000     -88.962010     -2420.7794
   2   2.0000     -10.316992      -280.7396
   3   2.0000     -10.315294      -280.6934
   4   2.0000     -10.312651      -280.6215
   5   2.0000     -10.308635      -280.5122
   6   2.0000     -10.298006      -280.2230
   7   2.0000     -10.296038      -280.1695
   8   2.0000     -10.295863      -280.1647
   9   2.0000     -10.291772      -280.0533
  10   2.0000     -10.287892      -279.9478
  11   2.0000     -10.287805      -279.9454
  12   2.0000     -10.287368      -279.9335
  13   2.0000     -10.284249      -279.8486
  14   2.0000     -10.279797      -279.7275
  15   2.0000     -10.277981      -279.6781
  16   2.0000      -8.078925      -219.8387
  17   2.0000      -8.078619      -219.8304
  18   2.0000      -6.037473      -164.2880
  19   2.0000      -6.036885      -164.2720
  20   2.0000      -6.033509      -164.1801
  21   2.0000      -6.032767      -164.1599
  22   2.0000      -6.029606      -164.0739
  23   2.0000      -6.029516      -164.0715
  24   2.0000      -1.016915       -27.6717
  25   2.0000      -0.989204       -26.9176
  26   2.0000      -0.912539       -24.8314
  27   2.0000      -0.902365       -24.5546
  28   2.0000      -0.869527       -23.6610
  29   2.0000      -0.848589       -23.0913
  30   2.0000      -0.843917       -22.9642
  31   2.0000      -0.812019       -22.0962
  32   2.0000      -0.786142       -21.3920
  33   2.0000      -0.777431       -21.1550
  34   2.0000      -0.709703       -19.3120
  35   2.0000      -0.701141       -19.0790
  36   2.0000      -0.687742       -18.7144
  37   2.0000      -0.665737       -18.1156
  38   2.0000      -0.642625       -17.4867
  39   2.0000      -0.617070       -16.7913
  40   2.0000      -0.589757       -16.0481
  41   2.0000      -0.569899       -15.5077
  42   2.0000      -0.552314       -15.0292
  43   2.0000      -0.544471       -14.8158
  44   2.0000      -0.541924       -14.7465
  45   2.0000      -0.541108       -14.7243
  46   2.0000      -0.517848       -14.0914
  47   2.0000      -0.514070       -13.9886
  48   2.0000      -0.499820       -13.6008
  49   2.0000      -0.488753       -13.2996
  50   2.0000      -0.484423       -13.1818
  51   2.0000      -0.478785       -13.0284
  52   2.0000      -0.472290       -12.8517
  53   2.0000      -0.463726       -12.6186
  54   2.0000      -0.457585       -12.4515
  55   2.0000      -0.449949       -12.2437
  56   2.0000      -0.444070       -12.0838
  57   2.0000      -0.442956       -12.0535
  58   2.0000      -0.430002       -11.7010
  59   2.0000      -0.424004       -11.5377
  60   2.0000      -0.419205       -11.4071
  61   2.0000      -0.416080       -11.3221
  62   2.0000      -0.413277       -11.2458
  63   2.0000      -0.336985        -9.1698
  64   2.0000      -0.329205        -8.9581
  65   2.0000      -0.324929        -8.8418
  66   2.0000      -0.305618        -8.3163
  67   0.0000       0.044949         1.2231
  68   0.0000       0.064857         1.7649
  69   0.0000       0.118960         3.2371
  70   0.0000       0.123481         3.3601
  71   0.0000       0.128651         3.5008

MULLIKEN ATOMIC CHARGES
-----------------------
   0 S :    0.129536
   1 C :   -0.124961
   2 C :   -0.108798
   3 C :    0.037563
   4 C :   -0.180829
   5 H :    0.005092
   6 C :    0.079620
   7 H :    0.013733
   8 H :    0.017639
   9 C :   -0.017537
  10 H :    0.049862
  11 H :    0.029122
  12 C :   -0.095056
  13 H :    0.018996
  14 H :    0.037715
  15 H :    0.029632
  16 S :    0.117050
  17 C :   -0.081765
  18 C :   -0.016744
  19 C :   -0.006319
  20 C :   -0.195403
  21 H :   -0.000060
  22 C :    0.064614
  23 H :    0.010369
  24 H :    0.050844
  25 C :   -0.059180
  26 H :    0.029470
  27 H :    0.024708
  28 C :   -0.060941
  29 H :    0.042378
  30 H :    0.034963
  31 H :    0.026951
  32 H :    0.051751
  33 H :    0.045984
Sum of atomic charges:    0.0000000

LOEWDIN ATOMIC CHARGES
----------------------
   0 S :    0.456149
   1 C :   -0.220905
   2 C :   -0.069062
   3 C :   -0.062869
   4 C :   -0.217730
   5 H :    0.029515
   6 C :   -0.032590
   7 H :    0.029622
   8 H :    0.026865
   9 C :   -0.032092
  10 H :    0.037537
  11 H :    0.023811
  12 C :   -0.081855
  13 H :    0.017664
  14 H :    0.026406
  15 H :    0.033957
  16 S :    0.396936
  17 C :   -0.174881
  18 C :   -0.061609
  19 C :   -0.052562
  20 C :   -0.207930
  21 H :    0.022957
  22 C :   -0.031494
  23 H :    0.025604
  24 H :    0.042321
  25 C :   -0.037013
  26 H :    0.023048
  27 H :    0.021282
  28 C :   -0.068478
  29 H :    0.032338
  30 H :    0.025556
  31 H :    0.020734
  32 H :    0.034419
  33 H :    0.024349

  Mayer bond orders larger than 0.100000
B(  0-S ,  1-C ) :   1.1596 B(  0-S ,  4-C ) :   1.1894 B(  1-C ,  2-C ) :   1.5809
B(  1-C ,  4-C ) :   0.1014 B(  1-C , 32-H ) :   0.9652 B(  2-C ,  3-C ) :   1.2724
B(  2-C ,  6-C ) :   1.0238 B(  3-C ,  4-C ) :   1.5547 B(  3-C ,  5-H ) :   1.0007
B(  4-C , 20-C ) :   1.0054 B(  6-C ,  7-H ) :   0.9340 B(  6-C ,  8-H ) :   0.9380
B(  6-C ,  9-C ) :   1.0712 B(  9-C , 10-H ) :   0.9566 B(  9-C , 11-H ) :   0.9512
B(  9-C , 12-C ) :   1.0696 B( 12-C , 13-H ) :   0.9768 B( 12-C , 14-H ) :   0.9751
B( 12-C , 15-H ) :   0.9722 B( 16-S , 17-C ) :   1.1323 B( 16-S , 20-C ) :   1.1355
B( 17-C , 18-C ) :   1.6469 B( 17-C , 33-H ) :   0.9687 B( 18-C , 19-C ) :   1.2124
B( 18-C , 21-H ) :   0.9928 B( 19-C , 20-C ) :   1.6589 B( 19-C , 22-C ) :   1.0313
B( 22-C , 23-H ) :   0.9337 B( 22-C , 24-H ) :   0.9347 B( 22-C , 25-C ) :   1.0771
B( 25-C , 26-H ) :   0.9566 B( 25-C , 27-H ) :   0.9540 B( 25-C , 28-C ) :   1.0748
B( 28-C , 29-H ) :   0.9709 B( 28-C , 30-H ) :   0.9762 B( 28-C , 31-H ) :   0.9736

Dispersion correction           -0.015035961
FINAL SINGLE POINT ENERGY     -1339.882250944492

DIPOLE MOMENT
-------------
                                X             Y             Z
Electronic contribution:     26.23949      -1.61934       4.65057
Nuclear contribution   :    -26.77831       1.58254      -4.78442
                        -----------------------------------------
Total Dipole Moment    :     -0.53883      -0.03680      -0.13385
                        -----------------------------------------
Magnitude (a.u.)       :      0.55642
Magnitude (Debye)      :      1.41431

Rotational constants in cm-1:     0.020228     0.009088     0.007010
Rotational constants in MHz :   606.417129   272.439102   210.151038

                             ****ORCA TERMINATED NORMALLY****
TOTAL RUN TIME: 0 days 0 hours 0 minutes 29 seconds 89 msec
