                         Program Version 4.2.1 -  RELEASE  -
|  1> ! wB97X-D3 SP def2-SVP
|  2> %pal
|  3> nprocs 16
|  4> end
|  5>
|  6> * xyz 0 1
|  7> S 	 9.63396 	 21.8646 	 55.0654
|  8> C 	 9.55193 	 20.6793 	 53.8164
|  9> C 	 8.69764 	 19.6431 	 54.2044
| 10> C 	 7.90643 	 19.9776 	 55.4076
| 11> C 	 8.15484 	 21.2638 	 55.7976
| 12> H 	 7.27093 	 19.3307 	 55.9746
| 13> C 	 8.66547 	 18.2861 	 53.4831
| 14> H 	 9.07283 	 18.4315 	 52.4544
| 15> H 	 7.61875 	 17.9269 	 53.4065
| 16> C 	 9.40701 	 17.1138 	 54.22
| 17> H 	 9.68216 	 16.3073 	 53.452
| 18> H 	 10.3026 	 17.4632 	 54.7468
| 19> C 	 8.52027 	 16.4763 	 55.306
| 20> H 	 8.56365 	 17.1619 	 56.1655
| 21> H 	 7.50283 	 16.4126 	 55.0233
| 22> H 	 8.88668 	 15.4791 	 55.6269
| 23> S 	 8.70117 	 23.0169 	 57.7931
| 24> C 	 7.47139 	 23.3269 	 59.0397
| 25> C 	 6.30652 	 22.5809 	 58.8727
| 26> C 	 6.41794 	 21.9013 	 57.6639
| 27> C 	 7.64814 	 21.8896 	 57.0589
| 28> H 	 5.54407 	 22.5315 	 59.6326
| 29> C 	 5.20707 	 21.1545 	 57.1
| 30> H 	 5.37933 	 21.01 	 56.0376
| 31> H 	 4.34951 	 21.862 	 57.2018
| 32> C 	 4.974 	 19.7678 	 57.6431
| 33> H 	 4.68581 	 19.8072 	 58.7469
| 34> H 	 5.90376 	 19.1751 	 57.5347
| 35> C 	 3.72171 	 19.0898 	 57.0244
| 36> H 	 3.94814 	 18.8229 	 56.015
| 37> H 	 2.84816 	 19.7995 	 56.9577
| 38> H 	 3.44013 	 18.1915 	 57.5159
| 39> H 	 10.265 	 20.5963 	 53.0064
| 40> H 	 7.75344 	 23.941 	 59.8576
| 41> *
| 42>
| 43>                          ****END OF INPUT****

CARTESIAN COORDINATES (ANGSTROEM)
---------------------------------
  S      9.633960   21.864600   55.065400
  C      9.551930   20.679300   53.816400
  C      8.697640   19.643100   54.204400
  C      7.906430   19.977600   55.407600
  C      8.154840   21.263800   55.797600
  H      7.270930   19.330700   55.974600
  C      8.665470   18.286100   53.483100
  H      9.072830   18.431500   52.454400
  H      7.618750   17.926900   53.406500
  C      9.407010   17.113800   54.220000
  H      9.682160   16.307300   53.452000
  H     10.302600   17.463200   54.746800
  C      8.520270   16.476300   55.306000
  H      8.563650   17.161900   56.165500
  H      7.502830   16.412600   55.023300
  H      8.886680   15.479100   55.626900
  S      8.701170   23.016900   57.793100
  C      7.471390   23.326900   59.039700
  C      6.306520   22.580900   58.872700
  C      6.417940   21.901300   57.663900
  C      7.648140   21.889600   57.058900
  H      5.544070   22.531500   59.632600
  C      5.207070   21.154500   57.100000
  H      5.379330   21.010000   56.037600
  H      4.349510   21.862000   57.201800
  C      4.974000   19.767800   57.643100
  H      4.685810   19.807200   58.746900
  H      5.903760   19.175100   57.534700
  C      3.721710   19.089800   57.024400
  H      3.948140   18.822900   56.015000
  H      2.848160   19.799500   56.957700
  H      3.440130   18.191500   57.515900
  H     10.265000   20.596300   53.006400
  H      7.753440   23.941000   59.857600

 Total Charge           Charge          ....    0
 Multiplicity           Mult            ....    1
 Number of Electrons    NEL             ....  134
 Basis Dimension        Dim             ....  322

ORBITAL ENERGIES
----------------

  NO   OCC          E(Eh)            E(eV)
   0   2.0000     -88.965413     -2420.8720
   1   2.0000     -88.965119     -2420.8640
   2   2.0000     -10.333312      -281.1837
   3   2.0000     -10.323398      -280.9140
   4   2.0000     -10.319110      -280.7972
   5   2.0000     -10.315839      -280.7082
   6   2.0000     -10.310327      -280.5583
   7   2.0000     -10.300655      -280.2951
   8   2.0000     -10.299108      -280.2530
   9   2.0000     -10.297345      -280.2050
  10   2.0000     -10.296649      -280.1861
  11   2.0000     -10.295338      -280.1504
  12   2.0000     -10.294645      -280.1315
  13   2.0000     -10.288894      -279.9750
  14   2.0000     -10.278545      -279.6934
  15   2.0000     -10.278535      -279.6932
  16   2.0000      -8.080799      -219.8897
  17   2.0000      -8.080596      -219.8842
  18   2.0000      -6.039456      -164.3419
  19   2.0000      -6.038889      -164.3265
  20   2.0000      -6.035517      -164.2348
  21   2.0000      -6.035152      -164.2248
  22   2.0000      -6.031401      -164.1228
  23   2.0000      -6.031069      -164.1137
  24   2.0000      -1.013113       -27.5682
  25   2.0000      -0.988273       -26.8923
  26   2.0000      -0.910613       -24.7790
  27   2.0000      -0.905052       -24.6277
  28   2.0000      -0.871698       -23.7201
  29   2.0000      -0.854440       -23.2505
  30   2.0000      -0.842318       -22.9206
  31   2.0000      -0.819382       -22.2965
  32   2.0000      -0.779210       -21.2034
  33   2.0000      -0.768637       -20.9157
  34   2.0000      -0.698839       -19.0164
  35   2.0000      -0.695931       -18.9372
  36   2.0000      -0.691408       -18.8142
  37   2.0000      -0.671486       -18.2721
  38   2.0000      -0.644381       -17.5345
  39   2.0000      -0.618749       -16.8370
  40   2.0000      -0.598138       -16.2762
  41   2.0000      -0.574019       -15.6199
  42   2.0000      -0.566916       -15.4266
  43   2.0000      -0.544601       -14.8194
  44   2.0000      -0.541043       -14.7225
  45   2.0000      -0.527615       -14.3571
  46   2.0000      -0.519072       -14.1247
  47   2.0000      -0.506078       -13.7711
  48   2.0000      -0.505398       -13.7526
  49   2.0000      -0.500815       -13.6279
  50   2.0000      -0.491549       -13.3757
  51   2.0000      -0.481400       -13.0995
  52   2.0000      -0.471287       -12.8244
  53   2.0000      -0.465374       -12.6635
  54   2.0000      -0.460326       -12.5261
  55   2.0000      -0.458182       -12.4678
  56   2.0000      -0.444527       -12.0962
  57   2.0000      -0.440084       -11.9753
  58   2.0000      -0.434693       -11.8286
  59   2.0000      -0.426692       -11.6109
  60   2.0000      -0.416586       -11.3359
  61   2.0000      -0.414667       -11.2837
  62   2.0000      -0.408431       -11.1140
  63   2.0000      -0.359507        -9.7827
  64   2.0000      -0.337969        -9.1966
  65   2.0000      -0.321359        -8.7446
  66   2.0000      -0.286627        -7.7995
  67   0.0000       0.022041         0.5998
  68   0.0000       0.074031         2.0145
  69   0.0000       0.086006         2.3403
  70   0.0000       0.116305         3.1648
  71   0.0000       0.128962         3.5092

MULLIKEN ATOMIC CHARGES
-----------------------
   0 S :    0.082526
   1 C :   -0.087860
   2 C :   -0.104544
   3 C :    0.015907
   4 C :   -0.068877
   5 H :   -0.012343
   6 C :    0.037894
   7 H :    0.033387
   8 H :    0.030988
   9 C :   -0.092438
  10 H :    0.045854
  11 H :    0.040780
  12 C :   -0.060587
  13 H :    0.035588
  14 H :    0.019115
  15 H :    0.042996
  16 S :    0.081628
  17 C :   -0.090161
  18 C :   -0.006592
  19 C :   -0.073570
  20 C :   -0.121634
  21 H :    0.026781
  22 C :    0.039730
  23 H :    0.021791
  24 H :    0.034149
  25 C :   -0.104439
  26 H :    0.030637
  27 H :    0.044013
  28 C :   -0.019823
  29 H :    0.015812
  30 H :    0.035776
  31 H :    0.031269
  32 H :    0.049850
  33 H :    0.046398
Sum of atomic charges:   -0.0000000

LOEWDIN ATOMIC CHARGES
----------------------
   0 S :    0.397757
   1 C :   -0.202665
   2 C :   -0.056291
   3 C :   -0.064264
   4 C :   -0.176542
   5 H :    0.024214
   6 C :   -0.036924
   7 H :    0.034186
   8 H :    0.029696
   9 C :   -0.043384
  10 H :    0.031132
  11 H :    0.026086
  12 C :   -0.068646
  13 H :    0.026672
  14 H :    0.013625
  15 H :    0.031075
  16 S :    0.404281
  17 C :   -0.159251
  18 C :   -0.060478
  19 C :   -0.065500
  20 C :   -0.205697
  21 H :    0.037446
  22 C :   -0.037010
  23 H :    0.027169
  24 H :    0.034314
  25 C :   -0.045612
  26 H :    0.027107
  27 H :    0.023732
  28 C :   -0.062607
  29 H :    0.017615
  30 H :    0.032654
  31 H :    0.021056
  32 H :    0.029144
  33 H :    0.015911

  Mayer bond orders larger than 0.100000
B(  0-S ,  1-C ) :   1.1276 B(  0-S ,  4-C ) :   1.1471 B(  1-C ,  2-C ) :   1.6234
B(  1-C , 32-H ) :   0.9697 B(  2-C ,  3-C ) :   1.2056 B(  2-C ,  6-C ) :   1.0373
B(  3-C ,  4-C ) :   1.5699 B(  3-C ,  5-H ) :   1.0003 B(  4-C , 20-C ) :   1.0367
B(  6-C ,  7-H ) :   0.9439 B(  6-C ,  8-H ) :   0.9476 B(  6-C ,  9-C ) :   1.0453
B(  9-C , 10-H ) :   0.9598 B(  9-C , 11-H ) :   0.9604 B(  9-C , 12-C ) :   1.0713
B( 12-C , 13-H ) :   0.9749 B( 12-C , 14-H ) :   0.9778 B( 12-C , 15-H ) :   0.9722
B( 16-S , 17-C ) :   1.1716 B( 16-S , 20-C ) :   1.1301 B( 17-C , 18-C ) :   1.5822
B( 17-C , 33-H ) :   0.9731 B( 18-C , 19-C ) :   1.2444 B( 18-C , 21-H ) :   0.9989
B( 19-C , 20-C ) :   1.6194 B( 19-C , 22-C ) :   1.0415 B( 22-C , 23-H ) :   0.9292
B( 22-C , 24-H ) :   0.9347 B( 22-C , 25-C ) :   1.0691 B( 25-C , 26-H ) :   0.9534
B( 25-C , 27-H ) :   0.9476 B( 25-C , 28-C ) :   1.0737 B( 28-C , 29-H ) :   0.9735
B( 28-C , 30-H ) :   0.9732 B( 28-C , 31-H ) :   0.9754

Dispersion correction           -0.014638444
FINAL SINGLE POINT ENERGY     -1339.870329147309

DIPOLE MOMENT
-------------
                                X             Y             Z
Electronic contribution:     15.53244      26.33786       2.94051
Nuclear contribution   :    -15.81548     -26.91139      -2.82330
                        -----------------------------------------
Total Dipole Moment    :     -0.28304      -0.57354       0.11720
                        -----------------------------------------
Magnitude (a.u.)       :      0.65023
Magnitude (Debye)      :      1.65274

Rotational constants in cm-1:     0.016709     0.010282     0.007053
Rotational constants in MHz :   500.922758   308.238187   211.436964

                             ****ORCA TERMINATED NORMALLY****
TOTAL RUN TIME: 0 days 0 hours 0 minutes 35 seconds 645 msec
