                         Program Version 4.2.1 -  RELEASE  -
|  1> ! wB97X-D3 SP def2-SVP
|  2> %pal
|  3> nprocs 16
|  4> end
|  5>
|  6> * xyz 0 1
|  7> S 	 60.407 	 -7.15287 	 89.2111
|  8> C 	 59.8712 	 -5.65356 	 89.8536
|  9> C 	 59.8213 	 -4.67248 	 88.9077
| 10> C 	 60.2958 	 -5.1358 	 87.6016
| 11> C 	 60.653 	 -6.47883 	 87.5926
| 12> H 	 60.3571 	 -4.5697 	 86.6913
| 13> C 	 59.4797 	 -3.29482 	 89.1309
| 14> H 	 60.4334 	 -2.71868 	 89.055
| 15> H 	 59.194 	 -3.25625 	 90.1678
| 16> C 	 58.3711 	 -2.66907 	 88.3251
| 17> H 	 58.4066 	 -1.55394 	 88.4554
| 18> H 	 58.4697 	 -2.85525 	 87.2596
| 19> C 	 57.0141 	 -3.14773 	 88.8612
| 20> H 	 56.9916 	 -4.12821 	 89.2575
| 21> H 	 56.6105 	 -2.48924 	 89.6645
| 22> H 	 56.3056 	 -3.0917 	 87.981
| 23> S 	 61.5534 	 -9.06175 	 86.9211
| 24> C 	 62.0297 	 -9.40324 	 85.2753
| 25> C 	 61.7787 	 -8.288 	 84.4883
| 26> C 	 61.2759 	 -7.153 	 85.2
| 27> C 	 61.1206 	 -7.36247 	 86.5674
| 28> H 	 61.9769 	 -8.38876 	 83.4364
| 29> C 	 60.8352 	 -5.9388 	 84.3963
| 30> H 	 61.2743 	 -5.98853 	 83.3698
| 31> H 	 61.3081 	 -5.05106 	 84.718
| 32> C 	 59.3076 	 -5.79389 	 84.2268
| 33> H 	 58.8625 	 -5.74651 	 85.163
| 34> H 	 58.9376 	 -6.78886 	 83.8055
| 35> C 	 58.9861 	 -4.50524 	 83.4123
| 36> H 	 58.0878 	 -4.49378 	 82.861
| 37> H 	 59.7984 	 -4.35277 	 82.6827
| 38> H 	 59.0471 	 -3.58656 	 83.9739
| 39> H 	 59.8153 	 -5.47003 	 90.9228
| 40> H 	 62.5183 	 -10.2533 	 84.9313
| 41> *
| 42>
| 43>                          ****END OF INPUT****

CARTESIAN COORDINATES (ANGSTROEM)
---------------------------------
  S     60.407000   -7.152870   89.211100
  C     59.871200   -5.653560   89.853600
  C     59.821300   -4.672480   88.907700
  C     60.295800   -5.135800   87.601600
  C     60.653000   -6.478830   87.592600
  H     60.357100   -4.569700   86.691300
  C     59.479700   -3.294820   89.130900
  H     60.433400   -2.718680   89.055000
  H     59.194000   -3.256250   90.167800
  C     58.371100   -2.669070   88.325100
  H     58.406600   -1.553940   88.455400
  H     58.469700   -2.855250   87.259600
  C     57.014100   -3.147730   88.861200
  H     56.991600   -4.128210   89.257500
  H     56.610500   -2.489240   89.664500
  H     56.305600   -3.091700   87.981000
  S     61.553400   -9.061750   86.921100
  C     62.029700   -9.403240   85.275300
  C     61.778700   -8.288000   84.488300
  C     61.275900   -7.153000   85.200000
  C     61.120600   -7.362470   86.567400
  H     61.976900   -8.388760   83.436400
  C     60.835200   -5.938800   84.396300
  H     61.274300   -5.988530   83.369800
  H     61.308100   -5.051060   84.718000
  C     59.307600   -5.793890   84.226800
  H     58.862500   -5.746510   85.163000
  H     58.937600   -6.788860   83.805500
  C     58.986100   -4.505240   83.412300
  H     58.087800   -4.493780   82.861000
  H     59.798400   -4.352770   82.682700
  H     59.047100   -3.586560   83.973900
  H     59.815300   -5.470030   90.922800
  H     62.518300  -10.253300   84.931300

 Total Charge           Charge          ....    0
 Multiplicity           Mult            ....    1
 Number of Electrons    NEL             ....  134
 Basis Dimension        Dim             ....  322

ORBITAL ENERGIES
----------------

  NO   OCC          E(Eh)            E(eV)
   0   2.0000     -88.967457     -2420.9276
   1   2.0000     -88.961023     -2420.7525
   2   2.0000     -10.334342      -281.2117
   3   2.0000     -10.333199      -281.1807
   4   2.0000     -10.317325      -280.7487
   5   2.0000     -10.310564      -280.5647
   6   2.0000     -10.306537      -280.4551
   7   2.0000     -10.298149      -280.2269
   8   2.0000     -10.296788      -280.1898
   9   2.0000     -10.294999      -280.1412
  10   2.0000     -10.293091      -280.0892
  11   2.0000     -10.289971      -280.0043
  12   2.0000     -10.289682      -279.9965
  13   2.0000     -10.284351      -279.8514
  14   2.0000     -10.279036      -279.7068
  15   2.0000     -10.278263      -279.6858
  16   2.0000      -8.081543      -219.9100
  17   2.0000      -8.076547      -219.7740
  18   2.0000      -6.040225      -164.3629
  19   2.0000      -6.036084      -164.2502
  20   2.0000      -6.035194      -164.2260
  21   2.0000      -6.032206      -164.1447
  22   2.0000      -6.030961      -164.1108
  23   2.0000      -6.027113      -164.0061
  24   2.0000      -1.007908       -27.4266
  25   2.0000      -0.985186       -26.8083
  26   2.0000      -0.922417       -25.1002
  27   2.0000      -0.909433       -24.7469
  28   2.0000      -0.875112       -23.8130
  29   2.0000      -0.851881       -23.1809
  30   2.0000      -0.843255       -22.9461
  31   2.0000      -0.819049       -22.2875
  32   2.0000      -0.782972       -21.3058
  33   2.0000      -0.772705       -21.0264
  34   2.0000      -0.719546       -19.5799
  35   2.0000      -0.707529       -19.2528
  36   2.0000      -0.696205       -18.9447
  37   2.0000      -0.665299       -18.1037
  38   2.0000      -0.641737       -17.4626
  39   2.0000      -0.626408       -17.0454
  40   2.0000      -0.600298       -16.3349
  41   2.0000      -0.568968       -15.4824
  42   2.0000      -0.562540       -15.3075
  43   2.0000      -0.556861       -15.1530
  44   2.0000      -0.537778       -14.6337
  45   2.0000      -0.525391       -14.2966
  46   2.0000      -0.523445       -14.2437
  47   2.0000      -0.521567       -14.1926
  48   2.0000      -0.509678       -13.8690
  49   2.0000      -0.502198       -13.6655
  50   2.0000      -0.491837       -13.3836
  51   2.0000      -0.487419       -13.2633
  52   2.0000      -0.468959       -12.7610
  53   2.0000      -0.464728       -12.6459
  54   2.0000      -0.454020       -12.3545
  55   2.0000      -0.450428       -12.2568
  56   2.0000      -0.443727       -12.0744
  57   2.0000      -0.439270       -11.9532
  58   2.0000      -0.433668       -11.8007
  59   2.0000      -0.427666       -11.6374
  60   2.0000      -0.420153       -11.4329
  61   2.0000      -0.418268       -11.3817
  62   2.0000      -0.407353       -11.0846
  63   2.0000      -0.368195       -10.0191
  64   2.0000      -0.334853        -9.1118
  65   2.0000      -0.323647        -8.8069
  66   2.0000      -0.282025        -7.6743
  67   0.0000       0.013726         0.3735
  68   0.0000       0.089911         2.4466
  69   0.0000       0.094492         2.5713
  70   0.0000       0.116873         3.1803
  71   0.0000       0.125152         3.4056

MULLIKEN ATOMIC CHARGES
-----------------------
   0 S :    0.081652
   1 C :   -0.104508
   2 C :   -0.096725
   3 C :    0.006418
   4 C :   -0.124716
   5 H :   -0.003297
   6 C :    0.062111
   7 H :    0.044170
   8 H :    0.000337
   9 C :   -0.063831
  10 H :    0.037410
  11 H :    0.031783
  12 C :   -0.072516
  13 H :    0.034210
  14 H :    0.038048
  15 H :    0.037002
  16 S :    0.097141
  17 C :   -0.062427
  18 C :   -0.032997
  19 C :   -0.056917
  20 C :   -0.085036
  21 H :    0.016922
  22 C :    0.016234
  23 H :    0.017595
  24 H :    0.020329
  25 C :   -0.042895
  26 H :    0.021428
  27 H :    0.039062
  28 C :   -0.020641
  29 H :    0.032724
  30 H :    0.015748
  31 H :    0.024314
  32 H :    0.053895
  33 H :    0.037973
Sum of atomic charges:    0.0000000

LOEWDIN ATOMIC CHARGES
----------------------
   0 S :    0.396738
   1 C :   -0.206580
   2 C :   -0.063964
   3 C :   -0.064728
   4 C :   -0.169286
   5 H :    0.025631
   6 C :   -0.043084
   7 H :    0.040154
   8 H :    0.027553
   9 C :   -0.041165
  10 H :    0.033464
  11 H :    0.019911
  12 C :   -0.067971
  13 H :    0.018336
  14 H :    0.029580
  15 H :    0.033221
  16 S :    0.390603
  17 C :   -0.171684
  18 C :   -0.068635
  19 C :   -0.054944
  20 C :   -0.186795
  21 H :    0.030636
  22 C :   -0.036529
  23 H :    0.033323
  24 H :    0.018934
  25 C :   -0.033063
  26 H :    0.012209
  27 H :    0.035781
  28 C :   -0.062645
  29 H :    0.022005
  30 H :    0.025799
  31 H :    0.024571
  32 H :    0.031991
  33 H :    0.020633

  Mayer bond orders larger than 0.100000
B(  0-S ,  1-C ) :   1.1278 B(  0-S ,  4-C ) :   1.1352 B(  1-C ,  2-C ) :   1.6280
B(  1-C , 32-H ) :   0.9609 B(  2-C ,  3-C ) :   1.2020 B(  2-C ,  6-C ) :   1.0546
B(  3-C ,  4-C ) :   1.5782 B(  3-C ,  5-H ) :   0.9879 B(  4-C , 20-C ) :   1.1203
B(  6-C ,  7-H ) :   0.9245 B(  6-C ,  8-H ) :   0.9311 B(  6-C ,  9-C ) :   1.0722
B(  9-C , 10-H ) :   0.9525 B(  9-C , 11-H ) :   0.9652 B(  9-C , 12-C ) :   1.0608
B( 12-C , 13-H ) :   0.9824 B( 12-C , 14-H ) :   0.9750 B( 12-C , 15-H ) :   0.9758
B( 16-S , 17-C ) :   1.1531 B( 16-S , 20-C ) :   1.1199 B( 17-C , 18-C ) :   1.5988
B( 17-C , 33-H ) :   0.9755 B( 18-C , 19-C ) :   1.2589 B( 18-C , 21-H ) :   0.9918
B( 19-C , 20-C ) :   1.5693 B( 19-C , 22-C ) :   1.0470 B( 22-C , 23-H ) :   0.9283
B( 22-C , 24-H ) :   0.9314 B( 22-C , 25-C ) :   1.0529 B( 25-C , 26-H ) :   0.9604
B( 25-C , 27-H ) :   0.9532 B( 25-C , 28-C ) :   1.0618 B( 28-C , 29-H ) :   0.9763
B( 28-C , 30-H ) :   0.9741 B( 28-C , 31-H ) :   0.9734

Dispersion correction           -0.014662532
FINAL SINGLE POINT ENERGY     -1339.880381695144

DIPOLE MOMENT
-------------
                                X             Y             Z
Electronic contribution:     15.00078     -25.20603      10.96349
Nuclear contribution   :    -15.06020      25.77666     -11.39715
                        -----------------------------------------
Total Dipole Moment    :     -0.05942       0.57063      -0.43366
                        -----------------------------------------
Magnitude (a.u.)       :      0.71917
Magnitude (Debye)      :      1.82799

Rotational constants in cm-1:     0.018654     0.009889     0.006854
Rotational constants in MHz :   559.243258   296.461970   205.468153

                             ****ORCA TERMINATED NORMALLY****
TOTAL RUN TIME: 0 days 0 hours 0 minutes 31 seconds 711 msec
