                         Program Version 4.2.1 -  RELEASE  -
|  1> ! wB97X-D3 SP def2-SVP
|  2> %pal
|  3> nprocs 16
|  4> end
|  5>
|  6> * xyz 0 1
|  7> S 	 10.4978 	 -13.3065 	 80.8577
|  8> C 	 10.6603 	 -14.5414 	 82.1353
|  9> C 	 10.5261 	 -15.7889 	 81.6125
| 10> C 	 10.1957 	 -15.7658 	 80.2226
| 11> C 	 10.1993 	 -14.5355 	 79.6375
| 12> H 	 10.0933 	 -16.6033 	 79.636
| 13> C 	 10.6788 	 -17.0507 	 82.4548
| 14> H 	 10.23 	 -17.965 	 81.899
| 15> H 	 9.90908 	 -16.7696 	 83.2231
| 16> C 	 12.0703 	 -17.3191 	 82.9588
| 17> H 	 12.64 	 -17.3978 	 82.1011
| 18> H 	 12.4259 	 -16.4639 	 83.4875
| 19> C 	 12.1131 	 -18.5824 	 83.7693
| 20> H 	 12.1139 	 -19.5384 	 83.1828
| 21> H 	 12.9471 	 -18.7039 	 84.3143
| 22> H 	 11.2978 	 -18.6842 	 84.5039
| 23> S 	 10.8679 	 -15.0751 	 76.9446
| 24> C 	 9.88156 	 -14.2841 	 75.7061
| 25> C 	 8.95387 	 -13.4167 	 76.2115
| 26> C 	 8.9662 	 -13.4373 	 77.6313
| 27> C 	 9.97441 	 -14.23 	 78.186
| 28> H 	 8.17239 	 -13.0692 	 75.569
| 29> C 	 7.77788 	 -12.9102 	 78.3227
| 30> H 	 7.89315 	 -13.2964 	 79.3102
| 31> H 	 6.85488 	 -13.4533 	 77.975
| 32> C 	 7.67149 	 -11.3684 	 78.368
| 33> H 	 7.50234 	 -10.9714 	 77.3619
| 34> H 	 8.64743 	 -10.9456 	 78.6658
| 35> C 	 6.54271 	 -10.9121 	 79.2801
| 36> H 	 5.51469 	 -10.9758 	 78.9414
| 37> H 	 6.73271 	 -9.86542 	 79.6612
| 38> H 	 6.64263 	 -11.5546 	 80.1489
| 39> H 	 10.9826 	 -14.4806 	 83.0886
| 40> H 	 9.92302 	 -14.6408 	 74.6672
| 41> *
| 42>
| 43>                          ****END OF INPUT****

CARTESIAN COORDINATES (ANGSTROEM)
---------------------------------
  S     10.497800  -13.306500   80.857700
  C     10.660300  -14.541400   82.135300
  C     10.526100  -15.788900   81.612500
  C     10.195700  -15.765800   80.222600
  C     10.199300  -14.535500   79.637500
  H     10.093300  -16.603300   79.636000
  C     10.678800  -17.050700   82.454800
  H     10.230000  -17.965000   81.899000
  H      9.909080  -16.769600   83.223100
  C     12.070300  -17.319100   82.958800
  H     12.640000  -17.397800   82.101100
  H     12.425900  -16.463900   83.487500
  C     12.113100  -18.582400   83.769300
  H     12.113900  -19.538400   83.182800
  H     12.947100  -18.703900   84.314300
  H     11.297800  -18.684200   84.503900
  S     10.867900  -15.075100   76.944600
  C      9.881560  -14.284100   75.706100
  C      8.953870  -13.416700   76.211500
  C      8.966200  -13.437300   77.631300
  C      9.974410  -14.230000   78.186000
  H      8.172390  -13.069200   75.569000
  C      7.777880  -12.910200   78.322700
  H      7.893150  -13.296400   79.310200
  H      6.854880  -13.453300   77.975000
  C      7.671490  -11.368400   78.368000
  H      7.502340  -10.971400   77.361900
  H      8.647430  -10.945600   78.665800
  C      6.542710  -10.912100   79.280100
  H      5.514690  -10.975800   78.941400
  H      6.732710   -9.865420   79.661200
  H      6.642630  -11.554600   80.148900
  H     10.982600  -14.480600   83.088600
  H      9.923020  -14.640800   74.667200

 Total Charge           Charge          ....    0
 Multiplicity           Mult            ....    1
 Number of Electrons    NEL             ....  134
 Basis Dimension        Dim             ....  322

ORBITAL ENERGIES
----------------

  NO   OCC          E(Eh)            E(eV)
   0   2.0000     -88.968399     -2420.9532
   1   2.0000     -88.967019     -2420.9157
   2   2.0000     -10.331433      -281.1326
   3   2.0000     -10.329862      -281.0898
   4   2.0000     -10.320056      -280.8230
   5   2.0000     -10.304274      -280.3935
   6   2.0000     -10.298628      -280.2399
   7   2.0000     -10.298305      -280.2311
   8   2.0000     -10.295895      -280.1655
   9   2.0000     -10.290511      -280.0190
  10   2.0000     -10.285807      -279.8910
  11   2.0000     -10.284307      -279.8502
  12   2.0000     -10.283899      -279.8391
  13   2.0000     -10.280107      -279.7359
  14   2.0000     -10.275260      -279.6040
  15   2.0000     -10.272704      -279.5345
  16   2.0000      -8.082810      -219.9444
  17   2.0000      -8.080622      -219.8849
  18   2.0000      -6.041384      -164.3944
  19   2.0000      -6.039378      -164.3398
  20   2.0000      -6.037394      -164.2858
  21   2.0000      -6.035238      -164.2272
  22   2.0000      -6.033520      -164.1804
  23   2.0000      -6.031229      -164.1181
  24   2.0000      -1.004940       -27.3458
  25   2.0000      -0.985675       -26.8216
  26   2.0000      -0.919500       -25.0209
  27   2.0000      -0.908880       -24.7319
  28   2.0000      -0.871510       -23.7150
  29   2.0000      -0.853298       -23.2194
  30   2.0000      -0.846009       -23.0211
  31   2.0000      -0.821177       -22.3453
  32   2.0000      -0.782799       -21.3010
  33   2.0000      -0.767417       -20.8825
  34   2.0000      -0.713031       -19.4026
  35   2.0000      -0.704183       -19.1618
  36   2.0000      -0.696842       -18.9620
  37   2.0000      -0.663839       -18.0640
  38   2.0000      -0.640033       -17.4162
  39   2.0000      -0.617143       -16.7933
  40   2.0000      -0.597074       -16.2472
  41   2.0000      -0.579015       -15.7558
  42   2.0000      -0.565590       -15.3905
  43   2.0000      -0.558702       -15.2031
  44   2.0000      -0.530763       -14.4428
  45   2.0000      -0.521488       -14.1904
  46   2.0000      -0.520430       -14.1616
  47   2.0000      -0.513283       -13.9671
  48   2.0000      -0.508754       -13.8439
  49   2.0000      -0.505884       -13.7658
  50   2.0000      -0.488873       -13.3029
  51   2.0000      -0.475660       -12.9434
  52   2.0000      -0.468257       -12.7419
  53   2.0000      -0.458430       -12.4745
  54   2.0000      -0.456890       -12.4326
  55   2.0000      -0.450517       -12.2592
  56   2.0000      -0.444806       -12.1038
  57   2.0000      -0.440392       -11.9837
  58   2.0000      -0.434338       -11.8189
  59   2.0000      -0.424360       -11.5474
  60   2.0000      -0.421972       -11.4824
  61   2.0000      -0.417496       -11.3606
  62   2.0000      -0.411061       -11.1855
  63   2.0000      -0.344570        -9.3762
  64   2.0000      -0.334180        -9.0935
  65   2.0000      -0.328059        -8.9269
  66   2.0000      -0.296759        -8.0752
  67   0.0000       0.031805         0.8655
  68   0.0000       0.070593         1.9209
  69   0.0000       0.103845         2.8258
  70   0.0000       0.117045         3.1849
  71   0.0000       0.131295         3.5727

MULLIKEN ATOMIC CHARGES
-----------------------
   0 S :    0.109041
   1 C :   -0.065198
   2 C :   -0.100484
   3 C :    0.063056
   4 C :   -0.159339
   5 H :   -0.030479
   6 C :   -0.013615
   7 H :    0.037370
   8 H :    0.046080
   9 C :    0.005871
  10 H :    0.015790
  11 H :    0.018896
  12 C :   -0.007083
  13 H :    0.030228
  14 H :   -0.001184
  15 H :    0.024437
  16 S :    0.105041
  17 C :   -0.117918
  18 C :    0.008967
  19 C :   -0.053425
  20 C :   -0.139982
  21 H :    0.023717
  22 C :    0.039344
  23 H :    0.007515
  24 H :    0.043914
  25 C :   -0.063863
  26 H :    0.025379
  27 H :    0.032686
  28 C :   -0.044058
  29 H :    0.038035
  30 H :    0.038982
  31 H :    0.021470
  32 H :   -0.007052
  33 H :    0.067859
Sum of atomic charges:   -0.0000000

LOEWDIN ATOMIC CHARGES
----------------------
   0 S :    0.391043
   1 C :   -0.176869
   2 C :   -0.058700
   3 C :   -0.060806
   4 C :   -0.182745
   5 H :    0.014397
   6 C :   -0.039149
   7 H :    0.037394
   8 H :    0.038678
   9 C :   -0.032421
  10 H :    0.022364
  11 H :    0.023052
  12 C :   -0.060666
  13 H :    0.033998
  14 H :    0.009139
  15 H :    0.028746
  16 S :    0.398735
  17 C :   -0.172708
  18 C :   -0.065969
  19 C :   -0.057112
  20 C :   -0.204080
  21 H :    0.034093
  22 C :   -0.039892
  23 H :    0.019791
  24 H :    0.040031
  25 C :   -0.038450
  26 H :    0.020012
  27 H :    0.029675
  28 C :   -0.071097
  29 H :    0.024246
  30 H :    0.033436
  31 H :    0.024381
  32 H :    0.006212
  33 H :    0.031239

  Mayer bond orders larger than 0.100000
B(  0-S ,  1-C ) :   1.1168 B(  0-S ,  4-C ) :   1.1392 B(  1-C ,  2-C ) :   1.6474
B(  1-C , 32-H ) :   0.9721 B(  2-C ,  3-C ) :   1.2290 B(  2-C ,  6-C ) :   0.9891
B(  3-C ,  4-C ) :   1.5918 B(  3-C ,  5-H ) :   1.0082 B(  4-C , 20-C ) :   1.0062
B(  6-C ,  7-H ) :   0.9504 B(  6-C ,  8-H ) :   0.9403 B(  6-C ,  9-C ) :   1.0600
B(  9-C , 10-H ) :   0.9488 B(  9-C , 11-H ) :   0.9522 B(  9-C , 12-C ) :   1.0901
B( 12-C , 13-H ) :   0.9699 B( 12-C , 14-H ) :   0.9690 B( 12-C , 15-H ) :   0.9732
B( 16-S , 17-C ) :   1.1557 B( 16-S , 20-C ) :   1.1325 B( 17-C , 18-C ) :   1.6227
B( 17-C , 33-H ) :   0.9606 B( 18-C , 19-C ) :   1.2331 B( 18-C , 21-H ) :   0.9888
B( 19-C , 20-C ) :   1.5934 B( 19-C , 22-C ) :   1.0599 B( 22-C , 23-H ) :   0.9205
B( 22-C , 24-H ) :   0.9373 B( 22-C , 25-C ) :   1.0505 B( 25-C , 26-H ) :   0.9574
B( 25-C , 27-H ) :   0.9529 B( 25-C , 28-C ) :   1.0793 B( 28-C , 29-H ) :   0.9758
B( 28-C , 30-H ) :   0.9743 B( 28-C , 31-H ) :   0.9743

Dispersion correction           -0.013957002
FINAL SINGLE POINT ENERGY     -1339.859933427923

DIPOLE MOMENT
-------------
                                X             Y             Z
Electronic contribution:      7.92219       3.81395     -14.25815
Nuclear contribution   :     -8.17334      -4.23982      14.36122
                        -----------------------------------------
Total Dipole Moment    :     -0.25115      -0.42587       0.10307
                        -----------------------------------------
Magnitude (a.u.)       :      0.50504
Magnitude (Debye)      :      1.28371

Rotational constants in cm-1:     0.021725     0.007385     0.005918
Rotational constants in MHz :   651.301793   221.381935   177.419477

                             ****ORCA TERMINATED NORMALLY****
TOTAL RUN TIME: 0 days 0 hours 0 minutes 28 seconds 570 msec
