                         Program Version 4.2.1 -  RELEASE  -
|  1> ! wB97X-D3 SP def2-SVP
|  2> %pal
|  3> nprocs 16
|  4> end
|  5>
|  6> * xyz 0 1
|  7> S 	 25.1036 	 7.81877 	 71.3614
|  8> C 	 24.2326 	 6.47083 	 70.7144
|  9> C 	 23.8175 	 5.52842 	 71.6138
| 10> C 	 24.3692 	 5.82799 	 72.9049
| 11> C 	 24.9924 	 7.05447 	 72.9456
| 12> H 	 24.2144 	 5.19402 	 73.7527
| 13> C 	 23.1498 	 4.24434 	 71.2945
| 14> H 	 22.2171 	 4.4207 	 70.7192
| 15> H 	 22.7481 	 3.78435 	 72.2207
| 16> C 	 24.088 	 3.23475 	 70.6133
| 17> H 	 23.6503 	 2.24674 	 70.2547
| 18> H 	 24.6132 	 3.80418 	 69.8697
| 19> C 	 25.2533 	 2.78567 	 71.541
| 20> H 	 25.617 	 3.61925 	 72.2043
| 21> H 	 24.8928 	 2.10756 	 72.2294
| 22> H 	 26.0622 	 2.17562 	 71.0099
| 23> S 	 24.5097 	 9.2182 	 74.5459
| 24> C 	 25.4607 	 9.51366 	 75.9117
| 25> C 	 26.2826 	 8.45547 	 76.2515
| 26> C 	 26.2157 	 7.46444 	 75.2141
| 27> C 	 25.3778 	 7.76012 	 74.1703
| 28> H 	 26.9304 	 8.31407 	 77.1305
| 29> C 	 27.2423 	 6.34698 	 75.2438
| 30> H 	 28.1759 	 6.89479 	 75.0025
| 31> H 	 27.1341 	 5.84092 	 74.3364
| 32> C 	 27.2831 	 5.4424 	 76.5247
| 33> H 	 27.5645 	 5.92164 	 77.4788
| 34> H 	 28.0177 	 4.70593 	 76.3808
| 35> C 	 25.9645 	 4.54059 	 76.6969
| 36> H 	 26.1352 	 3.77782 	 77.4335
| 37> H 	 25.7958 	 3.99121 	 75.7047
| 38> H 	 25.1134 	 5.2711 	 76.8467
| 39> H 	 24.0816 	 6.40642 	 69.6968
| 40> H 	 25.4263 	 10.3778 	 76.5412
| 41> *
| 42>
| 43>                          ****END OF INPUT****

CARTESIAN COORDINATES (ANGSTROEM)
---------------------------------
  S     25.103600    7.818770   71.361400
  C     24.232600    6.470830   70.714400
  C     23.817500    5.528420   71.613800
  C     24.369200    5.827990   72.904900
  C     24.992400    7.054470   72.945600
  H     24.214400    5.194020   73.752700
  C     23.149800    4.244340   71.294500
  H     22.217100    4.420700   70.719200
  H     22.748100    3.784350   72.220700
  C     24.088000    3.234750   70.613300
  H     23.650300    2.246740   70.254700
  H     24.613200    3.804180   69.869700
  C     25.253300    2.785670   71.541000
  H     25.617000    3.619250   72.204300
  H     24.892800    2.107560   72.229400
  H     26.062200    2.175620   71.009900
  S     24.509700    9.218200   74.545900
  C     25.460700    9.513660   75.911700
  C     26.282600    8.455470   76.251500
  C     26.215700    7.464440   75.214100
  C     25.377800    7.760120   74.170300
  H     26.930400    8.314070   77.130500
  C     27.242300    6.346980   75.243800
  H     28.175900    6.894790   75.002500
  H     27.134100    5.840920   74.336400
  C     27.283100    5.442400   76.524700
  H     27.564500    5.921640   77.478800
  H     28.017700    4.705930   76.380800
  C     25.964500    4.540590   76.696900
  H     26.135200    3.777820   77.433500
  H     25.795800    3.991210   75.704700
  H     25.113400    5.271100   76.846700
  H     24.081600    6.406420   69.696800
  H     25.426300   10.377800   76.541200

 Total Charge           Charge          ....    0
 Multiplicity           Mult            ....    1
 Number of Electrons    NEL             ....  134
 Basis Dimension        Dim             ....  322

ORBITAL ENERGIES
----------------

  NO   OCC          E(Eh)            E(eV)
   0   2.0000     -88.970252     -2421.0036
   1   2.0000     -88.961393     -2420.7626
   2   2.0000     -10.329345      -281.0758
   3   2.0000     -10.318092      -280.7696
   4   2.0000     -10.310399      -280.5602
   5   2.0000     -10.307906      -280.4924
   6   2.0000     -10.298720      -280.2424
   7   2.0000     -10.296682      -280.1870
   8   2.0000     -10.295081      -280.1434
   9   2.0000     -10.294770      -280.1349
  10   2.0000     -10.292724      -280.0793
  11   2.0000     -10.292526      -280.0739
  12   2.0000     -10.290463      -280.0177
  13   2.0000     -10.290294      -280.0131
  14   2.0000     -10.287861      -279.9469
  15   2.0000     -10.276922      -279.6493
  16   2.0000      -8.085235      -220.0104
  17   2.0000      -8.077617      -219.8031
  18   2.0000      -6.043614      -164.4551
  19   2.0000      -6.039837      -164.3523
  20   2.0000      -6.036032      -164.2488
  21   2.0000      -6.035994      -164.2477
  22   2.0000      -6.031914      -164.1367
  23   2.0000      -6.028391      -164.0409
  24   2.0000      -1.011421       -27.5222
  25   2.0000      -0.990959       -26.9654
  26   2.0000      -0.915394       -24.9091
  27   2.0000      -0.901431       -24.5292
  28   2.0000      -0.867823       -23.6147
  29   2.0000      -0.850571       -23.1452
  30   2.0000      -0.843968       -22.9655
  31   2.0000      -0.814481       -22.1632
  32   2.0000      -0.781868       -21.2757
  33   2.0000      -0.770598       -20.9690
  34   2.0000      -0.707152       -19.2426
  35   2.0000      -0.702824       -19.1248
  36   2.0000      -0.693265       -18.8647
  37   2.0000      -0.661254       -17.9936
  38   2.0000      -0.648302       -17.6412
  39   2.0000      -0.618306       -16.8250
  40   2.0000      -0.594818       -16.1858
  41   2.0000      -0.577716       -15.7204
  42   2.0000      -0.552051       -15.0221
  43   2.0000      -0.550947       -14.9920
  44   2.0000      -0.541637       -14.7387
  45   2.0000      -0.531499       -14.4628
  46   2.0000      -0.513599       -13.9757
  47   2.0000      -0.510668       -13.8960
  48   2.0000      -0.501676       -13.6513
  49   2.0000      -0.492456       -13.4004
  50   2.0000      -0.487018       -13.2524
  51   2.0000      -0.473978       -12.8976
  52   2.0000      -0.470513       -12.8033
  53   2.0000      -0.465303       -12.6615
  54   2.0000      -0.456096       -12.4110
  55   2.0000      -0.452644       -12.3171
  56   2.0000      -0.449087       -12.2203
  57   2.0000      -0.443478       -12.0676
  58   2.0000      -0.432523       -11.7695
  59   2.0000      -0.425245       -11.5715
  60   2.0000      -0.422836       -11.5060
  61   2.0000      -0.411767       -11.2048
  62   2.0000      -0.408383       -11.1127
  63   2.0000      -0.344384        -9.3712
  64   2.0000      -0.332931        -9.0595
  65   2.0000      -0.324922        -8.8416
  66   2.0000      -0.297161        -8.0862
  67   0.0000       0.037325         1.0157
  68   0.0000       0.067879         1.8471
  69   0.0000       0.112388         3.0582
  70   0.0000       0.120583         3.2812
  71   0.0000       0.122931         3.3451

MULLIKEN ATOMIC CHARGES
-----------------------
   0 S :    0.127785
   1 C :   -0.092624
   2 C :   -0.095194
   3 C :    0.052313
   4 C :   -0.171956
   5 H :    0.004461
   6 C :    0.055862
   7 H :    0.041381
   8 H :    0.019223
   9 C :   -0.049152
  10 H :    0.049278
  11 H :    0.025219
  12 C :   -0.088739
  13 H :    0.045395
  14 H :    0.001462
  15 H :    0.047391
  16 S :    0.121135
  17 C :   -0.072428
  18 C :   -0.036702
  19 C :   -0.071568
  20 C :   -0.162447
  21 H :    0.026927
  22 C :    0.080907
  23 H :    0.041268
  24 H :   -0.006850
  25 C :   -0.055742
  26 H :    0.037746
  27 H :    0.017235
  28 C :   -0.103028
  29 H :    0.043891
  30 H :    0.039166
  31 H :    0.063311
  32 H :    0.018058
  33 H :    0.047016
Sum of atomic charges:    0.0000000

LOEWDIN ATOMIC CHARGES
----------------------
   0 S :    0.414170
   1 C :   -0.178819
   2 C :   -0.065342
   3 C :   -0.047350
   4 C :   -0.196020
   5 H :    0.028436
   6 C :   -0.038573
   7 H :    0.037810
   8 H :    0.030156
   9 C :   -0.039180
  10 H :    0.034381
  11 H :    0.020132
  12 C :   -0.076566
  13 H :    0.031485
  14 H :    0.007054
  15 H :    0.036266
  16 S :    0.432868
  17 C :   -0.196286
  18 C :   -0.076402
  19 C :   -0.062729
  20 C :   -0.215981
  21 H :    0.035826
  22 C :   -0.032188
  23 H :    0.042394
  24 H :    0.019849
  25 C :   -0.037128
  26 H :    0.024272
  27 H :    0.018120
  28 C :   -0.070365
  29 H :    0.022684
  30 H :    0.029700
  31 H :    0.033465
  32 H :    0.008393
  33 H :    0.025465

  Mayer bond orders larger than 0.100000
B(  0-S ,  1-C ) :   1.1479 B(  0-S ,  4-C ) :   1.1512 B(  1-C ,  2-C ) :   1.6153
B(  1-C , 32-H ) :   0.9736 B(  2-C ,  3-C ) :   1.2362 B(  2-C ,  6-C ) :   1.0377
B(  3-C ,  4-C ) :   1.5809 B(  3-C ,  5-H ) :   0.9947 B(  4-C , 20-C ) :   1.0086
B(  6-C ,  7-H ) :   0.9348 B(  6-C ,  8-H ) :   0.9406 B(  6-C ,  9-C ) :   1.0570
B(  9-C , 10-H ) :   0.9578 B(  9-C , 11-H ) :   0.9605 B(  9-C , 12-C ) :   1.0632
B( 12-C , 13-H ) :   0.9719 B( 12-C , 14-H ) :   0.9729 B( 12-C , 15-H ) :   0.9733
B( 16-S , 17-C ) :   1.1789 B( 16-S , 20-C ) :   1.1366 B( 17-C , 18-C ) :   1.5856
B( 17-C , 33-H ) :   0.9683 B( 18-C , 19-C ) :   1.2484 B( 18-C , 21-H ) :   0.9896
B( 19-C , 20-C ) :   1.6171 B( 19-C , 22-C ) :   1.0355 B( 22-C , 23-H ) :   0.9386
B( 22-C , 24-H ) :   0.9334 B( 22-C , 25-C ) :   1.0566 B( 25-C , 26-H ) :   0.9604
B( 25-C , 27-H ) :   0.9560 B( 25-C , 28-C ) :   1.0595 B( 28-C , 29-H ) :   0.9760
B( 28-C , 30-H ) :   0.9745 B( 28-C , 31-H ) :   0.9775

Dispersion correction           -0.015424356
FINAL SINGLE POINT ENERGY     -1339.865265403988

DIPOLE MOMENT
-------------
                                X             Y             Z
Electronic contribution:     -4.99595      27.62198      -5.16054
Nuclear contribution   :      5.13688     -28.20454       5.31394
                        -----------------------------------------
Total Dipole Moment    :      0.14093      -0.58256       0.15340
                        -----------------------------------------
Magnitude (a.u.)       :      0.61868
Magnitude (Debye)      :      1.57257

Rotational constants in cm-1:     0.018793     0.009805     0.007152
Rotational constants in MHz :   563.402108   293.959286   214.422803

                             ****ORCA TERMINATED NORMALLY****
TOTAL RUN TIME: 0 days 0 hours 0 minutes 36 seconds 992 msec
