                         Program Version 4.2.1 -  RELEASE  -
|  1> ! wB97X-D3 SP def2-SVP
|  2> %pal
|  3> nprocs 16
|  4> end
|  5>
|  6> * xyz 0 1
|  7> S 	 6.69489 	 11.7173 	 82.7026
|  8> C 	 6.86953 	 12.6288 	 81.2311
|  9> C 	 5.65779 	 12.7813 	 80.5756
| 10> C 	 4.60085 	 11.988 	 81.1727
| 11> C 	 4.98363 	 11.3127 	 82.32
| 12> H 	 3.60648 	 11.8715 	 80.7226
| 13> C 	 5.46655 	 13.6467 	 79.3687
| 14> H 	 5.41699 	 12.987 	 78.5005
| 15> H 	 6.3321 	 14.279 	 79.2146
| 16> C 	 4.21124 	 14.4422 	 79.1641
| 17> H 	 3.35724 	 13.7701 	 79.4396
| 18> H 	 4.24805 	 15.1587 	 79.9689
| 19> C 	 4.00345 	 15.0847 	 77.7631
| 20> H 	 3.10478 	 15.6728 	 77.5923
| 21> H 	 4.73777 	 15.8232 	 77.5476
| 22> H 	 4.0334 	 14.2925 	 76.9579
| 23> S 	 3.16843 	 9.21195 	 82.0608
| 24> C 	 2.63342 	 8.43207 	 83.5307
| 25> C 	 3.33528 	 8.90418 	 84.6191
| 26> C 	 4.26261 	 9.95113 	 84.3363
| 27> C 	 4.12924 	 10.3414 	 82.9845
| 28> H 	 3.17448 	 8.43234 	 85.5397
| 29> C 	 5.11074 	 10.5826 	 85.4005
| 30> H 	 5.02031 	 11.614 	 85.2392
| 31> H 	 6.07152 	 10.2221 	 85.0161
| 32> C 	 4.93614 	 10.0466 	 86.8295
| 33> H 	 5.9205 	 10.0627 	 87.3475
| 34> H 	 4.76188 	 9.00832 	 86.6776
| 35> C 	 3.82576 	 10.6193 	 87.7023
| 36> H 	 4.11663 	 11.642 	 87.9774
| 37> H 	 3.69453 	 10.0269 	 88.6208
| 38> H 	 2.82236 	 10.5068 	 87.3393
| 39> H 	 7.69599 	 13.276 	 81.0151
| 40> H 	 1.8128 	 7.76842 	 83.583
| 41> *
| 42>
| 43>                          ****END OF INPUT****

CARTESIAN COORDINATES (ANGSTROEM)
---------------------------------
  S      6.694890   11.717300   82.702600
  C      6.869530   12.628800   81.231100
  C      5.657790   12.781300   80.575600
  C      4.600850   11.988000   81.172700
  C      4.983630   11.312700   82.320000
  H      3.606480   11.871500   80.722600
  C      5.466550   13.646700   79.368700
  H      5.416990   12.987000   78.500500
  H      6.332100   14.279000   79.214600
  C      4.211240   14.442200   79.164100
  H      3.357240   13.770100   79.439600
  H      4.248050   15.158700   79.968900
  C      4.003450   15.084700   77.763100
  H      3.104780   15.672800   77.592300
  H      4.737770   15.823200   77.547600
  H      4.033400   14.292500   76.957900
  S      3.168430    9.211950   82.060800
  C      2.633420    8.432070   83.530700
  C      3.335280    8.904180   84.619100
  C      4.262610    9.951130   84.336300
  C      4.129240   10.341400   82.984500
  H      3.174480    8.432340   85.539700
  C      5.110740   10.582600   85.400500
  H      5.020310   11.614000   85.239200
  H      6.071520   10.222100   85.016100
  C      4.936140   10.046600   86.829500
  H      5.920500   10.062700   87.347500
  H      4.761880    9.008320   86.677600
  C      3.825760   10.619300   87.702300
  H      4.116630   11.642000   87.977400
  H      3.694530   10.026900   88.620800
  H      2.822360   10.506800   87.339300
  H      7.695990   13.276000   81.015100
  H      1.812800    7.768420   83.583000

 Total Charge           Charge          ....    0
 Multiplicity           Mult            ....    1
 Number of Electrons    NEL             ....  134
 Basis Dimension        Dim             ....  322

ORBITAL ENERGIES
----------------

  NO   OCC          E(Eh)            E(eV)
   0   2.0000     -88.967845     -2420.9382
   1   2.0000     -88.967690     -2420.9339
   2   2.0000     -10.332417      -281.1594
   3   2.0000     -10.324460      -280.9428
   4   2.0000     -10.313329      -280.6399
   5   2.0000     -10.311012      -280.5769
   6   2.0000     -10.302850      -280.3548
   7   2.0000     -10.302704      -280.3508
   8   2.0000     -10.295077      -280.1433
   9   2.0000     -10.289280      -279.9855
  10   2.0000     -10.289123      -279.9813
  11   2.0000     -10.288477      -279.9637
  12   2.0000     -10.288042      -279.9519
  13   2.0000     -10.286050      -279.8976
  14   2.0000     -10.284884      -279.8659
  15   2.0000     -10.279768      -279.7267
  16   2.0000      -8.082161      -219.9268
  17   2.0000      -8.081296      -219.9033
  18   2.0000      -6.040731      -164.3766
  19   2.0000      -6.040086      -164.3591
  20   2.0000      -6.036720      -164.2675
  21   2.0000      -6.035971      -164.2471
  22   2.0000      -6.032883      -164.1631
  23   2.0000      -6.031853      -164.1351
  24   2.0000      -1.003779       -27.3142
  25   2.0000      -0.981089       -26.6968
  26   2.0000      -0.915527       -24.9128
  27   2.0000      -0.913525       -24.8583
  28   2.0000      -0.871481       -23.7142
  29   2.0000      -0.853130       -23.2148
  30   2.0000      -0.842699       -22.9310
  31   2.0000      -0.815987       -22.2041
  32   2.0000      -0.788246       -21.4493
  33   2.0000      -0.774826       -21.0841
  34   2.0000      -0.713355       -19.4114
  35   2.0000      -0.708585       -19.2816
  36   2.0000      -0.690891       -18.8001
  37   2.0000      -0.660823       -17.9819
  38   2.0000      -0.630985       -17.1700
  39   2.0000      -0.618946       -16.8424
  40   2.0000      -0.601984       -16.3808
  41   2.0000      -0.574586       -15.6353
  42   2.0000      -0.562204       -15.2983
  43   2.0000      -0.560290       -15.2463
  44   2.0000      -0.540671       -14.7124
  45   2.0000      -0.530291       -14.4299
  46   2.0000      -0.513906       -13.9841
  47   2.0000      -0.511157       -13.9093
  48   2.0000      -0.501389       -13.6435
  49   2.0000      -0.497364       -13.5340
  50   2.0000      -0.489362       -13.3162
  51   2.0000      -0.485996       -13.2246
  52   2.0000      -0.474353       -12.9078
  53   2.0000      -0.468363       -12.7448
  54   2.0000      -0.457623       -12.4526
  55   2.0000      -0.455737       -12.4012
  56   2.0000      -0.446240       -12.1428
  57   2.0000      -0.443249       -12.0614
  58   2.0000      -0.429758       -11.6943
  59   2.0000      -0.421293       -11.4640
  60   2.0000      -0.419355       -11.4112
  61   2.0000      -0.416876       -11.3438
  62   2.0000      -0.413470       -11.2511
  63   2.0000      -0.353823        -9.6280
  64   2.0000      -0.330947        -9.0055
  65   2.0000      -0.324230        -8.8227
  66   2.0000      -0.282768        -7.6945
  67   0.0000       0.021182         0.5764
  68   0.0000       0.079337         2.1589
  69   0.0000       0.105956         2.8832
  70   0.0000       0.113605         3.0913
  71   0.0000       0.130919         3.5625

MULLIKEN ATOMIC CHARGES
-----------------------
   0 S :    0.086201
   1 C :   -0.105995
   2 C :   -0.075066
   3 C :   -0.022780
   4 C :   -0.122527
   5 H :    0.026120
   6 C :    0.076630
   7 H :    0.025283
   8 H :    0.010602
   9 C :   -0.090270
  10 H :    0.031942
  11 H :    0.022828
  12 C :   -0.046868
  13 H :    0.036318
  14 H :    0.024321
  15 H :    0.038007
  16 S :    0.109272
  17 C :   -0.071935
  18 C :   -0.028640
  19 C :   -0.103638
  20 C :   -0.135487
  21 H :   -0.005929
  22 C :    0.109471
  23 H :    0.031619
  24 H :    0.044531
  25 C :   -0.070647
  26 H :    0.036278
  27 H :    0.012341
  28 C :   -0.029362
  29 H :    0.042930
  30 H :    0.027171
  31 H :    0.029700
  32 H :    0.045620
  33 H :    0.041959
Sum of atomic charges:    0.0000000

LOEWDIN ATOMIC CHARGES
----------------------
   0 S :    0.391134
   1 C :   -0.202150
   2 C :   -0.056619
   3 C :   -0.070472
   4 C :   -0.173744
   5 H :    0.031036
   6 C :   -0.038779
   7 H :    0.033390
   8 H :    0.025704
   9 C :   -0.044100
  10 H :    0.026595
  11 H :    0.020180
  12 C :   -0.067084
  13 H :    0.030721
  14 H :    0.021733
  15 H :    0.031793
  16 S :    0.413817
  17 C :   -0.178489
  18 C :   -0.070301
  19 C :   -0.046977
  20 C :   -0.206703
  21 H :    0.020116
  22 C :   -0.032638
  23 H :    0.024428
  24 H :    0.039821
  25 C :   -0.041589
  26 H :    0.033972
  27 H :    0.019228
  28 C :   -0.067595
  29 H :    0.029896
  30 H :    0.031489
  31 H :    0.024290
  32 H :    0.026272
  33 H :    0.021626

  Mayer bond orders larger than 0.100000
B(  0-S ,  1-C ) :   1.1240 B(  0-S ,  4-C ) :   1.1170 B(  1-C ,  2-C ) :   1.6268
B(  1-C , 32-H ) :   0.9621 B(  2-C ,  3-C ) :   1.2203 B(  2-C ,  6-C ) :   1.0404
B(  3-C ,  4-C ) :   1.5571 B(  3-C ,  5-H ) :   0.9888 B(  4-C , 20-C ) :   1.1053
B(  6-C ,  7-H ) :   0.9274 B(  6-C ,  8-H ) :   0.9420 B(  6-C ,  9-C ) :   1.0549
B(  9-C , 10-H ) :   0.9517 B(  9-C , 11-H ) :   0.9564 B(  9-C , 12-C ) :   1.0766
B( 12-C , 13-H ) :   0.9747 B( 12-C , 14-H ) :   0.9751 B( 12-C , 15-H ) :   0.9740
B( 16-S , 17-C ) :   1.1545 B( 16-S , 20-C ) :   1.1398 B( 17-C , 18-C ) :   1.5924
B( 17-C , 33-H ) :   0.9682 B( 18-C , 19-C ) :   1.2613 B( 18-C , 21-H ) :   0.9928
B( 19-C , 20-C ) :   1.5355 B( 19-C , 22-C ) :   1.0075 B( 22-C , 23-H ) :   0.9387
B( 22-C , 24-H ) :   0.9074 B( 22-C , 25-C ) :   1.0846 B( 25-C , 26-H ) :   0.9519
B( 25-C , 27-H ) :   0.9452 B( 25-C , 28-C ) :   1.0868 B( 28-C , 29-H ) :   0.9749
B( 28-C , 30-H ) :   0.9689 B( 28-C , 31-H ) :   0.9722

Dispersion correction           -0.013541290
FINAL SINGLE POINT ENERGY     -1339.870258858222

DIPOLE MOMENT
-------------
                                X             Y             Z
Electronic contribution:      3.50823     -12.75237      -1.62110
Nuclear contribution   :     -3.64673      12.90852       1.77586
                        -----------------------------------------
Total Dipole Moment    :     -0.13850       0.15615       0.15475
                        -----------------------------------------
Magnitude (a.u.)       :      0.25983
Magnitude (Debye)      :      0.66044

Rotational constants in cm-1:     0.023371     0.006929     0.006012
Rotational constants in MHz :   700.658056   207.733511   180.243610

                             ****ORCA TERMINATED NORMALLY****
TOTAL RUN TIME: 0 days 0 hours 0 minutes 31 seconds 165 msec
