                         Program Version 4.2.1 -  RELEASE  -
|  1> ! wB97X-D3 SP def2-SVP
|  2> %pal
|  3> nprocs 16
|  4> end
|  5>
|  6> * xyz 0 1
|  7> S 	 -55.1464 	 30.5056 	 101.132
|  8> C 	 -56.6071 	 30.1504 	 100.287
|  9> C 	 -56.4351 	 30.4786 	 98.9798
| 10> C 	 -55.1559 	 31.1175 	 98.7355
| 11> C 	 -54.3163 	 31.2048 	 99.7914
| 12> H 	 -54.7899 	 31.5858 	 97.843
| 13> C 	 -57.3533 	 30.1078 	 97.8261
| 14> H 	 -57.2664 	 30.7554 	 96.9167
| 15> H 	 -58.3373 	 30.3362 	 98.1786
| 16> C 	 -57.0406 	 28.6566 	 97.3605
| 17> H 	 -55.9833 	 28.6119 	 97.0792
| 18> H 	 -57.1831 	 27.8723 	 98.1371
| 19> C 	 -58.066 	 28.1585 	 96.3039
| 20> H 	 -58.0759 	 28.8196 	 95.4267
| 21> H 	 -57.7366 	 27.2037 	 95.8439
| 22> H 	 -59.1346 	 28.0669 	 96.5967
| 23> S 	 -51.6643 	 30.7805 	 100.255
| 24> C 	 -50.4791 	 31.9422 	 99.8697
| 25> C 	 -51.0954 	 33.0658 	 99.3949
| 26> C 	 -52.5203 	 33.0152 	 99.3037
| 27> C 	 -52.9845 	 31.8277 	 99.8288
| 28> H 	 -50.5085 	 33.8715 	 99.1659
| 29> C 	 -53.2616 	 34.2452 	 98.8406
| 30> H 	 -53.1068 	 35.0827 	 99.5788
| 31> H 	 -54.398 	 34.2235 	 98.944
| 32> C 	 -53.0414 	 34.4784 	 97.417
| 33> H 	 -53.4839 	 33.6518 	 96.9174
| 34> H 	 -51.957 	 34.5117 	 97.171
| 35> C 	 -53.6745 	 35.9208 	 96.9908
| 36> H 	 -54.7263 	 35.9694 	 97.2262
| 37> H 	 -53.4551 	 36.1891 	 95.9097
| 38> H 	 -53.1609 	 36.7029 	 97.6109
| 39> H 	 -57.462 	 29.5567 	 100.636
| 40> H 	 -49.4812 	 31.7001 	 100.025
| 41> *
| 42>
| 43>                          ****END OF INPUT****

CARTESIAN COORDINATES (ANGSTROEM)
---------------------------------
  S    -55.146400   30.505600  101.132000
  C    -56.607100   30.150400  100.287000
  C    -56.435100   30.478600   98.979800
  C    -55.155900   31.117500   98.735500
  C    -54.316300   31.204800   99.791400
  H    -54.789900   31.585800   97.843000
  C    -57.353300   30.107800   97.826100
  H    -57.266400   30.755400   96.916700
  H    -58.337300   30.336200   98.178600
  C    -57.040600   28.656600   97.360500
  H    -55.983300   28.611900   97.079200
  H    -57.183100   27.872300   98.137100
  C    -58.066000   28.158500   96.303900
  H    -58.075900   28.819600   95.426700
  H    -57.736600   27.203700   95.843900
  H    -59.134600   28.066900   96.596700
  S    -51.664300   30.780500  100.255000
  C    -50.479100   31.942200   99.869700
  C    -51.095400   33.065800   99.394900
  C    -52.520300   33.015200   99.303700
  C    -52.984500   31.827700   99.828800
  H    -50.508500   33.871500   99.165900
  C    -53.261600   34.245200   98.840600
  H    -53.106800   35.082700   99.578800
  H    -54.398000   34.223500   98.944000
  C    -53.041400   34.478400   97.417000
  H    -53.483900   33.651800   96.917400
  H    -51.957000   34.511700   97.171000
  C    -53.674500   35.920800   96.990800
  H    -54.726300   35.969400   97.226200
  H    -53.455100   36.189100   95.909700
  H    -53.160900   36.702900   97.610900
  H    -57.462000   29.556700  100.636000
  H    -49.481200   31.700100  100.025000

 Total Charge           Charge          ....    0
 Multiplicity           Mult            ....    1
 Number of Electrons    NEL             ....  134
 Basis Dimension        Dim             ....  322

ORBITAL ENERGIES
----------------

  NO   OCC          E(Eh)            E(eV)
   0   2.0000     -88.961075     -2420.7539
   1   2.0000     -88.959741     -2420.7176
   2   2.0000     -10.328293      -281.0471
   3   2.0000     -10.323598      -280.9194
   4   2.0000     -10.311908      -280.6013
   5   2.0000     -10.311643      -280.5941
   6   2.0000     -10.305416      -280.4246
   7   2.0000     -10.299089      -280.2525
   8   2.0000     -10.296404      -280.1794
   9   2.0000     -10.294424      -280.1255
  10   2.0000     -10.293810      -280.1088
  11   2.0000     -10.291814      -280.0545
  12   2.0000     -10.290277      -280.0127
  13   2.0000     -10.287436      -279.9354
  14   2.0000     -10.286332      -279.9053
  15   2.0000     -10.283146      -279.8186
  16   2.0000      -8.077591      -219.8024
  17   2.0000      -8.075501      -219.7455
  18   2.0000      -6.036003      -164.2480
  19   2.0000      -6.034127      -164.1969
  20   2.0000      -6.031678      -164.1303
  21   2.0000      -6.029705      -164.0766
  22   2.0000      -6.028501      -164.0439
  23   2.0000      -6.026197      -163.9811
  24   2.0000      -1.015455       -27.6319
  25   2.0000      -0.995144       -27.0792
  26   2.0000      -0.919009       -25.0075
  27   2.0000      -0.907732       -24.7007
  28   2.0000      -0.873669       -23.7737
  29   2.0000      -0.847499       -23.0616
  30   2.0000      -0.840527       -22.8719
  31   2.0000      -0.819361       -22.2959
  32   2.0000      -0.779233       -21.2040
  33   2.0000      -0.772301       -21.0154
  34   2.0000      -0.706339       -19.2205
  35   2.0000      -0.700928       -19.0732
  36   2.0000      -0.698312       -19.0020
  37   2.0000      -0.669913       -18.2293
  38   2.0000      -0.645130       -17.5549
  39   2.0000      -0.621147       -16.9023
  40   2.0000      -0.608843       -16.5675
  41   2.0000      -0.573216       -15.5980
  42   2.0000      -0.564050       -15.3486
  43   2.0000      -0.554942       -15.1007
  44   2.0000      -0.528497       -14.3811
  45   2.0000      -0.523398       -14.2424
  46   2.0000      -0.521695       -14.1960
  47   2.0000      -0.515653       -14.0316
  48   2.0000      -0.508772       -13.8444
  49   2.0000      -0.502364       -13.6700
  50   2.0000      -0.494743       -13.4626
  51   2.0000      -0.479972       -13.0607
  52   2.0000      -0.469931       -12.7875
  53   2.0000      -0.466361       -12.6903
  54   2.0000      -0.461642       -12.5619
  55   2.0000      -0.448712       -12.2101
  56   2.0000      -0.443717       -12.0742
  57   2.0000      -0.441556       -12.0154
  58   2.0000      -0.431969       -11.7545
  59   2.0000      -0.416760       -11.3406
  60   2.0000      -0.414674       -11.2838
  61   2.0000      -0.411163       -11.1883
  62   2.0000      -0.407300       -11.0832
  63   2.0000      -0.349866        -9.5203
  64   2.0000      -0.331499        -9.0205
  65   2.0000      -0.324363        -8.8264
  66   2.0000      -0.303657        -8.2629
  67   0.0000       0.039275         1.0687
  68   0.0000       0.075964         2.0671
  69   0.0000       0.122834         3.3425
  70   0.0000       0.127825         3.4783
  71   0.0000       0.131020         3.5652

MULLIKEN ATOMIC CHARGES
-----------------------
   0 S :    0.099945
   1 C :   -0.111747
   2 C :   -0.097553
   3 C :    0.030165
   4 C :   -0.139117
   5 H :   -0.013569
   6 C :    0.062509
   7 H :    0.028566
   8 H :    0.017762
   9 C :   -0.072871
  10 H :    0.040961
  11 H :    0.035708
  12 C :   -0.065632
  13 H :    0.017423
  14 H :    0.034832
  15 H :    0.044727
  16 S :    0.099776
  17 C :   -0.061500
  18 C :   -0.005442
  19 C :   -0.003352
  20 C :   -0.146600
  21 H :   -0.014796
  22 C :    0.008407
  23 H :    0.045101
  24 H :    0.028020
  25 C :   -0.077263
  26 H :    0.029051
  27 H :    0.038067
  28 C :   -0.071387
  29 H :    0.036481
  30 H :    0.051370
  31 H :    0.035392
  32 H :    0.057432
  33 H :    0.039132
Sum of atomic charges:    0.0000000

LOEWDIN ATOMIC CHARGES
----------------------
   0 S :    0.418331
   1 C :   -0.206659
   2 C :   -0.066612
   3 C :   -0.070053
   4 C :   -0.205341
   5 H :    0.024154
   6 C :   -0.033581
   7 H :    0.034409
   8 H :    0.024918
   9 C :   -0.039125
  10 H :    0.030734
  11 H :    0.028069
  12 C :   -0.077564
  13 H :    0.018706
  14 H :    0.028866
  15 H :    0.030199
  16 S :    0.430272
  17 C :   -0.178298
  18 C :   -0.059884
  19 C :   -0.053189
  20 C :   -0.198395
  21 H :    0.015422
  22 C :   -0.048199
  23 H :    0.037790
  24 H :    0.037335
  25 C :   -0.036724
  26 H :    0.020600
  27 H :    0.024980
  28 C :   -0.070297
  29 H :    0.020703
  30 H :    0.032442
  31 H :    0.029333
  32 H :    0.039127
  33 H :    0.017528

  Mayer bond orders larger than 0.100000
B(  0-S ,  1-C ) :   1.1383 B(  0-S ,  4-C ) :   1.1524 B(  1-C ,  2-C ) :   1.6197
B(  1-C , 32-H ) :   0.9676 B(  2-C ,  3-C ) :   1.2237 B(  2-C ,  6-C ) :   1.0249
B(  3-C ,  4-C ) :   1.6036 B(  3-C ,  5-H ) :   1.0047 B(  4-C , 20-C ) :   0.9873
B(  6-C ,  7-H ) :   0.9454 B(  6-C ,  8-H ) :   0.9421 B(  6-C ,  9-C ) :   1.0492
B(  9-C , 10-H ) :   0.9565 B(  9-C , 11-H ) :   0.9620 B(  9-C , 12-C ) :   1.0686
B( 12-C , 13-H ) :   0.9737 B( 12-C , 14-H ) :   0.9740 B( 12-C , 15-H ) :   0.9776
B( 16-S , 17-C ) :   1.1724 B( 16-S , 20-C ) :   1.1672 B( 17-C , 18-C ) :   1.5715
B( 17-C , 33-H ) :   0.9847 B( 18-C , 19-C ) :   1.2324 B( 18-C , 21-H ) :   1.0090
B( 19-C , 20-C ) :   1.5964 B( 19-C , 22-C ) :   1.0333 B( 22-C , 23-H ) :   0.9466
B( 22-C , 24-H ) :   0.9382 B( 22-C , 25-C ) :   1.0404 B( 25-C , 26-H ) :   0.9509
B( 25-C , 27-H ) :   0.9635 B( 25-C , 28-C ) :   1.0622 B( 28-C , 29-H ) :   0.9758
B( 28-C , 30-H ) :   0.9771 B( 28-C , 31-H ) :   0.9774

Dispersion correction           -0.013851262
FINAL SINGLE POINT ENERGY     -1339.869424809235

DIPOLE MOMENT
-------------
                                X             Y             Z
Electronic contribution:     13.53781      -7.47950      22.59236
Nuclear contribution   :    -13.61123       7.73460     -23.14288
                        -----------------------------------------
Total Dipole Moment    :     -0.07342       0.25510      -0.55052
                        -----------------------------------------
Magnitude (a.u.)       :      0.61118
Magnitude (Debye)      :      1.55349

Rotational constants in cm-1:     0.017491     0.008122     0.006518
Rotational constants in MHz :   524.380695   243.483020   195.394695

                             ****ORCA TERMINATED NORMALLY****
TOTAL RUN TIME: 0 days 0 hours 0 minutes 29 seconds 103 msec
