                         Program Version 4.2.1 -  RELEASE  -
|  1> ! wB97X-D3 SP def2-SVP
|  2> %pal
|  3> nprocs 16
|  4> end
|  5>
|  6> * xyz 0 1
|  7> S 	 57.4704 	 26.6803 	 40.5928
|  8> C 	 57.4334 	 27.979 	 39.4874
|  9> C 	 56.2364 	 28.1059 	 38.8254
| 10> C 	 55.3222 	 27.0767 	 39.265
| 11> C 	 55.8252 	 26.3409 	 40.3448
| 12> H 	 54.2963 	 26.9789 	 38.9773
| 13> C 	 55.885 	 29.0444 	 37.7438
| 14> H 	 54.8021 	 29.0896 	 37.4631
| 15> H 	 56.2965 	 28.6755 	 36.8037
| 16> C 	 56.432 	 30.5026 	 37.9889
| 17> H 	 57.545 	 30.3916 	 37.962
| 18> H 	 56.2716 	 31.0725 	 37.078
| 19> C 	 55.9365 	 31.1486 	 39.2923
| 20> H 	 54.8979 	 31.1417 	 39.2045
| 21> H 	 56.3578 	 30.7289 	 40.2294
| 22> H 	 56.1535 	 32.2218 	 39.2456
| 23> S 	 53.74 	 24.5223 	 40.3421
| 24> C 	 53.5192 	 23.4381 	 41.7949
| 25> C 	 54.4534 	 23.7115 	 42.7567
| 26> C 	 55.2822 	 24.7881 	 42.3802
| 27> C 	 55.1252 	 25.2759 	 41.0853
| 28> H 	 54.4988 	 23.0993 	 43.6689
| 29> C 	 56.3952 	 25.2714 	 43.275
| 30> H 	 56.591 	 26.35 	 43.0905
| 31> H 	 57.2755 	 24.7514 	 42.8972
| 32> C 	 56.0672 	 25.1075 	 44.7786
| 33> H 	 55.7803 	 24.1392 	 45.0803
| 34> H 	 55.2247 	 25.7007 	 44.9921
| 35> C 	 57.2707 	 25.5224 	 45.7139
| 36> H 	 56.9145 	 25.7287 	 46.7105
| 37> H 	 57.8026 	 26.4516 	 45.4104
| 38> H 	 58.0531 	 24.8137 	 45.8304
| 39> H 	 58.3569 	 28.5331 	 39.3352
| 40> H 	 52.784 	 22.6836 	 41.9327
| 41> *
| 42>
| 43>                          ****END OF INPUT****

CARTESIAN COORDINATES (ANGSTROEM)
---------------------------------
  S     57.470400   26.680300   40.592800
  C     57.433400   27.979000   39.487400
  C     56.236400   28.105900   38.825400
  C     55.322200   27.076700   39.265000
  C     55.825200   26.340900   40.344800
  H     54.296300   26.978900   38.977300
  C     55.885000   29.044400   37.743800
  H     54.802100   29.089600   37.463100
  H     56.296500   28.675500   36.803700
  C     56.432000   30.502600   37.988900
  H     57.545000   30.391600   37.962000
  H     56.271600   31.072500   37.078000
  C     55.936500   31.148600   39.292300
  H     54.897900   31.141700   39.204500
  H     56.357800   30.728900   40.229400
  H     56.153500   32.221800   39.245600
  S     53.740000   24.522300   40.342100
  C     53.519200   23.438100   41.794900
  C     54.453400   23.711500   42.756700
  C     55.282200   24.788100   42.380200
  C     55.125200   25.275900   41.085300
  H     54.498800   23.099300   43.668900
  C     56.395200   25.271400   43.275000
  H     56.591000   26.350000   43.090500
  H     57.275500   24.751400   42.897200
  C     56.067200   25.107500   44.778600
  H     55.780300   24.139200   45.080300
  H     55.224700   25.700700   44.992100
  C     57.270700   25.522400   45.713900
  H     56.914500   25.728700   46.710500
  H     57.802600   26.451600   45.410400
  H     58.053100   24.813700   45.830400
  H     58.356900   28.533100   39.335200
  H     52.784000   22.683600   41.932700

 Total Charge           Charge          ....    0
 Multiplicity           Mult            ....    1
 Number of Electrons    NEL             ....  134
 Basis Dimension        Dim             ....  322

ORBITAL ENERGIES
----------------

  NO   OCC          E(Eh)            E(eV)
   0   2.0000     -88.966947     -2420.9137
   1   2.0000     -88.964558     -2420.8487
   2   2.0000     -10.328705      -281.0584
   3   2.0000     -10.326108      -280.9877
   4   2.0000     -10.319331      -280.8033
   5   2.0000     -10.308637      -280.5123
   6   2.0000     -10.301126      -280.3079
   7   2.0000     -10.298119      -280.2261
   8   2.0000     -10.294328      -280.1229
   9   2.0000     -10.292959      -280.0856
  10   2.0000     -10.291665      -280.0504
  11   2.0000     -10.291241      -280.0389
  12   2.0000     -10.288640      -279.9681
  13   2.0000     -10.283824      -279.8371
  14   2.0000     -10.275774      -279.6180
  15   2.0000     -10.274820      -279.5921
  16   2.0000      -8.082974      -219.9489
  17   2.0000      -8.078094      -219.8161
  18   2.0000      -6.041306      -164.3923
  19   2.0000      -6.037169      -164.2797
  20   2.0000      -6.036781      -164.2692
  21   2.0000      -6.033996      -164.1934
  22   2.0000      -6.032837      -164.1618
  23   2.0000      -6.028679      -164.0487
  24   2.0000      -1.011699       -27.5297
  25   2.0000      -0.985464       -26.8158
  26   2.0000      -0.911659       -24.8075
  27   2.0000      -0.903152       -24.5760
  28   2.0000      -0.869512       -23.6606
  29   2.0000      -0.853234       -23.2177
  30   2.0000      -0.840553       -22.8726
  31   2.0000      -0.815048       -22.1786
  32   2.0000      -0.784464       -21.3464
  33   2.0000      -0.767756       -20.8917
  34   2.0000      -0.714348       -19.4384
  35   2.0000      -0.703189       -19.1347
  36   2.0000      -0.698456       -19.0060
  37   2.0000      -0.659482       -17.9454
  38   2.0000      -0.643357       -17.5066
  39   2.0000      -0.605483       -16.4760
  40   2.0000      -0.593771       -16.1573
  41   2.0000      -0.579553       -15.7704
  42   2.0000      -0.562274       -15.3003
  43   2.0000      -0.548948       -14.9376
  44   2.0000      -0.540165       -14.6986
  45   2.0000      -0.526891       -14.3374
  46   2.0000      -0.515529       -14.0283
  47   2.0000      -0.510435       -13.8896
  48   2.0000      -0.504751       -13.7350
  49   2.0000      -0.497662       -13.5421
  50   2.0000      -0.487294       -13.2599
  51   2.0000      -0.473704       -12.8901
  52   2.0000      -0.470876       -12.8132
  53   2.0000      -0.467433       -12.7195
  54   2.0000      -0.459604       -12.5065
  55   2.0000      -0.451924       -12.2975
  56   2.0000      -0.446894       -12.1606
  57   2.0000      -0.442611       -12.0441
  58   2.0000      -0.430941       -11.7265
  59   2.0000      -0.425577       -11.5805
  60   2.0000      -0.424273       -11.5451
  61   2.0000      -0.412243       -11.2177
  62   2.0000      -0.408312       -11.1107
  63   2.0000      -0.359448        -9.7811
  64   2.0000      -0.330282        -8.9874
  65   2.0000      -0.327193        -8.9034
  66   2.0000      -0.281874        -7.6702
  67   0.0000       0.023593         0.6420
  68   0.0000       0.084767         2.3066
  69   0.0000       0.108507         2.9526
  70   0.0000       0.120773         3.2864
  71   0.0000       0.129950         3.5361

MULLIKEN ATOMIC CHARGES
-----------------------
   0 S :    0.106572
   1 C :   -0.140623
   2 C :   -0.042334
   3 C :   -0.008095
   4 C :   -0.138975
   5 H :    0.010492
   6 C :    0.041302
   7 H :    0.026519
   8 H :    0.036871
   9 C :   -0.113868
  10 H :    0.023337
  11 H :    0.024983
  12 C :   -0.006577
  13 H :    0.017101
  14 H :    0.059896
  15 H :    0.026942
  16 S :    0.077700
  17 C :   -0.071083
  18 C :   -0.040845
  19 C :   -0.074134
  20 C :   -0.090064
  21 H :    0.035088
  22 C :    0.028614
  23 H :    0.040903
  24 H :    0.046292
  25 C :   -0.041055
  26 H :    0.016582
  27 H :    0.024054
  28 C :   -0.043362
  29 H :    0.023304
  30 H :    0.026532
  31 H :    0.026142
  32 H :    0.051853
  33 H :    0.039934
Sum of atomic charges:    0.0000000

LOEWDIN ATOMIC CHARGES
----------------------
   0 S :    0.463184
   1 C :   -0.216436
   2 C :   -0.058918
   3 C :   -0.068612
   4 C :   -0.201812
   5 H :    0.022568
   6 C :   -0.039313
   7 H :    0.031854
   8 H :    0.036484
   9 C :   -0.043033
  10 H :    0.021039
  11 H :    0.023256
  12 C :   -0.063445
  13 H :    0.019063
  14 H :    0.035695
  15 H :    0.029868
  16 S :    0.378121
  17 C :   -0.152855
  18 C :   -0.072132
  19 C :   -0.066239
  20 C :   -0.196912
  21 H :    0.040810
  22 C :   -0.042776
  23 H :    0.026534
  24 H :    0.030224
  25 C :   -0.027709
  26 H :    0.014512
  27 H :    0.023352
  28 C :   -0.064947
  29 H :    0.023469
  30 H :    0.027490
  31 H :    0.018955
  32 H :    0.025308
  33 H :    0.023353

  Mayer bond orders larger than 0.100000
B(  0-S ,  1-C ) :   1.1507 B(  0-S ,  4-C ) :   1.1807 B(  1-C ,  2-C ) :   1.5772
B(  1-C , 32-H ) :   0.9696 B(  2-C ,  3-C ) :   1.2651 B(  2-C ,  6-C ) :   1.0291
B(  3-C ,  4-C ) :   1.5341 B(  3-C ,  5-H ) :   0.9917 B(  4-C , 20-C ) :   1.0566
B(  6-C ,  7-H ) :   0.9455 B(  6-C ,  8-H ) :   0.9293 B(  6-C ,  9-C ) :   1.0783
B(  9-C , 10-H ) :   0.9522 B(  9-C , 11-H ) :   0.9567 B(  9-C , 12-C ) :   1.0685
B( 12-C , 13-H ) :   0.9748 B( 12-C , 14-H ) :   0.9712 B( 12-C , 15-H ) :   0.9712
B( 16-S , 17-C ) :   1.1360 B( 16-S , 20-C ) :   1.1213 B( 17-C , 18-C ) :   1.6291
B( 17-C , 33-H ) :   0.9672 B( 18-C , 19-C ) :   1.2388 B( 18-C , 21-H ) :   0.9838
B( 19-C , 20-C ) :   1.5829 B( 19-C , 22-C ) :   1.0344 B( 22-C , 23-H ) :   0.9256
B( 22-C , 24-H ) :   0.9408 B( 22-C , 25-C ) :   1.0634 B( 25-C , 26-H ) :   0.9507
B( 25-C , 27-H ) :   0.9600 B( 25-C , 28-C ) :   1.0786 B( 28-C , 29-H ) :   0.9753
B( 28-C , 30-H ) :   0.9759 B( 28-C , 31-H ) :   0.9788

Dispersion correction           -0.013846730
FINAL SINGLE POINT ENERGY     -1339.880675352273

DIPOLE MOMENT
-------------
                                X             Y             Z
Electronic contribution:     -5.58018     -15.38485      -8.47648
Nuclear contribution   :      5.65300      15.59445       8.62135
                        -----------------------------------------
Total Dipole Moment    :      0.07282       0.20961       0.14487
                        -----------------------------------------
Magnitude (a.u.)       :      0.26500
Magnitude (Debye)      :      0.67357

Rotational constants in cm-1:     0.020745     0.007924     0.006333
Rotational constants in MHz :   621.909698   237.556190   189.871967

                             ****ORCA TERMINATED NORMALLY****
TOTAL RUN TIME: 0 days 0 hours 0 minutes 29 seconds 712 msec
