                         Program Version 4.2.1 -  RELEASE  -
|  1> ! wB97X-D3 SP def2-SVP
|  2> %pal
|  3> nprocs 16
|  4> end
|  5>
|  6> * xyz 0 1
|  7> S 	 -75.4842 	 38.5873 	 123.646
|  8> C 	 -74.2274 	 38.9272 	 124.884
|  9> C 	 -72.9963 	 38.5745 	 124.414
| 10> C 	 -73.0528 	 37.9723 	 123.124
| 11> C 	 -74.2675 	 38.1601 	 122.447
| 12> H 	 -72.1665 	 37.6735 	 122.498
| 13> C 	 -71.6345 	 38.6181 	 125.058
| 14> H 	 -71.3577 	 39.614 	 125.414
| 15> H 	 -70.909 	 38.4753 	 124.26
| 16> C 	 -71.2929 	 37.7642 	 126.3
| 17> H 	 -70.3783 	 38.0417 	 126.859
| 18> H 	 -72.0707 	 37.9476 	 127.04
| 19> C 	 -71.3197 	 36.2557 	 126.06
| 20> H 	 -72.2616 	 36.0288 	 125.551
| 21> H 	 -70.5255 	 35.8757 	 125.374
| 22> H 	 -71.2872 	 35.6765 	 126.985
| 23> S 	 -75.2681 	 39.3562 	 120.156
| 24> C 	 -75.3694 	 38.4238 	 118.694
| 25> C 	 -74.8503 	 37.177 	 118.817
| 26> C 	 -74.3133 	 36.9307 	 120.151
| 27> C 	 -74.5688 	 37.9654 	 121.056
| 28> H 	 -74.7803 	 36.5043 	 117.937
| 29> C 	 -73.6149 	 35.6526 	 120.498
| 30> H 	 -73.581 	 35.5529 	 121.609
| 31> H 	 -72.5589 	 35.8919 	 120.168
| 32> C 	 -73.8778 	 34.3934 	 119.715
| 33> H 	 -73.6494 	 34.5774 	 118.642
| 34> H 	 -74.9468 	 34.0565 	 119.726
| 35> C 	 -73.038 	 33.2037 	 120.209
| 36> H 	 -73.2011 	 32.8041 	 121.215
| 37> H 	 -71.9967 	 33.4647 	 120.14
| 38> H 	 -73.1391 	 32.3066 	 119.64
| 39> H 	 -74.5274 	 39.3461 	 125.786
| 40> H 	 -75.8456 	 38.6697 	 117.736
| 41> *
| 42>
| 43>                          ****END OF INPUT****

CARTESIAN COORDINATES (ANGSTROEM)
---------------------------------
  S    -75.484200   38.587300  123.646000
  C    -74.227400   38.927200  124.884000
  C    -72.996300   38.574500  124.414000
  C    -73.052800   37.972300  123.124000
  C    -74.267500   38.160100  122.447000
  H    -72.166500   37.673500  122.498000
  C    -71.634500   38.618100  125.058000
  H    -71.357700   39.614000  125.414000
  H    -70.909000   38.475300  124.260000
  C    -71.292900   37.764200  126.300000
  H    -70.378300   38.041700  126.859000
  H    -72.070700   37.947600  127.040000
  C    -71.319700   36.255700  126.060000
  H    -72.261600   36.028800  125.551000
  H    -70.525500   35.875700  125.374000
  H    -71.287200   35.676500  126.985000
  S    -75.268100   39.356200  120.156000
  C    -75.369400   38.423800  118.694000
  C    -74.850300   37.177000  118.817000
  C    -74.313300   36.930700  120.151000
  C    -74.568800   37.965400  121.056000
  H    -74.780300   36.504300  117.937000
  C    -73.614900   35.652600  120.498000
  H    -73.581000   35.552900  121.609000
  H    -72.558900   35.891900  120.168000
  C    -73.877800   34.393400  119.715000
  H    -73.649400   34.577400  118.642000
  H    -74.946800   34.056500  119.726000
  C    -73.038000   33.203700  120.209000
  H    -73.201100   32.804100  121.215000
  H    -71.996700   33.464700  120.140000
  H    -73.139100   32.306600  119.640000
  H    -74.527400   39.346100  125.786000
  H    -75.845600   38.669700  117.736000

 Total Charge           Charge          ....    0
 Multiplicity           Mult            ....    1
 Number of Electrons    NEL             ....  134
 Basis Dimension        Dim             ....  322

ORBITAL ENERGIES
----------------

  NO   OCC          E(Eh)            E(eV)
   0   2.0000     -88.964595     -2420.8497
   1   2.0000     -88.964518     -2420.8476
   2   2.0000     -10.333350      -281.1847
   3   2.0000     -10.328661      -281.0571
   4   2.0000     -10.317341      -280.7491
   5   2.0000     -10.316336      -280.7218
   6   2.0000     -10.310387      -280.5599
   7   2.0000     -10.305515      -280.4273
   8   2.0000     -10.299303      -280.2583
   9   2.0000     -10.297005      -280.1957
  10   2.0000     -10.295868      -280.1648
  11   2.0000     -10.295794      -280.1628
  12   2.0000     -10.292837      -280.0823
  13   2.0000     -10.288971      -279.9771
  14   2.0000     -10.276328      -279.6331
  15   2.0000     -10.275185      -279.6020
  16   2.0000      -8.078893      -219.8379
  17   2.0000      -8.078755      -219.8341
  18   2.0000      -6.037641      -164.2926
  19   2.0000      -6.037352      -164.2847
  20   2.0000      -6.033485      -164.1795
  21   2.0000      -6.033343      -164.1756
  22   2.0000      -6.029410      -164.0686
  23   2.0000      -6.029377      -164.0677
  24   2.0000      -1.003453       -27.3053
  25   2.0000      -0.982283       -26.7293
  26   2.0000      -0.913156       -24.8482
  27   2.0000      -0.910003       -24.7624
  28   2.0000      -0.872310       -23.7368
  29   2.0000      -0.851055       -23.1584
  30   2.0000      -0.843511       -22.9531
  31   2.0000      -0.814025       -22.1508
  32   2.0000      -0.784226       -21.3399
  33   2.0000      -0.775033       -21.0897
  34   2.0000      -0.711818       -19.3696
  35   2.0000      -0.705007       -19.1842
  36   2.0000      -0.696288       -18.9470
  37   2.0000      -0.652167       -17.7464
  38   2.0000      -0.644319       -17.5328
  39   2.0000      -0.612570       -16.6689
  40   2.0000      -0.594949       -16.1894
  41   2.0000      -0.572364       -15.5748
  42   2.0000      -0.568281       -15.4637
  43   2.0000      -0.548749       -14.9322
  44   2.0000      -0.542798       -14.7703
  45   2.0000      -0.522381       -14.2147
  46   2.0000      -0.518404       -14.1065
  47   2.0000      -0.514384       -13.9971
  48   2.0000      -0.501098       -13.6356
  49   2.0000      -0.498444       -13.5633
  50   2.0000      -0.485049       -13.1989
  51   2.0000      -0.479140       -13.0381
  52   2.0000      -0.477563       -12.9951
  53   2.0000      -0.464871       -12.6498
  54   2.0000      -0.460362       -12.5271
  55   2.0000      -0.451022       -12.2729
  56   2.0000      -0.440738       -11.9931
  57   2.0000      -0.432411       -11.7665
  58   2.0000      -0.429343       -11.6830
  59   2.0000      -0.425851       -11.5880
  60   2.0000      -0.421473       -11.4689
  61   2.0000      -0.413608       -11.2548
  62   2.0000      -0.412003       -11.2112
  63   2.0000      -0.345113        -9.3910
  64   2.0000      -0.332985        -9.0610
  65   2.0000      -0.325011        -8.8440
  66   2.0000      -0.294224        -8.0063
  67   0.0000       0.022526         0.6130
  68   0.0000       0.068063         1.8521
  69   0.0000       0.111005         3.0206
  70   0.0000       0.117418         3.1951
  71   0.0000       0.124082         3.3764

MULLIKEN ATOMIC CHARGES
-----------------------
   0 S :    0.097561
   1 C :   -0.113327
   2 C :   -0.047526
   3 C :    0.005821
   4 C :   -0.174536
   5 H :    0.038377
   6 C :    0.076737
   7 H :    0.027426
   8 H :    0.014417
   9 C :   -0.067773
  10 H :    0.033373
  11 H :    0.019777
  12 C :   -0.068424
  13 H :    0.033483
  14 H :    0.030036
  15 H :    0.035588
  16 S :    0.105652
  17 C :   -0.068950
  18 C :   -0.067273
  19 C :   -0.009566
  20 C :   -0.161141
  21 H :    0.033924
  22 C :    0.021383
  23 H :    0.045209
  24 H :    0.041784
  25 C :   -0.083855
  26 H :    0.035460
  27 H :    0.040013
  28 C :   -0.032604
  29 H :    0.033651
  30 H :    0.016622
  31 H :    0.021574
  32 H :    0.028274
  33 H :    0.058831
Sum of atomic charges:    0.0000000

LOEWDIN ATOMIC CHARGES
----------------------
   0 S :    0.384970
   1 C :   -0.162369
   2 C :   -0.064384
   3 C :   -0.069024
   4 C :   -0.191014
   5 H :    0.038945
   6 C :   -0.033263
   7 H :    0.036695
   8 H :    0.028091
   9 C :   -0.043888
  10 H :    0.027127
  11 H :    0.023451
  12 C :   -0.073825
  13 H :    0.026360
  14 H :    0.024420
  15 H :    0.025508
  16 S :    0.390902
  17 C :   -0.186448
  18 C :   -0.084570
  19 C :   -0.043077
  20 C :   -0.198902
  21 H :    0.038105
  22 C :   -0.045414
  23 H :    0.036872
  24 H :    0.045462
  25 C :   -0.045654
  26 H :    0.027821
  27 H :    0.027038
  28 C :   -0.066129
  29 H :    0.028566
  30 H :    0.021081
  31 H :    0.023916
  32 H :    0.013904
  33 H :    0.038726

  Mayer bond orders larger than 0.100000
B(  0-S ,  1-C ) :   1.1245 B(  0-S ,  4-C ) :   1.1527 B(  1-C ,  2-C ) :   1.5968
B(  1-C ,  4-C ) :   0.1031 B(  1-C , 32-H ) :   0.9895 B(  2-C ,  3-C ) :   1.2401
B(  2-C ,  6-C ) :   1.0220 B(  3-C ,  4-C ) :   1.5628 B(  3-C ,  5-H ) :   0.9770
B(  4-C , 20-C ) :   1.0753 B(  6-C ,  7-H ) :   0.9340 B(  6-C ,  8-H ) :   0.9420
B(  6-C ,  9-C ) :   1.0666 B(  9-C , 10-H ) :   0.9564 B(  9-C , 11-H ) :   0.9538
B(  9-C , 12-C ) :   1.0780 B( 12-C , 13-H ) :   0.9753 B( 12-C , 14-H ) :   0.9760
B( 12-C , 15-H ) :   0.9744 B( 16-S , 17-C ) :   1.1482 B( 16-S , 20-C ) :   1.1057
B( 17-C , 18-C ) :   1.6522 B( 17-C , 33-H ) :   0.9546 B( 18-C , 19-C ) :   1.2096
B( 18-C , 21-H ) :   0.9801 B( 19-C , 20-C ) :   1.6045 B( 19-C , 22-C ) :   1.0536
B( 22-C , 23-H ) :   0.9404 B( 22-C , 24-H ) :   0.9154 B( 22-C , 25-C ) :   1.0670
B( 25-C , 26-H ) :   0.9401 B( 25-C , 27-H ) :   0.9574 B( 25-C , 28-C ) :   1.0852
B( 28-C , 29-H ) :   0.9753 B( 28-C , 30-H ) :   0.9731 B( 28-C , 31-H ) :   0.9722

Dispersion correction           -0.013789883
FINAL SINGLE POINT ENERGY     -1339.874448937720

DIPOLE MOMENT
-------------
                                X             Y             Z
Electronic contribution:    -19.23307      21.57215      -6.95928
Nuclear contribution   :     19.75497     -21.98476       6.87527
                        -----------------------------------------
Total Dipole Moment    :      0.52190      -0.41261      -0.08401
                        -----------------------------------------
Magnitude (a.u.)       :      0.67058
Magnitude (Debye)      :      1.70448

Rotational constants in cm-1:     0.016952     0.008791     0.006361
Rotational constants in MHz :   508.202995   263.562188   190.707927

                             ****ORCA TERMINATED NORMALLY****
TOTAL RUN TIME: 0 days 0 hours 0 minutes 33 seconds 927 msec
