                         Program Version 4.2.1 -  RELEASE  -
|  1> ! wB97X-D3 SP def2-SVP
|  2> %pal
|  3> nprocs 16
|  4> end
|  5>
|  6> * xyz 0 1
|  7> S 	 -11.0977 	 -3.02118 	 78.3261
|  8> C 	 -9.91829 	 -2.5943 	 79.5724
|  9> C 	 -9.85911 	 -3.50526 	 80.5866
| 10> C 	 -10.8424 	 -4.52023 	 80.4518
| 11> C 	 -11.533 	 -4.48001 	 79.266
| 12> H 	 -11.0525 	 -5.30691 	 81.1571
| 13> C 	 -8.82613 	 -3.48253 	 81.6799
| 14> H 	 -9.22397 	 -3.64863 	 82.6713
| 15> H 	 -8.50093 	 -2.4986 	 81.827
| 16> C 	 -7.53259 	 -4.25935 	 81.4597
| 17> H 	 -7.6964 	 -5.34756 	 81.2646
| 18> H 	 -7.13269 	 -3.79447 	 80.5109
| 19> C 	 -6.61968 	 -4.09451 	 82.6469
| 20> H 	 -6.5117 	 -3.06686 	 83.0174
| 21> H 	 -6.86507 	 -4.78346 	 83.4782
| 22> H 	 -5.72613 	 -4.5012 	 82.2041
| 23> S 	 -14.1529 	 -4.64751 	 78.5968
| 24> C 	 -14.917 	 -6.22273 	 78.414
| 25> C 	 -14.1042 	 -7.18667 	 78.8346
| 26> C 	 -12.7751 	 -6.77052 	 79.2143
| 27> C 	 -12.582 	 -5.42894 	 78.9216
| 28> H 	 -14.4504 	 -8.22551 	 78.8537
| 29> C 	 -11.7596 	 -7.80896 	 79.7125
| 30> H 	 -10.7996 	 -7.32969 	 79.8535
| 31> H 	 -11.6836 	 -8.38633 	 78.8282
| 32> C 	 -12.0819 	 -8.80542 	 80.8407
| 33> H 	 -11.3921 	 -9.69888 	 80.723
| 34> H 	 -13.1298 	 -9.16925 	 80.834
| 35> C 	 -11.9001 	 -8.13512 	 82.1538
| 36> H 	 -12.5914 	 -8.66615 	 82.8545
| 37> H 	 -12.1005 	 -7.03521 	 82.1195
| 38> H 	 -10.9437 	 -8.31689 	 82.5958
| 39> H 	 -9.21528 	 -1.76941 	 79.3801
| 40> H 	 -15.9237 	 -6.40061 	 78.2201
| 41> *
| 42>
| 43>                          ****END OF INPUT****

CARTESIAN COORDINATES (ANGSTROEM)
---------------------------------
  S    -11.097700   -3.021180   78.326100
  C     -9.918290   -2.594300   79.572400
  C     -9.859110   -3.505260   80.586600
  C    -10.842400   -4.520230   80.451800
  C    -11.533000   -4.480010   79.266000
  H    -11.052500   -5.306910   81.157100
  C     -8.826130   -3.482530   81.679900
  H     -9.223970   -3.648630   82.671300
  H     -8.500930   -2.498600   81.827000
  C     -7.532590   -4.259350   81.459700
  H     -7.696400   -5.347560   81.264600
  H     -7.132690   -3.794470   80.510900
  C     -6.619680   -4.094510   82.646900
  H     -6.511700   -3.066860   83.017400
  H     -6.865070   -4.783460   83.478200
  H     -5.726130   -4.501200   82.204100
  S    -14.152900   -4.647510   78.596800
  C    -14.917000   -6.222730   78.414000
  C    -14.104200   -7.186670   78.834600
  C    -12.775100   -6.770520   79.214300
  C    -12.582000   -5.428940   78.921600
  H    -14.450400   -8.225510   78.853700
  C    -11.759600   -7.808960   79.712500
  H    -10.799600   -7.329690   79.853500
  H    -11.683600   -8.386330   78.828200
  C    -12.081900   -8.805420   80.840700
  H    -11.392100   -9.698880   80.723000
  H    -13.129800   -9.169250   80.834000
  C    -11.900100   -8.135120   82.153800
  H    -12.591400   -8.666150   82.854500
  H    -12.100500   -7.035210   82.119500
  H    -10.943700   -8.316890   82.595800
  H     -9.215280   -1.769410   79.380100
  H    -15.923700   -6.400610   78.220100

 Total Charge           Charge          ....    0
 Multiplicity           Mult            ....    1
 Number of Electrons    NEL             ....  134
 Basis Dimension        Dim             ....  322

ORBITAL ENERGIES
----------------

  NO   OCC          E(Eh)            E(eV)
   0   2.0000     -88.965879     -2420.8847
   1   2.0000     -88.957961     -2420.6692
   2   2.0000     -10.328881      -281.0632
   3   2.0000     -10.326895      -281.0091
   4   2.0000     -10.315413      -280.6967
   5   2.0000     -10.308108      -280.4979
   6   2.0000     -10.307356      -280.4774
   7   2.0000     -10.298457      -280.2353
   8   2.0000     -10.295116      -280.1443
   9   2.0000     -10.291450      -280.0446
  10   2.0000     -10.290088      -280.0075
  11   2.0000     -10.289748      -279.9983
  12   2.0000     -10.288701      -279.9698
  13   2.0000     -10.281489      -279.7735
  14   2.0000     -10.280268      -279.7403
  15   2.0000     -10.278446      -279.6907
  16   2.0000      -8.079827      -219.8633
  17   2.0000      -8.072558      -219.6655
  18   2.0000      -6.038408      -164.3134
  19   2.0000      -6.034557      -164.2086
  20   2.0000      -6.031286      -164.1196
  21   2.0000      -6.030446      -164.0968
  22   2.0000      -6.027328      -164.0119
  23   2.0000      -6.022836      -163.8897
  24   2.0000      -1.003944       -27.3187
  25   2.0000      -0.982552       -26.7366
  26   2.0000      -0.917131       -24.9564
  27   2.0000      -0.914503       -24.8849
  28   2.0000      -0.874102       -23.7855
  29   2.0000      -0.853891       -23.2355
  30   2.0000      -0.846645       -23.0384
  31   2.0000      -0.817600       -22.2480
  32   2.0000      -0.783546       -21.3214
  33   2.0000      -0.773910       -21.0592
  34   2.0000      -0.706204       -19.2168
  35   2.0000      -0.695425       -18.9235
  36   2.0000      -0.694446       -18.8968
  37   2.0000      -0.657061       -17.8795
  38   2.0000      -0.642837       -17.4925
  39   2.0000      -0.621914       -16.9231
  40   2.0000      -0.600576       -16.3425
  41   2.0000      -0.569876       -15.5071
  42   2.0000      -0.563842       -15.3429
  43   2.0000      -0.561374       -15.2758
  44   2.0000      -0.540968       -14.7205
  45   2.0000      -0.531001       -14.4493
  46   2.0000      -0.526995       -14.3403
  47   2.0000      -0.508353       -13.8330
  48   2.0000      -0.506242       -13.7755
  49   2.0000      -0.498223       -13.5573
  50   2.0000      -0.494040       -13.4435
  51   2.0000      -0.473622       -12.8879
  52   2.0000      -0.469869       -12.7858
  53   2.0000      -0.465306       -12.6616
  54   2.0000      -0.458193       -12.4681
  55   2.0000      -0.452260       -12.3066
  56   2.0000      -0.444657       -12.0997
  57   2.0000      -0.438637       -11.9359
  58   2.0000      -0.432169       -11.7599
  59   2.0000      -0.424448       -11.5498
  60   2.0000      -0.420148       -11.4328
  61   2.0000      -0.413760       -11.2590
  62   2.0000      -0.409983       -11.1562
  63   2.0000      -0.351976        -9.5778
  64   2.0000      -0.331024        -9.0076
  65   2.0000      -0.322908        -8.7868
  66   2.0000      -0.292160        -7.9501
  67   0.0000       0.028066         0.7637
  68   0.0000       0.074760         2.0343
  69   0.0000       0.104199         2.8354
  70   0.0000       0.120165         3.2698
  71   0.0000       0.132285         3.5996

MULLIKEN ATOMIC CHARGES
-----------------------
   0 S :    0.102616
   1 C :   -0.139457
   2 C :   -0.051332
   3 C :    0.039556
   4 C :   -0.147436
   5 H :   -0.019101
   6 C :    0.087585
   7 H :    0.010805
   8 H :   -0.011736
   9 C :   -0.100804
  10 H :    0.035166
  11 H :    0.030968
  12 C :   -0.031830
  13 H :    0.039672
  14 H :    0.039585
  15 H :    0.031110
  16 S :    0.074001
  17 C :   -0.041933
  18 C :   -0.043793
  19 C :   -0.045069
  20 C :   -0.131456
  21 H :    0.020431
  22 C :    0.057400
  23 H :    0.022246
  24 H :    0.026903
  25 C :   -0.073909
  26 H :    0.044248
  27 H :    0.035308
  28 C :   -0.070430
  29 H :    0.029196
  30 H :    0.064154
  31 H :    0.027135
  32 H :    0.059744
  33 H :    0.030457
Sum of atomic charges:   -0.0000000

LOEWDIN ATOMIC CHARGES
----------------------
   0 S :    0.377500
   1 C :   -0.186918
   2 C :   -0.063006
   3 C :   -0.055201
   4 C :   -0.184437
   5 H :    0.026941
   6 C :   -0.039547
   7 H :    0.026411
   8 H :    0.021819
   9 C :   -0.040320
  10 H :    0.026507
  11 H :    0.027714
  12 C :   -0.066579
  13 H :    0.026838
  14 H :    0.030676
  15 H :    0.030448
  16 S :    0.374969
  17 C :   -0.165849
  18 C :   -0.074090
  19 C :   -0.051326
  20 C :   -0.183342
  21 H :    0.032602
  22 C :   -0.034265
  23 H :    0.028450
  24 H :    0.032813
  25 C :   -0.043968
  26 H :    0.036064
  27 H :    0.027017
  28 C :   -0.073308
  29 H :    0.031631
  30 H :    0.031427
  31 H :    0.020875
  32 H :    0.031535
  33 H :    0.019918

  Mayer bond orders larger than 0.100000
B(  0-S ,  1-C ) :   1.1234 B(  0-S ,  4-C ) :   1.1349 B(  1-C ,  2-C ) :   1.6306
B(  1-C , 32-H ) :   0.9626 B(  2-C ,  3-C ) :   1.2271 B(  2-C ,  6-C ) :   1.0297
B(  3-C ,  4-C ) :   1.5872 B(  3-C ,  5-H ) :   0.9942 B(  4-C , 20-C ) :   1.0353
B(  6-C ,  7-H ) :   0.9356 B(  6-C ,  8-H ) :   0.9278 B(  6-C ,  9-C ) :   1.0567
B(  9-C , 10-H ) :   0.9537 B(  9-C , 11-H ) :   0.9561 B(  9-C , 12-C ) :   1.0759
B( 12-C , 13-H ) :   0.9732 B( 12-C , 14-H ) :   0.9721 B( 12-C , 15-H ) :   0.9719
B( 16-S , 17-C ) :   1.1226 B( 16-S , 20-C ) :   1.1250 B( 17-C , 18-C ) :   1.6664
B( 17-C , 33-H ) :   0.9721 B( 18-C , 19-C ) :   1.1979 B( 18-C , 21-H ) :   0.9858
B( 19-C , 20-C ) :   1.6262 B( 19-C , 22-C ) :   1.0263 B( 22-C , 23-H ) :   0.9415
B( 22-C , 24-H ) :   0.9292 B( 22-C , 25-C ) :   1.0724 B( 25-C , 26-H ) :   0.9520
B( 25-C , 27-H ) :   0.9623 B( 25-C , 28-C ) :   1.0651 B( 28-C , 29-H ) :   0.9740
B( 28-C , 30-H ) :   0.9717 B( 28-C , 31-H ) :   0.9741

Dispersion correction           -0.014208873
FINAL SINGLE POINT ENERGY     -1339.866591293109

DIPOLE MOMENT
-------------
                                X             Y             Z
Electronic contribution:    -19.07510      14.19859     -20.86812
Nuclear contribution   :     19.47601     -14.82284      21.43885
                        -----------------------------------------
Total Dipole Moment    :      0.40091      -0.62425       0.57073
                        -----------------------------------------
Magnitude (a.u.)       :      0.93603
Magnitude (Debye)      :      2.37919

Rotational constants in cm-1:     0.018123     0.009162     0.006450
Rotational constants in MHz :   543.322613   274.656604   193.361616

                             ****ORCA TERMINATED NORMALLY****
TOTAL RUN TIME: 0 days 0 hours 0 minutes 34 seconds 321 msec
