                         Program Version 4.2.1 -  RELEASE  -
|  1> ! wB97X-D3 SP def2-SVP
|  2> %pal
|  3> nprocs 16
|  4> end
|  5>
|  6> * xyz 0 1
|  7> S 	 -51.7946 	 37.3765 	 104.797
|  8> C 	 -51.3884 	 39.0933 	 104.66
|  9> C 	 -52.3442 	 39.8706 	 105.335
| 10> C 	 -53.1133 	 39.0876 	 106.231
| 11> C 	 -52.8691 	 37.7201 	 106.102
| 12> H 	 -53.9153 	 39.3422 	 106.957
| 13> C 	 -52.3808 	 41.42 	 105.372
| 14> H 	 -53.4425 	 41.6296 	 105.596
| 15> H 	 -52.2352 	 41.6982 	 104.333
| 16> C 	 -51.3937 	 42.1183 	 106.355
| 17> H 	 -51.4586 	 41.8071 	 107.387
| 18> H 	 -50.3323 	 41.7902 	 106.094
| 19> C 	 -51.5715 	 43.6236 	 106.109
| 20> H 	 -52.652 	 43.9024 	 106.147
| 21> H 	 -50.9846 	 44.241 	 106.8
| 22> H 	 -51.4322 	 43.8999 	 105.052
| 23> S 	 -54.8698 	 35.9651 	 105.518
| 24> C 	 -55.8756 	 35.2105 	 106.816
| 25> C 	 -55.4734 	 35.6716 	 108.006
| 26> C 	 -54.2509 	 36.4276 	 107.967
| 27> C 	 -53.7719 	 36.6912 	 106.663
| 28> H 	 -56.1077 	 35.4532 	 108.864
| 29> C 	 -53.4985 	 36.7952 	 109.256
| 30> H 	 -52.731 	 37.5851 	 109.107
| 31> H 	 -52.9513 	 35.922 	 109.596
| 32> C 	 -54.4455 	 37.2268 	 110.333
| 33> H 	 -53.8601 	 37.2136 	 111.241
| 34> H 	 -55.1255 	 36.4638 	 110.685
| 35> C 	 -55.223 	 38.5877 	 110.319
| 36> H 	 -56.02 	 38.3759 	 109.639
| 37> H 	 -54.5133 	 39.3347 	 109.868
| 38> H 	 -55.6221 	 38.846 	 111.323
| 39> H 	 -50.6546 	 39.4902 	 103.986
| 40> H 	 -56.7578 	 34.6049 	 106.651
| 41> *
| 42>
| 43>                          ****END OF INPUT****

CARTESIAN COORDINATES (ANGSTROEM)
---------------------------------
  S    -51.794600   37.376500  104.797000
  C    -51.388400   39.093300  104.660000
  C    -52.344200   39.870600  105.335000
  C    -53.113300   39.087600  106.231000
  C    -52.869100   37.720100  106.102000
  H    -53.915300   39.342200  106.957000
  C    -52.380800   41.420000  105.372000
  H    -53.442500   41.629600  105.596000
  H    -52.235200   41.698200  104.333000
  C    -51.393700   42.118300  106.355000
  H    -51.458600   41.807100  107.387000
  H    -50.332300   41.790200  106.094000
  C    -51.571500   43.623600  106.109000
  H    -52.652000   43.902400  106.147000
  H    -50.984600   44.241000  106.800000
  H    -51.432200   43.899900  105.052000
  S    -54.869800   35.965100  105.518000
  C    -55.875600   35.210500  106.816000
  C    -55.473400   35.671600  108.006000
  C    -54.250900   36.427600  107.967000
  C    -53.771900   36.691200  106.663000
  H    -56.107700   35.453200  108.864000
  C    -53.498500   36.795200  109.256000
  H    -52.731000   37.585100  109.107000
  H    -52.951300   35.922000  109.596000
  C    -54.445500   37.226800  110.333000
  H    -53.860100   37.213600  111.241000
  H    -55.125500   36.463800  110.685000
  C    -55.223000   38.587700  110.319000
  H    -56.020000   38.375900  109.639000
  H    -54.513300   39.334700  109.868000
  H    -55.622100   38.846000  111.323000
  H    -50.654600   39.490200  103.986000
  H    -56.757800   34.604900  106.651000

 Total Charge           Charge          ....    0
 Multiplicity           Mult            ....    1
 Number of Electrons    NEL             ....  134
 Basis Dimension        Dim             ....  322

ORBITAL ENERGIES
----------------

  NO   OCC          E(Eh)            E(eV)
   0   2.0000     -88.969331     -2420.9786
   1   2.0000     -88.958639     -2420.6876
   2   2.0000     -10.328983      -281.0659
   3   2.0000     -10.328679      -281.0577
   4   2.0000     -10.317591      -280.7559
   5   2.0000     -10.316420      -280.7241
   6   2.0000     -10.305702      -280.4324
   7   2.0000     -10.305530      -280.4277
   8   2.0000     -10.298548      -280.2377
   9   2.0000     -10.297421      -280.2071
  10   2.0000     -10.296827      -280.1909
  11   2.0000     -10.293237      -280.0932
  12   2.0000     -10.292050      -280.0609
  13   2.0000     -10.284548      -279.8568
  14   2.0000     -10.284418      -279.8532
  15   2.0000     -10.278823      -279.7010
  16   2.0000      -8.083974      -219.9761
  17   2.0000      -8.073008      -219.6777
  18   2.0000      -6.042291      -164.4191
  19   2.0000      -6.038603      -164.3187
  20   2.0000      -6.034822      -164.2159
  21   2.0000      -6.031627      -164.1289
  22   2.0000      -6.027550      -164.0180
  23   2.0000      -6.023660      -163.9121
  24   2.0000      -1.004787       -27.3416
  25   2.0000      -0.980750       -26.6876
  26   2.0000      -0.909464       -24.7478
  27   2.0000      -0.906455       -24.6659
  28   2.0000      -0.870310       -23.6823
  29   2.0000      -0.849474       -23.1154
  30   2.0000      -0.836799       -22.7705
  31   2.0000      -0.815406       -22.1883
  32   2.0000      -0.779252       -21.2045
  33   2.0000      -0.770560       -20.9680
  34   2.0000      -0.708167       -19.2702
  35   2.0000      -0.702005       -19.1025
  36   2.0000      -0.692640       -18.8477
  37   2.0000      -0.650703       -17.7065
  38   2.0000      -0.643113       -17.5000
  39   2.0000      -0.613454       -16.6929
  40   2.0000      -0.597544       -16.2600
  41   2.0000      -0.567886       -15.4530
  42   2.0000      -0.556914       -15.1544
  43   2.0000      -0.553579       -15.0637
  44   2.0000      -0.533470       -14.5165
  45   2.0000      -0.529296       -14.4029
  46   2.0000      -0.520663       -14.1680
  47   2.0000      -0.507381       -13.8065
  48   2.0000      -0.499991       -13.6055
  49   2.0000      -0.493900       -13.4397
  50   2.0000      -0.490939       -13.3591
  51   2.0000      -0.478183       -13.0120
  52   2.0000      -0.473030       -12.8718
  53   2.0000      -0.467224       -12.7138
  54   2.0000      -0.459353       -12.4996
  55   2.0000      -0.456983       -12.4351
  56   2.0000      -0.444758       -12.1025
  57   2.0000      -0.437292       -11.8993
  58   2.0000      -0.430383       -11.7113
  59   2.0000      -0.421547       -11.4709
  60   2.0000      -0.419364       -11.4115
  61   2.0000      -0.414587       -11.2815
  62   2.0000      -0.395569       -10.7640
  63   2.0000      -0.346317        -9.4238
  64   2.0000      -0.331873        -9.0307
  65   2.0000      -0.321728        -8.7547
  66   2.0000      -0.294311        -8.0086
  67   0.0000       0.031331         0.8526
  68   0.0000       0.060215         1.6385
  69   0.0000       0.105110         2.8602
  70   0.0000       0.121222         3.2986
  71   0.0000       0.129449         3.5225

MULLIKEN ATOMIC CHARGES
-----------------------
   0 S :    0.116321
   1 C :   -0.109476
   2 C :   -0.094203
   3 C :    0.025612
   4 C :   -0.167107
   5 H :    0.031434
   6 C :    0.027635
   7 H :    0.031672
   8 H :    0.027357
   9 C :   -0.047317
  10 H :    0.033704
  11 H :    0.033127
  12 C :   -0.038940
  13 H :    0.022017
  14 H :    0.045072
  15 H :    0.024059
  16 S :    0.077915
  17 C :   -0.093884
  18 C :   -0.028901
  19 C :   -0.076068
  20 C :   -0.125039
  21 H :    0.028662
  22 C :    0.107995
  23 H :    0.030285
  24 H :    0.042084
  25 C :   -0.130912
  26 H :    0.004884
  27 H :    0.011517
  28 C :   -0.035208
  29 H :    0.032200
  30 H :    0.041327
  31 H :    0.049114
  32 H :    0.045573
  33 H :    0.057488
Sum of atomic charges:   -0.0000000

LOEWDIN ATOMIC CHARGES
----------------------
   0 S :    0.417232
   1 C :   -0.190370
   2 C :   -0.062144
   3 C :   -0.063923
   4 C :   -0.210755
   5 H :    0.040804
   6 C :   -0.030591
   7 H :    0.032857
   8 H :    0.029367
   9 C :   -0.038410
  10 H :    0.024365
  11 H :    0.030813
  12 C :   -0.072728
  13 H :    0.028345
  14 H :    0.026284
  15 H :    0.027820
  16 S :    0.376831
  17 C :   -0.164336
  18 C :   -0.076339
  19 C :   -0.065451
  20 C :   -0.199714
  21 H :    0.036495
  22 C :   -0.027400
  23 H :    0.034100
  24 H :    0.039688
  25 C :   -0.059276
  26 H :    0.020565
  27 H :    0.018151
  28 C :   -0.062638
  29 H :    0.020590
  30 H :    0.029890
  31 H :    0.033942
  32 H :    0.023937
  33 H :    0.032000

  Mayer bond orders larger than 0.100000
B(  0-S ,  1-C ) :   1.1474 B(  0-S ,  4-C ) :   1.1667 B(  1-C ,  2-C ) :   1.5800
B(  1-C ,  4-C ) :   0.1035 B(  1-C , 32-H ) :   0.9768 B(  2-C ,  3-C ) :   1.2518
B(  2-C ,  6-C ) :   1.0186 B(  3-C ,  4-C ) :   1.5568 B(  3-C ,  5-H ) :   0.9877
B(  4-C , 20-C ) :   1.0106 B(  6-C ,  7-H ) :   0.9437 B(  6-C ,  8-H ) :   0.9444
B(  6-C ,  9-C ) :   1.0512 B(  9-C , 10-H ) :   0.9599 B(  9-C , 11-H ) :   0.9549
B(  9-C , 12-C ) :   1.0685 B( 12-C , 13-H ) :   0.9713 B( 12-C , 14-H ) :   0.9737
B( 12-C , 15-H ) :   0.9723 B( 16-S , 17-C ) :   1.1309 B( 16-S , 20-C ) :   1.1413
B( 17-C , 18-C ) :   1.6456 B( 17-C , 33-H ) :   0.9659 B( 18-C , 19-C ) :   1.2181
B( 18-C , 21-H ) :   0.9881 B( 19-C , 20-C ) :   1.6062 B( 19-C , 22-C ) :   1.0338
B( 22-C , 23-H ) :   0.9379 B( 22-C , 24-H ) :   0.9314 B( 22-C , 25-C ) :   1.0889
B( 25-C , 26-H ) :   0.9464 B( 25-C , 27-H ) :   0.9437 B( 25-C , 28-C ) :   1.0601
B( 28-C , 29-H ) :   0.9778 B( 28-C , 30-H ) :   0.9743 B( 28-C , 31-H ) :   0.9732

Dispersion correction           -0.014143361
FINAL SINGLE POINT ENERGY     -1339.860128935343

DIPOLE MOMENT
-------------
                                X             Y             Z
Electronic contribution:     -0.22150     -23.25360     -17.94264
Nuclear contribution   :      0.05532      23.73912      18.41556
                        -----------------------------------------
Total Dipole Moment    :     -0.16618       0.48551       0.47292
                        -----------------------------------------
Magnitude (a.u.)       :      0.69785
Magnitude (Debye)      :      1.77378

Rotational constants in cm-1:     0.018225     0.008477     0.006449
Rotational constants in MHz :   546.368923   254.142414   193.336604

                             ****ORCA TERMINATED NORMALLY****
TOTAL RUN TIME: 0 days 0 hours 0 minutes 29 seconds 631 msec
