                         Program Version 4.2.1 -  RELEASE  -
|  1> ! wB97X-D3 SP def2-SVP
|  2> %pal
|  3> nprocs 16
|  4> end
|  5>
|  6> * xyz 0 1
|  7> S 	 -14.5482 	 38.4026 	 56.3473
|  8> C 	 -12.9561 	 39.0245 	 56.1722
|  9> C 	 -12.669 	 39.4066 	 54.8855
| 10> C 	 -13.6968 	 39.0461 	 53.9932
| 11> C 	 -14.795 	 38.4743 	 54.568
| 12> H 	 -13.7607 	 39.1394 	 52.946
| 13> C 	 -11.3837 	 40.0343 	 54.4137
| 14> H 	 -10.9208 	 39.2796 	 53.7876
| 15> H 	 -10.6636 	 40.2488 	 55.2385
| 16> C 	 -11.2901 	 41.4208 	 53.7503
| 17> H 	 -10.252 	 41.7096 	 53.7808
| 18> H 	 -11.5124 	 41.4865 	 52.6587
| 19> C 	 -12.0404 	 42.5185 	 54.5235
| 20> H 	 -11.8697 	 43.4802 	 54.0358
| 21> H 	 -13.1135 	 42.3743 	 54.6495
| 22> H 	 -11.63 	 42.8161 	 55.4727
| 23> S 	 -17.4606 	 38.8132 	 54.4244
| 24> C 	 -18.418 	 37.6021 	 53.5686
| 25> C 	 -17.638 	 36.9204 	 52.6543
| 26> C 	 -16.2404 	 37.0276 	 52.9689
| 27> C 	 -16.0126 	 37.9313 	 53.9683
| 28> H 	 -18.0502 	 36.2801 	 51.9438
| 29> C 	 -15.1113 	 36.2667 	 52.2906
| 30> H 	 -14.1888 	 36.7407 	 52.6857
| 31> H 	 -15.0532 	 36.5186 	 51.1808
| 32> C 	 -15.2458 	 34.7424 	 52.4707
| 33> H 	 -16.2317 	 34.4345 	 51.9579
| 34> H 	 -15.3505 	 34.5224 	 53.5523
| 35> C 	 -14.0497 	 34.0075 	 51.8366
| 36> H 	 -13.1169 	 34.6069 	 52.1335
| 37> H 	 -14.0847 	 33.9393 	 50.7599
| 38> H 	 -13.7982 	 33.0535 	 52.3243
| 39> H 	 -12.3088 	 39.2512 	 56.9964
| 40> H 	 -19.4593 	 37.7121 	 53.466
| 41> *
| 42>
| 43>                          ****END OF INPUT****

CARTESIAN COORDINATES (ANGSTROEM)
---------------------------------
  S    -14.548200   38.402600   56.347300
  C    -12.956100   39.024500   56.172200
  C    -12.669000   39.406600   54.885500
  C    -13.696800   39.046100   53.993200
  C    -14.795000   38.474300   54.568000
  H    -13.760700   39.139400   52.946000
  C    -11.383700   40.034300   54.413700
  H    -10.920800   39.279600   53.787600
  H    -10.663600   40.248800   55.238500
  C    -11.290100   41.420800   53.750300
  H    -10.252000   41.709600   53.780800
  H    -11.512400   41.486500   52.658700
  C    -12.040400   42.518500   54.523500
  H    -11.869700   43.480200   54.035800
  H    -13.113500   42.374300   54.649500
  H    -11.630000   42.816100   55.472700
  S    -17.460600   38.813200   54.424400
  C    -18.418000   37.602100   53.568600
  C    -17.638000   36.920400   52.654300
  C    -16.240400   37.027600   52.968900
  C    -16.012600   37.931300   53.968300
  H    -18.050200   36.280100   51.943800
  C    -15.111300   36.266700   52.290600
  H    -14.188800   36.740700   52.685700
  H    -15.053200   36.518600   51.180800
  C    -15.245800   34.742400   52.470700
  H    -16.231700   34.434500   51.957900
  H    -15.350500   34.522400   53.552300
  C    -14.049700   34.007500   51.836600
  H    -13.116900   34.606900   52.133500
  H    -14.084700   33.939300   50.759900
  H    -13.798200   33.053500   52.324300
  H    -12.308800   39.251200   56.996400
  H    -19.459300   37.712100   53.466000

 Total Charge           Charge          ....    0
 Multiplicity           Mult            ....    1
 Number of Electrons    NEL             ....  134
 Basis Dimension        Dim             ....  322

ORBITAL ENERGIES
----------------

  NO   OCC          E(Eh)            E(eV)
   0   2.0000     -88.963044     -2420.8075
   1   2.0000     -88.961453     -2420.7642
   2   2.0000     -10.327849      -281.0351
   3   2.0000     -10.322686      -280.8946
   4   2.0000     -10.314355      -280.6679
   5   2.0000     -10.310520      -280.5635
   6   2.0000     -10.301877      -280.3283
   7   2.0000     -10.298712      -280.2422
   8   2.0000     -10.296943      -280.1941
   9   2.0000     -10.295922      -280.1663
  10   2.0000     -10.293639      -280.1042
  11   2.0000     -10.292965      -280.0858
  12   2.0000     -10.291432      -280.0441
  13   2.0000     -10.289292      -279.9859
  14   2.0000     -10.283538      -279.8293
  15   2.0000     -10.273402      -279.5535
  16   2.0000      -8.077868      -219.8100
  17   2.0000      -8.076383      -219.7696
  18   2.0000      -6.036310      -164.2563
  19   2.0000      -6.034852      -164.2167
  20   2.0000      -6.032397      -164.1499
  21   2.0000      -6.031186      -164.1169
  22   2.0000      -6.028645      -164.0478
  23   2.0000      -6.026836      -163.9985
  24   2.0000      -1.007986       -27.4287
  25   2.0000      -0.986371       -26.8405
  26   2.0000      -0.908916       -24.7329
  27   2.0000      -0.904599       -24.6154
  28   2.0000      -0.871520       -23.7153
  29   2.0000      -0.851548       -23.1718
  30   2.0000      -0.845370       -23.0037
  31   2.0000      -0.817831       -22.2543
  32   2.0000      -0.782234       -21.2857
  33   2.0000      -0.769416       -20.9369
  34   2.0000      -0.706509       -19.2251
  35   2.0000      -0.696980       -18.9658
  36   2.0000      -0.695047       -18.9132
  37   2.0000      -0.664014       -18.0687
  38   2.0000      -0.648302       -17.6412
  39   2.0000      -0.620058       -16.8726
  40   2.0000      -0.594481       -16.1767
  41   2.0000      -0.566610       -15.4182
  42   2.0000      -0.559816       -15.2334
  43   2.0000      -0.555399       -15.1132
  44   2.0000      -0.544531       -14.8174
  45   2.0000      -0.521149       -14.1812
  46   2.0000      -0.515725       -14.0336
  47   2.0000      -0.511625       -13.9220
  48   2.0000      -0.502329       -13.6691
  49   2.0000      -0.494967       -13.4687
  50   2.0000      -0.488683       -13.2977
  51   2.0000      -0.479586       -13.0502
  52   2.0000      -0.466342       -12.6898
  53   2.0000      -0.461811       -12.5665
  54   2.0000      -0.460717       -12.5368
  55   2.0000      -0.449555       -12.2330
  56   2.0000      -0.442813       -12.0496
  57   2.0000      -0.436683       -11.8827
  58   2.0000      -0.427405       -11.6303
  59   2.0000      -0.423920       -11.5355
  60   2.0000      -0.422739       -11.5033
  61   2.0000      -0.416369       -11.3300
  62   2.0000      -0.407274       -11.0825
  63   2.0000      -0.343738        -9.3536
  64   2.0000      -0.330064        -8.9815
  65   2.0000      -0.327380        -8.9085
  66   2.0000      -0.298386        -8.1195
  67   0.0000       0.032741         0.8909
  68   0.0000       0.063922         1.7394
  69   0.0000       0.100147         2.7251
  70   0.0000       0.125355         3.4111
  71   0.0000       0.132841         3.6148

MULLIKEN ATOMIC CHARGES
-----------------------
   0 S :    0.112323
   1 C :   -0.107970
   2 C :   -0.063707
   3 C :    0.070717
   4 C :   -0.189673
   5 H :   -0.004748
   6 C :    0.054074
   7 H :    0.037035
   8 H :    0.018986
   9 C :   -0.067689
  10 H :    0.023690
  11 H :    0.033310
  12 C :   -0.058251
  13 H :    0.020328
  14 H :    0.050845
  15 H :    0.013848
  16 S :    0.094646
  17 C :   -0.063480
  18 C :   -0.017082
  19 C :   -0.025984
  20 C :   -0.166598
  21 H :    0.001048
  22 C :    0.041985
  23 H :    0.022695
  24 H :    0.038918
  25 C :   -0.105326
  26 H :    0.042893
  27 H :    0.046405
  28 C :   -0.044756
  29 H :    0.027538
  30 H :    0.040838
  31 H :    0.038099
  32 H :    0.040884
  33 H :    0.044157
Sum of atomic charges:   -0.0000000

LOEWDIN ATOMIC CHARGES
----------------------
   0 S :    0.398524
   1 C :   -0.194295
   2 C :   -0.072114
   3 C :   -0.054229
   4 C :   -0.183814
   5 H :    0.026893
   6 C :   -0.037901
   7 H :    0.033645
   8 H :    0.036104
   9 C :   -0.043134
  10 H :    0.026312
  11 H :    0.023729
  12 C :   -0.072391
  13 H :    0.028636
  14 H :    0.028080
  15 H :    0.021748
  16 S :    0.392326
  17 C :   -0.166430
  18 C :   -0.053967
  19 C :   -0.055905
  20 C :   -0.196997
  21 H :    0.020601
  22 C :   -0.040748
  23 H :    0.029752
  24 H :    0.036597
  25 C :   -0.046709
  26 H :    0.030310
  27 H :    0.031137
  28 C :   -0.074485
  29 H :    0.033396
  30 H :    0.023725
  31 H :    0.029081
  32 H :    0.025934
  33 H :    0.016592

  Mayer bond orders larger than 0.100000
B(  0-S ,  1-C ) :   1.1516 B(  0-S ,  4-C ) :   1.1370 B(  1-C ,  2-C ) :   1.6160
B(  1-C , 32-H ) :   0.9649 B(  2-C ,  3-C ) :   1.2094 B(  2-C ,  6-C ) :   1.0290
B(  3-C ,  4-C ) :   1.6001 B(  3-C ,  5-H ) :   1.0051 B(  4-C , 20-C ) :   1.0085
B(  6-C ,  7-H ) :   0.9374 B(  6-C ,  8-H ) :   0.9447 B(  6-C ,  9-C ) :   1.0667
B(  9-C , 10-H ) :   0.9565 B(  9-C , 11-H ) :   0.9550 B(  9-C , 12-C ) :   1.0801
B( 12-C , 13-H ) :   0.9698 B( 12-C , 14-H ) :   0.9764 B( 12-C , 15-H ) :   0.9722
B( 16-S , 17-C ) :   1.1391 B( 16-S , 20-C ) :   1.1508 B( 17-C , 18-C ) :   1.6295
B( 17-C , 33-H ) :   0.9711 B( 18-C , 19-C ) :   1.2052 B( 18-C , 21-H ) :   0.9975
B( 19-C , 20-C ) :   1.6340 B( 19-C , 22-C ) :   1.0409 B( 22-C , 23-H ) :   0.9288
B( 22-C , 24-H ) :   0.9366 B( 22-C , 25-C ) :   1.0478 B( 25-C , 26-H ) :   0.9566
B( 25-C , 27-H ) :   0.9572 B( 25-C , 28-C ) :   1.0754 B( 28-C , 29-H ) :   0.9721
B( 28-C , 30-H ) :   0.9752 B( 28-C , 31-H ) :   0.9753

Dispersion correction           -0.014032761
FINAL SINGLE POINT ENERGY     -1339.871593306892

DIPOLE MOMENT
-------------
                                X             Y             Z
Electronic contribution:    -18.56949       1.49650      13.16643
Nuclear contribution   :     19.00611      -1.48249     -13.69462
                        -----------------------------------------
Total Dipole Moment    :      0.43663       0.01401      -0.52819
                        -----------------------------------------
Magnitude (a.u.)       :      0.68544
Magnitude (Debye)      :      1.74225

Rotational constants in cm-1:     0.018168     0.008339     0.006934
Rotational constants in MHz :   544.665566   249.985526   207.886140

                             ****ORCA TERMINATED NORMALLY****
TOTAL RUN TIME: 0 days 0 hours 0 minutes 34 seconds 482 msec
