                         Program Version 4.2.1 -  RELEASE  -
|  1> ! wB97X-D3 SP def2-SVP
|  2> %pal
|  3> nprocs 16
|  4> end
|  5>
|  6> * xyz 0 1
|  7> S 	 -0.978494 	 61.9633 	 47.6592
|  8> C 	 -2.08335 	 61.631 	 48.9728
|  9> C 	 -3.35688 	 61.3854 	 48.5237
| 10> C 	 -3.31073 	 61.021 	 47.1473
| 11> C 	 -2.13937 	 61.3157 	 46.5182
| 12> H 	 -4.10569 	 60.6015 	 46.5513
| 13> C 	 -4.57835 	 61.1765 	 49.4223
| 14> H 	 -5.39636 	 61.6999 	 48.9047
| 15> H 	 -4.231 	 61.6285 	 50.3336
| 16> C 	 -4.94001 	 59.7553 	 49.8422
| 17> H 	 -5.07074 	 59.1274 	 48.9424
| 18> H 	 -4.03035 	 59.2819 	 50.3396
| 19> C 	 -6.25022 	 59.6306 	 50.5719
| 20> H 	 -6.95947 	 59.9901 	 49.8573
| 21> H 	 -6.53906 	 58.63 	 50.8624
| 22> H 	 -6.36321 	 60.2907 	 51.5091
| 23> S 	 -1.98882 	 62.938 	 44.3969
| 24> C 	 -1.66391 	 62.3512 	 42.805
| 25> C 	 -1.49377 	 61.0108 	 42.7988
| 26> C 	 -1.76101 	 60.3902 	 44.0797
| 27> C 	 -1.86202 	 61.3324 	 45.064
| 28> H 	 -1.26709 	 60.471 	 41.866
| 29> C 	 -1.65543 	 58.8874 	 44.2964
| 30> H 	 -1.34744 	 58.9175 	 45.3617
| 31> H 	 -0.878164 	 58.5682 	 43.6284
| 32> C 	 -3.03235 	 58.2534 	 44.2871
| 33> H 	 -3.52904 	 58.3761 	 43.326
| 34> H 	 -3.56948 	 58.7212 	 45.0121
| 35> C 	 -3.04025 	 56.8337 	 44.7901
| 36> H 	 -2.72399 	 56.8485 	 45.8258
| 37> H 	 -2.361 	 56.1653 	 44.3254
| 38> H 	 -4.08618 	 56.4241 	 44.8272
| 39> H 	 -1.84482 	 61.7818 	 50.0951
| 40> H 	 -1.59187 	 62.8894 	 41.8713
| 41> *
| 42>
| 43>                          ****END OF INPUT****

CARTESIAN COORDINATES (ANGSTROEM)
---------------------------------
  S     -0.978494   61.963300   47.659200
  C     -2.083350   61.631000   48.972800
  C     -3.356880   61.385400   48.523700
  C     -3.310730   61.021000   47.147300
  C     -2.139370   61.315700   46.518200
  H     -4.105690   60.601500   46.551300
  C     -4.578350   61.176500   49.422300
  H     -5.396360   61.699900   48.904700
  H     -4.231000   61.628500   50.333600
  C     -4.940010   59.755300   49.842200
  H     -5.070740   59.127400   48.942400
  H     -4.030350   59.281900   50.339600
  C     -6.250220   59.630600   50.571900
  H     -6.959470   59.990100   49.857300
  H     -6.539060   58.630000   50.862400
  H     -6.363210   60.290700   51.509100
  S     -1.988820   62.938000   44.396900
  C     -1.663910   62.351200   42.805000
  C     -1.493770   61.010800   42.798800
  C     -1.761010   60.390200   44.079700
  C     -1.862020   61.332400   45.064000
  H     -1.267090   60.471000   41.866000
  C     -1.655430   58.887400   44.296400
  H     -1.347440   58.917500   45.361700
  H     -0.878164   58.568200   43.628400
  C     -3.032350   58.253400   44.287100
  H     -3.529040   58.376100   43.326000
  H     -3.569480   58.721200   45.012100
  C     -3.040250   56.833700   44.790100
  H     -2.723990   56.848500   45.825800
  H     -2.361000   56.165300   44.325400
  H     -4.086180   56.424100   44.827200
  H     -1.844820   61.781800   50.095100
  H     -1.591870   62.889400   41.871300

 Total Charge           Charge          ....    0
 Multiplicity           Mult            ....    1
 Number of Electrons    NEL             ....  134
 Basis Dimension        Dim             ....  322

ORBITAL ENERGIES
----------------

  NO   OCC          E(Eh)            E(eV)
   0   2.0000     -88.966573     -2420.9035
   1   2.0000     -88.960255     -2420.7316
   2   2.0000     -10.327571      -281.0275
   3   2.0000     -10.321892      -280.8729
   4   2.0000     -10.321714      -280.8681
   5   2.0000     -10.309256      -280.5291
   6   2.0000     -10.301619      -280.3213
   7   2.0000     -10.299362      -280.2599
   8   2.0000     -10.295232      -280.1475
   9   2.0000     -10.293399      -280.0976
  10   2.0000     -10.292940      -280.0851
  11   2.0000     -10.288856      -279.9740
  12   2.0000     -10.288311      -279.9592
  13   2.0000     -10.283508      -279.8285
  14   2.0000     -10.275831      -279.6196
  15   2.0000     -10.272734      -279.5353
  16   2.0000      -8.081443      -219.9073
  17   2.0000      -8.075755      -219.7525
  18   2.0000      -6.040008      -164.3570
  19   2.0000      -6.035985      -164.2475
  20   2.0000      -6.034373      -164.2036
  21   2.0000      -6.032063      -164.1408
  22   2.0000      -6.030169      -164.0892
  23   2.0000      -6.026336      -163.9849
  24   2.0000      -1.011284       -27.5184
  25   2.0000      -0.989542       -26.9268
  26   2.0000      -0.917682       -24.9714
  27   2.0000      -0.915760       -24.9191
  28   2.0000      -0.871430       -23.7128
  29   2.0000      -0.853154       -23.2155
  30   2.0000      -0.850095       -23.1323
  31   2.0000      -0.818759       -22.2796
  32   2.0000      -0.783200       -21.3120
  33   2.0000      -0.771106       -20.9829
  34   2.0000      -0.705926       -19.2092
  35   2.0000      -0.698478       -19.0066
  36   2.0000      -0.690878       -18.7998
  37   2.0000      -0.661043       -17.9879
  38   2.0000      -0.641748       -17.4629
  39   2.0000      -0.619786       -16.8652
  40   2.0000      -0.587264       -15.9803
  41   2.0000      -0.576190       -15.6789
  42   2.0000      -0.576070       -15.6757
  43   2.0000      -0.559163       -15.2156
  44   2.0000      -0.533798       -14.5254
  45   2.0000      -0.525956       -14.3120
  46   2.0000      -0.516479       -14.0541
  47   2.0000      -0.510553       -13.8928
  48   2.0000      -0.507408       -13.8073
  49   2.0000      -0.502056       -13.6616
  50   2.0000      -0.492915       -13.4129
  51   2.0000      -0.477490       -12.9932
  52   2.0000      -0.472208       -12.8494
  53   2.0000      -0.465992       -12.6803
  54   2.0000      -0.460842       -12.5401
  55   2.0000      -0.447321       -12.1722
  56   2.0000      -0.441488       -12.0135
  57   2.0000      -0.440086       -11.9753
  58   2.0000      -0.437827       -11.9139
  59   2.0000      -0.424087       -11.5400
  60   2.0000      -0.422483       -11.4963
  61   2.0000      -0.413957       -11.2643
  62   2.0000      -0.411707       -11.2031
  63   2.0000      -0.341374        -9.2893
  64   2.0000      -0.330808        -9.0017
  65   2.0000      -0.324572        -8.8321
  66   2.0000      -0.305451        -8.3118
  67   0.0000       0.045002         1.2246
  68   0.0000       0.061290         1.6678
  69   0.0000       0.111917         3.0454
  70   0.0000       0.125187         3.4065
  71   0.0000       0.131051         3.5661

MULLIKEN ATOMIC CHARGES
-----------------------
   0 S :    0.118572
   1 C :   -0.146659
   2 C :   -0.094597
   3 C :    0.045565
   4 C :   -0.179080
   5 H :    0.013756
   6 C :    0.074996
   7 H :    0.038866
   8 H :    0.013939
   9 C :   -0.087184
  10 H :    0.021573
  11 H :    0.033733
  12 C :   -0.036540
  13 H :    0.022508
  14 H :    0.038050
  15 H :    0.037375
  16 S :    0.107700
  17 C :   -0.066824
  18 C :   -0.053022
  19 C :   -0.065041
  20 C :   -0.169605
  21 H :    0.022168
  22 C :    0.075455
  23 H :    0.029297
  24 H :    0.028210
  25 C :   -0.015427
  26 H :    0.029619
  27 H :   -0.010396
  28 C :   -0.030454
  29 H :    0.016610
  30 H :    0.021533
  31 H :    0.038073
  32 H :    0.079095
  33 H :    0.048133
Sum of atomic charges:    0.0000000

LOEWDIN ATOMIC CHARGES
----------------------
   0 S :    0.404568
   1 C :   -0.203011
   2 C :   -0.068740
   3 C :   -0.058928
   4 C :   -0.204396
   5 H :    0.029128
   6 C :   -0.029304
   7 H :    0.035607
   8 H :    0.029318
   9 C :   -0.050285
  10 H :    0.023050
  11 H :    0.028671
  12 C :   -0.067221
  13 H :    0.023767
  14 H :    0.026521
  15 H :    0.030857
  16 S :    0.413225
  17 C :   -0.192014
  18 C :   -0.080729
  19 C :   -0.053776
  20 C :   -0.206263
  21 H :    0.033519
  22 C :   -0.023727
  23 H :    0.039735
  24 H :    0.028253
  25 C :   -0.033356
  26 H :    0.023401
  27 H :    0.013830
  28 C :   -0.062209
  29 H :    0.024079
  30 H :    0.015958
  31 H :    0.032387
  32 H :    0.045938
  33 H :    0.032146

  Mayer bond orders larger than 0.100000
B(  0-S ,  1-C ) :   1.1434 B(  0-S ,  4-C ) :   1.1406 B(  1-C ,  2-C ) :   1.6289
B(  1-C , 32-H ) :   0.9515 B(  2-C ,  3-C ) :   1.2048 B(  2-C ,  6-C ) :   1.0340
B(  3-C ,  4-C ) :   1.6209 B(  3-C ,  5-H ) :   0.9909 B(  4-C , 20-C ) :   0.9794
B(  6-C ,  7-H ) :   0.9347 B(  6-C ,  8-H ) :   0.9339 B(  6-C ,  9-C ) :   1.0701
B(  9-C , 10-H ) :   0.9542 B(  9-C , 11-H ) :   0.9512 B(  9-C , 12-C ) :   1.0733
B( 12-C , 13-H ) :   0.9721 B( 12-C , 14-H ) :   0.9731 B( 12-C , 15-H ) :   0.9749
B( 16-S , 17-C ) :   1.1419 B( 16-S , 20-C ) :   1.1444 B( 17-C , 18-C ) :   1.6513
B( 17-C , 33-H ) :   0.9636 B( 18-C , 19-C ) :   1.2083 B( 18-C , 21-H ) :   0.9835
B( 19-C , 20-C ) :   1.6528 B( 19-C , 22-C ) :   1.0247 B( 22-C , 23-H ) :   0.9336
B( 22-C , 24-H ) :   0.9438 B( 22-C , 25-C ) :   1.0671 B( 25-C , 26-H ) :   0.9555
B( 25-C , 27-H ) :   0.9465 B( 25-C , 28-C ) :   1.0903 B( 28-C , 29-H ) :   0.9711
B( 28-C , 30-H ) :   0.9740 B( 28-C , 31-H ) :   0.9727

Dispersion correction           -0.014064664
FINAL SINGLE POINT ENERGY     -1339.864688365864

DIPOLE MOMENT
-------------
                                X             Y             Z
Electronic contribution:     17.21188      22.61838      -9.13479
Nuclear contribution   :    -17.64761     -23.06239       9.18404
                        -----------------------------------------
Total Dipole Moment    :     -0.43573      -0.44401       0.04925
                        -----------------------------------------
Magnitude (a.u.)       :      0.62405
Magnitude (Debye)      :      1.58620

Rotational constants in cm-1:     0.017826     0.008674     0.006708
Rotational constants in MHz :   534.399892   260.045211   201.105204

                             ****ORCA TERMINATED NORMALLY****
TOTAL RUN TIME: 0 days 0 hours 0 minutes 34 seconds 121 msec
