                         Program Version 4.2.1 -  RELEASE  -
|  1> ! wB97X-D3 SP def2-SVP
|  2> %pal
|  3> nprocs 16
|  4> end
|  5>
|  6> * xyz 0 1
|  7> S 	 -48.6909 	 64.4035 	 146.378
|  8> C 	 -48.2052 	 63.118 	 145.254
|  9> C 	 -47.8611 	 63.6452 	 143.999
| 10> C 	 -47.9931 	 65.1267 	 143.965
| 11> C 	 -48.402 	 65.6327 	 145.181
| 12> H 	 -47.8453 	 65.6811 	 143.048
| 13> C 	 -47.4275 	 62.9299 	 142.7
| 14> H 	 -47.6003 	 63.5187 	 141.779
| 15> H 	 -48.0859 	 62.0935 	 142.646
| 16> C 	 -46.0157 	 62.3324 	 142.681
| 17> H 	 -45.8032 	 61.7889 	 143.616
| 18> H 	 -45.8392 	 61.5639 	 141.878
| 19> C 	 -44.969 	 63.4037 	 142.549
| 20> H 	 -45.1105 	 63.9036 	 141.596
| 21> H 	 -44.834 	 64.1547 	 143.348
| 22> H 	 -43.9676 	 63.0655 	 142.336
| 23> S 	 -50.0263 	 67.6091 	 146.097
| 24> C 	 -49.5023 	 69.2412 	 146.197
| 25> C 	 -48.2275 	 69.3762 	 145.663
| 26> C 	 -47.6556 	 68.0678 	 145.297
| 27> C 	 -48.5171 	 67.026 	 145.51
| 28> H 	 -47.7878 	 70.3545 	 145.566
| 29> C 	 -46.1586 	 67.8623 	 144.92
| 30> H 	 -46.1408 	 67.4805 	 143.906
| 31> H 	 -45.7395 	 67.0808 	 145.457
| 32> C 	 -45.3249 	 69.1892 	 144.968
| 33> H 	 -45.4075 	 69.652 	 145.909
| 34> H 	 -45.7904 	 69.9306 	 144.265
| 35> C 	 -43.8599 	 69.0065 	 144.495
| 36> H 	 -43.2629 	 69.7825 	 144.08
| 37> H 	 -43.5381 	 68.1828 	 143.867
| 38> H 	 -43.3228 	 68.708 	 145.412
| 39> H 	 -48.1143 	 62.1184 	 145.589
| 40> H 	 -50.1537 	 70.0137 	 146.526
| 41> *
| 42>
| 43>                          ****END OF INPUT****

CARTESIAN COORDINATES (ANGSTROEM)
---------------------------------
  S    -48.690900   64.403500  146.378000
  C    -48.205200   63.118000  145.254000
  C    -47.861100   63.645200  143.999000
  C    -47.993100   65.126700  143.965000
  C    -48.402000   65.632700  145.181000
  H    -47.845300   65.681100  143.048000
  C    -47.427500   62.929900  142.700000
  H    -47.600300   63.518700  141.779000
  H    -48.085900   62.093500  142.646000
  C    -46.015700   62.332400  142.681000
  H    -45.803200   61.788900  143.616000
  H    -45.839200   61.563900  141.878000
  C    -44.969000   63.403700  142.549000
  H    -45.110500   63.903600  141.596000
  H    -44.834000   64.154700  143.348000
  H    -43.967600   63.065500  142.336000
  S    -50.026300   67.609100  146.097000
  C    -49.502300   69.241200  146.197000
  C    -48.227500   69.376200  145.663000
  C    -47.655600   68.067800  145.297000
  C    -48.517100   67.026000  145.510000
  H    -47.787800   70.354500  145.566000
  C    -46.158600   67.862300  144.920000
  H    -46.140800   67.480500  143.906000
  H    -45.739500   67.080800  145.457000
  C    -45.324900   69.189200  144.968000
  H    -45.407500   69.652000  145.909000
  H    -45.790400   69.930600  144.265000
  C    -43.859900   69.006500  144.495000
  H    -43.262900   69.782500  144.080000
  H    -43.538100   68.182800  143.867000
  H    -43.322800   68.708000  145.412000
  H    -48.114300   62.118400  145.589000
  H    -50.153700   70.013700  146.526000

 Total Charge           Charge          ....    0
 Multiplicity           Mult            ....    1
 Number of Electrons    NEL             ....  134
 Basis Dimension        Dim             ....  322

ORBITAL ENERGIES
----------------

  NO   OCC          E(Eh)            E(eV)
   0   2.0000     -88.967522     -2420.9294
   1   2.0000     -88.959694     -2420.7163
   2   2.0000     -10.328847      -281.0622
   3   2.0000     -10.319727      -280.8141
   4   2.0000     -10.317658      -280.7577
   5   2.0000     -10.314167      -280.6627
   6   2.0000     -10.313331      -280.6400
   7   2.0000     -10.306097      -280.4432
   8   2.0000     -10.298501      -280.2365
   9   2.0000     -10.297855      -280.2189
  10   2.0000     -10.295863      -280.1647
  11   2.0000     -10.292725      -280.0793
  12   2.0000     -10.292435      -280.0714
  13   2.0000     -10.289202      -279.9834
  14   2.0000     -10.275634      -279.6142
  15   2.0000     -10.272593      -279.5315
  16   2.0000      -8.082189      -219.9275
  17   2.0000      -8.075951      -219.7578
  18   2.0000      -6.040846      -164.3798
  19   2.0000      -6.036654      -164.2657
  20   2.0000      -6.034346      -164.2029
  21   2.0000      -6.032837      -164.1618
  22   2.0000      -6.030128      -164.0881
  23   2.0000      -6.026859      -163.9992
  24   2.0000      -1.008591       -27.4452
  25   2.0000      -0.980003       -26.6672
  26   2.0000      -0.912442       -24.8288
  27   2.0000      -0.901987       -24.5443
  28   2.0000      -0.871986       -23.7279
  29   2.0000      -0.848472       -23.0881
  30   2.0000      -0.840756       -22.8781
  31   2.0000      -0.814093       -22.1526
  32   2.0000      -0.784641       -21.3512
  33   2.0000      -0.775568       -21.1043
  34   2.0000      -0.715486       -19.4694
  35   2.0000      -0.703569       -19.1451
  36   2.0000      -0.697099       -18.9690
  37   2.0000      -0.657220       -17.8839
  38   2.0000      -0.643738       -17.5170
  39   2.0000      -0.616123       -16.7656
  40   2.0000      -0.597652       -16.2629
  41   2.0000      -0.572316       -15.5735
  42   2.0000      -0.560904       -15.2630
  43   2.0000      -0.553541       -15.0626
  44   2.0000      -0.546478       -14.8704
  45   2.0000      -0.523495       -14.2450
  46   2.0000      -0.512658       -13.9501
  47   2.0000      -0.510542       -13.8926
  48   2.0000      -0.504279       -13.7221
  49   2.0000      -0.497923       -13.5492
  50   2.0000      -0.489668       -13.3245
  51   2.0000      -0.481654       -13.1065
  52   2.0000      -0.473578       -12.8867
  53   2.0000      -0.466749       -12.7009
  54   2.0000      -0.460274       -12.5247
  55   2.0000      -0.451137       -12.2761
  56   2.0000      -0.443448       -12.0668
  57   2.0000      -0.435189       -11.8421
  58   2.0000      -0.432639       -11.7727
  59   2.0000      -0.422548       -11.4981
  60   2.0000      -0.418651       -11.3921
  61   2.0000      -0.417080       -11.3493
  62   2.0000      -0.406622       -11.0647
  63   2.0000      -0.345991        -9.4149
  64   2.0000      -0.329659        -8.9705
  65   2.0000      -0.325790        -8.8652
  66   2.0000      -0.296711        -8.0739
  67   0.0000       0.033197         0.9033
  68   0.0000       0.070538         1.9194
  69   0.0000       0.111183         3.0255
  70   0.0000       0.119034         3.2391
  71   0.0000       0.134846         3.6693

MULLIKEN ATOMIC CHARGES
-----------------------
   0 S :    0.111083
   1 C :   -0.115819
   2 C :   -0.098708
   3 C :    0.025951
   4 C :   -0.146128
   5 H :    0.022667
   6 C :    0.082551
   7 H :    0.032094
   8 H :    0.022477
   9 C :   -0.075227
  10 H :    0.029198
  11 H :    0.038404
  12 C :   -0.053836
  13 H :    0.006746
  14 H :    0.046866
  15 H :    0.014562
  16 S :    0.104477
  17 C :   -0.079648
  18 C :   -0.048097
  19 C :   -0.057794
  20 C :   -0.142120
  21 H :    0.020106
  22 C :    0.108432
  23 H :    0.018009
  24 H :    0.025094
  25 C :   -0.078954
  26 H :    0.031845
  27 H :    0.036539
  28 C :   -0.042415
  29 H :    0.028108
  30 H :    0.020295
  31 H :    0.020626
  32 H :    0.040763
  33 H :    0.051852
Sum of atomic charges:   -0.0000000

LOEWDIN ATOMIC CHARGES
----------------------
   0 S :    0.403200
   1 C :   -0.187297
   2 C :   -0.049549
   3 C :   -0.056567
   4 C :   -0.197383
   5 H :    0.032810
   6 C :   -0.031134
   7 H :    0.033482
   8 H :    0.029995
   9 C :   -0.044893
  10 H :    0.025107
  11 H :    0.032324
  12 C :   -0.078552
  13 H :    0.021595
  14 H :    0.029085
  15 H :    0.023256
  16 S :    0.426366
  17 C :   -0.188240
  18 C :   -0.074588
  19 C :   -0.050715
  20 C :   -0.218154
  21 H :    0.030078
  22 C :   -0.018793
  23 H :    0.031115
  24 H :    0.022964
  25 C :   -0.034580
  26 H :    0.017885
  27 H :    0.027721
  28 C :   -0.081171
  29 H :    0.022766
  30 H :    0.026880
  31 H :    0.030893
  32 H :    0.019848
  33 H :    0.024247

  Mayer bond orders larger than 0.100000
B(  0-S ,  1-C ) :   1.1259 B(  0-S ,  4-C ) :   1.1538 B(  1-C ,  2-C ) :   1.6244
B(  1-C , 32-H ) :   0.9780 B(  2-C ,  3-C ) :   1.2140 B(  2-C ,  6-C ) :   1.0082
B(  3-C ,  4-C ) :   1.5841 B(  3-C ,  5-H ) :   0.9964 B(  4-C , 20-C ) :   1.0212
B(  6-C ,  7-H ) :   0.9519 B(  6-C ,  8-H ) :   0.9328 B(  6-C ,  9-C ) :   1.0709
B(  9-C , 10-H ) :   0.9556 B(  9-C , 11-H ) :   0.9539 B(  9-C , 12-C ) :   1.0805
B( 12-C , 13-H ) :   0.9685 B( 12-C , 14-H ) :   0.9764 B( 12-C , 15-H ) :   0.9691
B( 16-S , 17-C ) :   1.1736 B( 16-S , 20-C ) :   1.1486 B( 17-C , 18-C ) :   1.5851
B( 17-C , 33-H ) :   0.9718 B( 18-C , 19-C ) :   1.2342 B( 18-C , 21-H ) :   0.9938
B( 19-C , 20-C ) :   1.6202 B( 19-C , 22-C ) :   1.0188 B( 22-C , 23-H ) :   0.9226
B( 22-C , 24-H ) :   0.9437 B( 22-C , 25-C ) :   1.0748 B( 25-C , 26-H ) :   0.9611
B( 25-C , 27-H ) :   0.9553 B( 25-C , 28-C ) :   1.0524 B( 28-C , 29-H ) :   0.9801
B( 28-C , 30-H ) :   0.9776 B( 28-C , 31-H ) :   0.9732

Dispersion correction           -0.014171778
FINAL SINGLE POINT ENERGY     -1339.870230398082

DIPOLE MOMENT
-------------
                                X             Y             Z
Electronic contribution:    -26.84813       0.64454      16.28292
Nuclear contribution   :     27.37957      -0.67326     -16.75124
                        -----------------------------------------
Total Dipole Moment    :      0.53145      -0.02871      -0.46833
                        -----------------------------------------
Magnitude (a.u.)       :      0.70893
Magnitude (Debye)      :      1.80197

Rotational constants in cm-1:     0.016384     0.009598     0.006584
Rotational constants in MHz :   491.178674   287.752093   197.398264

                             ****ORCA TERMINATED NORMALLY****
TOTAL RUN TIME: 0 days 0 hours 0 minutes 34 seconds 900 msec
