                         Program Version 4.2.1 -  RELEASE  -
|  1> ! wB97X-D3 SP def2-SVP
|  2> %pal
|  3> nprocs 16
|  4> end
|  5>
|  6> * xyz 0 1
|  7> S 	 2.36671 	 -18.2637 	 78.9316
|  8> C 	 1.5809 	 -18.397 	 80.4548
|  9> C 	 1.20403 	 -17.2015 	 80.99
| 10> C 	 1.63332 	 -16.0937 	 80.2408
| 11> C 	 2.05759 	 -16.5153 	 79.0174
| 12> H 	 1.58585 	 -15.0283 	 80.5566
| 13> C 	 0.821032 	 -17.0902 	 82.4214
| 14> H 	 1.52049 	 -16.4267 	 82.9096
| 15> H 	 0.95509 	 -18.094 	 82.908
| 16> C 	 -0.622765 	 -16.6831 	 82.6835
| 17> H 	 -0.962645 	 -15.9597 	 81.8989
| 18> H 	 -1.34278 	 -17.5116 	 82.5517
| 19> C 	 -0.878684 	 -16.0159 	 84.0368
| 20> H 	 -0.917517 	 -14.9063 	 83.8513
| 21> H 	 -1.92353 	 -16.2972 	 84.2939
| 22> H 	 -0.146304 	 -16.3795 	 84.8726
| 23> S 	 1.09079 	 -14.9797 	 77.1014
| 24> C 	 2.16891 	 -14.2332 	 75.9069
| 25> C 	 3.46272 	 -14.5559 	 76.1318
| 26> C 	 3.64611 	 -15.3754 	 77.3116
| 27> C 	 2.42584 	 -15.6556 	 77.8965
| 28> H 	 4.28663 	 -14.2861 	 75.5036
| 29> C 	 4.95972 	 -16.009 	 77.7471
| 30> H 	 5.02581 	 -17.0404 	 77.381
| 31> H 	 5.01819 	 -16.0885 	 78.8473
| 32> C 	 6.19424 	 -15.3353 	 77.3752
| 33> H 	 6.12114 	 -14.2951 	 77.6966
| 34> H 	 6.26671 	 -15.3153 	 76.3222
| 35> C 	 7.51486 	 -15.9646 	 77.8616
| 36> H 	 7.44631 	 -16.3147 	 78.9225
| 37> H 	 8.35425 	 -15.3184 	 77.7005
| 38> H 	 7.7933 	 -16.8964 	 77.2255
| 39> H 	 1.38357 	 -19.3385 	 80.9851
| 40> H 	 1.79405 	 -13.7779 	 74.9502
| 41> *
| 42>
| 43>                          ****END OF INPUT****

CARTESIAN COORDINATES (ANGSTROEM)
---------------------------------
  S      2.366710  -18.263700   78.931600
  C      1.580900  -18.397000   80.454800
  C      1.204030  -17.201500   80.990000
  C      1.633320  -16.093700   80.240800
  C      2.057590  -16.515300   79.017400
  H      1.585850  -15.028300   80.556600
  C      0.821032  -17.090200   82.421400
  H      1.520490  -16.426700   82.909600
  H      0.955090  -18.094000   82.908000
  C     -0.622765  -16.683100   82.683500
  H     -0.962645  -15.959700   81.898900
  H     -1.342780  -17.511600   82.551700
  C     -0.878684  -16.015900   84.036800
  H     -0.917517  -14.906300   83.851300
  H     -1.923530  -16.297200   84.293900
  H     -0.146304  -16.379500   84.872600
  S      1.090790  -14.979700   77.101400
  C      2.168910  -14.233200   75.906900
  C      3.462720  -14.555900   76.131800
  C      3.646110  -15.375400   77.311600
  C      2.425840  -15.655600   77.896500
  H      4.286630  -14.286100   75.503600
  C      4.959720  -16.009000   77.747100
  H      5.025810  -17.040400   77.381000
  H      5.018190  -16.088500   78.847300
  C      6.194240  -15.335300   77.375200
  H      6.121140  -14.295100   77.696600
  H      6.266710  -15.315300   76.322200
  C      7.514860  -15.964600   77.861600
  H      7.446310  -16.314700   78.922500
  H      8.354250  -15.318400   77.700500
  H      7.793300  -16.896400   77.225500
  H      1.383570  -19.338500   80.985100
  H      1.794050  -13.777900   74.950200

 Total Charge           Charge          ....    0
 Multiplicity           Mult            ....    1
 Number of Electrons    NEL             ....  134
 Basis Dimension        Dim             ....  322

ORBITAL ENERGIES
----------------

  NO   OCC          E(Eh)            E(eV)
   0   2.0000     -88.967281     -2420.9228
   1   2.0000     -88.963141     -2420.8101
   2   2.0000     -10.325343      -280.9669
   3   2.0000     -10.316894      -280.7370
   4   2.0000     -10.316156      -280.7169
   5   2.0000     -10.308443      -280.5070
   6   2.0000     -10.300637      -280.2946
   7   2.0000     -10.293995      -280.1139
   8   2.0000     -10.292311      -280.0680
   9   2.0000     -10.289300      -279.9861
  10   2.0000     -10.289098      -279.9806
  11   2.0000     -10.287979      -279.9501
  12   2.0000     -10.287066      -279.9253
  13   2.0000     -10.286035      -279.8972
  14   2.0000     -10.284321      -279.8506
  15   2.0000     -10.276681      -279.6427
  16   2.0000      -8.082079      -219.9246
  17   2.0000      -8.078711      -219.8329
  18   2.0000      -6.040464      -164.3694
  19   2.0000      -6.037175      -164.2799
  20   2.0000      -6.036845      -164.2709
  21   2.0000      -6.033068      -164.1681
  22   2.0000      -6.032708      -164.1583
  23   2.0000      -6.029489      -164.0707
  24   2.0000      -1.012645       -27.5555
  25   2.0000      -0.989517       -26.9261
  26   2.0000      -0.918251       -24.9869
  27   2.0000      -0.910739       -24.7825
  28   2.0000      -0.871287       -23.7089
  29   2.0000      -0.853948       -23.2371
  30   2.0000      -0.845524       -23.0079
  31   2.0000      -0.817921       -22.2567
  32   2.0000      -0.780355       -21.2345
  33   2.0000      -0.764912       -20.8143
  34   2.0000      -0.702717       -19.1219
  35   2.0000      -0.694621       -18.9016
  36   2.0000      -0.685741       -18.6600
  37   2.0000      -0.654635       -17.8135
  38   2.0000      -0.639652       -17.4058
  39   2.0000      -0.621221       -16.9043
  40   2.0000      -0.603411       -16.4196
  41   2.0000      -0.575493       -15.6600
  42   2.0000      -0.565931       -15.3998
  43   2.0000      -0.551884       -15.0175
  44   2.0000      -0.525518       -14.3001
  45   2.0000      -0.522503       -14.2180
  46   2.0000      -0.517241       -14.0749
  47   2.0000      -0.512701       -13.9513
  48   2.0000      -0.502953       -13.6860
  49   2.0000      -0.498934       -13.5767
  50   2.0000      -0.479429       -13.0459
  51   2.0000      -0.474638       -12.9156
  52   2.0000      -0.473777       -12.8921
  53   2.0000      -0.464476       -12.6390
  54   2.0000      -0.458656       -12.4807
  55   2.0000      -0.456651       -12.4261
  56   2.0000      -0.448409       -12.2018
  57   2.0000      -0.435693       -11.8558
  58   2.0000      -0.432395       -11.7661
  59   2.0000      -0.420796       -11.4504
  60   2.0000      -0.418146       -11.3783
  61   2.0000      -0.414202       -11.2710
  62   2.0000      -0.404375       -11.0036
  63   2.0000      -0.340357        -9.2616
  64   2.0000      -0.338708        -9.2167
  65   2.0000      -0.320780        -8.7289
  66   2.0000      -0.299256        -8.1432
  67   0.0000       0.042211         1.1486
  68   0.0000       0.064273         1.7490
  69   0.0000       0.103739         2.8229
  70   0.0000       0.122274         3.3273
  71   0.0000       0.132122         3.5952

MULLIKEN ATOMIC CHARGES
-----------------------
   0 S :    0.125865
   1 C :   -0.122612
   2 C :   -0.058532
   3 C :    0.021094
   4 C :   -0.177376
   5 H :    0.039776
   6 C :    0.052294
   7 H :    0.029483
   8 H :    0.021662
   9 C :   -0.102076
  10 H :    0.028760
  11 H :    0.029981
  12 C :   -0.087588
  13 H :    0.048510
  14 H :    0.034402
  15 H :    0.056909
  16 S :    0.118581
  17 C :   -0.105114
  18 C :   -0.026981
  19 C :   -0.026597
  20 C :   -0.178442
  21 H :    0.013859
  22 C :    0.083970
  23 H :    0.031610
  24 H :    0.026179
  25 C :   -0.098469
  26 H :    0.027835
  27 H :    0.015480
  28 C :   -0.056371
  29 H :    0.038993
  30 H :    0.034975
  31 H :    0.036207
  32 H :    0.050249
  33 H :    0.073482
Sum of atomic charges:   -0.0000000

LOEWDIN ATOMIC CHARGES
----------------------
   0 S :    0.407586
   1 C :   -0.202681
   2 C :   -0.075126
   3 C :   -0.055783
   4 C :   -0.185849
   5 H :    0.045072
   6 C :   -0.033769
   7 H :    0.030217
   8 H :    0.033307
   9 C :   -0.055995
  10 H :    0.025425
  11 H :    0.023611
  12 C :   -0.081792
  13 H :    0.032877
  14 H :    0.029246
  15 H :    0.036539
  16 S :    0.426014
  17 C :   -0.191340
  18 C :   -0.066305
  19 C :   -0.059529
  20 C :   -0.216989
  21 H :    0.029171
  22 C :   -0.039640
  23 H :    0.032052
  24 H :    0.033507
  25 C :   -0.050108
  26 H :    0.024903
  27 H :    0.015579
  28 C :   -0.066143
  29 H :    0.027886
  30 H :    0.023996
  31 H :    0.033675
  32 H :    0.030516
  33 H :    0.039870

  Mayer bond orders larger than 0.100000
B(  0-S ,  1-C ) :   1.1359 B(  0-S ,  4-C ) :   1.1421 B(  1-C ,  2-C ) :   1.6328
B(  1-C , 32-H ) :   0.9592 B(  2-C ,  3-C ) :   1.2169 B(  2-C ,  6-C ) :   1.0361
B(  3-C ,  4-C ) :   1.6093 B(  3-C ,  5-H ) :   0.9897 B(  4-C , 20-C ) :   0.9980
B(  6-C ,  7-H ) :   0.9487 B(  6-C ,  8-H ) :   0.9383 B(  6-C ,  9-C ) :   1.0442
B(  9-C , 10-H ) :   0.9656 B(  9-C , 11-H ) :   0.9601 B(  9-C , 12-C ) :   1.0614
B( 12-C , 13-H ) :   0.9794 B( 12-C , 14-H ) :   0.9765 B( 12-C , 15-H ) :   0.9735
B( 16-S , 17-C ) :   1.1384 B( 16-S , 20-C ) :   1.1732 B( 17-C , 18-C ) :   1.6228
B( 17-C , 33-H ) :   0.9586 B( 18-C , 19-C ) :   1.2325 B( 18-C , 21-H ) :   0.9895
B( 19-C , 20-C ) :   1.6103 B( 19-C , 22-C ) :   1.0420 B( 22-C , 23-H ) :   0.9257
B( 22-C , 24-H ) :   0.9245 B( 22-C , 25-C ) :   1.0874 B( 25-C , 26-H ) :   0.9566
B( 25-C , 27-H ) :   0.9397 B( 25-C , 28-C ) :   1.0886 B( 28-C , 29-H ) :   0.9744
B( 28-C , 30-H ) :   0.9727 B( 28-C , 31-H ) :   0.9720

Dispersion correction           -0.013622985
FINAL SINGLE POINT ENERGY     -1339.873206587999

DIPOLE MOMENT
-------------
                                X             Y             Z
Electronic contribution:     -8.46938      -2.48828     -15.95252
Nuclear contribution   :      8.74358       2.51421      16.13098
                        -----------------------------------------
Total Dipole Moment    :      0.27421       0.02593       0.17846
                        -----------------------------------------
Magnitude (a.u.)       :      0.32819
Magnitude (Debye)      :      0.83420

Rotational constants in cm-1:     0.020454     0.007328     0.006308
Rotational constants in MHz :   613.204985   219.689017   189.105296

                             ****ORCA TERMINATED NORMALLY****
TOTAL RUN TIME: 0 days 0 hours 0 minutes 34 seconds 222 msec
