                         Program Version 4.2.1 -  RELEASE  -
|  1> ! wB97X-D3 SP def2-SVP
|  2> %pal
|  3> nprocs 16
|  4> end
|  5>
|  6> * xyz 0 1
|  7> S 	 -44.4542 	 35.2707 	 80.3966
|  8> C 	 -44.0845 	 36.7603 	 79.6064
|  9> C 	 -42.7318 	 36.8806 	 79.3756
| 10> C 	 -41.9883 	 35.9245 	 80.141
| 11> C 	 -42.7716 	 35.0536 	 80.8301
| 12> H 	 -40.9197 	 35.9634 	 80.1392
| 13> C 	 -42.092 	 38.0135 	 78.6055
| 14> H 	 -42.8088 	 38.2921 	 77.769
| 15> H 	 -41.0694 	 37.7496 	 78.261
| 16> C 	 -41.9047 	 39.3068 	 79.3806
| 17> H 	 -42.8657 	 39.5746 	 79.8337
| 18> H 	 -41.2439 	 38.9873 	 80.1961
| 19> C 	 -41.3164 	 40.5141 	 78.5974
| 20> H 	 -42.1514 	 41.0321 	 78.1234
| 21> H 	 -40.9466 	 41.2199 	 79.3508
| 22> H 	 -40.5166 	 40.1643 	 77.9872
| 23> S 	 -42.9963 	 32.3773 	 81.3773
| 24> C 	 -41.8669 	 31.5467 	 82.4246
| 25> C 	 -41.1345 	 32.5039 	 83.1154
| 26> C 	 -41.2474 	 33.828 	 82.5852
| 27> C 	 -42.2216 	 33.9208 	 81.5988
| 28> H 	 -40.4594 	 32.1606 	 83.9268
| 29> C 	 -40.3012 	 35.0082 	 82.9334
| 30> H 	 -40.2412 	 34.9232 	 84.0361
| 31> H 	 -40.756 	 35.9225 	 82.606
| 32> C 	 -38.879 	 34.8415 	 82.341
| 33> H 	 -38.9421 	 34.8583 	 81.2157
| 34> H 	 -38.4135 	 33.8611 	 82.5987
| 35> C 	 -37.9318 	 36.0159 	 82.7097
| 36> H 	 -38.4288 	 36.9581 	 82.48
| 37> H 	 -36.932 	 35.9188 	 82.1578
| 38> H 	 -37.6744 	 36.0292 	 83.7099
| 39> H 	 -44.7459 	 37.5244 	 79.3074
| 40> H 	 -41.8468 	 30.5396 	 82.6381
| 41> *
| 42>
| 43>                          ****END OF INPUT****

CARTESIAN COORDINATES (ANGSTROEM)
---------------------------------
  S    -44.454200   35.270700   80.396600
  C    -44.084500   36.760300   79.606400
  C    -42.731800   36.880600   79.375600
  C    -41.988300   35.924500   80.141000
  C    -42.771600   35.053600   80.830100
  H    -40.919700   35.963400   80.139200
  C    -42.092000   38.013500   78.605500
  H    -42.808800   38.292100   77.769000
  H    -41.069400   37.749600   78.261000
  C    -41.904700   39.306800   79.380600
  H    -42.865700   39.574600   79.833700
  H    -41.243900   38.987300   80.196100
  C    -41.316400   40.514100   78.597400
  H    -42.151400   41.032100   78.123400
  H    -40.946600   41.219900   79.350800
  H    -40.516600   40.164300   77.987200
  S    -42.996300   32.377300   81.377300
  C    -41.866900   31.546700   82.424600
  C    -41.134500   32.503900   83.115400
  C    -41.247400   33.828000   82.585200
  C    -42.221600   33.920800   81.598800
  H    -40.459400   32.160600   83.926800
  C    -40.301200   35.008200   82.933400
  H    -40.241200   34.923200   84.036100
  H    -40.756000   35.922500   82.606000
  C    -38.879000   34.841500   82.341000
  H    -38.942100   34.858300   81.215700
  H    -38.413500   33.861100   82.598700
  C    -37.931800   36.015900   82.709700
  H    -38.428800   36.958100   82.480000
  H    -36.932000   35.918800   82.157800
  H    -37.674400   36.029200   83.709900
  H    -44.745900   37.524400   79.307400
  H    -41.846800   30.539600   82.638100

 Total Charge           Charge          ....    0
 Multiplicity           Mult            ....    1
 Number of Electrons    NEL             ....  134
 Basis Dimension        Dim             ....  322

ORBITAL ENERGIES
----------------

  NO   OCC          E(Eh)            E(eV)
   0   2.0000     -88.970322     -2421.0055
   1   2.0000     -88.962058     -2420.7807
   2   2.0000     -10.331174      -281.1255
   3   2.0000     -10.327250      -281.0188
   4   2.0000     -10.313205      -280.6366
   5   2.0000     -10.310146      -280.5533
   6   2.0000     -10.304425      -280.3977
   7   2.0000     -10.299193      -280.2553
   8   2.0000     -10.298463      -280.2354
   9   2.0000     -10.297326      -280.2045
  10   2.0000     -10.296248      -280.1751
  11   2.0000     -10.295938      -280.1667
  12   2.0000     -10.291880      -280.0563
  13   2.0000     -10.286154      -279.9005
  14   2.0000     -10.282217      -279.7934
  15   2.0000     -10.279894      -279.7301
  16   2.0000      -8.085244      -220.0107
  17   2.0000      -8.077150      -219.7904
  18   2.0000      -6.043866      -164.4620
  19   2.0000      -6.039876      -164.3534
  20   2.0000      -6.035725      -164.2404
  21   2.0000      -6.035655      -164.2385
  22   2.0000      -6.031596      -164.1281
  23   2.0000      -6.027912      -164.0278
  24   2.0000      -1.011289       -27.5186
  25   2.0000      -0.987982       -26.8844
  26   2.0000      -0.914162       -24.8756
  27   2.0000      -0.903524       -24.5861
  28   2.0000      -0.871143       -23.7050
  29   2.0000      -0.853442       -23.2233
  30   2.0000      -0.844633       -22.9836
  31   2.0000      -0.818311       -22.2674
  32   2.0000      -0.781709       -21.2714
  33   2.0000      -0.773264       -21.0416
  34   2.0000      -0.706360       -19.2210
  35   2.0000      -0.697207       -18.9720
  36   2.0000      -0.693382       -18.8679
  37   2.0000      -0.663043       -18.0423
  38   2.0000      -0.640798       -17.4370
  39   2.0000      -0.625169       -17.0117
  40   2.0000      -0.593609       -16.1529
  41   2.0000      -0.581462       -15.8224
  42   2.0000      -0.564191       -15.3524
  43   2.0000      -0.560174       -15.2431
  44   2.0000      -0.526908       -14.3379
  45   2.0000      -0.525073       -14.2880
  46   2.0000      -0.519261       -14.1298
  47   2.0000      -0.513606       -13.9759
  48   2.0000      -0.506005       -13.7691
  49   2.0000      -0.504629       -13.7317
  50   2.0000      -0.495881       -13.4936
  51   2.0000      -0.479826       -13.0567
  52   2.0000      -0.479134       -13.0379
  53   2.0000      -0.466574       -12.6961
  54   2.0000      -0.461916       -12.5694
  55   2.0000      -0.447824       -12.1859
  56   2.0000      -0.443153       -12.0588
  57   2.0000      -0.439110       -11.9488
  58   2.0000      -0.435854       -11.8602
  59   2.0000      -0.426432       -11.6038
  60   2.0000      -0.423709       -11.5297
  61   2.0000      -0.414445       -11.2776
  62   2.0000      -0.408709       -11.1215
  63   2.0000      -0.355219        -9.6660
  64   2.0000      -0.332077        -9.0363
  65   2.0000      -0.326026        -8.8716
  66   2.0000      -0.287882        -7.8337
  67   0.0000       0.030487         0.8296
  68   0.0000       0.064970         1.7679
  69   0.0000       0.107331         2.9206
  70   0.0000       0.121565         3.3079
  71   0.0000       0.124303         3.3825

MULLIKEN ATOMIC CHARGES
-----------------------
   0 S :    0.125299
   1 C :   -0.105899
   2 C :   -0.068236
   3 C :    0.008577
   4 C :   -0.096567
   5 H :   -0.004564
   6 C :    0.031203
   7 H :    0.032001
   8 H :    0.027433
   9 C :   -0.105435
  10 H :    0.019146
  11 H :    0.017029
  12 C :   -0.010539
  13 H :    0.039612
  14 H :    0.037541
  15 H :    0.033346
  16 S :    0.089851
  17 C :   -0.066827
  18 C :   -0.051587
  19 C :   -0.052986
  20 C :   -0.149829
  21 H :    0.031909
  22 C :    0.078648
  23 H :    0.031203
  24 H :    0.024975
  25 C :   -0.106344
  26 H :    0.036171
  27 H :    0.035369
  28 C :   -0.031090
  29 H :    0.027228
  30 H :    0.044478
  31 H :    0.017075
  32 H :    0.030435
  33 H :    0.031375
Sum of atomic charges:   -0.0000000

LOEWDIN ATOMIC CHARGES
----------------------
   0 S :    0.415229
   1 C :   -0.194473
   2 C :   -0.060177
   3 C :   -0.060088
   4 C :   -0.189290
   5 H :    0.026111
   6 C :   -0.040094
   7 H :    0.034541
   8 H :    0.030923
   9 C :   -0.045936
  10 H :    0.018994
  11 H :    0.018552
  12 C :   -0.059809
  13 H :    0.029582
  14 H :    0.032864
  15 H :    0.022095
  16 S :    0.401994
  17 C :   -0.175338
  18 C :   -0.071920
  19 C :   -0.062636
  20 C :   -0.192143
  21 H :    0.036512
  22 C :   -0.026171
  23 H :    0.034494
  24 H :    0.024713
  25 C :   -0.044455
  26 H :    0.025095
  27 H :    0.026508
  28 C :   -0.064695
  29 H :    0.024027
  30 H :    0.036877
  31 H :    0.011216
  32 H :    0.021905
  33 H :    0.014992

  Mayer bond orders larger than 0.100000
B(  0-S ,  1-C ) :   1.1381 B(  0-S ,  4-C ) :   1.1412 B(  1-C ,  2-C ) :   1.6030
B(  1-C , 32-H ) :   0.9729 B(  2-C ,  3-C ) :   1.2445 B(  2-C ,  6-C ) :   1.0438
B(  3-C ,  4-C ) :   1.5503 B(  3-C ,  5-H ) :   1.0030 B(  4-C , 20-C ) :   1.0416
B(  6-C ,  7-H ) :   0.9372 B(  6-C ,  8-H ) :   0.9362 B(  6-C ,  9-C ) :   1.0672
B(  9-C , 10-H ) :   0.9559 B(  9-C , 11-H ) :   0.9565 B(  9-C , 12-C ) :   1.0739
B( 12-C , 13-H ) :   0.9756 B( 12-C , 14-H ) :   0.9734 B( 12-C , 15-H ) :   0.9748
B( 16-S , 17-C ) :   1.1518 B( 16-S , 20-C ) :   1.1434 B( 17-C , 18-C ) :   1.6054
B( 17-C , 20-C ) :   0.1032 B( 17-C , 33-H ) :   0.9803 B( 18-C , 19-C ) :   1.2446
B( 18-C , 21-H ) :   0.9837 B( 19-C , 20-C ) :   1.5941 B( 19-C , 22-C ) :   1.0440
B( 22-C , 23-H ) :   0.9326 B( 22-C , 24-H ) :   0.9315 B( 22-C , 25-C ) :   1.0636
B( 25-C , 26-H ) :   0.9546 B( 25-C , 27-H ) :   0.9550 B( 25-C , 28-C ) :   1.0767
B( 28-C , 29-H ) :   0.9734 B( 28-C , 30-H ) :   0.9742 B( 28-C , 31-H ) :   0.9770

Dispersion correction           -0.013967874
FINAL SINGLE POINT ENERGY     -1339.875755081626

DIPOLE MOMENT
-------------
                                X             Y             Z
Electronic contribution:    -22.67867     -24.07536       1.24503
Nuclear contribution   :     23.25122      24.54270      -1.15144
                        -----------------------------------------
Total Dipole Moment    :      0.57255       0.46735       0.09358
                        -----------------------------------------
Magnitude (a.u.)       :      0.74497
Magnitude (Debye)      :      1.89356

Rotational constants in cm-1:     0.017661     0.009045     0.006243
Rotational constants in MHz :   529.462923   271.171480   187.166712

                             ****ORCA TERMINATED NORMALLY****
TOTAL RUN TIME: 0 days 0 hours 0 minutes 30 seconds 31 msec
