                         Program Version 4.2.1 -  RELEASE  -
|  1> ! wB97X-D3 SP def2-SVP
|  2> %pal
|  3> nprocs 16
|  4> end
|  5>
|  6> * xyz 0 1
|  7> S 	 9.12726 	 -18.4111 	 57.6783
|  8> C 	 9.55763 	 -17.5383 	 59.1054
|  9> C 	 10.2285 	 -16.3381 	 58.7517
| 10> C 	 10.4932 	 -16.3052 	 57.3305
| 11> C 	 10.0114 	 -17.4091 	 56.612
| 12> H 	 11.0079 	 -15.4466 	 56.8563
| 13> C 	 10.595 	 -15.1643 	 59.6896
| 14> H 	 9.88334 	 -15.1173 	 60.5257
| 15> H 	 10.4495 	 -14.2206 	 59.0677
| 16> C 	 12.0507 	 -15.2648 	 60.333
| 17> H 	 12.32 	 -14.4528 	 60.9446
| 18> H 	 12.1585 	 -16.1093 	 61.0103
| 19> C 	 13.0543 	 -15.4368 	 59.1759
| 20> H 	 14.0993 	 -15.269 	 59.4326
| 21> H 	 12.8454 	 -16.3608 	 58.5933
| 22> H 	 12.6811 	 -14.6564 	 58.4725
| 23> S 	 11.7635 	 -17.6282 	 54.5816
| 24> C 	 11.2325 	 -17.9265 	 52.9418
| 25> C 	 9.8815 	 -18.0314 	 52.9384
| 26> C 	 9.20358 	 -17.8777 	 54.2295
| 27> C 	 10.1275 	 -17.6466 	 55.2407
| 28> H 	 9.3661 	 -18.1733 	 51.9202
| 29> C 	 7.7349 	 -17.8682 	 54.3762
| 30> H 	 7.2668 	 -16.8849 	 54.356
| 31> H 	 7.46543 	 -18.3356 	 55.3686
| 32> C 	 6.99608 	 -18.6095 	 53.1987
| 33> H 	 7.6087 	 -19.4914 	 53.1086
| 34> H 	 7.12119 	 -18.1248 	 52.2971
| 35> C 	 5.5686 	 -18.7678 	 53.5179
| 36> H 	 5.41655 	 -19.4974 	 54.366
| 37> H 	 5.14128 	 -19.4088 	 52.6964
| 38> H 	 4.93109 	 -17.8845 	 53.5577
| 39> H 	 9.18652 	 -17.9009 	 59.983
| 40> H 	 11.8 	 -17.8364 	 52.0416
| 41> *
| 42>
| 43>                          ****END OF INPUT****

CARTESIAN COORDINATES (ANGSTROEM)
---------------------------------
  S      9.127260  -18.411100   57.678300
  C      9.557630  -17.538300   59.105400
  C     10.228500  -16.338100   58.751700
  C     10.493200  -16.305200   57.330500
  C     10.011400  -17.409100   56.612000
  H     11.007900  -15.446600   56.856300
  C     10.595000  -15.164300   59.689600
  H      9.883340  -15.117300   60.525700
  H     10.449500  -14.220600   59.067700
  C     12.050700  -15.264800   60.333000
  H     12.320000  -14.452800   60.944600
  H     12.158500  -16.109300   61.010300
  C     13.054300  -15.436800   59.175900
  H     14.099300  -15.269000   59.432600
  H     12.845400  -16.360800   58.593300
  H     12.681100  -14.656400   58.472500
  S     11.763500  -17.628200   54.581600
  C     11.232500  -17.926500   52.941800
  C      9.881500  -18.031400   52.938400
  C      9.203580  -17.877700   54.229500
  C     10.127500  -17.646600   55.240700
  H      9.366100  -18.173300   51.920200
  C      7.734900  -17.868200   54.376200
  H      7.266800  -16.884900   54.356000
  H      7.465430  -18.335600   55.368600
  C      6.996080  -18.609500   53.198700
  H      7.608700  -19.491400   53.108600
  H      7.121190  -18.124800   52.297100
  C      5.568600  -18.767800   53.517900
  H      5.416550  -19.497400   54.366000
  H      5.141280  -19.408800   52.696400
  H      4.931090  -17.884500   53.557700
  H      9.186520  -17.900900   59.983000
  H     11.800000  -17.836400   52.041600

 Total Charge           Charge          ....    0
 Multiplicity           Mult            ....    1
 Number of Electrons    NEL             ....  134
 Basis Dimension        Dim             ....  322

ORBITAL ENERGIES
----------------

  NO   OCC          E(Eh)            E(eV)
   0   2.0000     -88.966867     -2420.9115
   1   2.0000     -88.961539     -2420.7666
   2   2.0000     -10.326200      -280.9902
   3   2.0000     -10.323807      -280.9251
   4   2.0000     -10.314492      -280.6716
   5   2.0000     -10.312892      -280.6281
   6   2.0000     -10.312552      -280.6188
   7   2.0000     -10.306455      -280.4529
   8   2.0000     -10.304385      -280.3966
   9   2.0000     -10.300641      -280.2947
  10   2.0000     -10.298826      -280.2453
  11   2.0000     -10.289663      -279.9960
  12   2.0000     -10.285532      -279.8836
  13   2.0000     -10.281705      -279.7794
  14   2.0000     -10.276516      -279.6382
  15   2.0000     -10.274871      -279.5935
  16   2.0000      -8.082533      -219.9369
  17   2.0000      -8.076183      -219.7641
  18   2.0000      -6.040922      -164.3818
  19   2.0000      -6.036653      -164.2657
  20   2.0000      -6.034863      -164.2170
  21   2.0000      -6.033639      -164.1837
  22   2.0000      -6.030645      -164.1022
  23   2.0000      -6.026805      -163.9977
  24   2.0000      -1.011485       -27.5239
  25   2.0000      -0.984284       -26.7837
  26   2.0000      -0.914538       -24.8858
  27   2.0000      -0.906299       -24.6616
  28   2.0000      -0.877526       -23.8787
  29   2.0000      -0.851490       -23.1702
  30   2.0000      -0.842326       -22.9209
  31   2.0000      -0.812231       -22.1019
  32   2.0000      -0.778230       -21.1767
  33   2.0000      -0.766436       -20.8558
  34   2.0000      -0.711076       -19.3493
  35   2.0000      -0.703827       -19.1521
  36   2.0000      -0.702637       -19.1197
  37   2.0000      -0.658187       -17.9102
  38   2.0000      -0.640394       -17.4260
  39   2.0000      -0.612086       -16.6557
  40   2.0000      -0.598727       -16.2922
  41   2.0000      -0.575496       -15.6600
  42   2.0000      -0.566932       -15.4270
  43   2.0000      -0.549556       -14.9542
  44   2.0000      -0.547348       -14.8941
  45   2.0000      -0.523926       -14.2568
  46   2.0000      -0.516832       -14.0637
  47   2.0000      -0.512083       -13.9345
  48   2.0000      -0.507468       -13.8089
  49   2.0000      -0.499425       -13.5900
  50   2.0000      -0.491643       -13.3783
  51   2.0000      -0.481652       -13.1064
  52   2.0000      -0.467444       -12.7198
  53   2.0000      -0.463870       -12.6225
  54   2.0000      -0.460174       -12.5220
  55   2.0000      -0.454974       -12.3805
  56   2.0000      -0.441806       -12.0222
  57   2.0000      -0.431319       -11.7368
  58   2.0000      -0.428307       -11.6548
  59   2.0000      -0.424611       -11.5543
  60   2.0000      -0.418982       -11.4011
  61   2.0000      -0.412159       -11.2154
  62   2.0000      -0.399935       -10.8828
  63   2.0000      -0.347897        -9.4668
  64   2.0000      -0.330260        -8.9868
  65   2.0000      -0.325972        -8.8701
  66   2.0000      -0.291824        -7.9409
  67   0.0000       0.026477         0.7205
  68   0.0000       0.073478         1.9994
  69   0.0000       0.101531         2.7628
  70   0.0000       0.121342         3.3019
  71   0.0000       0.130913         3.5623

MULLIKEN ATOMIC CHARGES
-----------------------
   0 S :    0.115706
   1 C :   -0.094401
   2 C :   -0.080030
   3 C :    0.001317
   4 C :   -0.166107
   5 H :    0.030503
   6 C :    0.015351
   7 H :    0.031869
   8 H :    0.052257
   9 C :   -0.036383
  10 H :    0.022528
  11 H :    0.026003
  12 C :   -0.085959
  13 H :    0.044628
  14 H :    0.062865
  15 H :    0.015277
  16 S :    0.098842
  17 C :   -0.068815
  18 C :   -0.084947
  19 C :   -0.019955
  20 C :   -0.138200
  21 H :    0.045607
  22 C :    0.040976
  23 H :    0.037563
  24 H :    0.028132
  25 C :   -0.081188
  26 H :    0.025612
  27 H :    0.017381
  28 C :   -0.034413
  29 H :    0.037128
  30 H :    0.025251
  31 H :    0.045860
  32 H :    0.018050
  33 H :    0.051691
Sum of atomic charges:   -0.0000000

LOEWDIN ATOMIC CHARGES
----------------------
   0 S :    0.448014
   1 C :   -0.185398
   2 C :   -0.060245
   3 C :   -0.065989
   4 C :   -0.219287
   5 H :    0.034903
   6 C :   -0.031939
   7 H :    0.029909
   8 H :    0.039774
   9 C :   -0.035125
  10 H :    0.016897
  11 H :    0.021637
  12 C :   -0.073417
  13 H :    0.024125
  14 H :    0.032983
  15 H :    0.022712
  16 S :    0.401259
  17 C :   -0.189138
  18 C :   -0.082658
  19 C :   -0.061727
  20 C :   -0.192099
  21 H :    0.043106
  22 C :   -0.038178
  23 H :    0.033478
  24 H :    0.028502
  25 C :   -0.040615
  26 H :    0.025213
  27 H :    0.012192
  28 C :   -0.071839
  29 H :    0.033987
  30 H :    0.032869
  31 H :    0.028736
  32 H :    0.005931
  33 H :    0.031429

  Mayer bond orders larger than 0.100000
B(  0-S ,  1-C ) :   1.1779 B(  0-S ,  4-C ) :   1.1703 B(  1-C ,  2-C ) :   1.5351
B(  1-C ,  4-C ) :   0.1053 B(  1-C , 32-H ) :   0.9934 B(  2-C ,  3-C ) :   1.2784
B(  2-C ,  6-C ) :   1.0121 B(  3-C ,  4-C ) :   1.5126 B(  3-C ,  5-H ) :   0.9878
B(  4-C , 20-C ) :   1.0842 B(  6-C ,  7-H ) :   0.9469 B(  6-C ,  8-H ) :   0.9495
B(  6-C ,  9-C ) :   1.0585 B(  9-C , 10-H ) :   0.9601 B(  9-C , 11-H ) :   0.9572
B(  9-C , 12-C ) :   1.0719 B( 12-C , 13-H ) :   0.9731 B( 12-C , 14-H ) :   0.9667
B( 12-C , 15-H ) :   0.9748 B( 16-S , 17-C ) :   1.1330 B( 16-S , 20-C ) :   1.1327
B( 17-C , 18-C ) :   1.6444 B( 17-C , 33-H ) :   0.9634 B( 18-C , 19-C ) :   1.2161
B( 18-C , 21-H ) :   0.9699 B( 19-C , 20-C ) :   1.5836 B( 19-C , 22-C ) :   1.0624
B( 22-C , 23-H ) :   0.9212 B( 22-C , 24-H ) :   0.9324 B( 22-C , 25-C ) :   1.0686
B( 25-C , 26-H ) :   0.9574 B( 25-C , 27-H ) :   0.9421 B( 25-C , 28-C ) :   1.1000
B( 28-C , 29-H ) :   0.9692 B( 28-C , 30-H ) :   0.9650 B( 28-C , 31-H ) :   0.9694

Dispersion correction           -0.014144092
FINAL SINGLE POINT ENERGY     -1339.863521675309

DIPOLE MOMENT
-------------
                                X             Y             Z
Electronic contribution:      7.02756      -6.61511      -2.43526
Nuclear contribution   :     -7.36247       6.93780       2.39799
                        -----------------------------------------
Total Dipole Moment    :     -0.33491       0.32269      -0.03726
                        -----------------------------------------
Magnitude (a.u.)       :      0.46656
Magnitude (Debye)      :      1.18591

Rotational constants in cm-1:     0.023021     0.007911     0.006324
Rotational constants in MHz :   690.153955   237.162127   189.598061

                             ****ORCA TERMINATED NORMALLY****
TOTAL RUN TIME: 0 days 0 hours 0 minutes 28 seconds 186 msec
