                         Program Version 4.2.1 -  RELEASE  -
|  1> ! wB97X-D3 SP def2-SVP
|  2> %pal
|  3> nprocs 16
|  4> end
|  5>
|  6> * xyz 0 1
|  7> S 	 -32.5959 	 1.02132 	 98.109
|  8> C 	 -32.0157 	 1.73606 	 96.6046
|  9> C 	 -33.008 	 2.26239 	 95.867
| 10> C 	 -34.2598 	 2.2344 	 96.5271
| 11> C 	 -34.2503 	 1.61621 	 97.7373
| 12> H 	 -35.2347 	 2.56753 	 96.1691
| 13> C 	 -32.8776 	 2.78439 	 94.3478
| 14> H 	 -32.039 	 3.51889 	 94.3153
| 15> H 	 -33.7977 	 3.30876 	 94.0033
| 16> C 	 -32.5705 	 1.70841 	 93.2511
| 17> H 	 -32.0817 	 0.903985 	 93.7828
| 18> H 	 -33.4782 	 1.20751 	 92.9524
| 19> C 	 -31.7992 	 2.1471 	 91.9848
| 20> H 	 -31.2647 	 3.01998 	 92.2264
| 21> H 	 -31.0753 	 1.44006 	 91.6259
| 22> H 	 -32.4034 	 2.43189 	 91.1062
| 23> S 	 -35.3408 	 2.02182 	 100.325
| 24> C 	 -37.01 	 1.47781 	 100.559
| 25> C 	 -37.6446 	 1.10999 	 99.3836
| 26> C 	 -36.7293 	 1.12942 	 98.2571
| 27> C 	 -35.3974 	 1.41506 	 98.6172
| 28> H 	 -38.6268 	 0.769298 	 99.459
| 29> C 	 -37.3211 	 0.725668 	 96.8871
| 30> H 	 -36.6206 	 0.818289 	 96.0812
| 31> H 	 -38.0783 	 1.52893 	 96.7364
| 32> C 	 -37.9846 	 -0.674547 	 96.7773
| 33> H 	 -38.558 	 -0.680786 	 95.853
| 34> H 	 -38.5942 	 -0.900721 	 97.5979
| 35> C 	 -36.9282 	 -1.81197 	 96.5723
| 36> H 	 -37.3951 	 -2.75238 	 96.4438
| 37> H 	 -36.2288 	 -2.0571 	 97.3797
| 38> H 	 -36.242 	 -1.63754 	 95.7019
| 39> H 	 -30.9924 	 1.75189 	 96.2256
| 40> H 	 -37.3847 	 1.42394 	 101.57
| 41> *
| 42>
| 43>                          ****END OF INPUT****

CARTESIAN COORDINATES (ANGSTROEM)
---------------------------------
  S    -32.595900    1.021320   98.109000
  C    -32.015700    1.736060   96.604600
  C    -33.008000    2.262390   95.867000
  C    -34.259800    2.234400   96.527100
  C    -34.250300    1.616210   97.737300
  H    -35.234700    2.567530   96.169100
  C    -32.877600    2.784390   94.347800
  H    -32.039000    3.518890   94.315300
  H    -33.797700    3.308760   94.003300
  C    -32.570500    1.708410   93.251100
  H    -32.081700    0.903985   93.782800
  H    -33.478200    1.207510   92.952400
  C    -31.799200    2.147100   91.984800
  H    -31.264700    3.019980   92.226400
  H    -31.075300    1.440060   91.625900
  H    -32.403400    2.431890   91.106200
  S    -35.340800    2.021820  100.325000
  C    -37.010000    1.477810  100.559000
  C    -37.644600    1.109990   99.383600
  C    -36.729300    1.129420   98.257100
  C    -35.397400    1.415060   98.617200
  H    -38.626800    0.769298   99.459000
  C    -37.321100    0.725668   96.887100
  H    -36.620600    0.818289   96.081200
  H    -38.078300    1.528930   96.736400
  C    -37.984600   -0.674547   96.777300
  H    -38.558000   -0.680786   95.853000
  H    -38.594200   -0.900721   97.597900
  C    -36.928200   -1.811970   96.572300
  H    -37.395100   -2.752380   96.443800
  H    -36.228800   -2.057100   97.379700
  H    -36.242000   -1.637540   95.701900
  H    -30.992400    1.751890   96.225600
  H    -37.384700    1.423940  101.570000

 Total Charge           Charge          ....    0
 Multiplicity           Mult            ....    1
 Number of Electrons    NEL             ....  134
 Basis Dimension        Dim             ....  322

ORBITAL ENERGIES
----------------

  NO   OCC          E(Eh)            E(eV)
   0   2.0000     -88.966883     -2420.9120
   1   2.0000     -88.963606     -2420.8228
   2   2.0000     -10.333222      -281.1813
   3   2.0000     -10.329068      -281.0682
   4   2.0000     -10.321705      -280.8679
   5   2.0000     -10.314430      -280.6699
   6   2.0000     -10.314270      -280.6656
   7   2.0000     -10.306108      -280.4434
   8   2.0000     -10.302883      -280.3557
   9   2.0000     -10.298000      -280.2228
  10   2.0000     -10.295432      -280.1530
  11   2.0000     -10.291712      -280.0517
  12   2.0000     -10.290589      -280.0212
  13   2.0000     -10.285669      -279.8873
  14   2.0000     -10.276643      -279.6417
  15   2.0000     -10.275535      -279.6115
  16   2.0000      -8.080708      -219.8873
  17   2.0000      -8.077415      -219.7976
  18   2.0000      -6.039363      -164.3394
  19   2.0000      -6.035994      -164.2477
  20   2.0000      -6.035487      -164.2340
  21   2.0000      -6.032253      -164.1460
  22   2.0000      -6.031216      -164.1177
  23   2.0000      -6.027960      -164.0291
  24   2.0000      -1.000804       -27.2333
  25   2.0000      -0.977254       -26.5924
  26   2.0000      -0.903280       -24.5795
  27   2.0000      -0.898903       -24.4604
  28   2.0000      -0.869628       -23.6638
  29   2.0000      -0.847847       -23.0711
  30   2.0000      -0.841380       -22.8951
  31   2.0000      -0.812400       -22.1065
  32   2.0000      -0.783719       -21.3261
  33   2.0000      -0.774042       -21.0627
  34   2.0000      -0.711287       -19.3551
  35   2.0000      -0.702779       -19.1236
  36   2.0000      -0.695675       -18.9303
  37   2.0000      -0.659794       -17.9539
  38   2.0000      -0.639993       -17.4151
  39   2.0000      -0.617563       -16.8047
  40   2.0000      -0.599604       -16.3160
  41   2.0000      -0.568993       -15.4831
  42   2.0000      -0.553864       -15.0714
  43   2.0000      -0.546358       -14.8671
  44   2.0000      -0.537627       -14.6296
  45   2.0000      -0.522924       -14.2295
  46   2.0000      -0.516692       -14.0599
  47   2.0000      -0.507876       -13.8200
  48   2.0000      -0.499870       -13.6022
  49   2.0000      -0.496941       -13.5225
  50   2.0000      -0.488150       -13.2832
  51   2.0000      -0.481679       -13.1072
  52   2.0000      -0.469995       -12.7892
  53   2.0000      -0.461781       -12.5657
  54   2.0000      -0.457964       -12.4618
  55   2.0000      -0.447700       -12.1825
  56   2.0000      -0.442313       -12.0359
  57   2.0000      -0.436041       -11.8653
  58   2.0000      -0.432713       -11.7747
  59   2.0000      -0.431061       -11.7298
  60   2.0000      -0.424365       -11.5476
  61   2.0000      -0.414932       -11.2909
  62   2.0000      -0.411568       -11.1993
  63   2.0000      -0.347916        -9.4673
  64   2.0000      -0.333708        -9.0807
  65   2.0000      -0.328991        -8.9523
  66   2.0000      -0.294254        -8.0071
  67   0.0000       0.025106         0.6832
  68   0.0000       0.071273         1.9394
  69   0.0000       0.101184         2.7534
  70   0.0000       0.112281         3.0553
  71   0.0000       0.133611         3.6357

MULLIKEN ATOMIC CHARGES
-----------------------
   0 S :    0.106074
   1 C :   -0.119919
   2 C :   -0.068457
   3 C :    0.026467
   4 C :   -0.165174
   5 H :    0.013846
   6 C :    0.034621
   7 H :    0.034727
   8 H :    0.036220
   9 C :   -0.068808
  10 H :    0.020037
  11 H :    0.022353
  12 C :   -0.029559
  13 H :    0.009346
  14 H :    0.034401
  15 H :    0.037021
  16 S :    0.083531
  17 C :   -0.096027
  18 C :   -0.010644
  19 C :   -0.043291
  20 C :   -0.126708
  21 H :    0.006872
  22 C :    0.049642
  23 H :    0.011494
  24 H :    0.042204
  25 C :   -0.024240
  26 H :    0.033471
  27 H :    0.023460
  28 C :   -0.073754
  29 H :    0.020614
  30 H :    0.036159
  31 H :    0.033143
  32 H :    0.048520
  33 H :    0.062356
Sum of atomic charges:   -0.0000000

LOEWDIN ATOMIC CHARGES
----------------------
   0 S :    0.377622
   1 C :   -0.187109
   2 C :   -0.068384
   3 C :   -0.060296
   4 C :   -0.178740
   5 H :    0.033606
   6 C :   -0.027596
   7 H :    0.030076
   8 H :    0.031180
   9 C :   -0.048231
  10 H :    0.022513
  11 H :    0.022428
  12 C :   -0.065219
  13 H :    0.017296
  14 H :    0.028455
  15 H :    0.030103
  16 S :    0.363666
  17 C :   -0.161170
  18 C :   -0.065788
  19 C :   -0.043337
  20 C :   -0.187221
  21 H :    0.024338
  22 C :   -0.031451
  23 H :    0.021210
  24 H :    0.038840
  25 C :   -0.026289
  26 H :    0.030214
  27 H :    0.015533
  28 C :   -0.072169
  29 H :    0.018799
  30 H :    0.027765
  31 H :    0.029492
  32 H :    0.034122
  33 H :    0.025745

  Mayer bond orders larger than 0.100000
B(  0-S ,  1-C ) :   1.1229 B(  0-S ,  4-C ) :   1.1209 B(  1-C ,  2-C ) :   1.6649
B(  1-C , 32-H ) :   0.9612 B(  2-C ,  3-C ) :   1.2192 B(  2-C ,  6-C ) :   1.0024
B(  3-C ,  4-C ) :   1.6200 B(  3-C ,  5-H ) :   0.9891 B(  4-C , 20-C ) :   1.0502
B(  6-C ,  7-H ) :   0.9469 B(  6-C ,  8-H ) :   0.9540 B(  6-C ,  9-C ) :   1.0538
B(  9-C , 10-H ) :   0.9633 B(  9-C , 11-H ) :   0.9573 B(  9-C , 12-C ) :   1.0614
B( 12-C , 13-H ) :   0.9776 B( 12-C , 14-H ) :   0.9763 B( 12-C , 15-H ) :   0.9776
B( 16-S , 17-C ) :   1.1488 B( 16-S , 20-C ) :   1.1137 B( 17-C , 18-C ) :   1.6271
B( 17-C , 33-H ) :   0.9677 B( 18-C , 19-C ) :   1.1964 B( 18-C , 21-H ) :   1.0022
B( 19-C , 20-C ) :   1.6144 B( 19-C , 22-C ) :   1.0306 B( 22-C , 23-H ) :   0.9385
B( 22-C , 24-H ) :   0.9340 B( 22-C , 25-C ) :   1.0736 B( 25-C , 26-H ) :   0.9518
B( 25-C , 27-H ) :   0.9597 B( 25-C , 28-C ) :   1.0715 B( 28-C , 29-H ) :   0.9750
B( 28-C , 30-H ) :   0.9779 B( 28-C , 31-H ) :   0.9753

Dispersion correction           -0.013894282
FINAL SINGLE POINT ENERGY     -1339.866041916965

DIPOLE MOMENT
-------------
                                X             Y             Z
Electronic contribution:      4.30182       6.42981      28.63080
Nuclear contribution   :     -4.75292      -6.55809     -29.24874
                        -----------------------------------------
Total Dipole Moment    :     -0.45111      -0.12828      -0.61794
                        -----------------------------------------
Magnitude (a.u.)       :      0.77576
Magnitude (Debye)      :      1.97183

Rotational constants in cm-1:     0.019517     0.007909     0.006361
Rotational constants in MHz :   585.100195   237.110066   190.694926

                             ****ORCA TERMINATED NORMALLY****
TOTAL RUN TIME: 0 days 0 hours 0 minutes 29 seconds 155 msec
