                         Program Version 4.2.1 -  RELEASE  -
|  1> ! wB97X-D3 SP def2-SVP
|  2> %pal
|  3> nprocs 16
|  4> end
|  5>
|  6> * xyz 0 1
|  7> S 	 -11.7114 	 -8.40871 	 75.8442
|  8> C 	 -10.5312 	 -7.27174 	 76.3521
|  9> C 	 -10.6762 	 -7.00587 	 77.7198
| 10> C 	 -11.7495 	 -7.68296 	 78.2859
| 11> C 	 -12.3852 	 -8.48049 	 77.4261
| 12> H 	 -12.045 	 -7.65554 	 79.3005
| 13> C 	 -9.83638 	 -6.04974 	 78.5494
| 14> H 	 -8.87518 	 -5.85972 	 78.1099
| 15> H 	 -9.60919 	 -6.54689 	 79.4255
| 16> C 	 -10.5507 	 -4.64293 	 78.8896
| 17> H 	 -10.9833 	 -4.34262 	 77.9383
| 18> H 	 -11.3833 	 -4.7865 	 79.63
| 19> C 	 -9.5534 	 -3.59774 	 79.5112
| 20> H 	 -9.07148 	 -4.16178 	 80.3101
| 21> H 	 -8.70532 	 -3.30715 	 78.8638
| 22> H 	 -10.0056 	 -2.68209 	 79.8406
| 23> S 	 -14.8396 	 -8.08514 	 78.2861
| 24> C 	 -15.9532 	 -9.36619 	 78.3569
| 25> C 	 -15.3534 	 -10.5892 	 78.2581
| 26> C 	 -13.9256 	 -10.5433 	 77.9478
| 27> C 	 -13.6066 	 -9.18763 	 77.7657
| 28> H 	 -15.9185 	 -11.4713 	 78.3127
| 29> C 	 -13.0226 	 -11.7889 	 77.7615
| 30> H 	 -12.3956 	 -11.8765 	 78.7104
| 31> H 	 -12.2167 	 -11.6538 	 77.0162
| 32> C 	 -13.814 	 -13.1723 	 77.5994
| 33> H 	 -13.0441 	 -13.8047 	 77.2398
| 34> H 	 -14.5425 	 -13.0252 	 76.8203
| 35> C 	 -14.2496 	 -13.9344 	 78.8676
| 36> H 	 -14.8043 	 -13.2198 	 79.4996
| 37> H 	 -13.3576 	 -14.2679 	 79.394
| 38> H 	 -14.8294 	 -14.7962 	 78.5467
| 39> H 	 -9.72733 	 -6.95756 	 75.6676
| 40> H 	 -17.0428 	 -9.28635 	 78.4414
| 41> *
| 42>
| 43>                          ****END OF INPUT****

CARTESIAN COORDINATES (ANGSTROEM)
---------------------------------
  S    -11.711400   -8.408710   75.844200
  C    -10.531200   -7.271740   76.352100
  C    -10.676200   -7.005870   77.719800
  C    -11.749500   -7.682960   78.285900
  C    -12.385200   -8.480490   77.426100
  H    -12.045000   -7.655540   79.300500
  C     -9.836380   -6.049740   78.549400
  H     -8.875180   -5.859720   78.109900
  H     -9.609190   -6.546890   79.425500
  C    -10.550700   -4.642930   78.889600
  H    -10.983300   -4.342620   77.938300
  H    -11.383300   -4.786500   79.630000
  C     -9.553400   -3.597740   79.511200
  H     -9.071480   -4.161780   80.310100
  H     -8.705320   -3.307150   78.863800
  H    -10.005600   -2.682090   79.840600
  S    -14.839600   -8.085140   78.286100
  C    -15.953200   -9.366190   78.356900
  C    -15.353400  -10.589200   78.258100
  C    -13.925600  -10.543300   77.947800
  C    -13.606600   -9.187630   77.765700
  H    -15.918500  -11.471300   78.312700
  C    -13.022600  -11.788900   77.761500
  H    -12.395600  -11.876500   78.710400
  H    -12.216700  -11.653800   77.016200
  C    -13.814000  -13.172300   77.599400
  H    -13.044100  -13.804700   77.239800
  H    -14.542500  -13.025200   76.820300
  C    -14.249600  -13.934400   78.867600
  H    -14.804300  -13.219800   79.499600
  H    -13.357600  -14.267900   79.394000
  H    -14.829400  -14.796200   78.546700
  H     -9.727330   -6.957560   75.667600
  H    -17.042800   -9.286350   78.441400

 Total Charge           Charge          ....    0
 Multiplicity           Mult            ....    1
 Number of Electrons    NEL             ....  134
 Basis Dimension        Dim             ....  322

ORBITAL ENERGIES
----------------

  NO   OCC          E(Eh)            E(eV)
   0   2.0000     -88.963317     -2420.8149
   1   2.0000     -88.962872     -2420.8028
   2   2.0000     -10.319621      -280.8112
   3   2.0000     -10.314669      -280.6764
   4   2.0000     -10.311425      -280.5881
   5   2.0000     -10.310099      -280.5520
   6   2.0000     -10.309176      -280.5269
   7   2.0000     -10.306665      -280.4586
   8   2.0000     -10.296100      -280.1711
   9   2.0000     -10.294653      -280.1317
  10   2.0000     -10.288037      -279.9517
  11   2.0000     -10.287235      -279.9299
  12   2.0000     -10.285170      -279.8737
  13   2.0000     -10.283961      -279.8408
  14   2.0000     -10.280337      -279.7422
  15   2.0000     -10.277046      -279.6526
  16   2.0000      -8.079213      -219.8466
  17   2.0000      -8.078881      -219.8375
  18   2.0000      -6.037460      -164.2876
  19   2.0000      -6.037299      -164.2833
  20   2.0000      -6.033574      -164.1819
  21   2.0000      -6.033286      -164.1741
  22   2.0000      -6.030174      -164.0894
  23   2.0000      -6.029578      -164.0732
  24   2.0000      -1.015373       -27.6297
  25   2.0000      -0.989561       -26.9273
  26   2.0000      -0.901535       -24.5320
  27   2.0000      -0.900085       -24.4925
  28   2.0000      -0.870802       -23.6957
  29   2.0000      -0.851454       -23.1692
  30   2.0000      -0.847224       -23.0541
  31   2.0000      -0.811904       -22.0930
  32   2.0000      -0.783856       -21.3298
  33   2.0000      -0.767940       -20.8967
  34   2.0000      -0.703775       -19.1507
  35   2.0000      -0.699719       -19.0403
  36   2.0000      -0.688875       -18.7453
  37   2.0000      -0.660611       -17.9761
  38   2.0000      -0.645061       -17.5530
  39   2.0000      -0.620478       -16.8841
  40   2.0000      -0.601114       -16.3571
  41   2.0000      -0.564802       -15.3690
  42   2.0000      -0.550701       -14.9853
  43   2.0000      -0.543452       -14.7881
  44   2.0000      -0.541432       -14.7331
  45   2.0000      -0.524250       -14.2656
  46   2.0000      -0.516540       -14.0558
  47   2.0000      -0.512911       -13.9570
  48   2.0000      -0.507392       -13.8068
  49   2.0000      -0.492256       -13.3950
  50   2.0000      -0.489633       -13.3236
  51   2.0000      -0.477084       -12.9821
  52   2.0000      -0.473492       -12.8844
  53   2.0000      -0.465753       -12.6738
  54   2.0000      -0.463180       -12.6038
  55   2.0000      -0.449460       -12.2304
  56   2.0000      -0.443635       -12.0719
  57   2.0000      -0.431655       -11.7459
  58   2.0000      -0.429195       -11.6790
  59   2.0000      -0.427438       -11.6312
  60   2.0000      -0.426688       -11.6108
  61   2.0000      -0.419399       -11.4124
  62   2.0000      -0.415890       -11.3169
  63   2.0000      -0.339792        -9.2462
  64   2.0000      -0.331545        -9.0218
  65   2.0000      -0.324128        -8.8200
  66   2.0000      -0.293925        -7.9981
  67   0.0000       0.045458         1.2370
  68   0.0000       0.064877         1.7654
  69   0.0000       0.108169         2.9434
  70   0.0000       0.128683         3.5016
  71   0.0000       0.135622         3.6905

MULLIKEN ATOMIC CHARGES
-----------------------
   0 S :    0.121991
   1 C :   -0.151460
   2 C :   -0.074018
   3 C :    0.011421
   4 C :   -0.137692
   5 H :   -0.000196
   6 C :    0.107065
   7 H :    0.006141
   8 H :    0.003778
   9 C :   -0.093371
  10 H :    0.036260
  11 H :    0.041312
  12 C :   -0.050249
  13 H :    0.026406
  14 H :    0.031672
  15 H :    0.041310
  16 S :    0.125989
  17 C :   -0.072143
  18 C :   -0.042913
  19 C :    0.005451
  20 C :   -0.208026
  21 H :   -0.000544
  22 C :    0.026986
  23 H :    0.040463
  24 H :    0.039346
  25 C :   -0.089802
  26 H :    0.020773
  27 H :    0.040008
  28 C :   -0.039330
  29 H :    0.037369
  30 H :    0.034485
  31 H :    0.046483
  32 H :    0.059914
  33 H :    0.055123
Sum of atomic charges:    0.0000000

LOEWDIN ATOMIC CHARGES
----------------------
   0 S :    0.432339
   1 C :   -0.216370
   2 C :   -0.060857
   3 C :   -0.071343
   4 C :   -0.210388
   5 H :    0.027023
   6 C :   -0.024516
   7 H :    0.024681
   8 H :    0.017798
   9 C :   -0.033639
  10 H :    0.020391
  11 H :    0.028004
  12 C :   -0.069767
  13 H :    0.026191
  14 H :    0.026345
  15 H :    0.024230
  16 S :    0.439296
  17 C :   -0.205208
  18 C :   -0.070888
  19 C :   -0.049269
  20 C :   -0.202695
  21 H :    0.019237
  22 C :   -0.037392
  23 H :    0.042003
  24 H :    0.034610
  25 C :   -0.043714
  26 H :    0.023857
  27 H :    0.021538
  28 C :   -0.060316
  29 H :    0.023992
  30 H :    0.027359
  31 H :    0.031576
  32 H :    0.032196
  33 H :    0.033697

  Mayer bond orders larger than 0.100000
B(  0-S ,  1-C ) :   1.1549 B(  0-S ,  4-C ) :   1.1692 B(  1-C ,  2-C ) :   1.5700
B(  1-C , 32-H ) :   0.9708 B(  2-C ,  3-C ) :   1.2537 B(  2-C ,  6-C ) :   1.0411
B(  3-C ,  4-C ) :   1.5632 B(  3-C ,  5-H ) :   1.0113 B(  4-C , 20-C ) :   1.0066
B(  6-C ,  7-H ) :   0.9431 B(  6-C ,  8-H ) :   0.9295 B(  6-C ,  9-C ) :   1.0400
B(  9-C , 10-H ) :   0.9636 B(  9-C , 11-H ) :   0.9584 B(  9-C , 12-C ) :   1.0688
B( 12-C , 13-H ) :   0.9749 B( 12-C , 14-H ) :   0.9772 B( 12-C , 15-H ) :   0.9773
B( 16-S , 17-C ) :   1.1490 B( 16-S , 20-C ) :   1.1625 B( 17-C , 18-C ) :   1.6287
B( 17-C , 33-H ) :   0.9614 B( 18-C , 19-C ) :   1.2221 B( 18-C , 21-H ) :   0.9870
B( 19-C , 20-C ) :   1.5957 B( 19-C , 22-C ) :   1.0296 B( 22-C , 23-H ) :   0.9300
B( 22-C , 24-H ) :   0.9440 B( 22-C , 25-C ) :   1.0602 B( 25-C , 26-H ) :   0.9541
B( 25-C , 27-H ) :   0.9623 B( 25-C , 28-C ) :   1.0670 B( 28-C , 29-H ) :   0.9814
B( 28-C , 30-H ) :   0.9725 B( 28-C , 31-H ) :   0.9726

Dispersion correction           -0.013687490
FINAL SINGLE POINT ENERGY     -1339.867458219539

DIPOLE MOMENT
-------------
                                X             Y             Z
Electronic contribution:     -8.96002       3.17350     -10.67615
Nuclear contribution   :      9.16225      -3.45674      10.93295
                        -----------------------------------------
Total Dipole Moment    :      0.20223      -0.28325       0.25681
                        -----------------------------------------
Magnitude (a.u.)       :      0.43252
Magnitude (Debye)      :      1.09938

Rotational constants in cm-1:     0.024886     0.006645     0.006060
Rotational constants in MHz :   746.068113   199.215067   181.674572

                             ****ORCA TERMINATED NORMALLY****
TOTAL RUN TIME: 0 days 0 hours 0 minutes 32 seconds 289 msec
