                         Program Version 4.2.1 -  RELEASE  -
|  1> ! wB97X-D3 SP def2-SVP
|  2> %pal
|  3> nprocs 16
|  4> end
|  5>
|  6> * xyz 0 1
|  7> S 	 -47.3454 	 53.8559 	 99.7443
|  8> C 	 -45.7988 	 53.0848 	 100.051
|  9> C 	 -44.9946 	 53.1649 	 98.905
| 10> C 	 -45.6568 	 53.7974 	 97.8171
| 11> C 	 -46.8882 	 54.2921 	 98.0781
| 12> H 	 -45.3306 	 53.7261 	 96.7279
| 13> C 	 -43.6603 	 52.4888 	 98.7569
| 14> H 	 -43.7415 	 51.8291 	 97.8739
| 15> H 	 -43.4288 	 51.9683 	 99.7782
| 16> C 	 -42.4681 	 53.4119 	 98.5844
| 17> H 	 -41.6031 	 52.88 	 98.2315
| 18> H 	 -42.7739 	 53.9947 	 97.7169
| 19> C 	 -42.0682 	 54.2646 	 99.82
| 20> H 	 -41.0554 	 54.6704 	 99.7492
| 21> H 	 -42.9233 	 54.9357 	 100.133
| 22> H 	 -42.0359 	 53.6329 	 100.748
| 23> S 	 -49.3591 	 54.1896 	 96.9004
| 24> C 	 -49.6825 	 55.16 	 95.5645
| 25> C 	 -48.7078 	 56.1261 	 95.2916
| 26> C 	 -47.5745 	 55.869 	 96.169
| 27> C 	 -47.8047 	 54.8993 	 97.1158
| 28> H 	 -48.7995 	 56.9314 	 94.6157
| 29> C 	 -46.2919 	 56.7345 	 96.0581
| 30> H 	 -45.7737 	 56.3599 	 95.1497
| 31> H 	 -45.6371 	 56.413 	 96.8152
| 32> C 	 -46.4553 	 58.2853 	 95.9739
| 33> H 	 -46.9962 	 58.5721 	 95.1478
| 34> H 	 -45.4945 	 58.8001 	 95.7031
| 35> C 	 -47.2157 	 58.9318 	 97.2228
| 36> H 	 -47.2809 	 60.0256 	 97.1175
| 37> H 	 -46.6197 	 58.8491 	 98.1159
| 38> H 	 -48.2628 	 58.6597 	 97.3685
| 39> H 	 -45.4416 	 52.6016 	 100.897
| 40> H 	 -50.6291 	 55.2791 	 95.0172
| 41> *
| 42>
| 43>                          ****END OF INPUT****

CARTESIAN COORDINATES (ANGSTROEM)
---------------------------------
  S    -47.345400   53.855900   99.744300
  C    -45.798800   53.084800  100.051000
  C    -44.994600   53.164900   98.905000
  C    -45.656800   53.797400   97.817100
  C    -46.888200   54.292100   98.078100
  H    -45.330600   53.726100   96.727900
  C    -43.660300   52.488800   98.756900
  H    -43.741500   51.829100   97.873900
  H    -43.428800   51.968300   99.778200
  C    -42.468100   53.411900   98.584400
  H    -41.603100   52.880000   98.231500
  H    -42.773900   53.994700   97.716900
  C    -42.068200   54.264600   99.820000
  H    -41.055400   54.670400   99.749200
  H    -42.923300   54.935700  100.133000
  H    -42.035900   53.632900  100.748000
  S    -49.359100   54.189600   96.900400
  C    -49.682500   55.160000   95.564500
  C    -48.707800   56.126100   95.291600
  C    -47.574500   55.869000   96.169000
  C    -47.804700   54.899300   97.115800
  H    -48.799500   56.931400   94.615700
  C    -46.291900   56.734500   96.058100
  H    -45.773700   56.359900   95.149700
  H    -45.637100   56.413000   96.815200
  C    -46.455300   58.285300   95.973900
  H    -46.996200   58.572100   95.147800
  H    -45.494500   58.800100   95.703100
  C    -47.215700   58.931800   97.222800
  H    -47.280900   60.025600   97.117500
  H    -46.619700   58.849100   98.115900
  H    -48.262800   58.659700   97.368500
  H    -45.441600   52.601600  100.897000
  H    -50.629100   55.279100   95.017200

 Total Charge           Charge          ....    0
 Multiplicity           Mult            ....    1
 Number of Electrons    NEL             ....  134
 Basis Dimension        Dim             ....  322

ORBITAL ENERGIES
----------------

  NO   OCC          E(Eh)            E(eV)
   0   2.0000     -88.968497     -2420.9559
   1   2.0000     -88.967623     -2420.9321
   2   2.0000     -10.330868      -281.1172
   3   2.0000     -10.322752      -280.8964
   4   2.0000     -10.316884      -280.7367
   5   2.0000     -10.314065      -280.6600
   6   2.0000     -10.305750      -280.4337
   7   2.0000     -10.300847      -280.3003
   8   2.0000     -10.299811      -280.2721
   9   2.0000     -10.295605      -280.1577
  10   2.0000     -10.294407      -280.1251
  11   2.0000     -10.292120      -280.0628
  12   2.0000     -10.291454      -280.0447
  13   2.0000     -10.286484      -279.9095
  14   2.0000     -10.284525      -279.8561
  15   2.0000     -10.277639      -279.6688
  16   2.0000      -8.084873      -220.0006
  17   2.0000      -8.081577      -219.9109
  18   2.0000      -6.043285      -164.4462
  19   2.0000      -6.040205      -164.3623
  20   2.0000      -6.039117      -164.3327
  21   2.0000      -6.036178      -164.2528
  22   2.0000      -6.035651      -164.2384
  23   2.0000      -6.032264      -164.1462
  24   2.0000      -1.012462       -27.5505
  25   2.0000      -0.987814       -26.8798
  26   2.0000      -0.912407       -24.8279
  27   2.0000      -0.899370       -24.4731
  28   2.0000      -0.870571       -23.6894
  29   2.0000      -0.847112       -23.0511
  30   2.0000      -0.840965       -22.8838
  31   2.0000      -0.815626       -22.1943
  32   2.0000      -0.782632       -21.2965
  33   2.0000      -0.773347       -21.0438
  34   2.0000      -0.714202       -19.4344
  35   2.0000      -0.701191       -19.0804
  36   2.0000      -0.695975       -18.9385
  37   2.0000      -0.661474       -17.9996
  38   2.0000      -0.637787       -17.3551
  39   2.0000      -0.619387       -16.8544
  40   2.0000      -0.592706       -16.1284
  41   2.0000      -0.568373       -15.4662
  42   2.0000      -0.558443       -15.1960
  43   2.0000      -0.544190       -14.8082
  44   2.0000      -0.539253       -14.6738
  45   2.0000      -0.533635       -14.5209
  46   2.0000      -0.517409       -14.0794
  47   2.0000      -0.513522       -13.9736
  48   2.0000      -0.504420       -13.7260
  49   2.0000      -0.491555       -13.3759
  50   2.0000      -0.484641       -13.1878
  51   2.0000      -0.479207       -13.0399
  52   2.0000      -0.471403       -12.8275
  53   2.0000      -0.460766       -12.5381
  54   2.0000      -0.455370       -12.3913
  55   2.0000      -0.454141       -12.3578
  56   2.0000      -0.446296       -12.1443
  57   2.0000      -0.436795       -11.8858
  58   2.0000      -0.431280       -11.7357
  59   2.0000      -0.425664       -11.5829
  60   2.0000      -0.418620       -11.3912
  61   2.0000      -0.416133       -11.3236
  62   2.0000      -0.405703       -11.0397
  63   2.0000      -0.351476        -9.5642
  64   2.0000      -0.330473        -8.9926
  65   2.0000      -0.329361        -8.9624
  66   2.0000      -0.294819        -8.0224
  67   0.0000       0.032922         0.8959
  68   0.0000       0.072155         1.9634
  69   0.0000       0.113665         3.0930
  70   0.0000       0.120031         3.2662
  71   0.0000       0.126237         3.4351

MULLIKEN ATOMIC CHARGES
-----------------------
   0 S :    0.101871
   1 C :   -0.076267
   2 C :   -0.104425
   3 C :    0.003207
   4 C :   -0.149292
   5 H :    0.046646
   6 C :    0.022361
   7 H :    0.046066
   8 H :    0.027425
   9 C :   -0.049432
  10 H :    0.023834
  11 H :    0.016436
  12 C :   -0.074803
  13 H :    0.049965
  14 H :    0.052765
  15 H :    0.017184
  16 S :    0.137095
  17 C :   -0.086546
  18 C :   -0.032535
  19 C :   -0.080191
  20 C :   -0.147002
  21 H :    0.009027
  22 C :    0.091719
  23 H :    0.032474
  24 H :    0.011251
  25 C :   -0.044613
  26 H :    0.003131
  27 H :    0.031855
  28 C :   -0.065614
  29 H :    0.021870
  30 H :    0.035241
  31 H :    0.048687
  32 H :    0.018398
  33 H :    0.062214
Sum of atomic charges:    0.0000000

LOEWDIN ATOMIC CHARGES
----------------------
   0 S :    0.387447
   1 C :   -0.185638
   2 C :   -0.068096
   3 C :   -0.076131
   4 C :   -0.181768
   5 H :    0.045684
   6 C :   -0.035378
   7 H :    0.038684
   8 H :    0.034987
   9 C :   -0.047725
  10 H :    0.021655
  11 H :    0.020593
  12 C :   -0.077633
  13 H :    0.030616
  14 H :    0.037085
  15 H :    0.025426
  16 S :    0.450599
  17 C :   -0.207547
  18 C :   -0.066936
  19 C :   -0.047145
  20 C :   -0.219995
  21 H :    0.024558
  22 C :   -0.030401
  23 H :    0.036806
  24 H :    0.019838
  25 C :   -0.036706
  26 H :    0.008628
  27 H :    0.035102
  28 C :   -0.069678
  29 H :    0.026847
  30 H :    0.023953
  31 H :    0.029752
  32 H :    0.016880
  33 H :    0.035636

  Mayer bond orders larger than 0.100000
B(  0-S ,  1-C ) :   1.1279 B(  0-S ,  4-C ) :   1.1334 B(  1-C ,  2-C ) :   1.6143
B(  1-C , 32-H ) :   0.9738 B(  2-C ,  3-C ) :   1.2315 B(  2-C ,  6-C ) :   1.0284
B(  3-C ,  4-C ) :   1.6073 B(  3-C ,  5-H ) :   0.9736 B(  4-C , 20-C ) :   1.0217
B(  6-C ,  7-H ) :   0.9391 B(  6-C ,  8-H ) :   0.9430 B(  6-C ,  9-C ) :   1.0734
B(  9-C , 10-H ) :   0.9553 B(  9-C , 11-H ) :   0.9517 B(  9-C , 12-C ) :   1.0665
B( 12-C , 13-H ) :   0.9755 B( 12-C , 14-H ) :   0.9729 B( 12-C , 15-H ) :   0.9709
B( 16-S , 17-C ) :   1.1886 B( 16-S , 20-C ) :   1.1354 B( 17-C , 18-C ) :   1.5901
B( 17-C , 33-H ) :   0.9591 B( 18-C , 19-C ) :   1.2402 B( 18-C , 21-H ) :   0.9984
B( 19-C , 20-C ) :   1.6124 B( 19-C , 22-C ) :   1.0303 B( 22-C , 23-H ) :   0.9309
B( 22-C , 24-H ) :   0.9374 B( 22-C , 25-C ) :   1.0673 B( 25-C , 26-H ) :   0.9529
B( 25-C , 27-H ) :   0.9537 B( 25-C , 28-C ) :   1.0660 B( 28-C , 29-H ) :   0.9742
B( 28-C , 30-H ) :   0.9806 B( 28-C , 31-H ) :   0.9761

Dispersion correction           -0.014550883
FINAL SINGLE POINT ENERGY     -1339.865615621977

DIPOLE MOMENT
-------------
                                X             Y             Z
Electronic contribution:    -23.19719     -12.48246       1.85296
Nuclear contribution   :     23.63161      12.67209      -2.26153
                        -----------------------------------------
Total Dipole Moment    :      0.43442       0.18964      -0.40858
                        -----------------------------------------
Magnitude (a.u.)       :      0.62579
Magnitude (Debye)      :      1.59064

Rotational constants in cm-1:     0.019044     0.008718     0.006997
Rotational constants in MHz :   570.922557   261.357859   209.778257

                             ****ORCA TERMINATED NORMALLY****
TOTAL RUN TIME: 0 days 0 hours 0 minutes 30 seconds 257 msec
