                         Program Version 4.2.1 -  RELEASE  -
|  1> ! wB97X-D3 SP def2-SVP
|  2> %pal
|  3> nprocs 16
|  4> end
|  5>
|  6> * xyz 0 1
|  7> S 	 -28.0008 	 57.8289 	 112.082
|  8> C 	 -26.8725 	 57.5182 	 110.763
|  9> C 	 -27.5379 	 57.3926 	 109.534
| 10> C 	 -28.9219 	 57.5927 	 109.748
| 11> C 	 -29.4064 	 57.8012 	 111.05
| 12> H 	 -29.5984 	 57.6973 	 109.011
| 13> C 	 -26.8274 	 57.1636 	 108.167
| 14> H 	 -27.4703 	 56.4442 	 107.675
| 15> H 	 -25.855 	 56.727 	 108.285
| 16> C 	 -26.6557 	 58.4896 	 107.336
| 17> H 	 -27.6349 	 58.9342 	 107.194
| 18> H 	 -26.0435 	 59.2206 	 107.826
| 19> C 	 -26.1843 	 58.1567 	 105.934
| 20> H 	 -25.0937 	 57.8038 	 106.011
| 21> H 	 -26.8368 	 57.3433 	 105.527
| 22> H 	 -26.3766 	 59.0099 	 105.262
| 23> S 	 -31.0594 	 59.712 	 112.205
| 24> C 	 -32.6497 	 59.3173 	 112.613
| 25> C 	 -33.0108 	 58.0747 	 112.161
| 26> C 	 -31.8976 	 57.3598 	 111.561
| 27> C 	 -30.7504 	 58.1413 	 111.505
| 28> H 	 -33.9832 	 57.7372 	 112.434
| 29> C 	 -31.969 	 55.9217 	 110.974
| 30> H 	 -32.5537 	 55.3194 	 111.629
| 31> H 	 -30.9403 	 55.5555 	 111.178
| 32> C 	 -32.3219 	 55.7868 	 109.463
| 33> H 	 -32.2359 	 54.6844 	 109.197
| 34> H 	 -31.5434 	 56.2704 	 108.875
| 35> C 	 -33.7333 	 56.3635 	 109.233
| 36> H 	 -33.9331 	 57.3848 	 109.586
| 37> H 	 -34.4463 	 55.7547 	 109.882
| 38> H 	 -33.9093 	 56.2167 	 108.097
| 39> H 	 -25.8391 	 57.5201 	 110.946
| 40> H 	 -33.2973 	 59.9813 	 113.14
| 41> *
| 42>
| 43>                          ****END OF INPUT****

CARTESIAN COORDINATES (ANGSTROEM)
---------------------------------
  S    -28.000800   57.828900  112.082000
  C    -26.872500   57.518200  110.763000
  C    -27.537900   57.392600  109.534000
  C    -28.921900   57.592700  109.748000
  C    -29.406400   57.801200  111.050000
  H    -29.598400   57.697300  109.011000
  C    -26.827400   57.163600  108.167000
  H    -27.470300   56.444200  107.675000
  H    -25.855000   56.727000  108.285000
  C    -26.655700   58.489600  107.336000
  H    -27.634900   58.934200  107.194000
  H    -26.043500   59.220600  107.826000
  C    -26.184300   58.156700  105.934000
  H    -25.093700   57.803800  106.011000
  H    -26.836800   57.343300  105.527000
  H    -26.376600   59.009900  105.262000
  S    -31.059400   59.712000  112.205000
  C    -32.649700   59.317300  112.613000
  C    -33.010800   58.074700  112.161000
  C    -31.897600   57.359800  111.561000
  C    -30.750400   58.141300  111.505000
  H    -33.983200   57.737200  112.434000
  C    -31.969000   55.921700  110.974000
  H    -32.553700   55.319400  111.629000
  H    -30.940300   55.555500  111.178000
  C    -32.321900   55.786800  109.463000
  H    -32.235900   54.684400  109.197000
  H    -31.543400   56.270400  108.875000
  C    -33.733300   56.363500  109.233000
  H    -33.933100   57.384800  109.586000
  H    -34.446300   55.754700  109.882000
  H    -33.909300   56.216700  108.097000
  H    -25.839100   57.520100  110.946000
  H    -33.297300   59.981300  113.140000

 Total Charge           Charge          ....    0
 Multiplicity           Mult            ....    1
 Number of Electrons    NEL             ....  134
 Basis Dimension        Dim             ....  322

ORBITAL ENERGIES
----------------

  NO   OCC          E(Eh)            E(eV)
   0   2.0000     -88.963819     -2420.8286
   1   2.0000     -88.963244     -2420.8129
   2   2.0000     -10.329804      -281.0883
   3   2.0000     -10.325390      -280.9681
   4   2.0000     -10.315080      -280.6876
   5   2.0000     -10.311826      -280.5991
   6   2.0000     -10.307882      -280.4917
   7   2.0000     -10.306103      -280.4433
   8   2.0000     -10.299282      -280.2577
   9   2.0000     -10.294113      -280.1171
  10   2.0000     -10.292028      -280.0603
  11   2.0000     -10.289671      -279.9962
  12   2.0000     -10.289241      -279.9845
  13   2.0000     -10.288282      -279.9584
  14   2.0000     -10.287576      -279.9392
  15   2.0000     -10.286449      -279.9085
  16   2.0000      -8.079429      -219.8524
  17   2.0000      -8.078403      -219.8245
  18   2.0000      -6.037726      -164.2949
  19   2.0000      -6.036796      -164.2696
  20   2.0000      -6.033629      -164.1834
  21   2.0000      -6.032737      -164.1591
  22   2.0000      -6.030421      -164.0961
  23   2.0000      -6.029485      -164.0706
  24   2.0000      -1.007655       -27.4197
  25   2.0000      -0.984928       -26.8013
  26   2.0000      -0.909697       -24.7541
  27   2.0000      -0.902478       -24.5577
  28   2.0000      -0.870639       -23.6913
  29   2.0000      -0.847331       -23.0571
  30   2.0000      -0.842378       -22.9223
  31   2.0000      -0.815262       -22.1844
  32   2.0000      -0.779971       -21.2241
  33   2.0000      -0.769101       -20.9283
  34   2.0000      -0.705812       -19.2061
  35   2.0000      -0.697358       -18.9761
  36   2.0000      -0.690434       -18.7877
  37   2.0000      -0.661011       -17.9870
  38   2.0000      -0.651948       -17.7404
  39   2.0000      -0.622074       -16.9275
  40   2.0000      -0.588431       -16.0120
  41   2.0000      -0.569296       -15.4913
  42   2.0000      -0.568569       -15.4715
  43   2.0000      -0.546094       -14.8600
  44   2.0000      -0.542572       -14.7641
  45   2.0000      -0.526904       -14.3378
  46   2.0000      -0.515005       -14.0140
  47   2.0000      -0.510039       -13.8789
  48   2.0000      -0.505703       -13.7609
  49   2.0000      -0.500176       -13.6105
  50   2.0000      -0.488112       -13.2822
  51   2.0000      -0.478894       -13.0314
  52   2.0000      -0.474954       -12.9242
  53   2.0000      -0.469120       -12.7654
  54   2.0000      -0.458856       -12.4861
  55   2.0000      -0.444505       -12.0956
  56   2.0000      -0.437718       -11.9109
  57   2.0000      -0.435737       -11.8570
  58   2.0000      -0.432532       -11.7698
  59   2.0000      -0.425527       -11.5792
  60   2.0000      -0.417262       -11.3543
  61   2.0000      -0.413937       -11.2638
  62   2.0000      -0.410863       -11.1801
  63   2.0000      -0.337439        -9.1822
  64   2.0000      -0.331936        -9.0324
  65   2.0000      -0.327164        -8.9026
  66   2.0000      -0.301598        -8.2069
  67   0.0000       0.034121         0.9285
  68   0.0000       0.066696         1.8149
  69   0.0000       0.123557         3.3622
  70   0.0000       0.124388         3.3848
  71   0.0000       0.131718         3.5842

MULLIKEN ATOMIC CHARGES
-----------------------
   0 S :    0.107692
   1 C :   -0.125219
   2 C :   -0.060011
   3 C :    0.070289
   4 C :   -0.178614
   5 H :   -0.040670
   6 C :    0.078038
   7 H :    0.028050
   8 H :    0.018836
   9 C :   -0.067937
  10 H :    0.022896
  11 H :    0.033648
  12 C :   -0.071150
  13 H :    0.047489
  14 H :    0.031993
  15 H :    0.044355
  16 S :    0.124630
  17 C :   -0.090919
  18 C :   -0.028360
  19 C :   -0.045508
  20 C :   -0.172404
  21 H :    0.007949
  22 C :    0.062556
  23 H :    0.014666
  24 H :    0.032984
  25 C :   -0.044017
  26 H :    0.044449
  27 H :    0.022877
  28 C :   -0.094963
  29 H :    0.056024
  30 H :    0.031277
  31 H :    0.053448
  32 H :    0.035464
  33 H :    0.050162
Sum of atomic charges:    0.0000000

LOEWDIN ATOMIC CHARGES
----------------------
   0 S :    0.408781
   1 C :   -0.180541
   2 C :   -0.060825
   3 C :   -0.050483
   4 C :   -0.203842
   5 H :    0.005137
   6 C :   -0.019300
   7 H :    0.030437
   8 H :    0.026379
   9 C :   -0.038930
  10 H :    0.022772
  11 H :    0.022238
  12 C :   -0.073845
  13 H :    0.032910
  14 H :    0.027951
  15 H :    0.029081
  16 S :    0.433310
  17 C :   -0.194232
  18 C :   -0.079028
  19 C :   -0.045233
  20 C :   -0.213066
  21 H :    0.026664
  22 C :   -0.034209
  23 H :    0.021824
  24 H :    0.035669
  25 C :   -0.040968
  26 H :    0.034557
  27 H :    0.019094
  28 C :   -0.078677
  29 H :    0.027994
  30 H :    0.029788
  31 H :    0.036908
  32 H :    0.015848
  33 H :    0.025837

  Mayer bond orders larger than 0.100000
B(  0-S ,  1-C ) :   1.1728 B(  0-S ,  4-C ) :   1.1540 B(  1-C ,  2-C ) :   1.5532
B(  1-C ,  4-C ) :   0.1087 B(  1-C , 32-H ) :   0.9788 B(  2-C ,  3-C ) :   1.2790
B(  2-C ,  6-C ) :   1.0160 B(  3-C ,  4-C ) :   1.5492 B(  3-C ,  5-H ) :   1.0045
B(  4-C , 20-C ) :   1.0373 B(  6-C ,  7-H ) :   0.9420 B(  6-C ,  8-H ) :   0.9453
B(  6-C ,  9-C ) :   1.0597 B(  9-C , 10-H ) :   0.9568 B(  9-C , 11-H ) :   0.9579
B(  9-C , 12-C ) :   1.0826 B( 12-C , 13-H ) :   0.9732 B( 12-C , 14-H ) :   0.9734
B( 12-C , 15-H ) :   0.9737 B( 16-S , 17-C ) :   1.1804 B( 16-S , 20-C ) :   1.1502
B( 17-C , 18-C ) :   1.5999 B( 17-C , 33-H ) :   0.9687 B( 18-C , 19-C ) :   1.2283
B( 18-C , 21-H ) :   0.9975 B( 19-C , 20-C ) :   1.5978 B( 19-C , 22-C ) :   1.0327
B( 22-C , 23-H ) :   0.9411 B( 22-C , 24-H ) :   0.9246 B( 22-C , 25-C ) :   1.0683
B( 25-C , 26-H ) :   0.9527 B( 25-C , 27-H ) :   0.9528 B( 25-C , 28-C ) :   1.0620
B( 28-C , 29-H ) :   0.9728 B( 28-C , 30-H ) :   0.9733 B( 28-C , 31-H ) :   0.9730

Dispersion correction           -0.014429465
FINAL SINGLE POINT ENERGY     -1339.877459320043

DIPOLE MOMENT
-------------
                                X             Y             Z
Electronic contribution:      0.89904      10.15111      24.83067
Nuclear contribution   :     -0.97307     -10.30864     -25.27578
                        -----------------------------------------
Total Dipole Moment    :     -0.07403      -0.15753      -0.44511
                        -----------------------------------------
Magnitude (a.u.)       :      0.47793
Magnitude (Debye)      :      1.21481

Rotational constants in cm-1:     0.019112     0.008055     0.006663
Rotational constants in MHz :   572.953764   241.488954   199.736771

                             ****ORCA TERMINATED NORMALLY****
TOTAL RUN TIME: 0 days 0 hours 0 minutes 29 seconds 738 msec
