                         Program Version 4.2.1 -  RELEASE  -
|  1> ! wB97X-D3 SP def2-SVP
|  2> %pal
|  3> nprocs 16
|  4> end
|  5>
|  6> * xyz 0 1
|  7> S 	 5.09653 	 -29.6451 	 63.1921
|  8> C 	 3.98311 	 -29.7528 	 64.6261
|  9> C 	 2.66197 	 -29.938 	 64.1648
| 10> C 	 2.60999 	 -30.0126 	 62.6791
| 11> C 	 3.80727 	 -29.6999 	 62.0292
| 12> H 	 1.60467 	 -30.1816 	 62.2484
| 13> C 	 1.44774 	 -30.1925 	 65.0551
| 14> H 	 1.72407 	 -30.53 	 66.0556
| 15> H 	 0.805021 	 -30.9774 	 64.5917
| 16> C 	 0.616962 	 -28.937 	 65.2535
| 17> H 	 0.121779 	 -28.5814 	 64.2774
| 18> H 	 -0.166806 	 -29.1989 	 65.9187
| 19> C 	 1.42731 	 -27.7815 	 65.9113
| 20> H 	 1.93624 	 -28.0478 	 66.844
| 21> H 	 2.19378 	 -27.43 	 65.2632
| 22> H 	 0.870089 	 -26.8843 	 66.1606
| 23> S 	 5.06016 	 -30.8174 	 59.8098
| 24> C 	 4.67991 	 -30.2642 	 58.1753
| 25> C 	 3.89824 	 -29.0931 	 58.2804
| 26> C 	 3.41423 	 -28.8031 	 59.6295
| 27> C 	 3.9921 	 -29.6327 	 60.5765
| 28> H 	 3.72395 	 -28.4625 	 57.2986
| 29> C 	 2.36778 	 -27.7554 	 59.9124
| 30> H 	 2.02625 	 -27.8531 	 60.9566
| 31> H 	 1.45436 	 -27.9683 	 59.2771
| 32> C 	 2.72791 	 -26.2718 	 59.807
| 33> H 	 1.94788 	 -25.8548 	 60.347
| 34> H 	 2.59452 	 -25.9125 	 58.8184
| 35> C 	 4.10755 	 -25.8522 	 60.4354
| 36> H 	 4.07075 	 -25.647 	 61.5485
| 37> H 	 4.56383 	 -24.9837 	 59.9854
| 38> H 	 4.79812 	 -26.671 	 60.2273
| 39> H 	 4.25139 	 -29.6875 	 65.6686
| 40> H 	 5.20251 	 -30.6822 	 57.3618
| 41> *
| 42>
| 43>                          ****END OF INPUT****

CARTESIAN COORDINATES (ANGSTROEM)
---------------------------------
  S      5.096530  -29.645100   63.192100
  C      3.983110  -29.752800   64.626100
  C      2.661970  -29.938000   64.164800
  C      2.609990  -30.012600   62.679100
  C      3.807270  -29.699900   62.029200
  H      1.604670  -30.181600   62.248400
  C      1.447740  -30.192500   65.055100
  H      1.724070  -30.530000   66.055600
  H      0.805021  -30.977400   64.591700
  C      0.616962  -28.937000   65.253500
  H      0.121779  -28.581400   64.277400
  H     -0.166806  -29.198900   65.918700
  C      1.427310  -27.781500   65.911300
  H      1.936240  -28.047800   66.844000
  H      2.193780  -27.430000   65.263200
  H      0.870089  -26.884300   66.160600
  S      5.060160  -30.817400   59.809800
  C      4.679910  -30.264200   58.175300
  C      3.898240  -29.093100   58.280400
  C      3.414230  -28.803100   59.629500
  C      3.992100  -29.632700   60.576500
  H      3.723950  -28.462500   57.298600
  C      2.367780  -27.755400   59.912400
  H      2.026250  -27.853100   60.956600
  H      1.454360  -27.968300   59.277100
  C      2.727910  -26.271800   59.807000
  H      1.947880  -25.854800   60.347000
  H      2.594520  -25.912500   58.818400
  C      4.107550  -25.852200   60.435400
  H      4.070750  -25.647000   61.548500
  H      4.563830  -24.983700   59.985400
  H      4.798120  -26.671000   60.227300
  H      4.251390  -29.687500   65.668600
  H      5.202510  -30.682200   57.361800

 Total Charge           Charge          ....    0
 Multiplicity           Mult            ....    1
 Number of Electrons    NEL             ....  134
 Basis Dimension        Dim             ....  322

ORBITAL ENERGIES
----------------

  NO   OCC          E(Eh)            E(eV)
   0   2.0000     -88.968607     -2420.9589
   1   2.0000     -88.963078     -2420.8084
   2   2.0000     -10.336811      -281.2789
   3   2.0000     -10.332176      -281.1528
   4   2.0000     -10.323525      -280.9174
   5   2.0000     -10.322983      -280.9027
   6   2.0000     -10.312505      -280.6175
   7   2.0000     -10.310712      -280.5687
   8   2.0000     -10.310207      -280.5550
   9   2.0000     -10.304158      -280.3904
  10   2.0000     -10.299372      -280.2601
  11   2.0000     -10.293755      -280.1073
  12   2.0000     -10.292555      -280.0747
  13   2.0000     -10.277076      -279.6534
  14   2.0000     -10.276337      -279.6334
  15   2.0000     -10.273926      -279.5677
  16   2.0000      -8.082218      -219.9283
  17   2.0000      -8.077523      -219.8006
  18   2.0000      -6.041019      -164.3845
  19   2.0000      -6.036793      -164.2695
  20   2.0000      -6.036104      -164.2507
  21   2.0000      -6.032811      -164.1611
  22   2.0000      -6.031997      -164.1390
  23   2.0000      -6.028294      -164.0382
  24   2.0000      -0.998795       -27.1786
  25   2.0000      -0.973624       -26.4936
  26   2.0000      -0.913379       -24.8543
  27   2.0000      -0.905729       -24.6462
  28   2.0000      -0.863123       -23.4868
  29   2.0000      -0.842201       -22.9174
  30   2.0000      -0.834418       -22.7057
  31   2.0000      -0.806744       -21.9526
  32   2.0000      -0.783968       -21.3328
  33   2.0000      -0.777110       -21.1462
  34   2.0000      -0.709201       -19.2983
  35   2.0000      -0.697887       -18.9905
  36   2.0000      -0.696200       -18.9446
  37   2.0000      -0.654087       -17.7986
  38   2.0000      -0.633482       -17.2379
  39   2.0000      -0.617883       -16.8134
  40   2.0000      -0.594957       -16.1896
  41   2.0000      -0.566690       -15.4204
  42   2.0000      -0.552206       -15.0263
  43   2.0000      -0.549548       -14.9540
  44   2.0000      -0.541753       -14.7418
  45   2.0000      -0.535430       -14.5698
  46   2.0000      -0.517378       -14.0786
  47   2.0000      -0.509241       -13.8571
  48   2.0000      -0.503040       -13.6884
  49   2.0000      -0.493073       -13.4172
  50   2.0000      -0.485948       -13.2233
  51   2.0000      -0.471369       -12.8266
  52   2.0000      -0.465341       -12.6626
  53   2.0000      -0.460935       -12.5427
  54   2.0000      -0.457514       -12.4496
  55   2.0000      -0.443387       -12.0652
  56   2.0000      -0.438504       -11.9323
  57   2.0000      -0.436877       -11.8880
  58   2.0000      -0.434857       -11.8331
  59   2.0000      -0.426713       -11.6114
  60   2.0000      -0.415486       -11.3059
  61   2.0000      -0.414699       -11.2845
  62   2.0000      -0.412516       -11.2251
  63   2.0000      -0.341510        -9.2929
  64   2.0000      -0.327783        -8.9194
  65   2.0000      -0.325234        -8.8501
  66   2.0000      -0.300037        -8.1644
  67   0.0000       0.030662         0.8344
  68   0.0000       0.060876         1.6565
  69   0.0000       0.105167         2.8617
  70   0.0000       0.113195         3.0802
  71   0.0000       0.123333         3.3561

MULLIKEN ATOMIC CHARGES
-----------------------
   0 S :    0.105748
   1 C :   -0.117442
   2 C :   -0.122648
   3 C :    0.047766
   4 C :   -0.148305
   5 H :    0.026760
   6 C :    0.049552
   7 H :    0.024641
   8 H :    0.042848
   9 C :   -0.068720
  10 H :    0.039475
  11 H :    0.026087
  12 C :   -0.059795
  13 H :    0.019412
  14 H :    0.036780
  15 H :    0.030518
  16 S :    0.090363
  17 C :   -0.095030
  18 C :   -0.060885
  19 C :   -0.045572
  20 C :   -0.143526
  21 H :    0.064752
  22 C :    0.024896
  23 H :    0.021671
  24 H :    0.046129
  25 C :   -0.016534
  26 H :    0.010205
  27 H :    0.016486
  28 C :   -0.073811
  29 H :    0.046620
  30 H :    0.029793
  31 H :    0.044261
  32 H :    0.050835
  33 H :    0.056671
Sum of atomic charges:   -0.0000000

LOEWDIN ATOMIC CHARGES
----------------------
   0 S :    0.389272
   1 C :   -0.182397
   2 C :   -0.056142
   3 C :   -0.062910
   4 C :   -0.201597
   5 H :    0.033719
   6 C :   -0.033638
   7 H :    0.030152
   8 H :    0.038281
   9 C :   -0.039575
  10 H :    0.030318
  11 H :    0.018474
  12 C :   -0.070543
  13 H :    0.023069
  14 H :    0.022149
  15 H :    0.026281
  16 S :    0.388369
  17 C :   -0.174391
  18 C :   -0.080306
  19 C :   -0.059415
  20 C :   -0.192239
  21 H :    0.051008
  22 C :   -0.037987
  23 H :    0.031489
  24 H :    0.041924
  25 C :   -0.034434
  26 H :    0.018863
  27 H :    0.016065
  28 C :   -0.069918
  29 H :    0.034384
  30 H :    0.023980
  31 H :    0.027401
  32 H :    0.028909
  33 H :    0.021386

  Mayer bond orders larger than 0.100000
B(  0-S ,  1-C ) :   1.1181 B(  0-S ,  4-C ) :   1.1494 B(  1-C ,  2-C ) :   1.6134
B(  1-C , 32-H ) :   0.9716 B(  2-C ,  3-C ) :   1.2357 B(  2-C ,  6-C ) :   1.0278
B(  3-C ,  4-C ) :   1.5623 B(  3-C ,  5-H ) :   0.9819 B(  4-C , 20-C ) :   1.0283
B(  6-C ,  7-H ) :   0.9448 B(  6-C ,  8-H ) :   0.9438 B(  6-C ,  9-C ) :   1.0737
B(  9-C , 10-H ) :   0.9555 B(  9-C , 11-H ) :   0.9570 B(  9-C , 12-C ) :   1.0681
B( 12-C , 13-H ) :   0.9741 B( 12-C , 14-H ) :   0.9735 B( 12-C , 15-H ) :   0.9745
B( 16-S , 17-C ) :   1.1544 B( 16-S , 20-C ) :   1.1382 B( 17-C , 18-C ) :   1.6068
B( 17-C , 20-C ) :   0.1004 B( 17-C , 33-H ) :   0.9771 B( 18-C , 19-C ) :   1.2119
B( 18-C , 21-H ) :   0.9719 B( 19-C , 20-C ) :   1.6091 B( 19-C , 22-C ) :   1.0562
B( 22-C , 23-H ) :   0.9338 B( 22-C , 24-H ) :   0.9348 B( 22-C , 25-C ) :   1.0697
B( 25-C , 26-H ) :   0.9569 B( 25-C , 27-H ) :   0.9573 B( 25-C , 28-C ) :   1.0643
B( 28-C , 29-H ) :   0.9772 B( 28-C , 30-H ) :   0.9773 B( 28-C , 31-H ) :   0.9761

Dispersion correction           -0.015163147
FINAL SINGLE POINT ENERGY     -1339.870032523192

DIPOLE MOMENT
-------------
                                X             Y             Z
Electronic contribution:     17.20689     -17.77498      -9.24698
Nuclear contribution   :    -17.81404      18.06706       9.32296
                        -----------------------------------------
Total Dipole Moment    :     -0.60715       0.29208       0.07597
                        -----------------------------------------
Magnitude (a.u.)       :      0.67802
Magnitude (Debye)      :      1.72340

Rotational constants in cm-1:     0.020069     0.008828     0.007332
Rotational constants in MHz :   601.642438   264.659631   219.813571

                             ****ORCA TERMINATED NORMALLY****
TOTAL RUN TIME: 0 days 0 hours 0 minutes 34 seconds 430 msec
