                         Program Version 4.2.1 -  RELEASE  -
|  1> ! wB97X-D3 SP def2-SVP
|  2> %pal
|  3> nprocs 16
|  4> end
|  5>
|  6> * xyz 0 1
|  7> S 	 9.40386 	 21.3561 	 38.6559
|  8> C 	 10.3246 	 21.1179 	 37.2154
|  9> C 	 11.6883 	 21.0924 	 37.4303
| 10> C 	 12.0241 	 21.0978 	 38.8301
| 11> C 	 10.8801 	 21.2265 	 39.5413
| 12> H 	 12.9695 	 21.085 	 39.3584
| 13> C 	 12.8127 	 21.1413 	 36.4617
| 14> H 	 12.3708 	 20.9071 	 35.5641
| 15> H 	 13.5751 	 20.3617 	 36.6388
| 16> C 	 13.4656 	 22.508 	 36.1918
| 17> H 	 12.6642 	 23.26 	 35.704
| 18> H 	 13.6533 	 22.9552 	 37.218
| 19> C 	 14.8091 	 22.3398 	 35.4216
| 20> H 	 15.4487 	 23.1509 	 35.6307
| 21> H 	 15.3599 	 21.4894 	 35.8625
| 22> H 	 14.683 	 22.3761 	 34.3624
| 23> S 	 10.3395 	 19.5675 	 41.6526
| 24> C 	 10.8767 	 20.0789 	 43.2705
| 25> C 	 11.2682 	 21.3528 	 43.2998
| 26> C 	 11.2395 	 21.9889 	 42.0167
| 27> C 	 10.7432 	 21.127 	 41.0241
| 28> H 	 11.7097 	 21.7286 	 44.1834
| 29> C 	 11.7736 	 23.3998 	 41.7041
| 30> H 	 10.8902 	 24.078 	 41.61
| 31> H 	 12.2459 	 23.4008 	 40.6911
| 32> C 	 12.8778 	 23.9231 	 42.674
| 33> H 	 13.8053 	 23.4578 	 42.47
| 34> H 	 12.6563 	 23.6322 	 43.7539
| 35> C 	 12.9466 	 25.4651 	 42.5524
| 36> H 	 13.731 	 25.7741 	 43.1901
| 37> H 	 12.0409 	 25.9391 	 42.9306
| 38> H 	 13.1667 	 25.7479 	 41.5375
| 39> H 	 9.98782 	 21.1565 	 36.249
| 40> H 	 10.7692 	 19.4716 	 44.0902
| 41> *
| 42>
| 43>                          ****END OF INPUT****

CARTESIAN COORDINATES (ANGSTROEM)
---------------------------------
  S      9.403860   21.356100   38.655900
  C     10.324600   21.117900   37.215400
  C     11.688300   21.092400   37.430300
  C     12.024100   21.097800   38.830100
  C     10.880100   21.226500   39.541300
  H     12.969500   21.085000   39.358400
  C     12.812700   21.141300   36.461700
  H     12.370800   20.907100   35.564100
  H     13.575100   20.361700   36.638800
  C     13.465600   22.508000   36.191800
  H     12.664200   23.260000   35.704000
  H     13.653300   22.955200   37.218000
  C     14.809100   22.339800   35.421600
  H     15.448700   23.150900   35.630700
  H     15.359900   21.489400   35.862500
  H     14.683000   22.376100   34.362400
  S     10.339500   19.567500   41.652600
  C     10.876700   20.078900   43.270500
  C     11.268200   21.352800   43.299800
  C     11.239500   21.988900   42.016700
  C     10.743200   21.127000   41.024100
  H     11.709700   21.728600   44.183400
  C     11.773600   23.399800   41.704100
  H     10.890200   24.078000   41.610000
  H     12.245900   23.400800   40.691100
  C     12.877800   23.923100   42.674000
  H     13.805300   23.457800   42.470000
  H     12.656300   23.632200   43.753900
  C     12.946600   25.465100   42.552400
  H     13.731000   25.774100   43.190100
  H     12.040900   25.939100   42.930600
  H     13.166700   25.747900   41.537500
  H      9.987820   21.156500   36.249000
  H     10.769200   19.471600   44.090200

 Total Charge           Charge          ....    0
 Multiplicity           Mult            ....    1
 Number of Electrons    NEL             ....  134
 Basis Dimension        Dim             ....  322

ORBITAL ENERGIES
----------------

  NO   OCC          E(Eh)            E(eV)
   0   2.0000     -88.966772     -2420.9090
   1   2.0000     -88.959861     -2420.7209
   2   2.0000     -10.321639      -280.8661
   3   2.0000     -10.319340      -280.8035
   4   2.0000     -10.306661      -280.4585
   5   2.0000     -10.303677      -280.3773
   6   2.0000     -10.303356      -280.3686
   7   2.0000     -10.302764      -280.3525
   8   2.0000     -10.296975      -280.1949
   9   2.0000     -10.296250      -280.1752
  10   2.0000     -10.290620      -280.0220
  11   2.0000     -10.288666      -279.9688
  12   2.0000     -10.286233      -279.9026
  13   2.0000     -10.281209      -279.7659
  14   2.0000     -10.279294      -279.7138
  15   2.0000     -10.274667      -279.5879
  16   2.0000      -8.082374      -219.9326
  17   2.0000      -8.074817      -219.7269
  18   2.0000      -6.040745      -164.3770
  19   2.0000      -6.036972      -164.2744
  20   2.0000      -6.033316      -164.1749
  21   2.0000      -6.033023      -164.1669
  22   2.0000      -6.029279      -164.0650
  23   2.0000      -6.025605      -163.9651
  24   2.0000      -1.009103       -27.4591
  25   2.0000      -0.985274       -26.8107
  26   2.0000      -0.912207       -24.8224
  27   2.0000      -0.901816       -24.5397
  28   2.0000      -0.868821       -23.6418
  29   2.0000      -0.852973       -23.2106
  30   2.0000      -0.845096       -22.9962
  31   2.0000      -0.820496       -22.3268
  32   2.0000      -0.783524       -21.3208
  33   2.0000      -0.767397       -20.8819
  34   2.0000      -0.703421       -19.1411
  35   2.0000      -0.699089       -19.0232
  36   2.0000      -0.694434       -18.8965
  37   2.0000      -0.653019       -17.7696
  38   2.0000      -0.648059       -17.6346
  39   2.0000      -0.619773       -16.8649
  40   2.0000      -0.600189       -16.3320
  41   2.0000      -0.573512       -15.6061
  42   2.0000      -0.560921       -15.2634
  43   2.0000      -0.557886       -15.1808
  44   2.0000      -0.528814       -14.3898
  45   2.0000      -0.520315       -14.1585
  46   2.0000      -0.515593       -14.0300
  47   2.0000      -0.511721       -13.9246
  48   2.0000      -0.507859       -13.8195
  49   2.0000      -0.497852       -13.5473
  50   2.0000      -0.486642       -13.2422
  51   2.0000      -0.475827       -12.9479
  52   2.0000      -0.474467       -12.9109
  53   2.0000      -0.460145       -12.5212
  54   2.0000      -0.456475       -12.4213
  55   2.0000      -0.454492       -12.3674
  56   2.0000      -0.450549       -12.2601
  57   2.0000      -0.440922       -11.9981
  58   2.0000      -0.435699       -11.8560
  59   2.0000      -0.431109       -11.7311
  60   2.0000      -0.419754       -11.4221
  61   2.0000      -0.410407       -11.1677
  62   2.0000      -0.406495       -11.0613
  63   2.0000      -0.344119        -9.3639
  64   2.0000      -0.329376        -8.9628
  65   2.0000      -0.317312        -8.6345
  66   2.0000      -0.305015        -8.2999
  67   0.0000       0.049152         1.3375
  68   0.0000       0.062223         1.6932
  69   0.0000       0.114908         3.1268
  70   0.0000       0.125058         3.4030
  71   0.0000       0.127444         3.4679

MULLIKEN ATOMIC CHARGES
-----------------------
   0 S :    0.128651
   1 C :   -0.058215
   2 C :   -0.118823
   3 C :    0.054735
   4 C :   -0.198972
   5 H :    0.018838
   6 C :    0.115235
   7 H :   -0.015466
   8 H :    0.030059
   9 C :   -0.145071
  10 H :    0.049366
  11 H :    0.029236
  12 C :   -0.005962
  13 H :    0.017875
  14 H :    0.033933
  15 H :    0.041741
  16 S :    0.103728
  17 C :   -0.064773
  18 C :   -0.010172
  19 C :   -0.033205
  20 C :   -0.153350
  21 H :    0.003973
  22 C :    0.049174
  23 H :    0.048508
  24 H :    0.034702
  25 C :   -0.110252
  26 H :    0.026686
  27 H :    0.035472
  28 C :   -0.015869
  29 H :    0.020155
  30 H :    0.036388
  31 H :    0.030588
  32 H :   -0.000611
  33 H :    0.021697
Sum of atomic charges:   -0.0000000

LOEWDIN ATOMIC CHARGES
----------------------
   0 S :    0.426636
   1 C :   -0.195634
   2 C :   -0.054760
   3 C :   -0.057828
   4 C :   -0.195458
   5 H :    0.037955
   6 C :   -0.039697
   7 H :    0.016970
   8 H :    0.033540
   9 C :   -0.046887
  10 H :    0.037409
  11 H :    0.021009
  12 C :   -0.063692
  13 H :    0.022790
  14 H :    0.032496
  15 H :    0.026210
  16 S :    0.398799
  17 C :   -0.155552
  18 C :   -0.069744
  19 C :   -0.056598
  20 C :   -0.218358
  21 H :    0.026483
  22 C :   -0.037187
  23 H :    0.037870
  24 H :    0.035208
  25 C :   -0.038602
  26 H :    0.017530
  27 H :    0.024738
  28 C :   -0.055384
  29 H :    0.020203
  30 H :    0.027604
  31 H :    0.023188
  32 H :    0.008191
  33 H :    0.010552

  Mayer bond orders larger than 0.100000
B(  0-S ,  1-C ) :   1.1249 B(  0-S ,  4-C ) :   1.1682 B(  1-C ,  2-C ) :   1.6512
B(  1-C , 32-H ) :   0.9704 B(  2-C ,  3-C ) :   1.1825 B(  2-C ,  6-C ) :   1.0407
B(  3-C ,  4-C ) :   1.6306 B(  3-C ,  5-H ) :   0.9952 B(  4-C , 20-C ) :   0.9587
B(  6-C ,  7-H ) :   0.9189 B(  6-C ,  8-H ) :   0.9373 B(  6-C ,  9-C ) :   1.0510
B(  9-C , 10-H ) :   0.9531 B(  9-C , 11-H ) :   0.9627 B(  9-C , 12-C ) :   1.0648
B( 12-C , 13-H ) :   0.9720 B( 12-C , 14-H ) :   0.9717 B( 12-C , 15-H ) :   0.9772
B( 16-S , 17-C ) :   1.1451 B( 16-S , 20-C ) :   1.1571 B( 17-C , 18-C ) :   1.6403
B( 17-C , 33-H ) :   0.9727 B( 18-C , 19-C ) :   1.2274 B( 18-C , 21-H ) :   0.9935
B( 19-C , 20-C ) :   1.6149 B( 19-C , 22-C ) :   1.0233 B( 22-C , 23-H ) :   0.9442
B( 22-C , 24-H ) :   0.9324 B( 22-C , 25-C ) :   1.0492 B( 25-C , 26-H ) :   0.9589
B( 25-C , 27-H ) :   0.9575 B( 25-C , 28-C ) :   1.0826 B( 28-C , 29-H ) :   0.9725
B( 28-C , 30-H ) :   0.9778 B( 28-C , 31-H ) :   0.9746

Dispersion correction           -0.013814410
FINAL SINGLE POINT ENERGY     -1339.859375977210

DIPOLE MOMENT
-------------
                                X             Y             Z
Electronic contribution:    -22.52172     -18.60574       6.53620
Nuclear contribution   :     23.20215      18.99270      -6.55863
                        -----------------------------------------
Total Dipole Moment    :      0.68043       0.38696      -0.02243
                        -----------------------------------------
Magnitude (a.u.)       :      0.78308
Magnitude (Debye)      :      1.99044

Rotational constants in cm-1:     0.016159     0.008784     0.006605
Rotational constants in MHz :   484.420165   263.325256   198.016091

                             ****ORCA TERMINATED NORMALLY****
TOTAL RUN TIME: 0 days 0 hours 0 minutes 33 seconds 921 msec
