                         Program Version 4.2.1 -  RELEASE  -
|  1> ! wB97X-D3 SP def2-SVP
|  2> %pal
|  3> nprocs 16
|  4> end
|  5>
|  6> * xyz 0 1
|  7> S 	 -16.5786 	 36.1442 	 38.0518
|  8> C 	 -16.2071 	 37.3989 	 39.2173
|  9> C 	 -15.1374 	 38.1793 	 38.7861
| 10> C 	 -14.554 	 37.7007 	 37.601
| 11> C 	 -15.1007 	 36.4911 	 37.1186
| 12> H 	 -13.6194 	 37.9861 	 37.1097
| 13> C 	 -14.6071 	 39.4151 	 39.4998
| 14> H 	 -15.4534 	 39.8684 	 40.0172
| 15> H 	 -14.2621 	 40.0168 	 38.6638
| 16> C 	 -13.5699 	 39.1398 	 40.5466
| 17> H 	 -14.0333 	 38.5971 	 41.4311
| 18> H 	 -12.8568 	 38.5579 	 39.9492
| 19> C 	 -12.8961 	 40.4616 	 41.0565
| 20> H 	 -12.1188 	 40.8872 	 40.4165
| 21> H 	 -13.6873 	 41.2029 	 41.5074
| 22> H 	 -12.4336 	 40.2305 	 41.9521
| 23> S 	 -14.6119 	 33.9948 	 36.0219
| 24> C 	 -14.2666 	 33.9507 	 34.3227
| 25> C 	 -14.1411 	 35.225 	 33.739
| 26> C 	 -14.3933 	 36.2721 	 34.6444
| 27> C 	 -14.6672 	 35.7725 	 35.9093
| 28> H 	 -14.0831 	 35.3452 	 32.6612
| 29> C 	 -14.4369 	 37.6373 	 34.1001
| 30> H 	 -14.051 	 37.6346 	 33.0826
| 31> H 	 -13.759 	 38.3568 	 34.5932
| 32> C 	 -15.8084 	 38.2315 	 33.8777
| 33> H 	 -16.2306 	 38.4023 	 34.8442
| 34> H 	 -16.399 	 37.4596 	 33.3151
| 35> C 	 -15.7622 	 39.6066 	 33.1335
| 36> H 	 -14.9799 	 40.1497 	 33.5885
| 37> H 	 -16.7011 	 40.1329 	 33.2588
| 38> H 	 -15.4532 	 39.6688 	 32.0729
| 39> H 	 -16.7371 	 37.6719 	 40.0522
| 40> H 	 -14.0484 	 33.0708 	 33.687
| 41> *
| 42>
| 43>                          ****END OF INPUT****

CARTESIAN COORDINATES (ANGSTROEM)
---------------------------------
  S    -16.578600   36.144200   38.051800
  C    -16.207100   37.398900   39.217300
  C    -15.137400   38.179300   38.786100
  C    -14.554000   37.700700   37.601000
  C    -15.100700   36.491100   37.118600
  H    -13.619400   37.986100   37.109700
  C    -14.607100   39.415100   39.499800
  H    -15.453400   39.868400   40.017200
  H    -14.262100   40.016800   38.663800
  C    -13.569900   39.139800   40.546600
  H    -14.033300   38.597100   41.431100
  H    -12.856800   38.557900   39.949200
  C    -12.896100   40.461600   41.056500
  H    -12.118800   40.887200   40.416500
  H    -13.687300   41.202900   41.507400
  H    -12.433600   40.230500   41.952100
  S    -14.611900   33.994800   36.021900
  C    -14.266600   33.950700   34.322700
  C    -14.141100   35.225000   33.739000
  C    -14.393300   36.272100   34.644400
  C    -14.667200   35.772500   35.909300
  H    -14.083100   35.345200   32.661200
  C    -14.436900   37.637300   34.100100
  H    -14.051000   37.634600   33.082600
  H    -13.759000   38.356800   34.593200
  C    -15.808400   38.231500   33.877700
  H    -16.230600   38.402300   34.844200
  H    -16.399000   37.459600   33.315100
  C    -15.762200   39.606600   33.133500
  H    -14.979900   40.149700   33.588500
  H    -16.701100   40.132900   33.258800
  H    -15.453200   39.668800   32.072900
  H    -16.737100   37.671900   40.052200
  H    -14.048400   33.070800   33.687000

 Total Charge           Charge          ....    0
 Multiplicity           Mult            ....    1
 Number of Electrons    NEL             ....  134
 Basis Dimension        Dim             ....  322

ORBITAL ENERGIES
----------------

  NO   OCC          E(Eh)            E(eV)
   0   2.0000     -88.974150     -2421.1097
   1   2.0000     -88.968122     -2420.9457
   2   2.0000     -10.332601      -281.1644
   3   2.0000     -10.331124      -281.1242
   4   2.0000     -10.321274      -280.8562
   5   2.0000     -10.307681      -280.4863
   6   2.0000     -10.302231      -280.3379
   7   2.0000     -10.297083      -280.1979
   8   2.0000     -10.293140      -280.0906
   9   2.0000     -10.292881      -280.0835
  10   2.0000     -10.292613      -280.0762
  11   2.0000     -10.287925      -279.9487
  12   2.0000     -10.286330      -279.9053
  13   2.0000     -10.285918      -279.8941
  14   2.0000     -10.283153      -279.8188
  15   2.0000     -10.276871      -279.6479
  16   2.0000      -8.088230      -220.0919
  17   2.0000      -8.081810      -219.9172
  18   2.0000      -6.046633      -164.5373
  19   2.0000      -6.042918      -164.4362
  20   2.0000      -6.040302      -164.3650
  21   2.0000      -6.039060      -164.3312
  22   2.0000      -6.036458      -164.2604
  23   2.0000      -6.032657      -164.1569
  24   2.0000      -1.003723       -27.3127
  25   2.0000      -0.982479       -26.7346
  26   2.0000      -0.916543       -24.9404
  27   2.0000      -0.912301       -24.8250
  28   2.0000      -0.863994       -23.5105
  29   2.0000      -0.856312       -23.3014
  30   2.0000      -0.844926       -22.9916
  31   2.0000      -0.809151       -22.0181
  32   2.0000      -0.785174       -21.3657
  33   2.0000      -0.772925       -21.0324
  34   2.0000      -0.709908       -19.3176
  35   2.0000      -0.695926       -18.9371
  36   2.0000      -0.691284       -18.8108
  37   2.0000      -0.664892       -18.0926
  38   2.0000      -0.639686       -17.4067
  39   2.0000      -0.617936       -16.8149
  40   2.0000      -0.599482       -16.3127
  41   2.0000      -0.572342       -15.5742
  42   2.0000      -0.566457       -15.4141
  43   2.0000      -0.559569       -15.2267
  44   2.0000      -0.525810       -14.3080
  45   2.0000      -0.520887       -14.1740
  46   2.0000      -0.513823       -13.9818
  47   2.0000      -0.509855       -13.8738
  48   2.0000      -0.500181       -13.6106
  49   2.0000      -0.498034       -13.5522
  50   2.0000      -0.492320       -13.3967
  51   2.0000      -0.483985       -13.1699
  52   2.0000      -0.474887       -12.9223
  53   2.0000      -0.460041       -12.5184
  54   2.0000      -0.457294       -12.4436
  55   2.0000      -0.452865       -12.3231
  56   2.0000      -0.442215       -12.0333
  57   2.0000      -0.438715       -11.9380
  58   2.0000      -0.432477       -11.7683
  59   2.0000      -0.427893       -11.6436
  60   2.0000      -0.417224       -11.3532
  61   2.0000      -0.413681       -11.2568
  62   2.0000      -0.411555       -11.1990
  63   2.0000      -0.344456        -9.3731
  64   2.0000      -0.339145        -9.2286
  65   2.0000      -0.330688        -8.9985
  66   2.0000      -0.285878        -7.7791
  67   0.0000       0.022061         0.6003
  68   0.0000       0.067839         1.8460
  69   0.0000       0.107652         2.9294
  70   0.0000       0.114214         3.1079
  71   0.0000       0.129422         3.5218

MULLIKEN ATOMIC CHARGES
-----------------------
   0 S :    0.112335
   1 C :   -0.076230
   2 C :   -0.100927
   3 C :    0.006780
   4 C :   -0.151772
   5 H :    0.019596
   6 C :    0.083015
   7 H :    0.012443
   8 H :    0.027527
   9 C :   -0.084194
  10 H :    0.043960
  11 H :    0.029360
  12 C :   -0.037553
  13 H :    0.047776
  14 H :    0.035412
  15 H :    0.009929
  16 S :    0.133040
  17 C :   -0.095564
  18 C :   -0.053733
  19 C :    0.010683
  20 C :   -0.194211
  21 H :    0.024682
  22 C :    0.040690
  23 H :    0.005091
  24 H :    0.025740
  25 C :   -0.062749
  26 H :    0.034476
  27 H :    0.036160
  28 C :   -0.038123
  29 H :    0.009038
  30 H :    0.041628
  31 H :    0.033385
  32 H :    0.007281
  33 H :    0.065028
Sum of atomic charges:   -0.0000000

LOEWDIN ATOMIC CHARGES
----------------------
   0 S :    0.396124
   1 C :   -0.189183
   2 C :   -0.062626
   3 C :   -0.074545
   4 C :   -0.187008
   5 H :    0.032545
   6 C :   -0.032994
   7 H :    0.025138
   8 H :    0.031692
   9 C :   -0.040403
  10 H :    0.034592
  11 H :    0.026853
  12 C :   -0.074223
  13 H :    0.029340
  14 H :    0.038512
  15 H :    0.014724
  16 S :    0.414248
  17 C :   -0.195835
  18 C :   -0.070640
  19 C :   -0.051472
  20 C :   -0.192005
  21 H :    0.032634
  22 C :   -0.040580
  23 H :    0.029840
  24 H :    0.028684
  25 C :   -0.030247
  26 H :    0.022568
  27 H :    0.029067
  28 C :   -0.067938
  29 H :    0.018343
  30 H :    0.029356
  31 H :    0.027885
  32 H :    0.011160
  33 H :    0.036394

  Mayer bond orders larger than 0.100000
B(  0-S ,  1-C ) :   1.1368 B(  0-S ,  4-C ) :   1.1527 B(  1-C ,  2-C ) :   1.5919
B(  1-C ,  4-C ) :   0.1077 B(  1-C , 32-H ) :   0.9763 B(  2-C ,  3-C ) :   1.2610
B(  2-C ,  6-C ) :   1.0174 B(  3-C ,  4-C ) :   1.5556 B(  3-C ,  5-H ) :   0.9895
B(  4-C , 20-C ) :   1.0592 B(  6-C ,  7-H ) :   0.9305 B(  6-C ,  8-H ) :   0.9439
B(  6-C ,  9-C ) :   1.0706 B(  9-C , 10-H ) :   0.9536 B(  9-C , 11-H ) :   0.9561
B(  9-C , 12-C ) :   1.0829 B( 12-C , 13-H ) :   0.9752 B( 12-C , 14-H ) :   0.9686
B( 12-C , 15-H ) :   0.9714 B( 16-S , 17-C ) :   1.1629 B( 16-S , 20-C ) :   1.1384
B( 17-C , 18-C ) :   1.6035 B( 17-C , 33-H ) :   0.9586 B( 18-C , 19-C ) :   1.2708
B( 18-C , 21-H ) :   0.9795 B( 19-C , 20-C ) :   1.5668 B( 19-C , 22-C ) :   1.0566
B( 22-C , 23-H ) :   0.9305 B( 22-C , 24-H ) :   0.9200 B( 22-C , 25-C ) :   1.0650
B( 25-C , 26-H ) :   0.9537 B( 25-C , 27-H ) :   0.9540 B( 25-C , 28-C ) :   1.0752
B( 28-C , 29-H ) :   0.9706 B( 28-C , 30-H ) :   0.9754 B( 28-C , 31-H ) :   0.9747

Dispersion correction           -0.014028672
FINAL SINGLE POINT ENERGY     -1339.860638812731

DIPOLE MOMENT
-------------
                                X             Y             Z
Electronic contribution:     -6.67228     -27.31884      -0.30124
Nuclear contribution   :      6.92063      27.84207       0.12370
                        -----------------------------------------
Total Dipole Moment    :      0.24835       0.52323      -0.17754
                        -----------------------------------------
Magnitude (a.u.)       :      0.60578
Magnitude (Debye)      :      1.53978

Rotational constants in cm-1:     0.017826     0.008136     0.006708
Rotational constants in MHz :   534.409301   243.905889   201.098311

                             ****ORCA TERMINATED NORMALLY****
TOTAL RUN TIME: 0 days 0 hours 0 minutes 32 seconds 925 msec
