                         Program Version 4.2.1 -  RELEASE  -
|  1> ! wB97X-D3 SP def2-SVP
|  2> %pal
|  3> nprocs 16
|  4> end
|  5>
|  6> * xyz 0 1
|  7> S 	 -15.4462 	 33.1454 	 34.9132
|  8> C 	 -15.8316 	 32.2485 	 36.4519
|  9> C 	 -14.6787 	 31.9324 	 37.1544
| 10> C 	 -13.5093 	 32.3918 	 36.4605
| 11> C 	 -13.7553 	 33.216 	 35.3726
| 12> H 	 -12.4952 	 32.3214 	 36.7855
| 13> C 	 -14.5543 	 31.0598 	 38.4293
| 14> H 	 -13.4957 	 30.7127 	 38.4583
| 15> H 	 -15.0865 	 30.1155 	 38.2782
| 16> C 	 -14.9162 	 31.6437 	 39.8071
| 17> H 	 -16.0047 	 31.7719 	 39.9202
| 18> H 	 -14.5845 	 30.8807 	 40.4909
| 19> C 	 -14.0817 	 32.8865 	 40.1447
| 20> H 	 -14.2255 	 33.1773 	 41.1474
| 21> H 	 -13.0211 	 32.7979 	 40.0465
| 22> H 	 -14.5314 	 33.6884 	 39.5428
| 23> S 	 -12.6269 	 33.3878 	 32.8922
| 24> C 	 -11.6822 	 34.8556 	 32.5554
| 25> C 	 -11.4362 	 35.5438 	 33.7093
| 26> C 	 -11.9701 	 34.9825 	 34.8982
| 27> C 	 -12.7345 	 33.8582 	 34.5632
| 28> H 	 -10.7915 	 36.4136 	 33.7457
| 29> C 	 -11.8601 	 35.6884 	 36.2473
| 30> H 	 -10.8585 	 35.6872 	 36.6074
| 31> H 	 -12.3014 	 35.0989 	 37.0123
| 32> C 	 -12.6188 	 37.0677 	 36.2413
| 33> H 	 -13.6626 	 36.8704 	 36.045
| 34> H 	 -12.3006 	 37.6306 	 35.4864
| 35> C 	 -12.6208 	 37.799 	 37.6357
| 36> H 	 -13.4525 	 38.449 	 37.6905
| 37> H 	 -11.6828 	 38.3235 	 37.8026
| 38> H 	 -12.7448 	 37.0862 	 38.4349
| 39> H 	 -16.8079 	 31.8949 	 36.8196
| 40> H 	 -11.2968 	 35.115 	 31.6079
| 41> *
| 42>
| 43>                          ****END OF INPUT****

CARTESIAN COORDINATES (ANGSTROEM)
---------------------------------
  S    -15.446200   33.145400   34.913200
  C    -15.831600   32.248500   36.451900
  C    -14.678700   31.932400   37.154400
  C    -13.509300   32.391800   36.460500
  C    -13.755300   33.216000   35.372600
  H    -12.495200   32.321400   36.785500
  C    -14.554300   31.059800   38.429300
  H    -13.495700   30.712700   38.458300
  H    -15.086500   30.115500   38.278200
  C    -14.916200   31.643700   39.807100
  H    -16.004700   31.771900   39.920200
  H    -14.584500   30.880700   40.490900
  C    -14.081700   32.886500   40.144700
  H    -14.225500   33.177300   41.147400
  H    -13.021100   32.797900   40.046500
  H    -14.531400   33.688400   39.542800
  S    -12.626900   33.387800   32.892200
  C    -11.682200   34.855600   32.555400
  C    -11.436200   35.543800   33.709300
  C    -11.970100   34.982500   34.898200
  C    -12.734500   33.858200   34.563200
  H    -10.791500   36.413600   33.745700
  C    -11.860100   35.688400   36.247300
  H    -10.858500   35.687200   36.607400
  H    -12.301400   35.098900   37.012300
  C    -12.618800   37.067700   36.241300
  H    -13.662600   36.870400   36.045000
  H    -12.300600   37.630600   35.486400
  C    -12.620800   37.799000   37.635700
  H    -13.452500   38.449000   37.690500
  H    -11.682800   38.323500   37.802600
  H    -12.744800   37.086200   38.434900
  H    -16.807900   31.894900   36.819600
  H    -11.296800   35.115000   31.607900

 Total Charge           Charge          ....    0
 Multiplicity           Mult            ....    1
 Number of Electrons    NEL             ....  134
 Basis Dimension        Dim             ....  322

ORBITAL ENERGIES
----------------

  NO   OCC          E(Eh)            E(eV)
   0   2.0000     -88.967891     -2420.9394
   1   2.0000     -88.966605     -2420.9044
   2   2.0000     -10.325683      -280.9761
   3   2.0000     -10.324356      -280.9400
   4   2.0000     -10.319341      -280.8036
   5   2.0000     -10.314867      -280.6818
   6   2.0000     -10.303475      -280.3718
   7   2.0000     -10.303307      -280.3672
   8   2.0000     -10.296705      -280.1876
   9   2.0000     -10.290875      -280.0289
  10   2.0000     -10.289082      -279.9801
  11   2.0000     -10.288877      -279.9746
  12   2.0000     -10.288004      -279.9508
  13   2.0000     -10.278140      -279.6824
  14   2.0000     -10.274165      -279.5743
  15   2.0000     -10.271873      -279.5119
  16   2.0000      -8.081155      -219.8994
  17   2.0000      -8.081108      -219.8981
  18   2.0000      -6.039791      -164.3511
  19   2.0000      -6.039621      -164.3464
  20   2.0000      -6.035937      -164.2462
  21   2.0000      -6.035767      -164.2416
  22   2.0000      -6.031876      -164.1357
  23   2.0000      -6.031666      -164.1300
  24   2.0000      -1.003123       -27.2964
  25   2.0000      -0.976214       -26.5641
  26   2.0000      -0.908234       -24.7143
  27   2.0000      -0.903390       -24.5825
  28   2.0000      -0.867408       -23.6034
  29   2.0000      -0.848793       -23.0968
  30   2.0000      -0.841297       -22.8928
  31   2.0000      -0.810439       -22.0532
  32   2.0000      -0.785405       -21.3719
  33   2.0000      -0.774103       -21.0644
  34   2.0000      -0.713098       -19.4044
  35   2.0000      -0.703251       -19.1364
  36   2.0000      -0.698411       -19.0047
  37   2.0000      -0.659280       -17.9399
  38   2.0000      -0.634128       -17.2555
  39   2.0000      -0.610369       -16.6090
  40   2.0000      -0.598291       -16.2803
  41   2.0000      -0.573310       -15.6006
  42   2.0000      -0.560936       -15.2638
  43   2.0000      -0.548327       -14.9207
  44   2.0000      -0.542904       -14.7732
  45   2.0000      -0.524841       -14.2817
  46   2.0000      -0.514064       -13.9884
  47   2.0000      -0.509515       -13.8646
  48   2.0000      -0.503276       -13.6948
  49   2.0000      -0.492265       -13.3952
  50   2.0000      -0.489091       -13.3088
  51   2.0000      -0.477122       -12.9831
  52   2.0000      -0.467488       -12.7210
  53   2.0000      -0.463451       -12.6111
  54   2.0000      -0.461151       -12.5485
  55   2.0000      -0.447288       -12.1713
  56   2.0000      -0.441795       -12.0219
  57   2.0000      -0.438415       -11.9299
  58   2.0000      -0.434123       -11.8131
  59   2.0000      -0.432988       -11.7822
  60   2.0000      -0.424156       -11.5419
  61   2.0000      -0.417704       -11.3663
  62   2.0000      -0.412076       -11.2132
  63   2.0000      -0.338867        -9.2210
  64   2.0000      -0.332339        -9.0434
  65   2.0000      -0.328324        -8.9342
  66   2.0000      -0.295048        -8.0287
  67   0.0000       0.032083         0.8730
  68   0.0000       0.062366         1.6971
  69   0.0000       0.106184         2.8894
  70   0.0000       0.117006         3.1839
  71   0.0000       0.133757         3.6397

MULLIKEN ATOMIC CHARGES
-----------------------
   0 S :    0.110599
   1 C :   -0.130174
   2 C :   -0.076098
   3 C :    0.042199
   4 C :   -0.156557
   5 H :    0.004370
   6 C :    0.033191
   7 H :    0.022017
   8 H :    0.035509
   9 C :   -0.061812
  10 H :    0.038886
  11 H :    0.025711
  12 C :   -0.033947
  13 H :    0.017518
  14 H :    0.027312
  15 H :    0.043016
  16 S :    0.112545
  17 C :   -0.075165
  18 C :   -0.031160
  19 C :   -0.033680
  20 C :   -0.196905
  21 H :    0.018047
  22 C :    0.121000
  23 H :    0.022098
  24 H :   -0.005338
  25 C :   -0.053954
  26 H :    0.030698
  27 H :   -0.000851
  28 C :   -0.021821
  29 H :    0.028215
  30 H :    0.033093
  31 H :    0.021175
  32 H :    0.049527
  33 H :    0.040741
Sum of atomic charges:    0.0000000

LOEWDIN ATOMIC CHARGES
----------------------
   0 S :    0.379263
   1 C :   -0.185074
   2 C :   -0.064689
   3 C :   -0.062664
   4 C :   -0.193152
   5 H :    0.025100
   6 C :   -0.035408
   7 H :    0.033273
   8 H :    0.032170
   9 C :   -0.037489
  10 H :    0.026637
  11 H :    0.023763
  12 C :   -0.062846
  13 H :    0.019668
  14 H :    0.022626
  15 H :    0.031474
  16 S :    0.400609
  17 C :   -0.169919
  18 C :   -0.067191
  19 C :   -0.048204
  20 C :   -0.203973
  21 H :    0.030555
  22 C :   -0.026338
  23 H :    0.027918
  24 H :    0.024420
  25 C :   -0.017958
  26 H :    0.029999
  27 H :    0.000296
  28 C :   -0.056074
  29 H :    0.021890
  30 H :    0.024218
  31 H :    0.023233
  32 H :    0.033055
  33 H :    0.020813

  Mayer bond orders larger than 0.100000
B(  0-S ,  1-C ) :   1.1163 B(  0-S ,  4-C ) :   1.1336 B(  1-C ,  2-C ) :   1.6372
B(  1-C , 32-H ) :   0.9646 B(  2-C ,  3-C ) :   1.2246 B(  2-C ,  6-C ) :   1.0009
B(  3-C ,  4-C ) :   1.6009 B(  3-C ,  5-H ) :   0.9883 B(  4-C , 20-C ) :   1.0332
B(  6-C ,  7-H ) :   0.9453 B(  6-C ,  8-H ) :   0.9431 B(  6-C ,  9-C ) :   1.0792
B(  9-C , 10-H ) :   0.9581 B(  9-C , 11-H ) :   0.9525 B(  9-C , 12-C ) :   1.0785
B( 12-C , 13-H ) :   0.9724 B( 12-C , 14-H ) :   0.9755 B( 12-C , 15-H ) :   0.9735
B( 16-S , 17-C ) :   1.1304 B( 16-S , 20-C ) :   1.1605 B( 17-C , 18-C ) :   1.6166
B( 17-C , 33-H ) :   0.9756 B( 18-C , 19-C ) :   1.2496 B( 18-C , 21-H ) :   0.9846
B( 19-C , 20-C ) :   1.5812 B( 19-C , 22-C ) :   1.0523 B( 22-C , 23-H ) :   0.9314
B( 22-C , 24-H ) :   0.9186 B( 22-C , 25-C ) :   1.0496 B( 25-C , 26-H ) :   0.9564
B( 25-C , 27-H ) :   0.9659 B( 25-C , 28-C ) :   1.0769 B( 28-C , 29-H ) :   0.9782
B( 28-C , 30-H ) :   0.9778 B( 28-C , 31-H ) :   0.9752

Dispersion correction           -0.014546333
FINAL SINGLE POINT ENERGY     -1339.868527504012

DIPOLE MOMENT
-------------
                                X             Y             Z
Electronic contribution:     -3.06296      -8.97622     -28.25304
Nuclear contribution   :      3.30551       9.12279      28.88587
                        -----------------------------------------
Total Dipole Moment    :      0.24254       0.14657       0.63283
                        -----------------------------------------
Magnitude (a.u.)       :      0.69338
Magnitude (Debye)      :      1.76244

Rotational constants in cm-1:     0.017235     0.009489     0.007034
Rotational constants in MHz :   516.686678   284.473049   210.864981

                             ****ORCA TERMINATED NORMALLY****
TOTAL RUN TIME: 0 days 0 hours 0 minutes 31 seconds 945 msec
