                         Program Version 4.2.1 -  RELEASE  -
|  1> ! wB97X-D3 SP def2-SVP
|  2> %pal
|  3> nprocs 16
|  4> end
|  5>
|  6> * xyz 0 1
|  7> S 	 -6.95874 	 55.1575 	 30.0943
|  8> C 	 -6.27311 	 53.6528 	 29.6636
|  9> C 	 -5.11946 	 53.4228 	 30.3594
| 10> C 	 -4.74548 	 54.5097 	 31.2213
| 11> C 	 -5.60299 	 55.5723 	 31.1732
| 12> H 	 -3.89551 	 54.5971 	 31.8237
| 13> C 	 -4.31631 	 52.1873 	 30.2532
| 14> H 	 -4.05464 	 52.0363 	 29.2825
| 15> H 	 -5.00713 	 51.2946 	 30.3106
| 16> C 	 -2.99422 	 51.8275 	 30.9971
| 17> H 	 -2.47944 	 52.6991 	 31.2506
| 18> H 	 -3.03876 	 51.5113 	 31.9401
| 19> C 	 -2.01218 	 50.8989 	 30.2763
| 20> H 	 -2.23361 	 49.8842 	 30.1885
| 21> H 	 -1.92962 	 51.1646 	 29.244
| 22> H 	 -1.09282 	 50.8921 	 30.811
| 23> S 	 -5.99173 	 58.4485 	 31.1539
| 24> C 	 -5.57472 	 59.251 	 32.6398
| 25> C 	 -5.34992 	 58.3984 	 33.6993
| 26> C 	 -5.38835 	 57.0213 	 33.2992
| 27> C 	 -5.59725 	 56.8137 	 31.9481
| 28> H 	 -5.29874 	 58.7388 	 34.7075
| 29> C 	 -5.18631 	 55.96 	 34.3363
| 30> H 	 -4.85529 	 56.4193 	 35.24
| 31> H 	 -4.28879 	 55.4593 	 33.8831
| 32> C 	 -6.48742 	 55.0636 	 34.4852
| 33> H 	 -6.36821 	 54.2931 	 35.2643
| 34> H 	 -6.56551 	 54.5019 	 33.5082
| 35> C 	 -7.75833 	 55.7886 	 34.8326
| 36> H 	 -8.51215 	 55.1377 	 35.2593
| 37> H 	 -8.1108 	 56.2423 	 33.9276
| 38> H 	 -7.558 	 56.5613 	 35.5518
| 39> H 	 -6.6377 	 52.8984 	 28.9803
| 40> H 	 -5.68081 	 60.2798 	 32.9123
| 41> *
| 42>
| 43>                          ****END OF INPUT****

CARTESIAN COORDINATES (ANGSTROEM)
---------------------------------
  S     -6.958740   55.157500   30.094300
  C     -6.273110   53.652800   29.663600
  C     -5.119460   53.422800   30.359400
  C     -4.745480   54.509700   31.221300
  C     -5.602990   55.572300   31.173200
  H     -3.895510   54.597100   31.823700
  C     -4.316310   52.187300   30.253200
  H     -4.054640   52.036300   29.282500
  H     -5.007130   51.294600   30.310600
  C     -2.994220   51.827500   30.997100
  H     -2.479440   52.699100   31.250600
  H     -3.038760   51.511300   31.940100
  C     -2.012180   50.898900   30.276300
  H     -2.233610   49.884200   30.188500
  H     -1.929620   51.164600   29.244000
  H     -1.092820   50.892100   30.811000
  S     -5.991730   58.448500   31.153900
  C     -5.574720   59.251000   32.639800
  C     -5.349920   58.398400   33.699300
  C     -5.388350   57.021300   33.299200
  C     -5.597250   56.813700   31.948100
  H     -5.298740   58.738800   34.707500
  C     -5.186310   55.960000   34.336300
  H     -4.855290   56.419300   35.240000
  H     -4.288790   55.459300   33.883100
  C     -6.487420   55.063600   34.485200
  H     -6.368210   54.293100   35.264300
  H     -6.565510   54.501900   33.508200
  C     -7.758330   55.788600   34.832600
  H     -8.512150   55.137700   35.259300
  H     -8.110800   56.242300   33.927600
  H     -7.558000   56.561300   35.551800
  H     -6.637700   52.898400   28.980300
  H     -5.680810   60.279800   32.912300

 Total Charge           Charge          ....    0
 Multiplicity           Mult            ....    1
 Number of Electrons    NEL             ....  134
 Basis Dimension        Dim             ....  322

ORBITAL ENERGIES
----------------

  NO   OCC          E(Eh)            E(eV)
   0   2.0000     -88.968397     -2420.9532
   1   2.0000     -88.965002     -2420.8608
   2   2.0000     -10.332513      -281.1620
   3   2.0000     -10.331658      -281.1387
   4   2.0000     -10.317528      -280.7542
   5   2.0000     -10.309243      -280.5288
   6   2.0000     -10.303541      -280.3736
   7   2.0000     -10.300530      -280.2917
   8   2.0000     -10.293848      -280.1099
   9   2.0000     -10.290721      -280.0248
  10   2.0000     -10.290220      -280.0111
  11   2.0000     -10.287949      -279.9493
  12   2.0000     -10.287066      -279.9253
  13   2.0000     -10.276590      -279.6402
  14   2.0000     -10.270756      -279.4815
  15   2.0000     -10.267225      -279.3854
  16   2.0000      -8.081549      -219.9101
  17   2.0000      -8.079863      -219.8643
  18   2.0000      -6.040299      -164.3649
  19   2.0000      -6.038387      -164.3129
  20   2.0000      -6.036405      -164.2589
  21   2.0000      -6.034317      -164.2021
  22   2.0000      -6.032029      -164.1399
  23   2.0000      -6.030629      -164.1018
  24   2.0000      -1.005074       -27.3495
  25   2.0000      -0.982609       -26.7382
  26   2.0000      -0.914500       -24.8848
  27   2.0000      -0.906314       -24.6621
  28   2.0000      -0.874328       -23.7917
  29   2.0000      -0.855454       -23.2781
  30   2.0000      -0.848263       -23.0824
  31   2.0000      -0.821053       -22.3420
  32   2.0000      -0.786740       -21.4083
  33   2.0000      -0.773388       -21.0450
  34   2.0000      -0.729259       -19.8442
  35   2.0000      -0.706841       -19.2341
  36   2.0000      -0.685990       -18.6667
  37   2.0000      -0.663170       -18.0458
  38   2.0000      -0.649386       -17.6707
  39   2.0000      -0.625050       -17.0085
  40   2.0000      -0.585450       -15.9309
  41   2.0000      -0.575930       -15.6719
  42   2.0000      -0.558507       -15.1977
  43   2.0000      -0.550037       -14.9673
  44   2.0000      -0.549358       -14.9488
  45   2.0000      -0.529596       -14.4110
  46   2.0000      -0.514873       -14.0104
  47   2.0000      -0.508923       -13.8485
  48   2.0000      -0.508166       -13.8279
  49   2.0000      -0.501262       -13.6400
  50   2.0000      -0.488920       -13.3042
  51   2.0000      -0.484351       -13.1799
  52   2.0000      -0.477324       -12.9886
  53   2.0000      -0.469232       -12.7685
  54   2.0000      -0.461887       -12.5686
  55   2.0000      -0.457533       -12.4501
  56   2.0000      -0.444745       -12.1021
  57   2.0000      -0.442345       -12.0368
  58   2.0000      -0.434829       -11.8323
  59   2.0000      -0.424203       -11.5432
  60   2.0000      -0.415754       -11.3132
  61   2.0000      -0.409846       -11.1525
  62   2.0000      -0.406670       -11.0661
  63   2.0000      -0.351139        -9.5550
  64   2.0000      -0.330774        -9.0008
  65   2.0000      -0.327012        -8.8984
  66   2.0000      -0.289032        -7.8649
  67   0.0000       0.024114         0.6562
  68   0.0000       0.065674         1.7871
  69   0.0000       0.106351         2.8940
  70   0.0000       0.128022         3.4837
  71   0.0000       0.135151         3.6776

MULLIKEN ATOMIC CHARGES
-----------------------
   0 S :    0.109412
   1 C :   -0.110991
   2 C :   -0.051459
   3 C :    0.022166
   4 C :   -0.149242
   5 H :   -0.009206
   6 C :    0.074029
   7 H :   -0.007900
   8 H :    0.025434
   9 C :    0.016567
  10 H :   -0.002521
  11 H :   -0.012591
  12 C :   -0.034300
  13 H :    0.013944
  14 H :    0.022441
  15 H :    0.026317
  16 S :    0.102390
  17 C :   -0.055188
  18 C :   -0.042782
  19 C :   -0.064533
  20 C :   -0.163041
  21 H :    0.010933
  22 C :    0.086499
  23 H :    0.006748
  24 H :    0.038717
  25 C :   -0.101130
  26 H :    0.027660
  27 H :    0.055943
  28 C :   -0.013999
  29 H :    0.036270
  30 H :    0.038251
  31 H :    0.016969
  32 H :    0.039517
  33 H :    0.048677
Sum of atomic charges:    0.0000000

LOEWDIN ATOMIC CHARGES
----------------------
   0 S :    0.406918
   1 C :   -0.208876
   2 C :   -0.060065
   3 C :   -0.059103
   4 C :   -0.178043
   5 H :    0.020919
   6 C :   -0.039278
   7 H :    0.021637
   8 H :    0.041916
   9 C :   -0.030060
  10 H :    0.020954
  11 H :    0.009014
  12 C :   -0.052843
  13 H :    0.016745
  14 H :    0.022564
  15 H :    0.029063
  16 S :    0.367271
  17 C :   -0.175321
  18 C :   -0.075717
  19 C :   -0.045829
  20 C :   -0.181372
  21 H :    0.027417
  22 C :   -0.031206
  23 H :    0.020831
  24 H :    0.041225
  25 C :   -0.041683
  26 H :    0.021266
  27 H :    0.033664
  28 C :   -0.061559
  29 H :    0.029004
  30 H :    0.026567
  31 H :    0.021349
  32 H :    0.033041
  33 H :    0.029590

  Mayer bond orders larger than 0.100000
B(  0-S ,  1-C ) :   1.1329 B(  0-S ,  4-C ) :   1.1433 B(  1-C ,  2-C ) :   1.6156
B(  1-C , 32-H ) :   0.9717 B(  2-C ,  3-C ) :   1.2293 B(  2-C ,  6-C ) :   1.0197
B(  3-C ,  4-C ) :   1.5837 B(  3-C ,  5-H ) :   1.0059 B(  4-C , 20-C ) :   1.0657
B(  6-C ,  7-H ) :   0.9292 B(  6-C ,  8-H ) :   0.9252 B(  6-C ,  9-C ) :   1.0503
B(  9-C , 10-H ) :   0.9401 B(  9-C , 11-H ) :   0.9408 B(  9-C , 12-C ) :   1.0951
B( 12-C , 13-H ) :   0.9767 B( 12-C , 14-H ) :   0.9738 B( 12-C , 15-H ) :   0.9705
B( 16-S , 17-C ) :   1.1556 B( 16-S , 20-C ) :   1.0889 B( 17-C , 18-C ) :   1.6306
B( 17-C , 33-H ) :   0.9592 B( 18-C , 19-C ) :   1.2320 B( 18-C , 21-H ) :   0.9891
B( 19-C , 20-C ) :   1.6044 B( 19-C , 22-C ) :   1.0180 B( 22-C , 23-H ) :   0.9355
B( 22-C , 24-H ) :   0.9394 B( 22-C , 25-C ) :   1.0539 B( 25-C , 26-H ) :   0.9626
B( 25-C , 27-H ) :   0.9560 B( 25-C , 28-C ) :   1.0738 B( 28-C , 29-H ) :   0.9735
B( 28-C , 30-H ) :   0.9705 B( 28-C , 31-H ) :   0.9746

Dispersion correction           -0.015033260
FINAL SINGLE POINT ENERGY     -1339.841225404389

DIPOLE MOMENT
-------------
                                X             Y             Z
Electronic contribution:    -10.15359      21.10313     -11.57999
Nuclear contribution   :     10.46709     -21.56572      12.09025
                        -----------------------------------------
Total Dipole Moment    :      0.31350      -0.46259       0.51026
                        -----------------------------------------
Magnitude (a.u.)       :      0.75673
Magnitude (Debye)      :      1.92345

Rotational constants in cm-1:     0.020496     0.007965     0.007233
Rotational constants in MHz :   614.459940   238.773037   216.825975

                             ****ORCA TERMINATED NORMALLY****
TOTAL RUN TIME: 0 days 0 hours 0 minutes 34 seconds 891 msec
