                         Program Version 4.2.1 -  RELEASE  -
|  1> ! wB97X-D3 SP def2-SVP
|  2> %pal
|  3> nprocs 16
|  4> end
|  5>
|  6> * xyz 0 1
|  7> S 	 29.9126 	 -0.288405 	 75.1936
|  8> C 	 31.2065 	 0.58083 	 76.0082
|  9> C 	 31.7318 	 -0.171523 	 77.0453
| 10> C 	 31.1103 	 -1.4169 	 77.1539
| 11> C 	 30.0282 	 -1.63158 	 76.3516
| 12> H 	 31.2691 	 -1.97658 	 78.0297
| 13> C 	 32.6665 	 0.38026 	 78.0388
| 14> H 	 32.714 	 -0.342159 	 78.8476
| 15> H 	 32.2914 	 1.2892 	 78.4479
| 16> C 	 34.1092 	 0.544361 	 77.5742
| 17> H 	 34.6323 	 -0.455071 	 77.4891
| 18> H 	 34.2042 	 0.932415 	 76.5748
| 19> C 	 35.095 	 1.28345 	 78.4774
| 20> H 	 34.819 	 2.30167 	 78.5187
| 21> H 	 35.1216 	 0.988256 	 79.5398
| 22> H 	 36.1333 	 1.17235 	 78.0954
| 23> S 	 27.6329 	 -2.61989 	 75.4793
| 24> C 	 27.1766 	 -4.26675 	 75.8497
| 25> C 	 28.199 	 -4.93656 	 76.4854
| 26> C 	 29.2457 	 -4.0516 	 76.9035
| 27> C 	 29.1664 	 -2.81979 	 76.32
| 28> H 	 28.0286 	 -5.94259 	 76.6779
| 29> C 	 30.4035 	 -4.62562 	 77.6552
| 30> H 	 30.1685 	 -5.68365 	 77.9854
| 31> H 	 30.7271 	 -4.06178 	 78.5335
| 32> C 	 31.6937 	 -4.9626 	 76.8578
| 33> H 	 32.6228 	 -5.15678 	 77.4445
| 34> H 	 32.0385 	 -4.04616 	 76.3336
| 35> C 	 31.3855 	 -5.95453 	 75.7817
| 36> H 	 30.9475 	 -5.42331 	 74.9245
| 37> H 	 30.677 	 -6.73694 	 76.0733
| 38> H 	 32.2719 	 -6.44545 	 75.2714
| 39> H 	 31.5059 	 1.61432 	 75.7971
| 40> H 	 26.3064 	 -4.67506 	 75.4631
| 41> *
| 42>
| 43>                          ****END OF INPUT****

CARTESIAN COORDINATES (ANGSTROEM)
---------------------------------
  S     29.912600   -0.288405   75.193600
  C     31.206500    0.580830   76.008200
  C     31.731800   -0.171523   77.045300
  C     31.110300   -1.416900   77.153900
  C     30.028200   -1.631580   76.351600
  H     31.269100   -1.976580   78.029700
  C     32.666500    0.380260   78.038800
  H     32.714000   -0.342159   78.847600
  H     32.291400    1.289200   78.447900
  C     34.109200    0.544361   77.574200
  H     34.632300   -0.455071   77.489100
  H     34.204200    0.932415   76.574800
  C     35.095000    1.283450   78.477400
  H     34.819000    2.301670   78.518700
  H     35.121600    0.988256   79.539800
  H     36.133300    1.172350   78.095400
  S     27.632900   -2.619890   75.479300
  C     27.176600   -4.266750   75.849700
  C     28.199000   -4.936560   76.485400
  C     29.245700   -4.051600   76.903500
  C     29.166400   -2.819790   76.320000
  H     28.028600   -5.942590   76.677900
  C     30.403500   -4.625620   77.655200
  H     30.168500   -5.683650   77.985400
  H     30.727100   -4.061780   78.533500
  C     31.693700   -4.962600   76.857800
  H     32.622800   -5.156780   77.444500
  H     32.038500   -4.046160   76.333600
  C     31.385500   -5.954530   75.781700
  H     30.947500   -5.423310   74.924500
  H     30.677000   -6.736940   76.073300
  H     32.271900   -6.445450   75.271400
  H     31.505900    1.614320   75.797100
  H     26.306400   -4.675060   75.463100

 Total Charge           Charge          ....    0
 Multiplicity           Mult            ....    1
 Number of Electrons    NEL             ....  134
 Basis Dimension        Dim             ....  322

ORBITAL ENERGIES
----------------

  NO   OCC          E(Eh)            E(eV)
   0   2.0000     -88.969996     -2420.9967
   1   2.0000     -88.964748     -2420.8539
   2   2.0000     -10.334313      -281.2110
   3   2.0000     -10.331547      -281.1357
   4   2.0000     -10.315286      -280.6932
   5   2.0000     -10.313882      -280.6550
   6   2.0000     -10.305835      -280.4360
   7   2.0000     -10.297206      -280.2012
   8   2.0000     -10.295226      -280.1473
   9   2.0000     -10.293052      -280.0882
  10   2.0000     -10.288520      -279.9649
  11   2.0000     -10.286967      -279.9226
  12   2.0000     -10.285544      -279.8839
  13   2.0000     -10.285475      -279.8820
  14   2.0000     -10.277854      -279.6746
  15   2.0000     -10.275090      -279.5994
  16   2.0000      -8.083824      -219.9720
  17   2.0000      -8.079789      -219.8622
  18   2.0000      -6.042487      -164.4244
  19   2.0000      -6.038382      -164.3127
  20   2.0000      -6.038311      -164.3108
  21   2.0000      -6.034563      -164.2088
  22   2.0000      -6.034277      -164.2010
  23   2.0000      -6.030515      -164.0986
  24   2.0000      -1.011113       -27.5138
  25   2.0000      -0.989438       -26.9240
  26   2.0000      -0.916821       -24.9480
  27   2.0000      -0.912022       -24.8174
  28   2.0000      -0.872204       -23.7339
  29   2.0000      -0.856325       -23.3018
  30   2.0000      -0.847521       -23.0622
  31   2.0000      -0.820935       -22.3388
  32   2.0000      -0.783575       -21.3222
  33   2.0000      -0.773993       -21.0614
  34   2.0000      -0.710654       -19.3379
  35   2.0000      -0.701811       -19.0973
  36   2.0000      -0.690097       -18.7785
  37   2.0000      -0.675077       -18.3698
  38   2.0000      -0.639769       -17.4090
  39   2.0000      -0.630164       -17.1476
  40   2.0000      -0.597480       -16.2582
  41   2.0000      -0.574951       -15.6452
  42   2.0000      -0.564837       -15.3700
  43   2.0000      -0.555966       -15.1286
  44   2.0000      -0.543360       -14.7856
  45   2.0000      -0.531047       -14.4505
  46   2.0000      -0.527030       -14.3412
  47   2.0000      -0.506710       -13.7883
  48   2.0000      -0.505148       -13.7458
  49   2.0000      -0.500024       -13.6063
  50   2.0000      -0.491553       -13.3758
  51   2.0000      -0.480097       -13.0641
  52   2.0000      -0.471422       -12.8280
  53   2.0000      -0.467291       -12.7156
  54   2.0000      -0.463807       -12.6208
  55   2.0000      -0.451458       -12.2848
  56   2.0000      -0.439620       -11.9627
  57   2.0000      -0.436981       -11.8909
  58   2.0000      -0.434329       -11.8187
  59   2.0000      -0.427125       -11.6227
  60   2.0000      -0.419573       -11.4172
  61   2.0000      -0.408050       -11.1036
  62   2.0000      -0.400051       -10.8859
  63   2.0000      -0.363009        -9.8780
  64   2.0000      -0.338184        -9.2025
  65   2.0000      -0.330845        -9.0027
  66   2.0000      -0.284034        -7.7289
  67   0.0000       0.016636         0.4527
  68   0.0000       0.076703         2.0872
  69   0.0000       0.100488         2.7344
  70   0.0000       0.119845         3.2612
  71   0.0000       0.130314         3.5460

MULLIKEN ATOMIC CHARGES
-----------------------
   0 S :    0.103952
   1 C :   -0.127188
   2 C :   -0.082800
   3 C :    0.007643
   4 C :   -0.082227
   5 H :   -0.014721
   6 C :    0.112413
   7 H :    0.009068
   8 H :    0.027391
   9 C :   -0.103621
  10 H :    0.027167
  11 H :    0.024257
  12 C :   -0.044472
  13 H :    0.017532
  14 H :    0.026931
  15 H :    0.042879
  16 S :    0.084050
  17 C :   -0.064070
  18 C :   -0.003728
  19 C :   -0.047357
  20 C :   -0.097337
  21 H :    0.000715
  22 C :    0.009487
  23 H :    0.028595
  24 H :    0.039097
  25 C :   -0.069457
  26 H :    0.033874
  27 H :    0.028844
  28 C :   -0.077985
  29 H :    0.042836
  30 H :    0.024203
  31 H :    0.037442
  32 H :    0.052932
  33 H :    0.033653
Sum of atomic charges:   -0.0000000

LOEWDIN ATOMIC CHARGES
----------------------
   0 S :    0.391301
   1 C :   -0.192807
   2 C :   -0.063075
   3 C :   -0.068012
   4 C :   -0.174277
   5 H :    0.022653
   6 C :   -0.027759
   7 H :    0.031347
   8 H :    0.029678
   9 C :   -0.045361
  10 H :    0.030276
  11 H :    0.019469
  12 C :   -0.068377
  13 H :    0.014258
  14 H :    0.025281
  15 H :    0.033805
  16 S :    0.394994
  17 C :   -0.164294
  18 C :   -0.054567
  19 C :   -0.060105
  20 C :   -0.178766
  21 H :    0.023433
  22 C :   -0.035836
  23 H :    0.035987
  24 H :    0.028532
  25 C :   -0.053318
  26 H :    0.027965
  27 H :    0.026225
  28 C :   -0.078111
  29 H :    0.032231
  30 H :    0.018138
  31 H :    0.032920
  32 H :    0.032334
  33 H :    0.013839

  Mayer bond orders larger than 0.100000
B(  0-S ,  1-C ) :   1.1367 B(  0-S ,  4-C ) :   1.1370 B(  1-C ,  2-C ) :   1.5876
B(  1-C ,  4-C ) :   0.1044 B(  1-C , 32-H ) :   0.9663 B(  2-C ,  3-C ) :   1.2922
B(  2-C ,  6-C ) :   1.0268 B(  3-C ,  4-C ) :   1.5723 B(  3-C ,  5-H ) :   0.9839
B(  4-C , 20-C ) :   1.0675 B(  6-C ,  7-H ) :   0.9299 B(  6-C ,  8-H ) :   0.9424
B(  6-C ,  9-C ) :   1.0538 B(  9-C , 10-H ) :   0.9555 B(  9-C , 11-H ) :   0.9619
B(  9-C , 12-C ) :   1.0819 B( 12-C , 13-H ) :   0.9742 B( 12-C , 14-H ) :   0.9734
B( 12-C , 15-H ) :   0.9745 B( 16-S , 17-C ) :   1.1530 B( 16-S , 20-C ) :   1.1277
B( 17-C , 18-C ) :   1.6234 B( 17-C , 33-H ) :   0.9755 B( 18-C , 19-C ) :   1.2099
B( 18-C , 21-H ) :   0.9991 B( 19-C , 20-C ) :   1.5998 B( 19-C , 22-C ) :   1.0563
B( 22-C , 23-H ) :   0.9422 B( 22-C , 24-H ) :   0.9328 B( 22-C , 25-C ) :   1.0607
B( 25-C , 26-H ) :   0.9595 B( 25-C , 27-H ) :   0.9499 B( 25-C , 28-C ) :   1.0686
B( 28-C , 29-H ) :   0.9716 B( 28-C , 30-H ) :   0.9778 B( 28-C , 31-H ) :   0.9707

Dispersion correction           -0.014500027
FINAL SINGLE POINT ENERGY     -1339.871286597543

DIPOLE MOMENT
-------------
                                X             Y             Z
Electronic contribution:    -26.05769       4.74387     -11.61699
Nuclear contribution   :     26.44269      -4.90185      11.99636
                        -----------------------------------------
Total Dipole Moment    :      0.38500      -0.15798       0.37936
                        -----------------------------------------
Magnitude (a.u.)       :      0.56312
Magnitude (Debye)      :      1.43133

Rotational constants in cm-1:     0.021844     0.008139     0.006413
Rotational constants in MHz :   654.864190   243.990371   192.243828

                             ****ORCA TERMINATED NORMALLY****
TOTAL RUN TIME: 0 days 0 hours 0 minutes 28 seconds 940 msec
