                         Program Version 4.2.1 -  RELEASE  -
|  1> ! wB97X-D3 SP def2-SVP
|  2> %pal
|  3> nprocs 16
|  4> end
|  5>
|  6> * xyz 0 1
|  7> S 	 -31.8556 	 63.5883 	 109.808
|  8> C 	 -32.071 	 64.8387 	 108.515
|  9> C 	 -31.3518 	 66.0059 	 108.756
| 10> C 	 -30.578 	 65.8598 	 110.005
| 11> C 	 -30.7028 	 64.6163 	 110.624
| 12> H 	 -29.9561 	 66.6897 	 110.493
| 13> C 	 -31.5031 	 67.3949 	 108.02
| 14> H 	 -30.7224 	 68.0536 	 108.439
| 15> H 	 -32.426 	 67.7976 	 108.33
| 16> C 	 -31.2413 	 67.6498 	 106.519
| 17> H 	 -31.1119 	 68.6972 	 106.381
| 18> H 	 -30.2298 	 67.2623 	 106.338
| 19> C 	 -32.2035 	 67.0198 	 105.496
| 20> H 	 -32.0713 	 67.3192 	 104.4
| 21> H 	 -32.0646 	 65.9431 	 105.65
| 22> H 	 -33.2149 	 67.203 	 105.838
| 23> S 	 -31.4465 	 64.5538 	 113.18
| 24> C 	 -30.2154 	 64.4732 	 114.421
| 25> C 	 -28.9329 	 64.2764 	 113.925
| 26> C 	 -28.9188 	 64.2172 	 112.459
| 27> C 	 -30.1771 	 64.3934 	 111.953
| 28> H 	 -28.0331 	 64.4817 	 114.491
| 29> C 	 -27.6027 	 64.1475 	 111.656
| 30> H 	 -26.987 	 64.9737 	 112.058
| 31> H 	 -27.8412 	 64.4895 	 110.647
| 32> C 	 -26.9321 	 62.7424 	 111.513
| 33> H 	 -27.6472 	 61.9912 	 111.318
| 34> H 	 -26.4819 	 62.4009 	 112.43
| 35> C 	 -25.8201 	 62.6603 	 110.401
| 36> H 	 -24.7893 	 63.1965 	 110.538
| 37> H 	 -26.152 	 62.8481 	 109.395
| 38> H 	 -25.3129 	 61.7179 	 110.334
| 39> H 	 -32.7433 	 64.7533 	 107.675
| 40> H 	 -30.4393 	 64.3496 	 115.481
| 41> *
| 42>
| 43>                          ****END OF INPUT****

CARTESIAN COORDINATES (ANGSTROEM)
---------------------------------
  S    -31.855600   63.588300  109.808000
  C    -32.071000   64.838700  108.515000
  C    -31.351800   66.005900  108.756000
  C    -30.578000   65.859800  110.005000
  C    -30.702800   64.616300  110.624000
  H    -29.956100   66.689700  110.493000
  C    -31.503100   67.394900  108.020000
  H    -30.722400   68.053600  108.439000
  H    -32.426000   67.797600  108.330000
  C    -31.241300   67.649800  106.519000
  H    -31.111900   68.697200  106.381000
  H    -30.229800   67.262300  106.338000
  C    -32.203500   67.019800  105.496000
  H    -32.071300   67.319200  104.400000
  H    -32.064600   65.943100  105.650000
  H    -33.214900   67.203000  105.838000
  S    -31.446500   64.553800  113.180000
  C    -30.215400   64.473200  114.421000
  C    -28.932900   64.276400  113.925000
  C    -28.918800   64.217200  112.459000
  C    -30.177100   64.393400  111.953000
  H    -28.033100   64.481700  114.491000
  C    -27.602700   64.147500  111.656000
  H    -26.987000   64.973700  112.058000
  H    -27.841200   64.489500  110.647000
  C    -26.932100   62.742400  111.513000
  H    -27.647200   61.991200  111.318000
  H    -26.481900   62.400900  112.430000
  C    -25.820100   62.660300  110.401000
  H    -24.789300   63.196500  110.538000
  H    -26.152000   62.848100  109.395000
  H    -25.312900   61.717900  110.334000
  H    -32.743300   64.753300  107.675000
  H    -30.439300   64.349600  115.481000

 Total Charge           Charge          ....    0
 Multiplicity           Mult            ....    1
 Number of Electrons    NEL             ....  134
 Basis Dimension        Dim             ....  322

ORBITAL ENERGIES
----------------

  NO   OCC          E(Eh)            E(eV)
   0   2.0000     -88.970833     -2421.0194
   1   2.0000     -88.963831     -2420.8289
   2   2.0000     -10.328773      -281.0602
   3   2.0000     -10.324127      -280.9338
   4   2.0000     -10.321290      -280.8566
   5   2.0000     -10.318782      -280.7883
   6   2.0000     -10.313985      -280.6578
   7   2.0000     -10.306438      -280.4524
   8   2.0000     -10.305132      -280.4169
   9   2.0000     -10.299521      -280.2642
  10   2.0000     -10.297689      -280.2144
  11   2.0000     -10.295979      -280.1678
  12   2.0000     -10.290823      -280.0275
  13   2.0000     -10.288542      -279.9655
  14   2.0000     -10.285056      -279.8706
  15   2.0000     -10.282723      -279.8071
  16   2.0000      -8.084427      -219.9884
  17   2.0000      -8.078634      -219.8308
  18   2.0000      -6.043053      -164.4398
  19   2.0000      -6.039187      -164.3346
  20   2.0000      -6.037196      -164.2805
  21   2.0000      -6.035027      -164.2214
  22   2.0000      -6.033198      -164.1717
  23   2.0000      -6.029263      -164.0646
  24   2.0000      -1.001501       -27.2522
  25   2.0000      -0.973101       -26.4794
  26   2.0000      -0.907256       -24.6877
  27   2.0000      -0.897926       -24.4338
  28   2.0000      -0.866920       -23.5901
  29   2.0000      -0.847056       -23.0496
  30   2.0000      -0.841824       -22.9072
  31   2.0000      -0.805040       -21.9063
  32   2.0000      -0.786984       -21.4149
  33   2.0000      -0.774729       -21.0815
  34   2.0000      -0.711372       -19.3574
  35   2.0000      -0.701331       -19.0842
  36   2.0000      -0.693720       -18.8771
  37   2.0000      -0.662583       -18.0298
  38   2.0000      -0.635058       -17.2808
  39   2.0000      -0.606098       -16.4928
  40   2.0000      -0.589731       -16.0474
  41   2.0000      -0.566074       -15.4037
  42   2.0000      -0.555701       -15.1214
  43   2.0000      -0.541211       -14.7271
  44   2.0000      -0.540166       -14.6987
  45   2.0000      -0.519675       -14.1411
  46   2.0000      -0.514915       -14.0116
  47   2.0000      -0.513023       -13.9601
  48   2.0000      -0.503291       -13.6952
  49   2.0000      -0.495668       -13.4878
  50   2.0000      -0.479794       -13.0558
  51   2.0000      -0.478771       -13.0280
  52   2.0000      -0.470050       -12.7907
  53   2.0000      -0.465891       -12.6775
  54   2.0000      -0.455349       -12.3907
  55   2.0000      -0.448631       -12.2079
  56   2.0000      -0.445317       -12.1177
  57   2.0000      -0.434374       -11.8199
  58   2.0000      -0.427479       -11.6323
  59   2.0000      -0.425007       -11.5650
  60   2.0000      -0.422512       -11.4971
  61   2.0000      -0.417064       -11.3489
  62   2.0000      -0.412487       -11.2243
  63   2.0000      -0.336650        -9.1607
  64   2.0000      -0.328626        -8.9424
  65   2.0000      -0.327295        -8.9061
  66   2.0000      -0.305332        -8.3085
  67   0.0000       0.038699         1.0531
  68   0.0000       0.056508         1.5377
  69   0.0000       0.105780         2.8784
  70   0.0000       0.113021         3.0755
  71   0.0000       0.125002         3.4015

MULLIKEN ATOMIC CHARGES
-----------------------
   0 S :    0.113210
   1 C :   -0.130396
   2 C :   -0.069745
   3 C :    0.004249
   4 C :   -0.161925
   5 H :    0.049839
   6 C :    0.037397
   7 H :    0.028555
   8 H :    0.038255
   9 C :   -0.061274
  10 H :    0.023213
  11 H :    0.024845
  12 C :   -0.065969
  13 H :    0.060084
  14 H :    0.032614
  15 H :    0.024456
  16 S :    0.108577
  17 C :   -0.093789
  18 C :   -0.032291
  19 C :   -0.057032
  20 C :   -0.183156
  21 H :    0.030675
  22 C :    0.069285
  23 H :    0.037315
  24 H :    0.018815
  25 C :   -0.006151
  26 H :    0.028163
  27 H :    0.022209
  28 C :   -0.090247
  29 H :    0.031575
  30 H :    0.036207
  31 H :    0.018044
  32 H :    0.048444
  33 H :    0.065951
Sum of atomic charges:   -0.0000000

LOEWDIN ATOMIC CHARGES
----------------------
   0 S :    0.385497
   1 C :   -0.181814
   2 C :   -0.058992
   3 C :   -0.064980
   4 C :   -0.212749
   5 H :    0.044856
   6 C :   -0.026577
   7 H :    0.039007
   8 H :    0.025573
   9 C :   -0.041046
  10 H :    0.020200
  11 H :    0.026312
  12 C :   -0.075908
  13 H :    0.039043
  14 H :    0.026133
  15 H :    0.020048
  16 S :    0.395743
  17 C :   -0.183650
  18 C :   -0.074540
  19 C :   -0.052884
  20 C :   -0.191210
  21 H :    0.032743
  22 C :   -0.030075
  23 H :    0.036033
  24 H :    0.030086
  25 C :   -0.028261
  26 H :    0.025971
  27 H :    0.023335
  28 C :   -0.084490
  29 H :    0.036646
  30 H :    0.021105
  31 H :    0.024133
  32 H :    0.024011
  33 H :    0.030702

  Mayer bond orders larger than 0.100000
B(  0-S ,  1-C ) :   1.1200 B(  0-S ,  4-C ) :   1.1363 B(  1-C ,  2-C ) :   1.6428
B(  1-C , 32-H ) :   0.9665 B(  2-C ,  3-C ) :   1.2282 B(  2-C ,  6-C ) :   0.9931
B(  3-C ,  4-C ) :   1.6046 B(  3-C ,  5-H ) :   0.9732 B(  4-C , 20-C ) :   1.0162
B(  6-C ,  7-H ) :   0.9434 B(  6-C ,  8-H ) :   0.9464 B(  6-C ,  9-C ) :   1.0750
B(  9-C , 10-H ) :   0.9556 B(  9-C , 11-H ) :   0.9566 B(  9-C , 12-C ) :   1.0665
B( 12-C , 13-H ) :   0.9725 B( 12-C , 14-H ) :   0.9732 B( 12-C , 15-H ) :   0.9782
B( 16-S , 17-C ) :   1.1474 B( 16-S , 20-C ) :   1.1302 B( 17-C , 18-C ) :   1.6515
B( 17-C , 33-H ) :   0.9611 B( 18-C , 19-C ) :   1.2039 B( 18-C , 21-H ) :   0.9803
B( 19-C , 20-C ) :   1.6668 B( 19-C , 22-C ) :   1.0370 B( 22-C , 23-H ) :   0.9388
B( 22-C , 24-H ) :   0.9360 B( 22-C , 25-C ) :   1.0492 B( 25-C , 26-H ) :   0.9549
B( 25-C , 27-H ) :   0.9567 B( 25-C , 28-C ) :   1.0759 B( 28-C , 29-H ) :   0.9739
B( 28-C , 30-H ) :   0.9790 B( 28-C , 31-H ) :   0.9714

Dispersion correction           -0.013609109
FINAL SINGLE POINT ENERGY     -1339.853397258945

DIPOLE MOMENT
-------------
                                X             Y             Z
Electronic contribution:    -15.68020      -7.00470      18.31072
Nuclear contribution   :     16.04819       7.44624     -18.46439
                        -----------------------------------------
Total Dipole Moment    :      0.36800       0.44153      -0.15367
                        -----------------------------------------
Magnitude (a.u.)       :      0.59497
Magnitude (Debye)      :      1.51229

Rotational constants in cm-1:     0.018484     0.007510     0.006220
Rotational constants in MHz :   554.135410   225.135171   186.466755

                             ****ORCA TERMINATED NORMALLY****
TOTAL RUN TIME: 0 days 0 hours 0 minutes 25 seconds 989 msec
