                         Program Version 4.2.1 -  RELEASE  -
|  1> ! wB97X-D3 SP def2-SVP
|  2> %pal
|  3> nprocs 16
|  4> end
|  5>
|  6> * xyz 0 1
|  7> S 	 -31.2094 	 32.328 	 45.8858
|  8> C 	 -30.5153 	 30.9981 	 46.726
|  9> C 	 -31.4638 	 30.0893 	 47.1109
| 10> C 	 -32.7765 	 30.5532 	 46.6481
| 11> C 	 -32.8298 	 31.735 	 45.9047
| 12> H 	 -33.708 	 30.0082 	 46.741
| 13> C 	 -31.2185 	 28.7141 	 47.6358
| 14> H 	 -30.1435 	 28.4273 	 47.6476
| 15> H 	 -31.6889 	 27.9639 	 47.0363
| 16> C 	 -31.5769 	 28.483 	 49.1182
| 17> H 	 -32.6596 	 28.3128 	 49.2708
| 18> H 	 -31.1011 	 27.5364 	 49.3566
| 19> C 	 -30.9559 	 29.4631 	 50.0599
| 20> H 	 -29.8821 	 29.4475 	 49.9927
| 21> H 	 -31.2906 	 30.4697 	 49.7824
| 22> H 	 -31.2714 	 29.2117 	 51.0749
| 23> S 	 -34.0205 	 34.2056 	 45.4248
| 24> C 	 -35.532 	 34.3231 	 44.571
| 25> C 	 -35.863 	 33.0944 	 44.1231
| 26> C 	 -35.0996 	 32.0189 	 44.5932
| 27> C 	 -33.981 	 32.4234 	 45.2943
| 28> H 	 -36.8131 	 32.9857 	 43.6008
| 29> C 	 -35.5063 	 30.5591 	 44.1595
| 30> H 	 -36.5533 	 30.6342 	 44.1768
| 31> H 	 -35.153 	 29.8251 	 44.8333
| 32> C 	 -34.9819 	 30.1109 	 42.8312
| 33> H 	 -33.8869 	 30.2222 	 42.8434
| 34> H 	 -35.3932 	 30.7066 	 41.9975
| 35> C 	 -35.3953 	 28.681 	 42.4686
| 36> H 	 -35.1097 	 28.3039 	 41.5181
| 37> H 	 -36.4604 	 28.6572 	 42.4763
| 38> H 	 -35.0346 	 27.9728 	 43.1636
| 39> H 	 -29.3989 	 30.7789 	 46.8865
| 40> H 	 -35.8088 	 35.2596 	 44.2017
| 41> *
| 42>
| 43>                          ****END OF INPUT****

CARTESIAN COORDINATES (ANGSTROEM)
---------------------------------
  S    -31.209400   32.328000   45.885800
  C    -30.515300   30.998100   46.726000
  C    -31.463800   30.089300   47.110900
  C    -32.776500   30.553200   46.648100
  C    -32.829800   31.735000   45.904700
  H    -33.708000   30.008200   46.741000
  C    -31.218500   28.714100   47.635800
  H    -30.143500   28.427300   47.647600
  H    -31.688900   27.963900   47.036300
  C    -31.576900   28.483000   49.118200
  H    -32.659600   28.312800   49.270800
  H    -31.101100   27.536400   49.356600
  C    -30.955900   29.463100   50.059900
  H    -29.882100   29.447500   49.992700
  H    -31.290600   30.469700   49.782400
  H    -31.271400   29.211700   51.074900
  S    -34.020500   34.205600   45.424800
  C    -35.532000   34.323100   44.571000
  C    -35.863000   33.094400   44.123100
  C    -35.099600   32.018900   44.593200
  C    -33.981000   32.423400   45.294300
  H    -36.813100   32.985700   43.600800
  C    -35.506300   30.559100   44.159500
  H    -36.553300   30.634200   44.176800
  H    -35.153000   29.825100   44.833300
  C    -34.981900   30.110900   42.831200
  H    -33.886900   30.222200   42.843400
  H    -35.393200   30.706600   41.997500
  C    -35.395300   28.681000   42.468600
  H    -35.109700   28.303900   41.518100
  H    -36.460400   28.657200   42.476300
  H    -35.034600   27.972800   43.163600
  H    -29.398900   30.778900   46.886500
  H    -35.808800   35.259600   44.201700

 Total Charge           Charge          ....    0
 Multiplicity           Mult            ....    1
 Number of Electrons    NEL             ....  134
 Basis Dimension        Dim             ....  322

ORBITAL ENERGIES
----------------

  NO   OCC          E(Eh)            E(eV)
   0   2.0000     -88.965683     -2420.8793
   1   2.0000     -88.961419     -2420.7633
   2   2.0000     -10.336440      -281.2688
   3   2.0000     -10.334017      -281.2029
   4   2.0000     -10.319728      -280.8141
   5   2.0000     -10.312427      -280.6154
   6   2.0000     -10.306489      -280.4538
   7   2.0000     -10.303707      -280.3781
   8   2.0000     -10.297750      -280.2160
   9   2.0000     -10.292685      -280.0782
  10   2.0000     -10.291356      -280.0420
  11   2.0000     -10.289236      -279.9844
  12   2.0000     -10.284748      -279.8622
  13   2.0000     -10.282400      -279.7983
  14   2.0000     -10.271708      -279.5074
  15   2.0000     -10.269048      -279.4350
  16   2.0000      -8.081243      -219.9018
  17   2.0000      -8.076442      -219.7712
  18   2.0000      -6.039851      -164.3527
  19   2.0000      -6.035443      -164.2328
  20   2.0000      -6.034956      -164.2195
  21   2.0000      -6.031999      -164.1390
  22   2.0000      -6.030838      -164.1075
  23   2.0000      -6.027225      -164.0091
  24   2.0000      -1.010471       -27.4963
  25   2.0000      -0.991707       -26.9857
  26   2.0000      -0.918095       -24.9826
  27   2.0000      -0.914959       -24.8973
  28   2.0000      -0.874106       -23.7856
  29   2.0000      -0.853462       -23.2239
  30   2.0000      -0.843936       -22.9647
  31   2.0000      -0.816219       -22.2105
  32   2.0000      -0.788135       -21.4463
  33   2.0000      -0.781802       -21.2739
  34   2.0000      -0.708972       -19.2921
  35   2.0000      -0.696528       -18.9535
  36   2.0000      -0.691463       -18.8157
  37   2.0000      -0.665643       -18.1131
  38   2.0000      -0.637965       -17.3599
  39   2.0000      -0.621230       -16.9045
  40   2.0000      -0.605874       -16.4867
  41   2.0000      -0.574763       -15.6401
  42   2.0000      -0.572251       -15.5717
  43   2.0000      -0.558094       -15.1865
  44   2.0000      -0.545793       -14.8518
  45   2.0000      -0.528069       -14.3695
  46   2.0000      -0.518743       -14.1157
  47   2.0000      -0.513008       -13.9597
  48   2.0000      -0.506160       -13.7733
  49   2.0000      -0.498456       -13.5637
  50   2.0000      -0.492871       -13.4117
  51   2.0000      -0.489462       -13.3189
  52   2.0000      -0.476146       -12.9566
  53   2.0000      -0.467484       -12.7209
  54   2.0000      -0.463640       -12.6163
  55   2.0000      -0.449418       -12.2293
  56   2.0000      -0.441179       -12.0051
  57   2.0000      -0.435798       -11.8587
  58   2.0000      -0.430665       -11.7190
  59   2.0000      -0.423387       -11.5210
  60   2.0000      -0.419774       -11.4226
  61   2.0000      -0.412652       -11.2288
  62   2.0000      -0.407664       -11.0931
  63   2.0000      -0.357600        -9.7308
  64   2.0000      -0.334381        -9.0990
  65   2.0000      -0.326548        -8.8858
  66   2.0000      -0.296045        -8.0558
  67   0.0000       0.026318         0.7161
  68   0.0000       0.074359         2.0234
  69   0.0000       0.112353         3.0573
  70   0.0000       0.116397         3.1673
  71   0.0000       0.136968         3.7271

MULLIKEN ATOMIC CHARGES
-----------------------
   0 S :    0.112881
   1 C :   -0.137380
   2 C :   -0.079558
   3 C :    0.013344
   4 C :   -0.136704
   5 H :    0.005826
   6 C :    0.055469
   7 H :    0.016813
   8 H :    0.031238
   9 C :   -0.092905
  10 H :    0.033975
  11 H :    0.017467
  12 C :   -0.033644
  13 H :    0.019289
  14 H :    0.043939
  15 H :    0.036631
  16 S :    0.076096
  17 C :   -0.060591
  18 C :   -0.045613
  19 C :   -0.048464
  20 C :   -0.144841
  21 H :    0.024733
  22 C :    0.119074
  23 H :    0.009274
  24 H :    0.001967
  25 C :   -0.080919
  26 H :    0.039359
  27 H :    0.025245
  28 C :   -0.004487
  29 H :    0.024262
  30 H :    0.014053
  31 H :    0.015691
  32 H :    0.078644
  33 H :    0.049838
Sum of atomic charges:   -0.0000000

LOEWDIN ATOMIC CHARGES
----------------------
   0 S :    0.426576
   1 C :   -0.214358
   2 C :   -0.072888
   3 C :   -0.065089
   4 C :   -0.206457
   5 H :    0.023759
   6 C :   -0.032795
   7 H :    0.033533
   8 H :    0.030610
   9 C :   -0.044470
  10 H :    0.021968
  11 H :    0.021897
  12 C :   -0.061720
  13 H :    0.020889
  14 H :    0.027023
  15 H :    0.029331
  16 S :    0.390524
  17 C :   -0.172729
  18 C :   -0.074682
  19 C :   -0.055571
  20 C :   -0.178927
  21 H :    0.033792
  22 C :   -0.015753
  23 H :    0.022945
  24 H :    0.022603
  25 C :   -0.038890
  26 H :    0.028189
  27 H :    0.024608
  28 C :   -0.057404
  29 H :    0.023496
  30 H :    0.021767
  31 H :    0.017202
  32 H :    0.050712
  33 H :    0.020309

  Mayer bond orders larger than 0.100000
B(  0-S ,  1-C ) :   1.1542 B(  0-S ,  4-C ) :   1.1506 B(  1-C ,  2-C ) :   1.6074
B(  1-C , 32-H ) :   0.9514 B(  2-C ,  3-C ) :   1.2267 B(  2-C ,  6-C ) :   1.0338
B(  3-C ,  4-C ) :   1.5778 B(  3-C ,  5-H ) :   0.9951 B(  4-C , 20-C ) :   1.0430
B(  6-C ,  7-H ) :   0.9453 B(  6-C ,  8-H ) :   0.9432 B(  6-C ,  9-C ) :   1.0712
B(  9-C , 10-H ) :   0.9565 B(  9-C , 11-H ) :   0.9566 B(  9-C , 12-C ) :   1.0830
B( 12-C , 13-H ) :   0.9726 B( 12-C , 14-H ) :   0.9704 B( 12-C , 15-H ) :   0.9716
B( 16-S , 17-C ) :   1.1551 B( 16-S , 20-C ) :   1.1452 B( 17-C , 18-C ) :   1.6080
B( 17-C , 20-C ) :   0.1052 B( 17-C , 33-H ) :   0.9711 B( 18-C , 19-C ) :   1.2620
B( 18-C , 21-H ) :   0.9807 B( 19-C , 20-C ) :   1.5982 B( 19-C , 22-C ) :   1.0257
B( 22-C , 23-H ) :   0.9263 B( 22-C , 24-H ) :   0.9357 B( 22-C , 25-C ) :   1.0797
B( 25-C , 26-H ) :   0.9552 B( 25-C , 27-H ) :   0.9527 B( 25-C , 28-C ) :   1.0823
B( 28-C , 29-H ) :   0.9733 B( 28-C , 30-H ) :   0.9726 B( 28-C , 31-H ) :   0.9737

Dispersion correction           -0.013735537
FINAL SINGLE POINT ENERGY     -1339.875816950411

DIPOLE MOMENT
-------------
                                X             Y             Z
Electronic contribution:      3.26413      25.50189      -2.68506
Nuclear contribution   :     -3.48778     -26.19635       2.51121
                        -----------------------------------------
Total Dipole Moment    :     -0.22365      -0.69446      -0.17385
                        -----------------------------------------
Magnitude (a.u.)       :      0.75001
Magnitude (Debye)      :      1.90638

Rotational constants in cm-1:     0.018188     0.008364     0.006571
Rotational constants in MHz :   545.263872   250.736351   196.996344

                             ****ORCA TERMINATED NORMALLY****
TOTAL RUN TIME: 0 days 0 hours 0 minutes 32 seconds 433 msec
