                         Program Version 4.2.1 -  RELEASE  -
|  1> ! wB97X-D3 SP def2-SVP
|  2> %pal
|  3> nprocs 16
|  4> end
|  5>
|  6> * xyz 0 1
|  7> S 	 -29.9634 	 53.4627 	 113.472
|  8> C 	 -30.997 	 54.5661 	 112.603
|  9> C 	 -30.8355 	 54.4476 	 111.251
| 10> C 	 -29.981 	 53.3115 	 110.98
| 11> C 	 -29.3926 	 52.6809 	 112.026
| 12> H 	 -29.7104 	 52.9247 	 110.033
| 13> C 	 -31.4968 	 55.1802 	 110.107
| 14> H 	 -30.9067 	 55.0058 	 109.179
| 15> H 	 -31.4701 	 56.256 	 110.176
| 16> C 	 -32.9219 	 54.6446 	 109.88
| 17> H 	 -32.8257 	 53.58 	 109.604
| 18> H 	 -33.4027 	 54.7747 	 110.874
| 19> C 	 -33.6975 	 55.3731 	 108.763
| 20> H 	 -33.3807 	 55.105 	 107.793
| 21> H 	 -34.7634 	 55.0639 	 108.745
| 22> H 	 -33.819 	 56.492 	 108.871
| 23> S 	 -28.8649 	 50.3683 	 113.392
| 24> C 	 -27.6563 	 49.3605 	 112.851
| 25> C 	 -26.9811 	 49.8968 	 111.73
| 26> C 	 -27.4674 	 51.1447 	 111.318
| 27> C 	 -28.4701 	 51.5568 	 112.159
| 28> H 	 -26.1768 	 49.3749 	 111.297
| 29> C 	 -26.8893 	 51.8425 	 110.1
| 30> H 	 -26.0519 	 52.4325 	 110.518
| 31> H 	 -27.5413 	 52.569 	 109.659
| 32> C 	 -26.3541 	 51.0827 	 108.915
| 33> H 	 -27.1345 	 50.5194 	 108.446
| 34> H 	 -25.7367 	 50.3473 	 109.313
| 35> C 	 -25.6187 	 51.9317 	 107.864
| 36> H 	 -26.147 	 52.8088 	 107.477
| 37> H 	 -25.3268 	 51.3421 	 107.029
| 38> H 	 -24.6466 	 52.2117 	 108.286
| 39> H 	 -31.6691 	 55.1736 	 113.104
| 40> H 	 -27.4539 	 48.3448 	 113.143
| 41> *
| 42>
| 43>                          ****END OF INPUT****

CARTESIAN COORDINATES (ANGSTROEM)
---------------------------------
  S    -29.963400   53.462700  113.472000
  C    -30.997000   54.566100  112.603000
  C    -30.835500   54.447600  111.251000
  C    -29.981000   53.311500  110.980000
  C    -29.392600   52.680900  112.026000
  H    -29.710400   52.924700  110.033000
  C    -31.496800   55.180200  110.107000
  H    -30.906700   55.005800  109.179000
  H    -31.470100   56.256000  110.176000
  C    -32.921900   54.644600  109.880000
  H    -32.825700   53.580000  109.604000
  H    -33.402700   54.774700  110.874000
  C    -33.697500   55.373100  108.763000
  H    -33.380700   55.105000  107.793000
  H    -34.763400   55.063900  108.745000
  H    -33.819000   56.492000  108.871000
  S    -28.864900   50.368300  113.392000
  C    -27.656300   49.360500  112.851000
  C    -26.981100   49.896800  111.730000
  C    -27.467400   51.144700  111.318000
  C    -28.470100   51.556800  112.159000
  H    -26.176800   49.374900  111.297000
  C    -26.889300   51.842500  110.100000
  H    -26.051900   52.432500  110.518000
  H    -27.541300   52.569000  109.659000
  C    -26.354100   51.082700  108.915000
  H    -27.134500   50.519400  108.446000
  H    -25.736700   50.347300  109.313000
  C    -25.618700   51.931700  107.864000
  H    -26.147000   52.808800  107.477000
  H    -25.326800   51.342100  107.029000
  H    -24.646600   52.211700  108.286000
  H    -31.669100   55.173600  113.104000
  H    -27.453900   48.344800  113.143000

 Total Charge           Charge          ....    0
 Multiplicity           Mult            ....    1
 Number of Electrons    NEL             ....  134
 Basis Dimension        Dim             ....  322

ORBITAL ENERGIES
----------------

  NO   OCC          E(Eh)            E(eV)
   0   2.0000     -88.971439     -2421.0359
   1   2.0000     -88.955366     -2420.5986
   2   2.0000     -10.324683      -280.9489
   3   2.0000     -10.321979      -280.8753
   4   2.0000     -10.314138      -280.6620
   5   2.0000     -10.306560      -280.4557
   6   2.0000     -10.303879      -280.3828
   7   2.0000     -10.300521      -280.2914
   8   2.0000     -10.291745      -280.0526
   9   2.0000     -10.291605      -280.0488
  10   2.0000     -10.290653      -280.0229
  11   2.0000     -10.288751      -279.9712
  12   2.0000     -10.284101      -279.8446
  13   2.0000     -10.281356      -279.7699
  14   2.0000     -10.281227      -279.7664
  15   2.0000     -10.281174      -279.7650
  16   2.0000      -8.087367      -220.0685
  17   2.0000      -8.071091      -219.6255
  18   2.0000      -6.045612      -164.5095
  19   2.0000      -6.041652      -164.4017
  20   2.0000      -6.038357      -164.3121
  21   2.0000      -6.029663      -164.0755
  22   2.0000      -6.025353      -163.9582
  23   2.0000      -6.021847      -163.8628
  24   2.0000      -1.014777       -27.6135
  25   2.0000      -0.990236       -26.9457
  26   2.0000      -0.919452       -25.0196
  27   2.0000      -0.910316       -24.7710
  28   2.0000      -0.870186       -23.6790
  29   2.0000      -0.861657       -23.4469
  30   2.0000      -0.840657       -22.8755
  31   2.0000      -0.813345       -22.1322
  32   2.0000      -0.790804       -21.5189
  33   2.0000      -0.776337       -21.1252
  34   2.0000      -0.713010       -19.4020
  35   2.0000      -0.700027       -19.0487
  36   2.0000      -0.696889       -18.9633
  37   2.0000      -0.664381       -18.0787
  38   2.0000      -0.649051       -17.6616
  39   2.0000      -0.621584       -16.9142
  40   2.0000      -0.606635       -16.5074
  41   2.0000      -0.573029       -15.5929
  42   2.0000      -0.569756       -15.5039
  43   2.0000      -0.560871       -15.2621
  44   2.0000      -0.526430       -14.3249
  45   2.0000      -0.520303       -14.1582
  46   2.0000      -0.517683       -14.0869
  47   2.0000      -0.513613       -13.9761
  48   2.0000      -0.506312       -13.7774
  49   2.0000      -0.503447       -13.6995
  50   2.0000      -0.493951       -13.4411
  51   2.0000      -0.486441       -13.2367
  52   2.0000      -0.471642       -12.8340
  53   2.0000      -0.467334       -12.7168
  54   2.0000      -0.464637       -12.6434
  55   2.0000      -0.458243       -12.4694
  56   2.0000      -0.446158       -12.1406
  57   2.0000      -0.437005       -11.8915
  58   2.0000      -0.430164       -11.7054
  59   2.0000      -0.427642       -11.6367
  60   2.0000      -0.421949       -11.4818
  61   2.0000      -0.417065       -11.3489
  62   2.0000      -0.412097       -11.2137
  63   2.0000      -0.351551        -9.5662
  64   2.0000      -0.336504        -9.1567
  65   2.0000      -0.324704        -8.8357
  66   2.0000      -0.287881        -7.8336
  67   0.0000       0.032048         0.8721
  68   0.0000       0.077218         2.1012
  69   0.0000       0.111748         3.0408
  70   0.0000       0.121172         3.2973
  71   0.0000       0.136984         3.7275

MULLIKEN ATOMIC CHARGES
-----------------------
   0 S :    0.075244
   1 C :   -0.105462
   2 C :   -0.048667
   3 C :    0.007406
   4 C :   -0.138687
   5 H :   -0.016991
   6 C :    0.059974
   7 H :    0.017854
   8 H :    0.024891
   9 C :   -0.083922
  10 H :    0.039376
  11 H :    0.034979
  12 C :   -0.041860
  13 H :    0.023119
  14 H :    0.029016
  15 H :    0.038541
  16 S :    0.146332
  17 C :   -0.073020
  18 C :   -0.070046
  19 C :    0.014457
  20 C :   -0.147602
  21 H :   -0.001103
  22 C :    0.065852
  23 H :    0.039108
  24 H :    0.005188
  25 C :   -0.052052
  26 H :    0.021387
  27 H :    0.005200
  28 C :   -0.033088
  29 H :    0.040179
  30 H :    0.024663
  31 H :    0.025957
  32 H :    0.021216
  33 H :    0.052565
Sum of atomic charges:    0.0000000

LOEWDIN ATOMIC CHARGES
----------------------
   0 S :    0.393999
   1 C :   -0.181422
   2 C :   -0.058266
   3 C :   -0.070520
   4 C :   -0.188888
   5 H :    0.018211
   6 C :   -0.035518
   7 H :    0.030952
   8 H :    0.026461
   9 C :   -0.038090
  10 H :    0.031171
  11 H :    0.027080
  12 C :   -0.075402
  13 H :    0.017697
  14 H :    0.031185
  15 H :    0.031190
  16 S :    0.457264
  17 C :   -0.210703
  18 C :   -0.070643
  19 C :   -0.047476
  20 C :   -0.205642
  21 H :    0.019750
  22 C :   -0.031153
  23 H :    0.042394
  24 H :    0.023000
  25 C :   -0.035782
  26 H :    0.021431
  27 H :    0.012579
  28 C :   -0.058245
  29 H :    0.027990
  30 H :    0.025223
  31 H :    0.028193
  32 H :    0.011942
  33 H :    0.030040

  Mayer bond orders larger than 0.100000
B(  0-S ,  1-C ) :   1.1404 B(  0-S ,  4-C ) :   1.1389 B(  1-C ,  2-C ) :   1.6076
B(  1-C , 32-H ) :   0.9843 B(  2-C ,  3-C ) :   1.2185 B(  2-C ,  6-C ) :   1.0275
B(  3-C ,  4-C ) :   1.6271 B(  3-C ,  5-H ) :   0.9933 B(  4-C , 20-C ) :   1.0134
B(  6-C ,  7-H ) :   0.9385 B(  6-C ,  8-H ) :   0.9416 B(  6-C ,  9-C ) :   1.0594
B(  9-C , 10-H ) :   0.9546 B(  9-C , 11-H ) :   0.9608 B(  9-C , 12-C ) :   1.0806
B( 12-C , 13-H ) :   0.9743 B( 12-C , 14-H ) :   0.9711 B( 12-C , 15-H ) :   0.9740
B( 16-S , 17-C ) :   1.1954 B( 16-S , 20-C ) :   1.1578 B( 17-C , 18-C ) :   1.5595
B( 17-C , 20-C ) :   0.1019 B( 17-C , 33-H ) :   0.9669 B( 18-C , 19-C ) :   1.2756
B( 18-C , 21-H ) :   0.9982 B( 19-C , 20-C ) :   1.5768 B( 19-C , 22-C ) :   1.0277
B( 22-C , 23-H ) :   0.9256 B( 22-C , 24-H ) :   0.9378 B( 22-C , 25-C ) :   1.0675
B( 25-C , 26-H ) :   0.9541 B( 25-C , 27-H ) :   0.9446 B( 25-C , 28-C ) :   1.0932
B( 28-C , 29-H ) :   0.9769 B( 28-C , 30-H ) :   0.9710 B( 28-C , 31-H ) :   0.9722

Dispersion correction           -0.013218052
FINAL SINGLE POINT ENERGY     -1339.878017849605

DIPOLE MOMENT
-------------
                                X             Y             Z
Electronic contribution:      1.44260      -9.13577      28.35942
Nuclear contribution   :     -1.32883       9.04010     -29.11818
                        -----------------------------------------
Total Dipole Moment    :      0.11377      -0.09567      -0.75876
                        -----------------------------------------
Magnitude (a.u.)       :      0.77319
Magnitude (Debye)      :      1.96528

Rotational constants in cm-1:     0.016849     0.008215     0.006074
Rotational constants in MHz :   505.109258   246.287716   182.102178

                             ****ORCA TERMINATED NORMALLY****
TOTAL RUN TIME: 0 days 0 hours 0 minutes 28 seconds 644 msec
