                         Program Version 4.2.1 -  RELEASE  -
|  1> ! wB97X-D3 SP def2-SVP
|  2> %pal
|  3> nprocs 16
|  4> end
|  5>
|  6> * xyz 0 1
|  7> S 	 -45.7297 	 28.6844 	 90.3501
|  8> C 	 -45.5551 	 28.6358 	 92.0653
|  9> C 	 -46.2022 	 29.6986 	 92.6346
| 10> C 	 -46.9276 	 30.5178 	 91.711
| 11> C 	 -46.6411 	 30.1919 	 90.3898
| 12> H 	 -47.6124 	 31.3857 	 91.8656
| 13> C 	 -46.2648 	 29.8552 	 94.0788
| 14> H 	 -47.1567 	 29.238 	 94.317
| 15> H 	 -46.4893 	 30.898 	 94.1872
| 16> C 	 -45.0298 	 29.4821 	 94.8962
| 17> H 	 -45.1705 	 28.4587 	 95.1805
| 18> H 	 -44.1624 	 29.6392 	 94.3485
| 19> C 	 -44.9506 	 30.3164 	 96.144
| 20> H 	 -44.3106 	 29.9173 	 96.9478
| 21> H 	 -44.6799 	 31.4044 	 95.9143
| 22> H 	 -45.9268 	 30.4348 	 96.5905
| 23> S 	 -48.3537 	 30.5139 	 88.1494
| 24> C 	 -47.9926 	 31.8228 	 87.1117
| 25> C 	 -47.1176 	 32.6919 	 87.6553
| 26> C 	 -46.3457 	 32.1073 	 88.6946
| 27> C 	 -46.9127 	 30.9202 	 89.1749
| 28> H 	 -47.0063 	 33.6692 	 87.2589
| 29> C 	 -45.2646 	 32.7964 	 89.496
| 30> H 	 -44.6823 	 33.3693 	 88.7664
| 31> H 	 -44.5011 	 32.1145 	 89.8071
| 32> C 	 -45.6948 	 33.6009 	 90.7301
| 33> H 	 -44.8069 	 34.2209 	 91.1592
| 34> H 	 -46.0376 	 32.8699 	 91.5205
| 35> C 	 -46.765 	 34.6029 	 90.2969
| 36> H 	 -46.3616 	 35.4327 	 89.744
| 37> H 	 -47.1611 	 35.1136 	 91.2028
| 38> H 	 -47.5777 	 34.1005 	 89.8635
| 39> H 	 -45.2195 	 27.755 	 92.6842
| 40> H 	 -48.6054 	 31.9316 	 86.2208
| 41> *
| 42>
| 43>                          ****END OF INPUT****

CARTESIAN COORDINATES (ANGSTROEM)
---------------------------------
  S    -45.729700   28.684400   90.350100
  C    -45.555100   28.635800   92.065300
  C    -46.202200   29.698600   92.634600
  C    -46.927600   30.517800   91.711000
  C    -46.641100   30.191900   90.389800
  H    -47.612400   31.385700   91.865600
  C    -46.264800   29.855200   94.078800
  H    -47.156700   29.238000   94.317000
  H    -46.489300   30.898000   94.187200
  C    -45.029800   29.482100   94.896200
  H    -45.170500   28.458700   95.180500
  H    -44.162400   29.639200   94.348500
  C    -44.950600   30.316400   96.144000
  H    -44.310600   29.917300   96.947800
  H    -44.679900   31.404400   95.914300
  H    -45.926800   30.434800   96.590500
  S    -48.353700   30.513900   88.149400
  C    -47.992600   31.822800   87.111700
  C    -47.117600   32.691900   87.655300
  C    -46.345700   32.107300   88.694600
  C    -46.912700   30.920200   89.174900
  H    -47.006300   33.669200   87.258900
  C    -45.264600   32.796400   89.496000
  H    -44.682300   33.369300   88.766400
  H    -44.501100   32.114500   89.807100
  C    -45.694800   33.600900   90.730100
  H    -44.806900   34.220900   91.159200
  H    -46.037600   32.869900   91.520500
  C    -46.765000   34.602900   90.296900
  H    -46.361600   35.432700   89.744000
  H    -47.161100   35.113600   91.202800
  H    -47.577700   34.100500   89.863500
  H    -45.219500   27.755000   92.684200
  H    -48.605400   31.931600   86.220800

 Total Charge           Charge          ....    0
 Multiplicity           Mult            ....    1
 Number of Electrons    NEL             ....  134
 Basis Dimension        Dim             ....  322

ORBITAL ENERGIES
----------------

  NO   OCC          E(Eh)            E(eV)
   0   2.0000     -88.960839     -2420.7475
   1   2.0000     -88.960769     -2420.7456
   2   2.0000     -10.328038      -281.0402
   3   2.0000     -10.326287      -280.9926
   4   2.0000     -10.314085      -280.6605
   5   2.0000     -10.310467      -280.5621
   6   2.0000     -10.304864      -280.4096
   7   2.0000     -10.300891      -280.3015
   8   2.0000     -10.295005      -280.1413
   9   2.0000     -10.294296      -280.1220
  10   2.0000     -10.289559      -279.9931
  11   2.0000     -10.284366      -279.8518
  12   2.0000     -10.284009      -279.8421
  13   2.0000     -10.281721      -279.7798
  14   2.0000     -10.280005      -279.7331
  15   2.0000     -10.269511      -279.4476
  16   2.0000      -8.075966      -219.7582
  17   2.0000      -8.075802      -219.7538
  18   2.0000      -6.034250      -164.2003
  19   2.0000      -6.034222      -164.1995
  20   2.0000      -6.030609      -164.1012
  21   2.0000      -6.030161      -164.0890
  22   2.0000      -6.026747      -163.9961
  23   2.0000      -6.026721      -163.9954
  24   2.0000      -1.007190       -27.4070
  25   2.0000      -0.988920       -26.9099
  26   2.0000      -0.923428       -25.1278
  27   2.0000      -0.909056       -24.7367
  28   2.0000      -0.872211       -23.7341
  29   2.0000      -0.852580       -23.1999
  30   2.0000      -0.845504       -23.0073
  31   2.0000      -0.816541       -22.2192
  32   2.0000      -0.785039       -21.3620
  33   2.0000      -0.766292       -20.8519
  34   2.0000      -0.715153       -19.4603
  35   2.0000      -0.703035       -19.1306
  36   2.0000      -0.686490       -18.6803
  37   2.0000      -0.658589       -17.9211
  38   2.0000      -0.639490       -17.4014
  39   2.0000      -0.607725       -16.5371
  40   2.0000      -0.597932       -16.2705
  41   2.0000      -0.581130       -15.8134
  42   2.0000      -0.572245       -15.5716
  43   2.0000      -0.557614       -15.1735
  44   2.0000      -0.543265       -14.7830
  45   2.0000      -0.525036       -14.2870
  46   2.0000      -0.519698       -14.1417
  47   2.0000      -0.514526       -14.0010
  48   2.0000      -0.504390       -13.7251
  49   2.0000      -0.496825       -13.5193
  50   2.0000      -0.490607       -13.3501
  51   2.0000      -0.478453       -13.0194
  52   2.0000      -0.478082       -13.0093
  53   2.0000      -0.470615       -12.8061
  54   2.0000      -0.450258       -12.2522
  55   2.0000      -0.449812       -12.2400
  56   2.0000      -0.441126       -12.0037
  57   2.0000      -0.434025       -11.8104
  58   2.0000      -0.429446       -11.6858
  59   2.0000      -0.426645       -11.6096
  60   2.0000      -0.417472       -11.3600
  61   2.0000      -0.415104       -11.2955
  62   2.0000      -0.410585       -11.1726
  63   2.0000      -0.333459        -9.0739
  64   2.0000      -0.325968        -8.8700
  65   2.0000      -0.315102        -8.5744
  66   2.0000      -0.310133        -8.4391
  67   0.0000       0.035256         0.9594
  68   0.0000       0.054435         1.4812
  69   0.0000       0.110127         2.9967
  70   0.0000       0.118998         3.2381
  71   0.0000       0.132124         3.5953

MULLIKEN ATOMIC CHARGES
-----------------------
   0 S :    0.118375
   1 C :   -0.126663
   2 C :   -0.154125
   3 C :    0.047558
   4 C :   -0.188420
   5 H :    0.040336
   6 C :    0.054436
   7 H :    0.053839
   8 H :    0.011132
   9 C :   -0.003994
  10 H :    0.024556
  11 H :    0.023786
  12 C :   -0.080800
  13 H :    0.039575
  14 H :    0.039076
  15 H :    0.022034
  16 S :    0.097744
  17 C :   -0.089156
  18 C :   -0.017961
  19 C :   -0.055641
  20 C :   -0.172595
  21 H :    0.012429
  22 C :    0.098219
  23 H :    0.013000
  24 H :    0.022288
  25 C :   -0.100065
  26 H :    0.041447
  27 H :    0.041124
  28 C :   -0.039629
  29 H :    0.028794
  30 H :    0.021513
  31 H :    0.041735
  32 H :    0.072771
  33 H :    0.063282
Sum of atomic charges:    0.0000000

LOEWDIN ATOMIC CHARGES
----------------------
   0 S :    0.414240
   1 C :   -0.221955
   2 C :   -0.075603
   3 C :   -0.062427
   4 C :   -0.195451
   5 H :    0.041923
   6 C :   -0.035842
   7 H :    0.046419
   8 H :    0.025328
   9 C :   -0.034111
  10 H :    0.024842
  11 H :    0.018928
  12 C :   -0.068706
  13 H :    0.027533
  14 H :    0.031991
  15 H :    0.020922
  16 S :    0.390390
  17 C :   -0.182171
  18 C :   -0.074028
  19 C :   -0.044535
  20 C :   -0.193327
  21 H :    0.028200
  22 C :   -0.039763
  23 H :    0.028745
  24 H :    0.031284
  25 C :   -0.042631
  26 H :    0.034491
  27 H :    0.027426
  28 C :   -0.066915
  29 H :    0.024235
  30 H :    0.027574
  31 H :    0.018636
  32 H :    0.045282
  33 H :    0.029074

  Mayer bond orders larger than 0.100000
B(  0-S ,  1-C ) :   1.1359 B(  0-S ,  4-C ) :   1.1658 B(  1-C ,  2-C ) :   1.6072
B(  1-C , 32-H ) :   0.9598 B(  2-C ,  3-C ) :   1.2404 B(  2-C ,  6-C ) :   1.0184
B(  3-C ,  4-C ) :   1.5726 B(  3-C ,  5-H ) :   0.9781 B(  4-C , 20-C ) :   1.0339
B(  6-C ,  7-H ) :   0.9194 B(  6-C ,  8-H ) :   0.9445 B(  6-C ,  9-C ) :   1.0695
B(  9-C , 10-H ) :   0.9403 B(  9-C , 11-H ) :   0.9627 B(  9-C , 12-C ) :   1.0978
B( 12-C , 13-H ) :   0.9727 B( 12-C , 14-H ) :   0.9730 B( 12-C , 15-H ) :   0.9726
B( 16-S , 17-C ) :   1.1765 B( 16-S , 20-C ) :   1.1327 B( 17-C , 18-C ) :   1.5921
B( 17-C , 33-H ) :   0.9673 B( 18-C , 19-C ) :   1.2369 B( 18-C , 21-H ) :   0.9973
B( 19-C , 20-C ) :   1.5788 B( 19-C , 22-C ) :   1.0615 B( 22-C , 23-H ) :   0.9286
B( 22-C , 24-H ) :   0.9207 B( 22-C , 25-C ) :   1.0644 B( 25-C , 26-H ) :   0.9507
B( 25-C , 27-H ) :   0.9480 B( 25-C , 28-C ) :   1.0803 B( 28-C , 29-H ) :   0.9740
B( 28-C , 30-H ) :   0.9693 B( 28-C , 31-H ) :   0.9713

Dispersion correction           -0.015546031
FINAL SINGLE POINT ENERGY     -1339.860200071282

DIPOLE MOMENT
-------------
                                X             Y             Z
Electronic contribution:     -7.98602     -15.20665     -23.30766
Nuclear contribution   :      7.96989      15.64756      23.81439
                        -----------------------------------------
Total Dipole Moment    :     -0.01613       0.44091       0.50672
                        -----------------------------------------
Magnitude (a.u.)       :      0.67188
Magnitude (Debye)      :      1.70779

Rotational constants in cm-1:     0.022577     0.008410     0.006809
Rotational constants in MHz :   676.833395   252.129412   204.119646

                             ****ORCA TERMINATED NORMALLY****
TOTAL RUN TIME: 0 days 0 hours 0 minutes 32 seconds 259 msec
