                         Program Version 4.2.1 -  RELEASE  -
|  1> ! wB97X-D3 SP def2-SVP
|  2> %pal
|  3> nprocs 16
|  4> end
|  5>
|  6> * xyz 0 1
|  7> S 	 -43.3172 	 14.2959 	 74.9708
|  8> C 	 -42.0327 	 15.222 	 74.2974
|  9> C 	 -41.2298 	 14.4122 	 73.4904
| 10> C 	 -41.7538 	 13.064 	 73.4279
| 11> C 	 -42.8186 	 12.8008 	 74.285
| 12> H 	 -41.3513 	 12.173 	 72.9255
| 13> C 	 -40.0319 	 14.8929 	 72.6495
| 14> H 	 -39.2669 	 14.2499 	 72.7842
| 15> H 	 -39.6852 	 15.8224 	 73.0104
| 16> C 	 -40.3886 	 15.0272 	 71.1248
| 17> H 	 -39.5448 	 15.2666 	 70.561
| 18> H 	 -40.7315 	 14.023 	 70.926
| 19> C 	 -41.6021 	 15.9574 	 70.955
| 20> H 	 -41.9194 	 15.8562 	 69.9901
| 21> H 	 -42.4708 	 15.652 	 71.4953
| 22> H 	 -41.4079 	 17.0649 	 71.1016
| 23> S 	 -45.0493 	 11.2137 	 73.5744
| 24> C 	 -45.4433 	 9.80998 	 74.5519
| 25> C 	 -44.4562 	 9.49652 	 75.4041
| 26> C 	 -43.4359 	 10.5445 	 75.4118
| 27> C 	 -43.586 	 11.5577 	 74.4783
| 28> H 	 -44.4064 	 8.61674 	 76.0735
| 29> C 	 -42.2152 	 10.2451 	 76.2835
| 30> H 	 -42.6278 	 10.3892 	 77.3298
| 31> H 	 -41.4367 	 11.0259 	 76.2955
| 32> C 	 -41.495 	 8.85291 	 76.1607
| 33> H 	 -42.1775 	 7.98348 	 76.2052
| 34> H 	 -40.7828 	 8.76034 	 76.941
| 35> C 	 -40.6895 	 8.77458 	 74.8368
| 36> H 	 -40.0016 	 9.60954 	 74.7155
| 37> H 	 -41.4069 	 8.62301 	 74.0229
| 38> H 	 -40.0904 	 7.92125 	 74.9082
| 39> H 	 -42.0258 	 16.2352 	 74.3001
| 40> H 	 -46.3159 	 9.20983 	 74.5675
| 41> *
| 42>
| 43>                          ****END OF INPUT****

CARTESIAN COORDINATES (ANGSTROEM)
---------------------------------
  S    -43.317200   14.295900   74.970800
  C    -42.032700   15.222000   74.297400
  C    -41.229800   14.412200   73.490400
  C    -41.753800   13.064000   73.427900
  C    -42.818600   12.800800   74.285000
  H    -41.351300   12.173000   72.925500
  C    -40.031900   14.892900   72.649500
  H    -39.266900   14.249900   72.784200
  H    -39.685200   15.822400   73.010400
  C    -40.388600   15.027200   71.124800
  H    -39.544800   15.266600   70.561000
  H    -40.731500   14.023000   70.926000
  C    -41.602100   15.957400   70.955000
  H    -41.919400   15.856200   69.990100
  H    -42.470800   15.652000   71.495300
  H    -41.407900   17.064900   71.101600
  S    -45.049300   11.213700   73.574400
  C    -45.443300    9.809980   74.551900
  C    -44.456200    9.496520   75.404100
  C    -43.435900   10.544500   75.411800
  C    -43.586000   11.557700   74.478300
  H    -44.406400    8.616740   76.073500
  C    -42.215200   10.245100   76.283500
  H    -42.627800   10.389200   77.329800
  H    -41.436700   11.025900   76.295500
  C    -41.495000    8.852910   76.160700
  H    -42.177500    7.983480   76.205200
  H    -40.782800    8.760340   76.941000
  C    -40.689500    8.774580   74.836800
  H    -40.001600    9.609540   74.715500
  H    -41.406900    8.623010   74.022900
  H    -40.090400    7.921250   74.908200
  H    -42.025800   16.235200   74.300100
  H    -46.315900    9.209830   74.567500

 Total Charge           Charge          ....    0
 Multiplicity           Mult            ....    1
 Number of Electrons    NEL             ....  134
 Basis Dimension        Dim             ....  322

ORBITAL ENERGIES
----------------

  NO   OCC          E(Eh)            E(eV)
   0   2.0000     -88.964035     -2420.8345
   1   2.0000     -88.962700     -2420.7981
   2   2.0000     -10.329135      -281.0701
   3   2.0000     -10.328669      -281.0574
   4   2.0000     -10.315146      -280.6894
   5   2.0000     -10.308052      -280.4963
   6   2.0000     -10.306409      -280.4517
   7   2.0000     -10.305619      -280.4301
   8   2.0000     -10.297608      -280.2122
   9   2.0000     -10.295327      -280.1501
  10   2.0000     -10.294072      -280.1159
  11   2.0000     -10.290204      -280.0107
  12   2.0000     -10.282963      -279.8136
  13   2.0000     -10.280345      -279.7424
  14   2.0000     -10.271051      -279.4895
  15   2.0000     -10.267579      -279.3950
  16   2.0000      -8.078738      -219.8336
  17   2.0000      -8.078487      -219.8268
  18   2.0000      -6.037492      -164.2885
  19   2.0000      -6.036863      -164.2714
  20   2.0000      -6.033238      -164.1728
  21   2.0000      -6.032562      -164.1544
  22   2.0000      -6.029587      -164.0734
  23   2.0000      -6.029230      -164.0637
  24   2.0000      -1.007059       -27.4035
  25   2.0000      -0.987218       -26.8636
  26   2.0000      -0.910688       -24.7811
  27   2.0000      -0.900630       -24.5074
  28   2.0000      -0.871706       -23.7203
  29   2.0000      -0.844061       -22.9681
  30   2.0000      -0.841735       -22.9048
  31   2.0000      -0.820321       -22.3221
  32   2.0000      -0.787218       -21.4213
  33   2.0000      -0.771094       -20.9825
  34   2.0000      -0.711102       -19.3501
  35   2.0000      -0.700146       -19.0520
  36   2.0000      -0.693546       -18.8723
  37   2.0000      -0.658237       -17.9115
  38   2.0000      -0.648449       -17.6452
  39   2.0000      -0.615451       -16.7473
  40   2.0000      -0.597905       -16.2698
  41   2.0000      -0.577688       -15.7197
  42   2.0000      -0.551445       -15.0056
  43   2.0000      -0.550211       -14.9720
  44   2.0000      -0.547194       -14.8899
  45   2.0000      -0.537220       -14.6185
  46   2.0000      -0.519680       -14.1412
  47   2.0000      -0.513507       -13.9732
  48   2.0000      -0.507892       -13.8204
  49   2.0000      -0.490841       -13.3565
  50   2.0000      -0.485173       -13.2022
  51   2.0000      -0.477807       -13.0018
  52   2.0000      -0.471304       -12.8248
  53   2.0000      -0.466318       -12.6892
  54   2.0000      -0.458153       -12.4670
  55   2.0000      -0.449348       -12.2274
  56   2.0000      -0.446126       -12.1397
  57   2.0000      -0.433743       -11.8027
  58   2.0000      -0.428342       -11.6558
  59   2.0000      -0.424022       -11.5382
  60   2.0000      -0.420834       -11.4515
  61   2.0000      -0.415420       -11.3041
  62   2.0000      -0.410233       -11.1630
  63   2.0000      -0.335773        -9.1368
  64   2.0000      -0.329278        -8.9601
  65   2.0000      -0.318320        -8.6619
  66   2.0000      -0.314538        -8.5590
  67   0.0000       0.045289         1.2324
  68   0.0000       0.056392         1.5345
  69   0.0000       0.112854         3.0709
  70   0.0000       0.125951         3.4273
  71   0.0000       0.135604         3.6900

MULLIKEN ATOMIC CHARGES
-----------------------
   0 S :    0.120373
   1 C :   -0.073084
   2 C :   -0.135766
   3 C :    0.028454
   4 C :   -0.182978
   5 H :    0.022348
   6 C :    0.148543
   7 H :   -0.001704
   8 H :   -0.001363
   9 C :   -0.051715
  10 H :    0.026461
  11 H :    0.022202
  12 C :   -0.033612
  13 H :    0.004462
  14 H :    0.038755
  15 H :    0.035938
  16 S :    0.108775
  17 C :   -0.058707
  18 C :   -0.040816
  19 C :   -0.032130
  20 C :   -0.160312
  21 H :    0.036819
  22 C :    0.014402
  23 H :    0.036468
  24 H :    0.026008
  25 C :   -0.064561
  26 H :    0.028420
  27 H :    0.022514
  28 C :   -0.032470
  29 H :    0.031294
  30 H :    0.043737
  31 H :    0.015608
  32 H :    0.015762
  33 H :    0.041874
Sum of atomic charges:   -0.0000000

LOEWDIN ATOMIC CHARGES
----------------------
   0 S :    0.439245
   1 C :   -0.188298
   2 C :   -0.056714
   3 C :   -0.066850
   4 C :   -0.212170
   5 H :    0.034838
   6 C :   -0.015249
   7 H :    0.013071
   8 H :    0.019751
   9 C :   -0.020870
  10 H :    0.016419
  11 H :    0.024082
  12 C :   -0.063751
  13 H :    0.013784
  14 H :    0.027106
  15 H :    0.030220
  16 S :    0.397606
  17 C :   -0.170810
  18 C :   -0.075932
  19 C :   -0.049886
  20 C :   -0.215160
  21 H :    0.038591
  22 C :   -0.043510
  23 H :    0.037831
  24 H :    0.028844
  25 C :   -0.032332
  26 H :    0.022245
  27 H :    0.019899
  28 C :   -0.058697
  29 H :    0.024771
  30 H :    0.029106
  31 H :    0.016558
  32 H :    0.007844
  33 H :    0.028416

  Mayer bond orders larger than 0.100000
B(  0-S ,  1-C ) :   1.1714 B(  0-S ,  4-C ) :   1.1734 B(  1-C ,  2-C ) :   1.5698
B(  1-C ,  4-C ) :   0.1009 B(  1-C , 32-H ) :   0.9827 B(  2-C ,  3-C ) :   1.2500
B(  2-C ,  6-C ) :   1.0263 B(  3-C ,  4-C ) :   1.5788 B(  3-C ,  5-H ) :   0.9858
B(  4-C , 20-C ) :   1.0147 B(  6-C ,  7-H ) :   0.9363 B(  6-C ,  8-H ) :   0.9390
B(  6-C ,  9-C ) :   1.0634 B(  9-C , 10-H ) :   0.9616 B(  9-C , 11-H ) :   0.9573
B(  9-C , 12-C ) :   1.0794 B( 12-C , 13-H ) :   0.9682 B( 12-C , 14-H ) :   0.9680
B( 12-C , 15-H ) :   0.9760 B( 16-S , 17-C ) :   1.1479 B( 16-S , 20-C ) :   1.1108
B( 17-C , 18-C ) :   1.6369 B( 17-C , 33-H ) :   0.9659 B( 18-C , 19-C ) :   1.2196
B( 18-C , 21-H ) :   0.9830 B( 19-C , 20-C ) :   1.6324 B( 19-C , 22-C ) :   1.0376
B( 22-C , 23-H ) :   0.9302 B( 22-C , 24-H ) :   0.9450 B( 22-C , 25-C ) :   1.0700
B( 25-C , 26-H ) :   0.9552 B( 25-C , 27-H ) :   0.9543 B( 25-C , 28-C ) :   1.0764
B( 28-C , 29-H ) :   0.9750 B( 28-C , 30-H ) :   0.9785 B( 28-C , 31-H ) :   0.9737

Dispersion correction           -0.014936788
FINAL SINGLE POINT ENERGY     -1339.857587852364

DIPOLE MOMENT
-------------
                                X             Y             Z
Electronic contribution:    -18.92016       2.98075       5.62401
Nuclear contribution   :     19.36862      -3.28078      -5.63421
                        -----------------------------------------
Total Dipole Moment    :      0.44846      -0.30003      -0.01020
                        -----------------------------------------
Magnitude (a.u.)       :      0.53967
Magnitude (Debye)      :      1.37172

Rotational constants in cm-1:     0.021168     0.008030     0.007065
Rotational constants in MHz :   634.612517   240.736852   211.802766

                             ****ORCA TERMINATED NORMALLY****
TOTAL RUN TIME: 0 days 0 hours 0 minutes 30 seconds 155 msec
