                         Program Version 4.2.1 -  RELEASE  -
|  1> ! wB97X-D3 SP def2-SVP
|  2> %pal
|  3> nprocs 16
|  4> end
|  5>
|  6> * xyz 0 1
|  7> S 	 67.1119 	 20.5359 	 74.6575
|  8> C 	 68.0502 	 19.6052 	 75.8097
|  9> C 	 69.4122 	 19.5598 	 75.3841
| 10> C 	 69.6839 	 20.4584 	 74.2906
| 11> C 	 68.5842 	 21.1394 	 73.9245
| 12> H 	 70.6181 	 20.766 	 73.9255
| 13> C 	 70.5224 	 18.7851 	 76.1669
| 14> H 	 70.0315 	 17.756 	 76.2051
| 15> H 	 70.6228 	 19.1128 	 77.1917
| 16> C 	 71.8692 	 18.6769 	 75.4833
| 17> H 	 71.8695 	 18.0998 	 74.5176
| 18> H 	 72.2228 	 19.71 	 75.2077
| 19> C 	 72.8682 	 18.0096 	 76.3985
| 20> H 	 72.6064 	 17.0086 	 76.8062
| 21> H 	 73.854 	 17.8316 	 75.8419
| 22> H 	 73.0709 	 18.5965 	 77.2895
| 23> S 	 67.7432 	 21.3909 	 71.1635
| 24> C 	 68.607 	 22.6242 	 70.2803
| 25> C 	 69.4133 	 23.4173 	 71.0659
| 26> C 	 69.413 	 23.0956 	 72.4535
| 27> C 	 68.5634 	 22.003 	 72.7088
| 28> H 	 69.9136 	 24.2175 	 70.5912
| 29> C 	 70.2289 	 23.8802 	 73.5077
| 30> H 	 71.1183 	 24.2609 	 73.1049
| 31> H 	 70.3798 	 23.3174 	 74.3952
| 32> C 	 69.4539 	 25.1434 	 74.0492
| 33> H 	 69.7589 	 25.4957 	 75.0818
| 34> H 	 68.4918 	 24.808 	 74.245
| 35> C 	 69.2947 	 26.3632 	 73.0858
| 36> H 	 68.9509 	 27.2824 	 73.6325
| 37> H 	 68.7259 	 26.0669 	 72.2716
| 38> H 	 70.2786 	 26.6429 	 72.7705
| 39> H 	 67.5825 	 19.013 	 76.6092
| 40> H 	 68.5179 	 22.7965 	 69.2298
| 41> *
| 42>
| 43>                          ****END OF INPUT****

CARTESIAN COORDINATES (ANGSTROEM)
---------------------------------
  S     67.111900   20.535900   74.657500
  C     68.050200   19.605200   75.809700
  C     69.412200   19.559800   75.384100
  C     69.683900   20.458400   74.290600
  C     68.584200   21.139400   73.924500
  H     70.618100   20.766000   73.925500
  C     70.522400   18.785100   76.166900
  H     70.031500   17.756000   76.205100
  H     70.622800   19.112800   77.191700
  C     71.869200   18.676900   75.483300
  H     71.869500   18.099800   74.517600
  H     72.222800   19.710000   75.207700
  C     72.868200   18.009600   76.398500
  H     72.606400   17.008600   76.806200
  H     73.854000   17.831600   75.841900
  H     73.070900   18.596500   77.289500
  S     67.743200   21.390900   71.163500
  C     68.607000   22.624200   70.280300
  C     69.413300   23.417300   71.065900
  C     69.413000   23.095600   72.453500
  C     68.563400   22.003000   72.708800
  H     69.913600   24.217500   70.591200
  C     70.228900   23.880200   73.507700
  H     71.118300   24.260900   73.104900
  H     70.379800   23.317400   74.395200
  C     69.453900   25.143400   74.049200
  H     69.758900   25.495700   75.081800
  H     68.491800   24.808000   74.245000
  C     69.294700   26.363200   73.085800
  H     68.950900   27.282400   73.632500
  H     68.725900   26.066900   72.271600
  H     70.278600   26.642900   72.770500
  H     67.582500   19.013000   76.609200
  H     68.517900   22.796500   69.229800

 Total Charge           Charge          ....    0
 Multiplicity           Mult            ....    1
 Number of Electrons    NEL             ....  134
 Basis Dimension        Dim             ....  322

ORBITAL ENERGIES
----------------

  NO   OCC          E(Eh)            E(eV)
   0   2.0000     -88.968350     -2420.9519
   1   2.0000     -88.966075     -2420.8900
   2   2.0000     -10.334941      -281.2280
   3   2.0000     -10.325909      -280.9823
   4   2.0000     -10.320252      -280.8283
   5   2.0000     -10.316051      -280.7140
   6   2.0000     -10.310444      -280.5614
   7   2.0000     -10.310003      -280.5494
   8   2.0000     -10.298528      -280.2372
   9   2.0000     -10.295015      -280.1416
  10   2.0000     -10.292469      -280.0723
  11   2.0000     -10.290129      -280.0086
  12   2.0000     -10.289691      -279.9967
  13   2.0000     -10.285062      -279.8708
  14   2.0000     -10.282337      -279.7966
  15   2.0000     -10.272106      -279.5182
  16   2.0000      -8.081602      -219.9116
  17   2.0000      -8.080798      -219.8897
  18   2.0000      -6.040185      -164.3618
  19   2.0000      -6.039236      -164.3360
  20   2.0000      -6.036451      -164.2602
  21   2.0000      -6.035348      -164.2302
  22   2.0000      -6.032231      -164.1453
  23   2.0000      -6.031609      -164.1284
  24   2.0000      -1.000665       -27.2295
  25   2.0000      -0.976549       -26.5733
  26   2.0000      -0.910900       -24.7869
  27   2.0000      -0.902149       -24.5487
  28   2.0000      -0.865541       -23.5526
  29   2.0000      -0.849149       -23.1065
  30   2.0000      -0.843173       -22.9439
  31   2.0000      -0.812641       -22.1131
  32   2.0000      -0.786118       -21.3914
  33   2.0000      -0.766940       -20.8695
  34   2.0000      -0.708058       -19.2672
  35   2.0000      -0.695696       -18.9308
  36   2.0000      -0.685415       -18.6511
  37   2.0000      -0.654617       -17.8130
  38   2.0000      -0.645299       -17.5595
  39   2.0000      -0.619395       -16.8546
  40   2.0000      -0.596357       -16.2277
  41   2.0000      -0.570702       -15.5296
  42   2.0000      -0.560547       -15.2533
  43   2.0000      -0.549049       -14.9404
  44   2.0000      -0.545851       -14.8534
  45   2.0000      -0.522684       -14.2230
  46   2.0000      -0.511069       -13.9069
  47   2.0000      -0.505900       -13.7662
  48   2.0000      -0.499820       -13.6008
  49   2.0000      -0.496154       -13.5010
  50   2.0000      -0.487041       -13.2531
  51   2.0000      -0.478848       -13.0301
  52   2.0000      -0.476263       -12.9598
  53   2.0000      -0.467854       -12.7310
  54   2.0000      -0.456298       -12.4165
  55   2.0000      -0.452422       -12.3110
  56   2.0000      -0.443133       -12.0583
  57   2.0000      -0.437698       -11.9104
  58   2.0000      -0.428793       -11.6680
  59   2.0000      -0.427187       -11.6244
  60   2.0000      -0.415757       -11.3133
  61   2.0000      -0.414788       -11.2869
  62   2.0000      -0.412891       -11.2353
  63   2.0000      -0.345273        -9.3953
  64   2.0000      -0.334232        -9.0949
  65   2.0000      -0.324110        -8.8195
  66   2.0000      -0.292902        -7.9703
  67   0.0000       0.030899         0.8408
  68   0.0000       0.054697         1.4884
  69   0.0000       0.109264         2.9732
  70   0.0000       0.116378         3.1668
  71   0.0000       0.127562         3.4711

MULLIKEN ATOMIC CHARGES
-----------------------
   0 S :    0.103422
   1 C :   -0.128401
   2 C :   -0.085215
   3 C :    0.056903
   4 C :   -0.165350
   5 H :    0.002694
   6 C :    0.028999
   7 H :    0.041932
   8 H :    0.043176
   9 C :   -0.094548
  10 H :    0.045195
  11 H :    0.039186
  12 C :   -0.065628
  13 H :    0.031610
  14 H :    0.041508
  15 H :    0.029420
  16 S :    0.100666
  17 C :   -0.087623
  18 C :   -0.022462
  19 C :   -0.059822
  20 C :   -0.143051
  21 H :    0.003026
  22 C :    0.142120
  23 H :    0.011337
  24 H :    0.022682
  25 C :   -0.096184
  26 H :    0.031015
  27 H :    0.010137
  28 C :   -0.031975
  29 H :    0.042659
  30 H :    0.033773
  31 H :    0.009441
  32 H :    0.060495
  33 H :    0.048865
Sum of atomic charges:    0.0000000

LOEWDIN ATOMIC CHARGES
----------------------
   0 S :    0.401649
   1 C :   -0.203133
   2 C :   -0.055561
   3 C :   -0.055460
   4 C :   -0.193096
   5 H :    0.026424
   6 C :   -0.039167
   7 H :    0.042315
   8 H :    0.030987
   9 C :   -0.053698
  10 H :    0.033614
  11 H :    0.027661
  12 C :   -0.073168
  13 H :    0.026657
  14 H :    0.034317
  15 H :    0.021700
  16 S :    0.366537
  17 C :   -0.177634
  18 C :   -0.072865
  19 C :   -0.048785
  20 C :   -0.168927
  21 H :    0.024745
  22 C :   -0.014166
  23 H :    0.020570
  24 H :    0.030050
  25 C :   -0.037320
  26 H :    0.027970
  27 H :    0.012717
  28 C :   -0.061251
  29 H :    0.036610
  30 H :    0.015821
  31 H :    0.015959
  32 H :    0.032054
  33 H :    0.025871

  Mayer bond orders larger than 0.100000
B(  0-S ,  1-C ) :   1.1418 B(  0-S ,  4-C ) :   1.1511 B(  1-C ,  2-C ) :   1.6001
B(  1-C , 32-H ) :   0.9744 B(  2-C ,  3-C ) :   1.2359 B(  2-C ,  6-C ) :   0.9887
B(  3-C ,  4-C ) :   1.5847 B(  3-C ,  5-H ) :   0.9984 B(  4-C , 20-C ) :   1.0065
B(  6-C ,  7-H ) :   0.9377 B(  6-C ,  8-H ) :   0.9524 B(  6-C ,  9-C ) :   1.0816
B(  9-C , 10-H ) :   0.9529 B(  9-C , 11-H ) :   0.9439 B(  9-C , 12-C ) :   1.0884
B( 12-C , 13-H ) :   0.9732 B( 12-C , 14-H ) :   0.9722 B( 12-C , 15-H ) :   0.9732
B( 16-S , 17-C ) :   1.1467 B( 16-S , 20-C ) :   1.1187 B( 17-C , 18-C ) :   1.6386
B( 17-C , 33-H ) :   0.9647 B( 18-C , 19-C ) :   1.2191 B( 18-C , 21-H ) :   0.9941
B( 19-C , 20-C ) :   1.6211 B( 19-C , 22-C ) :   1.0478 B( 22-C , 23-H ) :   0.9415
B( 22-C , 24-H ) :   0.9254 B( 22-C , 25-C ) :   1.0585 B( 25-C , 26-H ) :   0.9613
B( 25-C , 27-H ) :   0.9540 B( 25-C , 28-C ) :   1.0754 B( 28-C , 29-H ) :   0.9729
B( 28-C , 30-H ) :   0.9762 B( 28-C , 31-H ) :   0.9770

Dispersion correction           -0.014102953
FINAL SINGLE POINT ENERGY     -1339.859916380823

DIPOLE MOMENT
-------------
                                X             Y             Z
Electronic contribution:    -21.36121      -5.91798     -11.67510
Nuclear contribution   :     21.98959       5.95494      11.90160
                        -----------------------------------------
Total Dipole Moment    :      0.62838       0.03696       0.22649
                        -----------------------------------------
Magnitude (a.u.)       :      0.66898
Magnitude (Debye)      :      1.70041

Rotational constants in cm-1:     0.018017     0.007773     0.006946
Rotational constants in MHz :   540.150851   233.028948   208.241026

                             ****ORCA TERMINATED NORMALLY****
TOTAL RUN TIME: 0 days 0 hours 0 minutes 27 seconds 720 msec
