                         Program Version 4.2.1 -  RELEASE  -
|  1> ! wB97X-D3 SP def2-SVP
|  2> %pal
|  3> nprocs 16
|  4> end
|  5>
|  6> * xyz 0 1
|  7> S 	 11.9661 	 23.4619 	 46.6446
|  8> C 	 11.6469 	 21.7809 	 47.112
|  9> C 	 12.3483 	 20.8434 	 46.3375
| 10> C 	 13.2117 	 21.565 	 45.4345
| 11> C 	 13.2087 	 22.9529 	 45.5538
| 12> H 	 13.8791 	 21.175 	 44.7071
| 13> C 	 12.2445 	 19.3029 	 46.2647
| 14> H 	 12.9309 	 18.9309 	 45.5307
| 15> H 	 11.2827 	 19.0462 	 45.9167
| 16> C 	 12.5269 	 18.4265 	 47.4791
| 17> H 	 11.8087 	 18.5562 	 48.3066
| 18> H 	 12.4796 	 17.3971 	 47.1194
| 19> C 	 13.8611 	 18.5401 	 48.029
| 20> H 	 14.68 	 18.4265 	 47.3842
| 21> H 	 13.9564 	 19.5246 	 48.4863
| 22> H 	 14.1051 	 17.9184 	 48.7783
| 23> S 	 15.2057 	 24.9416 	 45.9706
| 24> C 	 15.9384 	 25.6787 	 44.6158
| 25> C 	 15.5012 	 25.1539 	 43.4255
| 26> C 	 14.5075 	 24.1194 	 43.5795
| 27> C 	 14.1619 	 23.881 	 44.9189
| 28> H 	 15.7544 	 25.6165 	 42.502
| 29> C 	 13.9286 	 23.4701 	 42.3815
| 30> H 	 13.7439 	 22.3866 	 42.6045
| 31> H 	 14.659 	 23.4341 	 41.5127
| 32> C 	 12.5961 	 23.9844 	 41.9285
| 33> H 	 12.5173 	 25.024 	 41.4789
| 34> H 	 11.7408 	 24.0564 	 42.6673
| 35> C 	 12.0096 	 23.0677 	 40.859
| 36> H 	 11.2178 	 23.5861 	 40.3543
| 37> H 	 11.5925 	 22.1911 	 41.358
| 38> H 	 12.7061 	 22.8146 	 40.0594
| 39> H 	 11.0606 	 21.5146 	 48.0083
| 40> H 	 16.6237 	 26.4892 	 44.6168
| 41> *
| 42>
| 43>                          ****END OF INPUT****

CARTESIAN COORDINATES (ANGSTROEM)
---------------------------------
  S     11.966100   23.461900   46.644600
  C     11.646900   21.780900   47.112000
  C     12.348300   20.843400   46.337500
  C     13.211700   21.565000   45.434500
  C     13.208700   22.952900   45.553800
  H     13.879100   21.175000   44.707100
  C     12.244500   19.302900   46.264700
  H     12.930900   18.930900   45.530700
  H     11.282700   19.046200   45.916700
  C     12.526900   18.426500   47.479100
  H     11.808700   18.556200   48.306600
  H     12.479600   17.397100   47.119400
  C     13.861100   18.540100   48.029000
  H     14.680000   18.426500   47.384200
  H     13.956400   19.524600   48.486300
  H     14.105100   17.918400   48.778300
  S     15.205700   24.941600   45.970600
  C     15.938400   25.678700   44.615800
  C     15.501200   25.153900   43.425500
  C     14.507500   24.119400   43.579500
  C     14.161900   23.881000   44.918900
  H     15.754400   25.616500   42.502000
  C     13.928600   23.470100   42.381500
  H     13.743900   22.386600   42.604500
  H     14.659000   23.434100   41.512700
  C     12.596100   23.984400   41.928500
  H     12.517300   25.024000   41.478900
  H     11.740800   24.056400   42.667300
  C     12.009600   23.067700   40.859000
  H     11.217800   23.586100   40.354300
  H     11.592500   22.191100   41.358000
  H     12.706100   22.814600   40.059400
  H     11.060600   21.514600   48.008300
  H     16.623700   26.489200   44.616800

 Total Charge           Charge          ....    0
 Multiplicity           Mult            ....    1
 Number of Electrons    NEL             ....  134
 Basis Dimension        Dim             ....  322

ORBITAL ENERGIES
----------------

  NO   OCC          E(Eh)            E(eV)
   0   2.0000     -88.969124     -2420.9730
   1   2.0000     -88.964599     -2420.8498
   2   2.0000     -10.332708      -281.1673
   3   2.0000     -10.329058      -281.0680
   4   2.0000     -10.321096      -280.8513
   5   2.0000     -10.312529      -280.6182
   6   2.0000     -10.310549      -280.5643
   7   2.0000     -10.305061      -280.4150
   8   2.0000     -10.297244      -280.2022
   9   2.0000     -10.293068      -280.0886
  10   2.0000     -10.291812      -280.0544
  11   2.0000     -10.288220      -279.9567
  12   2.0000     -10.288211      -279.9565
  13   2.0000     -10.282929      -279.8127
  14   2.0000     -10.270739      -279.4810
  15   2.0000     -10.253899      -279.0228
  16   2.0000      -8.083633      -219.9668
  17   2.0000      -8.079006      -219.8409
  18   2.0000      -6.042062      -164.4129
  19   2.0000      -6.038213      -164.3081
  20   2.0000      -6.037576      -164.2908
  21   2.0000      -6.034442      -164.2055
  22   2.0000      -6.033467      -164.1790
  23   2.0000      -6.029797      -164.0791
  24   2.0000      -1.000638       -27.2287
  25   2.0000      -0.980702       -26.6862
  26   2.0000      -0.921022       -25.0623
  27   2.0000      -0.914093       -24.8737
  28   2.0000      -0.868663       -23.6375
  29   2.0000      -0.854645       -23.2561
  30   2.0000      -0.847353       -23.0577
  31   2.0000      -0.811927       -22.0937
  32   2.0000      -0.792130       -21.5550
  33   2.0000      -0.772568       -21.0226
  34   2.0000      -0.704320       -19.1655
  35   2.0000      -0.700707       -19.0672
  36   2.0000      -0.686117       -18.6702
  37   2.0000      -0.659786       -17.9537
  38   2.0000      -0.641725       -17.4622
  39   2.0000      -0.613958       -16.7067
  40   2.0000      -0.600126       -16.3303
  41   2.0000      -0.581897       -15.8342
  42   2.0000      -0.564521       -15.3614
  43   2.0000      -0.560163       -15.2428
  44   2.0000      -0.546842       -14.8803
  45   2.0000      -0.527281       -14.3481
  46   2.0000      -0.514678       -14.0051
  47   2.0000      -0.510693       -13.8967
  48   2.0000      -0.506004       -13.7691
  49   2.0000      -0.497133       -13.5277
  50   2.0000      -0.487436       -13.2638
  51   2.0000      -0.479750       -13.0547
  52   2.0000      -0.475804       -12.9473
  53   2.0000      -0.465889       -12.6775
  54   2.0000      -0.455978       -12.4078
  55   2.0000      -0.448568       -12.2062
  56   2.0000      -0.441526       -12.0145
  57   2.0000      -0.440512       -11.9869
  58   2.0000      -0.435522       -11.8511
  59   2.0000      -0.423453       -11.5227
  60   2.0000      -0.418163       -11.3788
  61   2.0000      -0.412839       -11.2339
  62   2.0000      -0.403990       -10.9931
  63   2.0000      -0.338065        -9.1992
  64   2.0000      -0.332564        -9.0495
  65   2.0000      -0.327591        -8.9142
  66   2.0000      -0.294756        -8.0207
  67   0.0000       0.027669         0.7529
  68   0.0000       0.066673         1.8143
  69   0.0000       0.106110         2.8874
  70   0.0000       0.117707         3.2030
  71   0.0000       0.135920         3.6986

MULLIKEN ATOMIC CHARGES
-----------------------
   0 S :    0.123470
   1 C :   -0.152968
   2 C :   -0.066640
   3 C :    0.036611
   4 C :   -0.179128
   5 H :    0.000197
   6 C :    0.113182
   7 H :    0.009463
   8 H :    0.029649
   9 C :   -0.078187
  10 H :    0.029927
  11 H :    0.023439
  12 C :    0.011950
  13 H :    0.005231
  14 H :    0.021044
  15 H :   -0.002730
  16 S :    0.106090
  17 C :   -0.063804
  18 C :   -0.030370
  19 C :    0.001873
  20 C :   -0.160814
  21 H :    0.008165
  22 C :    0.045906
  23 H :    0.020435
  24 H :    0.038818
  25 C :   -0.107018
  26 H :    0.029237
  27 H :    0.040746
  28 C :   -0.044988
  29 H :    0.020639
  30 H :    0.038674
  31 H :    0.024620
  32 H :    0.062774
  33 H :    0.044509
Sum of atomic charges:   -0.0000000

LOEWDIN ATOMIC CHARGES
----------------------
   0 S :    0.411434
   1 C :   -0.196983
   2 C :   -0.057263
   3 C :   -0.056924
   4 C :   -0.208616
   5 H :    0.022834
   6 C :   -0.020656
   7 H :    0.030183
   8 H :    0.030574
   9 C :   -0.040211
  10 H :    0.025357
  11 H :    0.027880
  12 C :   -0.060631
  13 H :    0.018970
  14 H :    0.029193
  15 H :    0.012494
  16 S :    0.397029
  17 C :   -0.186564
  18 C :   -0.073171
  19 C :   -0.048856
  20 C :   -0.185185
  21 H :    0.026412
  22 C :   -0.043925
  23 H :    0.036780
  24 H :    0.040698
  25 C :   -0.052020
  26 H :    0.025770
  27 H :    0.033997
  28 C :   -0.064937
  29 H :    0.022472
  30 H :    0.025061
  31 H :    0.020582
  32 H :    0.031936
  33 H :    0.026288

  Mayer bond orders larger than 0.100000
B(  0-S ,  1-C ) :   1.1472 B(  0-S ,  4-C ) :   1.1521 B(  1-C ,  2-C ) :   1.5947
B(  1-C , 32-H ) :   0.9654 B(  2-C ,  3-C ) :   1.2434 B(  2-C ,  6-C ) :   1.0038
B(  3-C ,  4-C ) :   1.5823 B(  3-C ,  5-H ) :   0.9908 B(  4-C , 20-C ) :   1.0409
B(  6-C ,  7-H ) :   0.9396 B(  6-C ,  8-H ) :   0.9358 B(  6-C ,  9-C ) :   1.0862
B(  9-C , 10-H ) :   0.9531 B(  9-C , 11-H ) :   0.9502 B(  9-C , 12-C ) :   1.0990
B( 12-C , 13-H ) :   0.9668 B( 12-C , 14-H ) :   0.9642 B( 12-C , 15-H ) :   0.9636
B( 16-S , 17-C ) :   1.1657 B( 16-S , 20-C ) :   1.1195 B( 17-C , 18-C ) :   1.6106
B( 17-C , 33-H ) :   0.9660 B( 18-C , 19-C ) :   1.2433 B( 18-C , 21-H ) :   0.9927
B( 19-C , 20-C ) :   1.5906 B( 19-C , 22-C ) :   1.0534 B( 22-C , 23-H ) :   0.9281
B( 22-C , 24-H ) :   0.9322 B( 22-C , 25-C ) :   1.0602 B( 25-C , 26-H ) :   0.9566
B( 25-C , 27-H ) :   0.9560 B( 25-C , 28-C ) :   1.0815 B( 28-C , 29-H ) :   0.9737
B( 28-C , 30-H ) :   0.9767 B( 28-C , 31-H ) :   0.9723

Dispersion correction           -0.013978122
FINAL SINGLE POINT ENERGY     -1339.863122875455

DIPOLE MOMENT
-------------
                                X             Y             Z
Electronic contribution:      4.76030      19.91429      11.15376
Nuclear contribution   :     -4.76897     -20.34980     -11.52397
                        -----------------------------------------
Total Dipole Moment    :     -0.00867      -0.43551      -0.37021
                        -----------------------------------------
Magnitude (a.u.)       :      0.57166
Magnitude (Debye)      :      1.45306

Rotational constants in cm-1:     0.018231     0.008212     0.006888
Rotational constants in MHz :   546.544848   246.181280   206.505094

                             ****ORCA TERMINATED NORMALLY****
TOTAL RUN TIME: 0 days 0 hours 0 minutes 34 seconds 574 msec
