                         Program Version 4.2.1 -  RELEASE  -
|  1> ! wB97X-D3 SP def2-SVP
|  2> %pal
|  3> nprocs 16
|  4> end
|  5>
|  6> * xyz 0 1
|  7> S 	 -8.88464 	 70.9777 	 48.8747
|  8> C 	 -9.36231 	 70.1442 	 47.4223
|  9> C 	 -10.6922 	 69.7255 	 47.5082
| 10> C 	 -11.305 	 70.1087 	 48.7686
| 11> C 	 -10.4951 	 70.9543 	 49.5412
| 12> H 	 -12.3199 	 69.8571 	 49.152
| 13> C 	 -11.3202 	 68.7201 	 46.5831
| 14> H 	 -12.1115 	 68.2686 	 47.1966
| 15> H 	 -10.5539 	 67.9496 	 46.5066
| 16> C 	 -11.6887 	 69.1983 	 45.1402
| 17> H 	 -12.5368 	 69.9092 	 45.1177
| 18> H 	 -10.8563 	 69.8254 	 44.6929
| 19> C 	 -12.1 	 68.0381 	 44.2366
| 20> H 	 -13.0544 	 67.5321 	 44.4187
| 21> H 	 -12.2374 	 68.2958 	 43.2253
| 22> H 	 -11.2979 	 67.2923 	 44.1753
| 23> S 	 -10.0069 	 71.1275 	 52.236
| 24> C 	 -10.9211 	 72.2783 	 53.259
| 25> C 	 -11.8808 	 72.959 	 52.5313
| 26> C 	 -11.9269 	 72.5095 	 51.14
| 27> C 	 -10.8793 	 71.5998 	 50.804
| 28> H 	 -12.4469 	 73.7081 	 53.1163
| 29> C 	 -12.987 	 72.9685 	 50.1746
| 30> H 	 -13.4744 	 72.0044 	 49.8792
| 31> H 	 -12.4992 	 73.3149 	 49.2806
| 32> C 	 -14.064 	 73.9986 	 50.7628
| 33> H 	 -13.526 	 74.958 	 50.9521
| 34> H 	 -14.5812 	 73.5978 	 51.7022
| 35> C 	 -15.01 	 74.2988 	 49.645
| 36> H 	 -15.8255 	 75.0012 	 49.9635
| 37> H 	 -15.4728 	 73.4091 	 49.348
| 38> H 	 -14.4216 	 74.9099 	 48.9176
| 39> H 	 -8.7842 	 69.8762 	 46.6312
| 40> H 	 -10.6368 	 72.4763 	 54.2681
| 41> *
| 42>
| 43>                          ****END OF INPUT****

CARTESIAN COORDINATES (ANGSTROEM)
---------------------------------
  S     -8.884640   70.977700   48.874700
  C     -9.362310   70.144200   47.422300
  C    -10.692200   69.725500   47.508200
  C    -11.305000   70.108700   48.768600
  C    -10.495100   70.954300   49.541200
  H    -12.319900   69.857100   49.152000
  C    -11.320200   68.720100   46.583100
  H    -12.111500   68.268600   47.196600
  H    -10.553900   67.949600   46.506600
  C    -11.688700   69.198300   45.140200
  H    -12.536800   69.909200   45.117700
  H    -10.856300   69.825400   44.692900
  C    -12.100000   68.038100   44.236600
  H    -13.054400   67.532100   44.418700
  H    -12.237400   68.295800   43.225300
  H    -11.297900   67.292300   44.175300
  S    -10.006900   71.127500   52.236000
  C    -10.921100   72.278300   53.259000
  C    -11.880800   72.959000   52.531300
  C    -11.926900   72.509500   51.140000
  C    -10.879300   71.599800   50.804000
  H    -12.446900   73.708100   53.116300
  C    -12.987000   72.968500   50.174600
  H    -13.474400   72.004400   49.879200
  H    -12.499200   73.314900   49.280600
  C    -14.064000   73.998600   50.762800
  H    -13.526000   74.958000   50.952100
  H    -14.581200   73.597800   51.702200
  C    -15.010000   74.298800   49.645000
  H    -15.825500   75.001200   49.963500
  H    -15.472800   73.409100   49.348000
  H    -14.421600   74.909900   48.917600
  H     -8.784200   69.876200   46.631200
  H    -10.636800   72.476300   54.268100

 Total Charge           Charge          ....    0
 Multiplicity           Mult            ....    1
 Number of Electrons    NEL             ....  134
 Basis Dimension        Dim             ....  322

ORBITAL ENERGIES
----------------

  NO   OCC          E(Eh)            E(eV)
   0   2.0000     -88.968553     -2420.9574
   1   2.0000     -88.961718     -2420.7714
   2   2.0000     -10.331281      -281.1285
   3   2.0000     -10.328054      -281.0406
   4   2.0000     -10.317084      -280.7421
   5   2.0000     -10.311686      -280.5952
   6   2.0000     -10.308629      -280.5121
   7   2.0000     -10.302634      -280.3489
   8   2.0000     -10.300603      -280.2936
   9   2.0000     -10.300412      -280.2885
  10   2.0000     -10.299073      -280.2520
  11   2.0000     -10.297875      -280.2194
  12   2.0000     -10.294671      -280.1322
  13   2.0000     -10.293981      -280.1135
  14   2.0000     -10.277678      -279.6698
  15   2.0000     -10.276161      -279.6286
  16   2.0000      -8.083111      -219.9526
  17   2.0000      -8.076041      -219.7603
  18   2.0000      -6.041636      -164.4013
  19   2.0000      -6.037560      -164.2904
  20   2.0000      -6.034592      -164.2096
  21   2.0000      -6.033941      -164.1919
  22   2.0000      -6.030500      -164.0982
  23   2.0000      -6.026896      -164.0002
  24   2.0000      -1.000485       -27.2246
  25   2.0000      -0.976778       -26.5795
  26   2.0000      -0.908482       -24.7211
  27   2.0000      -0.905812       -24.6484
  28   2.0000      -0.867968       -23.6186
  29   2.0000      -0.851345       -23.1663
  30   2.0000      -0.846738       -23.0409
  31   2.0000      -0.816417       -22.2158
  32   2.0000      -0.778936       -21.1959
  33   2.0000      -0.762533       -20.7496
  34   2.0000      -0.708379       -19.2760
  35   2.0000      -0.701300       -19.0834
  36   2.0000      -0.696698       -18.9581
  37   2.0000      -0.646641       -17.5960
  38   2.0000      -0.641099       -17.4452
  39   2.0000      -0.613175       -16.6853
  40   2.0000      -0.589223       -16.0336
  41   2.0000      -0.578028       -15.7290
  42   2.0000      -0.568830       -15.4786
  43   2.0000      -0.556157       -15.1338
  44   2.0000      -0.527130       -14.3439
  45   2.0000      -0.521986       -14.2040
  46   2.0000      -0.516303       -14.0493
  47   2.0000      -0.514815       -14.0088
  48   2.0000      -0.504671       -13.7328
  49   2.0000      -0.503981       -13.7140
  50   2.0000      -0.493289       -13.4231
  51   2.0000      -0.473640       -12.8884
  52   2.0000      -0.466975       -12.7070
  53   2.0000      -0.461337       -12.5536
  54   2.0000      -0.454835       -12.3767
  55   2.0000      -0.451321       -12.2811
  56   2.0000      -0.445767       -12.1299
  57   2.0000      -0.433727       -11.8023
  58   2.0000      -0.433136       -11.7862
  59   2.0000      -0.423822       -11.5328
  60   2.0000      -0.422226       -11.4893
  61   2.0000      -0.417000       -11.3472
  62   2.0000      -0.410122       -11.1600
  63   2.0000      -0.342161        -9.3107
  64   2.0000      -0.327553        -8.9132
  65   2.0000      -0.322107        -8.7650
  66   2.0000      -0.291856        -7.9418
  67   0.0000       0.028695         0.7808
  68   0.0000       0.064879         1.7655
  69   0.0000       0.111693         3.0393
  70   0.0000       0.124036         3.3752
  71   0.0000       0.129708         3.5295

MULLIKEN ATOMIC CHARGES
-----------------------
   0 S :    0.129188
   1 C :   -0.069604
   2 C :   -0.101198
   3 C :    0.016152
   4 C :   -0.172632
   5 H :    0.033832
   6 C :    0.058629
   7 H :    0.025502
   8 H :    0.029872
   9 C :   -0.075369
  10 H :    0.032750
  11 H :    0.039301
  12 C :   -0.035489
  13 H :    0.034123
  14 H :    0.014181
  15 H :    0.022867
  16 S :    0.093860
  17 C :   -0.093403
  18 C :   -0.051319
  19 C :   -0.034253
  20 C :   -0.155723
  21 H :    0.039367
  22 C :    0.035488
  23 H :    0.033624
  24 H :    0.037222
  25 C :   -0.120563
  26 H :    0.040081
  27 H :    0.052727
  28 C :   -0.012129
  29 H :    0.031681
  30 H :    0.024161
  31 H :    0.038690
  32 H :    0.007638
  33 H :    0.050745
Sum of atomic charges:    0.0000000

LOEWDIN ATOMIC CHARGES
----------------------
   0 S :    0.422874
   1 C :   -0.188590
   2 C :   -0.062242
   3 C :   -0.065848
   4 C :   -0.207783
   5 H :    0.036707
   6 C :   -0.035240
   7 H :    0.034245
   8 H :    0.033357
   9 C :   -0.042479
  10 H :    0.027056
  11 H :    0.032613
  12 C :   -0.072244
  13 H :    0.029348
  14 H :    0.020809
  15 H :    0.023950
  16 S :    0.390814
  17 C :   -0.170470
  18 C :   -0.078382
  19 C :   -0.049396
  20 C :   -0.213185
  21 H :    0.042441
  22 C :   -0.037518
  23 H :    0.036842
  24 H :    0.033275
  25 C :   -0.046193
  26 H :    0.028623
  27 H :    0.031521
  28 C :   -0.064436
  29 H :    0.028524
  30 H :    0.015629
  31 H :    0.034066
  32 H :    0.008680
  33 H :    0.022632

  Mayer bond orders larger than 0.100000
B(  0-S ,  1-C ) :   1.1474 B(  0-S ,  4-C ) :   1.1626 B(  1-C ,  2-C ) :   1.5881
B(  1-C ,  4-C ) :   0.1011 B(  1-C , 32-H ) :   0.9802 B(  2-C ,  3-C ) :   1.2562
B(  2-C ,  6-C ) :   1.0149 B(  3-C ,  4-C ) :   1.5556 B(  3-C ,  5-H ) :   0.9811
B(  4-C , 20-C ) :   1.0382 B(  6-C ,  7-H ) :   0.9462 B(  6-C ,  8-H ) :   0.9458
B(  6-C ,  9-C ) :   1.0425 B(  9-C , 10-H ) :   0.9558 B(  9-C , 11-H ) :   0.9589
B(  9-C , 12-C ) :   1.0815 B( 12-C , 13-H ) :   0.9739 B( 12-C , 14-H ) :   0.9706
B( 12-C , 15-H ) :   0.9747 B( 16-S , 17-C ) :   1.1515 B( 16-S , 20-C ) :   1.1475
B( 17-C , 18-C ) :   1.6165 B( 17-C , 20-C ) :   0.1017 B( 17-C , 33-H ) :   0.9661
B( 18-C , 19-C ) :   1.2220 B( 18-C , 21-H ) :   0.9858 B( 19-C , 20-C ) :   1.5858
B( 19-C , 22-C ) :   1.0305 B( 22-C , 23-H ) :   0.9309 B( 22-C , 24-H ) :   0.9317
B( 22-C , 25-C ) :   1.0724 B( 25-C , 26-H ) :   0.9532 B( 25-C , 27-H ) :   0.9498
B( 25-C , 28-C ) :   1.0884 B( 28-C , 29-H ) :   0.9705 B( 28-C , 30-H ) :   0.9735
B( 28-C , 31-H ) :   0.9728

Dispersion correction           -0.013261878
FINAL SINGLE POINT ENERGY     -1339.862682097322

DIPOLE MOMENT
-------------
                                X             Y             Z
Electronic contribution:     22.52954      -0.56564      19.41642
Nuclear contribution   :    -23.13118       0.58737     -19.72940
                        -----------------------------------------
Total Dipole Moment    :     -0.60164       0.02173      -0.31298
                        -----------------------------------------
Magnitude (a.u.)       :      0.67853
Magnitude (Debye)      :      1.72469

Rotational constants in cm-1:     0.017749     0.007691     0.005788
Rotational constants in MHz :   532.115371   230.573277   173.526396

                             ****ORCA TERMINATED NORMALLY****
TOTAL RUN TIME: 0 days 0 hours 0 minutes 31 seconds 557 msec
