                         Program Version 4.2.1 -  RELEASE  -
|  1> ! wB97X-D3 SP def2-SVP
|  2> %pal
|  3> nprocs 16
|  4> end
|  5>
|  6> * xyz 0 1
|  7> S 	 59.0268 	 0.0178487 	 85.9771
|  8> C 	 58.3665 	 0.717309 	 84.5133
|  9> C 	 57.7004 	 -0.335707 	 83.887
| 10> C 	 57.3837 	 -1.43803 	 84.745
| 11> C 	 57.9015 	 -1.33535 	 85.9665
| 12> H 	 56.7753 	 -2.2696 	 84.5074
| 13> C 	 57.1451 	 -0.224325 	 82.5304
| 14> H 	 56.8476 	 -1.25565 	 82.1309
| 15> H 	 57.9225 	 0.139417 	 81.8756
| 16> C 	 55.921 	 0.710945 	 82.4763
| 17> H 	 55.1363 	 0.155128 	 83.0412
| 18> H 	 56.1399 	 1.62218 	 83.0204
| 19> C 	 55.5005 	 1.07154 	 80.9758
| 20> H 	 56.0248 	 2.00001 	 80.5153
| 21> H 	 55.4744 	 0.277505 	 80.2097
| 22> H 	 54.528 	 1.53822 	 81.0393
| 23> S 	 56.8702 	 -1.21039 	 88.523
| 24> C 	 56.3953 	 -2.74765 	 89.273
| 25> C 	 56.5477 	 -3.79145 	 88.4277
| 26> C 	 57.3112 	 -3.50753 	 87.2205
| 27> C 	 57.4708 	 -2.15425 	 87.1048
| 28> H 	 56.1226 	 -4.77468 	 88.6623
| 29> C 	 57.7781 	 -4.62811 	 86.2566
| 30> H 	 58.3444 	 -5.34865 	 86.8491
| 31> H 	 58.5081 	 -4.18053 	 85.5726
| 32> C 	 56.6735 	 -5.28759 	 85.5079
| 33> H 	 56.1246 	 -4.46618 	 84.9959
| 34> H 	 56.1677 	 -5.8095 	 86.3299
| 35> C 	 57.0947 	 -6.33077 	 84.5054
| 36> H 	 56.3345 	 -6.53057 	 83.7626
| 37> H 	 57.364 	 -7.29485 	 84.9363
| 38> H 	 58.0097 	 -5.98089 	 83.9752
| 39> H 	 58.4935 	 1.70028 	 83.9992
| 40> H 	 55.6653 	 -2.71473 	 90.1217
| 41> *
| 42>
| 43>                          ****END OF INPUT****

CARTESIAN COORDINATES (ANGSTROEM)
---------------------------------
  S     59.026800    0.017849   85.977100
  C     58.366500    0.717309   84.513300
  C     57.700400   -0.335707   83.887000
  C     57.383700   -1.438030   84.745000
  C     57.901500   -1.335350   85.966500
  H     56.775300   -2.269600   84.507400
  C     57.145100   -0.224325   82.530400
  H     56.847600   -1.255650   82.130900
  H     57.922500    0.139417   81.875600
  C     55.921000    0.710945   82.476300
  H     55.136300    0.155128   83.041200
  H     56.139900    1.622180   83.020400
  C     55.500500    1.071540   80.975800
  H     56.024800    2.000010   80.515300
  H     55.474400    0.277505   80.209700
  H     54.528000    1.538220   81.039300
  S     56.870200   -1.210390   88.523000
  C     56.395300   -2.747650   89.273000
  C     56.547700   -3.791450   88.427700
  C     57.311200   -3.507530   87.220500
  C     57.470800   -2.154250   87.104800
  H     56.122600   -4.774680   88.662300
  C     57.778100   -4.628110   86.256600
  H     58.344400   -5.348650   86.849100
  H     58.508100   -4.180530   85.572600
  C     56.673500   -5.287590   85.507900
  H     56.124600   -4.466180   84.995900
  H     56.167700   -5.809500   86.329900
  C     57.094700   -6.330770   84.505400
  H     56.334500   -6.530570   83.762600
  H     57.364000   -7.294850   84.936300
  H     58.009700   -5.980890   83.975200
  H     58.493500    1.700280   83.999200
  H     55.665300   -2.714730   90.121700

 Total Charge           Charge          ....    0
 Multiplicity           Mult            ....    1
 Number of Electrons    NEL             ....  134
 Basis Dimension        Dim             ....  322

ORBITAL ENERGIES
----------------

  NO   OCC          E(Eh)            E(eV)
   0   2.0000     -88.962514     -2420.7931
   1   2.0000     -88.961436     -2420.7637
   2   2.0000     -10.332580      -281.1638
   3   2.0000     -10.323185      -280.9081
   4   2.0000     -10.319544      -280.8091
   5   2.0000     -10.317422      -280.7513
   6   2.0000     -10.308708      -280.5142
   7   2.0000     -10.297511      -280.2095
   8   2.0000     -10.296399      -280.1793
   9   2.0000     -10.296332      -280.1774
  10   2.0000     -10.295172      -280.1459
  11   2.0000     -10.290312      -280.0136
  12   2.0000     -10.290160      -280.0095
  13   2.0000     -10.288772      -279.9717
  14   2.0000     -10.285636      -279.8864
  15   2.0000     -10.281446      -279.7724
  16   2.0000      -8.076539      -219.7738
  17   2.0000      -8.076014      -219.7595
  18   2.0000      -6.035181      -164.2256
  19   2.0000      -6.034780      -164.2147
  20   2.0000      -6.031406      -164.1229
  21   2.0000      -6.030645      -164.1022
  22   2.0000      -6.026915      -164.0007
  23   2.0000      -6.026368      -163.9858
  24   2.0000      -1.007943       -27.4275
  25   2.0000      -0.983500       -26.7624
  26   2.0000      -0.919563       -25.0226
  27   2.0000      -0.909549       -24.7501
  28   2.0000      -0.869232       -23.6530
  29   2.0000      -0.850029       -23.1305
  30   2.0000      -0.840453       -22.8699
  31   2.0000      -0.816725       -22.2242
  32   2.0000      -0.785797       -21.3826
  33   2.0000      -0.767600       -20.8875
  34   2.0000      -0.703866       -19.1532
  35   2.0000      -0.702257       -19.1094
  36   2.0000      -0.692735       -18.8503
  37   2.0000      -0.659627       -17.9494
  38   2.0000      -0.639117       -17.3913
  39   2.0000      -0.618616       -16.8334
  40   2.0000      -0.596997       -16.2451
  41   2.0000      -0.582514       -15.8510
  42   2.0000      -0.570503       -15.5242
  43   2.0000      -0.550689       -14.9850
  44   2.0000      -0.528982       -14.3943
  45   2.0000      -0.521509       -14.1910
  46   2.0000      -0.514991       -14.0136
  47   2.0000      -0.513728       -13.9792
  48   2.0000      -0.507797       -13.8178
  49   2.0000      -0.506476       -13.7819
  50   2.0000      -0.486346       -13.2341
  51   2.0000      -0.477081       -12.9820
  52   2.0000      -0.471652       -12.8343
  53   2.0000      -0.464548       -12.6410
  54   2.0000      -0.458079       -12.4650
  55   2.0000      -0.450282       -12.2528
  56   2.0000      -0.445509       -12.1229
  57   2.0000      -0.433634       -11.7998
  58   2.0000      -0.429516       -11.6877
  59   2.0000      -0.423593       -11.5265
  60   2.0000      -0.421395       -11.4667
  61   2.0000      -0.416599       -11.3362
  62   2.0000      -0.412927       -11.2363
  63   2.0000      -0.347822        -9.4647
  64   2.0000      -0.331593        -9.0231
  65   2.0000      -0.320066        -8.7094
  66   2.0000      -0.296626        -8.0716
  67   0.0000       0.025490         0.6936
  68   0.0000       0.068847         1.8734
  69   0.0000       0.104176         2.8348
  70   0.0000       0.110445         3.0054
  71   0.0000       0.125720         3.4210

MULLIKEN ATOMIC CHARGES
-----------------------
   0 S :    0.108987
   1 C :   -0.140905
   2 C :   -0.088215
   3 C :    0.055121
   4 C :   -0.133954
   5 H :   -0.025001
   6 C :    0.035580
   7 H :    0.030643
   8 H :    0.025897
   9 C :   -0.071564
  10 H :    0.038692
  11 H :    0.028680
  12 C :   -0.075660
  13 H :    0.038358
  14 H :    0.047177
  15 H :    0.027387
  16 S :    0.090343
  17 C :   -0.093368
  18 C :   -0.047423
  19 C :   -0.038281
  20 C :   -0.162904
  21 H :    0.028613
  22 C :    0.068353
  23 H :    0.030170
  24 H :    0.021542
  25 C :   -0.090356
  26 H :    0.044963
  27 H :    0.030962
  28 C :   -0.025992
  29 H :    0.037786
  30 H :    0.029029
  31 H :    0.026190
  32 H :    0.071391
  33 H :    0.077758
Sum of atomic charges:    0.0000000

LOEWDIN ATOMIC CHARGES
----------------------
   0 S :    0.389471
   1 C :   -0.204954
   2 C :   -0.065451
   3 C :   -0.059888
   4 C :   -0.190278
   5 H :    0.023392
   6 C :   -0.044399
   7 H :    0.034225
   8 H :    0.026355
   9 C :   -0.032692
  10 H :    0.030510
  11 H :    0.022600
  12 C :   -0.084628
  13 H :    0.036592
  14 H :    0.026860
  15 H :    0.025016
  16 S :    0.365745
  17 C :   -0.182688
  18 C :   -0.069100
  19 C :   -0.051860
  20 C :   -0.165366
  21 H :    0.032290
  22 C :   -0.029199
  23 H :    0.031691
  24 H :    0.026709
  25 C :   -0.047768
  26 H :    0.029134
  27 H :    0.029027
  28 C :   -0.066436
  29 H :    0.027810
  30 H :    0.025742
  31 H :    0.028206
  32 H :    0.044679
  33 H :    0.038652

  Mayer bond orders larger than 0.100000
B(  0-S ,  1-C ) :   1.1198 B(  0-S ,  4-C ) :   1.1372 B(  1-C ,  2-C ) :   1.5960
B(  1-C , 32-H ) :   0.9669 B(  2-C ,  3-C ) :   1.2198 B(  2-C ,  6-C ) :   1.0478
B(  3-C ,  4-C ) :   1.5880 B(  3-C ,  5-H ) :   1.0052 B(  4-C , 20-C ) :   1.0297
B(  6-C ,  7-H ) :   0.9436 B(  6-C ,  8-H ) :   0.9349 B(  6-C ,  9-C ) :   1.0588
B(  9-C , 10-H ) :   0.9588 B(  9-C , 11-H ) :   0.9589 B(  9-C , 12-C ) :   1.0598
B( 12-C , 13-H ) :   0.9745 B( 12-C , 14-H ) :   0.9786 B( 12-C , 15-H ) :   0.9731
B( 16-S , 17-C ) :   1.1172 B( 16-S , 20-C ) :   1.1244 B( 17-C , 18-C ) :   1.6870
B( 17-C , 33-H ) :   0.9555 B( 18-C , 19-C ) :   1.1743 B( 18-C , 21-H ) :   0.9781
B( 19-C , 20-C ) :   1.6637 B( 19-C , 22-C ) :   1.0373 B( 22-C , 23-H ) :   0.9359
B( 22-C , 24-H ) :   0.9265 B( 22-C , 25-C ) :   1.0694 B( 25-C , 26-H ) :   0.9512
B( 25-C , 27-H ) :   0.9518 B( 25-C , 28-C ) :   1.0927 B( 28-C , 29-H ) :   0.9740
B( 28-C , 30-H ) :   0.9718 B( 28-C , 31-H ) :   0.9708

Dispersion correction           -0.013978525
FINAL SINGLE POINT ENERGY     -1339.854844156581

DIPOLE MOMENT
-------------
                                X             Y             Z
Electronic contribution:      9.86101      10.89070      24.58766
Nuclear contribution   :    -10.33995     -11.35730     -25.14515
                        -----------------------------------------
Total Dipole Moment    :     -0.47894      -0.46660      -0.55748
                        -----------------------------------------
Magnitude (a.u.)       :      0.87057
Magnitude (Debye)      :      2.21281

Rotational constants in cm-1:     0.016690     0.008588     0.006650
Rotational constants in MHz :   500.355580   257.462636   199.354891

                             ****ORCA TERMINATED NORMALLY****
TOTAL RUN TIME: 0 days 0 hours 0 minutes 29 seconds 750 msec
