                         Program Version 4.2.1 -  RELEASE  -
|  1> ! wB97X-D3 SP def2-SVP
|  2> %pal
|  3> nprocs 16
|  4> end
|  5>
|  6> * xyz 0 1
|  7> S 	 2.75234 	 -15.17 	 56.9149
|  8> C 	 2.44633 	 -14.3065 	 58.4465
|  9> C 	 1.87469 	 -15.1106 	 59.4129
| 10> C 	 1.47556 	 -16.3627 	 58.8301
| 11> C 	 1.89389 	 -16.5827 	 57.5204
| 12> H 	 0.821555 	 -17.0389 	 59.2722
| 13> C 	 1.49701 	 -14.7107 	 60.813
| 14> H 	 0.482792 	 -14.9636 	 60.9126
| 15> H 	 1.65108 	 -13.6908 	 61.0215
| 16> C 	 2.28235 	 -15.5 	 61.8744
| 17> H 	 2.10893 	 -15.0859 	 62.8794
| 18> H 	 1.95027 	 -16.5108 	 62.0501
| 19> C 	 3.83284 	 -15.4241 	 61.816
| 20> H 	 4.2794 	 -14.4381 	 61.9509
| 21> H 	 4.22554 	 -15.9852 	 62.6511
| 22> H 	 4.15053 	 -15.8822 	 60.861
| 23> S 	 1.28181 	 -17.2794 	 54.9875
| 24> C 	 0.993256 	 -18.986 	 54.5795
| 25> C 	 1.1246 	 -19.8251 	 55.6431
| 26> C 	 1.56867 	 -19.164 	 56.8221
| 27> C 	 1.68302 	 -17.7534 	 56.6505
| 28> H 	 0.995537 	 -20.9066 	 55.5248
| 29> C 	 1.68635 	 -19.9954 	 58.0764
| 30> H 	 2.29287 	 -19.3887 	 58.7508
| 31> H 	 2.11706 	 -20.9478 	 57.8252
| 32> C 	 0.284483 	 -20.3931 	 58.6498
| 33> H 	 -0.315205 	 -20.9393 	 57.9649
| 34> H 	 -0.21324 	 -19.4547 	 58.7328
| 35> C 	 0.248944 	 -21.0518 	 60.0164
| 36> H 	 0.621858 	 -20.4425 	 60.7303
| 37> H 	 0.786412 	 -22.0122 	 60.0094
| 38> H 	 -0.786946 	 -21.2454 	 60.3233
| 39> H 	 2.9487 	 -13.3639 	 58.6786
| 40> H 	 0.736742 	 -19.3931 	 53.5461
| 41> *
| 42>
| 43>                          ****END OF INPUT****

CARTESIAN COORDINATES (ANGSTROEM)
---------------------------------
  S      2.752340  -15.170000   56.914900
  C      2.446330  -14.306500   58.446500
  C      1.874690  -15.110600   59.412900
  C      1.475560  -16.362700   58.830100
  C      1.893890  -16.582700   57.520400
  H      0.821555  -17.038900   59.272200
  C      1.497010  -14.710700   60.813000
  H      0.482792  -14.963600   60.912600
  H      1.651080  -13.690800   61.021500
  C      2.282350  -15.500000   61.874400
  H      2.108930  -15.085900   62.879400
  H      1.950270  -16.510800   62.050100
  C      3.832840  -15.424100   61.816000
  H      4.279400  -14.438100   61.950900
  H      4.225540  -15.985200   62.651100
  H      4.150530  -15.882200   60.861000
  S      1.281810  -17.279400   54.987500
  C      0.993256  -18.986000   54.579500
  C      1.124600  -19.825100   55.643100
  C      1.568670  -19.164000   56.822100
  C      1.683020  -17.753400   56.650500
  H      0.995537  -20.906600   55.524800
  C      1.686350  -19.995400   58.076400
  H      2.292870  -19.388700   58.750800
  H      2.117060  -20.947800   57.825200
  C      0.284483  -20.393100   58.649800
  H     -0.315205  -20.939300   57.964900
  H     -0.213240  -19.454700   58.732800
  C      0.248944  -21.051800   60.016400
  H      0.621858  -20.442500   60.730300
  H      0.786412  -22.012200   60.009400
  H     -0.786946  -21.245400   60.323300
  H      2.948700  -13.363900   58.678600
  H      0.736742  -19.393100   53.546100

 Total Charge           Charge          ....    0
 Multiplicity           Mult            ....    1
 Number of Electrons    NEL             ....  134
 Basis Dimension        Dim             ....  322

ORBITAL ENERGIES
----------------

  NO   OCC          E(Eh)            E(eV)
   0   2.0000     -88.966968     -2420.9143
   1   2.0000     -88.966196     -2420.8933
   2   2.0000     -10.335628      -281.2467
   3   2.0000     -10.335385      -281.2401
   4   2.0000     -10.322625      -280.8929
   5   2.0000     -10.315920      -280.7105
   6   2.0000     -10.308897      -280.5193
   7   2.0000     -10.303811      -280.3810
   8   2.0000     -10.293142      -280.0906
   9   2.0000     -10.292881      -280.0835
  10   2.0000     -10.291860      -280.0558
  11   2.0000     -10.289260      -279.9850
  12   2.0000     -10.287117      -279.9267
  13   2.0000     -10.281707      -279.7795
  14   2.0000     -10.276647      -279.6418
  15   2.0000     -10.272545      -279.5302
  16   2.0000      -8.080871      -219.8917
  17   2.0000      -8.080297      -219.8761
  18   2.0000      -6.039480      -164.3426
  19   2.0000      -6.038895      -164.3267
  20   2.0000      -6.035561      -164.2360
  21   2.0000      -6.034962      -164.2197
  22   2.0000      -6.031483      -164.1250
  23   2.0000      -6.030932      -164.1100
  24   2.0000      -1.001610       -27.2552
  25   2.0000      -0.979468       -26.6527
  26   2.0000      -0.915254       -24.9053
  27   2.0000      -0.909570       -24.7507
  28   2.0000      -0.867521       -23.6065
  29   2.0000      -0.853071       -23.2132
  30   2.0000      -0.843727       -22.9590
  31   2.0000      -0.815744       -22.1975
  32   2.0000      -0.787722       -21.4350
  33   2.0000      -0.773317       -21.0430
  34   2.0000      -0.710073       -19.3221
  35   2.0000      -0.700116       -19.0511
  36   2.0000      -0.692209       -18.8360
  37   2.0000      -0.661640       -18.0041
  38   2.0000      -0.640668       -17.4335
  39   2.0000      -0.624166       -16.9844
  40   2.0000      -0.589702       -16.0466
  41   2.0000      -0.573529       -15.6065
  42   2.0000      -0.564714       -15.3667
  43   2.0000      -0.556474       -15.1424
  44   2.0000      -0.545086       -14.8325
  45   2.0000      -0.525638       -14.3033
  46   2.0000      -0.518016       -14.0959
  47   2.0000      -0.512051       -13.9336
  48   2.0000      -0.506310       -13.7774
  49   2.0000      -0.492284       -13.3957
  50   2.0000      -0.490181       -13.3385
  51   2.0000      -0.484249       -13.1771
  52   2.0000      -0.474329       -12.9072
  53   2.0000      -0.462257       -12.5787
  54   2.0000      -0.458492       -12.4762
  55   2.0000      -0.453384       -12.3372
  56   2.0000      -0.445078       -12.1112
  57   2.0000      -0.438431       -11.9303
  58   2.0000      -0.436182       -11.8691
  59   2.0000      -0.429988       -11.7006
  60   2.0000      -0.423444       -11.5225
  61   2.0000      -0.417708       -11.3664
  62   2.0000      -0.407745       -11.0953
  63   2.0000      -0.353421        -9.6171
  64   2.0000      -0.331004        -9.0071
  65   2.0000      -0.330012        -8.9801
  66   2.0000      -0.286931        -7.8078
  67   0.0000       0.022092         0.6011
  68   0.0000       0.074800         2.0354
  69   0.0000       0.098023         2.6673
  70   0.0000       0.117846         3.2068
  71   0.0000       0.125533         3.4159

MULLIKEN ATOMIC CHARGES
-----------------------
   0 S :    0.094654
   1 C :   -0.124955
   2 C :   -0.107830
   3 C :    0.032813
   4 C :   -0.121260
   5 H :   -0.021011
   6 C :    0.167659
   7 H :    0.022405
   8 H :    0.009150
   9 C :   -0.112123
  10 H :    0.018617
  11 H :    0.022892
  12 C :   -0.061232
  13 H :    0.030061
  14 H :    0.028210
  15 H :    0.050747
  16 S :    0.091599
  17 C :   -0.101652
  18 C :   -0.049237
  19 C :   -0.047845
  20 C :   -0.142786
  21 H :    0.029944
  22 C :    0.091823
  23 H :    0.028407
  24 H :    0.017102
  25 C :   -0.083389
  26 H :    0.018118
  27 H :    0.012579
  28 C :    0.010385
  29 H :    0.004994
  30 H :    0.029711
  31 H :    0.030239
  32 H :    0.055641
  33 H :    0.075567
Sum of atomic charges:   -0.0000000

LOEWDIN ATOMIC CHARGES
----------------------
   0 S :    0.381241
   1 C :   -0.189910
   2 C :   -0.056092
   3 C :   -0.061494
   4 C :   -0.184774
   5 H :    0.016803
   6 C :   -0.017049
   7 H :    0.031793
   8 H :    0.026884
   9 C :   -0.044877
  10 H :    0.025035
  11 H :    0.019758
  12 C :   -0.066814
  13 H :    0.023496
  14 H :    0.025896
  15 H :    0.027933
  16 S :    0.385506
  17 C :   -0.182734
  18 C :   -0.076838
  19 C :   -0.051018
  20 C :   -0.190786
  21 H :    0.037431
  22 C :   -0.025171
  23 H :    0.030902
  24 H :    0.027216
  25 C :   -0.035816
  26 H :    0.018790
  27 H :    0.018186
  28 C :   -0.053753
  29 H :    0.008758
  30 H :    0.027003
  31 H :    0.031885
  32 H :    0.028945
  33 H :    0.043664

  Mayer bond orders larger than 0.100000
B(  0-S ,  1-C ) :   1.1204 B(  0-S ,  4-C ) :   1.1457 B(  1-C ,  2-C ) :   1.6351
B(  1-C , 32-H ) :   0.9598 B(  2-C ,  3-C ) :   1.2061 B(  2-C ,  6-C ) :   1.0358
B(  3-C ,  4-C ) :   1.5885 B(  3-C ,  5-H ) :   1.0044 B(  4-C , 20-C ) :   1.0396
B(  6-C ,  7-H ) :   0.9331 B(  6-C ,  8-H ) :   0.9397 B(  6-C ,  9-C ) :   1.0676
B(  9-C , 10-H ) :   0.9569 B(  9-C , 11-H ) :   0.9581 B(  9-C , 12-C ) :   1.0739
B( 12-C , 13-H ) :   0.9768 B( 12-C , 14-H ) :   0.9731 B( 12-C , 15-H ) :   0.9746
B( 16-S , 17-C ) :   1.1376 B( 16-S , 20-C ) :   1.1326 B( 17-C , 18-C ) :   1.6396
B( 17-C , 33-H ) :   0.9550 B( 18-C , 19-C ) :   1.2268 B( 18-C , 21-H ) :   0.9835
B( 19-C , 20-C ) :   1.5823 B( 19-C , 22-C ) :   1.0667 B( 22-C , 23-H ) :   0.9352
B( 22-C , 24-H ) :   0.9249 B( 22-C , 25-C ) :   1.0562 B( 25-C , 26-H ) :   0.9533
B( 25-C , 27-H ) :   0.9522 B( 25-C , 28-C ) :   1.0963 B( 28-C , 29-H ) :   0.9728
B( 28-C , 30-H ) :   0.9721 B( 28-C , 31-H ) :   0.9700

Dispersion correction           -0.014283321
FINAL SINGLE POINT ENERGY     -1339.872476309030

DIPOLE MOMENT
-------------
                                X             Y             Z
Electronic contribution:      1.92589      10.85834     -28.35396
Nuclear contribution   :     -2.17163     -11.25819      29.01374
                        -----------------------------------------
Total Dipole Moment    :     -0.24573      -0.39984       0.65978
                        -----------------------------------------
Magnitude (a.u.)       :      0.80967
Magnitude (Debye)      :      2.05802

Rotational constants in cm-1:     0.016986     0.009699     0.006606
Rotational constants in MHz :   509.232413   290.762783   198.052042

                             ****ORCA TERMINATED NORMALLY****
TOTAL RUN TIME: 0 days 0 hours 0 minutes 30 seconds 562 msec
