                         Program Version 4.2.1 -  RELEASE  -
|  1> ! wB97X-D3 SP def2-SVP
|  2> %pal
|  3> nprocs 16
|  4> end
|  5>
|  6> * xyz 0 1
|  7> S 	 -43.0263 	 26.3938 	 79.7016
|  8> C 	 -41.8407 	 27.7148 	 79.8003
|  9> C 	 -40.5788 	 27.3181 	 79.4268
| 10> C 	 -40.569 	 26.029 	 78.8575
| 11> C 	 -41.8259 	 25.446 	 78.7998
| 12> H 	 -39.7062 	 25.4903 	 78.4811
| 13> C 	 -39.3835 	 28.2327 	 79.4901
| 14> H 	 -39.7216 	 29.1543 	 79.0009
| 15> H 	 -38.6433 	 27.6979 	 78.872
| 16> C 	 -38.7368 	 28.4943 	 80.8186
| 17> H 	 -39.4318 	 28.6527 	 81.6174
| 18> H 	 -38.094 	 27.6371 	 81.1346
| 19> C 	 -37.8577 	 29.7545 	 80.6596
| 20> H 	 -37.4913 	 30.1334 	 81.67
| 21> H 	 -36.998 	 29.7867 	 79.957
| 22> H 	 -38.5203 	 30.5839 	 80.3385
| 23> S 	 -43.2724 	 23.1271 	 79.202
| 24> C 	 -43.2511 	 21.9236 	 78.002
| 25> C 	 -42.5313 	 22.2617 	 76.894
| 26> C 	 -42.0519 	 23.6026 	 76.9996
| 27> C 	 -42.2164 	 24.181 	 78.2797
| 28> H 	 -42.5365 	 21.6099 	 76.0867
| 29> C 	 -41.4337 	 24.3161 	 75.8015
| 30> H 	 -40.6164 	 23.735 	 75.3604
| 31> H 	 -41.0042 	 25.2178 	 76.1647
| 32> C 	 -42.4704 	 24.5677 	 74.6737
| 33> H 	 -42.9886 	 23.6647 	 74.304
| 34> H 	 -42.0059 	 24.9503 	 73.8224
| 35> C 	 -43.6114 	 25.5008 	 75.0226
| 36> H 	 -44.283 	 25.5431 	 74.1615
| 37> H 	 -43.1805 	 26.4761 	 75.1254
| 38> H 	 -44.1271 	 25.2852 	 75.9693
| 39> H 	 -42.1249 	 28.7316 	 80.0711
| 40> H 	 -43.492 	 20.8734 	 78.1582
| 41> *
| 42>
| 43>                          ****END OF INPUT****

CARTESIAN COORDINATES (ANGSTROEM)
---------------------------------
  S    -43.026300   26.393800   79.701600
  C    -41.840700   27.714800   79.800300
  C    -40.578800   27.318100   79.426800
  C    -40.569000   26.029000   78.857500
  C    -41.825900   25.446000   78.799800
  H    -39.706200   25.490300   78.481100
  C    -39.383500   28.232700   79.490100
  H    -39.721600   29.154300   79.000900
  H    -38.643300   27.697900   78.872000
  C    -38.736800   28.494300   80.818600
  H    -39.431800   28.652700   81.617400
  H    -38.094000   27.637100   81.134600
  C    -37.857700   29.754500   80.659600
  H    -37.491300   30.133400   81.670000
  H    -36.998000   29.786700   79.957000
  H    -38.520300   30.583900   80.338500
  S    -43.272400   23.127100   79.202000
  C    -43.251100   21.923600   78.002000
  C    -42.531300   22.261700   76.894000
  C    -42.051900   23.602600   76.999600
  C    -42.216400   24.181000   78.279700
  H    -42.536500   21.609900   76.086700
  C    -41.433700   24.316100   75.801500
  H    -40.616400   23.735000   75.360400
  H    -41.004200   25.217800   76.164700
  C    -42.470400   24.567700   74.673700
  H    -42.988600   23.664700   74.304000
  H    -42.005900   24.950300   73.822400
  C    -43.611400   25.500800   75.022600
  H    -44.283000   25.543100   74.161500
  H    -43.180500   26.476100   75.125400
  H    -44.127100   25.285200   75.969300
  H    -42.124900   28.731600   80.071100
  H    -43.492000   20.873400   78.158200

 Total Charge           Charge          ....    0
 Multiplicity           Mult            ....    1
 Number of Electrons    NEL             ....  134
 Basis Dimension        Dim             ....  322

ORBITAL ENERGIES
----------------

  NO   OCC          E(Eh)            E(eV)
   0   2.0000     -88.966293     -2420.8959
   1   2.0000     -88.964170     -2420.8381
   2   2.0000     -10.330891      -281.1178
   3   2.0000     -10.325559      -280.9728
   4   2.0000     -10.314236      -280.6646
   5   2.0000     -10.310608      -280.5659
   6   2.0000     -10.304858      -280.4095
   7   2.0000     -10.298216      -280.2287
   8   2.0000     -10.295618      -280.1580
   9   2.0000     -10.291993      -280.0594
  10   2.0000     -10.289687      -279.9966
  11   2.0000     -10.287819      -279.9458
  12   2.0000     -10.287379      -279.9338
  13   2.0000     -10.285861      -279.8925
  14   2.0000     -10.277370      -279.6614
  15   2.0000     -10.265571      -279.3404
  16   2.0000      -8.080443      -219.8800
  17   2.0000      -8.079914      -219.8656
  18   2.0000      -6.038927      -164.3276
  19   2.0000      -6.038382      -164.3127
  20   2.0000      -6.035229      -164.2269
  21   2.0000      -6.034170      -164.1981
  22   2.0000      -6.031076      -164.1139
  23   2.0000      -6.030783      -164.1059
  24   2.0000      -1.009764       -27.4771
  25   2.0000      -0.986129       -26.8339
  26   2.0000      -0.917771       -24.9738
  27   2.0000      -0.906725       -24.6732
  28   2.0000      -0.874221       -23.7888
  29   2.0000      -0.851931       -23.1822
  30   2.0000      -0.845554       -23.0087
  31   2.0000      -0.815582       -22.1931
  32   2.0000      -0.782448       -21.2915
  33   2.0000      -0.767862       -20.8946
  34   2.0000      -0.708842       -19.2886
  35   2.0000      -0.703862       -19.1531
  36   2.0000      -0.693301       -18.8657
  37   2.0000      -0.657886       -17.9020
  38   2.0000      -0.640040       -17.4164
  39   2.0000      -0.622636       -16.9428
  40   2.0000      -0.594146       -16.1675
  41   2.0000      -0.575541       -15.6613
  42   2.0000      -0.563303       -15.3282
  43   2.0000      -0.550704       -14.9854
  44   2.0000      -0.540509       -14.7080
  45   2.0000      -0.523827       -14.2541
  46   2.0000      -0.518929       -14.1208
  47   2.0000      -0.513694       -13.9783
  48   2.0000      -0.505658       -13.7597
  49   2.0000      -0.500735       -13.6257
  50   2.0000      -0.495243       -13.4763
  51   2.0000      -0.475223       -12.9315
  52   2.0000      -0.469130       -12.7657
  53   2.0000      -0.462932       -12.5970
  54   2.0000      -0.453730       -12.3466
  55   2.0000      -0.449359       -12.2277
  56   2.0000      -0.442976       -12.0540
  57   2.0000      -0.438744       -11.9388
  58   2.0000      -0.432804       -11.7772
  59   2.0000      -0.422794       -11.5048
  60   2.0000      -0.420975       -11.4553
  61   2.0000      -0.416941       -11.3455
  62   2.0000      -0.409558       -11.1446
  63   2.0000      -0.352489        -9.5917
  64   2.0000      -0.334989        -9.1155
  65   2.0000      -0.329588        -8.9686
  66   2.0000      -0.282296        -7.6817
  67   0.0000       0.024797         0.6748
  68   0.0000       0.062900         1.7116
  69   0.0000       0.102229         2.7818
  70   0.0000       0.120104         3.2682
  71   0.0000       0.139257         3.7894

MULLIKEN ATOMIC CHARGES
-----------------------
   0 S :    0.098559
   1 C :   -0.133670
   2 C :   -0.065044
   3 C :    0.032250
   4 C :   -0.159862
   5 H :    0.016723
   6 C :    0.046258
   7 H :    0.037173
   8 H :    0.021369
   9 C :   -0.025717
  10 H :    0.026427
  11 H :    0.038317
  12 C :   -0.097168
  13 H :    0.036966
  14 H :    0.045098
  15 H :    0.024400
  16 S :    0.105124
  17 C :   -0.082100
  18 C :   -0.015422
  19 C :   -0.072190
  20 C :   -0.146883
  21 H :   -0.001527
  22 C :    0.120187
  23 H :    0.028123
  24 H :    0.002611
  25 C :   -0.071044
  26 H :    0.022416
  27 H :    0.009692
  28 C :   -0.045612
  29 H :    0.029825
  30 H :    0.016013
  31 H :    0.048579
  32 H :    0.048460
  33 H :    0.061669
Sum of atomic charges:   -0.0000000

LOEWDIN ATOMIC CHARGES
----------------------
   0 S :    0.379145
   1 C :   -0.185927
   2 C :   -0.065576
   3 C :   -0.063005
   4 C :   -0.176737
   5 H :    0.034423
   6 C :   -0.033869
   7 H :    0.035507
   8 H :    0.034162
   9 C :   -0.038101
  10 H :    0.022240
  11 H :    0.031472
  12 C :   -0.076925
  13 H :    0.030136
  14 H :    0.027820
  15 H :    0.023723
  16 S :    0.418547
  17 C :   -0.198098
  18 C :   -0.065447
  19 C :   -0.048452
  20 C :   -0.208180
  21 H :    0.022721
  22 C :   -0.026020
  23 H :    0.032702
  24 H :    0.021247
  25 C :   -0.038504
  26 H :    0.023170
  27 H :    0.015153
  28 C :   -0.062569
  29 H :    0.026622
  30 H :    0.019090
  31 H :    0.028701
  32 H :    0.026862
  33 H :    0.033966

  Mayer bond orders larger than 0.100000
B(  0-S ,  1-C ) :   1.1241 B(  0-S ,  4-C ) :   1.1388 B(  1-C ,  2-C ) :   1.6099
B(  1-C ,  4-C ) :   0.1035 B(  1-C , 32-H ) :   0.9722 B(  2-C ,  3-C ) :   1.2426
B(  2-C ,  6-C ) :   1.0054 B(  3-C ,  4-C ) :   1.5671 B(  3-C ,  5-H ) :   0.9933
B(  4-C , 20-C ) :   1.0851 B(  6-C ,  7-H ) :   0.9473 B(  6-C ,  8-H ) :   0.9370
B(  6-C ,  9-C ) :   1.0677 B(  9-C , 10-H ) :   0.9577 B(  9-C , 11-H ) :   0.9508
B(  9-C , 12-C ) :   1.0709 B( 12-C , 13-H ) :   0.9744 B( 12-C , 14-H ) :   0.9769
B( 12-C , 15-H ) :   0.9755 B( 16-S , 17-C ) :   1.1691 B( 16-S , 20-C ) :   1.1318
B( 17-C , 18-C ) :   1.6148 B( 17-C , 33-H ) :   0.9568 B( 18-C , 19-C ) :   1.2386
B( 18-C , 21-H ) :   1.0011 B( 19-C , 20-C ) :   1.5593 B( 19-C , 22-C ) :   1.0499
B( 22-C , 23-H ) :   0.9339 B( 22-C , 24-H ) :   0.9295 B( 22-C , 25-C ) :   1.0700
B( 25-C , 26-H ) :   0.9595 B( 25-C , 27-H ) :   0.9540 B( 25-C , 28-C ) :   1.0765
B( 28-C , 29-H ) :   0.9729 B( 28-C , 30-H ) :   0.9752 B( 28-C , 31-H ) :   0.9756

Dispersion correction           -0.014366796
FINAL SINGLE POINT ENERGY     -1339.877791208245

DIPOLE MOMENT
-------------
                                X             Y             Z
Electronic contribution:    -15.05822     -15.30384      10.42507
Nuclear contribution   :     15.54584      15.45988     -10.79651
                        -----------------------------------------
Total Dipole Moment    :      0.48763       0.15605      -0.37144
                        -----------------------------------------
Magnitude (a.u.)       :      0.63254
Magnitude (Debye)      :      1.60778

Rotational constants in cm-1:     0.023319     0.007333     0.006570
Rotational constants in MHz :   699.097563   219.823929   196.969787

                             ****ORCA TERMINATED NORMALLY****
TOTAL RUN TIME: 0 days 0 hours 0 minutes 30 seconds 188 msec
