                         Program Version 4.2.1 -  RELEASE  -
|  1> ! wB97X-D3 SP def2-SVP
|  2> %pal
|  3> nprocs 16
|  4> end
|  5>
|  6> * xyz 0 1
|  7> S 	 49.1579 	 20.7342 	 81.4758
|  8> C 	 49.135 	 21.4044 	 83.0695
|  9> C 	 49.6944 	 20.572 	 84.0279
| 10> C 	 50.1879 	 19.3811 	 83.4471
| 11> C 	 50.1256 	 19.3558 	 82.0413
| 12> H 	 50.5127 	 18.5558 	 84.0738
| 13> C 	 49.7203 	 20.8001 	 85.5258
| 14> H 	 50.2149 	 19.8869 	 85.9509
| 15> H 	 48.6888 	 20.7587 	 85.946
| 16> C 	 50.6054 	 21.9761 	 86.1129
| 17> H 	 50.1568 	 22.9839 	 85.9346
| 18> H 	 50.6236 	 21.8497 	 87.2147
| 19> C 	 52.0108 	 21.8579 	 85.4942
| 20> H 	 52.4835 	 22.7553 	 85.8171
| 21> H 	 52.4695 	 20.9808 	 86.0458
| 22> H 	 52.052 	 21.7684 	 84.3853
| 23> S 	 49.2015 	 17.9294 	 79.9768
| 24> C 	 50.0688 	 16.6014 	 79.3793
| 25> C 	 51.2951 	 16.4718 	 79.9956
| 26> C 	 51.4387 	 17.3119 	 81.1248
| 27> C 	 50.4055 	 18.2057 	 81.2561
| 28> H 	 52.1366 	 15.7836 	 79.6688
| 29> C 	 52.7972 	 17.4414 	 81.8061
| 30> H 	 53.4552 	 16.6982 	 81.3768
| 31> H 	 52.4437 	 17.0625 	 82.8106
| 32> C 	 53.5421 	 18.811 	 82.0218
| 33> H 	 54.4868 	 18.5308 	 82.4954
| 34> H 	 53.092 	 19.4214 	 82.8814
| 35> C 	 53.7456 	 19.7379 	 80.8699
| 36> H 	 54.4603 	 19.2415 	 80.1826
| 37> H 	 54.099 	 20.7545 	 81.2167
| 38> H 	 52.7887 	 19.8114 	 80.3969
| 39> H 	 48.757 	 22.3687 	 83.1475
| 40> H 	 49.7058 	 15.9823 	 78.5613
| 41> *
| 42>
| 43>                          ****END OF INPUT****

CARTESIAN COORDINATES (ANGSTROEM)
---------------------------------
  S     49.157900   20.734200   81.475800
  C     49.135000   21.404400   83.069500
  C     49.694400   20.572000   84.027900
  C     50.187900   19.381100   83.447100
  C     50.125600   19.355800   82.041300
  H     50.512700   18.555800   84.073800
  C     49.720300   20.800100   85.525800
  H     50.214900   19.886900   85.950900
  H     48.688800   20.758700   85.946000
  C     50.605400   21.976100   86.112900
  H     50.156800   22.983900   85.934600
  H     50.623600   21.849700   87.214700
  C     52.010800   21.857900   85.494200
  H     52.483500   22.755300   85.817100
  H     52.469500   20.980800   86.045800
  H     52.052000   21.768400   84.385300
  S     49.201500   17.929400   79.976800
  C     50.068800   16.601400   79.379300
  C     51.295100   16.471800   79.995600
  C     51.438700   17.311900   81.124800
  C     50.405500   18.205700   81.256100
  H     52.136600   15.783600   79.668800
  C     52.797200   17.441400   81.806100
  H     53.455200   16.698200   81.376800
  H     52.443700   17.062500   82.810600
  C     53.542100   18.811000   82.021800
  H     54.486800   18.530800   82.495400
  H     53.092000   19.421400   82.881400
  C     53.745600   19.737900   80.869900
  H     54.460300   19.241500   80.182600
  H     54.099000   20.754500   81.216700
  H     52.788700   19.811400   80.396900
  H     48.757000   22.368700   83.147500
  H     49.705800   15.982300   78.561300

 Total Charge           Charge          ....    0
 Multiplicity           Mult            ....    1
 Number of Electrons    NEL             ....  134
 Basis Dimension        Dim             ....  322

ORBITAL ENERGIES
----------------

  NO   OCC          E(Eh)            E(eV)
   0   2.0000     -88.970255     -2421.0037
   1   2.0000     -88.961821     -2420.7742
   2   2.0000     -10.331306      -281.1291
   3   2.0000     -10.322754      -280.8964
   4   2.0000     -10.313067      -280.6328
   5   2.0000     -10.309746      -280.5424
   6   2.0000     -10.301300      -280.3126
   7   2.0000     -10.299823      -280.2724
   8   2.0000     -10.298521      -280.2370
   9   2.0000     -10.297087      -280.1980
  10   2.0000     -10.296521      -280.1826
  11   2.0000     -10.295007      -280.1414
  12   2.0000     -10.294835      -280.1367
  13   2.0000     -10.287366      -279.9335
  14   2.0000     -10.281023      -279.7609
  15   2.0000     -10.273852      -279.5657
  16   2.0000      -8.084789      -219.9983
  17   2.0000      -8.077636      -219.8036
  18   2.0000      -6.043263      -164.4456
  19   2.0000      -6.039346      -164.3390
  20   2.0000      -6.036002      -164.2480
  21   2.0000      -6.035586      -164.2366
  22   2.0000      -6.032060      -164.1407
  23   2.0000      -6.028397      -164.0410
  24   2.0000      -1.011325       -27.5195
  25   2.0000      -0.986604       -26.8469
  26   2.0000      -0.906733       -24.6735
  27   2.0000      -0.903820       -24.5942
  28   2.0000      -0.871227       -23.7073
  29   2.0000      -0.856527       -23.3073
  30   2.0000      -0.849117       -23.1056
  31   2.0000      -0.806704       -21.9515
  32   2.0000      -0.781641       -21.2695
  33   2.0000      -0.770061       -20.9544
  34   2.0000      -0.707463       -19.2510
  35   2.0000      -0.697182       -18.9713
  36   2.0000      -0.684333       -18.6216
  37   2.0000      -0.667549       -18.1649
  38   2.0000      -0.643844       -17.5199
  39   2.0000      -0.609505       -16.5855
  40   2.0000      -0.583029       -15.8650
  41   2.0000      -0.566232       -15.4080
  42   2.0000      -0.553734       -15.0679
  43   2.0000      -0.551863       -15.0170
  44   2.0000      -0.546328       -14.8664
  45   2.0000      -0.536633       -14.6025
  46   2.0000      -0.513013       -13.9598
  47   2.0000      -0.506856       -13.7923
  48   2.0000      -0.502664       -13.6782
  49   2.0000      -0.498930       -13.5766
  50   2.0000      -0.490211       -13.3393
  51   2.0000      -0.478313       -13.0156
  52   2.0000      -0.472518       -12.8579
  53   2.0000      -0.467688       -12.7264
  54   2.0000      -0.455444       -12.3933
  55   2.0000      -0.451183       -12.2773
  56   2.0000      -0.436961       -11.8903
  57   2.0000      -0.434667       -11.8279
  58   2.0000      -0.430059       -11.7025
  59   2.0000      -0.422420       -11.4946
  60   2.0000      -0.415794       -11.3143
  61   2.0000      -0.412825       -11.2335
  62   2.0000      -0.403478       -10.9792
  63   2.0000      -0.357160        -9.7188
  64   2.0000      -0.333109        -9.0644
  65   2.0000      -0.329118        -8.9557
  66   2.0000      -0.278320        -7.5735
  67   0.0000       0.020451         0.5565
  68   0.0000       0.065936         1.7942
  69   0.0000       0.106077         2.8865
  70   0.0000       0.122648         3.3374
  71   0.0000       0.127113         3.4589

MULLIKEN ATOMIC CHARGES
-----------------------
   0 S :    0.105825
   1 C :   -0.115521
   2 C :   -0.070471
   3 C :    0.004319
   4 C :   -0.118501
   5 H :    0.020952
   6 C :    0.036252
   7 H :    0.011726
   8 H :    0.051212
   9 C :   -0.094777
  10 H :    0.035581
  11 H :    0.041288
  12 C :   -0.070614
  13 H :    0.029287
  14 H :    0.038172
  15 H :    0.073658
  16 S :    0.094210
  17 C :   -0.088111
  18 C :   -0.056084
  19 C :   -0.053702
  20 C :   -0.162327
  21 H :    0.039152
  22 C :    0.039723
  23 H :    0.016973
  24 H :    0.043173
  25 C :   -0.084445
  26 H :    0.021114
  27 H :    0.031140
  28 C :   -0.025476
  29 H :    0.031217
  30 H :    0.047385
  31 H :    0.037387
  32 H :    0.028519
  33 H :    0.061760
Sum of atomic charges:   -0.0000000

LOEWDIN ATOMIC CHARGES
----------------------
   0 S :    0.408462
   1 C :   -0.188100
   2 C :   -0.068691
   3 C :   -0.057911
   4 C :   -0.192063
   5 H :    0.031809
   6 C :   -0.040495
   7 H :    0.029908
   8 H :    0.035368
   9 C :   -0.041779
  10 H :    0.020244
  11 H :    0.028952
  12 C :   -0.069115
  13 H :    0.021274
  14 H :    0.032881
  15 H :    0.034171
  16 S :    0.412635
  17 C :   -0.201202
  18 C :   -0.083013
  19 C :   -0.068780
  20 C :   -0.186993
  21 H :    0.041207
  22 C :   -0.033752
  23 H :    0.025525
  24 H :    0.046412
  25 C :   -0.053693
  26 H :    0.022751
  27 H :    0.029483
  28 C :   -0.066208
  29 H :    0.026509
  30 H :    0.036611
  31 H :    0.024809
  32 H :    0.011601
  33 H :    0.031182

  Mayer bond orders larger than 0.100000
B(  0-S ,  1-C ) :   1.1535 B(  0-S ,  4-C ) :   1.1492 B(  1-C ,  2-C ) :   1.5476
B(  1-C ,  4-C ) :   0.1004 B(  1-C , 32-H ) :   0.9858 B(  2-C ,  3-C ) :   1.2976
B(  2-C ,  6-C ) :   1.0176 B(  3-C ,  4-C ) :   1.5122 B(  3-C ,  5-H ) :   0.9859
B(  4-C , 20-C ) :   1.1031 B(  6-C ,  7-H ) :   0.9422 B(  6-C ,  8-H ) :   0.9413
B(  6-C ,  9-C ) :   1.0578 B(  9-C , 10-H ) :   0.9607 B(  9-C , 11-H ) :   0.9595
B(  9-C , 12-C ) :   1.0615 B( 12-C , 13-H ) :   0.9734 B( 12-C , 14-H ) :   0.9775
B( 12-C , 15-H ) :   0.9701 B( 16-S , 17-C ) :   1.1742 B( 16-S , 20-C ) :   1.1251
B( 17-C , 18-C ) :   1.5742 B( 17-C , 33-H ) :   0.9686 B( 18-C , 19-C ) :   1.2722
B( 18-C , 21-H ) :   0.9771 B( 19-C , 20-C ) :   1.5770 B( 19-C , 22-C ) :   1.0226
B( 22-C , 23-H ) :   0.9444 B( 22-C , 24-H ) :   0.9267 B( 22-C , 25-C ) :   1.0636
B( 25-C , 26-H ) :   0.9474 B( 25-C , 27-H ) :   0.9465 B( 25-C , 28-C ) :   1.0810
B( 28-C , 29-H ) :   0.9747 B( 28-C , 30-H ) :   0.9708 B( 28-C , 31-H ) :   0.9725

Dispersion correction           -0.015880857
FINAL SINGLE POINT ENERGY     -1339.868453713614

DIPOLE MOMENT
-------------
                                X             Y             Z
Electronic contribution:    -19.72529      -6.85792     -17.75832
Nuclear contribution   :     20.05764       6.86479      18.20767
                        -----------------------------------------
Total Dipole Moment    :      0.33236       0.00687       0.44935
                        -----------------------------------------
Magnitude (a.u.)       :      0.55895
Magnitude (Debye)      :      1.42074

Rotational constants in cm-1:     0.021504     0.009481     0.007611
Rotational constants in MHz :   644.676299   284.234485   228.177401

                             ****ORCA TERMINATED NORMALLY****
TOTAL RUN TIME: 0 days 0 hours 0 minutes 30 seconds 942 msec
