                         Program Version 4.2.1 -  RELEASE  -
|  1> ! wB97X-D3 SP def2-SVP
|  2> %pal
|  3> nprocs 16
|  4> end
|  5>
|  6> * xyz 0 1
|  7> S 	 6.54611 	 -21.1953 	 85.044
|  8> C 	 7.25204 	 -21.9127 	 86.4773
|  9> C 	 7.38535 	 -20.9193 	 87.4672
| 10> C 	 6.90015 	 -19.656 	 87.0118
| 11> C 	 6.51496 	 -19.6627 	 85.7013
| 12> H 	 6.90793 	 -18.7257 	 87.6348
| 13> C 	 7.74256 	 -21.1912 	 88.9011
| 14> H 	 8.56962 	 -20.5417 	 89.226
| 15> H 	 8.10564 	 -22.2588 	 88.8462
| 16> C 	 6.61953 	 -21.1199 	 89.9808
| 17> H 	 7.0191 	 -21.2238 	 91.0052
| 18> H 	 6.16024 	 -20.0963 	 90.0325
| 19> C 	 5.47084 	 -22.0735 	 89.7018
| 20> H 	 5.05511 	 -21.7774 	 88.7932
| 21> H 	 5.69524 	 -23.1369 	 89.767
| 22> H 	 4.6633 	 -21.8831 	 90.3936
| 23> S 	 6.67448 	 -18.3776 	 83.3725
| 24> C 	 5.455 	 -17.2564 	 82.9305
| 25> C 	 4.80149 	 -16.7642 	 84.02
| 26> C 	 5.04031 	 -17.525 	 85.2565
| 27> C 	 6.02426 	 -18.4743 	 84.9683
| 28> H 	 4.03944 	 -16.017 	 83.9915
| 29> C 	 4.37704 	 -17.2536 	 86.6196
| 30> H 	 4.70766 	 -18.0389 	 87.2456
| 31> H 	 3.29044 	 -17.3384 	 86.4702
| 32> C 	 4.80991 	 -15.9492 	 87.3347
| 33> H 	 4.43854 	 -15.9793 	 88.3484
| 34> H 	 4.30686 	 -15.1441 	 86.7877
| 35> C 	 6.30428 	 -15.5944 	 87.3986
| 36> H 	 6.79132 	 -15.5133 	 86.4715
| 37> H 	 6.84127 	 -16.4529 	 87.7341
| 38> H 	 6.51017 	 -14.66 	 87.898
| 39> H 	 7.50381 	 -22.9743 	 86.4945
| 40> H 	 5.45635 	 -16.7771 	 81.9528
| 41> *
| 42>
| 43>                          ****END OF INPUT****

CARTESIAN COORDINATES (ANGSTROEM)
---------------------------------
  S      6.546110  -21.195300   85.044000
  C      7.252040  -21.912700   86.477300
  C      7.385350  -20.919300   87.467200
  C      6.900150  -19.656000   87.011800
  C      6.514960  -19.662700   85.701300
  H      6.907930  -18.725700   87.634800
  C      7.742560  -21.191200   88.901100
  H      8.569620  -20.541700   89.226000
  H      8.105640  -22.258800   88.846200
  C      6.619530  -21.119900   89.980800
  H      7.019100  -21.223800   91.005200
  H      6.160240  -20.096300   90.032500
  C      5.470840  -22.073500   89.701800
  H      5.055110  -21.777400   88.793200
  H      5.695240  -23.136900   89.767000
  H      4.663300  -21.883100   90.393600
  S      6.674480  -18.377600   83.372500
  C      5.455000  -17.256400   82.930500
  C      4.801490  -16.764200   84.020000
  C      5.040310  -17.525000   85.256500
  C      6.024260  -18.474300   84.968300
  H      4.039440  -16.017000   83.991500
  C      4.377040  -17.253600   86.619600
  H      4.707660  -18.038900   87.245600
  H      3.290440  -17.338400   86.470200
  C      4.809910  -15.949200   87.334700
  H      4.438540  -15.979300   88.348400
  H      4.306860  -15.144100   86.787700
  C      6.304280  -15.594400   87.398600
  H      6.791320  -15.513300   86.471500
  H      6.841270  -16.452900   87.734100
  H      6.510170  -14.660000   87.898000
  H      7.503810  -22.974300   86.494500
  H      5.456350  -16.777100   81.952800

 Total Charge           Charge          ....    0
 Multiplicity           Mult            ....    1
 Number of Electrons    NEL             ....  134
 Basis Dimension        Dim             ....  322

ORBITAL ENERGIES
----------------

  NO   OCC          E(Eh)            E(eV)
   0   2.0000     -88.966026     -2420.8886
   1   2.0000     -88.962932     -2420.8045
   2   2.0000     -10.325203      -280.9630
   3   2.0000     -10.321507      -280.8625
   4   2.0000     -10.317400      -280.7507
   5   2.0000     -10.312608      -280.6203
   6   2.0000     -10.308363      -280.5048
   7   2.0000     -10.303131      -280.3625
   8   2.0000     -10.296000      -280.1684
   9   2.0000     -10.295566      -280.1566
  10   2.0000     -10.294081      -280.1162
  11   2.0000     -10.292210      -280.0653
  12   2.0000     -10.290941      -280.0308
  13   2.0000     -10.289686      -279.9966
  14   2.0000     -10.270262      -279.4680
  15   2.0000     -10.266827      -279.3746
  16   2.0000      -8.082273      -219.9298
  17   2.0000      -8.079246      -219.8475
  18   2.0000      -6.040636      -164.3741
  19   2.0000      -6.037659      -164.2930
  20   2.0000      -6.036407      -164.2590
  21   2.0000      -6.033627      -164.1833
  22   2.0000      -6.033223      -164.1723
  23   2.0000      -6.029905      -164.0821
  24   2.0000      -1.015572       -27.6351
  25   2.0000      -0.989855       -26.9353
  26   2.0000      -0.910758       -24.7830
  27   2.0000      -0.908876       -24.7318
  28   2.0000      -0.867190       -23.5974
  29   2.0000      -0.851799       -23.1786
  30   2.0000      -0.845788       -23.0150
  31   2.0000      -0.814842       -22.1730
  32   2.0000      -0.788998       -21.4697
  33   2.0000      -0.776107       -21.1189
  34   2.0000      -0.709576       -19.3086
  35   2.0000      -0.698633       -19.0108
  36   2.0000      -0.689724       -18.7683
  37   2.0000      -0.659091       -17.9348
  38   2.0000      -0.638220       -17.3669
  39   2.0000      -0.620393       -16.8817
  40   2.0000      -0.594905       -16.1882
  41   2.0000      -0.563982       -15.3467
  42   2.0000      -0.560271       -15.2457
  43   2.0000      -0.548777       -14.9330
  44   2.0000      -0.546589       -14.8735
  45   2.0000      -0.544265       -14.8102
  46   2.0000      -0.517781       -14.0895
  47   2.0000      -0.513583       -13.9753
  48   2.0000      -0.504673       -13.7328
  49   2.0000      -0.496970       -13.5232
  50   2.0000      -0.487447       -13.2641
  51   2.0000      -0.479377       -13.0445
  52   2.0000      -0.471294       -12.8246
  53   2.0000      -0.464556       -12.6412
  54   2.0000      -0.457074       -12.4376
  55   2.0000      -0.450156       -12.2494
  56   2.0000      -0.445634       -12.1263
  57   2.0000      -0.443121       -12.0579
  58   2.0000      -0.435275       -11.8444
  59   2.0000      -0.426094       -11.5946
  60   2.0000      -0.419899       -11.4260
  61   2.0000      -0.414424       -11.2770
  62   2.0000      -0.410444       -11.1687
  63   2.0000      -0.346164        -9.4196
  64   2.0000      -0.334082        -9.0908
  65   2.0000      -0.326286        -8.8787
  66   2.0000      -0.294997        -8.0273
  67   0.0000       0.034698         0.9442
  68   0.0000       0.076973         2.0945
  69   0.0000       0.109137         2.9698
  70   0.0000       0.120373         3.2755
  71   0.0000       0.128276         3.4906

MULLIKEN ATOMIC CHARGES
-----------------------
   0 S :    0.128865
   1 C :   -0.149858
   2 C :   -0.087025
   3 C :   -0.005799
   4 C :   -0.113102
   5 H :    0.016901
   6 C :    0.060029
   7 H :    0.038893
   8 H :    0.022359
   9 C :   -0.087871
  10 H :    0.031937
  11 H :    0.023849
  12 C :   -0.021121
  13 H :    0.027377
  14 H :    0.034043
  15 H :    0.018985
  16 S :    0.109852
  17 C :   -0.089263
  18 C :   -0.014388
  19 C :   -0.076873
  20 C :   -0.186622
  21 H :    0.008026
  22 C :    0.097434
  23 H :    0.003646
  24 H :    0.043406
  25 C :   -0.074984
  26 H :    0.036193
  27 H :    0.026677
  28 C :   -0.012904
  29 H :    0.020213
  30 H :    0.006762
  31 H :    0.041401
  32 H :    0.060230
  33 H :    0.062733
Sum of atomic charges:   -0.0000000

LOEWDIN ATOMIC CHARGES
----------------------
   0 S :    0.447766
   1 C :   -0.205640
   2 C :   -0.064403
   3 C :   -0.081074
   4 C :   -0.225973
   5 H :    0.033231
   6 C :   -0.038074
   7 H :    0.033216
   8 H :    0.034691
   9 C :   -0.042816
  10 H :    0.025026
  11 H :    0.025581
  12 C :   -0.062253
  13 H :    0.020690
  14 H :    0.024418
  15 H :    0.026066
  16 S :    0.423683
  17 C :   -0.198050
  18 C :   -0.065589
  19 C :   -0.051789
  20 C :   -0.200274
  21 H :    0.023936
  22 C :   -0.026758
  23 H :    0.022336
  24 H :    0.038438
  25 C :   -0.034679
  26 H :    0.025716
  27 H :    0.021576
  28 C :   -0.064589
  29 H :    0.023569
  30 H :    0.020240
  31 H :    0.030925
  32 H :    0.030508
  33 H :    0.030349

  Mayer bond orders larger than 0.100000
B(  0-S ,  1-C ) :   1.1500 B(  0-S ,  4-C ) :   1.1940 B(  1-C ,  2-C ) :   1.5540
B(  1-C , 32-H ) :   0.9724 B(  2-C ,  3-C ) :   1.2678 B(  2-C ,  6-C ) :   1.0367
B(  3-C ,  4-C ) :   1.5367 B(  3-C ,  5-H ) :   0.9900 B(  4-C , 20-C ) :   0.9977
B(  6-C ,  7-H ) :   0.9353 B(  6-C ,  8-H ) :   0.9418 B(  6-C ,  9-C ) :   1.0658
B(  9-C , 10-H ) :   0.9573 B(  9-C , 11-H ) :   0.9539 B(  9-C , 12-C ) :   1.0771
B( 12-C , 13-H ) :   0.9726 B( 12-C , 14-H ) :   0.9769 B( 12-C , 15-H ) :   0.9694
B( 16-S , 17-C ) :   1.1467 B( 16-S , 20-C ) :   1.1657 B( 17-C , 18-C ) :   1.6199
B( 17-C , 33-H ) :   0.9661 B( 18-C , 19-C ) :   1.2216 B( 18-C , 21-H ) :   0.9895
B( 19-C , 20-C ) :   1.6028 B( 19-C , 22-C ) :   1.0421 B( 22-C , 23-H ) :   0.9266
B( 22-C , 24-H ) :   0.9345 B( 22-C , 25-C ) :   1.0681 B( 25-C , 26-H ) :   0.9586
B( 25-C , 27-H ) :   0.9556 B( 25-C , 28-C ) :   1.0790 B( 28-C , 29-H ) :   0.9620
B( 28-C , 30-H ) :   0.9706 B( 28-C , 31-H ) :   0.9714

Dispersion correction           -0.015502959
FINAL SINGLE POINT ENERGY     -1339.880813908994

DIPOLE MOMENT
-------------
                                X             Y             Z
Electronic contribution:      4.70277      -5.66375     -26.51799
Nuclear contribution   :     -4.91526       5.92431      27.00302
                        -----------------------------------------
Total Dipole Moment    :     -0.21250       0.26056       0.48503
                        -----------------------------------------
Magnitude (a.u.)       :      0.59017
Magnitude (Debye)      :      1.50008

Rotational constants in cm-1:     0.019444     0.009783     0.007278
Rotational constants in MHz :   582.919450   293.292387   218.192691

                             ****ORCA TERMINATED NORMALLY****
TOTAL RUN TIME: 0 days 0 hours 0 minutes 35 seconds 640 msec
