                         Program Version 4.2.1 -  RELEASE  -
|  1> ! wB97X-D3 SP def2-SVP
|  2> %pal
|  3> nprocs 16
|  4> end
|  5>
|  6> * xyz 0 1
|  7> S 	 -11.6509 	 39.75 	 31.2262
|  8> C 	 -11.8449 	 38.2855 	 32.1878
|  9> C 	 -12.659 	 37.362 	 31.5397
| 10> C 	 -13.0347 	 37.7943 	 30.2679
| 11> C 	 -12.6278 	 39.0788 	 29.8828
| 12> H 	 -13.5868 	 37.2717 	 29.5034
| 13> C 	 -13.1011 	 36.0036 	 32.0587
| 14> H 	 -12.5958 	 35.8707 	 33.0455
| 15> H 	 -12.8472 	 35.2158 	 31.282
| 16> C 	 -14.6062 	 35.9995 	 32.3561
| 17> H 	 -15.184 	 36.2534 	 31.461
| 18> H 	 -14.9962 	 35.0098 	 32.6757
| 19> C 	 -15.0654 	 37.0847 	 33.3966
| 20> H 	 -14.7257 	 38.0801 	 32.9885
| 21> H 	 -16.1805 	 37.1715 	 33.5969
| 22> H 	 -14.5069 	 36.977 	 34.3568
| 23> S 	 -11.247 	 40.3893 	 27.868
| 24> C 	 -12.0844 	 40.7197 	 26.3466
| 25> C 	 -13.4092 	 40.5246 	 26.495
| 26> C 	 -13.8069 	 39.9092 	 27.7239
| 27> C 	 -12.7307 	 39.8237 	 28.644
| 28> H 	 -14.1033 	 40.6825 	 25.6727
| 29> C 	 -15.287 	 39.5394 	 28.0289
| 30> H 	 -15.8244 	 40.4788 	 27.9482
| 31> H 	 -15.2916 	 39.2542 	 29.0067
| 32> C 	 -15.9756 	 38.4737 	 27.0829
| 33> H 	 -15.5513 	 37.5282 	 27.3325
| 34> H 	 -15.7571 	 38.7362 	 26.0431
| 35> C 	 -17.4764 	 38.2623 	 27.4607
| 36> H 	 -17.9501 	 39.1675 	 27.0606
| 37> H 	 -17.5055 	 38.221 	 28.5555
| 38> H 	 -18.0221 	 37.3438 	 27.0236
| 39> H 	 -11.6316 	 38.2311 	 33.2905
| 40> H 	 -11.5809 	 41.3148 	 25.5969
| 41> *
| 42>
| 43>                          ****END OF INPUT****

CARTESIAN COORDINATES (ANGSTROEM)
---------------------------------
  S    -11.650900   39.750000   31.226200
  C    -11.844900   38.285500   32.187800
  C    -12.659000   37.362000   31.539700
  C    -13.034700   37.794300   30.267900
  C    -12.627800   39.078800   29.882800
  H    -13.586800   37.271700   29.503400
  C    -13.101100   36.003600   32.058700
  H    -12.595800   35.870700   33.045500
  H    -12.847200   35.215800   31.282000
  C    -14.606200   35.999500   32.356100
  H    -15.184000   36.253400   31.461000
  H    -14.996200   35.009800   32.675700
  C    -15.065400   37.084700   33.396600
  H    -14.725700   38.080100   32.988500
  H    -16.180500   37.171500   33.596900
  H    -14.506900   36.977000   34.356800
  S    -11.247000   40.389300   27.868000
  C    -12.084400   40.719700   26.346600
  C    -13.409200   40.524600   26.495000
  C    -13.806900   39.909200   27.723900
  C    -12.730700   39.823700   28.644000
  H    -14.103300   40.682500   25.672700
  C    -15.287000   39.539400   28.028900
  H    -15.824400   40.478800   27.948200
  H    -15.291600   39.254200   29.006700
  C    -15.975600   38.473700   27.082900
  H    -15.551300   37.528200   27.332500
  H    -15.757100   38.736200   26.043100
  C    -17.476400   38.262300   27.460700
  H    -17.950100   39.167500   27.060600
  H    -17.505500   38.221000   28.555500
  H    -18.022100   37.343800   27.023600
  H    -11.631600   38.231100   33.290500
  H    -11.580900   41.314800   25.596900

 Total Charge           Charge          ....    0
 Multiplicity           Mult            ....    1
 Number of Electrons    NEL             ....  134
 Basis Dimension        Dim             ....  322

ORBITAL ENERGIES
----------------

  NO   OCC          E(Eh)            E(eV)
   0   2.0000     -88.966706     -2420.9071
   1   2.0000     -88.964452     -2420.8458
   2   2.0000     -10.336448      -281.2690
   3   2.0000     -10.333514      -281.1892
   4   2.0000     -10.321763      -280.8694
   5   2.0000     -10.319196      -280.7996
   6   2.0000     -10.311496      -280.5901
   7   2.0000     -10.305118      -280.4165
   8   2.0000     -10.303242      -280.3655
   9   2.0000     -10.295910      -280.1659
  10   2.0000     -10.295555      -280.1563
  11   2.0000     -10.293401      -280.0977
  12   2.0000     -10.292778      -280.0807
  13   2.0000     -10.292069      -280.0614
  14   2.0000     -10.291391      -280.0430
  15   2.0000     -10.288160      -279.9551
  16   2.0000      -8.080592      -219.8841
  17   2.0000      -8.079012      -219.8411
  18   2.0000      -6.039073      -164.3315
  19   2.0000      -6.037660      -164.2931
  20   2.0000      -6.035141      -164.2245
  21   2.0000      -6.033496      -164.1798
  22   2.0000      -6.031505      -164.1256
  23   2.0000      -6.029658      -164.0753
  24   2.0000      -1.004170       -27.3248
  25   2.0000      -0.983385       -26.7593
  26   2.0000      -0.911058       -24.7912
  27   2.0000      -0.904603       -24.6155
  28   2.0000      -0.869920       -23.6717
  29   2.0000      -0.849289       -23.1103
  30   2.0000      -0.841043       -22.8859
  31   2.0000      -0.813989       -22.1498
  32   2.0000      -0.780400       -21.2358
  33   2.0000      -0.769583       -20.9414
  34   2.0000      -0.709261       -19.3000
  35   2.0000      -0.701645       -19.0927
  36   2.0000      -0.690671       -18.7941
  37   2.0000      -0.658600       -17.9214
  38   2.0000      -0.641681       -17.4610
  39   2.0000      -0.620539       -16.8857
  40   2.0000      -0.599522       -16.3138
  41   2.0000      -0.571486       -15.5509
  42   2.0000      -0.564879       -15.3712
  43   2.0000      -0.549587       -14.9550
  44   2.0000      -0.536762       -14.6060
  45   2.0000      -0.526310       -14.3216
  46   2.0000      -0.517618       -14.0851
  47   2.0000      -0.513990       -13.9864
  48   2.0000      -0.505538       -13.7564
  49   2.0000      -0.494046       -13.4437
  50   2.0000      -0.482924       -13.1410
  51   2.0000      -0.480854       -13.0847
  52   2.0000      -0.470609       -12.8059
  53   2.0000      -0.465401       -12.6642
  54   2.0000      -0.455022       -12.3818
  55   2.0000      -0.453358       -12.3365
  56   2.0000      -0.443201       -12.0601
  57   2.0000      -0.436386       -11.8747
  58   2.0000      -0.434972       -11.8362
  59   2.0000      -0.425301       -11.5730
  60   2.0000      -0.421227       -11.4622
  61   2.0000      -0.415027       -11.2935
  62   2.0000      -0.412732       -11.2310
  63   2.0000      -0.354641        -9.6503
  64   2.0000      -0.334700        -9.1076
  65   2.0000      -0.329886        -8.9767
  66   2.0000      -0.291186        -7.9236
  67   0.0000       0.020903         0.5688
  68   0.0000       0.065254         1.7756
  69   0.0000       0.110333         3.0023
  70   0.0000       0.117538         3.1984
  71   0.0000       0.123492         3.3604

MULLIKEN ATOMIC CHARGES
-----------------------
   0 S :    0.092236
   1 C :   -0.128199
   2 C :   -0.114726
   3 C :    0.041200
   4 C :   -0.180983
   5 H :    0.005575
   6 C :    0.080075
   7 H :    0.026949
   8 H :    0.059935
   9 C :   -0.083867
  10 H :    0.027369
  11 H :    0.037809
  12 C :   -0.114257
  13 H :    0.049849
  14 H :    0.055049
  15 H :    0.031015
  16 S :    0.090824
  17 C :   -0.091153
  18 C :   -0.015983
  19 C :   -0.072680
  20 C :   -0.120313
  21 H :    0.023906
  22 C :    0.090983
  23 H :    0.033078
  24 H :   -0.006285
  25 C :   -0.069500
  26 H :    0.021706
  27 H :    0.037512
  28 C :   -0.082466
  29 H :    0.036611
  30 H :    0.039539
  31 H :    0.058574
  32 H :    0.072869
  33 H :    0.067748
Sum of atomic charges:    0.0000000

LOEWDIN ATOMIC CHARGES
----------------------
   0 S :    0.385815
   1 C :   -0.202950
   2 C :   -0.072931
   3 C :   -0.063057
   4 C :   -0.177142
   5 H :    0.029544
   6 C :   -0.029354
   7 H :    0.033512
   8 H :    0.045509
   9 C :   -0.047741
  10 H :    0.021125
  11 H :    0.024335
  12 C :   -0.080700
  13 H :    0.030647
  14 H :    0.034321
  15 H :    0.021902
  16 S :    0.391980
  17 C :   -0.172856
  18 C :   -0.073660
  19 C :   -0.047692
  20 C :   -0.203544
  21 H :    0.032699
  22 C :   -0.018976
  23 H :    0.033408
  24 H :    0.012284
  25 C :   -0.035155
  26 H :    0.017290
  27 H :    0.021950
  28 C :   -0.071713
  29 H :    0.024648
  30 H :    0.027171
  31 H :    0.037396
  32 H :    0.040986
  33 H :    0.030949

  Mayer bond orders larger than 0.100000
B(  0-S ,  1-C ) :   1.1471 B(  0-S ,  4-C ) :   1.1482 B(  1-C ,  2-C ) :   1.5948
B(  1-C ,  4-C ) :   0.1093 B(  1-C , 32-H ) :   0.9543 B(  2-C ,  3-C ) :   1.2480
B(  2-C ,  6-C ) :   1.0178 B(  3-C ,  4-C ) :   1.5659 B(  3-C ,  5-H ) :   0.9923
B(  4-C , 20-C ) :   1.0415 B(  6-C ,  7-H ) :   0.9410 B(  6-C ,  8-H ) :   0.9429
B(  6-C ,  9-C ) :   1.0610 B(  9-C , 10-H ) :   0.9576 B(  9-C , 11-H ) :   0.9606
B(  9-C , 12-C ) :   1.0574 B( 12-C , 13-H ) :   0.9721 B( 12-C , 14-H ) :   0.9754
B( 12-C , 15-H ) :   0.9767 B( 16-S , 17-C ) :   1.1476 B( 16-S , 20-C ) :   1.1399
B( 17-C , 18-C ) :   1.6119 B( 17-C , 33-H ) :   0.9644 B( 18-C , 19-C ) :   1.2484
B( 18-C , 21-H ) :   0.9851 B( 19-C , 20-C ) :   1.5776 B( 19-C , 22-C ) :   1.0340
B( 22-C , 23-H ) :   0.9416 B( 22-C , 24-H ) :   0.9308 B( 22-C , 25-C ) :   1.0496
B( 25-C , 26-H ) :   0.9572 B( 25-C , 27-H ) :   0.9638 B( 25-C , 28-C ) :   1.0628
B( 28-C , 29-H ) :   0.9797 B( 28-C , 30-H ) :   0.9735 B( 28-C , 31-H ) :   0.9763

Dispersion correction           -0.014510722
FINAL SINGLE POINT ENERGY     -1339.877144995755

DIPOLE MOMENT
-------------
                                X             Y             Z
Electronic contribution:     26.13928      15.29364      -4.32524
Nuclear contribution   :    -26.77819     -15.61394       4.14889
                        -----------------------------------------
Total Dipole Moment    :     -0.63892      -0.32030      -0.17635
                        -----------------------------------------
Magnitude (a.u.)       :      0.73614
Magnitude (Debye)      :      1.87113

Rotational constants in cm-1:     0.016404     0.009950     0.006688
Rotational constants in MHz :   491.786776   298.279662   200.491576

                             ****ORCA TERMINATED NORMALLY****
TOTAL RUN TIME: 0 days 0 hours 0 minutes 34 seconds 344 msec
