                         Program Version 4.2.1 -  RELEASE  -
|  1> ! wB97X-D3 SP def2-SVP
|  2> %pal
|  3> nprocs 16
|  4> end
|  5>
|  6> * xyz 0 1
|  7> S 	 -58.3612 	 52.657 	 133.956
|  8> C 	 -57.1066 	 51.4086 	 133.882
|  9> C 	 -57.6511 	 50.2292 	 134.419
| 10> C 	 -59.0503 	 50.2881 	 134.821
| 11> C 	 -59.5874 	 51.5479 	 134.583
| 12> H 	 -59.7028 	 49.4658 	 135.224
| 13> C 	 -57.0144 	 48.7926 	 134.413
| 14> H 	 -56.5618 	 48.7266 	 133.435
| 15> H 	 -57.8004 	 48.0268 	 134.563
| 16> C 	 -56.0324 	 48.5783 	 135.526
| 17> H 	 -56.5095 	 48.7975 	 136.476
| 18> H 	 -55.6848 	 47.563 	 135.514
| 19> C 	 -54.6641 	 49.2657 	 135.361
| 20> H 	 -53.8667 	 48.7664 	 135.973
| 21> H 	 -54.2932 	 49.1896 	 134.36
| 22> H 	 -54.5667 	 50.333 	 135.572
| 23> S 	 -62.171 	 51.5394 	 133.668
| 24> C 	 -63.3168 	 52.5401 	 134.4
| 25> C 	 -62.8325 	 53.2456 	 135.488
| 26> C 	 -61.4711 	 52.9027 	 135.823
| 27> C 	 -60.9569 	 52.0007 	 134.897
| 28> H 	 -63.3786 	 53.9556 	 135.951
| 29> C 	 -60.6367 	 53.6909 	 136.891
| 30> H 	 -59.5654 	 53.4961 	 136.777
| 31> H 	 -60.9644 	 53.2968 	 137.88
| 32> C 	 -60.8747 	 55.2129 	 136.997
| 33> H 	 -61.7131 	 55.384 	 137.637
| 34> H 	 -61.1061 	 55.6394 	 136.002
| 35> C 	 -59.6084 	 55.9443 	 137.625
| 36> H 	 -59.3637 	 55.6298 	 138.61
| 37> H 	 -59.7519 	 57.0295 	 137.62
| 38> H 	 -58.7673 	 55.7281 	 136.911
| 39> H 	 -56.0661 	 51.5067 	 133.55
| 40> H 	 -64.3053 	 52.689 	 134.029
| 41> *
| 42>
| 43>                          ****END OF INPUT****

CARTESIAN COORDINATES (ANGSTROEM)
---------------------------------
  S    -58.361200   52.657000  133.956000
  C    -57.106600   51.408600  133.882000
  C    -57.651100   50.229200  134.419000
  C    -59.050300   50.288100  134.821000
  C    -59.587400   51.547900  134.583000
  H    -59.702800   49.465800  135.224000
  C    -57.014400   48.792600  134.413000
  H    -56.561800   48.726600  133.435000
  H    -57.800400   48.026800  134.563000
  C    -56.032400   48.578300  135.526000
  H    -56.509500   48.797500  136.476000
  H    -55.684800   47.563000  135.514000
  C    -54.664100   49.265700  135.361000
  H    -53.866700   48.766400  135.973000
  H    -54.293200   49.189600  134.360000
  H    -54.566700   50.333000  135.572000
  S    -62.171000   51.539400  133.668000
  C    -63.316800   52.540100  134.400000
  C    -62.832500   53.245600  135.488000
  C    -61.471100   52.902700  135.823000
  C    -60.956900   52.000700  134.897000
  H    -63.378600   53.955600  135.951000
  C    -60.636700   53.690900  136.891000
  H    -59.565400   53.496100  136.777000
  H    -60.964400   53.296800  137.880000
  C    -60.874700   55.212900  136.997000
  H    -61.713100   55.384000  137.637000
  H    -61.106100   55.639400  136.002000
  C    -59.608400   55.944300  137.625000
  H    -59.363700   55.629800  138.610000
  H    -59.751900   57.029500  137.620000
  H    -58.767300   55.728100  136.911000
  H    -56.066100   51.506700  133.550000
  H    -64.305300   52.689000  134.029000

 Total Charge           Charge          ....    0
 Multiplicity           Mult            ....    1
 Number of Electrons    NEL             ....  134
 Basis Dimension        Dim             ....  322

ORBITAL ENERGIES
----------------

  NO   OCC          E(Eh)            E(eV)
   0   2.0000     -88.967351     -2420.9247
   1   2.0000     -88.965169     -2420.8653
   2   2.0000     -10.331056      -281.1223
   3   2.0000     -10.326881      -281.0087
   4   2.0000     -10.321386      -280.8592
   5   2.0000     -10.311903      -280.6011
   6   2.0000     -10.310230      -280.5556
   7   2.0000     -10.307138      -280.4715
   8   2.0000     -10.300043      -280.2784
   9   2.0000     -10.297076      -280.1977
  10   2.0000     -10.291752      -280.0528
  11   2.0000     -10.289647      -279.9955
  12   2.0000     -10.286167      -279.9008
  13   2.0000     -10.282595      -279.8036
  14   2.0000     -10.281663      -279.7783
  15   2.0000     -10.276399      -279.6350
  16   2.0000      -8.080868      -219.8916
  17   2.0000      -8.080583      -219.8838
  18   2.0000      -6.039570      -164.3450
  19   2.0000      -6.038966      -164.3286
  20   2.0000      -6.035363      -164.2306
  21   2.0000      -6.034970      -164.2199
  22   2.0000      -6.031679      -164.1303
  23   2.0000      -6.031456      -164.1243
  24   2.0000      -1.000934       -27.2368
  25   2.0000      -0.978103       -26.6155
  26   2.0000      -0.909705       -24.7543
  27   2.0000      -0.901298       -24.5256
  28   2.0000      -0.863874       -23.5072
  29   2.0000      -0.847681       -23.0666
  30   2.0000      -0.840612       -22.8742
  31   2.0000      -0.808129       -21.9903
  32   2.0000      -0.781289       -21.2600
  33   2.0000      -0.772521       -21.0214
  34   2.0000      -0.702998       -19.1295
  35   2.0000      -0.697446       -18.9785
  36   2.0000      -0.692254       -18.8372
  37   2.0000      -0.659882       -17.9563
  38   2.0000      -0.635940       -17.3048
  39   2.0000      -0.611132       -16.6297
  40   2.0000      -0.597383       -16.2556
  41   2.0000      -0.569151       -15.4874
  42   2.0000      -0.566630       -15.4188
  43   2.0000      -0.548080       -14.9140
  44   2.0000      -0.540640       -14.7116
  45   2.0000      -0.521491       -14.1905
  46   2.0000      -0.516394       -14.0518
  47   2.0000      -0.511411       -13.9162
  48   2.0000      -0.503243       -13.6939
  49   2.0000      -0.495461       -13.4822
  50   2.0000      -0.483447       -13.1553
  51   2.0000      -0.474007       -12.8984
  52   2.0000      -0.467304       -12.7160
  53   2.0000      -0.463181       -12.6038
  54   2.0000      -0.458731       -12.4827
  55   2.0000      -0.451783       -12.2936
  56   2.0000      -0.439937       -11.9713
  57   2.0000      -0.435279       -11.8445
  58   2.0000      -0.431517       -11.7422
  59   2.0000      -0.427105       -11.6221
  60   2.0000      -0.423601       -11.5268
  61   2.0000      -0.419292       -11.4095
  62   2.0000      -0.401823       -10.9342
  63   2.0000      -0.334725        -9.1083
  64   2.0000      -0.330650        -8.9974
  65   2.0000      -0.322726        -8.7818
  66   2.0000      -0.305386        -8.3100
  67   0.0000       0.042368         1.1529
  68   0.0000       0.055384         1.5071
  69   0.0000       0.111266         3.0277
  70   0.0000       0.116465         3.1692
  71   0.0000       0.123220         3.3530

MULLIKEN ATOMIC CHARGES
-----------------------
   0 S :    0.112904
   1 C :   -0.128205
   2 C :   -0.097968
   3 C :    0.018714
   4 C :   -0.158168
   5 H :    0.043491
   6 C :    0.056104
   7 H :    0.028876
   8 H :    0.031843
   9 C :   -0.032435
  10 H :    0.031500
  11 H :    0.025309
  12 C :   -0.080432
  13 H :    0.034087
  14 H :    0.010946
  15 H :    0.033052
  16 S :    0.121806
  17 C :   -0.067435
  18 C :   -0.008619
  19 C :   -0.004677
  20 C :   -0.209967
  21 H :   -0.027180
  22 C :    0.065132
  23 H :    0.031408
  24 H :    0.036888
  25 C :   -0.099440
  26 H :    0.028078
  27 H :    0.043217
  28 C :   -0.065668
  29 H :    0.034263
  30 H :    0.038279
  31 H :    0.044331
  32 H :    0.061973
  33 H :    0.047991
Sum of atomic charges:   -0.0000000

LOEWDIN ATOMIC CHARGES
----------------------
   0 S :    0.395435
   1 C :   -0.205513
   2 C :   -0.057985
   3 C :   -0.070547
   4 C :   -0.196531
   5 H :    0.045431
   6 C :   -0.026706
   7 H :    0.027949
   8 H :    0.034268
   9 C :   -0.041485
  10 H :    0.026405
  11 H :    0.025633
  12 C :   -0.074030
  13 H :    0.031309
  14 H :    0.017657
  15 H :    0.020423
  16 S :    0.423261
  17 C :   -0.192969
  18 C :   -0.063363
  19 C :   -0.043197
  20 C :   -0.200121
  21 H :    0.009989
  22 C :   -0.031340
  23 H :    0.026005
  24 H :    0.038611
  25 C :   -0.040595
  26 H :    0.016793
  27 H :    0.026435
  28 C :   -0.061683
  29 H :    0.018851
  30 H :    0.027221
  31 H :    0.032546
  32 H :    0.037016
  33 H :    0.024824

  Mayer bond orders larger than 0.100000
B(  0-S ,  1-C ) :   1.1251 B(  0-S ,  4-C ) :   1.1471 B(  1-C ,  2-C ) :   1.6185
B(  1-C , 32-H ) :   0.9675 B(  2-C ,  3-C ) :   1.2312 B(  2-C ,  6-C ) :   0.9993
B(  3-C ,  4-C ) :   1.5960 B(  3-C ,  5-H ) :   0.9814 B(  4-C , 20-C ) :   1.0011
B(  6-C ,  7-H ) :   0.9467 B(  6-C ,  8-H ) :   0.9473 B(  6-C ,  9-C ) :   1.0881
B(  9-C , 10-H ) :   0.9524 B(  9-C , 11-H ) :   0.9544 B(  9-C , 12-C ) :   1.0668
B( 12-C , 13-H ) :   0.9775 B( 12-C , 14-H ) :   0.9730 B( 12-C , 15-H ) :   0.9748
B( 16-S , 17-C ) :   1.1745 B( 16-S , 20-C ) :   1.1466 B( 17-C , 18-C ) :   1.5978
B( 17-C , 33-H ) :   0.9679 B( 18-C , 19-C ) :   1.2338 B( 18-C , 21-H ) :   1.0076
B( 19-C , 20-C ) :   1.6117 B( 19-C , 22-C ) :   1.0318 B( 22-C , 23-H ) :   0.9505
B( 22-C , 24-H ) :   0.9268 B( 22-C , 25-C ) :   1.0538 B( 25-C , 26-H ) :   0.9513
B( 25-C , 27-H ) :   0.9646 B( 25-C , 28-C ) :   1.0799 B( 28-C , 29-H ) :   0.9780
B( 28-C , 30-H ) :   0.9765 B( 28-C , 31-H ) :   0.9774

Dispersion correction           -0.014083212
FINAL SINGLE POINT ENERGY     -1339.873047692418

DIPOLE MOMENT
-------------
                                X             Y             Z
Electronic contribution:    -16.30521      -0.82378     -14.76026
Nuclear contribution   :     16.39793       0.79428      15.05045
                        -----------------------------------------
Total Dipole Moment    :      0.09272      -0.02949       0.29019
                        -----------------------------------------
Magnitude (a.u.)       :      0.30606
Magnitude (Debye)      :      0.77795

Rotational constants in cm-1:     0.019780     0.007793     0.006296
Rotational constants in MHz :   592.981094   233.619918   188.754828

                             ****ORCA TERMINATED NORMALLY****
TOTAL RUN TIME: 0 days 0 hours 0 minutes 31 seconds 436 msec
