                         Program Version 4.2.1 -  RELEASE  -
|  1> ! wB97X-D3 SP def2-SVP
|  2> %pal
|  3> nprocs 16
|  4> end
|  5>
|  6> * xyz 0 1
|  7> S 	 56.7538 	 16.6694 	 58.0103
|  8> C 	 56.5006 	 18.4263 	 57.7633
|  9> C 	 56.3402 	 18.6175 	 56.4109
| 10> C 	 56.8592 	 17.5552 	 55.6275
| 11> C 	 57.0594 	 16.3752 	 56.3108
| 12> H 	 57.1442 	 17.6629 	 54.5741
| 13> C 	 56.0707 	 20.0011 	 55.8156
| 14> H 	 56.6895 	 19.9203 	 54.8952
| 15> H 	 56.5623 	 20.8005 	 56.4884
| 16> C 	 54.6376 	 20.4321 	 55.4856
| 17> H 	 54.2432 	 19.6774 	 54.7665
| 18> H 	 54.0975 	 20.4539 	 56.4944
| 19> C 	 54.3714 	 21.7908 	 54.9482
| 20> H 	 53.4637 	 22.2339 	 55.2884
| 21> H 	 54.9906 	 22.4914 	 55.434
| 22> H 	 54.5298 	 21.8374 	 53.8566
| 23> S 	 57.6417 	 13.7301 	 56.9276
| 24> C 	 58.2742 	 12.6267 	 55.7538
| 25> C 	 58.755 	 13.2969 	 54.6869
| 26> C 	 58.1395 	 14.6188 	 54.5484
| 27> C 	 57.6239 	 15.0785 	 55.8115
| 28> H 	 59.3128 	 12.7651 	 53.9395
| 29> C 	 58.3146 	 15.373 	 53.2755
| 30> H 	 59.2362 	 14.9607 	 52.8262
| 31> H 	 58.6033 	 16.4355 	 53.4765
| 32> C 	 56.9753 	 15.2832 	 52.4016
| 33> H 	 56.1755 	 15.7057 	 53.0354
| 34> H 	 56.7506 	 14.2141 	 52.3645
| 35> C 	 57.0752 	 16 	 51.0741
| 36> H 	 57.6479 	 15.3809 	 50.3242
| 37> H 	 57.4284 	 17.0076 	 51.1253
| 38> H 	 56.0806 	 16.0408 	 50.6605
| 39> H 	 56.2335 	 19.1691 	 58.5156
| 40> H 	 58.2604 	 11.5864 	 55.8953
| 41> *
| 42>
| 43>                          ****END OF INPUT****

CARTESIAN COORDINATES (ANGSTROEM)
---------------------------------
  S     56.753800   16.669400   58.010300
  C     56.500600   18.426300   57.763300
  C     56.340200   18.617500   56.410900
  C     56.859200   17.555200   55.627500
  C     57.059400   16.375200   56.310800
  H     57.144200   17.662900   54.574100
  C     56.070700   20.001100   55.815600
  H     56.689500   19.920300   54.895200
  H     56.562300   20.800500   56.488400
  C     54.637600   20.432100   55.485600
  H     54.243200   19.677400   54.766500
  H     54.097500   20.453900   56.494400
  C     54.371400   21.790800   54.948200
  H     53.463700   22.233900   55.288400
  H     54.990600   22.491400   55.434000
  H     54.529800   21.837400   53.856600
  S     57.641700   13.730100   56.927600
  C     58.274200   12.626700   55.753800
  C     58.755000   13.296900   54.686900
  C     58.139500   14.618800   54.548400
  C     57.623900   15.078500   55.811500
  H     59.312800   12.765100   53.939500
  C     58.314600   15.373000   53.275500
  H     59.236200   14.960700   52.826200
  H     58.603300   16.435500   53.476500
  C     56.975300   15.283200   52.401600
  H     56.175500   15.705700   53.035400
  H     56.750600   14.214100   52.364500
  C     57.075200   16.000000   51.074100
  H     57.647900   15.380900   50.324200
  H     57.428400   17.007600   51.125300
  H     56.080600   16.040800   50.660500
  H     56.233500   19.169100   58.515600
  H     58.260400   11.586400   55.895300

 Total Charge           Charge          ....    0
 Multiplicity           Mult            ....    1
 Number of Electrons    NEL             ....  134
 Basis Dimension        Dim             ....  322

ORBITAL ENERGIES
----------------

  NO   OCC          E(Eh)            E(eV)
   0   2.0000     -88.965018     -2420.8612
   1   2.0000     -88.962364     -2420.7890
   2   2.0000     -10.337944      -281.3097
   3   2.0000     -10.337670      -281.3023
   4   2.0000     -10.318130      -280.7706
   5   2.0000     -10.312655      -280.6216
   6   2.0000     -10.312333      -280.6128
   7   2.0000     -10.301808      -280.3265
   8   2.0000     -10.299874      -280.2738
   9   2.0000     -10.297896      -280.2200
  10   2.0000     -10.294594      -280.1301
  11   2.0000     -10.294400      -280.1249
  12   2.0000     -10.293877      -280.1106
  13   2.0000     -10.291740      -280.0525
  14   2.0000     -10.280907      -279.7577
  15   2.0000     -10.272337      -279.5245
  16   2.0000      -8.079084      -219.8430
  17   2.0000      -8.077760      -219.8070
  18   2.0000      -6.037853      -164.2983
  19   2.0000      -6.036366      -164.2579
  20   2.0000      -6.033760      -164.1870
  21   2.0000      -6.032143      -164.1430
  22   2.0000      -6.029501      -164.0711
  23   2.0000      -6.028430      -164.0419
  24   2.0000      -1.005591       -27.3635
  25   2.0000      -0.986466       -26.8431
  26   2.0000      -0.911545       -24.8044
  27   2.0000      -0.906472       -24.6664
  28   2.0000      -0.873148       -23.7596
  29   2.0000      -0.852722       -23.2037
  30   2.0000      -0.846425       -23.0324
  31   2.0000      -0.820435       -22.3252
  32   2.0000      -0.782172       -21.2840
  33   2.0000      -0.770976       -20.9793
  34   2.0000      -0.708010       -19.2659
  35   2.0000      -0.695506       -18.9257
  36   2.0000      -0.693554       -18.8726
  37   2.0000      -0.662327       -18.0228
  38   2.0000      -0.634592       -17.2681
  39   2.0000      -0.621545       -16.9131
  40   2.0000      -0.596119       -16.2212
  41   2.0000      -0.574073       -15.6213
  42   2.0000      -0.565149       -15.3785
  43   2.0000      -0.557244       -15.1634
  44   2.0000      -0.526983       -14.3399
  45   2.0000      -0.521245       -14.1838
  46   2.0000      -0.519309       -14.1311
  47   2.0000      -0.516596       -14.0573
  48   2.0000      -0.512700       -13.9513
  49   2.0000      -0.506582       -13.7848
  50   2.0000      -0.497825       -13.5465
  51   2.0000      -0.484734       -13.1903
  52   2.0000      -0.477908       -13.0045
  53   2.0000      -0.463488       -12.6121
  54   2.0000      -0.460083       -12.5195
  55   2.0000      -0.453650       -12.3445
  56   2.0000      -0.444410       -12.0930
  57   2.0000      -0.434681       -11.8283
  58   2.0000      -0.428302       -11.6547
  59   2.0000      -0.421500       -11.4696
  60   2.0000      -0.417210       -11.3529
  61   2.0000      -0.410827       -11.1792
  62   2.0000      -0.401797       -10.9334
  63   2.0000      -0.360450        -9.8083
  64   2.0000      -0.331836        -9.0297
  65   2.0000      -0.322769        -8.7830
  66   2.0000      -0.281141        -7.6502
  67   0.0000       0.017124         0.4660
  68   0.0000       0.075808         2.0628
  69   0.0000       0.102283         2.7833
  70   0.0000       0.111127         3.0239
  71   0.0000       0.128002         3.4831

MULLIKEN ATOMIC CHARGES
-----------------------
   0 S :    0.084037
   1 C :   -0.119351
   2 C :   -0.055234
   3 C :   -0.042028
   4 C :   -0.062261
   5 H :    0.014738
   6 C :   -0.005157
   7 H :    0.020570
   8 H :    0.037197
   9 C :   -0.085215
  10 H :    0.037246
  11 H :    0.031217
  12 C :    0.009342
  13 H :    0.022317
  14 H :   -0.003292
  15 H :    0.041045
  16 S :    0.085781
  17 C :   -0.076463
  18 C :   -0.003233
  19 C :   -0.103483
  20 C :   -0.094880
  21 H :    0.020056
  22 C :    0.005306
  23 H :    0.026973
  24 H :    0.031108
  25 C :   -0.087697
  26 H :    0.037105
  27 H :    0.032126
  28 C :   -0.005977
  29 H :    0.038682
  30 H :    0.030485
  31 H :    0.028540
  32 H :    0.062062
  33 H :    0.048337
Sum of atomic charges:    0.0000000

LOEWDIN ATOMIC CHARGES
----------------------
   0 S :    0.380349
   1 C :   -0.180545
   2 C :   -0.065602
   3 C :   -0.079751
   4 C :   -0.179982
   5 H :    0.030702
   6 C :   -0.042035
   7 H :    0.028182
   8 H :    0.035633
   9 C :   -0.051566
  10 H :    0.029257
  11 H :    0.032967
  12 C :   -0.068380
  13 H :    0.028856
  14 H :    0.020265
  15 H :    0.029540
  16 S :    0.403882
  17 C :   -0.173753
  18 C :   -0.069709
  19 C :   -0.052443
  20 C :   -0.194456
  21 H :    0.029568
  22 C :   -0.043017
  23 H :    0.032315
  24 H :    0.027566
  25 C :   -0.036881
  26 H :    0.028033
  27 H :    0.027458
  28 C :   -0.067275
  29 H :    0.033620
  30 H :    0.022849
  31 H :    0.027418
  32 H :    0.034458
  33 H :    0.022475

  Mayer bond orders larger than 0.100000
B(  0-S ,  1-C ) :   1.1190 B(  0-S ,  4-C ) :   1.1378 B(  1-C ,  2-C ) :   1.6164
B(  1-C , 32-H ) :   0.9671 B(  2-C ,  3-C ) :   1.2400 B(  2-C ,  6-C ) :   1.0142
B(  3-C ,  4-C ) :   1.5891 B(  3-C ,  5-H ) :   0.9778 B(  4-C , 20-C ) :   1.0687
B(  6-C ,  7-H ) :   0.9444 B(  6-C ,  8-H ) :   0.9446 B(  6-C ,  9-C ) :   1.0642
B(  9-C , 10-H ) :   0.9550 B(  9-C , 11-H ) :   0.9531 B(  9-C , 12-C ) :   1.0955
B( 12-C , 13-H ) :   0.9693 B( 12-C , 14-H ) :   0.9588 B( 12-C , 15-H ) :   0.9730
B( 16-S , 17-C ) :   1.1633 B( 16-S , 20-C ) :   1.1348 B( 17-C , 18-C ) :   1.6087
B( 17-C , 33-H ) :   0.9759 B( 18-C , 19-C ) :   1.2403 B( 18-C , 21-H ) :   0.9829
B( 19-C , 20-C ) :   1.5538 B( 19-C , 22-C ) :   1.0565 B( 22-C , 23-H ) :   0.9401
B( 22-C , 24-H ) :   0.9389 B( 22-C , 25-C ) :   1.0305 B( 25-C , 26-H ) :   0.9582
B( 25-C , 27-H ) :   0.9563 B( 25-C , 28-C ) :   1.0827 B( 28-C , 29-H ) :   0.9726
B( 28-C , 30-H ) :   0.9714 B( 28-C , 31-H ) :   0.9707

Dispersion correction           -0.013515942
FINAL SINGLE POINT ENERGY     -1339.848687851487

DIPOLE MOMENT
-------------
                                X             Y             Z
Electronic contribution:      7.49324     -20.35338      23.98473
Nuclear contribution   :     -7.49602      20.64403     -24.67365
                        -----------------------------------------
Total Dipole Moment    :     -0.00278       0.29065      -0.68892
                        -----------------------------------------
Magnitude (a.u.)       :      0.74772
Magnitude (Debye)      :      1.90056

Rotational constants in cm-1:     0.018035     0.008443     0.005957
Rotational constants in MHz :   540.662298   253.106737   178.588160

                             ****ORCA TERMINATED NORMALLY****
TOTAL RUN TIME: 0 days 0 hours 0 minutes 29 seconds 363 msec
