                         Program Version 4.2.1 -  RELEASE  -
|  1> ! wB97X-D3 SP def2-SVP
|  2> %pal
|  3> nprocs 16
|  4> end
|  5>
|  6> * xyz 0 1
|  7> S 	 -112.218 	 56.407 	 108.515
|  8> C 	 -111.746 	 54.7978 	 108.026
|  9> C 	 -110.771 	 54.2643 	 108.867
| 10> C 	 -110.369 	 55.2292 	 109.847
| 11> C 	 -111.074 	 56.4794 	 109.785
| 12> H 	 -109.527 	 55.073 	 110.59
| 13> C 	 -110.449 	 52.8033 	 108.828
| 14> H 	 -111.347 	 52.1662 	 108.752
| 15> H 	 -109.974 	 52.6154 	 109.83
| 16> C 	 -109.407 	 52.4234 	 107.746
| 17> H 	 -109.254 	 51.3351 	 107.866
| 18> H 	 -109.613 	 52.6314 	 106.75
| 19> C 	 -108.065 	 53.1316 	 108.089
| 20> H 	 -107.73 	 52.9113 	 109.136
| 21> H 	 -107.289 	 52.8938 	 107.45
| 22> H 	 -108.15 	 54.2058 	 107.955
| 23> S 	 -109.928 	 58.9397 	 109.832
| 24> C 	 -109.894 	 59.8252 	 111.416
| 25> C 	 -110.642 	 59.1115 	 112.384
| 26> C 	 -111.16 	 57.8767 	 111.885
| 27> C 	 -110.816 	 57.6766 	 110.563
| 28> H 	 -110.926 	 59.503 	 113.329
| 29> C 	 -112.127 	 56.898 	 112.585
| 30> H 	 -112.963 	 56.6216 	 111.907
| 31> H 	 -112.543 	 57.323 	 113.474
| 32> C 	 -111.47 	 55.5774 	 113.069
| 33> H 	 -111.126 	 55.0607 	 112.133
| 34> H 	 -112.235 	 54.9702 	 113.501
| 35> C 	 -110.381 	 55.7511 	 114.192
| 36> H 	 -109.442 	 56.1504 	 113.877
| 37> H 	 -110.193 	 54.8851 	 114.71
| 38> H 	 -110.898 	 56.3828 	 114.905
| 39> H 	 -112.211 	 54.2503 	 107.181
| 40> H 	 -109.461 	 60.7727 	 111.688
| 41> *
| 42>
| 43>                          ****END OF INPUT****

CARTESIAN COORDINATES (ANGSTROEM)
---------------------------------
  S    -112.218000   56.407000  108.515000
  C    -111.746000   54.797800  108.026000
  C    -110.771000   54.264300  108.867000
  C    -110.369000   55.229200  109.847000
  C    -111.074000   56.479400  109.785000
  H    -109.527000   55.073000  110.590000
  C    -110.449000   52.803300  108.828000
  H    -111.347000   52.166200  108.752000
  H    -109.974000   52.615400  109.830000
  C    -109.407000   52.423400  107.746000
  H    -109.254000   51.335100  107.866000
  H    -109.613000   52.631400  106.750000
  C    -108.065000   53.131600  108.089000
  H    -107.730000   52.911300  109.136000
  H    -107.289000   52.893800  107.450000
  H    -108.150000   54.205800  107.955000
  S    -109.928000   58.939700  109.832000
  C    -109.894000   59.825200  111.416000
  C    -110.642000   59.111500  112.384000
  C    -111.160000   57.876700  111.885000
  C    -110.816000   57.676600  110.563000
  H    -110.926000   59.503000  113.329000
  C    -112.127000   56.898000  112.585000
  H    -112.963000   56.621600  111.907000
  H    -112.543000   57.323000  113.474000
  C    -111.470000   55.577400  113.069000
  H    -111.126000   55.060700  112.133000
  H    -112.235000   54.970200  113.501000
  C    -110.381000   55.751100  114.192000
  H    -109.442000   56.150400  113.877000
  H    -110.193000   54.885100  114.710000
  H    -110.898000   56.382800  114.905000
  H    -112.211000   54.250300  107.181000
  H    -109.461000   60.772700  111.688000

 Total Charge           Charge          ....    0
 Multiplicity           Mult            ....    1
 Number of Electrons    NEL             ....  134
 Basis Dimension        Dim             ....  322

ORBITAL ENERGIES
----------------

  NO   OCC          E(Eh)            E(eV)
   0   2.0000     -88.971305     -2421.0323
   1   2.0000     -88.969250     -2420.9764
   2   2.0000     -10.329030      -281.0672
   3   2.0000     -10.324741      -280.9505
   4   2.0000     -10.319652      -280.8120
   5   2.0000     -10.316061      -280.7143
   6   2.0000     -10.304606      -280.4026
   7   2.0000     -10.301551      -280.3195
   8   2.0000     -10.300611      -280.2939
   9   2.0000     -10.298229      -280.2291
  10   2.0000     -10.297359      -280.2054
  11   2.0000     -10.290803      -280.0270
  12   2.0000     -10.285942      -279.8947
  13   2.0000     -10.281274      -279.7677
  14   2.0000     -10.271271      -279.4955
  15   2.0000     -10.267175      -279.3840
  16   2.0000      -8.085324      -220.0129
  17   2.0000      -8.084200      -219.9823
  18   2.0000      -6.043896      -164.4628
  19   2.0000      -6.042477      -164.4242
  20   2.0000      -6.039908      -164.3543
  21   2.0000      -6.038367      -164.3123
  22   2.0000      -6.036063      -164.2496
  23   2.0000      -6.035528      -164.2351
  24   2.0000      -1.006654       -27.3925
  25   2.0000      -0.981080       -26.6965
  26   2.0000      -0.913303       -24.8522
  27   2.0000      -0.899614       -24.4798
  28   2.0000      -0.866302       -23.5733
  29   2.0000      -0.845354       -23.0033
  30   2.0000      -0.842471       -22.9248
  31   2.0000      -0.809412       -22.0252
  32   2.0000      -0.783281       -21.3142
  33   2.0000      -0.771519       -20.9941
  34   2.0000      -0.706255       -19.2182
  35   2.0000      -0.703230       -19.1359
  36   2.0000      -0.686065       -18.6688
  37   2.0000      -0.666356       -18.1325
  38   2.0000      -0.637342       -17.3430
  39   2.0000      -0.609263       -16.5789
  40   2.0000      -0.588504       -16.0140
  41   2.0000      -0.574683       -15.6379
  42   2.0000      -0.556433       -15.1413
  43   2.0000      -0.550213       -14.9720
  44   2.0000      -0.543141       -14.7796
  45   2.0000      -0.536092       -14.5878
  46   2.0000      -0.514091       -13.9891
  47   2.0000      -0.505843       -13.7647
  48   2.0000      -0.501318       -13.6416
  49   2.0000      -0.490144       -13.3375
  50   2.0000      -0.482577       -13.1316
  51   2.0000      -0.475314       -12.9339
  52   2.0000      -0.467626       -12.7248
  53   2.0000      -0.467465       -12.7204
  54   2.0000      -0.457308       -12.4440
  55   2.0000      -0.447105       -12.1664
  56   2.0000      -0.445906       -12.1337
  57   2.0000      -0.437020       -11.8919
  58   2.0000      -0.435328       -11.8459
  59   2.0000      -0.428037       -11.6475
  60   2.0000      -0.420155       -11.4330
  61   2.0000      -0.416118       -11.3231
  62   2.0000      -0.412440       -11.2231
  63   2.0000      -0.340193        -9.2571
  64   2.0000      -0.328697        -8.9443
  65   2.0000      -0.318323        -8.6620
  66   2.0000      -0.302208        -8.2235
  67   0.0000       0.037782         1.0281
  68   0.0000       0.052874         1.4388
  69   0.0000       0.107175         2.9164
  70   0.0000       0.109295         2.9741
  71   0.0000       0.133402         3.6300

MULLIKEN ATOMIC CHARGES
-----------------------
   0 S :    0.131461
   1 C :   -0.143754
   2 C :   -0.091712
   3 C :    0.043883
   4 C :   -0.216386
   5 H :    0.043835
   6 C :    0.033587
   7 H :    0.046416
   8 H :    0.028073
   9 C :   -0.037621
  10 H :    0.033024
  11 H :    0.022515
  12 C :   -0.064173
  13 H :    0.029581
  14 H :    0.014889
  15 H :    0.040957
  16 S :    0.135070
  17 C :   -0.094607
  18 C :   -0.023167
  19 C :   -0.020698
  20 C :   -0.177759
  21 H :    0.007740
  22 C :    0.083148
  23 H :    0.043132
  24 H :    0.004934
  25 C :   -0.095830
  26 H :    0.030775
  27 H :    0.019176
  28 C :   -0.002076
  29 H :    0.036349
  30 H :    0.012104
  31 H :    0.010999
  32 H :    0.062343
  33 H :    0.053794
Sum of atomic charges:    0.0000000

LOEWDIN ATOMIC CHARGES
----------------------
   0 S :    0.437188
   1 C :   -0.205049
   2 C :   -0.073424
   3 C :   -0.065010
   4 C :   -0.222200
   5 H :    0.040582
   6 C :   -0.031940
   7 H :    0.034235
   8 H :    0.036406
   9 C :   -0.029690
  10 H :    0.027010
  11 H :    0.013960
  12 C :   -0.063339
  13 H :    0.026703
  14 H :    0.013340
  15 H :    0.027370
  16 S :    0.416010
  17 C :   -0.175746
  18 C :   -0.058466
  19 C :   -0.055038
  20 C :   -0.222234
  21 H :    0.025917
  22 C :   -0.026755
  23 H :    0.038360
  24 H :    0.019909
  25 C :   -0.039090
  26 H :    0.023710
  27 H :    0.018543
  28 C :   -0.056001
  29 H :    0.022283
  30 H :    0.014518
  31 H :    0.024260
  32 H :    0.034536
  33 H :    0.029143

  Mayer bond orders larger than 0.100000
B(  0-S ,  1-C ) :   1.1687 B(  0-S ,  4-C ) :   1.1879 B(  1-C ,  2-C ) :   1.5590
B(  1-C ,  4-C ) :   0.1088 B(  1-C , 32-H ) :   0.9657 B(  2-C ,  3-C ) :   1.2953
B(  2-C ,  6-C ) :   1.0066 B(  3-C ,  4-C ) :   1.5232 B(  3-C ,  5-H ) :   0.9686
B(  4-C , 20-C ) :   1.0065 B(  6-C ,  7-H ) :   0.9507 B(  6-C ,  8-H ) :   0.9456
B(  6-C ,  9-C ) :   1.0640 B(  9-C , 10-H ) :   0.9577 B(  9-C , 11-H ) :   0.9624
B(  9-C , 12-C ) :   1.0723 B( 12-C , 13-H ) :   0.9773 B( 12-C , 14-H ) :   0.9735
B( 12-C , 15-H ) :   0.9724 B( 16-S , 17-C ) :   1.1410 B( 16-S , 20-C ) :   1.1600
B( 17-C , 18-C ) :   1.6018 B( 17-C , 20-C ) :   0.1048 B( 17-C , 33-H ) :   0.9690
B( 18-C , 19-C ) :   1.2644 B( 18-C , 21-H ) :   0.9847 B( 19-C , 20-C ) :   1.5916
B( 19-C , 22-C ) :   1.0362 B( 22-C , 23-H ) :   0.9330 B( 22-C , 24-H ) :   0.9355
B( 22-C , 25-C ) :   1.0795 B( 25-C , 26-H ) :   0.9517 B( 25-C , 27-H ) :   0.9520
B( 25-C , 28-C ) :   1.0624 B( 28-C , 29-H ) :   0.9779 B( 28-C , 30-H ) :   0.9755
B( 28-C , 31-H ) :   0.9725

Dispersion correction           -0.015627586
FINAL SINGLE POINT ENERGY     -1339.870590283055

DIPOLE MOMENT
-------------
                                X             Y             Z
Electronic contribution:     -7.19420      21.01390     -10.57320
Nuclear contribution   :      7.19344     -21.45238      10.81748
                        -----------------------------------------
Total Dipole Moment    :     -0.00076      -0.43848       0.24429
                        -----------------------------------------
Magnitude (a.u.)       :      0.50194
Magnitude (Debye)      :      1.27584

Rotational constants in cm-1:     0.019522     0.008955     0.007795
Rotational constants in MHz :   585.262036   268.455622   233.701517

                             ****ORCA TERMINATED NORMALLY****
TOTAL RUN TIME: 0 days 0 hours 0 minutes 36 seconds 288 msec
