                         Program Version 4.2.1 -  RELEASE  -
|  1> ! wB97X-D3 SP def2-SVP
|  2> %pal
|  3> nprocs 16
|  4> end
|  5>
|  6> * xyz 0 1
|  7> S 	 -118.459 	 46.7625 	 132.158
|  8> C 	 -119.436 	 48.0474 	 132.803
|  9> C 	 -118.986 	 48.5727 	 134.031
| 10> C 	 -117.892 	 47.7853 	 134.5
| 11> C 	 -117.399 	 46.8746 	 133.563
| 12> H 	 -117.296 	 47.9623 	 135.334
| 13> C 	 -119.478 	 49.8264 	 134.855
| 14> H 	 -119.925 	 49.3584 	 135.787
| 15> H 	 -120.302 	 50.3661 	 134.297
| 16> C 	 -118.407 	 50.8603 	 135.157
| 17> H 	 -118.777 	 51.7205 	 135.721
| 18> H 	 -117.696 	 50.3098 	 135.817
| 19> C 	 -117.619 	 51.3063 	 133.964
| 20> H 	 -118.436 	 51.8541 	 133.399
| 21> H 	 -116.737 	 51.907 	 134.24
| 22> H 	 -117.329 	 50.4518 	 133.274
| 23> S 	 -116.479 	 44.3517 	 133.005
| 24> C 	 -114.99 	 43.7882 	 133.742
| 25> C 	 -114.292 	 44.916 	 134.251
| 26> C 	 -115.041 	 46.0801 	 134.359
| 27> C 	 -116.325 	 45.9559 	 133.77
| 28> H 	 -113.286 	 44.8692 	 134.688
| 29> C 	 -114.417 	 47.308 	 134.975
| 30> H 	 -113.616 	 46.9475 	 135.632
| 31> H 	 -114.984 	 47.8257 	 135.7
| 32> C 	 -113.87 	 48.3537 	 133.919
| 33> H 	 -114.686 	 48.6781 	 133.366
| 34> H 	 -113.167 	 47.8962 	 133.25
| 35> C 	 -113.145 	 49.5973 	 134.433
| 36> H 	 -112.943 	 50.344 	 133.626
| 37> H 	 -112.104 	 49.4234 	 134.819
| 38> H 	 -113.679 	 49.9988 	 135.275
| 39> H 	 -120.196 	 48.5408 	 132.193
| 40> H 	 -114.616 	 42.7698 	 133.583
| 41> *
| 42>
| 43>                          ****END OF INPUT****

CARTESIAN COORDINATES (ANGSTROEM)
---------------------------------
  S    -118.459000   46.762500  132.158000
  C    -119.436000   48.047400  132.803000
  C    -118.986000   48.572700  134.031000
  C    -117.892000   47.785300  134.500000
  C    -117.399000   46.874600  133.563000
  H    -117.296000   47.962300  135.334000
  C    -119.478000   49.826400  134.855000
  H    -119.925000   49.358400  135.787000
  H    -120.302000   50.366100  134.297000
  C    -118.407000   50.860300  135.157000
  H    -118.777000   51.720500  135.721000
  H    -117.696000   50.309800  135.817000
  C    -117.619000   51.306300  133.964000
  H    -118.436000   51.854100  133.399000
  H    -116.737000   51.907000  134.240000
  H    -117.329000   50.451800  133.274000
  S    -116.479000   44.351700  133.005000
  C    -114.990000   43.788200  133.742000
  C    -114.292000   44.916000  134.251000
  C    -115.041000   46.080100  134.359000
  C    -116.325000   45.955900  133.770000
  H    -113.286000   44.869200  134.688000
  C    -114.417000   47.308000  134.975000
  H    -113.616000   46.947500  135.632000
  H    -114.984000   47.825700  135.700000
  C    -113.870000   48.353700  133.919000
  H    -114.686000   48.678100  133.366000
  H    -113.167000   47.896200  133.250000
  C    -113.145000   49.597300  134.433000
  H    -112.943000   50.344000  133.626000
  H    -112.104000   49.423400  134.819000
  H    -113.679000   49.998800  135.275000
  H    -120.196000   48.540800  132.193000
  H    -114.616000   42.769800  133.583000

 Total Charge           Charge          ....    0
 Multiplicity           Mult            ....    1
 Number of Electrons    NEL             ....  134
 Basis Dimension        Dim             ....  322

ORBITAL ENERGIES
----------------

  NO   OCC          E(Eh)            E(eV)
   0   2.0000     -88.971519     -2421.0381
   1   2.0000     -88.968243     -2420.9490
   2   2.0000     -10.331595      -281.1370
   3   2.0000     -10.330819      -281.1159
   4   2.0000     -10.325186      -280.9626
   5   2.0000     -10.317811      -280.7619
   6   2.0000     -10.311025      -280.5773
   7   2.0000     -10.308498      -280.5085
   8   2.0000     -10.305086      -280.4156
   9   2.0000     -10.298038      -280.2238
  10   2.0000     -10.294883      -280.1380
  11   2.0000     -10.290606      -280.0216
  12   2.0000     -10.288896      -279.9751
  13   2.0000     -10.284024      -279.8425
  14   2.0000     -10.282352      -279.7970
  15   2.0000     -10.281392      -279.7709
  16   2.0000      -8.086062      -220.0329
  17   2.0000      -8.082392      -219.9331
  18   2.0000      -6.044553      -164.4806
  19   2.0000      -6.040816      -164.3790
  20   2.0000      -6.040663      -164.3748
  21   2.0000      -6.036987      -164.2748
  22   2.0000      -6.036800      -164.2697
  23   2.0000      -6.033269      -164.1736
  24   2.0000      -1.006001       -27.3747
  25   2.0000      -0.981052       -26.6958
  26   2.0000      -0.914759       -24.8919
  27   2.0000      -0.906214       -24.6593
  28   2.0000      -0.869331       -23.6557
  29   2.0000      -0.857167       -23.3247
  30   2.0000      -0.847858       -23.0714
  31   2.0000      -0.805713       -21.9246
  32   2.0000      -0.783232       -21.3128
  33   2.0000      -0.771045       -20.9812
  34   2.0000      -0.708462       -19.2782
  35   2.0000      -0.696791       -18.9606
  36   2.0000      -0.690267       -18.7831
  37   2.0000      -0.665090       -18.0980
  38   2.0000      -0.640197       -17.4206
  39   2.0000      -0.622449       -16.9377
  40   2.0000      -0.602251       -16.3881
  41   2.0000      -0.560255       -15.2453
  42   2.0000      -0.558970       -15.2103
  43   2.0000      -0.557504       -15.1705
  44   2.0000      -0.542941       -14.7742
  45   2.0000      -0.526915       -14.3381
  46   2.0000      -0.519145       -14.1267
  47   2.0000      -0.509952       -13.8765
  48   2.0000      -0.501036       -13.6339
  49   2.0000      -0.495102       -13.4724
  50   2.0000      -0.491378       -13.3711
  51   2.0000      -0.483173       -13.1478
  52   2.0000      -0.470943       -12.8150
  53   2.0000      -0.461338       -12.5536
  54   2.0000      -0.457415       -12.4469
  55   2.0000      -0.453952       -12.3527
  56   2.0000      -0.447669       -12.1817
  57   2.0000      -0.439605       -11.9623
  58   2.0000      -0.431900       -11.7526
  59   2.0000      -0.427486       -11.6325
  60   2.0000      -0.421276       -11.4635
  61   2.0000      -0.416126       -11.3234
  62   2.0000      -0.403081       -10.9684
  63   2.0000      -0.356242        -9.6938
  64   2.0000      -0.337354        -9.1799
  65   2.0000      -0.331995        -9.0341
  66   2.0000      -0.277091        -7.5400
  67   0.0000       0.014743         0.4012
  68   0.0000       0.067990         1.8501
  69   0.0000       0.096935         2.6377
  70   0.0000       0.116809         3.1785
  71   0.0000       0.121046         3.2938

MULLIKEN ATOMIC CHARGES
-----------------------
   0 S :    0.114161
   1 C :   -0.123358
   2 C :   -0.097419
   3 C :    0.032594
   4 C :   -0.143176
   5 H :   -0.018249
   6 C :    0.040843
   7 H :    0.059518
   8 H :    0.029001
   9 C :   -0.077542
  10 H :    0.042528
  11 H :    0.017871
  12 C :   -0.087343
  13 H :    0.027873
  14 H :    0.053278
  15 H :    0.064074
  16 S :    0.093895
  17 C :   -0.103556
  18 C :   -0.037505
  19 C :   -0.030006
  20 C :   -0.141643
  21 H :    0.025758
  22 C :    0.069331
  23 H :    0.009644
  24 H :    0.008618
  25 C :   -0.028894
  26 H :    0.023257
  27 H :    0.022516
  28 C :   -0.070007
  29 H :    0.045714
  30 H :    0.028046
  31 H :    0.023443
  32 H :    0.053272
  33 H :    0.073462
Sum of atomic charges:    0.0000000

LOEWDIN ATOMIC CHARGES
----------------------
   0 S :    0.405163
   1 C :   -0.206586
   2 C :   -0.059039
   3 C :   -0.058183
   4 C :   -0.186449
   5 H :    0.017268
   6 C :   -0.032470
   7 H :    0.044012
   8 H :    0.029642
   9 C :   -0.054253
  10 H :    0.029051
  11 H :    0.018392
  12 C :   -0.075440
  13 H :    0.030205
  14 H :    0.030409
  15 H :    0.036379
  16 S :    0.397349
  17 C :   -0.190376
  18 C :   -0.068476
  19 C :   -0.060373
  20 C :   -0.182990
  21 H :    0.033918
  22 C :   -0.027851
  23 H :    0.030991
  24 H :    0.019786
  25 C :   -0.029244
  26 H :    0.017772
  27 H :    0.023510
  28 C :   -0.071954
  29 H :    0.034741
  30 H :    0.026229
  31 H :    0.017944
  32 H :    0.027297
  33 H :    0.033627

  Mayer bond orders larger than 0.100000
B(  0-S ,  1-C ) :   1.1451 B(  0-S ,  4-C ) :   1.1370 B(  1-C ,  2-C ) :   1.6106
B(  1-C , 32-H ) :   0.9606 B(  2-C ,  3-C ) :   1.2354 B(  2-C ,  6-C ) :   1.0006
B(  3-C ,  4-C ) :   1.5656 B(  3-C ,  5-H ) :   0.9948 B(  4-C , 20-C ) :   1.1122
B(  6-C ,  7-H ) :   0.9439 B(  6-C ,  8-H ) :   0.9475 B(  6-C ,  9-C ) :   1.0669
B(  9-C , 10-H ) :   0.9564 B(  9-C , 11-H ) :   0.9491 B(  9-C , 12-C ) :   1.0717
B( 12-C , 13-H ) :   0.9738 B( 12-C , 14-H ) :   0.9719 B( 12-C , 15-H ) :   0.9674
B( 16-S , 17-C ) :   1.1675 B( 16-S , 20-C ) :   1.1482 B( 17-C , 18-C ) :   1.5333
B( 17-C , 20-C ) :   0.1204 B( 17-C , 33-H ) :   0.9707 B( 18-C , 19-C ) :   1.3236
B( 18-C , 21-H ) :   0.9779 B( 19-C , 20-C ) :   1.5102 B( 19-C , 22-C ) :   1.0507
B( 22-C , 23-H ) :   0.9286 B( 22-C , 24-H ) :   0.9324 B( 22-C , 25-C ) :   1.0484
B( 25-C , 26-H ) :   0.9573 B( 25-C , 27-H ) :   0.9567 B( 25-C , 28-C ) :   1.0842
B( 28-C , 29-H ) :   0.9728 B( 28-C , 30-H ) :   0.9752 B( 28-C , 31-H ) :   0.9743

Dispersion correction           -0.015226787
FINAL SINGLE POINT ENERGY     -1339.868652503878

DIPOLE MOMENT
-------------
                                X             Y             Z
Electronic contribution:    -10.41507     -27.35475     -10.96327
Nuclear contribution   :     10.76031      27.86210      11.28472
                        -----------------------------------------
Total Dipole Moment    :      0.34524       0.50734       0.32145
                        -----------------------------------------
Magnitude (a.u.)       :      0.69276
Magnitude (Debye)      :      1.76085

Rotational constants in cm-1:     0.017203     0.010667     0.007276
Rotational constants in MHz :   515.724249   319.779853   218.117237

                             ****ORCA TERMINATED NORMALLY****
TOTAL RUN TIME: 0 days 0 hours 0 minutes 35 seconds 689 msec
