                         Program Version 4.2.1 -  RELEASE  -
|  1> ! wB97X-D3 SP def2-SVP
|  2> %pal
|  3> nprocs 16
|  4> end
|  5>
|  6> * xyz 0 1
|  7> S 	 -53.133 	 55.3844 	 139.455
|  8> C 	 -52.1441 	 55.4703 	 138.023
|  9> C 	 -52.9488 	 55.9625 	 137.001
| 10> C 	 -54.3389 	 56.1518 	 137.353
| 11> C 	 -54.6627 	 55.6461 	 138.572
| 12> H 	 -55.205 	 56.4744 	 136.736
| 13> C 	 -52.3561 	 56.3565 	 135.655
| 14> H 	 -53.1145 	 55.9994 	 135.007
| 15> H 	 -51.5066 	 55.6947 	 135.496
| 16> C 	 -51.827 	 57.783 	 135.49
| 17> H 	 -52.4922 	 58.5301 	 135.863
| 18> H 	 -50.9002 	 57.8153 	 136.103
| 19> C 	 -51.6535 	 58.1149 	 134
| 20> H 	 -52.6318 	 57.987 	 133.61
| 21> H 	 -51.3938 	 59.1517 	 133.852
| 22> H 	 -50.902 	 57.4905 	 133.47
| 23> S 	 -57.2913 	 55.0931 	 138.261
| 24> C 	 -58.4944 	 55.5815 	 139.382
| 25> C 	 -57.8895 	 56.0558 	 140.529
| 26> C 	 -56.4499 	 56.102 	 140.436
| 27> C 	 -55.9614 	 55.6875 	 139.238
| 28> H 	 -58.5514 	 56.4324 	 141.284
| 29> C 	 -55.6829 	 56.704 	 141.627
| 30> H 	 -55.9894 	 57.6948 	 141.846
| 31> H 	 -54.6244 	 56.7043 	 141.417
| 32> C 	 -55.8915 	 55.8607 	 142.888
| 33> H 	 -55.3324 	 54.9261 	 142.752
| 34> H 	 -56.8885 	 55.4388 	 142.843
| 35> C 	 -55.7227 	 56.5184 	 144.222
| 36> H 	 -56.4674 	 57.2415 	 144.289
| 37> H 	 -54.7798 	 57.0022 	 144.273
| 38> H 	 -55.7832 	 55.7665 	 145.066
| 39> H 	 -51.0298 	 55.5671 	 137.858
| 40> H 	 -59.5252 	 55.6421 	 139.23
| 41> *
| 42>
| 43>                          ****END OF INPUT****

CARTESIAN COORDINATES (ANGSTROEM)
---------------------------------
  S    -53.133000   55.384400  139.455000
  C    -52.144100   55.470300  138.023000
  C    -52.948800   55.962500  137.001000
  C    -54.338900   56.151800  137.353000
  C    -54.662700   55.646100  138.572000
  H    -55.205000   56.474400  136.736000
  C    -52.356100   56.356500  135.655000
  H    -53.114500   55.999400  135.007000
  H    -51.506600   55.694700  135.496000
  C    -51.827000   57.783000  135.490000
  H    -52.492200   58.530100  135.863000
  H    -50.900200   57.815300  136.103000
  C    -51.653500   58.114900  134.000000
  H    -52.631800   57.987000  133.610000
  H    -51.393800   59.151700  133.852000
  H    -50.902000   57.490500  133.470000
  S    -57.291300   55.093100  138.261000
  C    -58.494400   55.581500  139.382000
  C    -57.889500   56.055800  140.529000
  C    -56.449900   56.102000  140.436000
  C    -55.961400   55.687500  139.238000
  H    -58.551400   56.432400  141.284000
  C    -55.682900   56.704000  141.627000
  H    -55.989400   57.694800  141.846000
  H    -54.624400   56.704300  141.417000
  C    -55.891500   55.860700  142.888000
  H    -55.332400   54.926100  142.752000
  H    -56.888500   55.438800  142.843000
  C    -55.722700   56.518400  144.222000
  H    -56.467400   57.241500  144.289000
  H    -54.779800   57.002200  144.273000
  H    -55.783200   55.766500  145.066000
  H    -51.029800   55.567100  137.858000
  H    -59.525200   55.642100  139.230000

 Total Charge           Charge          ....    0
 Multiplicity           Mult            ....    1
 Number of Electrons    NEL             ....  134
 Basis Dimension        Dim             ....  322

ORBITAL ENERGIES
----------------

  NO   OCC          E(Eh)            E(eV)
   0   2.0000     -88.964983     -2420.8603
   1   2.0000     -88.963922     -2420.8314
   2   2.0000     -10.334391      -281.2131
   3   2.0000     -10.329852      -281.0896
   4   2.0000     -10.319216      -280.8001
   5   2.0000     -10.313178      -280.6358
   6   2.0000     -10.306445      -280.4526
   7   2.0000     -10.302683      -280.3503
   8   2.0000     -10.299040      -280.2511
   9   2.0000     -10.294017      -280.1144
  10   2.0000     -10.288387      -279.9612
  11   2.0000     -10.286172      -279.9010
  12   2.0000     -10.285857      -279.8924
  13   2.0000     -10.277412      -279.6626
  14   2.0000     -10.275274      -279.6044
  15   2.0000     -10.271664      -279.5062
  16   2.0000      -8.079407      -219.8518
  17   2.0000      -8.078891      -219.8378
  18   2.0000      -6.038028      -164.3031
  19   2.0000      -6.037630      -164.2923
  20   2.0000      -6.033685      -164.1849
  21   2.0000      -6.033602      -164.1827
  22   2.0000      -6.030112      -164.0877
  23   2.0000      -6.029335      -164.0665
  24   2.0000      -1.011621       -27.5276
  25   2.0000      -0.988332       -26.8939
  26   2.0000      -0.913307       -24.8523
  27   2.0000      -0.912438       -24.8287
  28   2.0000      -0.876527       -23.8515
  29   2.0000      -0.853318       -23.2200
  30   2.0000      -0.844948       -22.9922
  31   2.0000      -0.821471       -22.3534
  32   2.0000      -0.784986       -21.3605
  33   2.0000      -0.771067       -20.9818
  34   2.0000      -0.707518       -19.2525
  35   2.0000      -0.703460       -19.1421
  36   2.0000      -0.696186       -18.9442
  37   2.0000      -0.669217       -18.2103
  38   2.0000      -0.633034       -17.2257
  39   2.0000      -0.619417       -16.8552
  40   2.0000      -0.599727       -16.3194
  41   2.0000      -0.571435       -15.5495
  42   2.0000      -0.568333       -15.4651
  43   2.0000      -0.563386       -15.3305
  44   2.0000      -0.529675       -14.4132
  45   2.0000      -0.524912       -14.2836
  46   2.0000      -0.520925       -14.1751
  47   2.0000      -0.520128       -14.1534
  48   2.0000      -0.508909       -13.8481
  49   2.0000      -0.501446       -13.6450
  50   2.0000      -0.499604       -13.5949
  51   2.0000      -0.479989       -13.0612
  52   2.0000      -0.471122       -12.8199
  53   2.0000      -0.464799       -12.6478
  54   2.0000      -0.463849       -12.6220
  55   2.0000      -0.450617       -12.2619
  56   2.0000      -0.445783       -12.1304
  57   2.0000      -0.437867       -11.9150
  58   2.0000      -0.431468       -11.7408
  59   2.0000      -0.425838       -11.5876
  60   2.0000      -0.419954       -11.4275
  61   2.0000      -0.407834       -11.0977
  62   2.0000      -0.404162       -10.9978
  63   2.0000      -0.357973        -9.7409
  64   2.0000      -0.330114        -8.9829
  65   2.0000      -0.324974        -8.8430
  66   2.0000      -0.297202        -8.0873
  67   0.0000       0.024674         0.6714
  68   0.0000       0.077031         2.0961
  69   0.0000       0.105007         2.8574
  70   0.0000       0.115260         3.1364
  71   0.0000       0.129542         3.5250

MULLIKEN ATOMIC CHARGES
-----------------------
   0 S :    0.087355
   1 C :   -0.094996
   2 C :   -0.143534
   3 C :    0.015723
   4 C :   -0.122292
   5 H :    0.034341
   6 C :    0.051216
   7 H :    0.016918
   8 H :    0.017178
   9 C :   -0.041126
  10 H :    0.025418
  11 H :    0.025208
  12 C :   -0.032860
  13 H :    0.023803
  14 H :    0.030607
  15 H :    0.037636
  16 S :    0.094752
  17 C :   -0.062167
  18 C :   -0.052655
  19 C :   -0.051139
  20 C :   -0.154061
  21 H :    0.020781
  22 C :    0.127806
  23 H :    0.013675
  24 H :    0.014105
  25 C :   -0.120095
  26 H :    0.019889
  27 H :    0.014779
  28 C :    0.007094
  29 H :    0.015678
  30 H :    0.022452
  31 H :    0.044499
  32 H :    0.075401
  33 H :    0.038611
Sum of atomic charges:    0.0000000

LOEWDIN ATOMIC CHARGES
----------------------
   0 S :    0.393304
   1 C :   -0.214725
   2 C :   -0.065326
   3 C :   -0.069479
   4 C :   -0.178878
   5 H :    0.037229
   6 C :   -0.035450
   7 H :    0.024158
   8 H :    0.030912
   9 C :   -0.034649
  10 H :    0.021458
  11 H :    0.024843
  12 C :   -0.059498
  13 H :    0.022598
  14 H :    0.024121
  15 H :    0.027693
  16 S :    0.417708
  17 C :   -0.184105
  18 C :   -0.069178
  19 C :   -0.055110
  20 C :   -0.191695
  21 H :    0.030394
  22 C :   -0.021950
  23 H :    0.023523
  24 H :    0.017489
  25 C :   -0.049324
  26 H :    0.024515
  27 H :    0.018685
  28 C :   -0.055622
  29 H :    0.016004
  30 H :    0.019954
  31 H :    0.038433
  32 H :    0.050195
  33 H :    0.021773

  Mayer bond orders larger than 0.100000
B(  0-S ,  1-C ) :   1.1257 B(  0-S ,  4-C ) :   1.1289 B(  1-C ,  2-C ) :   1.6253
B(  1-C , 32-H ) :   0.9548 B(  2-C ,  3-C ) :   1.2261 B(  2-C ,  6-C ) :   1.0232
B(  3-C ,  4-C ) :   1.5930 B(  3-C ,  5-H ) :   0.9799 B(  4-C , 20-C ) :   1.0291
B(  6-C ,  7-H ) :   0.9446 B(  6-C ,  8-H ) :   0.9405 B(  6-C ,  9-C ) :   1.0536
B(  9-C , 10-H ) :   0.9601 B(  9-C , 11-H ) :   0.9522 B(  9-C , 12-C ) :   1.0756
B( 12-C , 13-H ) :   0.9764 B( 12-C , 14-H ) :   0.9746 B( 12-C , 15-H ) :   0.9767
B( 16-S , 17-C ) :   1.1552 B( 16-S , 20-C ) :   1.1354 B( 17-C , 18-C ) :   1.6246
B( 17-C , 33-H ) :   0.9736 B( 18-C , 19-C ) :   1.2075 B( 18-C , 21-H ) :   0.9913
B( 19-C , 20-C ) :   1.6278 B( 19-C , 22-C ) :   1.0421 B( 22-C , 23-H ) :   0.9379
B( 22-C , 24-H ) :   0.9296 B( 22-C , 25-C ) :   1.0476 B( 25-C , 26-H ) :   0.9457
B( 25-C , 27-H ) :   0.9639 B( 25-C , 28-C ) :   1.0789 B( 28-C , 29-H ) :   0.9731
B( 28-C , 30-H ) :   0.9734 B( 28-C , 31-H ) :   0.9703

Dispersion correction           -0.013468974
FINAL SINGLE POINT ENERGY     -1339.864018209093

DIPOLE MOMENT
-------------
                                X             Y             Z
Electronic contribution:     -8.98891     -11.34334      -1.11933
Nuclear contribution   :      8.92986      11.90181       1.02394
                        -----------------------------------------
Total Dipole Moment    :     -0.05905       0.55847      -0.09539
                        -----------------------------------------
Magnitude (a.u.)       :      0.56963
Magnitude (Debye)      :      1.44789

Rotational constants in cm-1:     0.022570     0.007007     0.005869
Rotational constants in MHz :   676.630866   210.059794   175.933243

                             ****ORCA TERMINATED NORMALLY****
TOTAL RUN TIME: 0 days 0 hours 0 minutes 33 seconds 563 msec
