                         Program Version 4.2.1 -  RELEASE  -
|  1> ! wB97X-D3 SP def2-SVP
|  2> %pal
|  3> nprocs 16
|  4> end
|  5>
|  6> * xyz 0 1
|  7> S 	 53.6377 	 27.6999 	 44.0781
|  8> C 	 55.3368 	 28.1694 	 43.7011
|  9> C 	 56.1302 	 27.0392 	 43.6054
| 10> C 	 55.3595 	 25.8383 	 43.7786
| 11> C 	 54.0203 	 26.0032 	 43.94
| 12> H 	 55.6469 	 24.756 	 43.6671
| 13> C 	 57.6269 	 27.0655 	 43.4292
| 14> H 	 57.8486 	 27.7912 	 42.6446
| 15> H 	 58.047 	 26.0942 	 43.1561
| 16> C 	 58.5172 	 27.4426 	 44.6455
| 17> H 	 59.5102 	 27.3095 	 44.4778
| 18> H 	 58.3367 	 28.5447 	 44.8072
| 19> C 	 58.2424 	 26.6679 	 45.9462
| 20> H 	 57.2261 	 26.6518 	 46.3826
| 21> H 	 58.3335 	 25.6371 	 45.666
| 22> H 	 58.8779 	 26.9612 	 46.7226
| 23> S 	 51.6095 	 25.4052 	 45.0657
| 24> C 	 50.8846 	 23.7936 	 44.8544
| 25> C 	 51.6121 	 22.9859 	 43.9596
| 26> C 	 52.807 	 23.7288 	 43.5275
| 27> C 	 52.9829 	 25.003 	 44.0892
| 28> H 	 51.3092 	 21.994 	 43.6655
| 29> C 	 53.6847 	 23.1081 	 42.4003
| 30> H 	 54.7019 	 23.6468 	 42.2432
| 31> H 	 53.1177 	 23.1659 	 41.535
| 32> C 	 53.8934 	 21.6338 	 42.5188
| 33> H 	 52.9911 	 21.1002 	 42.5503
| 34> H 	 54.4794 	 21.4832 	 43.4742
| 35> C 	 54.594 	 21.0222 	 41.3474
| 36> H 	 54.0507 	 21.2281 	 40.478
| 37> H 	 54.5225 	 19.8992 	 41.4538
| 38> H 	 55.6054 	 21.4229 	 41.1505
| 39> H 	 55.7191 	 29.207 	 43.7953
| 40> H 	 49.9438 	 23.5145 	 45.3262
| 41> *
| 42>
| 43>                          ****END OF INPUT****

CARTESIAN COORDINATES (ANGSTROEM)
---------------------------------
  S     53.637700   27.699900   44.078100
  C     55.336800   28.169400   43.701100
  C     56.130200   27.039200   43.605400
  C     55.359500   25.838300   43.778600
  C     54.020300   26.003200   43.940000
  H     55.646900   24.756000   43.667100
  C     57.626900   27.065500   43.429200
  H     57.848600   27.791200   42.644600
  H     58.047000   26.094200   43.156100
  C     58.517200   27.442600   44.645500
  H     59.510200   27.309500   44.477800
  H     58.336700   28.544700   44.807200
  C     58.242400   26.667900   45.946200
  H     57.226100   26.651800   46.382600
  H     58.333500   25.637100   45.666000
  H     58.877900   26.961200   46.722600
  S     51.609500   25.405200   45.065700
  C     50.884600   23.793600   44.854400
  C     51.612100   22.985900   43.959600
  C     52.807000   23.728800   43.527500
  C     52.982900   25.003000   44.089200
  H     51.309200   21.994000   43.665500
  C     53.684700   23.108100   42.400300
  H     54.701900   23.646800   42.243200
  H     53.117700   23.165900   41.535000
  C     53.893400   21.633800   42.518800
  H     52.991100   21.100200   42.550300
  H     54.479400   21.483200   43.474200
  C     54.594000   21.022200   41.347400
  H     54.050700   21.228100   40.478000
  H     54.522500   19.899200   41.453800
  H     55.605400   21.422900   41.150500
  H     55.719100   29.207000   43.795300
  H     49.943800   23.514500   45.326200

 Total Charge           Charge          ....    0
 Multiplicity           Mult            ....    1
 Number of Electrons    NEL             ....  134
 Basis Dimension        Dim             ....  322

ORBITAL ENERGIES
----------------

  NO   OCC          E(Eh)            E(eV)
   0   2.0000     -88.968326     -2420.9512
   1   2.0000     -88.964716     -2420.8530
   2   2.0000     -10.330439      -281.1055
   3   2.0000     -10.329192      -281.0716
   4   2.0000     -10.328348      -281.0486
   5   2.0000     -10.321406      -280.8597
   6   2.0000     -10.314206      -280.6638
   7   2.0000     -10.307774      -280.4888
   8   2.0000     -10.307061      -280.4694
   9   2.0000     -10.295626      -280.1582
  10   2.0000     -10.294279      -280.1216
  11   2.0000     -10.292179      -280.0644
  12   2.0000     -10.284273      -279.8493
  13   2.0000     -10.281020      -279.7608
  14   2.0000     -10.278307      -279.6870
  15   2.0000     -10.268612      -279.4231
  16   2.0000      -8.082954      -219.9484
  17   2.0000      -8.078984      -219.8403
  18   2.0000      -6.041547      -164.3989
  19   2.0000      -6.037671      -164.2934
  20   2.0000      -6.037479      -164.2881
  21   2.0000      -6.033630      -164.1834
  22   2.0000      -6.033622      -164.1832
  23   2.0000      -6.029507      -164.0712
  24   2.0000      -1.006553       -27.3897
  25   2.0000      -0.979701       -26.6590
  26   2.0000      -0.921109       -25.0646
  27   2.0000      -0.911255       -24.7965
  28   2.0000      -0.870577       -23.6896
  29   2.0000      -0.852240       -23.1906
  30   2.0000      -0.841127       -22.8882
  31   2.0000      -0.817335       -22.2408
  32   2.0000      -0.785067       -21.3628
  33   2.0000      -0.773890       -21.0586
  34   2.0000      -0.706689       -19.2300
  35   2.0000      -0.701284       -19.0829
  36   2.0000      -0.694702       -18.9038
  37   2.0000      -0.662373       -18.0241
  38   2.0000      -0.638004       -17.3610
  39   2.0000      -0.612112       -16.6564
  40   2.0000      -0.596497       -16.2315
  41   2.0000      -0.582133       -15.8406
  42   2.0000      -0.574434       -15.6311
  43   2.0000      -0.554848       -15.0982
  44   2.0000      -0.547757       -14.9052
  45   2.0000      -0.527420       -14.3518
  46   2.0000      -0.514652       -14.0044
  47   2.0000      -0.511144       -13.9089
  48   2.0000      -0.503666       -13.7054
  49   2.0000      -0.502344       -13.6695
  50   2.0000      -0.491106       -13.3637
  51   2.0000      -0.479187       -13.0393
  52   2.0000      -0.474693       -12.9171
  53   2.0000      -0.469178       -12.7670
  54   2.0000      -0.459052       -12.4914
  55   2.0000      -0.453411       -12.3379
  56   2.0000      -0.441124       -12.0036
  57   2.0000      -0.436075       -11.8662
  58   2.0000      -0.430189       -11.7060
  59   2.0000      -0.422496       -11.4967
  60   2.0000      -0.418835       -11.3971
  61   2.0000      -0.414448       -11.2777
  62   2.0000      -0.408052       -11.1036
  63   2.0000      -0.357469        -9.7272
  64   2.0000      -0.334752        -9.1091
  65   2.0000      -0.327145        -8.9021
  66   2.0000      -0.287456        -7.8221
  67   0.0000       0.021238         0.5779
  68   0.0000       0.072479         1.9723
  69   0.0000       0.094795         2.5795
  70   0.0000       0.114664         3.1202
  71   0.0000       0.128572         3.4986

MULLIKEN ATOMIC CHARGES
-----------------------
   0 S :    0.085794
   1 C :   -0.133839
   2 C :   -0.064899
   3 C :   -0.008885
   4 C :   -0.128436
   5 H :    0.026009
   6 C :    0.057543
   7 H :    0.037168
   8 H :    0.019232
   9 C :   -0.052489
  10 H :    0.015931
  11 H :    0.022726
  12 C :   -0.046567
  13 H :    0.041144
  14 H :    0.012033
  15 H :    0.029947
  16 S :    0.095890
  17 C :   -0.091795
  18 C :   -0.026672
  19 C :   -0.048503
  20 C :   -0.120808
  21 H :    0.028237
  22 C :    0.066601
  23 H :    0.038148
  24 H :    0.010691
  25 C :   -0.109107
  26 H :    0.016441
  27 H :    0.037106
  28 C :   -0.023009
  29 H :    0.005881
  30 H :    0.042290
  31 H :    0.032946
  32 H :    0.067800
  33 H :    0.065453
Sum of atomic charges:    0.0000000

LOEWDIN ATOMIC CHARGES
----------------------
   0 S :    0.377603
   1 C :   -0.184595
   2 C :   -0.059633
   3 C :   -0.077995
   4 C :   -0.186052
   5 H :    0.038611
   6 C :   -0.032008
   7 H :    0.036490
   8 H :    0.028180
   9 C :   -0.029261
  10 H :    0.012225
  11 H :    0.021639
  12 C :   -0.065517
  13 H :    0.031663
  14 H :    0.020938
  15 H :    0.019702
  16 S :    0.401523
  17 C :   -0.169654
  18 C :   -0.065098
  19 C :   -0.048889
  20 C :   -0.207977
  21 H :    0.032601
  22 C :   -0.033827
  23 H :    0.037530
  24 H :    0.022296
  25 C :   -0.047811
  26 H :    0.015500
  27 H :    0.028445
  28 C :   -0.061783
  29 H :    0.014847
  30 H :    0.036671
  31 H :    0.026271
  32 H :    0.037428
  33 H :    0.029936

  Mayer bond orders larger than 0.100000
B(  0-S ,  1-C ) :   1.1171 B(  0-S ,  4-C ) :   1.1337 B(  1-C ,  2-C ) :   1.6216
B(  1-C , 32-H ) :   0.9666 B(  2-C ,  3-C ) :   1.2117 B(  2-C ,  6-C ) :   1.0279
B(  3-C ,  4-C ) :   1.6153 B(  3-C ,  5-H ) :   0.9786 B(  4-C , 20-C ) :   1.0632
B(  6-C ,  7-H ) :   0.9397 B(  6-C ,  8-H ) :   0.9430 B(  6-C ,  9-C ) :   1.0767
B(  9-C , 10-H ) :   0.9578 B(  9-C , 11-H ) :   0.9555 B(  9-C , 12-C ) :   1.0724
B( 12-C , 13-H ) :   0.9733 B( 12-C , 14-H ) :   0.9742 B( 12-C , 15-H ) :   0.9756
B( 16-S , 17-C ) :   1.1590 B( 16-S , 20-C ) :   1.1244 B( 17-C , 18-C ) :   1.6011
B( 17-C , 33-H ) :   0.9667 B( 18-C , 19-C ) :   1.2285 B( 18-C , 21-H ) :   0.9908
B( 19-C , 20-C ) :   1.5975 B( 19-C , 22-C ) :   1.0284 B( 22-C , 23-H ) :   0.9426
B( 22-C , 24-H ) :   0.9236 B( 22-C , 25-C ) :   1.0726 B( 25-C , 26-H ) :   0.9421
B( 25-C , 27-H ) :   0.9560 B( 25-C , 28-C ) :   1.0970 B( 28-C , 29-H ) :   0.9668
B( 28-C , 30-H ) :   0.9722 B( 28-C , 31-H ) :   0.9713

Dispersion correction           -0.013757809
FINAL SINGLE POINT ENERGY     -1339.861163709063

DIPOLE MOMENT
-------------
                                X             Y             Z
Electronic contribution:    -22.45814      14.22413       6.47447
Nuclear contribution   :     22.79265     -14.72734      -6.72475
                        -----------------------------------------
Total Dipole Moment    :      0.33452      -0.50321      -0.25028
                        -----------------------------------------
Magnitude (a.u.)       :      0.65404
Magnitude (Debye)      :      1.66243

Rotational constants in cm-1:     0.017399     0.008671     0.006514
Rotational constants in MHz :   521.610006   259.958177   195.282567

                             ****ORCA TERMINATED NORMALLY****
TOTAL RUN TIME: 0 days 0 hours 0 minutes 29 seconds 360 msec
