                         Program Version 4.2.1 -  RELEASE  -
|  1> ! wB97X-D3 SP def2-SVP
|  2> %pal
|  3> nprocs 16
|  4> end
|  5>
|  6> * xyz 0 1
|  7> S 	 -9.0231 	 43.0852 	 37.7901
|  8> C 	 -8.33192 	 41.5259 	 37.2023
|  9> C 	 -7.13754 	 41.7334 	 36.5138
| 10> C 	 -6.92643 	 43.1851 	 36.2942
| 11> C 	 -7.85581 	 43.9894 	 36.8887
| 12> H 	 -6.06935 	 43.59 	 35.8262
| 13> C 	 -6.22971 	 40.5776 	 36.0287
| 14> H 	 -6.87993 	 39.8629 	 35.5119
| 15> H 	 -5.8695 	 40.0312 	 36.9213
| 16> C 	 -5.07927 	 41.025 	 35.1616
| 17> H 	 -5.49133 	 41.4715 	 34.2143
| 18> H 	 -4.45341 	 41.7723 	 35.6545
| 19> C 	 -4.1191 	 39.8443 	 34.9397
| 20> H 	 -3.17931 	 40.0997 	 34.4639
| 21> H 	 -3.79071 	 39.4111 	 35.9845
| 22> H 	 -4.56745 	 39.1051 	 34.2126
| 23> S 	 -9.18913 	 46.4354 	 36.7335
| 24> C 	 -8.37868 	 47.8683 	 37.277
| 25> C 	 -7.13667 	 47.588 	 37.7374
| 26> C 	 -6.75637 	 46.1837 	 37.6041
| 27> C 	 -7.74141 	 45.4301 	 37.0505
| 28> H 	 -6.53017 	 48.4102 	 38.1311
| 29> C 	 -5.29634 	 45.699 	 37.9985
| 30> H 	 -5.2141 	 44.5811 	 37.9225
| 31> H 	 -5.15527 	 45.8967 	 39.0501
| 32> C 	 -4.24298 	 46.4639 	 37.1525
| 33> H 	 -4.46032 	 47.5052 	 37.3816
| 34> H 	 -4.44827 	 46.2074 	 36.1338
| 35> C 	 -2.73853 	 46.1705 	 37.3242
| 36> H 	 -2.28848 	 47.0186 	 37.8749
| 37> H 	 -2.20013 	 45.9176 	 36.4709
| 38> H 	 -2.67207 	 45.265 	 37.9998
| 39> H 	 -8.71623 	 40.5152 	 37.3158
| 40> H 	 -8.83727 	 48.8288 	 37.4143
| 41> *
| 42>
| 43>                          ****END OF INPUT****

CARTESIAN COORDINATES (ANGSTROEM)
---------------------------------
  S     -9.023100   43.085200   37.790100
  C     -8.331920   41.525900   37.202300
  C     -7.137540   41.733400   36.513800
  C     -6.926430   43.185100   36.294200
  C     -7.855810   43.989400   36.888700
  H     -6.069350   43.590000   35.826200
  C     -6.229710   40.577600   36.028700
  H     -6.879930   39.862900   35.511900
  H     -5.869500   40.031200   36.921300
  C     -5.079270   41.025000   35.161600
  H     -5.491330   41.471500   34.214300
  H     -4.453410   41.772300   35.654500
  C     -4.119100   39.844300   34.939700
  H     -3.179310   40.099700   34.463900
  H     -3.790710   39.411100   35.984500
  H     -4.567450   39.105100   34.212600
  S     -9.189130   46.435400   36.733500
  C     -8.378680   47.868300   37.277000
  C     -7.136670   47.588000   37.737400
  C     -6.756370   46.183700   37.604100
  C     -7.741410   45.430100   37.050500
  H     -6.530170   48.410200   38.131100
  C     -5.296340   45.699000   37.998500
  H     -5.214100   44.581100   37.922500
  H     -5.155270   45.896700   39.050100
  C     -4.242980   46.463900   37.152500
  H     -4.460320   47.505200   37.381600
  H     -4.448270   46.207400   36.133800
  C     -2.738530   46.170500   37.324200
  H     -2.288480   47.018600   37.874900
  H     -2.200130   45.917600   36.470900
  H     -2.672070   45.265000   37.999800
  H     -8.716230   40.515200   37.315800
  H     -8.837270   48.828800   37.414300

 Total Charge           Charge          ....    0
 Multiplicity           Mult            ....    1
 Number of Electrons    NEL             ....  134
 Basis Dimension        Dim             ....  322

ORBITAL ENERGIES
----------------

  NO   OCC          E(Eh)            E(eV)
   0   2.0000     -88.966044     -2420.8891
   1   2.0000     -88.961304     -2420.7601
   2   2.0000     -10.326727      -281.0045
   3   2.0000     -10.325965      -280.9838
   4   2.0000     -10.316091      -280.7151
   5   2.0000     -10.314437      -280.6701
   6   2.0000     -10.309781      -280.5434
   7   2.0000     -10.307972      -280.4942
   8   2.0000     -10.299546      -280.2649
   9   2.0000     -10.298885      -280.2469
  10   2.0000     -10.294842      -280.1369
  11   2.0000     -10.294193      -280.1192
  12   2.0000     -10.293557      -280.1019
  13   2.0000     -10.293427      -280.0984
  14   2.0000     -10.285431      -279.8808
  15   2.0000     -10.280367      -279.7430
  16   2.0000      -8.080074      -219.8700
  17   2.0000      -8.076152      -219.7633
  18   2.0000      -6.038820      -164.3246
  19   2.0000      -6.034753      -164.2140
  20   2.0000      -6.034698      -164.2125
  21   2.0000      -6.030717      -164.1041
  22   2.0000      -6.030580      -164.1004
  23   2.0000      -6.026726      -163.9956
  24   2.0000      -1.004033       -27.3211
  25   2.0000      -0.978445       -26.6248
  26   2.0000      -0.914869       -24.8949
  27   2.0000      -0.902923       -24.5698
  28   2.0000      -0.871256       -23.7081
  29   2.0000      -0.846812       -23.0429
  30   2.0000      -0.837431       -22.7876
  31   2.0000      -0.816044       -22.2057
  32   2.0000      -0.782838       -21.3021
  33   2.0000      -0.772447       -21.0193
  34   2.0000      -0.710219       -19.3261
  35   2.0000      -0.695594       -18.9281
  36   2.0000      -0.686660       -18.6850
  37   2.0000      -0.656179       -17.8555
  38   2.0000      -0.639161       -17.3925
  39   2.0000      -0.617980       -16.8161
  40   2.0000      -0.593433       -16.1481
  41   2.0000      -0.575871       -15.6702
  42   2.0000      -0.570267       -15.5177
  43   2.0000      -0.565478       -15.3874
  44   2.0000      -0.525005       -14.2861
  45   2.0000      -0.517818       -14.0905
  46   2.0000      -0.514424       -13.9982
  47   2.0000      -0.510158       -13.8821
  48   2.0000      -0.506602       -13.7853
  49   2.0000      -0.499256       -13.5854
  50   2.0000      -0.492266       -13.3952
  51   2.0000      -0.479384       -13.0447
  52   2.0000      -0.474043       -12.8994
  53   2.0000      -0.461478       -12.5574
  54   2.0000      -0.457606       -12.4521
  55   2.0000      -0.452545       -12.3144
  56   2.0000      -0.447192       -12.1687
  57   2.0000      -0.433811       -11.8046
  58   2.0000      -0.427696       -11.6382
  59   2.0000      -0.425098       -11.5675
  60   2.0000      -0.419431       -11.4133
  61   2.0000      -0.416609       -11.3365
  62   2.0000      -0.410817       -11.1789
  63   2.0000      -0.342239        -9.3128
  64   2.0000      -0.331233        -9.0133
  65   2.0000      -0.326309        -8.8793
  66   2.0000      -0.301755        -8.2112
  67   0.0000       0.034905         0.9498
  68   0.0000       0.071423         1.9435
  69   0.0000       0.110295         3.0013
  70   0.0000       0.121195         3.2979
  71   0.0000       0.128348         3.4925

MULLIKEN ATOMIC CHARGES
-----------------------
   0 S :    0.114317
   1 C :   -0.120453
   2 C :   -0.108005
   3 C :    0.015577
   4 C :   -0.094716
   5 H :   -0.003027
   6 C :    0.056690
   7 H :    0.036158
   8 H :    0.039300
   9 C :   -0.100683
  10 H :    0.048820
  11 H :    0.036822
  12 C :   -0.078235
  13 H :    0.030628
  14 H :    0.046551
  15 H :    0.044447
  16 S :    0.090845
  17 C :   -0.071406
  18 C :   -0.057353
  19 C :   -0.016374
  20 C :   -0.197606
  21 H :    0.029536
  22 C :    0.066169
  23 H :    0.034885
  24 H :    0.025353
  25 C :   -0.091890
  26 H :    0.029157
  27 H :    0.028695
  28 C :   -0.031407
  29 H :    0.040840
  30 H :    0.031607
  31 H :    0.026285
  32 H :    0.043663
  33 H :    0.054812
Sum of atomic charges:    0.0000000

LOEWDIN ATOMIC CHARGES
----------------------
   0 S :    0.395565
   1 C :   -0.190312
   2 C :   -0.054696
   3 C :   -0.063493
   4 C :   -0.197641
   5 H :    0.021489
   6 C :   -0.034966
   7 H :    0.034968
   8 H :    0.035793
   9 C :   -0.051458
  10 H :    0.033313
  11 H :    0.024731
  12 C :   -0.075343
  13 H :    0.020912
  14 H :    0.038184
  15 H :    0.030800
  16 S :    0.383897
  17 C :   -0.179947
  18 C :   -0.078471
  19 C :   -0.043972
  20 C :   -0.190016
  21 H :    0.033561
  22 C :   -0.027815
  23 H :    0.030222
  24 H :    0.025543
  25 C :   -0.042942
  26 H :    0.023066
  27 H :    0.022864
  28 C :   -0.066296
  29 H :    0.032166
  30 H :    0.017613
  31 H :    0.031957
  32 H :    0.029835
  33 H :    0.030888

  Mayer bond orders larger than 0.100000
B(  0-S ,  1-C ) :   1.1155 B(  0-S ,  4-C ) :   1.1475 B(  1-C ,  2-C ) :   1.6525
B(  1-C , 32-H ) :   0.9703 B(  2-C ,  3-C ) :   1.2100 B(  2-C ,  6-C ) :   0.9992
B(  3-C ,  4-C ) :   1.5896 B(  3-C ,  5-H ) :   1.0054 B(  4-C , 20-C ) :   1.0218
B(  6-C ,  7-H ) :   0.9402 B(  6-C ,  8-H ) :   0.9390 B(  6-C ,  9-C ) :   1.0850
B(  9-C , 10-H ) :   0.9497 B(  9-C , 11-H ) :   0.9501 B(  9-C , 12-C ) :   1.0817
B( 12-C , 13-H ) :   0.9747 B( 12-C , 14-H ) :   0.9710 B( 12-C , 15-H ) :   0.9737
B( 16-S , 17-C ) :   1.1425 B( 16-S , 20-C ) :   1.1140 B( 17-C , 18-C ) :   1.6623
B( 17-C , 33-H ) :   0.9652 B( 18-C , 19-C ) :   1.1929 B( 18-C , 21-H ) :   0.9826
B( 19-C , 20-C ) :   1.6625 B( 19-C , 22-C ) :   1.0231 B( 22-C , 23-H ) :   0.9379
B( 22-C , 24-H ) :   0.9356 B( 22-C , 25-C ) :   1.0606 B( 25-C , 26-H ) :   0.9626
B( 25-C , 27-H ) :   0.9613 B( 25-C , 28-C ) :   1.0672 B( 28-C , 29-H ) :   0.9773
B( 28-C , 30-H ) :   0.9804 B( 28-C , 31-H ) :   0.9769

Dispersion correction           -0.013803538
FINAL SINGLE POINT ENERGY     -1339.873946025408

DIPOLE MOMENT
-------------
                                X             Y             Z
Electronic contribution:    -30.90944       9.90447       5.41841
Nuclear contribution   :     31.72098     -10.02376      -5.40370
                        -----------------------------------------
Total Dipole Moment    :      0.81154      -0.11929       0.01472
                        -----------------------------------------
Magnitude (a.u.)       :      0.82039
Magnitude (Debye)      :      2.08527

Rotational constants in cm-1:     0.016297     0.009266     0.006388
Rotational constants in MHz :   488.581538   277.782957   191.513946

                             ****ORCA TERMINATED NORMALLY****
TOTAL RUN TIME: 0 days 0 hours 0 minutes 32 seconds 76 msec
