                         Program Version 4.2.1 -  RELEASE  -
|  1> ! wB97X-D3 SP def2-SVP
|  2> %pal
|  3> nprocs 16
|  4> end
|  5>
|  6> * xyz 0 1
|  7> S 	 -67.926 	 37.2872 	 135.429
|  8> C 	 -66.3329 	 37.8735 	 134.91
|  9> C 	 -65.401 	 37.2646 	 135.767
| 10> C 	 -65.8733 	 36.2537 	 136.634
| 11> C 	 -67.2123 	 36.1096 	 136.471
| 12> H 	 -65.2822 	 35.688 	 137.374
| 13> C 	 -63.9644 	 37.7397 	 135.857
| 14> H 	 -63.9277 	 38.7625 	 135.499
| 15> H 	 -63.4124 	 37.0559 	 135.236
| 16> C 	 -63.216 	 37.6404 	 137.209
| 17> H 	 -63.79 	 38.2302 	 137.895
| 18> H 	 -63.145 	 36.6059 	 137.551
| 19> C 	 -61.7431 	 38.0906 	 137.067
| 20> H 	 -61.3182 	 37.9392 	 138.037
| 21> H 	 -61.0762 	 37.4901 	 136.399
| 22> H 	 -61.7335 	 39.1095 	 136.846
| 23> S 	 -68.496 	 36.3868 	 138.851
| 24> C 	 -69.4332 	 35.0235 	 139.359
| 25> C 	 -69.3418 	 33.9599 	 138.495
| 26> C 	 -68.6694 	 34.2038 	 137.279
| 27> C 	 -68.0673 	 35.4413 	 137.362
| 28> H 	 -69.9008 	 33.0972 	 138.829
| 29> C 	 -68.4515 	 33.1119 	 136.316
| 30> H 	 -68.7836 	 33.5163 	 135.341
| 31> H 	 -69.204 	 32.3014 	 136.485
| 32> C 	 -67.0487 	 32.4965 	 136.212
| 33> H 	 -66.3113 	 33.2576 	 135.966
| 34> H 	 -66.9962 	 31.7401 	 135.4
| 35> C 	 -66.7459 	 31.7795 	 137.549
| 36> H 	 -67.5361 	 31.1623 	 137.996
| 37> H 	 -66.4951 	 32.4866 	 138.391
| 38> H 	 -66.0098 	 30.9979 	 137.352
| 39> H 	 -66.1298 	 38.774 	 134.362
| 40> H 	 -70.0115 	 34.936 	 140.249
| 41> *
| 42>
| 43>                          ****END OF INPUT****

CARTESIAN COORDINATES (ANGSTROEM)
---------------------------------
  S    -67.926000   37.287200  135.429000
  C    -66.332900   37.873500  134.910000
  C    -65.401000   37.264600  135.767000
  C    -65.873300   36.253700  136.634000
  C    -67.212300   36.109600  136.471000
  H    -65.282200   35.688000  137.374000
  C    -63.964400   37.739700  135.857000
  H    -63.927700   38.762500  135.499000
  H    -63.412400   37.055900  135.236000
  C    -63.216000   37.640400  137.209000
  H    -63.790000   38.230200  137.895000
  H    -63.145000   36.605900  137.551000
  C    -61.743100   38.090600  137.067000
  H    -61.318200   37.939200  138.037000
  H    -61.076200   37.490100  136.399000
  H    -61.733500   39.109500  136.846000
  S    -68.496000   36.386800  138.851000
  C    -69.433200   35.023500  139.359000
  C    -69.341800   33.959900  138.495000
  C    -68.669400   34.203800  137.279000
  C    -68.067300   35.441300  137.362000
  H    -69.900800   33.097200  138.829000
  C    -68.451500   33.111900  136.316000
  H    -68.783600   33.516300  135.341000
  H    -69.204000   32.301400  136.485000
  C    -67.048700   32.496500  136.212000
  H    -66.311300   33.257600  135.966000
  H    -66.996200   31.740100  135.400000
  C    -66.745900   31.779500  137.549000
  H    -67.536100   31.162300  137.996000
  H    -66.495100   32.486600  138.391000
  H    -66.009800   30.997900  137.352000
  H    -66.129800   38.774000  134.362000
  H    -70.011500   34.936000  140.249000

 Total Charge           Charge          ....    0
 Multiplicity           Mult            ....    1
 Number of Electrons    NEL             ....  134
 Basis Dimension        Dim             ....  322

ORBITAL ENERGIES
----------------

  NO   OCC          E(Eh)            E(eV)
   0   2.0000     -88.965085     -2420.8630
   1   2.0000     -88.963132     -2420.8099
   2   2.0000     -10.320076      -280.8235
   3   2.0000     -10.317023      -280.7405
   4   2.0000     -10.312659      -280.6217
   5   2.0000     -10.308806      -280.5169
   6   2.0000     -10.299362      -280.2599
   7   2.0000     -10.299271      -280.2574
   8   2.0000     -10.291526      -280.0466
   9   2.0000     -10.291450      -280.0446
  10   2.0000     -10.290533      -280.0196
  11   2.0000     -10.287296      -279.9316
  12   2.0000     -10.284582      -279.8577
  13   2.0000     -10.284177      -279.8467
  14   2.0000     -10.278760      -279.6993
  15   2.0000     -10.276562      -279.6395
  16   2.0000      -8.079348      -219.8502
  17   2.0000      -8.077889      -219.8105
  18   2.0000      -6.037766      -164.2960
  19   2.0000      -6.036393      -164.2586
  20   2.0000      -6.034098      -164.1961
  21   2.0000      -6.032382      -164.1495
  22   2.0000      -6.030065      -164.0864
  23   2.0000      -6.028647      -164.0478
  24   2.0000      -1.011047       -27.5120
  25   2.0000      -0.982635       -26.7389
  26   2.0000      -0.911550       -24.8045
  27   2.0000      -0.909985       -24.7620
  28   2.0000      -0.872172       -23.7330
  29   2.0000      -0.849053       -23.1039
  30   2.0000      -0.848217       -23.0812
  31   2.0000      -0.812753       -22.1161
  32   2.0000      -0.783639       -21.3239
  33   2.0000      -0.768714       -20.9178
  34   2.0000      -0.717113       -19.5136
  35   2.0000      -0.699589       -19.0368
  36   2.0000      -0.688514       -18.7354
  37   2.0000      -0.658408       -17.9162
  38   2.0000      -0.638763       -17.3816
  39   2.0000      -0.619031       -16.8447
  40   2.0000      -0.590678       -16.0732
  41   2.0000      -0.578726       -15.7479
  42   2.0000      -0.560983       -15.2651
  43   2.0000      -0.552050       -15.0220
  44   2.0000      -0.544879       -14.8269
  45   2.0000      -0.524331       -14.2678
  46   2.0000      -0.515930       -14.0392
  47   2.0000      -0.509565       -13.8660
  48   2.0000      -0.501730       -13.6528
  49   2.0000      -0.498000       -13.5513
  50   2.0000      -0.485502       -13.2112
  51   2.0000      -0.481309       -13.0971
  52   2.0000      -0.470811       -12.8114
  53   2.0000      -0.466958       -12.7066
  54   2.0000      -0.457619       -12.4524
  55   2.0000      -0.452286       -12.3073
  56   2.0000      -0.440861       -11.9964
  57   2.0000      -0.434352       -11.8193
  58   2.0000      -0.433604       -11.7990
  59   2.0000      -0.424504       -11.5513
  60   2.0000      -0.419877       -11.4254
  61   2.0000      -0.411965       -11.2101
  62   2.0000      -0.410150       -11.1608
  63   2.0000      -0.338876        -9.2213
  64   2.0000      -0.327558        -8.9133
  65   2.0000      -0.311465        -8.4754
  66   2.0000      -0.307812        -8.3760
  67   0.0000       0.039928         1.0865
  68   0.0000       0.047779         1.3001
  69   0.0000       0.106968         2.9108
  70   0.0000       0.121962         3.3187
  71   0.0000       0.133304         3.6274

MULLIKEN ATOMIC CHARGES
-----------------------
   0 S :    0.108587
   1 C :   -0.105437
   2 C :   -0.110230
   3 C :    0.025271
   4 C :   -0.146705
   5 H :    0.032193
   6 C :    0.069054
   7 H :    0.017388
   8 H :    0.028148
   9 C :   -0.105457
  10 H :    0.032938
  11 H :    0.031099
  12 C :   -0.022961
  13 H :    0.024531
  14 H :    0.039610
  15 H :    0.022985
  16 S :    0.122671
  17 C :   -0.078800
  18 C :   -0.054724
  19 C :    0.026619
  20 C :   -0.221883
  21 H :    0.009016
  22 C :    0.056900
  23 H :    0.028446
  24 H :    0.023835
  25 C :   -0.034836
  26 H :    0.039441
  27 H :    0.032683
  28 C :   -0.084646
  29 H :    0.020159
  30 H :    0.055371
  31 H :    0.030389
  32 H :    0.048531
  33 H :    0.039813
Sum of atomic charges:   -0.0000000

LOEWDIN ATOMIC CHARGES
----------------------
   0 S :    0.414253
   1 C :   -0.204704
   2 C :   -0.056583
   3 C :   -0.065426
   4 C :   -0.206469
   5 H :    0.041067
   6 C :   -0.034810
   7 H :    0.025690
   8 H :    0.031114
   9 C :   -0.035108
  10 H :    0.021410
  11 H :    0.021742
  12 C :   -0.057419
  13 H :    0.025546
  14 H :    0.032179
  15 H :    0.016051
  16 S :    0.389583
  17 C :   -0.187127
  18 C :   -0.075140
  19 C :   -0.051004
  20 C :   -0.184098
  21 H :    0.028939
  22 C :   -0.037473
  23 H :    0.035352
  24 H :    0.034605
  25 C :   -0.033507
  26 H :    0.026874
  27 H :    0.028943
  28 C :   -0.078918
  29 H :    0.023710
  30 H :    0.034298
  31 H :    0.025622
  32 H :    0.027055
  33 H :    0.023753

  Mayer bond orders larger than 0.100000
B(  0-S ,  1-C ) :   1.1176 B(  0-S ,  4-C ) :   1.1847 B(  1-C ,  2-C ) :   1.6026
B(  1-C , 32-H ) :   0.9719 B(  2-C ,  3-C ) :   1.2428 B(  2-C ,  6-C ) :   1.0209
B(  3-C ,  4-C ) :   1.5478 B(  3-C ,  5-H ) :   0.9929 B(  4-C , 20-C ) :   1.0501
B(  6-C ,  7-H ) :   0.9479 B(  6-C ,  8-H ) :   0.9298 B(  6-C ,  9-C ) :   1.0800
B(  9-C , 10-H ) :   0.9590 B(  9-C , 11-H ) :   0.9456 B(  9-C , 12-C ) :   1.0881
B( 12-C , 13-H ) :   0.9720 B( 12-C , 14-H ) :   0.9739 B( 12-C , 15-H ) :   0.9762
B( 16-S , 17-C ) :   1.1421 B( 16-S , 20-C ) :   1.1288 B( 17-C , 18-C ) :   1.6576
B( 17-C , 20-C ) :   0.1007 B( 17-C , 33-H ) :   0.9645 B( 18-C , 19-C ) :   1.2033
B( 18-C , 21-H ) :   0.9863 B( 19-C , 20-C ) :   1.5988 B( 19-C , 22-C ) :   1.0610
B( 22-C , 23-H ) :   0.9121 B( 22-C , 24-H ) :   0.9360 B( 22-C , 25-C ) :   1.0788
B( 25-C , 26-H ) :   0.9538 B( 25-C , 27-H ) :   0.9553 B( 25-C , 28-C ) :   1.0619
B( 28-C , 29-H ) :   0.9743 B( 28-C , 30-H ) :   0.9743 B( 28-C , 31-H ) :   0.9755

Dispersion correction           -0.014847219
FINAL SINGLE POINT ENERGY     -1339.862026830244

DIPOLE MOMENT
-------------
                                X             Y             Z
Electronic contribution:    -21.32084      10.66930       0.26542
Nuclear contribution   :     21.74805     -10.92092      -0.07949
                        -----------------------------------------
Total Dipole Moment    :      0.42722      -0.25161       0.18593
                        -----------------------------------------
Magnitude (a.u.)       :      0.52952
Magnitude (Debye)      :      1.34594

Rotational constants in cm-1:     0.018931     0.008429     0.007741
Rotational constants in MHz :   567.544510   252.699581   232.063595

                             ****ORCA TERMINATED NORMALLY****
TOTAL RUN TIME: 0 days 0 hours 0 minutes 35 seconds 808 msec
