                         Program Version 4.2.1 -  RELEASE  -
|  1> ! wB97X-D3 SP def2-SVP
|  2> %pal
|  3> nprocs 16
|  4> end
|  5>
|  6> * xyz 0 1
|  7> S 	 -80.9222 	 45.4301 	 121.233
|  8> C 	 -80.6178 	 44.1477 	 120.012
|  9> C 	 -80.6581 	 42.851 	 120.584
| 10> C 	 -80.7486 	 42.9584 	 122.023
| 11> C 	 -80.7671 	 44.2306 	 122.493
| 12> H 	 -80.6208 	 42.0844 	 122.643
| 13> C 	 -80.6339 	 41.4784 	 119.876
| 14> H 	 -80.7435 	 41.6937 	 118.763
| 15> H 	 -81.507 	 40.9489 	 120.113
| 16> C 	 -79.4417 	 40.5672 	 120.171
| 17> H 	 -79.4862 	 40.2721 	 121.213
| 18> H 	 -79.4945 	 39.5843 	 119.683
| 19> C 	 -78.08 	 41.3338 	 119.965
| 20> H 	 -77.9763 	 42.0517 	 120.763
| 21> H 	 -77.1973 	 40.6867 	 120.113
| 22> H 	 -77.9695 	 41.8207 	 119.014
| 23> S 	 -82.4239 	 44.7586 	 124.672
| 24> C 	 -81.6361 	 45.5251 	 126.072
| 25> C 	 -80.2541 	 45.5159 	 125.941
| 26> C 	 -79.7643 	 44.8403 	 124.786
| 27> C 	 -80.7975 	 44.675 	 123.871
| 28> H 	 -79.6451 	 45.8661 	 126.689
| 29> C 	 -78.2691 	 44.6449 	 124.421
| 30> H 	 -78.3327 	 43.9557 	 123.557
| 31> H 	 -77.7584 	 44.1027 	 125.223
| 32> C 	 -77.3666 	 45.8307 	 124.07
| 33> H 	 -77.562 	 46.761 	 124.634
| 34> H 	 -77.576 	 46.0144 	 122.968
| 35> C 	 -75.8961 	 45.4998 	 124.285
| 36> H 	 -75.3327 	 46.3854 	 123.972
| 37> H 	 -75.568 	 44.675 	 123.719
| 38> H 	 -75.7496 	 45.3993 	 125.362
| 39> H 	 -80.5477 	 44.3375 	 118.962
| 40> H 	 -82.139 	 46.051 	 126.956
| 41> *
| 42>
| 43>                          ****END OF INPUT****

CARTESIAN COORDINATES (ANGSTROEM)
---------------------------------
  S    -80.922200   45.430100  121.233000
  C    -80.617800   44.147700  120.012000
  C    -80.658100   42.851000  120.584000
  C    -80.748600   42.958400  122.023000
  C    -80.767100   44.230600  122.493000
  H    -80.620800   42.084400  122.643000
  C    -80.633900   41.478400  119.876000
  H    -80.743500   41.693700  118.763000
  H    -81.507000   40.948900  120.113000
  C    -79.441700   40.567200  120.171000
  H    -79.486200   40.272100  121.213000
  H    -79.494500   39.584300  119.683000
  C    -78.080000   41.333800  119.965000
  H    -77.976300   42.051700  120.763000
  H    -77.197300   40.686700  120.113000
  H    -77.969500   41.820700  119.014000
  S    -82.423900   44.758600  124.672000
  C    -81.636100   45.525100  126.072000
  C    -80.254100   45.515900  125.941000
  C    -79.764300   44.840300  124.786000
  C    -80.797500   44.675000  123.871000
  H    -79.645100   45.866100  126.689000
  C    -78.269100   44.644900  124.421000
  H    -78.332700   43.955700  123.557000
  H    -77.758400   44.102700  125.223000
  C    -77.366600   45.830700  124.070000
  H    -77.562000   46.761000  124.634000
  H    -77.576000   46.014400  122.968000
  C    -75.896100   45.499800  124.285000
  H    -75.332700   46.385400  123.972000
  H    -75.568000   44.675000  123.719000
  H    -75.749600   45.399300  125.362000
  H    -80.547700   44.337500  118.962000
  H    -82.139000   46.051000  126.956000

 Total Charge           Charge          ....    0
 Multiplicity           Mult            ....    1
 Number of Electrons    NEL             ....  134
 Basis Dimension        Dim             ....  322

ORBITAL ENERGIES
----------------

  NO   OCC          E(Eh)            E(eV)
   0   2.0000     -88.968002     -2420.9424
   1   2.0000     -88.964648     -2420.8511
   2   2.0000     -10.326497      -280.9983
   3   2.0000     -10.325282      -280.9652
   4   2.0000     -10.323466      -280.9158
   5   2.0000     -10.321020      -280.8492
   6   2.0000     -10.310013      -280.5497
   7   2.0000     -10.305693      -280.4322
   8   2.0000     -10.298176      -280.2276
   9   2.0000     -10.293564      -280.1021
  10   2.0000     -10.293516      -280.1008
  11   2.0000     -10.292765      -280.0804
  12   2.0000     -10.288456      -279.9631
  13   2.0000     -10.287231      -279.9298
  14   2.0000     -10.276934      -279.6496
  15   2.0000     -10.274458      -279.5822
  16   2.0000      -8.082079      -219.9246
  17   2.0000      -8.077978      -219.8130
  18   2.0000      -6.040649      -164.3744
  19   2.0000      -6.036777      -164.2691
  20   2.0000      -6.036599      -164.2642
  21   2.0000      -6.032937      -164.1646
  22   2.0000      -6.032698      -164.1581
  23   2.0000      -6.028441      -164.0422
  24   2.0000      -1.000285       -27.2191
  25   2.0000      -0.974310       -26.5123
  26   2.0000      -0.908655       -24.7258
  27   2.0000      -0.905392       -24.6370
  28   2.0000      -0.862695       -23.4751
  29   2.0000      -0.848725       -23.0950
  30   2.0000      -0.842596       -22.9282
  31   2.0000      -0.809030       -22.0148
  32   2.0000      -0.785571       -21.3765
  33   2.0000      -0.770823       -20.9752
  34   2.0000      -0.708493       -19.2791
  35   2.0000      -0.696750       -18.9595
  36   2.0000      -0.687575       -18.7099
  37   2.0000      -0.658403       -17.9161
  38   2.0000      -0.639520       -17.4022
  39   2.0000      -0.620868       -16.8947
  40   2.0000      -0.591204       -16.0875
  41   2.0000      -0.569848       -15.5063
  42   2.0000      -0.560774       -15.2594
  43   2.0000      -0.550286       -14.9740
  44   2.0000      -0.540758       -14.7148
  45   2.0000      -0.525961       -14.3121
  46   2.0000      -0.514690       -14.0054
  47   2.0000      -0.510824       -13.9002
  48   2.0000      -0.497668       -13.5422
  49   2.0000      -0.494276       -13.4499
  50   2.0000      -0.484898       -13.1947
  51   2.0000      -0.473562       -12.8863
  52   2.0000      -0.465683       -12.6719
  53   2.0000      -0.459438       -12.5019
  54   2.0000      -0.458584       -12.4787
  55   2.0000      -0.449714       -12.2373
  56   2.0000      -0.444692       -12.1007
  57   2.0000      -0.438627       -11.9356
  58   2.0000      -0.433422       -11.7940
  59   2.0000      -0.428364       -11.6564
  60   2.0000      -0.420215       -11.4346
  61   2.0000      -0.416219       -11.3259
  62   2.0000      -0.412880       -11.2350
  63   2.0000      -0.337039        -9.1713
  64   2.0000      -0.327810        -8.9202
  65   2.0000      -0.316751        -8.6192
  66   2.0000      -0.309095        -8.4109
  67   0.0000       0.042210         1.1486
  68   0.0000       0.044768         1.2182
  69   0.0000       0.098866         2.6903
  70   0.0000       0.112496         3.0612
  71   0.0000       0.127652         3.4736

MULLIKEN ATOMIC CHARGES
-----------------------
   0 S :    0.117353
   1 C :   -0.118987
   2 C :   -0.111911
   3 C :    0.057760
   4 C :   -0.188910
   5 H :    0.013696
   6 C :    0.078931
   7 H :    0.030184
   8 H :    0.026666
   9 C :   -0.078551
  10 H :    0.021409
  11 H :    0.037282
  12 C :   -0.051292
  13 H :    0.036147
  14 H :    0.029619
  15 H :    0.032889
  16 S :    0.102665
  17 C :   -0.113446
  18 C :    0.002562
  19 C :   -0.001524
  20 C :   -0.178367
  21 H :   -0.016334
  22 C :    0.049367
  23 H :    0.034798
  24 H :    0.020906
  25 C :   -0.089460
  26 H :    0.034715
  27 H :    0.039535
  28 C :   -0.039829
  29 H :    0.034014
  30 H :    0.031224
  31 H :    0.032885
  32 H :    0.040585
  33 H :    0.083416
Sum of atomic charges:   -0.0000000

LOEWDIN ATOMIC CHARGES
----------------------
   0 S :    0.395904
   1 C :   -0.180306
   2 C :   -0.054074
   3 C :   -0.058136
   4 C :   -0.201847
   5 H :    0.031316
   6 C :   -0.031143
   7 H :    0.035847
   8 H :    0.026820
   9 C :   -0.042217
  10 H :    0.021547
  11 H :    0.027927
  12 C :   -0.065050
  13 H :    0.025054
  14 H :    0.027175
  15 H :    0.021386
  16 S :    0.364621
  17 C :   -0.188179
  18 C :   -0.063371
  19 C :   -0.045648
  20 C :   -0.182685
  21 H :    0.015555
  22 C :   -0.037031
  23 H :    0.035283
  24 H :    0.028102
  25 C :   -0.045669
  26 H :    0.025401
  27 H :    0.030962
  28 C :   -0.059966
  29 H :    0.030520
  30 H :    0.018438
  31 H :    0.025580
  32 H :    0.020479
  33 H :    0.047402

  Mayer bond orders larger than 0.100000
B(  0-S ,  1-C ) :   1.1333 B(  0-S ,  4-C ) :   1.1410 B(  1-C ,  2-C ) :   1.6261
B(  1-C , 32-H ) :   0.9699 B(  2-C ,  3-C ) :   1.2116 B(  2-C ,  6-C ) :   1.0155
B(  3-C ,  4-C ) :   1.6167 B(  3-C ,  5-H ) :   0.9961 B(  4-C , 20-C ) :   1.0173
B(  6-C ,  7-H ) :   0.9435 B(  6-C ,  8-H ) :   0.9409 B(  6-C ,  9-C ) :   1.0706
B(  9-C , 10-H ) :   0.9533 B(  9-C , 11-H ) :   0.9577 B(  9-C , 12-C ) :   1.0662
B( 12-C , 13-H ) :   0.9714 B( 12-C , 14-H ) :   0.9750 B( 12-C , 15-H ) :   0.9817
B( 16-S , 17-C ) :   1.1268 B( 16-S , 20-C ) :   1.1275 B( 17-C , 18-C ) :   1.6448
B( 17-C , 20-C ) :   0.1050 B( 17-C , 33-H ) :   0.9555 B( 18-C , 19-C ) :   1.2094
B( 18-C , 21-H ) :   0.9963 B( 19-C , 20-C ) :   1.6152 B( 19-C , 22-C ) :   1.0492
B( 22-C , 23-H ) :   0.9288 B( 22-C , 24-H ) :   0.9380 B( 22-C , 25-C ) :   1.0511
B( 25-C , 26-H ) :   0.9613 B( 25-C , 27-H ) :   0.9540 B( 25-C , 28-C ) :   1.0830
B( 28-C , 29-H ) :   0.9720 B( 28-C , 30-H ) :   0.9771 B( 28-C , 31-H ) :   0.9737

Dispersion correction           -0.014830627
FINAL SINGLE POINT ENERGY     -1339.867371332062

DIPOLE MOMENT
-------------
                                X             Y             Z
Electronic contribution:    -24.28973      11.00076       5.41677
Nuclear contribution   :     24.79592     -11.34768      -5.42618
                        -----------------------------------------
Total Dipole Moment    :      0.50619      -0.34691      -0.00941
                        -----------------------------------------
Magnitude (a.u.)       :      0.61373
Magnitude (Debye)      :      1.55999

Rotational constants in cm-1:     0.016683     0.009351     0.007318
Rotational constants in MHz :   500.129687   280.341171   219.393204

                             ****ORCA TERMINATED NORMALLY****
TOTAL RUN TIME: 0 days 0 hours 0 minutes 32 seconds 232 msec
