                         Program Version 4.2.1 -  RELEASE  -
|  1> ! wB97X-D3 SP def2-SVP
|  2> %pal
|  3> nprocs 16
|  4> end
|  5>
|  6> * xyz 0 1
|  7> S 	 -48.6737 	 59.0186 	 130.51
|  8> C 	 -48.3064 	 58.6815 	 128.848
|  9> C 	 -49.4506 	 58.8785 	 128.063
| 10> C 	 -50.648 	 59.188 	 128.91
| 11> C 	 -50.3678 	 59.1874 	 130.274
| 12> H 	 -51.5696 	 59.4552 	 128.677
| 13> C 	 -49.5157 	 58.6711 	 126.551
| 14> H 	 -50.4659 	 58.9905 	 126.178
| 15> H 	 -49.438 	 57.6159 	 126.296
| 16> C 	 -48.6229 	 59.6079 	 125.783
| 17> H 	 -48.9584 	 60.6756 	 125.792
| 18> H 	 -47.6138 	 59.5243 	 126.246
| 19> C 	 -48.389 	 59.3116 	 124.271
| 20> H 	 -47.7825 	 58.3926 	 124.251
| 21> H 	 -49.2656 	 59.1508 	 123.616
| 22> H 	 -47.716 	 60.1336 	 123.916
| 23> S 	 -51.7387 	 57.9754 	 132.272
| 24> C 	 -52.8396 	 58.9027 	 133.274
| 25> C 	 -53.0576 	 60.1401 	 132.681
| 26> C 	 -52.1007 	 60.4622 	 131.681
| 27> C 	 -51.2845 	 59.4103 	 131.376
| 28> H 	 -53.7826 	 60.8041 	 133.131
| 29> C 	 -52.1066 	 61.8329 	 131.001
| 30> H 	 -53.0958 	 62.1969 	 131.118
| 31> H 	 -51.9494 	 61.7062 	 129.976
| 32> C 	 -51.2776 	 63.0232 	 131.517
| 33> H 	 -51.4203 	 63.1758 	 132.596
| 34> H 	 -51.5611 	 63.8898 	 130.952
| 35> C 	 -49.7404 	 63.0429 	 131.385
| 36> H 	 -49.2923 	 62.137 	 131.812
| 37> H 	 -49.1888 	 63.9471 	 131.716
| 38> H 	 -49.4292 	 63.0901 	 130.359
| 39> H 	 -47.3255 	 58.4138 	 128.396
| 40> H 	 -53.4666 	 58.4293 	 134
| 41> *
| 42>
| 43>                          ****END OF INPUT****

CARTESIAN COORDINATES (ANGSTROEM)
---------------------------------
  S    -48.673700   59.018600  130.510000
  C    -48.306400   58.681500  128.848000
  C    -49.450600   58.878500  128.063000
  C    -50.648000   59.188000  128.910000
  C    -50.367800   59.187400  130.274000
  H    -51.569600   59.455200  128.677000
  C    -49.515700   58.671100  126.551000
  H    -50.465900   58.990500  126.178000
  H    -49.438000   57.615900  126.296000
  C    -48.622900   59.607900  125.783000
  H    -48.958400   60.675600  125.792000
  H    -47.613800   59.524300  126.246000
  C    -48.389000   59.311600  124.271000
  H    -47.782500   58.392600  124.251000
  H    -49.265600   59.150800  123.616000
  H    -47.716000   60.133600  123.916000
  S    -51.738700   57.975400  132.272000
  C    -52.839600   58.902700  133.274000
  C    -53.057600   60.140100  132.681000
  C    -52.100700   60.462200  131.681000
  C    -51.284500   59.410300  131.376000
  H    -53.782600   60.804100  133.131000
  C    -52.106600   61.832900  131.001000
  H    -53.095800   62.196900  131.118000
  H    -51.949400   61.706200  129.976000
  C    -51.277600   63.023200  131.517000
  H    -51.420300   63.175800  132.596000
  H    -51.561100   63.889800  130.952000
  C    -49.740400   63.042900  131.385000
  H    -49.292300   62.137000  131.812000
  H    -49.188800   63.947100  131.716000
  H    -49.429200   63.090100  130.359000
  H    -47.325500   58.413800  128.396000
  H    -53.466600   58.429300  134.000000

 Total Charge           Charge          ....    0
 Multiplicity           Mult            ....    1
 Number of Electrons    NEL             ....  134
 Basis Dimension        Dim             ....  322

ORBITAL ENERGIES
----------------

  NO   OCC          E(Eh)            E(eV)
   0   2.0000     -88.964207     -2420.8391
   1   2.0000     -88.963779     -2420.8275
   2   2.0000     -10.326122      -280.9881
   3   2.0000     -10.324354      -280.9399
   4   2.0000     -10.319362      -280.8041
   5   2.0000     -10.319310      -280.8027
   6   2.0000     -10.311038      -280.5776
   7   2.0000     -10.304618      -280.4029
   8   2.0000     -10.296103      -280.1712
   9   2.0000     -10.291738      -280.0524
  10   2.0000     -10.290964      -280.0314
  11   2.0000     -10.289463      -279.9905
  12   2.0000     -10.287119      -279.9267
  13   2.0000     -10.285324      -279.8779
  14   2.0000     -10.285239      -279.8756
  15   2.0000     -10.269024      -279.4343
  16   2.0000      -8.079457      -219.8532
  17   2.0000      -8.078840      -219.8364
  18   2.0000      -6.037985      -164.3019
  19   2.0000      -6.037276      -164.2826
  20   2.0000      -6.033707      -164.1855
  21   2.0000      -6.033291      -164.1742
  22   2.0000      -6.030322      -164.0934
  23   2.0000      -6.029648      -164.0751
  24   2.0000      -1.009147       -27.4603
  25   2.0000      -0.984139       -26.7798
  26   2.0000      -0.913055       -24.8455
  27   2.0000      -0.905691       -24.6451
  28   2.0000      -0.870827       -23.6964
  29   2.0000      -0.849839       -23.1253
  30   2.0000      -0.842755       -22.9325
  31   2.0000      -0.815417       -22.1886
  32   2.0000      -0.787510       -21.4292
  33   2.0000      -0.776128       -21.1195
  34   2.0000      -0.703674       -19.1479
  35   2.0000      -0.694074       -18.8867
  36   2.0000      -0.690242       -18.7824
  37   2.0000      -0.666749       -18.1432
  38   2.0000      -0.650420       -17.6988
  39   2.0000      -0.610749       -16.6193
  40   2.0000      -0.597784       -16.2665
  41   2.0000      -0.578780       -15.7494
  42   2.0000      -0.560617       -15.2552
  43   2.0000      -0.550633       -14.9835
  44   2.0000      -0.544604       -14.8194
  45   2.0000      -0.527153       -14.3446
  46   2.0000      -0.517510       -14.0822
  47   2.0000      -0.508868       -13.8470
  48   2.0000      -0.503844       -13.7103
  49   2.0000      -0.501858       -13.6562
  50   2.0000      -0.499847       -13.6015
  51   2.0000      -0.482926       -13.1411
  52   2.0000      -0.478814       -13.0292
  53   2.0000      -0.463921       -12.6239
  54   2.0000      -0.458318       -12.4715
  55   2.0000      -0.442371       -12.0375
  56   2.0000      -0.439054       -11.9473
  57   2.0000      -0.437216       -11.8973
  58   2.0000      -0.432762       -11.7761
  59   2.0000      -0.416989       -11.3469
  60   2.0000      -0.414638       -11.2829
  61   2.0000      -0.409172       -11.1341
  62   2.0000      -0.407556       -11.0902
  63   2.0000      -0.336655        -9.1609
  64   2.0000      -0.330445        -8.9919
  65   2.0000      -0.323474        -8.8022
  66   2.0000      -0.309436        -8.4202
  67   0.0000       0.035483         0.9656
  68   0.0000       0.060421         1.6441
  69   0.0000       0.109548         2.9809
  70   0.0000       0.112964         3.0739
  71   0.0000       0.128469         3.4958

MULLIKEN ATOMIC CHARGES
-----------------------
   0 S :    0.124938
   1 C :   -0.126474
   2 C :   -0.108774
   3 C :    0.124716
   4 C :   -0.194055
   5 H :   -0.054680
   6 C :    0.112463
   7 H :    0.004260
   8 H :    0.043986
   9 C :   -0.135586
  10 H :    0.043005
  11 H :    0.025297
  12 C :   -0.067409
  13 H :    0.026690
  14 H :    0.044183
  15 H :    0.045255
  16 S :    0.105952
  17 C :   -0.083509
  18 C :   -0.047122
  19 C :   -0.030316
  20 C :   -0.162690
  21 H :    0.024561
  22 C :    0.139814
  23 H :    0.007279
  24 H :    0.002705
  25 C :   -0.053863
  26 H :    0.029653
  27 H :    0.024793
  28 C :   -0.067555
  29 H :    0.034046
  30 H :    0.032066
  31 H :    0.010573
  32 H :    0.068302
  33 H :    0.057496
Sum of atomic charges:   -0.0000000

LOEWDIN ATOMIC CHARGES
----------------------
   0 S :    0.431340
   1 C :   -0.211479
   2 C :   -0.054566
   3 C :   -0.041537
   4 C :   -0.210500
   5 H :    0.002368
   6 C :   -0.038493
   7 H :    0.027848
   8 H :    0.034851
   9 C :   -0.046396
  10 H :    0.029506
  11 H :    0.021101
  12 C :   -0.073802
  13 H :    0.023216
  14 H :    0.024875
  15 H :    0.034287
  16 S :    0.410353
  17 C :   -0.174785
  18 C :   -0.069042
  19 C :   -0.053590
  20 C :   -0.204220
  21 H :    0.031391
  22 C :   -0.020917
  23 H :    0.032102
  24 H :    0.022019
  25 C :   -0.034835
  26 H :    0.026344
  27 H :    0.024902
  28 C :   -0.077984
  29 H :    0.021894
  30 H :    0.030897
  31 H :    0.017659
  32 H :    0.039982
  33 H :    0.025209

  Mayer bond orders larger than 0.100000
B(  0-S ,  1-C ) :   1.1466 B(  0-S ,  4-C ) :   1.1674 B(  1-C ,  2-C ) :   1.6018
B(  1-C , 32-H ) :   0.9650 B(  2-C ,  3-C ) :   1.2173 B(  2-C ,  6-C ) :   1.0220
B(  3-C ,  4-C ) :   1.5823 B(  3-C ,  5-H ) :   1.0141 B(  4-C , 20-C ) :   1.0062
B(  6-C ,  7-H ) :   0.9354 B(  6-C ,  8-H ) :   0.9467 B(  6-C ,  9-C ) :   1.0509
B(  9-C , 10-H ) :   0.9606 B(  9-C , 11-H ) :   0.9620 B(  9-C , 12-C ) :   1.0735
B( 12-C , 13-H ) :   0.9769 B( 12-C , 14-H ) :   0.9760 B( 12-C , 15-H ) :   0.9748
B( 16-S , 17-C ) :   1.1627 B( 16-S , 20-C ) :   1.1561 B( 17-C , 18-C ) :   1.6021
B( 17-C , 20-C ) :   0.1016 B( 17-C , 33-H ) :   0.9704 B( 18-C , 19-C ) :   1.2473
B( 18-C , 21-H ) :   0.9868 B( 19-C , 20-C ) :   1.6023 B( 19-C , 22-C ) :   1.0342
B( 22-C , 23-H ) :   0.9233 B( 22-C , 24-H ) :   0.9277 B( 22-C , 25-C ) :   1.0787
B( 25-C , 26-H ) :   0.9564 B( 25-C , 27-H ) :   0.9529 B( 25-C , 28-C ) :   1.0796
B( 28-C , 29-H ) :   0.9755 B( 28-C , 30-H ) :   0.9728 B( 28-C , 31-H ) :   0.9731

Dispersion correction           -0.014360202
FINAL SINGLE POINT ENERGY     -1339.857778386378

DIPOLE MOMENT
-------------
                                X             Y             Z
Electronic contribution:     -4.56384     -16.16307      20.32200
Nuclear contribution   :      4.23081      16.49798     -20.78978
                        -----------------------------------------
Total Dipole Moment    :     -0.33303       0.33492      -0.46778
                        -----------------------------------------
Magnitude (a.u.)       :      0.66475
Magnitude (Debye)      :      1.68967

Rotational constants in cm-1:     0.021246     0.007620     0.006658
Rotational constants in MHz :   636.949259   228.441820   199.609420

                             ****ORCA TERMINATED NORMALLY****
TOTAL RUN TIME: 0 days 0 hours 0 minutes 34 seconds 151 msec
