                         Program Version 4.2.1 -  RELEASE  -
|  1> ! wB97X-D3 SP def2-SVP
|  2> %pal
|  3> nprocs 16
|  4> end
|  5>
|  6> * xyz 0 1
|  7> S 	 9.53991 	 21.9547 	 42.4097
|  8> C 	 9.16789 	 23.3488 	 41.3336
|  9> C 	 8.15336 	 23.113 	 40.4027
| 10> C 	 7.70341 	 21.7961 	 40.5871
| 11> C 	 8.3471 	 21.0352 	 41.5752
| 12> H 	 6.82304 	 21.357 	 40.0334
| 13> C 	 7.67509 	 24.0161 	 39.2388
| 14> H 	 8.20109 	 24.9166 	 39.4929
| 15> H 	 6.63838 	 24.2798 	 39.3861
| 16> C 	 8.11581 	 23.6643 	 37.8139
| 17> H 	 9.20327 	 23.8919 	 37.6563
| 18> H 	 7.91226 	 22.5907 	 37.715
| 19> C 	 7.42867 	 24.5402 	 36.777
| 20> H 	 6.40716 	 24.3208 	 36.8554
| 21> H 	 7.66193 	 25.6398 	 36.9221
| 22> H 	 7.56296 	 24.1824 	 35.7539
| 23> S 	 6.9106 	 19.2186 	 43.0965
| 24> C 	 7.23623 	 17.4813 	 42.7749
| 25> C 	 8.30542 	 17.303 	 41.9494
| 26> C 	 8.6997 	 18.5215 	 41.3732
| 27> C 	 8.09435 	 19.6476 	 41.8862
| 28> H 	 8.70171 	 16.3078 	 41.7609
| 29> C 	 9.81035 	 18.3923 	 40.3278
| 30> H 	 10.6708 	 17.9715 	 40.8332
| 31> H 	 10.2034 	 19.3918 	 40.2304
| 32> C 	 9.31636 	 17.6036 	 39.0393
| 33> H 	 8.62633 	 18.2058 	 38.3853
| 34> H 	 8.73137 	 16.7738 	 39.2295
| 35> C 	 10.5765 	 17.1754 	 38.2646
| 36> H 	 11.2336 	 16.5538 	 38.8038
| 37> H 	 11.0493 	 17.9827 	 37.6233
| 38> H 	 10.2711 	 16.4652 	 37.4688
| 39> H 	 9.81526 	 24.2404 	 41.3378
| 40> H 	 6.68262 	 16.6639 	 43.237
| 41> *
| 42>
| 43>                          ****END OF INPUT****

CARTESIAN COORDINATES (ANGSTROEM)
---------------------------------
  S      9.539910   21.954700   42.409700
  C      9.167890   23.348800   41.333600
  C      8.153360   23.113000   40.402700
  C      7.703410   21.796100   40.587100
  C      8.347100   21.035200   41.575200
  H      6.823040   21.357000   40.033400
  C      7.675090   24.016100   39.238800
  H      8.201090   24.916600   39.492900
  H      6.638380   24.279800   39.386100
  C      8.115810   23.664300   37.813900
  H      9.203270   23.891900   37.656300
  H      7.912260   22.590700   37.715000
  C      7.428670   24.540200   36.777000
  H      6.407160   24.320800   36.855400
  H      7.661930   25.639800   36.922100
  H      7.562960   24.182400   35.753900
  S      6.910600   19.218600   43.096500
  C      7.236230   17.481300   42.774900
  C      8.305420   17.303000   41.949400
  C      8.699700   18.521500   41.373200
  C      8.094350   19.647600   41.886200
  H      8.701710   16.307800   41.760900
  C      9.810350   18.392300   40.327800
  H     10.670800   17.971500   40.833200
  H     10.203400   19.391800   40.230400
  C      9.316360   17.603600   39.039300
  H      8.626330   18.205800   38.385300
  H      8.731370   16.773800   39.229500
  C     10.576500   17.175400   38.264600
  H     11.233600   16.553800   38.803800
  H     11.049300   17.982700   37.623300
  H     10.271100   16.465200   37.468800
  H      9.815260   24.240400   41.337800
  H      6.682620   16.663900   43.237000

 Total Charge           Charge          ....    0
 Multiplicity           Mult            ....    1
 Number of Electrons    NEL             ....  134
 Basis Dimension        Dim             ....  322

ORBITAL ENERGIES
----------------

  NO   OCC          E(Eh)            E(eV)
   0   2.0000     -88.969734     -2420.9895
   1   2.0000     -88.961571     -2420.7674
   2   2.0000     -10.323848      -280.9262
   3   2.0000     -10.320363      -280.8314
   4   2.0000     -10.318781      -280.7883
   5   2.0000     -10.316716      -280.7321
   6   2.0000     -10.303239      -280.3654
   7   2.0000     -10.294500      -280.1276
   8   2.0000     -10.293940      -280.1123
   9   2.0000     -10.293272      -280.0942
  10   2.0000     -10.292446      -280.0717
  11   2.0000     -10.291325      -280.0412
  12   2.0000     -10.287911      -279.9483
  13   2.0000     -10.286980      -279.9229
  14   2.0000     -10.279945      -279.7315
  15   2.0000     -10.278750      -279.6990
  16   2.0000      -8.083922      -219.9747
  17   2.0000      -8.075925      -219.7571
  18   2.0000      -6.042297      -164.4193
  19   2.0000      -6.038500      -164.3159
  20   2.0000      -6.034862      -164.2169
  21   2.0000      -6.034530      -164.2079
  22   2.0000      -6.030591      -164.1007
  23   2.0000      -6.026506      -163.9896
  24   2.0000      -1.003631       -27.3102
  25   2.0000      -0.980553       -26.6822
  26   2.0000      -0.913648       -24.8616
  27   2.0000      -0.899715       -24.4825
  28   2.0000      -0.870496       -23.6874
  29   2.0000      -0.849320       -23.1112
  30   2.0000      -0.844963       -22.9926
  31   2.0000      -0.808604       -22.0032
  32   2.0000      -0.785042       -21.3621
  33   2.0000      -0.764823       -20.8119
  34   2.0000      -0.710328       -19.3290
  35   2.0000      -0.702058       -19.1040
  36   2.0000      -0.693539       -18.8721
  37   2.0000      -0.659514       -17.9463
  38   2.0000      -0.636321       -17.3152
  39   2.0000      -0.616187       -16.7673
  40   2.0000      -0.591281       -16.0896
  41   2.0000      -0.570262       -15.5176
  42   2.0000      -0.563924       -15.3452
  43   2.0000      -0.552836       -15.0434
  44   2.0000      -0.527354       -14.3500
  45   2.0000      -0.525895       -14.3103
  46   2.0000      -0.519136       -14.1264
  47   2.0000      -0.509525       -13.8649
  48   2.0000      -0.506483       -13.7821
  49   2.0000      -0.495063       -13.4713
  50   2.0000      -0.485783       -13.2188
  51   2.0000      -0.473298       -12.8791
  52   2.0000      -0.466744       -12.7008
  53   2.0000      -0.458541       -12.4775
  54   2.0000      -0.454637       -12.3713
  55   2.0000      -0.449906       -12.2426
  56   2.0000      -0.446867       -12.1599
  57   2.0000      -0.435656       -11.8548
  58   2.0000      -0.431566       -11.7435
  59   2.0000      -0.425846       -11.5879
  60   2.0000      -0.418178       -11.3792
  61   2.0000      -0.416323       -11.3287
  62   2.0000      -0.407710       -11.0944
  63   2.0000      -0.339017        -9.2251
  64   2.0000      -0.331909        -9.0317
  65   2.0000      -0.311169        -8.4674
  66   2.0000      -0.309149        -8.4124
  67   0.0000       0.045468         1.2373
  68   0.0000       0.055088         1.4990
  69   0.0000       0.112207         3.0533
  70   0.0000       0.115613         3.1460
  71   0.0000       0.128117         3.4862

MULLIKEN ATOMIC CHARGES
-----------------------
   0 S :    0.127985
   1 C :   -0.150848
   2 C :   -0.079777
   3 C :    0.023113
   4 C :   -0.202613
   5 H :    0.029516
   6 C :    0.083279
   7 H :   -0.000319
   8 H :    0.036186
   9 C :   -0.078046
  10 H :    0.041802
  11 H :    0.034852
  12 C :   -0.035809
  13 H :    0.010669
  14 H :    0.052745
  15 H :    0.031102
  16 S :    0.102207
  17 C :   -0.102805
  18 C :   -0.020251
  19 C :   -0.045068
  20 C :   -0.175407
  21 H :    0.026309
  22 C :    0.104117
  23 H :    0.023288
  24 H :    0.011825
  25 C :   -0.043693
  26 H :    0.037890
  27 H :    0.015941
  28 C :   -0.058918
  29 H :    0.025991
  30 H :    0.050008
  31 H :    0.015219
  32 H :    0.053283
  33 H :    0.056226
Sum of atomic charges:   -0.0000000

LOEWDIN ATOMIC CHARGES
----------------------
   0 S :    0.408732
   1 C :   -0.185178
   2 C :   -0.064677
   3 C :   -0.064211
   4 C :   -0.214800
   5 H :    0.038404
   6 C :   -0.031065
   7 H :    0.027797
   8 H :    0.032227
   9 C :   -0.040283
  10 H :    0.032204
  11 H :    0.024440
  12 C :   -0.069469
  13 H :    0.016825
  14 H :    0.036482
  15 H :    0.030282
  16 S :    0.383523
  17 C :   -0.164331
  18 C :   -0.071672
  19 C :   -0.055481
  20 C :   -0.216725
  21 H :    0.035917
  22 C :   -0.029067
  23 H :    0.031970
  24 H :    0.027736
  25 C :   -0.027996
  26 H :    0.035132
  27 H :    0.012982
  28 C :   -0.073833
  29 H :    0.017236
  30 H :    0.036002
  31 H :    0.026215
  32 H :    0.026315
  33 H :    0.028369

  Mayer bond orders larger than 0.100000
B(  0-S ,  1-C ) :   1.1485 B(  0-S ,  4-C ) :   1.1586 B(  1-C ,  2-C ) :   1.6050
B(  1-C ,  4-C ) :   0.1070 B(  1-C , 32-H ) :   0.9591 B(  2-C ,  3-C ) :   1.2617
B(  2-C ,  6-C ) :   1.0126 B(  3-C ,  4-C ) :   1.5815 B(  3-C ,  5-H ) :   0.9818
B(  4-C , 20-C ) :   1.0204 B(  6-C ,  7-H ) :   0.9290 B(  6-C ,  8-H ) :   0.9420
B(  6-C ,  9-C ) :   1.0538 B(  9-C , 10-H ) :   0.9572 B(  9-C , 11-H ) :   0.9600
B(  9-C , 12-C ) :   1.0801 B( 12-C , 13-H ) :   0.9716 B( 12-C , 14-H ) :   0.9740
B( 12-C , 15-H ) :   0.9692 B( 16-S , 17-C ) :   1.1463 B( 16-S , 20-C ) :   1.1254
B( 17-C , 18-C ) :   1.6276 B( 17-C , 33-H ) :   0.9644 B( 18-C , 19-C ) :   1.2255
B( 18-C , 21-H ) :   0.9887 B( 19-C , 20-C ) :   1.6333 B( 19-C , 22-C ) :   1.0348
B( 22-C , 23-H ) :   0.9476 B( 22-C , 24-H ) :   0.9242 B( 22-C , 25-C ) :   1.0291
B( 25-C , 26-H ) :   0.9524 B( 25-C , 27-H ) :   0.9658 B( 25-C , 28-C ) :   1.0859
B( 28-C , 29-H ) :   0.9762 B( 28-C , 30-H ) :   0.9751 B( 28-C , 31-H ) :   0.9701

Dispersion correction           -0.013751169
FINAL SINGLE POINT ENERGY     -1339.854696746389

DIPOLE MOMENT
-------------
                                X             Y             Z
Electronic contribution:     -4.36777      -1.63574      29.07836
Nuclear contribution   :      4.45393       1.48753     -29.75865
                        -----------------------------------------
Total Dipole Moment    :      0.08615      -0.14822      -0.68029
                        -----------------------------------------
Magnitude (a.u.)       :      0.70156
Magnitude (Debye)      :      1.78323

Rotational constants in cm-1:     0.016543     0.008328     0.006622
Rotational constants in MHz :   495.957444   249.665504   198.536038

                             ****ORCA TERMINATED NORMALLY****
TOTAL RUN TIME: 0 days 0 hours 0 minutes 34 seconds 200 msec
