                         Program Version 4.2.1 -  RELEASE  -
|  1> ! wB97X-D3 SP def2-SVP
|  2> %pal
|  3> nprocs 16
|  4> end
|  5>
|  6> * xyz 0 1
|  7> S 	 50.128 	 24.6951 	 87.5941
|  8> C 	 49.6058 	 25.0994 	 89.2131
|  9> C 	 49.7645 	 23.9601 	 89.9771
| 10> C 	 50.3328 	 22.8406 	 89.303
| 11> C 	 50.6972 	 23.13 	 87.999
| 12> H 	 50.479 	 21.7781 	 89.7152
| 13> C 	 49.4563 	 23.852 	 91.4659
| 14> H 	 48.5505 	 23.2219 	 91.5563
| 15> H 	 49.044 	 24.8101 	 91.6898
| 16> C 	 50.4653 	 23.3551 	 92.477
| 17> H 	 49.8979 	 23.2259 	 93.4474
| 18> H 	 50.8102 	 22.4515 	 92.0749
| 19> C 	 51.747 	 24.2731 	 92.6795
| 20> H 	 52.2531 	 23.8086 	 93.5209
| 21> H 	 52.5057 	 24.3163 	 91.8345
| 22> H 	 51.3555 	 25.2346 	 93.0436
| 23> S 	 50.0314 	 21.9054 	 85.5694
| 24> C 	 51.0398 	 20.7268 	 84.852
| 25> C 	 52.2432 	 20.6156 	 85.5762
| 26> C 	 52.2448 	 21.3306 	 86.7703
| 27> C 	 51.1088 	 22.181 	 86.9118
| 28> H 	 52.9914 	 19.9685 	 85.235
| 29> C 	 53.3914 	 21.2061 	 87.7884
| 30> H 	 53.7542 	 20.1713 	 87.6852
| 31> H 	 53.0157 	 21.3332 	 88.8257
| 32> C 	 54.4902 	 22.282 	 87.7394
| 33> H 	 55.0983 	 22.2525 	 88.6275
| 34> H 	 54.1421 	 23.2796 	 87.7354
| 35> C 	 55.4112 	 22.0158 	 86.559
| 36> H 	 56.2168 	 22.6966 	 86.2638
| 37> H 	 54.7863 	 22.173 	 85.6741
| 38> H 	 55.6825 	 20.884 	 86.6237
| 39> H 	 49.1066 	 26.0408 	 89.5221
| 40> H 	 50.9678 	 20.2583 	 83.847
| 41> *
| 42>
| 43>                          ****END OF INPUT****

CARTESIAN COORDINATES (ANGSTROEM)
---------------------------------
  S     50.128000   24.695100   87.594100
  C     49.605800   25.099400   89.213100
  C     49.764500   23.960100   89.977100
  C     50.332800   22.840600   89.303000
  C     50.697200   23.130000   87.999000
  H     50.479000   21.778100   89.715200
  C     49.456300   23.852000   91.465900
  H     48.550500   23.221900   91.556300
  H     49.044000   24.810100   91.689800
  C     50.465300   23.355100   92.477000
  H     49.897900   23.225900   93.447400
  H     50.810200   22.451500   92.074900
  C     51.747000   24.273100   92.679500
  H     52.253100   23.808600   93.520900
  H     52.505700   24.316300   91.834500
  H     51.355500   25.234600   93.043600
  S     50.031400   21.905400   85.569400
  C     51.039800   20.726800   84.852000
  C     52.243200   20.615600   85.576200
  C     52.244800   21.330600   86.770300
  C     51.108800   22.181000   86.911800
  H     52.991400   19.968500   85.235000
  C     53.391400   21.206100   87.788400
  H     53.754200   20.171300   87.685200
  H     53.015700   21.333200   88.825700
  C     54.490200   22.282000   87.739400
  H     55.098300   22.252500   88.627500
  H     54.142100   23.279600   87.735400
  C     55.411200   22.015800   86.559000
  H     56.216800   22.696600   86.263800
  H     54.786300   22.173000   85.674100
  H     55.682500   20.884000   86.623700
  H     49.106600   26.040800   89.522100
  H     50.967800   20.258300   83.847000

 Total Charge           Charge          ....    0
 Multiplicity           Mult            ....    1
 Number of Electrons    NEL             ....  134
 Basis Dimension        Dim             ....  322

ORBITAL ENERGIES
----------------

  NO   OCC          E(Eh)            E(eV)
   0   2.0000     -88.971554     -2421.0391
   1   2.0000     -88.965365     -2420.8707
   2   2.0000     -10.333027      -281.1760
   3   2.0000     -10.332584      -281.1639
   4   2.0000     -10.319532      -280.8088
   5   2.0000     -10.318581      -280.7829
   6   2.0000     -10.305415      -280.4246
   7   2.0000     -10.302154      -280.3359
   8   2.0000     -10.299729      -280.2699
   9   2.0000     -10.296269      -280.1757
  10   2.0000     -10.291227      -280.0385
  11   2.0000     -10.288860      -279.9741
  12   2.0000     -10.285722      -279.8887
  13   2.0000     -10.284865      -279.8654
  14   2.0000     -10.279177      -279.7106
  15   2.0000     -10.278206      -279.6842
  16   2.0000      -8.086359      -220.0410
  17   2.0000      -8.080738      -219.8881
  18   2.0000      -6.044682      -164.4842
  19   2.0000      -6.040554      -164.3718
  20   2.0000      -6.039181      -164.3345
  21   2.0000      -6.037602      -164.2915
  22   2.0000      -6.034966      -164.2198
  23   2.0000      -6.031697      -164.1308
  24   2.0000      -1.010336       -27.4927
  25   2.0000      -0.990226       -26.9454
  26   2.0000      -0.910207       -24.7680
  27   2.0000      -0.908961       -24.7341
  28   2.0000      -0.865739       -23.5580
  29   2.0000      -0.850595       -23.1459
  30   2.0000      -0.841182       -22.8897
  31   2.0000      -0.813397       -22.1337
  32   2.0000      -0.781977       -21.2787
  33   2.0000      -0.770740       -20.9729
  34   2.0000      -0.709930       -19.3182
  35   2.0000      -0.697622       -18.9832
  36   2.0000      -0.686774       -18.6881
  37   2.0000      -0.659184       -17.9373
  38   2.0000      -0.637577       -17.3494
  39   2.0000      -0.621234       -16.9046
  40   2.0000      -0.592681       -16.1277
  41   2.0000      -0.572218       -15.5708
  42   2.0000      -0.554027       -15.0758
  43   2.0000      -0.542014       -14.7489
  44   2.0000      -0.541465       -14.7340
  45   2.0000      -0.539040       -14.6680
  46   2.0000      -0.518582       -14.1113
  47   2.0000      -0.515503       -14.0275
  48   2.0000      -0.506987       -13.7958
  49   2.0000      -0.492627       -13.4051
  50   2.0000      -0.486862       -13.2482
  51   2.0000      -0.476073       -12.9546
  52   2.0000      -0.468449       -12.7471
  53   2.0000      -0.466801       -12.7023
  54   2.0000      -0.462563       -12.5870
  55   2.0000      -0.445548       -12.1240
  56   2.0000      -0.437892       -11.9157
  57   2.0000      -0.435163       -11.8414
  58   2.0000      -0.434039       -11.8108
  59   2.0000      -0.421357       -11.4657
  60   2.0000      -0.416215       -11.3258
  61   2.0000      -0.411105       -11.1867
  62   2.0000      -0.408375       -11.1125
  63   2.0000      -0.343983        -9.3603
  64   2.0000      -0.334880        -9.1125
  65   2.0000      -0.327402        -8.9091
  66   2.0000      -0.297113        -8.0849
  67   0.0000       0.031238         0.8500
  68   0.0000       0.063875         1.7381
  69   0.0000       0.119240         3.2447
  70   0.0000       0.121230         3.2988
  71   0.0000       0.130399         3.5483

MULLIKEN ATOMIC CHARGES
-----------------------
   0 S :    0.099072
   1 C :   -0.130860
   2 C :   -0.111337
   3 C :    0.003867
   4 C :   -0.148971
   5 H :    0.054316
   6 C :    0.080689
   7 H :    0.033202
   8 H :   -0.014311
   9 C :   -0.056678
  10 H :    0.045445
  11 H :    0.013448
  12 C :   -0.070482
  13 H :    0.030759
  14 H :    0.062002
  15 H :    0.032619
  16 S :    0.138787
  17 C :   -0.109850
  18 C :   -0.040298
  19 C :   -0.023226
  20 C :   -0.171985
  21 H :    0.000139
  22 C :    0.044230
  23 H :    0.031275
  24 H :    0.025083
  25 C :   -0.015379
  26 H :    0.021440
  27 H :    0.023728
  28 C :   -0.085430
  29 H :    0.037520
  30 H :    0.023787
  31 H :    0.034973
  32 H :    0.068601
  33 H :    0.073822
Sum of atomic charges:   -0.0000000

LOEWDIN ATOMIC CHARGES
----------------------
   0 S :    0.423799
   1 C :   -0.208070
   2 C :   -0.067819
   3 C :   -0.077726
   4 C :   -0.207054
   5 H :    0.047068
   6 C :   -0.040866
   7 H :    0.037552
   8 H :    0.017649
   9 C :   -0.035638
  10 H :    0.037654
  11 H :    0.012788
  12 C :   -0.071033
  13 H :    0.024712
  14 H :    0.037454
  15 H :    0.024849
  16 S :    0.447525
  17 C :   -0.214208
  18 C :   -0.071934
  19 C :   -0.056332
  20 C :   -0.212513
  21 H :    0.022357
  22 C :   -0.028419
  23 H :    0.031827
  24 H :    0.034730
  25 C :   -0.035930
  26 H :    0.020525
  27 H :    0.022746
  28 C :   -0.082231
  29 H :    0.025862
  30 H :    0.024333
  31 H :    0.032560
  32 H :    0.041968
  33 H :    0.041816

  Mayer bond orders larger than 0.100000
B(  0-S ,  1-C ) :   1.1365 B(  0-S ,  4-C ) :   1.1799 B(  1-C ,  2-C ) :   1.5900
B(  1-C , 32-H ) :   0.9660 B(  2-C ,  3-C ) :   1.2566 B(  2-C ,  6-C ) :   1.0210
B(  3-C ,  4-C ) :   1.5559 B(  3-C ,  5-H ) :   0.9767 B(  4-C , 20-C ) :   1.0034
B(  6-C ,  7-H ) :   0.9297 B(  6-C ,  8-H ) :   0.9341 B(  6-C ,  9-C ) :   1.0744
B(  9-C , 10-H ) :   0.9522 B(  9-C , 11-H ) :   0.9519 B(  9-C , 12-C ) :   1.0697
B( 12-C , 13-H ) :   0.9757 B( 12-C , 14-H ) :   0.9746 B( 12-C , 15-H ) :   0.9774
B( 16-S , 17-C ) :   1.1930 B( 16-S , 20-C ) :   1.1810 B( 17-C , 18-C ) :   1.5430
B( 17-C , 20-C ) :   0.1160 B( 17-C , 33-H ) :   0.9598 B( 18-C , 19-C ) :   1.3149
B( 18-C , 21-H ) :   0.9960 B( 19-C , 20-C ) :   1.5282 B( 19-C , 22-C ) :   1.0340
B( 22-C , 23-H ) :   0.9425 B( 22-C , 24-H ) :   0.9320 B( 22-C , 25-C ) :   1.0689
B( 25-C , 26-H ) :   0.9563 B( 25-C , 27-H ) :   0.9533 B( 25-C , 28-C ) :   1.0677
B( 28-C , 29-H ) :   0.9724 B( 28-C , 30-H ) :   0.9739 B( 28-C , 31-H ) :   0.9733

Dispersion correction           -0.014419418
FINAL SINGLE POINT ENERGY     -1339.864781243970

DIPOLE MOMENT
-------------
                                X             Y             Z
Electronic contribution:    -17.15919       2.27159     -19.81136
Nuclear contribution   :     17.28476      -2.47431      20.24379
                        -----------------------------------------
Total Dipole Moment    :      0.12557      -0.20272       0.43243
                        -----------------------------------------
Magnitude (a.u.)       :      0.49382
Magnitude (Debye)      :      1.25519

Rotational constants in cm-1:     0.018956     0.008846     0.007016
Rotational constants in MHz :   568.300635   265.191731   210.342292

                             ****ORCA TERMINATED NORMALLY****
TOTAL RUN TIME: 0 days 0 hours 0 minutes 30 seconds 341 msec
