                         Program Version 4.2.1 -  RELEASE  -
|  1> ! wB97X-D3 SP def2-SVP
|  2> %pal
|  3> nprocs 16
|  4> end
|  5>
|  6> * xyz 0 1
|  7> S 	 -69.7573 	 35.7396 	 119.236
|  8> C 	 -68.4606 	 36.1005 	 120.345
|  9> C 	 -68.9991 	 36.3463 	 121.627
| 10> C 	 -70.4592 	 36.2622 	 121.667
| 11> C 	 -71.0614 	 35.879 	 120.456
| 12> H 	 -71.0596 	 36.5249 	 122.473
| 13> C 	 -68.2693 	 36.9063 	 122.82
| 14> H 	 -67.7633 	 35.9924 	 123.214
| 15> H 	 -68.9999 	 37.3042 	 123.498
| 16> C 	 -67.1198 	 37.8657 	 122.557
| 17> H 	 -66.353 	 37.96 	 123.281
| 18> H 	 -66.5648 	 37.652 	 121.662
| 19> C 	 -67.6777 	 39.3599 	 122.345
| 20> H 	 -68.3065 	 39.421 	 121.458
| 21> H 	 -68.3215 	 39.7678 	 123.176
| 22> H 	 -66.9088 	 40.13 	 122.047
| 23> S 	 -73.6029 	 36.7591 	 120.538
| 24> C 	 -74.9758 	 35.6644 	 120.213
| 25> C 	 -74.4611 	 34.482 	 119.669
| 26> C 	 -73.0154 	 34.4687 	 119.622
| 27> C 	 -72.4433 	 35.5496 	 120.219
| 28> H 	 -74.9852 	 33.6348 	 119.364
| 29> C 	 -72.2099 	 33.3049 	 119.015
| 30> H 	 -71.5288 	 33.0369 	 119.77
| 31> H 	 -71.5639 	 33.7912 	 118.286
| 32> C 	 -72.8438 	 32.1144 	 118.303
| 33> H 	 -73.3917 	 32.5034 	 117.406
| 34> H 	 -73.4888 	 31.5726 	 119.021
| 35> C 	 -71.8001 	 31.1309 	 117.879
| 36> H 	 -71.1524 	 31.3879 	 117.058
| 37> H 	 -72.3103 	 30.3238 	 117.338
| 38> H 	 -71.2536 	 30.7678 	 118.734
| 39> H 	 -67.5067 	 36.5716 	 119.922
| 40> H 	 -76.0134 	 35.9064 	 120.304
| 41> *
| 42>
| 43>                          ****END OF INPUT****

CARTESIAN COORDINATES (ANGSTROEM)
---------------------------------
  S    -69.757300   35.739600  119.236000
  C    -68.460600   36.100500  120.345000
  C    -68.999100   36.346300  121.627000
  C    -70.459200   36.262200  121.667000
  C    -71.061400   35.879000  120.456000
  H    -71.059600   36.524900  122.473000
  C    -68.269300   36.906300  122.820000
  H    -67.763300   35.992400  123.214000
  H    -68.999900   37.304200  123.498000
  C    -67.119800   37.865700  122.557000
  H    -66.353000   37.960000  123.281000
  H    -66.564800   37.652000  121.662000
  C    -67.677700   39.359900  122.345000
  H    -68.306500   39.421000  121.458000
  H    -68.321500   39.767800  123.176000
  H    -66.908800   40.130000  122.047000
  S    -73.602900   36.759100  120.538000
  C    -74.975800   35.664400  120.213000
  C    -74.461100   34.482000  119.669000
  C    -73.015400   34.468700  119.622000
  C    -72.443300   35.549600  120.219000
  H    -74.985200   33.634800  119.364000
  C    -72.209900   33.304900  119.015000
  H    -71.528800   33.036900  119.770000
  H    -71.563900   33.791200  118.286000
  C    -72.843800   32.114400  118.303000
  H    -73.391700   32.503400  117.406000
  H    -73.488800   31.572600  119.021000
  C    -71.800100   31.130900  117.879000
  H    -71.152400   31.387900  117.058000
  H    -72.310300   30.323800  117.338000
  H    -71.253600   30.767800  118.734000
  H    -67.506700   36.571600  119.922000
  H    -76.013400   35.906400  120.304000

 Total Charge           Charge          ....    0
 Multiplicity           Mult            ....    1
 Number of Electrons    NEL             ....  134
 Basis Dimension        Dim             ....  322

ORBITAL ENERGIES
----------------

  NO   OCC          E(Eh)            E(eV)
   0   2.0000     -88.965099     -2420.8634
   1   2.0000     -88.964282     -2420.8412
   2   2.0000     -10.336417      -281.2682
   3   2.0000     -10.322996      -280.9030
   4   2.0000     -10.321146      -280.8527
   5   2.0000     -10.319231      -280.8006
   6   2.0000     -10.311952      -280.6025
   7   2.0000     -10.299606      -280.2665
   8   2.0000     -10.298182      -280.2278
   9   2.0000     -10.296057      -280.1699
  10   2.0000     -10.293591      -280.1028
  11   2.0000     -10.291385      -280.0428
  12   2.0000     -10.291157      -280.0366
  13   2.0000     -10.284673      -279.8602
  14   2.0000     -10.281970      -279.7866
  15   2.0000     -10.273419      -279.5540
  16   2.0000      -8.079196      -219.8461
  17   2.0000      -8.078881      -219.8375
  18   2.0000      -6.037891      -164.2994
  19   2.0000      -6.037599      -164.2914
  20   2.0000      -6.033633      -164.1835
  21   2.0000      -6.033245      -164.1729
  22   2.0000      -6.029781      -164.0787
  23   2.0000      -6.029747      -164.0778
  24   2.0000      -1.006441       -27.3867
  25   2.0000      -0.979100       -26.6427
  26   2.0000      -0.911980       -24.8162
  27   2.0000      -0.910514       -24.7764
  28   2.0000      -0.869674       -23.6650
  29   2.0000      -0.853107       -23.2142
  30   2.0000      -0.841702       -22.9039
  31   2.0000      -0.812704       -22.1148
  32   2.0000      -0.779484       -21.2109
  33   2.0000      -0.769010       -20.9258
  34   2.0000      -0.713888       -19.4259
  35   2.0000      -0.703180       -19.1345
  36   2.0000      -0.699104       -19.0236
  37   2.0000      -0.661584       -18.0026
  38   2.0000      -0.642491       -17.4831
  39   2.0000      -0.606557       -16.5052
  40   2.0000      -0.595924       -16.2159
  41   2.0000      -0.579804       -15.7773
  42   2.0000      -0.574289       -15.6272
  43   2.0000      -0.553668       -15.0661
  44   2.0000      -0.536040       -14.5864
  45   2.0000      -0.528032       -14.3685
  46   2.0000      -0.518806       -14.1174
  47   2.0000      -0.515704       -14.0330
  48   2.0000      -0.510428       -13.8894
  49   2.0000      -0.497066       -13.5259
  50   2.0000      -0.482527       -13.1302
  51   2.0000      -0.480033       -13.0624
  52   2.0000      -0.473621       -12.8879
  53   2.0000      -0.461819       -12.5667
  54   2.0000      -0.456699       -12.4274
  55   2.0000      -0.448833       -12.2134
  56   2.0000      -0.441495       -12.0137
  57   2.0000      -0.433168       -11.7871
  58   2.0000      -0.432699       -11.7744
  59   2.0000      -0.427342       -11.6286
  60   2.0000      -0.417826       -11.3696
  61   2.0000      -0.413255       -11.2452
  62   2.0000      -0.410046       -11.1579
  63   2.0000      -0.348770        -9.4905
  64   2.0000      -0.328413        -8.9366
  65   2.0000      -0.321705        -8.7541
  66   2.0000      -0.291525        -7.9328
  67   0.0000       0.024513         0.6670
  68   0.0000       0.064882         1.7655
  69   0.0000       0.110446         3.0054
  70   0.0000       0.120406         3.2764
  71   0.0000       0.125576         3.4171

MULLIKEN ATOMIC CHARGES
-----------------------
   0 S :    0.094012
   1 C :   -0.148674
   2 C :   -0.115101
   3 C :    0.048182
   4 C :   -0.163641
   5 H :   -0.006842
   6 C :    0.086467
   7 H :    0.054085
   8 H :    0.027548
   9 C :   -0.034418
  10 H :    0.025721
  11 H :    0.015847
  12 C :   -0.122526
  13 H :    0.029591
  14 H :    0.043395
  15 H :    0.038428
  16 S :    0.103611
  17 C :   -0.079212
  18 C :   -0.011325
  19 C :   -0.053872
  20 C :   -0.143216
  21 H :   -0.002023
  22 C :    0.056430
  23 H :    0.020894
  24 H :    0.024644
  25 C :   -0.073873
  26 H :    0.041495
  27 H :    0.037332
  28 C :   -0.029642
  29 H :    0.025358
  30 H :    0.021798
  31 H :    0.037226
  32 H :    0.097758
  33 H :    0.054544
Sum of atomic charges:   -0.0000000

LOEWDIN ATOMIC CHARGES
----------------------
   0 S :    0.400581
   1 C :   -0.228554
   2 C :   -0.055468
   3 C :   -0.052778
   4 C :   -0.179544
   5 H :    0.019087
   6 C :   -0.031800
   7 H :    0.048759
   8 H :    0.029664
   9 C :   -0.033066
  10 H :    0.020737
  11 H :    0.021978
  12 C :   -0.083961
  13 H :    0.021891
  14 H :    0.027814
  15 H :    0.029355
  16 S :    0.414751
  17 C :   -0.174771
  18 C :   -0.059673
  19 C :   -0.053856
  20 C :   -0.219893
  21 H :    0.020227
  22 C :   -0.041630
  23 H :    0.025622
  24 H :    0.026709
  25 C :   -0.043934
  26 H :    0.032402
  27 H :    0.026928
  28 C :   -0.064849
  29 H :    0.024645
  30 H :    0.030564
  31 H :    0.026473
  32 H :    0.048394
  33 H :    0.027197

  Mayer bond orders larger than 0.100000
B(  0-S ,  1-C ) :   1.1449 B(  0-S ,  4-C ) :   1.1496 B(  1-C ,  2-C ) :   1.5816
B(  1-C ,  4-C ) :   0.1016 B(  1-C , 32-H ) :   0.9483 B(  2-C ,  3-C ) :   1.2531
B(  2-C ,  6-C ) :   1.0196 B(  3-C ,  4-C ) :   1.5543 B(  3-C ,  5-H ) :   1.0005
B(  4-C , 20-C ) :   1.0321 B(  6-C ,  7-H ) :   0.9216 B(  6-C ,  8-H ) :   0.9541
B(  6-C ,  9-C ) :   1.0708 B(  9-C , 10-H ) :   0.9587 B(  9-C , 11-H ) :   0.9538
B(  9-C , 12-C ) :   1.0559 B( 12-C , 13-H ) :   0.9797 B( 12-C , 14-H ) :   0.9786
B( 12-C , 15-H ) :   0.9769 B( 16-S , 17-C ) :   1.1475 B( 16-S , 20-C ) :   1.1448
B( 17-C , 18-C ) :   1.5692 B( 17-C , 33-H ) :   0.9751 B( 18-C , 19-C ) :   1.2665
B( 18-C , 21-H ) :   0.9939 B( 19-C , 20-C ) :   1.5980 B( 19-C , 22-C ) :   1.0140
B( 22-C , 23-H ) :   0.9282 B( 22-C , 24-H ) :   0.9276 B( 22-C , 25-C ) :   1.0831
B( 25-C , 26-H ) :   0.9472 B( 25-C , 27-H ) :   0.9476 B( 25-C , 28-C ) :   1.1012
B( 28-C , 29-H ) :   0.9699 B( 28-C , 30-H ) :   0.9665 B( 28-C , 31-H ) :   0.9732

Dispersion correction           -0.013868620
FINAL SINGLE POINT ENERGY     -1339.855089972288

DIPOLE MOMENT
-------------
                                X             Y             Z
Electronic contribution:    -11.81913       5.97623      -1.94871
Nuclear contribution   :     11.96953      -6.14473       2.02932
                        -----------------------------------------
Total Dipole Moment    :      0.15041      -0.16850       0.08061
                        -----------------------------------------
Magnitude (a.u.)       :      0.23982
Magnitude (Debye)      :      0.60957

Rotational constants in cm-1:     0.021999     0.007566     0.006029
Rotational constants in MHz :   659.517835   226.816266   180.735313

                             ****ORCA TERMINATED NORMALLY****
TOTAL RUN TIME: 0 days 0 hours 0 minutes 30 seconds 782 msec
