                         Program Version 4.2.1 -  RELEASE  -
|  1> ! wB97X-D3 SP def2-SVP
|  2> %pal
|  3> nprocs 16
|  4> end
|  5>
|  6> * xyz 0 1
|  7> S 	 16.707 	 5.78018 	 85.9005
|  8> C 	 17.3096 	 7.42355 	 85.6455
|  9> C 	 16.3775 	 8.4106 	 85.9818
| 10> C 	 15.1965 	 7.82857 	 86.5399
| 11> C 	 15.2484 	 6.44652 	 86.5987
| 12> H 	 14.3675 	 8.35365 	 86.8763
| 13> C 	 16.6052 	 9.90254 	 85.8829
| 14> H 	 17.2601 	 10.032 	 85.0488
| 15> H 	 17.1517 	 10.2677 	 86.7654
| 16> C 	 15.3693 	 10.797 	 85.6912
| 17> H 	 14.7786 	 10.6428 	 86.5972
| 18> H 	 15.6808 	 11.7915 	 85.7264
| 19> C 	 14.5746 	 10.3147 	 84.4444
| 20> H 	 15.0139 	 10.5625 	 83.5602
| 21> H 	 14.3994 	 9.23888 	 84.517
| 22> H 	 13.5996 	 10.7907 	 84.3774
| 23> S 	 14.6004 	 4.46261 	 88.4118
| 24> C 	 12.9342 	 3.81903 	 88.4824
| 25> C 	 12.1855 	 4.35467 	 87.461
| 26> C 	 12.9339 	 5.3394 	 86.6892
| 27> C 	 14.2231 	 5.57114 	 87.1079
| 28> H 	 11.2089 	 3.89997 	 87.3167
| 29> C 	 12.3194 	 5.77093 	 85.3575
| 30> H 	 12.2034 	 4.88178 	 84.8469
| 31> H 	 13.0557 	 6.3087 	 84.8265
| 32> C 	 10.9772 	 6.60909 	 85.4535
| 33> H 	 10.2537 	 5.92359 	 85.8512
| 34> H 	 10.6243 	 6.84916 	 84.4604
| 35> C 	 11.0093 	 7.79602 	 86.4875
| 36> H 	 11.8379 	 8.49769 	 86.3667
| 37> H 	 11.2713 	 7.4486 	 87.5497
| 38> H 	 10.1076 	 8.39987 	 86.4691
| 39> H 	 18.3213 	 7.70932 	 85.2316
| 40> H 	 12.6785 	 2.94399 	 89.0378
| 41> *
| 42>
| 43>                          ****END OF INPUT****

CARTESIAN COORDINATES (ANGSTROEM)
---------------------------------
  S     16.707000    5.780180   85.900500
  C     17.309600    7.423550   85.645500
  C     16.377500    8.410600   85.981800
  C     15.196500    7.828570   86.539900
  C     15.248400    6.446520   86.598700
  H     14.367500    8.353650   86.876300
  C     16.605200    9.902540   85.882900
  H     17.260100   10.032000   85.048800
  H     17.151700   10.267700   86.765400
  C     15.369300   10.797000   85.691200
  H     14.778600   10.642800   86.597200
  H     15.680800   11.791500   85.726400
  C     14.574600   10.314700   84.444400
  H     15.013900   10.562500   83.560200
  H     14.399400    9.238880   84.517000
  H     13.599600   10.790700   84.377400
  S     14.600400    4.462610   88.411800
  C     12.934200    3.819030   88.482400
  C     12.185500    4.354670   87.461000
  C     12.933900    5.339400   86.689200
  C     14.223100    5.571140   87.107900
  H     11.208900    3.899970   87.316700
  C     12.319400    5.770930   85.357500
  H     12.203400    4.881780   84.846900
  H     13.055700    6.308700   84.826500
  C     10.977200    6.609090   85.453500
  H     10.253700    5.923590   85.851200
  H     10.624300    6.849160   84.460400
  C     11.009300    7.796020   86.487500
  H     11.837900    8.497690   86.366700
  H     11.271300    7.448600   87.549700
  H     10.107600    8.399870   86.469100
  H     18.321300    7.709320   85.231600
  H     12.678500    2.943990   89.037800

 Total Charge           Charge          ....    0
 Multiplicity           Mult            ....    1
 Number of Electrons    NEL             ....  134
 Basis Dimension        Dim             ....  322

ORBITAL ENERGIES
----------------

  NO   OCC          E(Eh)            E(eV)
   0   2.0000     -88.970835     -2421.0195
   1   2.0000     -88.959588     -2420.7135
   2   2.0000     -10.328894      -281.0635
   3   2.0000     -10.324461      -280.9429
   4   2.0000     -10.320063      -280.8232
   5   2.0000     -10.318734      -280.7870
   6   2.0000     -10.305021      -280.4139
   7   2.0000     -10.302736      -280.3517
   8   2.0000     -10.297007      -280.1958
   9   2.0000     -10.291565      -280.0477
  10   2.0000     -10.290772      -280.0262
  11   2.0000     -10.289411      -279.9891
  12   2.0000     -10.285984      -279.8958
  13   2.0000     -10.284346      -279.8513
  14   2.0000     -10.282371      -279.7975
  15   2.0000     -10.270494      -279.4744
  16   2.0000      -8.085022      -220.0046
  17   2.0000      -8.074167      -219.7092
  18   2.0000      -6.043510      -164.4523
  19   2.0000      -6.039685      -164.3482
  20   2.0000      -6.035753      -164.2412
  21   2.0000      -6.032758      -164.1597
  22   2.0000      -6.028744      -164.0505
  23   2.0000      -6.024776      -163.9425
  24   2.0000      -1.004766       -27.3411
  25   2.0000      -0.979901       -26.6645
  26   2.0000      -0.915021       -24.8990
  27   2.0000      -0.898448       -24.4480
  28   2.0000      -0.870385       -23.6844
  29   2.0000      -0.846424       -23.0324
  30   2.0000      -0.837005       -22.7761
  31   2.0000      -0.818182       -22.2639
  32   2.0000      -0.785492       -21.3743
  33   2.0000      -0.773328       -21.0433
  34   2.0000      -0.717431       -19.5223
  35   2.0000      -0.703559       -19.1448
  36   2.0000      -0.693965       -18.8837
  37   2.0000      -0.658737       -17.9252
  38   2.0000      -0.639036       -17.3890
  39   2.0000      -0.628054       -17.0902
  40   2.0000      -0.591567       -16.0974
  41   2.0000      -0.566717       -15.4212
  42   2.0000      -0.555034       -15.1032
  43   2.0000      -0.550080       -14.9684
  44   2.0000      -0.543908       -14.8005
  45   2.0000      -0.535058       -14.5597
  46   2.0000      -0.514933       -14.0120
  47   2.0000      -0.511737       -13.9251
  48   2.0000      -0.501322       -13.6417
  49   2.0000      -0.496628       -13.5139
  50   2.0000      -0.492146       -13.3920
  51   2.0000      -0.477204       -12.9854
  52   2.0000      -0.471096       -12.8192
  53   2.0000      -0.462293       -12.5796
  54   2.0000      -0.455562       -12.3965
  55   2.0000      -0.451032       -12.2732
  56   2.0000      -0.444520       -12.0960
  57   2.0000      -0.439895       -11.9701
  58   2.0000      -0.436734       -11.8841
  59   2.0000      -0.429850       -11.6968
  60   2.0000      -0.420042       -11.4299
  61   2.0000      -0.415952       -11.3186
  62   2.0000      -0.411494       -11.1973
  63   2.0000      -0.342099        -9.3090
  64   2.0000      -0.332751        -9.0546
  65   2.0000      -0.324242        -8.8231
  66   2.0000      -0.298635        -8.1263
  67   0.0000       0.032750         0.8912
  68   0.0000       0.065485         1.7819
  69   0.0000       0.110496         3.0067
  70   0.0000       0.115139         3.1331
  71   0.0000       0.129158         3.5146

MULLIKEN ATOMIC CHARGES
-----------------------
   0 S :    0.127692
   1 C :   -0.141900
   2 C :   -0.108024
   3 C :    0.066383
   4 C :   -0.161303
   5 H :   -0.024403
   6 C :    0.070226
   7 H :    0.010367
   8 H :    0.047656
   9 C :   -0.052423
  10 H :    0.025925
  11 H :    0.019061
  12 C :   -0.025640
  13 H :    0.012050
  14 H :    0.045325
  15 H :    0.026381
  16 S :    0.082655
  17 C :   -0.091655
  18 C :   -0.036942
  19 C :   -0.054744
  20 C :   -0.159273
  21 H :    0.031698
  22 C :    0.107205
  23 H :    0.019892
  24 H :    0.011555
  25 C :   -0.050968
  26 H :    0.021616
  27 H :    0.031549
  28 C :   -0.081690
  29 H :    0.020491
  30 H :    0.050806
  31 H :    0.041303
  32 H :    0.061505
  33 H :    0.057628
Sum of atomic charges:   -0.0000000

LOEWDIN ATOMIC CHARGES
----------------------
   0 S :    0.406408
   1 C :   -0.203666
   2 C :   -0.061292
   3 C :   -0.049024
   4 C :   -0.191607
   5 H :    0.018767
   6 C :   -0.032167
   7 H :    0.024055
   8 H :    0.037411
   9 C :   -0.030956
  10 H :    0.022831
  11 H :    0.018766
  12 C :   -0.056525
  13 H :    0.012218
  14 H :    0.031033
  15 H :    0.027019
  16 S :    0.379060
  17 C :   -0.165744
  18 C :   -0.072141
  19 C :   -0.052977
  20 C :   -0.206593
  21 H :    0.036019
  22 C :   -0.018270
  23 H :    0.025054
  24 H :    0.020718
  25 C :   -0.032827
  26 H :    0.019428
  27 H :    0.023200
  28 C :   -0.076522
  29 H :    0.018584
  30 H :    0.038440
  31 H :    0.026488
  32 H :    0.038572
  33 H :    0.026240

  Mayer bond orders larger than 0.100000
B(  0-S ,  1-C ) :   1.1325 B(  0-S ,  4-C ) :   1.1545 B(  1-C ,  2-C ) :   1.6278
B(  1-C , 32-H ) :   0.9584 B(  2-C ,  3-C ) :   1.2247 B(  2-C ,  6-C ) :   1.0094
B(  3-C ,  4-C ) :   1.5801 B(  3-C ,  5-H ) :   1.0069 B(  4-C , 20-C ) :   1.0298
B(  6-C ,  7-H ) :   0.9358 B(  6-C ,  8-H ) :   0.9358 B(  6-C ,  9-C ) :   1.0843
B(  9-C , 10-H ) :   0.9501 B(  9-C , 11-H ) :   0.9546 B(  9-C , 12-C ) :   1.0720
B( 12-C , 13-H ) :   0.9754 B( 12-C , 14-H ) :   0.9717 B( 12-C , 15-H ) :   0.9719
B( 16-S , 17-C ) :   1.1433 B( 16-S , 20-C ) :   1.1208 B( 17-C , 18-C ) :   1.6429
B( 17-C , 33-H ) :   0.9677 B( 18-C , 19-C ) :   1.1939 B( 18-C , 21-H ) :   0.9900
B( 19-C , 20-C ) :   1.6240 B( 19-C , 22-C ) :   1.0356 B( 22-C , 23-H ) :   0.9415
B( 22-C , 24-H ) :   0.9338 B( 22-C , 25-C ) :   1.0584 B( 25-C , 26-H ) :   0.9575
B( 25-C , 27-H ) :   0.9617 B( 25-C , 28-C ) :   1.0645 B( 28-C , 29-H ) :   0.9773
B( 28-C , 30-H ) :   0.9685 B( 28-C , 31-H ) :   0.9746

Dispersion correction           -0.015918394
FINAL SINGLE POINT ENERGY     -1339.872685793518

DIPOLE MOMENT
-------------
                                X             Y             Z
Electronic contribution:     15.00849     -22.06035      10.02280
Nuclear contribution   :    -15.36707      22.41977     -10.37632
                        -----------------------------------------
Total Dipole Moment    :     -0.35858       0.35941      -0.35352
                        -----------------------------------------
Magnitude (a.u.)       :      0.61865
Magnitude (Debye)      :      1.57249

Rotational constants in cm-1:     0.018168     0.010416     0.007474
Rotational constants in MHz :   544.674869   312.276095   224.058073

                             ****ORCA TERMINATED NORMALLY****
TOTAL RUN TIME: 0 days 0 hours 0 minutes 37 seconds 688 msec
