                         Program Version 4.2.1 -  RELEASE  -
|  1> ! wB97X-D3 SP def2-SVP
|  2> %pal
|  3> nprocs 16
|  4> end
|  5>
|  6> * xyz 0 1
|  7> S 	 6.73664 	 76.5975 	 42.6205
|  8> C 	 5.16258 	 75.8732 	 42.7493
|  9> C 	 4.94715 	 75.3347 	 44.0119
| 10> C 	 6.10283 	 75.5689 	 44.8455
| 11> C 	 7.04524 	 76.4414 	 44.3214
| 12> H 	 6.29687 	 75.1042 	 45.8543
| 13> C 	 3.6439 	 74.7649 	 44.6227
| 14> H 	 2.92038 	 74.5254 	 43.7945
| 15> H 	 3.20291 	 75.5629 	 45.1743
| 16> C 	 3.85461 	 73.5508 	 45.5282
| 17> H 	 4.21709 	 72.7627 	 44.8693
| 18> H 	 4.63614 	 73.7496 	 46.2875
| 19> C 	 2.55528 	 73.156 	 46.2953
| 20> H 	 2.71294 	 72.491 	 47.192
| 21> H 	 2.04515 	 74.0438 	 46.5813
| 22> H 	 1.85669 	 72.6137 	 45.6631
| 23> S 	 9.71499 	 77.1066 	 44.0042
| 24> C 	 10.6458 	 77.6387 	 45.2489
| 25> C 	 9.84059 	 77.7896 	 46.3891
| 26> C 	 8.51027 	 77.4167 	 46.2783
| 27> C 	 8.24874 	 76.9425 	 44.9796
| 28> H 	 10.3616 	 78.0145 	 47.2824
| 29> C 	 7.59686 	 77.555 	 47.5582
| 30> H 	 8.163 	 78.0396 	 48.3583
| 31> H 	 7.31005 	 76.5478 	 47.8908
| 32> C 	 6.25914 	 78.2909 	 47.3539
| 33> H 	 5.73585 	 78.3105 	 48.3613
| 34> H 	 5.58578 	 77.7699 	 46.5761
| 35> C 	 6.51337 	 79.7865 	 46.9434
| 36> H 	 5.67808 	 80.4772 	 47.1912
| 37> H 	 6.74614 	 79.8482 	 45.902
| 38> H 	 7.48631 	 80.1655 	 47.2887
| 39> H 	 4.35305 	 76.0516 	 42.082
| 40> H 	 11.6739 	 77.8306 	 45.2833
| 41> *
| 42>
| 43>                          ****END OF INPUT****

CARTESIAN COORDINATES (ANGSTROEM)
---------------------------------
  S      6.736640   76.597500   42.620500
  C      5.162580   75.873200   42.749300
  C      4.947150   75.334700   44.011900
  C      6.102830   75.568900   44.845500
  C      7.045240   76.441400   44.321400
  H      6.296870   75.104200   45.854300
  C      3.643900   74.764900   44.622700
  H      2.920380   74.525400   43.794500
  H      3.202910   75.562900   45.174300
  C      3.854610   73.550800   45.528200
  H      4.217090   72.762700   44.869300
  H      4.636140   73.749600   46.287500
  C      2.555280   73.156000   46.295300
  H      2.712940   72.491000   47.192000
  H      2.045150   74.043800   46.581300
  H      1.856690   72.613700   45.663100
  S      9.714990   77.106600   44.004200
  C     10.645800   77.638700   45.248900
  C      9.840590   77.789600   46.389100
  C      8.510270   77.416700   46.278300
  C      8.248740   76.942500   44.979600
  H     10.361600   78.014500   47.282400
  C      7.596860   77.555000   47.558200
  H      8.163000   78.039600   48.358300
  H      7.310050   76.547800   47.890800
  C      6.259140   78.290900   47.353900
  H      5.735850   78.310500   48.361300
  H      5.585780   77.769900   46.576100
  C      6.513370   79.786500   46.943400
  H      5.678080   80.477200   47.191200
  H      6.746140   79.848200   45.902000
  H      7.486310   80.165500   47.288700
  H      4.353050   76.051600   42.082000
  H     11.673900   77.830600   45.283300

 Total Charge           Charge          ....    0
 Multiplicity           Mult            ....    1
 Number of Electrons    NEL             ....  134
 Basis Dimension        Dim             ....  322

ORBITAL ENERGIES
----------------

  NO   OCC          E(Eh)            E(eV)
   0   2.0000     -88.970145     -2421.0007
   1   2.0000     -88.965611     -2420.8774
   2   2.0000     -10.332894      -281.1723
   3   2.0000     -10.332071      -281.1499
   4   2.0000     -10.311016      -280.5770
   5   2.0000     -10.309054      -280.5236
   6   2.0000     -10.309000      -280.5221
   7   2.0000     -10.306102      -280.4433
   8   2.0000     -10.301609      -280.3210
   9   2.0000     -10.298165      -280.2273
  10   2.0000     -10.297144      -280.1995
  11   2.0000     -10.296833      -280.1911
  12   2.0000     -10.291837      -280.0551
  13   2.0000     -10.285251      -279.8759
  14   2.0000     -10.282342      -279.7968
  15   2.0000     -10.272663      -279.5334
  16   2.0000      -8.086345      -220.0406
  17   2.0000      -8.080818      -219.8902
  18   2.0000      -6.044578      -164.4813
  19   2.0000      -6.040401      -164.3677
  20   2.0000      -6.039454      -164.3419
  21   2.0000      -6.037544      -164.2899
  22   2.0000      -6.035324      -164.2295
  23   2.0000      -6.031347      -164.1213
  24   2.0000      -1.014574       -27.6080
  25   2.0000      -0.991577       -26.9822
  26   2.0000      -0.910746       -24.7826
  27   2.0000      -0.904178       -24.6039
  28   2.0000      -0.870144       -23.6778
  29   2.0000      -0.850728       -23.1495
  30   2.0000      -0.841904       -22.9094
  31   2.0000      -0.809840       -22.0369
  32   2.0000      -0.782810       -21.3013
  33   2.0000      -0.776088       -21.1184
  34   2.0000      -0.712207       -19.3801
  35   2.0000      -0.699097       -19.0234
  36   2.0000      -0.685004       -18.6399
  37   2.0000      -0.663907       -18.0658
  38   2.0000      -0.638608       -17.3774
  39   2.0000      -0.618387       -16.8272
  40   2.0000      -0.592276       -16.1167
  41   2.0000      -0.570308       -15.5189
  42   2.0000      -0.565575       -15.3901
  43   2.0000      -0.550829       -14.9888
  44   2.0000      -0.543812       -14.7979
  45   2.0000      -0.521725       -14.1969
  46   2.0000      -0.516283       -14.0488
  47   2.0000      -0.514891       -14.0109
  48   2.0000      -0.500934       -13.6311
  49   2.0000      -0.497772       -13.5451
  50   2.0000      -0.488333       -13.2882
  51   2.0000      -0.482412       -13.1271
  52   2.0000      -0.474853       -12.9214
  53   2.0000      -0.466030       -12.6813
  54   2.0000      -0.458455       -12.4752
  55   2.0000      -0.453511       -12.3406
  56   2.0000      -0.436655       -11.8820
  57   2.0000      -0.433816       -11.8047
  58   2.0000      -0.429924       -11.6988
  59   2.0000      -0.426605       -11.6085
  60   2.0000      -0.423663       -11.5284
  61   2.0000      -0.416090       -11.3224
  62   2.0000      -0.409571       -11.1450
  63   2.0000      -0.357529        -9.7289
  64   2.0000      -0.337444        -9.1823
  65   2.0000      -0.326706        -8.8901
  66   2.0000      -0.283050        -7.7022
  67   0.0000       0.021315         0.5800
  68   0.0000       0.072672         1.9775
  69   0.0000       0.108326         2.9477
  70   0.0000       0.117339         3.1930
  71   0.0000       0.134258         3.6533

MULLIKEN ATOMIC CHARGES
-----------------------
   0 S :    0.103327
   1 C :   -0.105000
   2 C :   -0.084582
   3 C :   -0.036914
   4 C :   -0.125320
   5 H :    0.038432
   6 C :    0.060027
   7 H :    0.030100
   8 H :    0.034046
   9 C :   -0.102150
  10 H :    0.040204
  11 H :    0.039766
  12 C :   -0.044199
  13 H :    0.046250
  14 H :    0.021313
  15 H :    0.028366
  16 S :    0.131688
  17 C :   -0.063009
  18 C :   -0.073176
  19 C :   -0.000991
  20 C :   -0.178963
  21 H :    0.001213
  22 C :    0.071828
  23 H :    0.028409
  24 H :    0.037104
  25 C :   -0.125024
  26 H :    0.041421
  27 H :    0.064362
  28 C :   -0.054605
  29 H :    0.048491
  30 H :    0.029773
  31 H :    0.016850
  32 H :    0.041812
  33 H :    0.039152
Sum of atomic charges:    0.0000000

LOEWDIN ATOMIC CHARGES
----------------------
   0 S :    0.408871
   1 C :   -0.204085
   2 C :   -0.059003
   3 C :   -0.078804
   4 C :   -0.194132
   5 H :    0.036384
   6 C :   -0.029347
   7 H :    0.034196
   8 H :    0.026750
   9 C :   -0.041296
  10 H :    0.027726
  11 H :    0.025152
  12 C :   -0.067078
  13 H :    0.034209
  14 H :    0.019365
  15 H :    0.024135
  16 S :    0.459444
  17 C :   -0.214775
  18 C :   -0.079553
  19 C :   -0.054033
  20 C :   -0.199032
  21 H :    0.021944
  22 C :   -0.023924
  23 H :    0.031388
  24 H :    0.031377
  25 C :   -0.051097
  26 H :    0.029472
  27 H :    0.034643
  28 C :   -0.078151
  29 H :    0.029771
  30 H :    0.025090
  31 H :    0.024790
  32 H :    0.024930
  33 H :    0.024673

  Mayer bond orders larger than 0.100000
B(  0-S ,  1-C ) :   1.1322 B(  0-S ,  4-C ) :   1.1520 B(  1-C ,  2-C ) :   1.6302
B(  1-C , 32-H ) :   0.9669 B(  2-C ,  3-C ) :   1.2270 B(  2-C ,  6-C ) :   1.0139
B(  3-C ,  4-C ) :   1.5727 B(  3-C ,  5-H ) :   0.9793 B(  4-C , 20-C ) :   1.0733
B(  6-C ,  7-H ) :   0.9438 B(  6-C ,  8-H ) :   0.9390 B(  6-C ,  9-C ) :   1.0603
B(  9-C , 10-H ) :   0.9612 B(  9-C , 11-H ) :   0.9542 B(  9-C , 12-C ) :   1.0724
B( 12-C , 13-H ) :   0.9767 B( 12-C , 14-H ) :   0.9752 B( 12-C , 15-H ) :   0.9757
B( 16-S , 17-C ) :   1.2052 B( 16-S , 20-C ) :   1.1704 B( 17-C , 18-C ) :   1.5374
B( 17-C , 20-C ) :   0.1120 B( 17-C , 33-H ) :   0.9749 B( 18-C , 19-C ) :   1.3142
B( 18-C , 21-H ) :   0.9935 B( 19-C , 20-C ) :   1.5164 B( 19-C , 22-C ) :   1.0135
B( 22-C , 23-H ) :   0.9425 B( 22-C , 24-H ) :   0.9362 B( 22-C , 25-C ) :   1.0760
B( 25-C , 26-H ) :   0.9574 B( 25-C , 27-H ) :   0.9509 B( 25-C , 28-C ) :   1.0555
B( 28-C , 29-H ) :   0.9785 B( 28-C , 30-H ) :   0.9709 B( 28-C , 31-H ) :   0.9751

Dispersion correction           -0.014618425
FINAL SINGLE POINT ENERGY     -1339.870730965225

DIPOLE MOMENT
-------------
                                X             Y             Z
Electronic contribution:     21.14582       3.42784     -19.85049
Nuclear contribution   :    -21.41998      -3.50963      20.44782
                        -----------------------------------------
Total Dipole Moment    :     -0.27416      -0.08179       0.59733
                        -----------------------------------------
Magnitude (a.u.)       :      0.66231
Magnitude (Debye)      :      1.68345

Rotational constants in cm-1:     0.019044     0.008743     0.007101
Rotational constants in MHz :   570.929882   262.120978   212.897564

                             ****ORCA TERMINATED NORMALLY****
TOTAL RUN TIME: 0 days 0 hours 0 minutes 32 seconds 354 msec
