                         Program Version 4.2.1 -  RELEASE  -
|  1> ! wB97X-D3 SP def2-SVP
|  2> %pal
|  3> nprocs 16
|  4> end
|  5>
|  6> * xyz 0 1
|  7> S 	 5.82809 	 -11.955 	 67.4087
|  8> C 	 7.51712 	 -11.6844 	 66.9549
|  9> C 	 8.22267 	 -11.0526 	 67.9682
| 10> C 	 7.46775 	 -11.0435 	 69.2059
| 11> C 	 6.17931 	 -11.5817 	 69.1057
| 12> H 	 7.84618 	 -10.6224 	 70.1024
| 13> C 	 9.57007 	 -10.4732 	 67.891
| 14> H 	 9.52095 	 -9.37599 	 67.6261
| 15> H 	 9.98292 	 -11.0752 	 67.0684
| 16> C 	 10.5177 	 -10.5689 	 69.1199
| 17> H 	 10.1578 	 -11.3585 	 69.7567
| 18> H 	 11.5093 	 -10.7283 	 68.6923
| 19> C 	 10.5961 	 -9.30695 	 70.0514
| 20> H 	 10.8883 	 -8.43917 	 69.5199
| 21> H 	 9.59256 	 -9.04809 	 70.4201
| 22> H 	 11.271 	 -9.43867 	 70.8245
| 23> S 	 4.24112 	 -10.2147 	 70.5972
| 24> C 	 3.52159 	 -10.9805 	 71.9162
| 25> C 	 4.24567 	 -12.0739 	 72.2586
| 26> C 	 5.207 	 -12.4584 	 71.3066
| 27> C 	 5.22741 	 -11.6166 	 70.2142
| 28> H 	 4.07471 	 -12.5062 	 73.2701
| 29> C 	 6.29129 	 -13.5001 	 71.6419
| 30> H 	 6.82735 	 -12.9511 	 72.4483
| 31> H 	 7.00271 	 -13.6787 	 70.7818
| 32> C 	 5.87147 	 -14.8082 	 72.2833
| 33> H 	 5.10306 	 -14.6332 	 72.9951
| 34> H 	 6.6836 	 -15.3075 	 72.7634
| 35> C 	 5.42906 	 -15.7538 	 71.241
| 36> H 	 5.34417 	 -16.8545 	 71.5042
| 37> H 	 6.15424 	 -15.6466 	 70.4155
| 38> H 	 4.48759 	 -15.4713 	 70.8341
| 39> H 	 7.91115 	 -11.8279 	 65.9812
| 40> H 	 2.79181 	 -10.5588 	 72.6306
| 41> *
| 42>
| 43>                          ****END OF INPUT****

CARTESIAN COORDINATES (ANGSTROEM)
---------------------------------
  S      5.828090  -11.955000   67.408700
  C      7.517120  -11.684400   66.954900
  C      8.222670  -11.052600   67.968200
  C      7.467750  -11.043500   69.205900
  C      6.179310  -11.581700   69.105700
  H      7.846180  -10.622400   70.102400
  C      9.570070  -10.473200   67.891000
  H      9.520950   -9.375990   67.626100
  H      9.982920  -11.075200   67.068400
  C     10.517700  -10.568900   69.119900
  H     10.157800  -11.358500   69.756700
  H     11.509300  -10.728300   68.692300
  C     10.596100   -9.306950   70.051400
  H     10.888300   -8.439170   69.519900
  H      9.592560   -9.048090   70.420100
  H     11.271000   -9.438670   70.824500
  S      4.241120  -10.214700   70.597200
  C      3.521590  -10.980500   71.916200
  C      4.245670  -12.073900   72.258600
  C      5.207000  -12.458400   71.306600
  C      5.227410  -11.616600   70.214200
  H      4.074710  -12.506200   73.270100
  C      6.291290  -13.500100   71.641900
  H      6.827350  -12.951100   72.448300
  H      7.002710  -13.678700   70.781800
  C      5.871470  -14.808200   72.283300
  H      5.103060  -14.633200   72.995100
  H      6.683600  -15.307500   72.763400
  C      5.429060  -15.753800   71.241000
  H      5.344170  -16.854500   71.504200
  H      6.154240  -15.646600   70.415500
  H      4.487590  -15.471300   70.834100
  H      7.911150  -11.827900   65.981200
  H      2.791810  -10.558800   72.630600

 Total Charge           Charge          ....    0
 Multiplicity           Mult            ....    1
 Number of Electrons    NEL             ....  134
 Basis Dimension        Dim             ....  322

ORBITAL ENERGIES
----------------

  NO   OCC          E(Eh)            E(eV)
   0   2.0000     -88.966705     -2420.9071
   1   2.0000     -88.961859     -2420.7753
   2   2.0000     -10.331635      -281.1381
   3   2.0000     -10.321892      -280.8730
   4   2.0000     -10.314574      -280.6738
   5   2.0000     -10.312310      -280.6122
   6   2.0000     -10.302629      -280.3488
   7   2.0000     -10.300011      -280.2775
   8   2.0000     -10.296074      -280.1704
   9   2.0000     -10.295292      -280.1491
  10   2.0000     -10.293779      -280.1080
  11   2.0000     -10.291175      -280.0371
  12   2.0000     -10.288416      -279.9620
  13   2.0000     -10.275248      -279.6037
  14   2.0000     -10.273656      -279.5604
  15   2.0000     -10.267971      -279.4057
  16   2.0000      -8.080564      -219.8833
  17   2.0000      -8.077870      -219.8100
  18   2.0000      -6.039210      -164.3352
  19   2.0000      -6.036237      -164.2544
  20   2.0000      -6.035273      -164.2281
  21   2.0000      -6.032382      -164.1495
  22   2.0000      -6.031145      -164.1158
  23   2.0000      -6.028493      -164.0436
  24   2.0000      -1.011228       -27.5169
  25   2.0000      -0.984597       -26.7922
  26   2.0000      -0.917010       -24.9531
  27   2.0000      -0.911703       -24.8087
  28   2.0000      -0.871744       -23.7214
  29   2.0000      -0.851942       -23.1825
  30   2.0000      -0.845740       -23.0138
  31   2.0000      -0.814267       -22.1573
  32   2.0000      -0.783233       -21.3128
  33   2.0000      -0.771911       -21.0048
  34   2.0000      -0.711520       -19.3615
  35   2.0000      -0.698197       -18.9989
  36   2.0000      -0.695079       -18.9141
  37   2.0000      -0.650190       -17.6926
  38   2.0000      -0.638939       -17.3864
  39   2.0000      -0.621626       -16.9153
  40   2.0000      -0.602051       -16.3826
  41   2.0000      -0.576108       -15.6767
  42   2.0000      -0.555498       -15.1159
  43   2.0000      -0.552632       -15.0379
  44   2.0000      -0.546534       -14.8719
  45   2.0000      -0.535250       -14.5649
  46   2.0000      -0.521321       -14.1859
  47   2.0000      -0.514395       -13.9974
  48   2.0000      -0.505750       -13.7622
  49   2.0000      -0.497173       -13.5288
  50   2.0000      -0.491814       -13.3830
  51   2.0000      -0.483269       -13.1504
  52   2.0000      -0.469796       -12.7838
  53   2.0000      -0.460500       -12.5308
  54   2.0000      -0.456242       -12.4150
  55   2.0000      -0.447354       -12.1731
  56   2.0000      -0.438960       -11.9447
  57   2.0000      -0.435930       -11.8623
  58   2.0000      -0.430652       -11.7186
  59   2.0000      -0.426986       -11.6189
  60   2.0000      -0.425145       -11.5688
  61   2.0000      -0.421530       -11.4704
  62   2.0000      -0.410455       -11.1690
  63   2.0000      -0.331581        -9.0228
  64   2.0000      -0.323299        -8.7974
  65   2.0000      -0.320504        -8.7213
  66   2.0000      -0.310564        -8.4509
  67   0.0000       0.040309         1.0969
  68   0.0000       0.052218         1.4209
  69   0.0000       0.107133         2.9152
  70   0.0000       0.115890         3.1535
  71   0.0000       0.135216         3.6794

MULLIKEN ATOMIC CHARGES
-----------------------
   0 S :    0.116023
   1 C :   -0.111879
   2 C :   -0.096453
   3 C :    0.048637
   4 C :   -0.168532
   5 H :   -0.003715
   6 C :    0.053259
   7 H :    0.055428
   8 H :    0.025883
   9 C :   -0.088763
  10 H :    0.034816
  11 H :    0.038281
  12 C :   -0.025019
  13 H :    0.016465
  14 H :    0.026746
  15 H :    0.028056
  16 S :    0.114619
  17 C :   -0.084410
  18 C :   -0.080825
  19 C :    0.007687
  20 C :   -0.183128
  21 H :    0.034014
  22 C :    0.002360
  23 H :    0.043616
  24 H :    0.050295
  25 C :   -0.009020
  26 H :    0.013957
  27 H :    0.018860
  28 C :   -0.056997
  29 H :    0.040503
  30 H :    0.018310
  31 H :    0.021997
  32 H :    0.032751
  33 H :    0.066180
Sum of atomic charges:    0.0000000

LOEWDIN ATOMIC CHARGES
----------------------
   0 S :    0.394693
   1 C :   -0.186916
   2 C :   -0.065084
   3 C :   -0.051044
   4 C :   -0.193507
   5 H :    0.022217
   6 C :   -0.042092
   7 H :    0.043552
   8 H :    0.036796
   9 C :   -0.036369
  10 H :    0.022358
  11 H :    0.029293
  12 C :   -0.056669
  13 H :    0.018709
  14 H :    0.024609
  15 H :    0.018336
  16 S :    0.427917
  17 C :   -0.204787
  18 C :   -0.089114
  19 C :   -0.052036
  20 C :   -0.211898
  21 H :    0.036514
  22 C :   -0.029232
  23 H :    0.041068
  24 H :    0.036516
  25 C :   -0.043129
  26 H :    0.017411
  27 H :    0.024495
  28 C :   -0.067123
  29 H :    0.029550
  30 H :    0.025222
  31 H :    0.018905
  32 H :    0.020632
  33 H :    0.040208

  Mayer bond orders larger than 0.100000
B(  0-S ,  1-C ) :   1.1369 B(  0-S ,  4-C ) :   1.1401 B(  1-C ,  2-C ) :   1.6137
B(  1-C , 32-H ) :   0.9707 B(  2-C ,  3-C ) :   1.2287 B(  2-C ,  6-C ) :   1.0354
B(  3-C ,  4-C ) :   1.5748 B(  3-C ,  5-H ) :   0.9941 B(  4-C , 20-C ) :   1.0361
B(  6-C ,  7-H ) :   0.9280 B(  6-C ,  8-H ) :   0.9387 B(  6-C ,  9-C ) :   1.0569
B(  9-C , 10-H ) :   0.9632 B(  9-C , 11-H ) :   0.9585 B(  9-C , 12-C ) :   1.0778
B( 12-C , 13-H ) :   0.9706 B( 12-C , 14-H ) :   0.9771 B( 12-C , 15-H ) :   0.9743
B( 16-S , 17-C ) :   1.1763 B( 16-S , 20-C ) :   1.1486 B( 17-C , 18-C ) :   1.6032
B( 17-C , 33-H ) :   0.9603 B( 18-C , 19-C ) :   1.2611 B( 18-C , 21-H ) :   0.9802
B( 19-C , 20-C ) :   1.5779 B( 19-C , 22-C ) :   1.0281 B( 22-C , 23-H ) :   0.9328
B( 22-C , 24-H ) :   0.9393 B( 22-C , 25-C ) :   1.0822 B( 25-C , 26-H ) :   0.9496
B( 25-C , 27-H ) :   0.9479 B( 25-C , 28-C ) :   1.0788 B( 28-C , 29-H ) :   0.9740
B( 28-C , 30-H ) :   0.9709 B( 28-C , 31-H ) :   0.9746

Dispersion correction           -0.014297925
FINAL SINGLE POINT ENERGY     -1339.860324827151

DIPOLE MOMENT
-------------
                                X             Y             Z
Electronic contribution:    -19.34689       8.04265      -9.59149
Nuclear contribution   :     20.01183      -7.94799      10.06431
                        -----------------------------------------
Total Dipole Moment    :      0.66494       0.09466       0.47282
                        -----------------------------------------
Magnitude (a.u.)       :      0.82137
Magnitude (Debye)      :      2.08777

Rotational constants in cm-1:     0.016860     0.008361     0.007982
Rotational constants in MHz :   505.452877   250.646714   239.301116

                             ****ORCA TERMINATED NORMALLY****
TOTAL RUN TIME: 0 days 0 hours 0 minutes 35 seconds 601 msec
