                         Program Version 4.2.1 -  RELEASE  -
|  1> ! wB97X-D3 SP def2-SVP
|  2> %pal
|  3> nprocs 16
|  4> end
|  5>
|  6> * xyz 0 1
|  7> S 	 16.855 	 -10.749 	 79.1645
|  8> C 	 16.775 	 -11.9851 	 80.3641
|  9> C 	 17.828 	 -11.9086 	 81.2093
| 10> C 	 18.7114 	 -10.815 	 80.9571
| 11> C 	 18.3058 	 -10.1334 	 79.8272
| 12> H 	 19.5094 	 -10.4811 	 81.6155
| 13> C 	 17.9967 	 -12.8467 	 82.3865
| 14> H 	 17.2991 	 -13.6759 	 82.3555
| 15> H 	 17.9569 	 -12.2334 	 83.3106
| 16> C 	 19.4086 	 -13.5619 	 82.4002
| 17> H 	 19.5937 	 -13.9523 	 81.4127
| 18> H 	 20.274 	 -12.8274 	 82.5883
| 19> C 	 19.5583 	 -14.5545 	 83.5064
| 20> H 	 19.164 	 -14.2306 	 84.5257
| 21> H 	 19.0811 	 -15.5624 	 83.2421
| 22> H 	 20.5999 	 -14.7449 	 83.672
| 23> S 	 17.8535 	 -7.50891 	 79.0192
| 24> C 	 19.243 	 -6.50306 	 78.5768
| 25> C 	 20.3953 	 -7.27858 	 78.5877
| 26> C 	 20.236 	 -8.63244 	 78.936
| 27> C 	 18.9274 	 -8.88815 	 79.3166
| 28> H 	 21.3677 	 -6.95646 	 78.2785
| 29> C 	 21.3631 	 -9.60786 	 78.9701
| 30> H 	 21.0112 	 -10.4225 	 79.6349
| 31> H 	 22.2445 	 -9.18374 	 79.3461
| 32> C 	 21.6735 	 -10.132 	 77.5868
| 33> H 	 22.2703 	 -9.37724 	 77.1419
| 34> H 	 20.7258 	 -10.2237 	 77.0121
| 35> C 	 22.5037 	 -11.4359 	 77.513
| 36> H 	 23.4785 	 -11.2727 	 77.8009
| 37> H 	 22.4685 	 -11.9708 	 76.6428
| 38> H 	 22.1609 	 -12.1864 	 78.2127
| 39> H 	 15.9747 	 -12.6878 	 80.4993
| 40> H 	 19.1888 	 -5.44123 	 78.3017
| 41> *
| 42>
| 43>                          ****END OF INPUT****

CARTESIAN COORDINATES (ANGSTROEM)
---------------------------------
  S     16.855000  -10.749000   79.164500
  C     16.775000  -11.985100   80.364100
  C     17.828000  -11.908600   81.209300
  C     18.711400  -10.815000   80.957100
  C     18.305800  -10.133400   79.827200
  H     19.509400  -10.481100   81.615500
  C     17.996700  -12.846700   82.386500
  H     17.299100  -13.675900   82.355500
  H     17.956900  -12.233400   83.310600
  C     19.408600  -13.561900   82.400200
  H     19.593700  -13.952300   81.412700
  H     20.274000  -12.827400   82.588300
  C     19.558300  -14.554500   83.506400
  H     19.164000  -14.230600   84.525700
  H     19.081100  -15.562400   83.242100
  H     20.599900  -14.744900   83.672000
  S     17.853500   -7.508910   79.019200
  C     19.243000   -6.503060   78.576800
  C     20.395300   -7.278580   78.587700
  C     20.236000   -8.632440   78.936000
  C     18.927400   -8.888150   79.316600
  H     21.367700   -6.956460   78.278500
  C     21.363100   -9.607860   78.970100
  H     21.011200  -10.422500   79.634900
  H     22.244500   -9.183740   79.346100
  C     21.673500  -10.132000   77.586800
  H     22.270300   -9.377240   77.141900
  H     20.725800  -10.223700   77.012100
  C     22.503700  -11.435900   77.513000
  H     23.478500  -11.272700   77.800900
  H     22.468500  -11.970800   76.642800
  H     22.160900  -12.186400   78.212700
  H     15.974700  -12.687800   80.499300
  H     19.188800   -5.441230   78.301700

 Total Charge           Charge          ....    0
 Multiplicity           Mult            ....    1
 Number of Electrons    NEL             ....  134
 Basis Dimension        Dim             ....  322

ORBITAL ENERGIES
----------------

  NO   OCC          E(Eh)            E(eV)
   0   2.0000     -88.966742     -2420.9081
   1   2.0000     -88.965756     -2420.8813
   2   2.0000     -10.327964      -281.0382
   3   2.0000     -10.327226      -281.0181
   4   2.0000     -10.321740      -280.8688
   5   2.0000     -10.305403      -280.4243
   6   2.0000     -10.297438      -280.2075
   7   2.0000     -10.295219      -280.1472
   8   2.0000     -10.294930      -280.1393
   9   2.0000     -10.292968      -280.0859
  10   2.0000     -10.290758      -280.0258
  11   2.0000     -10.290531      -280.0196
  12   2.0000     -10.284595      -279.8581
  13   2.0000     -10.283700      -279.8337
  14   2.0000     -10.281278      -279.7678
  15   2.0000     -10.261991      -279.2430
  16   2.0000      -8.081699      -219.9142
  17   2.0000      -8.080669      -219.8862
  18   2.0000      -6.040085      -164.3591
  19   2.0000      -6.039254      -164.3364
  20   2.0000      -6.036009      -164.2482
  21   2.0000      -6.035295      -164.2287
  22   2.0000      -6.032561      -164.1543
  23   2.0000      -6.031398      -164.1227
  24   2.0000      -1.011748       -27.5311
  25   2.0000      -0.986722       -26.8501
  26   2.0000      -0.914125       -24.8746
  27   2.0000      -0.909303       -24.7434
  28   2.0000      -0.868520       -23.6336
  29   2.0000      -0.854533       -23.2530
  30   2.0000      -0.848458       -23.0877
  31   2.0000      -0.814627       -22.1671
  32   2.0000      -0.786753       -21.4086
  33   2.0000      -0.771722       -20.9996
  34   2.0000      -0.706557       -19.2264
  35   2.0000      -0.697988       -18.9932
  36   2.0000      -0.688324       -18.7302
  37   2.0000      -0.663731       -18.0611
  38   2.0000      -0.642706       -17.4889
  39   2.0000      -0.620719       -16.8906
  40   2.0000      -0.599134       -16.3033
  41   2.0000      -0.572063       -15.5666
  42   2.0000      -0.568589       -15.4721
  43   2.0000      -0.558776       -15.2051
  44   2.0000      -0.526565       -14.3286
  45   2.0000      -0.522027       -14.2051
  46   2.0000      -0.515094       -14.0164
  47   2.0000      -0.512319       -13.9409
  48   2.0000      -0.507709       -13.8155
  49   2.0000      -0.499942       -13.6041
  50   2.0000      -0.497288       -13.5319
  51   2.0000      -0.486981       -13.2514
  52   2.0000      -0.471379       -12.8269
  53   2.0000      -0.467325       -12.7166
  54   2.0000      -0.459750       -12.5104
  55   2.0000      -0.453109       -12.3297
  56   2.0000      -0.445173       -12.1138
  57   2.0000      -0.434308       -11.8181
  58   2.0000      -0.430434       -11.7127
  59   2.0000      -0.423260       -11.5175
  60   2.0000      -0.420138       -11.4325
  61   2.0000      -0.418199       -11.3798
  62   2.0000      -0.412385       -11.2216
  63   2.0000      -0.345942        -9.4135
  64   2.0000      -0.332622        -9.0511
  65   2.0000      -0.329899        -8.9770
  66   2.0000      -0.292976        -7.9723
  67   0.0000       0.032511         0.8847
  68   0.0000       0.074077         2.0157
  69   0.0000       0.111121         3.0238
  70   0.0000       0.126383         3.4391
  71   0.0000       0.130383         3.5479

MULLIKEN ATOMIC CHARGES
-----------------------
   0 S :    0.118059
   1 C :   -0.123742
   2 C :   -0.076647
   3 C :    0.025835
   4 C :   -0.150462
   5 H :    0.028361
   6 C :    0.078847
   7 H :    0.019038
   8 H :    0.041529
   9 C :   -0.118969
  10 H :    0.032485
  11 H :    0.030187
  12 C :   -0.058404
  13 H :    0.037637
  14 H :    0.040372
  15 H :    0.028851
  16 S :    0.104281
  17 C :   -0.099318
  18 C :   -0.007281
  19 C :   -0.057491
  20 C :   -0.176400
  21 H :   -0.000292
  22 C :    0.126367
  23 H :    0.016207
  24 H :    0.009143
  25 C :   -0.094841
  26 H :    0.016691
  27 H :    0.043372
  28 C :    0.028506
  29 H :    0.006229
  30 H :    0.014714
  31 H :    0.010744
  32 H :    0.036879
  33 H :    0.069512
Sum of atomic charges:   -0.0000000

LOEWDIN ATOMIC CHARGES
----------------------
   0 S :    0.428964
   1 C :   -0.208231
   2 C :   -0.066307
   3 C :   -0.065642
   4 C :   -0.200388
   5 H :    0.035836
   6 C :   -0.026267
   7 H :    0.026711
   8 H :    0.036285
   9 C :   -0.049072
  10 H :    0.022199
  11 H :    0.026852
  12 C :   -0.076982
  13 H :    0.032231
  14 H :    0.030244
  15 H :    0.023080
  16 S :    0.389441
  17 C :   -0.183587
  18 C :   -0.066507
  19 C :   -0.055680
  20 C :   -0.189804
  21 H :    0.024695
  22 C :   -0.026603
  23 H :    0.033016
  24 H :    0.022219
  25 C :   -0.032866
  26 H :    0.017881
  27 H :    0.030606
  28 C :   -0.054863
  29 H :    0.015212
  30 H :    0.017707
  31 H :    0.026447
  32 H :    0.027097
  33 H :    0.036074

  Mayer bond orders larger than 0.100000
B(  0-S ,  1-C ) :   1.1220 B(  0-S ,  4-C ) :   1.1777 B(  1-C ,  2-C ) :   1.6295
B(  1-C , 32-H ) :   0.9714 B(  2-C ,  3-C ) :   1.2321 B(  2-C ,  6-C ) :   1.0377
B(  3-C ,  4-C ) :   1.5639 B(  3-C ,  5-H ) :   0.9910 B(  4-C , 20-C ) :   1.0144
B(  6-C ,  7-H ) :   0.9480 B(  6-C ,  8-H ) :   0.9328 B(  6-C ,  9-C ) :   1.0529
B(  9-C , 10-H ) :   0.9586 B(  9-C , 11-H ) :   0.9548 B(  9-C , 12-C ) :   1.0885
B( 12-C , 13-H ) :   0.9700 B( 12-C , 14-H ) :   0.9715 B( 12-C , 15-H ) :   0.9742
B( 16-S , 17-C ) :   1.1442 B( 16-S , 20-C ) :   1.1462 B( 17-C , 18-C ) :   1.5827
B( 17-C , 20-C ) :   0.1060 B( 17-C , 33-H ) :   0.9682 B( 18-C , 19-C ) :   1.2655
B( 18-C , 21-H ) :   0.9855 B( 19-C , 20-C ) :   1.5867 B( 19-C , 22-C ) :   1.0548
B( 22-C , 23-H ) :   0.9233 B( 22-C , 24-H ) :   0.9268 B( 22-C , 25-C ) :   1.0555
B( 25-C , 26-H ) :   0.9559 B( 25-C , 27-H ) :   0.9613 B( 25-C , 28-C ) :   1.0853
B( 28-C , 29-H ) :   0.9701 B( 28-C , 30-H ) :   0.9736 B( 28-C , 31-H ) :   0.9713

Dispersion correction           -0.013895936
FINAL SINGLE POINT ENERGY     -1339.881665342523

DIPOLE MOMENT
-------------
                                X             Y             Z
Electronic contribution:    -20.52378      20.71389      -8.48044
Nuclear contribution   :     21.06736     -20.99425       8.72332
                        -----------------------------------------
Total Dipole Moment    :      0.54358      -0.28036       0.24288
                        -----------------------------------------
Magnitude (a.u.)       :      0.65808
Magnitude (Debye)      :      1.67270

Rotational constants in cm-1:     0.017730     0.008725     0.006774
Rotational constants in MHz :   531.521961   261.564776   203.079519

                             ****ORCA TERMINATED NORMALLY****
TOTAL RUN TIME: 0 days 0 hours 0 minutes 28 seconds 984 msec
