                         Program Version 4.2.1 -  RELEASE  -
|  1> ! wB97X-D3 SP def2-SVP
|  2> %pal
|  3> nprocs 16
|  4> end
|  5>
|  6> * xyz 0 1
|  7> S 	 -31.0628 	 56.2501 	 109.343
|  8> C 	 -32.045 	 57.0777 	 108.127
|  9> C 	 -33.0284 	 56.2732 	 107.524
| 10> C 	 -32.8536 	 54.9529 	 107.943
| 11> C 	 -31.8062 	 54.7703 	 108.834
| 12> H 	 -33.3584 	 54.1003 	 107.576
| 13> C 	 -33.9597 	 56.8021 	 106.483
| 14> H 	 -34.5837 	 56.0306 	 106.077
| 15> H 	 -33.3631 	 57.3058 	 105.687
| 16> C 	 -35.1001 	 57.747 	 106.939
| 17> H 	 -35.7251 	 57.2411 	 107.633
| 18> H 	 -34.6347 	 58.5465 	 107.51
| 19> C 	 -35.9157 	 58.3411 	 105.752
| 20> H 	 -36.116 	 57.5795 	 104.999
| 21> H 	 -36.6784 	 59.0564 	 106.108
| 22> H 	 -35.1718 	 58.9644 	 105.261
| 23> S 	 -32.7225 	 52.8405 	 110.504
| 24> C 	 -31.6289 	 51.4434 	 110.742
| 25> C 	 -30.3895 	 51.6417 	 110.238
| 26> C 	 -30.2711 	 52.9245 	 109.606
| 27> C 	 -31.4538 	 53.5546 	 109.522
| 28> H 	 -29.6576 	 50.8997 	 110.27
| 29> C 	 -29.0172 	 53.3686 	 108.831
| 30> H 	 -29.2001 	 54.2212 	 108.175
| 31> H 	 -28.6729 	 52.4836 	 108.229
| 32> C 	 -27.7949 	 53.5958 	 109.788
| 33> H 	 -27.6768 	 52.8805 	 110.537
| 34> H 	 -28.1017 	 54.402 	 110.433
| 35> C 	 -26.4731 	 53.9156 	 109.158
| 36> H 	 -25.7942 	 54.1191 	 109.978
| 37> H 	 -26.4884 	 54.7639 	 108.477
| 38> H 	 -26.0064 	 53.0655 	 108.632
| 39> H 	 -32.0005 	 58.0915 	 108.023
| 40> H 	 -31.8362 	 50.5204 	 111.268
| 41> *
| 42>
| 43>                          ****END OF INPUT****

CARTESIAN COORDINATES (ANGSTROEM)
---------------------------------
  S    -31.062800   56.250100  109.343000
  C    -32.045000   57.077700  108.127000
  C    -33.028400   56.273200  107.524000
  C    -32.853600   54.952900  107.943000
  C    -31.806200   54.770300  108.834000
  H    -33.358400   54.100300  107.576000
  C    -33.959700   56.802100  106.483000
  H    -34.583700   56.030600  106.077000
  H    -33.363100   57.305800  105.687000
  C    -35.100100   57.747000  106.939000
  H    -35.725100   57.241100  107.633000
  H    -34.634700   58.546500  107.510000
  C    -35.915700   58.341100  105.752000
  H    -36.116000   57.579500  104.999000
  H    -36.678400   59.056400  106.108000
  H    -35.171800   58.964400  105.261000
  S    -32.722500   52.840500  110.504000
  C    -31.628900   51.443400  110.742000
  C    -30.389500   51.641700  110.238000
  C    -30.271100   52.924500  109.606000
  C    -31.453800   53.554600  109.522000
  H    -29.657600   50.899700  110.270000
  C    -29.017200   53.368600  108.831000
  H    -29.200100   54.221200  108.175000
  H    -28.672900   52.483600  108.229000
  C    -27.794900   53.595800  109.788000
  H    -27.676800   52.880500  110.537000
  H    -28.101700   54.402000  110.433000
  C    -26.473100   53.915600  109.158000
  H    -25.794200   54.119100  109.978000
  H    -26.488400   54.763900  108.477000
  H    -26.006400   53.065500  108.632000
  H    -32.000500   58.091500  108.023000
  H    -31.836200   50.520400  111.268000

 Total Charge           Charge          ....    0
 Multiplicity           Mult            ....    1
 Number of Electrons    NEL             ....  134
 Basis Dimension        Dim             ....  322

ORBITAL ENERGIES
----------------

  NO   OCC          E(Eh)            E(eV)
   0   2.0000     -88.970068     -2420.9986
   1   2.0000     -88.963395     -2420.8170
   2   2.0000     -10.322040      -280.8770
   3   2.0000     -10.316152      -280.7168
   4   2.0000     -10.314511      -280.6721
   5   2.0000     -10.307926      -280.4929
   6   2.0000     -10.301444      -280.3165
   7   2.0000     -10.297162      -280.2000
   8   2.0000     -10.294628      -280.1311
   9   2.0000     -10.292884      -280.0836
  10   2.0000     -10.289390      -279.9885
  11   2.0000     -10.287676      -279.9419
  12   2.0000     -10.283651      -279.8324
  13   2.0000     -10.283206      -279.8203
  14   2.0000     -10.275746      -279.6173
  15   2.0000     -10.274912      -279.5946
  16   2.0000      -8.084427      -219.9884
  17   2.0000      -8.077606      -219.8028
  18   2.0000      -6.042606      -164.4277
  19   2.0000      -6.039086      -164.3319
  20   2.0000      -6.036241      -164.2545
  21   2.0000      -6.035470      -164.2335
  22   2.0000      -6.032447      -164.1512
  23   2.0000      -6.028002      -164.0303
  24   2.0000      -1.009572       -27.4719
  25   2.0000      -0.983776       -26.7699
  26   2.0000      -0.913669       -24.8622
  27   2.0000      -0.903753       -24.5924
  28   2.0000      -0.870864       -23.6974
  29   2.0000      -0.855618       -23.2825
  30   2.0000      -0.848407       -23.0863
  31   2.0000      -0.815813       -22.1994
  32   2.0000      -0.783474       -21.3194
  33   2.0000      -0.769239       -20.9320
  34   2.0000      -0.704109       -19.1598
  35   2.0000      -0.702725       -19.1221
  36   2.0000      -0.697173       -18.9710
  37   2.0000      -0.667645       -18.1675
  38   2.0000      -0.646592       -17.5947
  39   2.0000      -0.617296       -16.7975
  40   2.0000      -0.594826       -16.1860
  41   2.0000      -0.579456       -15.7678
  42   2.0000      -0.560881       -15.2623
  43   2.0000      -0.554994       -15.1021
  44   2.0000      -0.529334       -14.4039
  45   2.0000      -0.524785       -14.2801
  46   2.0000      -0.516809       -14.0631
  47   2.0000      -0.514055       -13.9882
  48   2.0000      -0.504689       -13.7333
  49   2.0000      -0.499746       -13.5988
  50   2.0000      -0.489732       -13.3263
  51   2.0000      -0.478775       -13.0281
  52   2.0000      -0.466728       -12.7003
  53   2.0000      -0.464116       -12.6292
  54   2.0000      -0.460389       -12.5278
  55   2.0000      -0.454408       -12.3651
  56   2.0000      -0.447372       -12.1736
  57   2.0000      -0.438692       -11.9374
  58   2.0000      -0.436528       -11.8785
  59   2.0000      -0.429805       -11.6956
  60   2.0000      -0.421553       -11.4710
  61   2.0000      -0.415984       -11.3195
  62   2.0000      -0.405946       -11.0464
  63   2.0000      -0.339350        -9.2342
  64   2.0000      -0.336537        -9.1576
  65   2.0000      -0.327510        -8.9120
  66   2.0000      -0.294066        -8.0019
  67   0.0000       0.032336         0.8799
  68   0.0000       0.069954         1.9035
  69   0.0000       0.103241         2.8093
  70   0.0000       0.108137         2.9426
  71   0.0000       0.129296         3.5183

MULLIKEN ATOMIC CHARGES
-----------------------
   0 S :    0.129295
   1 C :   -0.096265
   2 C :   -0.038585
   3 C :    0.031498
   4 C :   -0.189431
   5 H :   -0.004254
   6 C :    0.039979
   7 H :    0.012618
   8 H :    0.045966
   9 C :   -0.081343
  10 H :    0.022803
  11 H :    0.016890
  12 C :   -0.032677
  13 H :    0.035249
  14 H :    0.053866
  15 H :    0.014777
  16 S :    0.112222
  17 C :   -0.079490
  18 C :   -0.006939
  19 C :   -0.002889
  20 C :   -0.164738
  21 H :   -0.004451
  22 C :    0.054638
  23 H :    0.039125
  24 H :    0.030768
  25 C :   -0.074840
  26 H :    0.005153
  27 H :    0.007607
  28 C :   -0.021054
  29 H :    0.028393
  30 H :    0.033210
  31 H :    0.028187
  32 H :    0.007911
  33 H :    0.046802
Sum of atomic charges:    0.0000000

LOEWDIN ATOMIC CHARGES
----------------------
   0 S :    0.421829
   1 C :   -0.175092
   2 C :   -0.056388
   3 C :   -0.056945
   4 C :   -0.199620
   5 H :    0.026804
   6 C :   -0.034675
   7 H :    0.027645
   8 H :    0.038439
   9 C :   -0.034867
  10 H :    0.015546
  11 H :    0.016492
  12 C :   -0.068333
  13 H :    0.026947
  14 H :    0.036025
  15 H :    0.024952
  16 S :    0.379929
  17 C :   -0.167126
  18 C :   -0.057594
  19 C :   -0.057262
  20 C :   -0.198245
  21 H :    0.022653
  22 C :   -0.026789
  23 H :    0.026292
  24 H :    0.033596
  25 C :   -0.046843
  26 H :    0.015684
  27 H :    0.021216
  28 C :   -0.063387
  29 H :    0.029850
  30 H :    0.025076
  31 H :    0.025091
  32 H :    0.000398
  33 H :    0.028704

  Mayer bond orders larger than 0.100000
B(  0-S ,  1-C ) :   1.1552 B(  0-S ,  4-C ) :   1.1669 B(  1-C ,  2-C ) :   1.5667
B(  1-C ,  4-C ) :   0.1082 B(  1-C , 32-H ) :   0.9800 B(  2-C ,  3-C ) :   1.2623
B(  2-C ,  6-C ) :   1.0275 B(  3-C ,  4-C ) :   1.5480 B(  3-C ,  5-H ) :   1.0083
B(  4-C , 20-C ) :   1.0360 B(  6-C ,  7-H ) :   0.9390 B(  6-C ,  8-H ) :   0.9451
B(  6-C ,  9-C ) :   1.0512 B(  9-C , 10-H ) :   0.9580 B(  9-C , 11-H ) :   0.9602
B(  9-C , 12-C ) :   1.0737 B( 12-C , 13-H ) :   0.9735 B( 12-C , 14-H ) :   0.9722
B( 12-C , 15-H ) :   0.9731 B( 16-S , 17-C ) :   1.1147 B( 16-S , 20-C ) :   1.1163
B( 17-C , 18-C ) :   1.6807 B( 17-C , 33-H ) :   0.9637 B( 18-C , 19-C ) :   1.1800
B( 18-C , 21-H ) :   0.9964 B( 19-C , 20-C ) :   1.6501 B( 19-C , 22-C ) :   1.0510
B( 22-C , 23-H ) :   0.9374 B( 22-C , 24-H ) :   0.9415 B( 22-C , 25-C ) :   1.0398
B( 25-C , 26-H ) :   0.9569 B( 25-C , 27-H ) :   0.9447 B( 25-C , 28-C ) :   1.0975
B( 28-C , 29-H ) :   0.9693 B( 28-C , 30-H ) :   0.9731 B( 28-C , 31-H ) :   0.9718

Dispersion correction           -0.013723519
FINAL SINGLE POINT ENERGY     -1339.867829070916

DIPOLE MOMENT
-------------
                                X             Y             Z
Electronic contribution:     -3.87156      -8.59144      13.40990
Nuclear contribution   :      3.99321       8.60324     -13.68364
                        -----------------------------------------
Total Dipole Moment    :      0.12166       0.01181      -0.27374
                        -----------------------------------------
Magnitude (a.u.)       :      0.29979
Magnitude (Debye)      :      0.76201

Rotational constants in cm-1:     0.022935     0.007150     0.005864
Rotational constants in MHz :   687.573076   214.346593   175.802397

                             ****ORCA TERMINATED NORMALLY****
TOTAL RUN TIME: 0 days 0 hours 0 minutes 28 seconds 478 msec
