                         Program Version 4.2.1 -  RELEASE  -
|  1> ! wB97X-D3 SP def2-SVP
|  2> %pal
|  3> nprocs 16
|  4> end
|  5>
|  6> * xyz 0 1
|  7> S 	 -52.4906 	 28.5238 	 92.5629
|  8> C 	 -51.6824 	 27.0205 	 92.9954
|  9> C 	 -52.2446 	 25.8831 	 92.4287
| 10> C 	 -53.2838 	 26.2606 	 91.5333
| 11> C 	 -53.4008 	 27.6453 	 91.3487
| 12> H 	 -53.9741 	 25.5362 	 91.0182
| 13> C 	 -52.085 	 24.489 	 92.9574
| 14> H 	 -51.1539 	 24.4515 	 93.5413
| 15> H 	 -51.9668 	 23.8245 	 92.0804
| 16> C 	 -53.2234 	 23.9107 	 93.8375
| 17> H 	 -54.0432 	 24.0409 	 93.1732
| 18> H 	 -53.1609 	 22.8448 	 93.949
| 19> C 	 -53.3581 	 24.5174 	 95.2309
| 20> H 	 -52.687 	 24.0959 	 95.9106
| 21> H 	 -53.1989 	 25.5559 	 95.2177
| 22> H 	 -54.2922 	 24.1676 	 95.6659
| 23> S 	 -53.8557 	 29.4314 	 89.1228
| 24> C 	 -55.4812 	 29.9765 	 88.7488
| 25> C 	 -56.3484 	 29.5071 	 89.6425
| 26> C 	 -55.7309 	 28.5712 	 90.6213
| 27> C 	 -54.3428 	 28.3943 	 90.4728
| 28> H 	 -57.4594 	 29.768 	 89.5495
| 29> C 	 -56.6583 	 27.8822 	 91.6536
| 30> H 	 -56.1827 	 27.0273 	 92.2006
| 31> H 	 -57.4769 	 27.4774 	 91.0331
| 32> C 	 -57.1798 	 28.8459 	 92.7867
| 33> H 	 -56.9053 	 29.8853 	 92.4613
| 34> H 	 -56.6063 	 28.6499 	 93.7228
| 35> C 	 -58.6461 	 28.6645 	 93.1563
| 36> H 	 -58.8307 	 27.6422 	 93.4395
| 37> H 	 -59.3318 	 28.9713 	 92.3432
| 38> H 	 -58.837 	 29.3828 	 93.981
| 39> H 	 -51.1349 	 26.9936 	 93.9585
| 40> H 	 -55.7203 	 30.7353 	 87.9758
| 41> *
| 42>
| 43>                          ****END OF INPUT****

CARTESIAN COORDINATES (ANGSTROEM)
---------------------------------
  S    -52.490600   28.523800   92.562900
  C    -51.682400   27.020500   92.995400
  C    -52.244600   25.883100   92.428700
  C    -53.283800   26.260600   91.533300
  C    -53.400800   27.645300   91.348700
  H    -53.974100   25.536200   91.018200
  C    -52.085000   24.489000   92.957400
  H    -51.153900   24.451500   93.541300
  H    -51.966800   23.824500   92.080400
  C    -53.223400   23.910700   93.837500
  H    -54.043200   24.040900   93.173200
  H    -53.160900   22.844800   93.949000
  C    -53.358100   24.517400   95.230900
  H    -52.687000   24.095900   95.910600
  H    -53.198900   25.555900   95.217700
  H    -54.292200   24.167600   95.665900
  S    -53.855700   29.431400   89.122800
  C    -55.481200   29.976500   88.748800
  C    -56.348400   29.507100   89.642500
  C    -55.730900   28.571200   90.621300
  C    -54.342800   28.394300   90.472800
  H    -57.459400   29.768000   89.549500
  C    -56.658300   27.882200   91.653600
  H    -56.182700   27.027300   92.200600
  H    -57.476900   27.477400   91.033100
  C    -57.179800   28.845900   92.786700
  H    -56.905300   29.885300   92.461300
  H    -56.606300   28.649900   93.722800
  C    -58.646100   28.664500   93.156300
  H    -58.830700   27.642200   93.439500
  H    -59.331800   28.971300   92.343200
  H    -58.837000   29.382800   93.981000
  H    -51.134900   26.993600   93.958500
  H    -55.720300   30.735300   87.975800

 Total Charge           Charge          ....    0
 Multiplicity           Mult            ....    1
 Number of Electrons    NEL             ....  134
 Basis Dimension        Dim             ....  322

ORBITAL ENERGIES
----------------

  NO   OCC          E(Eh)            E(eV)
   0   2.0000     -88.970368     -2421.0068
   1   2.0000     -88.959666     -2420.7156
   2   2.0000     -10.336841      -281.2797
   3   2.0000     -10.332408      -281.1591
   4   2.0000     -10.318659      -280.7850
   5   2.0000     -10.318359      -280.7768
   6   2.0000     -10.312327      -280.6127
   7   2.0000     -10.304083      -280.3884
   8   2.0000     -10.303764      -280.3797
   9   2.0000     -10.299849      -280.2731
  10   2.0000     -10.295493      -280.1546
  11   2.0000     -10.295453      -280.1535
  12   2.0000     -10.289463      -279.9905
  13   2.0000     -10.285238      -279.8756
  14   2.0000     -10.280153      -279.7372
  15   2.0000     -10.270881      -279.4849
  16   2.0000      -8.084821      -219.9992
  17   2.0000      -8.074309      -219.7131
  18   2.0000      -6.043173      -164.4431
  19   2.0000      -6.039562      -164.3448
  20   2.0000      -6.035561      -164.2360
  21   2.0000      -6.033016      -164.1667
  22   2.0000      -6.028783      -164.0515
  23   2.0000      -6.024874      -163.9452
  24   2.0000      -1.001780       -27.2598
  25   2.0000      -0.982459       -26.7341
  26   2.0000      -0.914645       -24.8887
  27   2.0000      -0.897744       -24.4289
  28   2.0000      -0.868850       -23.6426
  29   2.0000      -0.851042       -23.1580
  30   2.0000      -0.839275       -22.8378
  31   2.0000      -0.816210       -22.2102
  32   2.0000      -0.787522       -21.4296
  33   2.0000      -0.766752       -20.8644
  34   2.0000      -0.712136       -19.3782
  35   2.0000      -0.694855       -18.9080
  36   2.0000      -0.684823       -18.6350
  37   2.0000      -0.647640       -17.6232
  38   2.0000      -0.637151       -17.3378
  39   2.0000      -0.620437       -16.8829
  40   2.0000      -0.593361       -16.1462
  41   2.0000      -0.572052       -15.5663
  42   2.0000      -0.557212       -15.1625
  43   2.0000      -0.546182       -14.8624
  44   2.0000      -0.542984       -14.7753
  45   2.0000      -0.525624       -14.3029
  46   2.0000      -0.518025       -14.0962
  47   2.0000      -0.513742       -13.9796
  48   2.0000      -0.500448       -13.6179
  49   2.0000      -0.493016       -13.4156
  50   2.0000      -0.487849       -13.2750
  51   2.0000      -0.477055       -12.9813
  52   2.0000      -0.474243       -12.9048
  53   2.0000      -0.466254       -12.6874
  54   2.0000      -0.459580       -12.5058
  55   2.0000      -0.453673       -12.3451
  56   2.0000      -0.444201       -12.0873
  57   2.0000      -0.442318       -12.0361
  58   2.0000      -0.430165       -11.7054
  59   2.0000      -0.428548       -11.6614
  60   2.0000      -0.412416       -11.2224
  61   2.0000      -0.410969       -11.1830
  62   2.0000      -0.405560       -11.0359
  63   2.0000      -0.339220        -9.2307
  64   2.0000      -0.332493        -9.0476
  65   2.0000      -0.322329        -8.7710
  66   2.0000      -0.305269        -8.3068
  67   0.0000       0.035297         0.9605
  68   0.0000       0.058289         1.5861
  69   0.0000       0.099358         2.7037
  70   0.0000       0.123127         3.3505
  71   0.0000       0.130273         3.5449

MULLIKEN ATOMIC CHARGES
-----------------------
   0 S :    0.121550
   1 C :   -0.124531
   2 C :   -0.086614
   3 C :    0.015745
   4 C :   -0.174116
   5 H :    0.040154
   6 C :    0.030803
   7 H :    0.020014
   8 H :    0.035130
   9 C :   -0.044439
  10 H :    0.008372
  11 H :    0.023940
  12 C :    0.000897
  13 H :    0.010040
  14 H :    0.030124
  15 H :    0.027505
  16 S :    0.085603
  17 C :   -0.098695
  18 C :   -0.042594
  19 C :   -0.065945
  20 C :   -0.152665
  21 H :    0.051307
  22 C :    0.048119
  23 H :    0.034579
  24 H :    0.037773
  25 C :   -0.108869
  26 H :    0.042394
  27 H :    0.039445
  28 C :   -0.054854
  29 H :    0.037539
  30 H :    0.033498
  31 H :    0.039301
  32 H :    0.064401
  33 H :    0.075090
Sum of atomic charges:    0.0000000

LOEWDIN ATOMIC CHARGES
----------------------
   0 S :    0.412563
   1 C :   -0.197538
   2 C :   -0.069736
   3 C :   -0.058602
   4 C :   -0.191673
   5 H :    0.041071
   6 C :   -0.032865
   7 H :    0.027475
   8 H :    0.035718
   9 C :   -0.033794
  10 H :    0.016092
  11 H :    0.024551
  12 C :   -0.055586
  13 H :    0.019741
  14 H :    0.019805
  15 H :    0.032063
  16 S :    0.382881
  17 C :   -0.182970
  18 C :   -0.089524
  19 C :   -0.051144
  20 C :   -0.211156
  21 H :    0.046691
  22 C :   -0.040682
  23 H :    0.033571
  24 H :    0.031662
  25 C :   -0.048287
  26 H :    0.026107
  27 H :    0.029171
  28 C :   -0.067308
  29 H :    0.023230
  30 H :    0.024293
  31 H :    0.032043
  32 H :    0.029435
  33 H :    0.042702

  Mayer bond orders larger than 0.100000
B(  0-S ,  1-C ) :   1.1490 B(  0-S ,  4-C ) :   1.1701 B(  1-C ,  2-C ) :   1.5988
B(  1-C ,  4-C ) :   0.1007 B(  1-C , 32-H ) :   0.9554 B(  2-C ,  3-C ) :   1.2501
B(  2-C ,  6-C ) :   1.0440 B(  3-C ,  4-C ) :   1.5751 B(  3-C ,  5-H ) :   0.9843
B(  4-C , 20-C ) :   1.0229 B(  6-C ,  7-H ) :   0.9426 B(  6-C ,  8-H ) :   0.9319
B(  6-C ,  9-C ) :   1.0671 B(  9-C , 10-H ) :   0.9555 B(  9-C , 11-H ) :   0.9529
B(  9-C , 12-C ) :   1.0766 B( 12-C , 13-H ) :   0.9694 B( 12-C , 14-H ) :   0.9798
B( 12-C , 15-H ) :   0.9689 B( 16-S , 17-C ) :   1.1441 B( 16-S , 20-C ) :   1.1140
B( 17-C , 18-C ) :   1.6602 B( 17-C , 33-H ) :   0.9596 B( 18-C , 19-C ) :   1.2015
B( 18-C , 21-H ) :   0.9745 B( 19-C , 20-C ) :   1.6272 B( 19-C , 22-C ) :   1.0444
B( 22-C , 23-H ) :   0.9404 B( 22-C , 24-H ) :   0.9507 B( 22-C , 25-C ) :   1.0261
B( 25-C , 26-H ) :   0.9679 B( 25-C , 27-H ) :   0.9588 B( 25-C , 28-C ) :   1.0772
B( 28-C , 29-H ) :   0.9750 B( 28-C , 30-H ) :   0.9767 B( 28-C , 31-H ) :   0.9728

Dispersion correction           -0.014591053
FINAL SINGLE POINT ENERGY     -1339.869016367071

DIPOLE MOMENT
-------------
                                X             Y             Z
Electronic contribution:     15.07415      15.40269     -18.30372
Nuclear contribution   :    -15.66957     -15.82493      18.77585
                        -----------------------------------------
Total Dipole Moment    :     -0.59542      -0.42224       0.47212
                        -----------------------------------------
Magnitude (a.u.)       :      0.86932
Magnitude (Debye)      :      2.20962

Rotational constants in cm-1:     0.017997     0.008861     0.006833
Rotational constants in MHz :   539.534720   265.644649   204.843374

                             ****ORCA TERMINATED NORMALLY****
TOTAL RUN TIME: 0 days 0 hours 0 minutes 29 seconds 884 msec
