                         Program Version 4.2.1 -  RELEASE  -
|  1> ! wB97X-D3 SP def2-SVP
|  2> %pal
|  3> nprocs 16
|  4> end
|  5>
|  6> * xyz 0 1
|  7> S 	 -12.4098 	 48.5193 	 32.3145
|  8> C 	 -12.04 	 47.2778 	 33.4879
|  9> C 	 -10.7508 	 47.4169 	 33.9154
| 10> C 	 -10.0565 	 48.5338 	 33.3928
| 11> C 	 -10.8473 	 49.2592 	 32.5759
| 12> H 	 -9.08405 	 48.8923 	 33.5919
| 13> C 	 -10.0716 	 46.4947 	 35.0249
| 14> H 	 -9.03051 	 46.8665 	 35.0151
| 15> H 	 -10.2444 	 45.4705 	 34.7307
| 16> C 	 -10.7555 	 46.6448 	 36.4023
| 17> H 	 -10.5899 	 47.7185 	 36.6998
| 18> H 	 -11.7785 	 46.3684 	 36.363
| 19> C 	 -10.0126 	 45.8055 	 37.4833
| 20> H 	 -9.77794 	 44.8393 	 36.9639
| 21> H 	 -9.08194 	 46.2547 	 37.7206
| 22> H 	 -10.5631 	 45.5434 	 38.4064
| 23> S 	 -10.5046 	 50.5392 	 30.1924
| 24> C 	 -9.80495 	 52.1947 	 30.2006
| 25> C 	 -9.82088 	 52.7684 	 31.4283
| 26> C 	 -10.103 	 51.7948 	 32.4267
| 27> C 	 -10.5549 	 50.5483 	 31.9569
| 28> H 	 -9.5629 	 53.7906 	 31.5938
| 29> C 	 -9.93205 	 52.2548 	 33.8933
| 30> H 	 -9.22627 	 53.1576 	 33.8995
| 31> H 	 -9.19481 	 51.4777 	 34.2822
| 32> C 	 -11.2071 	 52.2038 	 34.8473
| 33> H 	 -10.9372 	 52.6861 	 35.7483
| 34> H 	 -11.4692 	 51.1772 	 35.0914
| 35> C 	 -12.4866 	 52.8203 	 34.1732
| 36> H 	 -13.3749 	 52.7092 	 34.801
| 37> H 	 -12.6565 	 52.4356 	 33.171
| 38> H 	 -12.4428 	 53.8779 	 34.0132
| 39> H 	 -12.6196 	 46.3606 	 33.8599
| 40> H 	 -9.55318 	 52.7262 	 29.3984
| 41> *
| 42>
| 43>                          ****END OF INPUT****

CARTESIAN COORDINATES (ANGSTROEM)
---------------------------------
  S    -12.409800   48.519300   32.314500
  C    -12.040000   47.277800   33.487900
  C    -10.750800   47.416900   33.915400
  C    -10.056500   48.533800   33.392800
  C    -10.847300   49.259200   32.575900
  H     -9.084050   48.892300   33.591900
  C    -10.071600   46.494700   35.024900
  H     -9.030510   46.866500   35.015100
  H    -10.244400   45.470500   34.730700
  C    -10.755500   46.644800   36.402300
  H    -10.589900   47.718500   36.699800
  H    -11.778500   46.368400   36.363000
  C    -10.012600   45.805500   37.483300
  H     -9.777940   44.839300   36.963900
  H     -9.081940   46.254700   37.720600
  H    -10.563100   45.543400   38.406400
  S    -10.504600   50.539200   30.192400
  C     -9.804950   52.194700   30.200600
  C     -9.820880   52.768400   31.428300
  C    -10.103000   51.794800   32.426700
  C    -10.554900   50.548300   31.956900
  H     -9.562900   53.790600   31.593800
  C     -9.932050   52.254800   33.893300
  H     -9.226270   53.157600   33.899500
  H     -9.194810   51.477700   34.282200
  C    -11.207100   52.203800   34.847300
  H    -10.937200   52.686100   35.748300
  H    -11.469200   51.177200   35.091400
  C    -12.486600   52.820300   34.173200
  H    -13.374900   52.709200   34.801000
  H    -12.656500   52.435600   33.171000
  H    -12.442800   53.877900   34.013200
  H    -12.619600   46.360600   33.859900
  H     -9.553180   52.726200   29.398400

 Total Charge           Charge          ....    0
 Multiplicity           Mult            ....    1
 Number of Electrons    NEL             ....  134
 Basis Dimension        Dim             ....  322

ORBITAL ENERGIES
----------------

  NO   OCC          E(Eh)            E(eV)
   0   2.0000     -88.967475     -2420.9281
   1   2.0000     -88.965185     -2420.8658
   2   2.0000     -10.328540      -281.0539
   3   2.0000     -10.326693      -281.0036
   4   2.0000     -10.316407      -280.7237
   5   2.0000     -10.310389      -280.5599
   6   2.0000     -10.307899      -280.4922
   7   2.0000     -10.304883      -280.4101
   8   2.0000     -10.298840      -280.2457
   9   2.0000     -10.298319      -280.2315
  10   2.0000     -10.290486      -280.0184
  11   2.0000     -10.290213      -280.0109
  12   2.0000     -10.289796      -279.9996
  13   2.0000     -10.287991      -279.9505
  14   2.0000     -10.280217      -279.7389
  15   2.0000     -10.269943      -279.4593
  16   2.0000      -8.082209      -219.9281
  17   2.0000      -8.079108      -219.8437
  18   2.0000      -6.040793      -164.3783
  19   2.0000      -6.037743      -164.2953
  20   2.0000      -6.036740      -164.2681
  21   2.0000      -6.033791      -164.1878
  22   2.0000      -6.032850      -164.1622
  23   2.0000      -6.029724      -164.0771
  24   2.0000      -1.008945       -27.4548
  25   2.0000      -0.983755       -26.7693
  26   2.0000      -0.907006       -24.6809
  27   2.0000      -0.892104       -24.2754
  28   2.0000      -0.872977       -23.7549
  29   2.0000      -0.850388       -23.1402
  30   2.0000      -0.840191       -22.8628
  31   2.0000      -0.817359       -22.2415
  32   2.0000      -0.777485       -21.1564
  33   2.0000      -0.767520       -20.8853
  34   2.0000      -0.712321       -19.3833
  35   2.0000      -0.697765       -18.9871
  36   2.0000      -0.691976       -18.8296
  37   2.0000      -0.668248       -18.1840
  38   2.0000      -0.641375       -17.4527
  39   2.0000      -0.618459       -16.8291
  40   2.0000      -0.584640       -15.9089
  41   2.0000      -0.575126       -15.6500
  42   2.0000      -0.564962       -15.3734
  43   2.0000      -0.546590       -14.8735
  44   2.0000      -0.536483       -14.5985
  45   2.0000      -0.519193       -14.1280
  46   2.0000      -0.516348       -14.0505
  47   2.0000      -0.508952       -13.8493
  48   2.0000      -0.502975       -13.6866
  49   2.0000      -0.491751       -13.3812
  50   2.0000      -0.484918       -13.1953
  51   2.0000      -0.479772       -13.0553
  52   2.0000      -0.472935       -12.8692
  53   2.0000      -0.469177       -12.7670
  54   2.0000      -0.459460       -12.5025
  55   2.0000      -0.449694       -12.2368
  56   2.0000      -0.443223       -12.0607
  57   2.0000      -0.438656       -11.9364
  58   2.0000      -0.431589       -11.7441
  59   2.0000      -0.420732       -11.4487
  60   2.0000      -0.416685       -11.3386
  61   2.0000      -0.411871       -11.2076
  62   2.0000      -0.408250       -11.1090
  63   2.0000      -0.348162        -9.4740
  64   2.0000      -0.335131        -9.1194
  65   2.0000      -0.326085        -8.8732
  66   2.0000      -0.295728        -8.0472
  67   0.0000       0.033872         0.9217
  68   0.0000       0.061279         1.6675
  69   0.0000       0.105233         2.8635
  70   0.0000       0.121817         3.3148
  71   0.0000       0.129507         3.5241

MULLIKEN ATOMIC CHARGES
-----------------------
   0 S :    0.118457
   1 C :   -0.138331
   2 C :   -0.101115
   3 C :    0.054859
   4 C :   -0.156894
   5 H :   -0.003643
   6 C :    0.057552
   7 H :    0.032399
   8 H :    0.030015
   9 C :   -0.082361
  10 H :    0.038221
  11 H :    0.027315
  12 C :   -0.043191
  13 H :    0.019560
  14 H :    0.024663
  15 H :    0.044910
  16 S :    0.092962
  17 C :   -0.026819
  18 C :   -0.022733
  19 C :   -0.064275
  20 C :   -0.147558
  21 H :    0.017103
  22 C :    0.006065
  23 H :    0.034383
  24 H :    0.031814
  25 C :   -0.010732
  26 H :    0.024728
  27 H :    0.041009
  28 C :   -0.062993
  29 H :    0.033229
  30 H :    0.045924
  31 H :    0.014967
  32 H :    0.070170
  33 H :    0.000338
Sum of atomic charges:    0.0000000

LOEWDIN ATOMIC CHARGES
----------------------
   0 S :    0.407667
   1 C :   -0.219376
   2 C :   -0.065047
   3 C :   -0.063149
   4 C :   -0.189420
   5 H :    0.028526
   6 C :   -0.023278
   7 H :    0.032423
   8 H :    0.025816
   9 C :   -0.038739
  10 H :    0.029240
  11 H :    0.016820
  12 C :   -0.068921
  13 H :    0.025587
  14 H :    0.018501
  15 H :    0.029311
  16 S :    0.382511
  17 C :   -0.140397
  18 C :   -0.064764
  19 C :   -0.053984
  20 C :   -0.203284
  21 H :    0.032253
  22 C :   -0.047207
  23 H :    0.036195
  24 H :    0.037727
  25 C :   -0.027140
  26 H :    0.019809
  27 H :    0.029376
  28 C :   -0.069979
  29 H :    0.026893
  30 H :    0.027855
  31 H :    0.018130
  32 H :    0.049781
  33 H :    0.000261

  Mayer bond orders larger than 0.100000
B(  0-S ,  1-C ) :   1.1192 B(  0-S ,  4-C ) :   1.1554 B(  1-C ,  2-C ) :   1.6514
B(  1-C , 32-H ) :   0.9551 B(  2-C ,  3-C ) :   1.2167 B(  2-C ,  6-C ) :   1.0043
B(  3-C ,  4-C ) :   1.6123 B(  3-C ,  5-H ) :   1.0054 B(  4-C , 20-C ) :   1.0002
B(  6-C ,  7-H ) :   0.9489 B(  6-C ,  8-H ) :   0.9361 B(  6-C ,  9-C ) :   1.0732
B(  9-C , 10-H ) :   0.9606 B(  9-C , 11-H ) :   0.9577 B(  9-C , 12-C ) :   1.0715
B( 12-C , 13-H ) :   0.9730 B( 12-C , 14-H ) :   0.9775 B( 12-C , 15-H ) :   0.9762
B( 16-S , 17-C ) :   1.1473 B( 16-S , 20-C ) :   1.1252 B( 17-C , 18-C ) :   1.6265
B( 17-C , 20-C ) :   0.1032 B( 17-C , 33-H ) :   0.9774 B( 18-C , 19-C ) :   1.2286
B( 18-C , 21-H ) :   0.9918 B( 19-C , 20-C ) :   1.6131 B( 19-C , 22-C ) :   1.0268
B( 22-C , 23-H ) :   0.9452 B( 22-C , 24-H ) :   0.9350 B( 22-C , 25-C ) :   1.0489
B( 25-C , 26-H ) :   0.9585 B( 25-C , 27-H ) :   0.9555 B( 25-C , 28-C ) :   1.0758
B( 28-C , 29-H ) :   0.9771 B( 28-C , 30-H ) :   0.9715 B( 28-C , 31-H ) :   0.9776

Dispersion correction           -0.014942443
FINAL SINGLE POINT ENERGY     -1339.853329608548

DIPOLE MOMENT
-------------
                                X             Y             Z
Electronic contribution:     -3.09460       1.54018     -26.90327
Nuclear contribution   :      3.44132      -1.38661      27.48219
                        -----------------------------------------
Total Dipole Moment    :      0.34672       0.15357       0.57892
                        -----------------------------------------
Magnitude (a.u.)       :      0.69206
Magnitude (Debye)      :      1.75907

Rotational constants in cm-1:     0.021266     0.008103     0.007008
Rotational constants in MHz :   637.546223   242.927729   210.084517

                             ****ORCA TERMINATED NORMALLY****
TOTAL RUN TIME: 0 days 0 hours 0 minutes 36 seconds 469 msec
