                         Program Version 4.2.1 -  RELEASE  -
|  1> ! wB97X-D3 SP def2-SVP
|  2> %pal
|  3> nprocs 16
|  4> end
|  5>
|  6> * xyz 0 1
|  7> S 	 -38.5274 	 54.6523 	 108.327
|  8> C 	 -37.7271 	 56.1772 	 108.279
|  9> C 	 -38.2726 	 57.0658 	 109.252
| 10> C 	 -39.475 	 56.522 	 109.835
| 11> C 	 -39.6898 	 55.1881 	 109.59
| 12> H 	 -40.0735 	 57.0591 	 110.526
| 13> C 	 -37.9174 	 58.5199 	 109.182
| 14> H 	 -38.4935 	 58.9764 	 109.976
| 15> H 	 -38.2458 	 59.0787 	 108.212
| 16> C 	 -36.4594 	 58.7829 	 109.364
| 17> H 	 -35.8184 	 58.2461 	 108.694
| 18> H 	 -36.1904 	 59.7814 	 109.281
| 19> C 	 -35.9853 	 58.4863 	 110.821
| 20> H 	 -36.4018 	 57.4974 	 111.019
| 21> H 	 -34.8486 	 58.3155 	 110.882
| 22> H 	 -36.2857 	 59.0797 	 111.66
| 23> S 	 -39.983 	 52.6245 	 110.529
| 24> C 	 -41.5885 	 52.1256 	 111.061
| 25> C 	 -42.5015 	 53.1655 	 111.016
| 26> C 	 -41.9092 	 54.4058 	 110.63
| 27> C 	 -40.5746 	 54.2298 	 110.212
| 28> H 	 -43.5511 	 53.0523 	 111.331
| 29> C 	 -42.6852 	 55.6631 	 110.503
| 30> H 	 -41.9699 	 56.4361 	 110.875
| 31> H 	 -43.5659 	 55.6538 	 111.172
| 32> C 	 -43.1428 	 55.9666 	 109.131
| 33> H 	 -42.3136 	 55.9231 	 108.408
| 34> H 	 -43.5478 	 57.0182 	 109.099
| 35> C 	 -44.257 	 55.0448 	 108.69
| 36> H 	 -43.8735 	 53.9987 	 108.725
| 37> H 	 -44.5431 	 55.0769 	 107.671
| 38> H 	 -45.1724 	 55.067 	 109.303
| 39> H 	 -36.7982 	 56.4428 	 107.778
| 40> H 	 -41.7768 	 51.163 	 111.621
| 41> *
| 42>
| 43>                          ****END OF INPUT****

CARTESIAN COORDINATES (ANGSTROEM)
---------------------------------
  S    -38.527400   54.652300  108.327000
  C    -37.727100   56.177200  108.279000
  C    -38.272600   57.065800  109.252000
  C    -39.475000   56.522000  109.835000
  C    -39.689800   55.188100  109.590000
  H    -40.073500   57.059100  110.526000
  C    -37.917400   58.519900  109.182000
  H    -38.493500   58.976400  109.976000
  H    -38.245800   59.078700  108.212000
  C    -36.459400   58.782900  109.364000
  H    -35.818400   58.246100  108.694000
  H    -36.190400   59.781400  109.281000
  C    -35.985300   58.486300  110.821000
  H    -36.401800   57.497400  111.019000
  H    -34.848600   58.315500  110.882000
  H    -36.285700   59.079700  111.660000
  S    -39.983000   52.624500  110.529000
  C    -41.588500   52.125600  111.061000
  C    -42.501500   53.165500  111.016000
  C    -41.909200   54.405800  110.630000
  C    -40.574600   54.229800  110.212000
  H    -43.551100   53.052300  111.331000
  C    -42.685200   55.663100  110.503000
  H    -41.969900   56.436100  110.875000
  H    -43.565900   55.653800  111.172000
  C    -43.142800   55.966600  109.131000
  H    -42.313600   55.923100  108.408000
  H    -43.547800   57.018200  109.099000
  C    -44.257000   55.044800  108.690000
  H    -43.873500   53.998700  108.725000
  H    -44.543100   55.076900  107.671000
  H    -45.172400   55.067000  109.303000
  H    -36.798200   56.442800  107.778000
  H    -41.776800   51.163000  111.621000

 Total Charge           Charge          ....    0
 Multiplicity           Mult            ....    1
 Number of Electrons    NEL             ....  134
 Basis Dimension        Dim             ....  322

ORBITAL ENERGIES
----------------

  NO   OCC          E(Eh)            E(eV)
   0   2.0000     -88.971705     -2421.0432
   1   2.0000     -88.969527     -2420.9839
   2   2.0000     -10.334459      -281.2149
   3   2.0000     -10.329796      -281.0880
   4   2.0000     -10.323534      -280.9176
   5   2.0000     -10.317850      -280.7630
   6   2.0000     -10.303369      -280.3689
   7   2.0000     -10.303279      -280.3665
   8   2.0000     -10.298992      -280.2498
   9   2.0000     -10.296156      -280.1726
  10   2.0000     -10.295643      -280.1587
  11   2.0000     -10.291401      -280.0433
  12   2.0000     -10.285290      -279.8770
  13   2.0000     -10.279162      -279.7102
  14   2.0000     -10.275396      -279.6077
  15   2.0000     -10.271894      -279.5124
  16   2.0000      -8.086051      -220.0326
  17   2.0000      -8.083739      -219.9697
  18   2.0000      -6.044513      -164.4795
  19   2.0000      -6.042222      -164.4172
  20   2.0000      -6.040617      -164.3735
  21   2.0000      -6.038206      -164.3079
  22   2.0000      -6.036879      -164.2718
  23   2.0000      -6.034651      -164.2112
  24   2.0000      -1.007751       -27.4223
  25   2.0000      -0.983248       -26.7555
  26   2.0000      -0.921594       -25.0779
  27   2.0000      -0.917173       -24.9575
  28   2.0000      -0.869548       -23.6616
  29   2.0000      -0.853160       -23.2157
  30   2.0000      -0.844330       -22.9754
  31   2.0000      -0.814137       -22.1538
  32   2.0000      -0.783807       -21.3285
  33   2.0000      -0.766645       -20.8615
  34   2.0000      -0.710647       -19.3377
  35   2.0000      -0.707680       -19.2570
  36   2.0000      -0.686083       -18.6693
  37   2.0000      -0.666295       -18.1308
  38   2.0000      -0.637940       -17.3592
  39   2.0000      -0.617131       -16.7930
  40   2.0000      -0.595892       -16.2151
  41   2.0000      -0.578910       -15.7529
  42   2.0000      -0.561257       -15.2726
  43   2.0000      -0.549680       -14.9575
  44   2.0000      -0.545795       -14.8518
  45   2.0000      -0.535966       -14.5844
  46   2.0000      -0.516819       -14.0634
  47   2.0000      -0.513696       -13.9784
  48   2.0000      -0.503263       -13.6945
  49   2.0000      -0.491293       -13.3688
  50   2.0000      -0.488214       -13.2850
  51   2.0000      -0.479854       -13.0575
  52   2.0000      -0.474340       -12.9074
  53   2.0000      -0.464845       -12.6491
  54   2.0000      -0.460525       -12.5315
  55   2.0000      -0.448943       -12.2164
  56   2.0000      -0.441877       -12.0241
  57   2.0000      -0.438368       -11.9286
  58   2.0000      -0.432845       -11.7783
  59   2.0000      -0.427557       -11.6344
  60   2.0000      -0.413595       -11.2545
  61   2.0000      -0.410806       -11.1786
  62   2.0000      -0.408044       -11.1035
  63   2.0000      -0.357371        -9.7246
  64   2.0000      -0.335899        -9.1403
  65   2.0000      -0.328777        -8.9465
  66   2.0000      -0.281907        -7.6711
  67   0.0000       0.019118         0.5202
  68   0.0000       0.063524         1.7286
  69   0.0000       0.103043         2.8039
  70   0.0000       0.108738         2.9589
  71   0.0000       0.132743         3.6121

MULLIKEN ATOMIC CHARGES
-----------------------
   0 S :    0.112171
   1 C :   -0.107986
   2 C :   -0.119193
   3 C :    0.036218
   4 C :   -0.139287
   5 H :    0.000180
   6 C :    0.029872
   7 H :    0.013328
   8 H :    0.062745
   9 C :   -0.011147
  10 H :    0.017284
  11 H :    0.012248
  12 C :   -0.104514
  13 H :    0.024717
  14 H :    0.038715
  15 H :    0.035158
  16 S :    0.122700
  17 C :   -0.120383
  18 C :   -0.030454
  19 C :   -0.069128
  20 C :   -0.143836
  21 H :    0.029918
  22 C :    0.066401
  23 H :    0.028724
  24 H :    0.021394
  25 C :   -0.042055
  26 H :    0.040893
  27 H :    0.032668
  28 C :   -0.062366
  29 H :    0.030713
  30 H :    0.023226
  31 H :    0.028047
  32 H :    0.061365
  33 H :    0.081664
Sum of atomic charges:    0.0000000

LOEWDIN ATOMIC CHARGES
----------------------
   0 S :    0.403868
   1 C :   -0.201723
   2 C :   -0.070054
   3 C :   -0.062333
   4 C :   -0.176200
   5 H :    0.022323
   6 C :   -0.038659
   7 H :    0.026346
   8 H :    0.046523
   9 C :   -0.036770
  10 H :    0.020570
  11 H :    0.016724
  12 C :   -0.074648
  13 H :    0.022300
  14 H :    0.033332
  15 H :    0.019862
  16 S :    0.413854
  17 C :   -0.197694
  18 C :   -0.070749
  19 C :   -0.054960
  20 C :   -0.204588
  21 H :    0.037094
  22 C :   -0.039039
  23 H :    0.035501
  24 H :    0.033560
  25 C :   -0.041323
  26 H :    0.030109
  27 H :    0.028688
  28 C :   -0.072797
  29 H :    0.031127
  30 H :    0.021454
  31 H :    0.024017
  32 H :    0.031379
  33 H :    0.042905

  Mayer bond orders larger than 0.100000
B(  0-S ,  1-C ) :   1.1622 B(  0-S ,  4-C ) :   1.1292 B(  1-C ,  2-C ) :   1.5630
B(  1-C ,  4-C ) :   0.1019 B(  1-C , 32-H ) :   0.9639 B(  2-C ,  3-C ) :   1.2623
B(  2-C ,  6-C ) :   1.0274 B(  3-C ,  4-C ) :   1.5634 B(  3-C ,  5-H ) :   0.9865
B(  4-C , 20-C ) :   1.0826 B(  6-C ,  7-H ) :   0.9403 B(  6-C ,  8-H ) :   0.9416
B(  6-C ,  9-C ) :   1.0744 B(  9-C , 10-H ) :   0.9564 B(  9-C , 11-H ) :   0.9516
B(  9-C , 12-C ) :   1.0598 B( 12-C , 13-H ) :   0.9767 B( 12-C , 14-H ) :   0.9748
B( 12-C , 15-H ) :   0.9780 B( 16-S , 17-C ) :   1.1500 B( 16-S , 20-C ) :   1.1537
B( 17-C , 18-C ) :   1.5889 B( 17-C , 20-C ) :   0.1021 B( 17-C , 33-H ) :   0.9585
B( 18-C , 19-C ) :   1.2739 B( 18-C , 21-H ) :   0.9820 B( 19-C , 20-C ) :   1.5390
B( 19-C , 22-C ) :   1.0542 B( 22-C , 23-H ) :   0.9212 B( 22-C , 24-H ) :   0.9265
B( 22-C , 25-C ) :   1.0822 B( 25-C , 26-H ) :   0.9507 B( 25-C , 27-H ) :   0.9502
B( 25-C , 28-C ) :   1.0777 B( 28-C , 29-H ) :   0.9690 B( 28-C , 30-H ) :   0.9701
B( 28-C , 31-H ) :   0.9736

Dispersion correction           -0.014881625
FINAL SINGLE POINT ENERGY     -1339.868730378681

DIPOLE MOMENT
-------------
                                X             Y             Z
Electronic contribution:      4.21342     -20.62233      -1.02077
Nuclear contribution   :     -4.50895      21.04554       1.18375
                        -----------------------------------------
Total Dipole Moment    :     -0.29553       0.42321       0.16298
                        -----------------------------------------
Magnitude (a.u.)       :      0.54130
Magnitude (Debye)      :      1.37588

Rotational constants in cm-1:     0.022554     0.008076     0.006977
Rotational constants in MHz :   676.156941   242.100525   209.163791

                             ****ORCA TERMINATED NORMALLY****
TOTAL RUN TIME: 0 days 0 hours 0 minutes 31 seconds 318 msec
