                         Program Version 4.2.1 -  RELEASE  -
|  1> ! wB97X-D3 SP def2-SVP
|  2> %pal
|  3> nprocs 16
|  4> end
|  5>
|  6> * xyz 0 1
|  7> S 	 1.41149 	 -12.7063 	 77.3152
|  8> C 	 2.8266 	 -11.6693 	 77.1463
|  9> C 	 2.75498 	 -10.6641 	 78.1319
| 10> C 	 1.53633 	 -10.7259 	 78.9168
| 11> C 	 0.825944 	 -11.8487 	 78.739
| 12> H 	 1.30405 	 -9.94117 	 79.7128
| 13> C 	 3.76254 	 -9.5893 	 78.3145
| 14> H 	 3.26209 	 -8.9334 	 79.0348
| 15> H 	 3.8616 	 -9.01853 	 77.3746
| 16> C 	 5.12681 	 -10.066 	 78.7851
| 17> H 	 4.98605 	 -10.553 	 79.8161
| 18> H 	 5.49604 	 -10.8976 	 78.0601
| 19> C 	 6.20397 	 -8.94959 	 78.833
| 20> H 	 5.71256 	 -8.07369 	 79.2851
| 21> H 	 7.02685 	 -9.24582 	 79.5055
| 22> H 	 6.6576 	 -8.5472 	 77.8423
| 23> S 	 -1.92896 	 -11.852 	 78.684
| 24> C 	 -2.72577 	 -12.3997 	 80.1619
| 25> C 	 -1.86977 	 -12.4919 	 81.2035
| 26> C 	 -0.504891 	 -12.3182 	 80.8913
| 27> C 	 -0.361677 	 -12.1605 	 79.494
| 28> H 	 -2.22295 	 -12.7114 	 82.2034
| 29> C 	 0.655339 	 -12.5956 	 81.8282
| 30> H 	 1.59482 	 -12.4749 	 81.2481
| 31> H 	 0.549404 	 -13.5976 	 82.3145
| 32> C 	 0.580068 	 -11.553 	 83.0051
| 33> H 	 -0.296851 	 -11.6749 	 83.7022
| 34> H 	 0.460397 	 -10.5877 	 82.5848
| 35> C 	 1.87192 	 -11.6687 	 83.8968
| 36> H 	 1.78908 	 -11.0547 	 84.7835
| 37> H 	 2.78869 	 -11.3956 	 83.2861
| 38> H 	 1.97597 	 -12.7052 	 84.2153
| 39> H 	 3.59456 	 -11.788 	 76.4081
| 40> H 	 -3.81633 	 -12.5129 	 80.1896
| 41> *
| 42>
| 43>                          ****END OF INPUT****

CARTESIAN COORDINATES (ANGSTROEM)
---------------------------------
  S      1.411490  -12.706300   77.315200
  C      2.826600  -11.669300   77.146300
  C      2.754980  -10.664100   78.131900
  C      1.536330  -10.725900   78.916800
  C      0.825944  -11.848700   78.739000
  H      1.304050   -9.941170   79.712800
  C      3.762540   -9.589300   78.314500
  H      3.262090   -8.933400   79.034800
  H      3.861600   -9.018530   77.374600
  C      5.126810  -10.066000   78.785100
  H      4.986050  -10.553000   79.816100
  H      5.496040  -10.897600   78.060100
  C      6.203970   -8.949590   78.833000
  H      5.712560   -8.073690   79.285100
  H      7.026850   -9.245820   79.505500
  H      6.657600   -8.547200   77.842300
  S     -1.928960  -11.852000   78.684000
  C     -2.725770  -12.399700   80.161900
  C     -1.869770  -12.491900   81.203500
  C     -0.504891  -12.318200   80.891300
  C     -0.361677  -12.160500   79.494000
  H     -2.222950  -12.711400   82.203400
  C      0.655339  -12.595600   81.828200
  H      1.594820  -12.474900   81.248100
  H      0.549404  -13.597600   82.314500
  C      0.580068  -11.553000   83.005100
  H     -0.296851  -11.674900   83.702200
  H      0.460397  -10.587700   82.584800
  C      1.871920  -11.668700   83.896800
  H      1.789080  -11.054700   84.783500
  H      2.788690  -11.395600   83.286100
  H      1.975970  -12.705200   84.215300
  H      3.594560  -11.788000   76.408100
  H     -3.816330  -12.512900   80.189600

 Total Charge           Charge          ....    0
 Multiplicity           Mult            ....    1
 Number of Electrons    NEL             ....  134
 Basis Dimension        Dim             ....  322

ORBITAL ENERGIES
----------------

  NO   OCC          E(Eh)            E(eV)
   0   2.0000     -88.964527     -2420.8478
   1   2.0000     -88.963022     -2420.8069
   2   2.0000     -10.326764      -281.0055
   3   2.0000     -10.323346      -280.9125
   4   2.0000     -10.317411      -280.7510
   5   2.0000     -10.316965      -280.7389
   6   2.0000     -10.305067      -280.4151
   7   2.0000     -10.302927      -280.3569
   8   2.0000     -10.301270      -280.3118
   9   2.0000     -10.300579      -280.2930
  10   2.0000     -10.296977      -280.1950
  11   2.0000     -10.292325      -280.0684
  12   2.0000     -10.290421      -280.0166
  13   2.0000     -10.290285      -280.0129
  14   2.0000     -10.290141      -280.0090
  15   2.0000     -10.284197      -279.8472
  16   2.0000      -8.078812      -219.8356
  17   2.0000      -8.077312      -219.7948
  18   2.0000      -6.037415      -164.2864
  19   2.0000      -6.035784      -164.2420
  20   2.0000      -6.033321      -164.1750
  21   2.0000      -6.032119      -164.1423
  22   2.0000      -6.029543      -164.0722
  23   2.0000      -6.027911      -164.0278
  24   2.0000      -1.004845       -27.3432
  25   2.0000      -0.981547       -26.7093
  26   2.0000      -0.912246       -24.8235
  27   2.0000      -0.903757       -24.5925
  28   2.0000      -0.869668       -23.6649
  29   2.0000      -0.847284       -23.0558
  30   2.0000      -0.843565       -22.9546
  31   2.0000      -0.812696       -22.1146
  32   2.0000      -0.777486       -21.1565
  33   2.0000      -0.764768       -20.8104
  34   2.0000      -0.704249       -19.1636
  35   2.0000      -0.698778       -19.0147
  36   2.0000      -0.692410       -18.8414
  37   2.0000      -0.655443       -17.8355
  38   2.0000      -0.639790       -17.4096
  39   2.0000      -0.614939       -16.7333
  40   2.0000      -0.597090       -16.2476
  41   2.0000      -0.567010       -15.4291
  42   2.0000      -0.562544       -15.3076
  43   2.0000      -0.554417       -15.0865
  44   2.0000      -0.525686       -14.3046
  45   2.0000      -0.521442       -14.1891
  46   2.0000      -0.519654       -14.1405
  47   2.0000      -0.512605       -13.9487
  48   2.0000      -0.500146       -13.6097
  49   2.0000      -0.497431       -13.5358
  50   2.0000      -0.494021       -13.4430
  51   2.0000      -0.473727       -12.8908
  52   2.0000      -0.467764       -12.7285
  53   2.0000      -0.462364       -12.5816
  54   2.0000      -0.456889       -12.4326
  55   2.0000      -0.448653       -12.2085
  56   2.0000      -0.441913       -12.0251
  57   2.0000      -0.438415       -11.9299
  58   2.0000      -0.434913       -11.8346
  59   2.0000      -0.428375       -11.6567
  60   2.0000      -0.423418       -11.5218
  61   2.0000      -0.415620       -11.3096
  62   2.0000      -0.409224       -11.1356
  63   2.0000      -0.340641        -9.2693
  64   2.0000      -0.329243        -8.9592
  65   2.0000      -0.321733        -8.7548
  66   2.0000      -0.300033        -8.1643
  67   0.0000       0.031308         0.8519
  68   0.0000       0.060167         1.6372
  69   0.0000       0.108942         2.9645
  70   0.0000       0.117562         3.1990
  71   0.0000       0.121477         3.3056

MULLIKEN ATOMIC CHARGES
-----------------------
   0 S :    0.106930
   1 C :   -0.113087
   2 C :   -0.121639
   3 C :    0.017114
   4 C :   -0.169243
   5 H :    0.044357
   6 C :    0.073796
   7 H :    0.012894
   8 H :    0.039414
   9 C :   -0.120223
  10 H :    0.044903
  11 H :    0.043867
  12 C :   -0.068335
  13 H :    0.027389
  14 H :    0.044150
  15 H :    0.051831
  16 S :    0.094744
  17 C :   -0.089079
  18 C :   -0.018271
  19 C :   -0.011978
  20 C :   -0.166794
  21 H :    0.012527
  22 C :    0.059819
  23 H :    0.047348
  24 H :    0.047865
  25 C :   -0.128624
  26 H :    0.040080
  27 H :    0.023787
  28 C :   -0.042916
  29 H :    0.037079
  30 H :    0.041079
  31 H :    0.028135
  32 H :    0.049132
  33 H :    0.061951
Sum of atomic charges:    0.0000000

LOEWDIN ATOMIC CHARGES
----------------------
   0 S :    0.396722
   1 C :   -0.189674
   2 C :   -0.064657
   3 C :   -0.068032
   4 C :   -0.206211
   5 H :    0.044084
   6 C :   -0.045392
   7 H :    0.027965
   8 H :    0.035442
   9 C :   -0.049949
  10 H :    0.034602
  11 H :    0.030578
  12 C :   -0.081690
  13 H :    0.024343
  14 H :    0.029759
  15 H :    0.036361
  16 S :    0.377489
  17 C :   -0.172044
  18 C :   -0.072353
  19 C :   -0.050742
  20 C :   -0.183497
  21 H :    0.030858
  22 C :   -0.026905
  23 H :    0.037325
  24 H :    0.038329
  25 C :   -0.041122
  26 H :    0.027624
  27 H :    0.013959
  28 C :   -0.067831
  29 H :    0.022848
  30 H :    0.030808
  31 H :    0.023428
  32 H :    0.026370
  33 H :    0.031203

  Mayer bond orders larger than 0.100000
B(  0-S ,  1-C ) :   1.1367 B(  0-S ,  4-C ) :   1.1363 B(  1-C ,  2-C ) :   1.5905
B(  1-C , 32-H ) :   0.9773 B(  2-C ,  3-C ) :   1.2462 B(  2-C ,  6-C ) :   1.0288
B(  3-C ,  4-C ) :   1.5897 B(  3-C ,  5-H ) :   0.9768 B(  4-C , 20-C ) :   1.0310
B(  6-C ,  7-H ) :   0.9333 B(  6-C ,  8-H ) :   0.9351 B(  6-C ,  9-C ) :   1.0614
B(  9-C , 10-H ) :   0.9522 B(  9-C , 11-H ) :   0.9578 B(  9-C , 12-C ) :   1.0680
B( 12-C , 13-H ) :   0.9728 B( 12-C , 14-H ) :   0.9756 B( 12-C , 15-H ) :   0.9738
B( 16-S , 17-C ) :   1.1369 B( 16-S , 20-C ) :   1.1473 B( 17-C , 18-C ) :   1.6279
B( 17-C , 20-C ) :   0.1002 B( 17-C , 33-H ) :   0.9669 B( 18-C , 19-C ) :   1.2230
B( 18-C , 21-H ) :   0.9905 B( 19-C , 20-C ) :   1.5842 B( 19-C , 22-C ) :   1.0523
B( 22-C , 23-H ) :   0.9372 B( 22-C , 24-H ) :   0.9392 B( 22-C , 25-C ) :   1.0363
B( 25-C , 26-H ) :   0.9576 B( 25-C , 27-H ) :   0.9621 B( 25-C , 28-C ) :   1.0790
B( 28-C , 29-H ) :   0.9762 B( 28-C , 30-H ) :   0.9764 B( 28-C , 31-H ) :   0.9727

Dispersion correction           -0.014063455
FINAL SINGLE POINT ENERGY     -1339.877323962663

DIPOLE MOMENT
-------------
                                X             Y             Z
Electronic contribution:    -23.05872     -11.03579     -18.76324
Nuclear contribution   :     23.36413      11.37076      19.33088
                        -----------------------------------------
Total Dipole Moment    :      0.30541       0.33498       0.56764
                        -----------------------------------------
Magnitude (a.u.)       :      0.72643
Magnitude (Debye)      :      1.84645

Rotational constants in cm-1:     0.017417     0.008805     0.006413
Rotational constants in MHz :   522.158810   263.981888   192.259991

                             ****ORCA TERMINATED NORMALLY****
TOTAL RUN TIME: 0 days 0 hours 0 minutes 32 seconds 803 msec
