                         Program Version 4.2.1 -  RELEASE  -
|  1> ! wB97X-D3 SP def2-SVP
|  2> %pal
|  3> nprocs 16
|  4> end
|  5>
|  6> * xyz 0 1
|  7> S 	 41.6062 	 12.6746 	 86.4929
|  8> C 	 41.8949 	 10.9258 	 86.7812
|  9> C 	 43.1527 	 10.5197 	 86.3109
| 10> C 	 43.8887 	 11.6136 	 85.6698
| 11> C 	 43.2027 	 12.8301 	 85.748
| 12> H 	 44.7854 	 11.4887 	 85.0389
| 13> C 	 43.632 	 9.11529 	 86.2072
| 14> H 	 43.4217 	 8.71902 	 85.2432
| 15> H 	 42.9373 	 8.4733 	 86.8384
| 16> C 	 45.0751 	 8.91145 	 86.6754
| 17> H 	 45.2637 	 7.86273 	 86.514
| 18> H 	 45.7479 	 9.52183 	 86.0892
| 19> C 	 45.2473 	 9.20471 	 88.2044
| 20> H 	 44.4296 	 8.86601 	 88.8237
| 21> H 	 46.0658 	 8.66412 	 88.6803
| 22> H 	 45.2836 	 10.2761 	 88.4886
| 23> S 	 42.4453 	 15.2036 	 84.5023
| 24> C 	 43.7206 	 16.5411 	 84.3335
| 25> C 	 44.8488 	 16.1235 	 84.9614
| 26> C 	 44.8465 	 14.781 	 85.5537
| 27> C 	 43.6123 	 14.1808 	 85.3532
| 28> H 	 45.6709 	 16.8436 	 84.866
| 29> C 	 46.1104 	 14.2112 	 86.1715
| 30> H 	 46.5573 	 13.6396 	 85.4203
| 31> H 	 45.7171 	 13.5271 	 86.8671
| 32> C 	 47.1478 	 15.1896 	 86.9464
| 33> H 	 47.5547 	 15.9398 	 86.3542
| 34> H 	 48.0965 	 14.8138 	 87.1584
| 35> C 	 46.6053 	 15.863 	 88.2214
| 36> H 	 46.509 	 15.1076 	 89.0287
| 37> H 	 45.5943 	 16.4015 	 88.15
| 38> H 	 47.3546 	 16.6178 	 88.5454
| 39> H 	 41.2841 	 10.3648 	 87.4269
| 40> H 	 43.7856 	 17.3954 	 83.693
| 41> *
| 42>
| 43>                          ****END OF INPUT****

CARTESIAN COORDINATES (ANGSTROEM)
---------------------------------
  S     41.606200   12.674600   86.492900
  C     41.894900   10.925800   86.781200
  C     43.152700   10.519700   86.310900
  C     43.888700   11.613600   85.669800
  C     43.202700   12.830100   85.748000
  H     44.785400   11.488700   85.038900
  C     43.632000    9.115290   86.207200
  H     43.421700    8.719020   85.243200
  H     42.937300    8.473300   86.838400
  C     45.075100    8.911450   86.675400
  H     45.263700    7.862730   86.514000
  H     45.747900    9.521830   86.089200
  C     45.247300    9.204710   88.204400
  H     44.429600    8.866010   88.823700
  H     46.065800    8.664120   88.680300
  H     45.283600   10.276100   88.488600
  S     42.445300   15.203600   84.502300
  C     43.720600   16.541100   84.333500
  C     44.848800   16.123500   84.961400
  C     44.846500   14.781000   85.553700
  C     43.612300   14.180800   85.353200
  H     45.670900   16.843600   84.866000
  C     46.110400   14.211200   86.171500
  H     46.557300   13.639600   85.420300
  H     45.717100   13.527100   86.867100
  C     47.147800   15.189600   86.946400
  H     47.554700   15.939800   86.354200
  H     48.096500   14.813800   87.158400
  C     46.605300   15.863000   88.221400
  H     46.509000   15.107600   89.028700
  H     45.594300   16.401500   88.150000
  H     47.354600   16.617800   88.545400
  H     41.284100   10.364800   87.426900
  H     43.785600   17.395400   83.693000

 Total Charge           Charge          ....    0
 Multiplicity           Mult            ....    1
 Number of Electrons    NEL             ....  134
 Basis Dimension        Dim             ....  322

ORBITAL ENERGIES
----------------

  NO   OCC          E(Eh)            E(eV)
   0   2.0000     -88.965833     -2420.8834
   1   2.0000     -88.965084     -2420.8630
   2   2.0000     -10.336661      -281.2748
   3   2.0000     -10.331866      -281.1444
   4   2.0000     -10.319576      -280.8099
   5   2.0000     -10.316128      -280.7161
   6   2.0000     -10.309805      -280.5441
   7   2.0000     -10.306909      -280.4653
   8   2.0000     -10.303050      -280.3603
   9   2.0000     -10.295274      -280.1486
  10   2.0000     -10.293162      -280.0912
  11   2.0000     -10.293096      -280.0894
  12   2.0000     -10.291502      -280.0460
  13   2.0000     -10.286720      -279.9159
  14   2.0000     -10.286496      -279.9098
  15   2.0000     -10.278535      -279.6931
  16   2.0000      -8.079753      -219.8613
  17   2.0000      -8.077998      -219.8135
  18   2.0000      -6.038344      -164.3117
  19   2.0000      -6.036941      -164.2735
  20   2.0000      -6.034431      -164.2052
  21   2.0000      -6.032899      -164.1635
  22   2.0000      -6.030403      -164.0956
  23   2.0000      -6.028239      -164.0367
  24   2.0000      -0.996637       -27.1199
  25   2.0000      -0.971079       -26.4244
  26   2.0000      -0.913046       -24.8452
  27   2.0000      -0.899372       -24.4732
  28   2.0000      -0.867238       -23.5987
  29   2.0000      -0.848328       -23.0842
  30   2.0000      -0.837398       -22.7867
  31   2.0000      -0.817667       -22.2499
  32   2.0000      -0.782313       -21.2878
  33   2.0000      -0.771554       -20.9950
  34   2.0000      -0.716833       -19.5060
  35   2.0000      -0.709292       -19.3008
  36   2.0000      -0.697769       -18.9873
  37   2.0000      -0.650676       -17.7058
  38   2.0000      -0.640752       -17.4357
  39   2.0000      -0.621053       -16.8997
  40   2.0000      -0.586421       -15.9573
  41   2.0000      -0.566406       -15.4127
  42   2.0000      -0.556428       -15.1412
  43   2.0000      -0.549414       -14.9503
  44   2.0000      -0.538580       -14.6555
  45   2.0000      -0.528729       -14.3874
  46   2.0000      -0.521721       -14.1967
  47   2.0000      -0.513097       -13.9621
  48   2.0000      -0.498218       -13.5572
  49   2.0000      -0.495113       -13.4727
  50   2.0000      -0.489472       -13.3192
  51   2.0000      -0.470118       -12.7926
  52   2.0000      -0.464562       -12.6414
  53   2.0000      -0.462591       -12.5877
  54   2.0000      -0.454318       -12.3626
  55   2.0000      -0.450382       -12.2555
  56   2.0000      -0.447672       -12.1818
  57   2.0000      -0.434237       -11.8162
  58   2.0000      -0.432766       -11.7762
  59   2.0000      -0.425732       -11.5848
  60   2.0000      -0.423687       -11.5291
  61   2.0000      -0.417455       -11.3595
  62   2.0000      -0.409600       -11.1458
  63   2.0000      -0.352512        -9.5923
  64   2.0000      -0.329237        -8.9590
  65   2.0000      -0.327024        -8.8988
  66   2.0000      -0.289563        -7.8794
  67   0.0000       0.025217         0.6862
  68   0.0000       0.067935         1.8486
  69   0.0000       0.092586         2.5194
  70   0.0000       0.118847         3.2340
  71   0.0000       0.128297         3.4911

MULLIKEN ATOMIC CHARGES
-----------------------
   0 S :    0.092310
   1 C :   -0.099648
   2 C :   -0.088561
   3 C :   -0.002002
   4 C :   -0.145259
   5 H :    0.037825
   6 C :    0.033970
   7 H :    0.040318
   8 H :    0.017180
   9 C :   -0.037442
  10 H :    0.028548
  11 H :    0.032901
  12 C :   -0.070836
  13 H :    0.014519
  14 H :    0.032686
  15 H :    0.046152
  16 S :    0.084056
  17 C :   -0.081000
  18 C :   -0.051962
  19 C :   -0.055218
  20 C :   -0.144248
  21 H :    0.027063
  22 C :    0.127189
  23 H :    0.031087
  24 H :    0.021503
  25 C :   -0.006767
  26 H :   -0.002477
  27 H :    0.001515
  28 C :   -0.106681
  29 H :    0.038814
  30 H :    0.058633
  31 H :    0.037068
  32 H :    0.037610
  33 H :    0.051153
Sum of atomic charges:   -0.0000000

LOEWDIN ATOMIC CHARGES
----------------------
   0 S :    0.379070
   1 C :   -0.180600
   2 C :   -0.055144
   3 C :   -0.072496
   4 C :   -0.173715
   5 H :    0.037662
   6 C :   -0.036386
   7 H :    0.030972
   8 H :    0.034365
   9 C :   -0.032277
  10 H :    0.026320
  11 H :    0.021362
  12 C :   -0.074583
  13 H :    0.022947
  14 H :    0.026830
  15 H :    0.031523
  16 S :    0.346376
  17 C :   -0.159592
  18 C :   -0.066865
  19 C :   -0.051359
  20 C :   -0.193257
  21 H :    0.034278
  22 C :   -0.018860
  23 H :    0.027624
  24 H :    0.028695
  25 C :   -0.039435
  26 H :    0.015296
  27 H :    0.023821
  28 C :   -0.073208
  29 H :    0.025043
  30 H :    0.035966
  31 H :    0.029783
  32 H :    0.016933
  33 H :    0.032910

  Mayer bond orders larger than 0.100000
B(  0-S ,  1-C ) :   1.1147 B(  0-S ,  4-C ) :   1.1510 B(  1-C ,  2-C ) :   1.6344
B(  1-C , 32-H ) :   0.9705 B(  2-C ,  3-C ) :   1.1981 B(  2-C ,  6-C ) :   1.0335
B(  3-C ,  4-C ) :   1.5960 B(  3-C ,  5-H ) :   0.9841 B(  4-C , 20-C ) :   1.0374
B(  6-C ,  7-H ) :   0.9413 B(  6-C ,  8-H ) :   0.9390 B(  6-C ,  9-C ) :   1.0712
B(  9-C , 10-H ) :   0.9554 B(  9-C , 11-H ) :   0.9577 B(  9-C , 12-C ) :   1.0634
B( 12-C , 13-H ) :   0.9744 B( 12-C , 14-H ) :   0.9781 B( 12-C , 15-H ) :   0.9743
B( 16-S , 17-C ) :   1.0871 B( 16-S , 20-C ) :   1.1177 B( 17-C , 18-C ) :   1.7133
B( 17-C , 33-H ) :   0.9632 B( 18-C , 19-C ) :   1.1708 B( 18-C , 21-H ) :   0.9774
B( 19-C , 20-C ) :   1.6359 B( 19-C , 22-C ) :   1.0206 B( 22-C , 23-H ) :   0.9337
B( 22-C , 24-H ) :   0.9277 B( 22-C , 25-C ) :   1.0522 B( 25-C , 26-H ) :   0.9490
B( 25-C , 27-H ) :   0.9465 B( 25-C , 28-C ) :   1.0770 B( 28-C , 29-H ) :   0.9780
B( 28-C , 30-H ) :   0.9765 B( 28-C , 31-H ) :   0.9731

Dispersion correction           -0.014502339
FINAL SINGLE POINT ENERGY     -1339.852250567629

DIPOLE MOMENT
-------------
                                X             Y             Z
Electronic contribution:    -23.08524      10.42141     -12.87762
Nuclear contribution   :     23.92519     -10.74475      12.91452
                        -----------------------------------------
Total Dipole Moment    :      0.83996      -0.32334       0.03690
                        -----------------------------------------
Magnitude (a.u.)       :      0.90080
Magnitude (Debye)      :      2.28965

Rotational constants in cm-1:     0.017675     0.009268     0.006849
Rotational constants in MHz :   529.880324   277.860154   205.319696

                             ****ORCA TERMINATED NORMALLY****
TOTAL RUN TIME: 0 days 0 hours 0 minutes 30 seconds 231 msec
