                         Program Version 4.2.1 -  RELEASE  -
|  1> ! wB97X-D3 SP def2-SVP
|  2> %pal
|  3> nprocs 16
|  4> end
|  5>
|  6> * xyz 0 1
|  7> S 	 -97.0454 	 51.6366 	 124.76
|  8> C 	 -96.1838 	 51.2147 	 123.341
|  9> C 	 -97.0496 	 50.7275 	 122.39
| 10> C 	 -98.3841 	 50.6625 	 122.856
| 11> C 	 -98.5781 	 51.2889 	 124.056
| 12> H 	 -99.1683 	 50.2373 	 122.253
| 13> C 	 -96.6975 	 50.4113 	 120.969
| 14> H 	 -97.2935 	 49.5616 	 120.833
| 15> H 	 -95.6981 	 50.0016 	 121.161
| 16> C 	 -96.6977 	 51.5494 	 119.948
| 17> H 	 -97.6888 	 51.9449 	 119.804
| 18> H 	 -96.018 	 52.3254 	 120.257
| 19> C 	 -96.379 	 50.9769 	 118.631
| 20> H 	 -97.1591 	 50.6115 	 117.949
| 21> H 	 -95.824 	 51.7541 	 118.155
| 22> H 	 -95.6907 	 50.0756 	 118.878
| 23> S 	 -100.196 	 53.1395 	 125.261
| 24> C 	 -101.811 	 52.7319 	 125.593
| 25> C 	 -102.115 	 51.4091 	 125.359
| 26> C 	 -100.984 	 50.7449 	 124.773
| 27> C 	 -99.8526 	 51.5403 	 124.676
| 28> H 	 -103.092 	 51.0531 	 125.765
| 29> C 	 -101.089 	 49.2702 	 124.485
| 30> H 	 -100.695 	 49.0992 	 123.404
| 31> H 	 -102.176 	 49.0542 	 124.322
| 32> C 	 -100.653 	 48.2102 	 125.501
| 33> H 	 -101.122 	 47.2363 	 125.285
| 34> H 	 -101.192 	 48.5092 	 126.44
| 35> C 	 -99.1594 	 47.9505 	 125.889
| 36> H 	 -98.9621 	 47.2785 	 126.779
| 37> H 	 -98.734 	 48.9202 	 126.044
| 38> H 	 -98.6817 	 47.4968 	 124.998
| 39> H 	 -95.1352 	 51.4165 	 123.062
| 40> H 	 -102.527 	 53.518 	 126.005
| 41> *
| 42>
| 43>                          ****END OF INPUT****

CARTESIAN COORDINATES (ANGSTROEM)
---------------------------------
  S    -97.045400   51.636600  124.760000
  C    -96.183800   51.214700  123.341000
  C    -97.049600   50.727500  122.390000
  C    -98.384100   50.662500  122.856000
  C    -98.578100   51.288900  124.056000
  H    -99.168300   50.237300  122.253000
  C    -96.697500   50.411300  120.969000
  H    -97.293500   49.561600  120.833000
  H    -95.698100   50.001600  121.161000
  C    -96.697700   51.549400  119.948000
  H    -97.688800   51.944900  119.804000
  H    -96.018000   52.325400  120.257000
  C    -96.379000   50.976900  118.631000
  H    -97.159100   50.611500  117.949000
  H    -95.824000   51.754100  118.155000
  H    -95.690700   50.075600  118.878000
  S    -100.196000   53.139500  125.261000
  C    -101.811000   52.731900  125.593000
  C    -102.115000   51.409100  125.359000
  C    -100.984000   50.744900  124.773000
  C    -99.852600   51.540300  124.676000
  H    -103.092000   51.053100  125.765000
  C    -101.089000   49.270200  124.485000
  H    -100.695000   49.099200  123.404000
  H    -102.176000   49.054200  124.322000
  C    -100.653000   48.210200  125.501000
  H    -101.122000   47.236300  125.285000
  H    -101.192000   48.509200  126.440000
  C    -99.159400   47.950500  125.889000
  H    -98.962100   47.278500  126.779000
  H    -98.734000   48.920200  126.044000
  H    -98.681700   47.496800  124.998000
  H    -95.135200   51.416500  123.062000
  H    -102.527000   53.518000  126.005000

 Total Charge           Charge          ....    0
 Multiplicity           Mult            ....    1
 Number of Electrons    NEL             ....  134
 Basis Dimension        Dim             ....  322

ORBITAL ENERGIES
----------------

  NO   OCC          E(Eh)            E(eV)
   0   2.0000     -88.965980     -2420.8874
   1   2.0000     -88.965860     -2420.8841
   2   2.0000     -10.324853      -280.9535
   3   2.0000     -10.324139      -280.9341
   4   2.0000     -10.319026      -280.7950
   5   2.0000     -10.306858      -280.4639
   6   2.0000     -10.305781      -280.4346
   7   2.0000     -10.300605      -280.2937
   8   2.0000     -10.297927      -280.2208
   9   2.0000     -10.290248      -280.0119
  10   2.0000     -10.288939      -279.9763
  11   2.0000     -10.284952      -279.8678
  12   2.0000     -10.283195      -279.8200
  13   2.0000     -10.282682      -279.8060
  14   2.0000     -10.276910      -279.6489
  15   2.0000     -10.276472      -279.6370
  16   2.0000      -8.082052      -219.9238
  17   2.0000      -8.081388      -219.9057
  18   2.0000      -6.040296      -164.3648
  19   2.0000      -6.039938      -164.3551
  20   2.0000      -6.036311      -164.2564
  21   2.0000      -6.035704      -164.2399
  22   2.0000      -6.033045      -164.1675
  23   2.0000      -6.032170      -164.1437
  24   2.0000      -1.016259       -27.6538
  25   2.0000      -0.994094       -27.0507
  26   2.0000      -0.923462       -25.1287
  27   2.0000      -0.902471       -24.5575
  28   2.0000      -0.876535       -23.8517
  29   2.0000      -0.856829       -23.3155
  30   2.0000      -0.847063       -23.0498
  31   2.0000      -0.815113       -22.1803
  32   2.0000      -0.782507       -21.2931
  33   2.0000      -0.769599       -20.9419
  34   2.0000      -0.706151       -19.2153
  35   2.0000      -0.702593       -19.1185
  36   2.0000      -0.686286       -18.6748
  37   2.0000      -0.660080       -17.9617
  38   2.0000      -0.634201       -17.2575
  39   2.0000      -0.623253       -16.9596
  40   2.0000      -0.589231       -16.0338
  41   2.0000      -0.576560       -15.6890
  42   2.0000      -0.566332       -15.4107
  43   2.0000      -0.546747       -14.8777
  44   2.0000      -0.537888       -14.6367
  45   2.0000      -0.530406       -14.4331
  46   2.0000      -0.520736       -14.1699
  47   2.0000      -0.510156       -13.8821
  48   2.0000      -0.506814       -13.7911
  49   2.0000      -0.500232       -13.6120
  50   2.0000      -0.494250       -13.4492
  51   2.0000      -0.481021       -13.0893
  52   2.0000      -0.471748       -12.8369
  53   2.0000      -0.464335       -12.6352
  54   2.0000      -0.452537       -12.3141
  55   2.0000      -0.450352       -12.2547
  56   2.0000      -0.442494       -12.0409
  57   2.0000      -0.438674       -11.9369
  58   2.0000      -0.434249       -11.8165
  59   2.0000      -0.417875       -11.3709
  60   2.0000      -0.411384       -11.1943
  61   2.0000      -0.407989       -11.1019
  62   2.0000      -0.400206       -10.8901
  63   2.0000      -0.352185        -9.5834
  64   2.0000      -0.333312        -9.0699
  65   2.0000      -0.327996        -8.9252
  66   2.0000      -0.289928        -7.8893
  67   0.0000       0.030873         0.8401
  68   0.0000       0.075823         2.0632
  69   0.0000       0.118505         3.2247
  70   0.0000       0.123159         3.3513
  71   0.0000       0.132039         3.5930

MULLIKEN ATOMIC CHARGES
-----------------------
   0 S :    0.122983
   1 C :   -0.120843
   2 C :   -0.151800
   3 C :    0.028285
   4 C :   -0.135349
   5 H :    0.001486
   6 C :    0.060352
   7 H :    0.008240
   8 H :    0.016277
   9 C :    0.010785
  10 H :    0.025461
  11 H :    0.028365
  12 C :   -0.064138
  13 H :    0.049770
  14 H :    0.026025
  15 H :    0.030307
  16 S :    0.123763
  17 C :   -0.130640
  18 C :   -0.047917
  19 C :   -0.039256
  20 C :   -0.143335
  21 H :    0.042072
  22 C :    0.036499
  23 H :    0.028039
  24 H :    0.024481
  25 C :   -0.075874
  26 H :    0.028147
  27 H :    0.020052
  28 C :   -0.045787
  29 H :    0.049267
  30 H :    0.030107
  31 H :    0.033025
  32 H :    0.049007
  33 H :    0.082146
Sum of atomic charges:    0.0000000

LOEWDIN ATOMIC CHARGES
----------------------
   0 S :    0.431056
   1 C :   -0.225826
   2 C :   -0.067466
   3 C :   -0.063832
   4 C :   -0.202825
   5 H :    0.025793
   6 C :   -0.036422
   7 H :    0.024907
   8 H :    0.033229
   9 C :   -0.033261
  10 H :    0.028499
  11 H :    0.027486
  12 C :   -0.069555
  13 H :    0.028346
  14 H :    0.024171
  15 H :    0.032553
  16 S :    0.436626
  17 C :   -0.208302
  18 C :   -0.082261
  19 C :   -0.059311
  20 C :   -0.207430
  21 H :    0.044608
  22 C :   -0.044802
  23 H :    0.033492
  24 H :    0.039236
  25 C :   -0.048137
  26 H :    0.024212
  27 H :    0.026237
  28 C :   -0.070444
  29 H :    0.035415
  30 H :    0.019592
  31 H :    0.026322
  32 H :    0.035858
  33 H :    0.042236

  Mayer bond orders larger than 0.100000
B(  0-S ,  1-C ) :   1.1324 B(  0-S ,  4-C ) :   1.1626 B(  1-C ,  2-C ) :   1.6086
B(  1-C , 32-H ) :   0.9618 B(  2-C ,  3-C ) :   1.2762 B(  2-C ,  6-C ) :   1.0032
B(  3-C ,  4-C ) :   1.5453 B(  3-C ,  5-H ) :   0.9963 B(  4-C , 20-C ) :   1.0437
B(  6-C ,  7-H ) :   0.9362 B(  6-C ,  8-H ) :   0.9257 B(  6-C ,  9-C ) :   1.0733
B(  9-C , 10-H ) :   0.9491 B(  9-C , 11-H ) :   0.9527 B(  9-C , 12-C ) :   1.0738
B( 12-C , 13-H ) :   0.9773 B( 12-C , 14-H ) :   0.9715 B( 12-C , 15-H ) :   0.9734
B( 16-S , 17-C ) :   1.1864 B( 16-S , 20-C ) :   1.1468 B( 17-C , 18-C ) :   1.5966
B( 17-C , 33-H ) :   0.9546 B( 18-C , 19-C ) :   1.2410 B( 18-C , 21-H ) :   0.9874
B( 19-C , 20-C ) :   1.5824 B( 19-C , 22-C ) :   1.0479 B( 22-C , 23-H ) :   0.9280
B( 22-C , 24-H ) :   0.9265 B( 22-C , 25-C ) :   1.0721 B( 25-C , 26-H ) :   0.9561
B( 25-C , 27-H ) :   0.9488 B( 25-C , 28-C ) :   1.0708 B( 28-C , 29-H ) :   0.9739
B( 28-C , 30-H ) :   0.9746 B( 28-C , 31-H ) :   0.9757

Dispersion correction           -0.014699869
FINAL SINGLE POINT ENERGY     -1339.857887944561

DIPOLE MOMENT
-------------
                                X             Y             Z
Electronic contribution:     -2.79334      17.16731      15.87145
Nuclear contribution   :      2.52418     -17.36011     -16.26848
                        -----------------------------------------
Total Dipole Moment    :     -0.26915      -0.19281      -0.39703
                        -----------------------------------------
Magnitude (a.u.)       :      0.51696
Magnitude (Debye)      :      1.31402

Rotational constants in cm-1:     0.019664     0.008122     0.007413
Rotational constants in MHz :   589.514416   243.484600   222.248712

                             ****ORCA TERMINATED NORMALLY****
TOTAL RUN TIME: 0 days 0 hours 0 minutes 34 seconds 247 msec
