                         Program Version 4.2.1 -  RELEASE  -
|  1> ! wB97X-D3 SP def2-SVP
|  2> %pal
|  3> nprocs 16
|  4> end
|  5>
|  6> * xyz 0 1
|  7> S 	 53.4896 	 20.9606 	 47.1393
|  8> C 	 53.3331 	 21.437 	 45.428
|  9> C 	 53.9908 	 20.5583 	 44.6207
| 10> C 	 54.6324 	 19.4955 	 45.3928
| 11> C 	 54.4613 	 19.5624 	 46.7605
| 12> H 	 55.3801 	 18.7976 	 45.0581
| 13> C 	 54.3628 	 20.7919 	 43.1651
| 14> H 	 55.507 	 20.8759 	 43.1809
| 15> H 	 54.1242 	 21.823 	 42.801
| 16> C 	 53.7829 	 19.7495 	 42.2263
| 17> H 	 54.0341 	 20.148 	 41.1943
| 18> H 	 54.2902 	 18.8447 	 42.3836
| 19> C 	 52.2656 	 19.5256 	 42.2764
| 20> H 	 51.7767 	 19.3932 	 43.2312
| 21> H 	 51.7722 	 20.3875 	 41.83
| 22> H 	 51.9118 	 18.7704 	 41.5964
| 23> S 	 55.0043 	 19.5048 	 49.3612
| 24> C 	 55.7846 	 18.2374 	 50.1856
| 25> C 	 56.1391 	 17.31 	 49.2365
| 26> C 	 55.7466 	 17.5296 	 47.8649
| 27> C 	 55.0149 	 18.7407 	 47.7925
| 28> H 	 56.7442 	 16.4387 	 49.5319
| 29> C 	 56.1302 	 16.6637 	 46.6482
| 30> H 	 57.0683 	 16.1574 	 46.9455
| 31> H 	 56.4217 	 17.2368 	 45.768
| 32> C 	 55.1897 	 15.5158 	 46.2704
| 33> H 	 54.2959 	 15.888 	 45.7772
| 34> H 	 54.895 	 15.0475 	 47.183
| 35> C 	 55.8551 	 14.5717 	 45.221
| 36> H 	 55.0898 	 13.9446 	 44.7935
| 37> H 	 56.5195 	 13.8489 	 45.7081
| 38> H 	 56.4251 	 15.0118 	 44.3808
| 39> H 	 52.9188 	 22.3122 	 44.8785
| 40> H 	 55.9572 	 18.0931 	 51.232
| 41> *
| 42>
| 43>                          ****END OF INPUT****

CARTESIAN COORDINATES (ANGSTROEM)
---------------------------------
  S     53.489600   20.960600   47.139300
  C     53.333100   21.437000   45.428000
  C     53.990800   20.558300   44.620700
  C     54.632400   19.495500   45.392800
  C     54.461300   19.562400   46.760500
  H     55.380100   18.797600   45.058100
  C     54.362800   20.791900   43.165100
  H     55.507000   20.875900   43.180900
  H     54.124200   21.823000   42.801000
  C     53.782900   19.749500   42.226300
  H     54.034100   20.148000   41.194300
  H     54.290200   18.844700   42.383600
  C     52.265600   19.525600   42.276400
  H     51.776700   19.393200   43.231200
  H     51.772200   20.387500   41.830000
  H     51.911800   18.770400   41.596400
  S     55.004300   19.504800   49.361200
  C     55.784600   18.237400   50.185600
  C     56.139100   17.310000   49.236500
  C     55.746600   17.529600   47.864900
  C     55.014900   18.740700   47.792500
  H     56.744200   16.438700   49.531900
  C     56.130200   16.663700   46.648200
  H     57.068300   16.157400   46.945500
  H     56.421700   17.236800   45.768000
  C     55.189700   15.515800   46.270400
  H     54.295900   15.888000   45.777200
  H     54.895000   15.047500   47.183000
  C     55.855100   14.571700   45.221000
  H     55.089800   13.944600   44.793500
  H     56.519500   13.848900   45.708100
  H     56.425100   15.011800   44.380800
  H     52.918800   22.312200   44.878500
  H     55.957200   18.093100   51.232000

 Total Charge           Charge          ....    0
 Multiplicity           Mult            ....    1
 Number of Electrons    NEL             ....  134
 Basis Dimension        Dim             ....  322

ORBITAL ENERGIES
----------------

  NO   OCC          E(Eh)            E(eV)
   0   2.0000     -88.966092     -2420.8904
   1   2.0000     -88.964587     -2420.8495
   2   2.0000     -10.331613      -281.1375
   3   2.0000     -10.330522      -281.1078
   4   2.0000     -10.315365      -280.6954
   5   2.0000     -10.315031      -280.6863
   6   2.0000     -10.313029      -280.6318
   7   2.0000     -10.301857      -280.3278
   8   2.0000     -10.300763      -280.2980
   9   2.0000     -10.298819      -280.2451
  10   2.0000     -10.297078      -280.1977
  11   2.0000     -10.292906      -280.0842
  12   2.0000     -10.288818      -279.9730
  13   2.0000     -10.287407      -279.9346
  14   2.0000     -10.282160      -279.7918
  15   2.0000     -10.273163      -279.5470
  16   2.0000      -8.080477      -219.8810
  17   2.0000      -8.080189      -219.8731
  18   2.0000      -6.039067      -164.3314
  19   2.0000      -6.039020      -164.3301
  20   2.0000      -6.034820      -164.2158
  21   2.0000      -6.034610      -164.2101
  22   2.0000      -6.031292      -164.1198
  23   2.0000      -6.030519      -164.0988
  24   2.0000      -1.012623       -27.5549
  25   2.0000      -0.984545       -26.7908
  26   2.0000      -0.913890       -24.8682
  27   2.0000      -0.909747       -24.7555
  28   2.0000      -0.874781       -23.8040
  29   2.0000      -0.851982       -23.1836
  30   2.0000      -0.837148       -22.7799
  31   2.0000      -0.815977       -22.2039
  32   2.0000      -0.784509       -21.3476
  33   2.0000      -0.778965       -21.1967
  34   2.0000      -0.714686       -19.4476
  35   2.0000      -0.700689       -19.0667
  36   2.0000      -0.696496       -18.9526
  37   2.0000      -0.662270       -18.0213
  38   2.0000      -0.634631       -17.2692
  39   2.0000      -0.619760       -16.8645
  40   2.0000      -0.600437       -16.3387
  41   2.0000      -0.568271       -15.4634
  42   2.0000      -0.563939       -15.3455
  43   2.0000      -0.549323       -14.9478
  44   2.0000      -0.538759       -14.6604
  45   2.0000      -0.526146       -14.3172
  46   2.0000      -0.519724       -14.1424
  47   2.0000      -0.511714       -13.9244
  48   2.0000      -0.507985       -13.8230
  49   2.0000      -0.497975       -13.5506
  50   2.0000      -0.491175       -13.3655
  51   2.0000      -0.485744       -13.2178
  52   2.0000      -0.470905       -12.8140
  53   2.0000      -0.462177       -12.5765
  54   2.0000      -0.461151       -12.5485
  55   2.0000      -0.451210       -12.2780
  56   2.0000      -0.443953       -12.0806
  57   2.0000      -0.440046       -11.9743
  58   2.0000      -0.438275       -11.9261
  59   2.0000      -0.425794       -11.5865
  60   2.0000      -0.417552       -11.3622
  61   2.0000      -0.412712       -11.2305
  62   2.0000      -0.400808       -10.9065
  63   2.0000      -0.366505        -9.9731
  64   2.0000      -0.333924        -9.0865
  65   2.0000      -0.324358        -8.8262
  66   2.0000      -0.284658        -7.7460
  67   0.0000       0.016635         0.4527
  68   0.0000       0.088065         2.3964
  69   0.0000       0.102215         2.7814
  70   0.0000       0.119330         3.2471
  71   0.0000       0.125923         3.4265

MULLIKEN ATOMIC CHARGES
-----------------------
   0 S :    0.098402
   1 C :   -0.106325
   2 C :   -0.086414
   3 C :   -0.007462
   4 C :   -0.101154
   5 H :   -0.010210
   6 C :    0.008645
   7 H :    0.054192
   8 H :    0.018477
   9 C :   -0.051458
  10 H :    0.035327
  11 H :    0.024128
  12 C :   -0.041961
  13 H :    0.048290
  14 H :    0.011269
  15 H :    0.027066
  16 S :    0.086120
  17 C :   -0.056938
  18 C :   -0.061796
  19 C :   -0.037057
  20 C :   -0.115311
  21 H :    0.019383
  22 C :    0.020199
  23 H :    0.017499
  24 H :    0.032903
  25 C :   -0.026276
  26 H :    0.031629
  27 H :    0.025968
  28 C :   -0.067171
  29 H :    0.029817
  30 H :    0.029691
  31 H :    0.040557
  32 H :    0.054403
  33 H :    0.055569
Sum of atomic charges:    0.0000000

LOEWDIN ATOMIC CHARGES
----------------------
   0 S :    0.386527
   1 C :   -0.199928
   2 C :   -0.065946
   3 C :   -0.071123
   4 C :   -0.189641
   5 H :    0.023494
   6 C :   -0.039456
   7 H :    0.045280
   8 H :    0.027724
   9 C :   -0.039995
  10 H :    0.034072
  11 H :    0.014722
  12 C :   -0.069580
  13 H :    0.027341
  14 H :    0.025010
  15 H :    0.027471
  16 S :    0.430345
  17 C :   -0.204191
  18 C :   -0.077134
  19 C :   -0.058360
  20 C :   -0.188487
  21 H :    0.030112
  22 C :   -0.034468
  23 H :    0.034102
  24 H :    0.026168
  25 C :   -0.031254
  26 H :    0.024260
  27 H :    0.024070
  28 C :   -0.070800
  29 H :    0.025707
  30 H :    0.024651
  31 H :    0.029508
  32 H :    0.044600
  33 H :    0.035201

  Mayer bond orders larger than 0.100000
B(  0-S ,  1-C ) :   1.1030 B(  0-S ,  4-C ) :   1.1217 B(  1-C ,  2-C ) :   1.6690
B(  1-C , 32-H ) :   0.9541 B(  2-C ,  3-C ) :   1.1941 B(  2-C ,  6-C ) :   1.0182
B(  3-C ,  4-C ) :   1.6120 B(  3-C ,  5-H ) :   0.9890 B(  4-C , 20-C ) :   1.1035
B(  6-C ,  7-H ) :   0.9469 B(  6-C ,  8-H ) :   0.9480 B(  6-C ,  9-C ) :   1.0569
B(  9-C , 10-H ) :   0.9562 B(  9-C , 11-H ) :   0.9605 B(  9-C , 12-C ) :   1.0774
B( 12-C , 13-H ) :   0.9736 B( 12-C , 14-H ) :   0.9709 B( 12-C , 15-H ) :   0.9723
B( 16-S , 17-C ) :   1.1574 B( 16-S , 20-C ) :   1.1596 B( 17-C , 18-C ) :   1.5812
B( 17-C , 33-H ) :   0.9734 B( 18-C , 19-C ) :   1.2824 B( 18-C , 21-H ) :   0.9816
B( 19-C , 20-C ) :   1.5262 B( 19-C , 22-C ) :   1.0299 B( 22-C , 23-H ) :   0.9314
B( 22-C , 24-H ) :   0.9405 B( 22-C , 25-C ) :   1.0684 B( 25-C , 26-H ) :   0.9576
B( 25-C , 27-H ) :   0.9528 B( 25-C , 28-C ) :   1.0713 B( 28-C , 29-H ) :   0.9754
B( 28-C , 30-H ) :   0.9758 B( 28-C , 31-H ) :   0.9764

Dispersion correction           -0.013895012
FINAL SINGLE POINT ENERGY     -1339.870113176031

DIPOLE MOMENT
-------------
                                X             Y             Z
Electronic contribution:     -1.33550      16.39804      26.43994
Nuclear contribution   :      1.72372     -16.81060     -26.95808
                        -----------------------------------------
Total Dipole Moment    :      0.38822      -0.41255      -0.51814
                        -----------------------------------------
Magnitude (a.u.)       :      0.76771
Magnitude (Debye)      :      1.95137

Rotational constants in cm-1:     0.016872     0.009756     0.006538
Rotational constants in MHz :   505.805918   292.475306   195.994366

                             ****ORCA TERMINATED NORMALLY****
TOTAL RUN TIME: 0 days 0 hours 0 minutes 28 seconds 433 msec
