                         Program Version 4.2.1 -  RELEASE  -
|  1> ! wB97X-D3 SP def2-SVP
|  2> %pal
|  3> nprocs 16
|  4> end
|  5>
|  6> * xyz 0 1
|  7> S 	 -41.3291 	 27.7929 	 80.9997
|  8> C 	 -41.8352 	 27.3376 	 79.3807
|  9> C 	 -41.5993 	 25.959 	 79.1489
| 10> C 	 -41.1483 	 25.3374 	 80.3662
| 11> C 	 -40.9939 	 26.172 	 81.4568
| 12> H 	 -40.9734 	 24.2894 	 80.4411
| 13> C 	 -41.8811 	 25.1085 	 77.9305
| 14> H 	 -41.1129 	 24.3278 	 77.9536
| 15> H 	 -41.6137 	 25.7298 	 77.1142
| 16> C 	 -43.3435 	 24.6291 	 77.8358
| 17> H 	 -43.1127 	 23.8444 	 77.0394
| 18> H 	 -43.5295 	 24.1275 	 78.7641
| 19> C 	 -44.3445 	 25.7545 	 77.4405
| 20> H 	 -44.139 	 26.7511 	 77.9873
| 21> H 	 -44.2057 	 26.0134 	 76.3597
| 22> H 	 -45.3793 	 25.4228 	 77.6341
| 23> S 	 -41.5994 	 24.5564 	 83.5191
| 24> C 	 -40.4535 	 24.2986 	 84.8424
| 25> C 	 -39.5632 	 25.3829 	 84.8222
| 26> C 	 -39.6377 	 26.2676 	 83.6873
| 27> C 	 -40.5797 	 25.7504 	 82.7738
| 28> H 	 -38.8891 	 25.5802 	 85.702
| 29> C 	 -38.6268 	 27.4574 	 83.4561
| 30> H 	 -38.9305 	 28.3682 	 84.0385
| 31> H 	 -38.8324 	 27.6307 	 82.3542
| 32> C 	 -37.1469 	 27.1157 	 83.7251
| 33> H 	 -37.0683 	 26.7096 	 84.7268
| 34> H 	 -36.4084 	 27.8999 	 83.6974
| 35> C 	 -36.6273 	 25.9002 	 82.8897
| 36> H 	 -36.4312 	 26.0231 	 81.8633
| 37> H 	 -37.1811 	 24.935 	 83.1035
| 38> H 	 -35.7142 	 25.6253 	 83.3945
| 39> H 	 -42.1526 	 28.1207 	 78.6742
| 40> H 	 -40.6542 	 23.7499 	 85.8259
| 41> *
| 42>
| 43>                          ****END OF INPUT****

CARTESIAN COORDINATES (ANGSTROEM)
---------------------------------
  S    -41.329100   27.792900   80.999700
  C    -41.835200   27.337600   79.380700
  C    -41.599300   25.959000   79.148900
  C    -41.148300   25.337400   80.366200
  C    -40.993900   26.172000   81.456800
  H    -40.973400   24.289400   80.441100
  C    -41.881100   25.108500   77.930500
  H    -41.112900   24.327800   77.953600
  H    -41.613700   25.729800   77.114200
  C    -43.343500   24.629100   77.835800
  H    -43.112700   23.844400   77.039400
  H    -43.529500   24.127500   78.764100
  C    -44.344500   25.754500   77.440500
  H    -44.139000   26.751100   77.987300
  H    -44.205700   26.013400   76.359700
  H    -45.379300   25.422800   77.634100
  S    -41.599400   24.556400   83.519100
  C    -40.453500   24.298600   84.842400
  C    -39.563200   25.382900   84.822200
  C    -39.637700   26.267600   83.687300
  C    -40.579700   25.750400   82.773800
  H    -38.889100   25.580200   85.702000
  C    -38.626800   27.457400   83.456100
  H    -38.930500   28.368200   84.038500
  H    -38.832400   27.630700   82.354200
  C    -37.146900   27.115700   83.725100
  H    -37.068300   26.709600   84.726800
  H    -36.408400   27.899900   83.697400
  C    -36.627300   25.900200   82.889700
  H    -36.431200   26.023100   81.863300
  H    -37.181100   24.935000   83.103500
  H    -35.714200   25.625300   83.394500
  H    -42.152600   28.120700   78.674200
  H    -40.654200   23.749900   85.825900

 Total Charge           Charge          ....    0
 Multiplicity           Mult            ....    1
 Number of Electrons    NEL             ....  134
 Basis Dimension        Dim             ....  322

ORBITAL ENERGIES
----------------

  NO   OCC          E(Eh)            E(eV)
   0   2.0000     -88.967003     -2420.9152
   1   2.0000     -88.966436     -2420.8998
   2   2.0000     -10.329864      -281.0899
   3   2.0000     -10.325244      -280.9642
   4   2.0000     -10.322810      -280.8979
   5   2.0000     -10.321073      -280.8507
   6   2.0000     -10.309348      -280.5316
   7   2.0000     -10.304246      -280.3928
   8   2.0000     -10.303981      -280.3856
   9   2.0000     -10.300617      -280.2940
  10   2.0000     -10.295268      -280.1485
  11   2.0000     -10.294296      -280.1220
  12   2.0000     -10.290045      -280.0063
  13   2.0000     -10.289632      -279.9951
  14   2.0000     -10.288276      -279.9582
  15   2.0000     -10.270404      -279.4719
  16   2.0000      -8.081840      -219.9181
  17   2.0000      -8.080756      -219.8885
  18   2.0000      -6.040288      -164.3646
  19   2.0000      -6.039295      -164.3376
  20   2.0000      -6.036179      -164.2528
  21   2.0000      -6.035405      -164.2317
  22   2.0000      -6.032816      -164.1613
  23   2.0000      -6.031391      -164.1225
  24   2.0000      -1.006848       -27.3977
  25   2.0000      -0.980694       -26.6860
  26   2.0000      -0.913228       -24.8502
  27   2.0000      -0.899702       -24.4821
  28   2.0000      -0.865658       -23.5558
  29   2.0000      -0.846606       -23.0373
  30   2.0000      -0.838181       -22.8081
  31   2.0000      -0.805845       -21.9282
  32   2.0000      -0.782472       -21.2921
  33   2.0000      -0.771910       -21.0047
  34   2.0000      -0.705805       -19.2059
  35   2.0000      -0.701044       -19.0764
  36   2.0000      -0.689280       -18.7563
  37   2.0000      -0.656028       -17.8514
  38   2.0000      -0.638538       -17.3755
  39   2.0000      -0.616328       -16.7711
  40   2.0000      -0.586298       -15.9540
  41   2.0000      -0.564425       -15.3588
  42   2.0000      -0.546833       -14.8801
  43   2.0000      -0.543966       -14.8021
  44   2.0000      -0.540499       -14.7077
  45   2.0000      -0.530501       -14.4357
  46   2.0000      -0.519560       -14.1380
  47   2.0000      -0.516937       -14.0666
  48   2.0000      -0.500564       -13.6210
  49   2.0000      -0.491785       -13.3822
  50   2.0000      -0.483794       -13.1647
  51   2.0000      -0.475720       -12.9450
  52   2.0000      -0.465261       -12.6604
  53   2.0000      -0.461061       -12.5461
  54   2.0000      -0.457525       -12.4499
  55   2.0000      -0.447935       -12.1889
  56   2.0000      -0.439283       -11.9535
  57   2.0000      -0.437349       -11.9009
  58   2.0000      -0.430762       -11.7216
  59   2.0000      -0.423279       -11.5180
  60   2.0000      -0.422384       -11.4937
  61   2.0000      -0.411623       -11.2008
  62   2.0000      -0.406225       -11.0539
  63   2.0000      -0.343756        -9.3541
  64   2.0000      -0.331668        -9.0252
  65   2.0000      -0.324874        -8.8403
  66   2.0000      -0.292135        -7.9494
  67   0.0000       0.025523         0.6945
  68   0.0000       0.067928         1.8484
  69   0.0000       0.104414         2.8412
  70   0.0000       0.111068         3.0223
  71   0.0000       0.135703         3.6927

MULLIKEN ATOMIC CHARGES
-----------------------
   0 S :    0.121267
   1 C :   -0.162560
   2 C :   -0.098625
   3 C :    0.015671
   4 C :   -0.140737
   5 H :    0.001614
   6 C :    0.060380
   7 H :    0.028403
   8 H :    0.010516
   9 C :   -0.046093
  10 H :    0.046943
  11 H :    0.030534
  12 C :   -0.081540
  13 H :    0.049327
  14 H :    0.040444
  15 H :    0.053418
  16 S :    0.114275
  17 C :   -0.112771
  18 C :   -0.088274
  19 C :   -0.036870
  20 C :   -0.176934
  21 H :    0.040295
  22 C :    0.074218
  23 H :    0.054731
  24 H :    0.033540
  25 C :   -0.069259
  26 H :    0.017819
  27 H :    0.033797
  28 C :   -0.062206
  29 H :    0.037422
  30 H :    0.044002
  31 H :    0.011693
  32 H :    0.066712
  33 H :    0.088846
Sum of atomic charges:    0.0000000

LOEWDIN ATOMIC CHARGES
----------------------
   0 S :    0.426358
   1 C :   -0.208784
   2 C :   -0.058749
   3 C :   -0.062284
   4 C :   -0.216566
   5 H :    0.023868
   6 C :   -0.033943
   7 H :    0.033199
   8 H :    0.023548
   9 C :   -0.038199
  10 H :    0.037753
  11 H :    0.021618
  12 C :   -0.075030
  13 H :    0.036707
  14 H :    0.031150
  15 H :    0.031661
  16 S :    0.416240
  17 C :   -0.216453
  18 C :   -0.075449
  19 C :   -0.062502
  20 C :   -0.193496
  21 H :    0.035408
  22 C :   -0.037037
  23 H :    0.038559
  24 H :    0.029270
  25 C :   -0.041572
  26 H :    0.022787
  27 H :    0.025254
  28 C :   -0.068833
  29 H :    0.015380
  30 H :    0.036343
  31 H :    0.024037
  32 H :    0.029689
  33 H :    0.050067

  Mayer bond orders larger than 0.100000
B(  0-S ,  1-C ) :   1.1569 B(  0-S ,  4-C ) :   1.1513 B(  1-C ,  2-C ) :   1.5588
B(  1-C , 32-H ) :   0.9659 B(  2-C ,  3-C ) :   1.2682 B(  2-C ,  6-C ) :   1.0238
B(  3-C ,  4-C ) :   1.5354 B(  3-C ,  5-H ) :   0.9984 B(  4-C , 20-C ) :   1.0459
B(  6-C ,  7-H ) :   0.9418 B(  6-C ,  8-H ) :   0.9329 B(  6-C ,  9-C ) :   1.0451
B(  9-C , 10-H ) :   0.9593 B(  9-C , 11-H ) :   0.9602 B(  9-C , 12-C ) :   1.0579
B( 12-C , 13-H ) :   0.9715 B( 12-C , 14-H ) :   0.9736 B( 12-C , 15-H ) :   0.9754
B( 16-S , 17-C ) :   1.1310 B( 16-S , 20-C ) :   1.1801 B( 17-C , 18-C ) :   1.6036
B( 17-C , 20-C ) :   0.1072 B( 17-C , 33-H ) :   0.9556 B( 18-C , 19-C ) :   1.2575
B( 18-C , 21-H ) :   0.9713 B( 19-C , 20-C ) :   1.5445 B( 19-C , 22-C ) :   1.0119
B( 22-C , 23-H ) :   0.9407 B( 22-C , 24-H ) :   0.9367 B( 22-C , 25-C ) :   1.0630
B( 25-C , 26-H ) :   0.9547 B( 25-C , 27-H ) :   0.9599 B( 25-C , 28-C ) :   1.0764
B( 28-C , 29-H ) :   0.9810 B( 28-C , 30-H ) :   0.9690 B( 28-C , 31-H ) :   0.9712

Dispersion correction           -0.014626543
FINAL SINGLE POINT ENERGY     -1339.859388860317

DIPOLE MOMENT
-------------
                                X             Y             Z
Electronic contribution:     -6.98227       2.00355      11.12379
Nuclear contribution   :      7.16691      -2.01021     -11.30047
                        -----------------------------------------
Total Dipole Moment    :      0.18464      -0.00666      -0.17668
                        -----------------------------------------
Magnitude (a.u.)       :      0.25564
Magnitude (Debye)      :      0.64979

Rotational constants in cm-1:     0.023974     0.007598     0.006722
Rotational constants in MHz :   718.711472   227.787635   201.509238

                             ****ORCA TERMINATED NORMALLY****
TOTAL RUN TIME: 0 days 0 hours 0 minutes 32 seconds 573 msec
