                         Program Version 4.2.1 -  RELEASE  -
|  1> ! wB97X-D3 SP def2-SVP
|  2> %pal
|  3> nprocs 16
|  4> end
|  5>
|  6> * xyz 0 1
|  7> S 	 -18.7039 	 -4.47355 	 83.0228
|  8> C 	 -18.2666 	 -5.54406 	 81.6665
|  9> C 	 -18.8579 	 -6.76187 	 81.6919
| 10> C 	 -19.7819 	 -6.82439 	 82.7824
| 11> C 	 -19.8431 	 -5.71741 	 83.5464
| 12> H 	 -20.4718 	 -7.64072 	 82.8677
| 13> C 	 -18.7422 	 -7.86126 	 80.6232
| 14> H 	 -18.0015 	 -8.54529 	 80.8493
| 15> H 	 -18.3548 	 -7.34872 	 79.7595
| 16> C 	 -19.9716 	 -8.66606 	 80.4028
| 17> H 	 -19.9323 	 -9.35772 	 81.2534
| 18> H 	 -20.8822 	 -8.11636 	 80.4159
| 19> C 	 -20.0027 	 -9.56591 	 79.2237
| 20> H 	 -19.6272 	 -9.16219 	 78.3148
| 21> H 	 -19.2739 	 -10.3141 	 79.4286
| 22> H 	 -20.9393 	 -10.0795 	 79.0361
| 23> S 	 -21.9998 	 -4.36286 	 84.8128
| 24> C 	 -22.4361 	 -4.96818 	 86.4466
| 25> C 	 -21.5387 	 -5.87939 	 86.8853
| 26> C 	 -20.5835 	 -6.29554 	 85.9338
| 27> C 	 -20.6201 	 -5.57204 	 84.7595
| 28> H 	 -21.7008 	 -6.24327 	 87.8313
| 29> C 	 -19.51 	 -7.33878 	 86.1991
| 30> H 	 -19.6651 	 -8.04444 	 85.4284
| 31> H 	 -19.6742 	 -7.9254 	 87.0492
| 32> C 	 -18.0079 	 -6.78929 	 86.2052
| 33> H 	 -17.9835 	 -5.96897 	 86.9732
| 34> H 	 -17.7944 	 -6.52645 	 85.1996
| 35> C 	 -17.0618 	 -7.91765 	 86.4876
| 36> H 	 -17.143 	 -8.66098 	 85.7576
| 37> H 	 -17.2658 	 -8.43905 	 87.3876
| 38> H 	 -15.9659 	 -7.63232 	 86.4202
| 39> H 	 -17.5303 	 -5.42348 	 80.9028
| 40> H 	 -23.2484 	 -4.63538 	 87.0589
| 41> *
| 42>
| 43>                          ****END OF INPUT****

CARTESIAN COORDINATES (ANGSTROEM)
---------------------------------
  S    -18.703900   -4.473550   83.022800
  C    -18.266600   -5.544060   81.666500
  C    -18.857900   -6.761870   81.691900
  C    -19.781900   -6.824390   82.782400
  C    -19.843100   -5.717410   83.546400
  H    -20.471800   -7.640720   82.867700
  C    -18.742200   -7.861260   80.623200
  H    -18.001500   -8.545290   80.849300
  H    -18.354800   -7.348720   79.759500
  C    -19.971600   -8.666060   80.402800
  H    -19.932300   -9.357720   81.253400
  H    -20.882200   -8.116360   80.415900
  C    -20.002700   -9.565910   79.223700
  H    -19.627200   -9.162190   78.314800
  H    -19.273900  -10.314100   79.428600
  H    -20.939300  -10.079500   79.036100
  S    -21.999800   -4.362860   84.812800
  C    -22.436100   -4.968180   86.446600
  C    -21.538700   -5.879390   86.885300
  C    -20.583500   -6.295540   85.933800
  C    -20.620100   -5.572040   84.759500
  H    -21.700800   -6.243270   87.831300
  C    -19.510000   -7.338780   86.199100
  H    -19.665100   -8.044440   85.428400
  H    -19.674200   -7.925400   87.049200
  C    -18.007900   -6.789290   86.205200
  H    -17.983500   -5.968970   86.973200
  H    -17.794400   -6.526450   85.199600
  C    -17.061800   -7.917650   86.487600
  H    -17.143000   -8.660980   85.757600
  H    -17.265800   -8.439050   87.387600
  H    -15.965900   -7.632320   86.420200
  H    -17.530300   -5.423480   80.902800
  H    -23.248400   -4.635380   87.058900

 Total Charge           Charge          ....    0
 Multiplicity           Mult            ....    1
 Number of Electrons    NEL             ....  134
 Basis Dimension        Dim             ....  322

ORBITAL ENERGIES
----------------

  NO   OCC          E(Eh)            E(eV)
   0   2.0000     -88.969017     -2420.9700
   1   2.0000     -88.961220     -2420.7579
   2   2.0000     -10.326107      -280.9876
   3   2.0000     -10.325662      -280.9755
   4   2.0000     -10.315877      -280.7093
   5   2.0000     -10.310838      -280.5722
   6   2.0000     -10.301666      -280.3226
   7   2.0000     -10.297513      -280.2096
   8   2.0000     -10.288458      -279.9632
   9   2.0000     -10.288177      -279.9555
  10   2.0000     -10.284208      -279.8475
  11   2.0000     -10.282809      -279.8094
  12   2.0000     -10.282316      -279.7960
  13   2.0000     -10.281240      -279.7668
  14   2.0000     -10.271308      -279.4965
  15   2.0000     -10.268426      -279.4181
  16   2.0000      -8.082720      -219.9420
  17   2.0000      -8.074218      -219.7106
  18   2.0000      -6.041402      -164.3949
  19   2.0000      -6.037534      -164.2896
  20   2.0000      -6.033173      -164.1710
  21   2.0000      -6.032847      -164.1621
  22   2.0000      -6.029085      -164.0597
  23   2.0000      -6.024843      -163.9443
  24   2.0000      -1.003566       -27.3084
  25   2.0000      -0.979177       -26.6448
  26   2.0000      -0.926942       -25.2234
  27   2.0000      -0.903631       -24.5890
  28   2.0000      -0.875433       -23.8217
  29   2.0000      -0.852401       -23.1950
  30   2.0000      -0.846304       -23.0291
  31   2.0000      -0.819850       -22.3092
  32   2.0000      -0.791625       -21.5412
  33   2.0000      -0.772276       -21.0147
  34   2.0000      -0.718103       -19.5406
  35   2.0000      -0.700134       -19.0516
  36   2.0000      -0.692682       -18.8488
  37   2.0000      -0.660028       -17.9603
  38   2.0000      -0.641204       -17.4481
  39   2.0000      -0.624590       -16.9959
  40   2.0000      -0.592562       -16.1244
  41   2.0000      -0.589617       -16.0443
  42   2.0000      -0.572604       -15.5813
  43   2.0000      -0.564580       -15.3630
  44   2.0000      -0.535229       -14.5643
  45   2.0000      -0.521467       -14.1898
  46   2.0000      -0.514179       -13.9915
  47   2.0000      -0.513690       -13.9782
  48   2.0000      -0.506459       -13.7815
  49   2.0000      -0.498285       -13.5590
  50   2.0000      -0.493268       -13.4225
  51   2.0000      -0.480927       -13.0867
  52   2.0000      -0.471188       -12.8217
  53   2.0000      -0.469340       -12.7714
  54   2.0000      -0.456954       -12.4344
  55   2.0000      -0.451512       -12.2863
  56   2.0000      -0.442398       -12.0383
  57   2.0000      -0.441572       -12.0158
  58   2.0000      -0.427862       -11.6427
  59   2.0000      -0.424865       -11.5612
  60   2.0000      -0.419871       -11.4253
  61   2.0000      -0.416868       -11.3436
  62   2.0000      -0.415510       -11.3066
  63   2.0000      -0.339566        -9.2401
  64   2.0000      -0.333796        -9.0831
  65   2.0000      -0.328363        -8.9352
  66   2.0000      -0.299990        -8.1632
  67   0.0000       0.034603         0.9416
  68   0.0000       0.061567         1.6753
  69   0.0000       0.111110         3.0235
  70   0.0000       0.117719         3.2033
  71   0.0000       0.130101         3.5402

MULLIKEN ATOMIC CHARGES
-----------------------
   0 S :    0.118220
   1 C :   -0.101689
   2 C :   -0.114111
   3 C :    0.029262
   4 C :   -0.156423
   5 H :    0.011835
   6 C :    0.149182
   7 H :    0.010315
   8 H :    0.004776
   9 C :   -0.110645
  10 H :    0.030201
  11 H :    0.034813
  12 C :    0.005335
  13 H :    0.014198
  14 H :    0.002469
  15 H :    0.038321
  16 S :    0.080063
  17 C :   -0.081573
  18 C :   -0.003798
  19 C :   -0.005196
  20 C :   -0.172941
  21 H :   -0.018632
  22 C :    0.103010
  23 H :    0.000617
  24 H :   -0.010872
  25 C :   -0.044993
  26 H :    0.047894
  27 H :    0.034090
  28 C :   -0.020691
  29 H :    0.001985
  30 H :    0.012402
  31 H :    0.040974
  32 H :    0.022894
  33 H :    0.048710
Sum of atomic charges:   -0.0000000

LOEWDIN ATOMIC CHARGES
----------------------
   0 S :    0.388197
   1 C :   -0.182208
   2 C :   -0.058491
   3 C :   -0.056703
   4 C :   -0.187393
   5 H :    0.029270
   6 C :   -0.020391
   7 H :    0.024410
   8 H :    0.025910
   9 C :   -0.043542
  10 H :    0.030184
  11 H :    0.020530
  12 C :   -0.057522
  13 H :    0.019189
  14 H :    0.021364
  15 H :    0.030948
  16 S :    0.343325
  17 C :   -0.155899
  18 C :   -0.066911
  19 C :   -0.044879
  20 C :   -0.175156
  21 H :    0.019443
  22 C :   -0.025611
  23 H :    0.025018
  24 H :    0.017087
  25 C :   -0.025804
  26 H :    0.031334
  27 H :    0.021613
  28 C :   -0.065995
  29 H :    0.016704
  30 H :    0.015799
  31 H :    0.034981
  32 H :    0.022848
  33 H :    0.028351

  Mayer bond orders larger than 0.100000
B(  0-S ,  1-C ) :   1.1110 B(  0-S ,  4-C ) :   1.1220 B(  1-C ,  2-C ) :   1.6964
B(  1-C , 32-H ) :   0.9574 B(  2-C ,  3-C ) :   1.2124 B(  2-C ,  6-C ) :   1.0041
B(  3-C ,  4-C ) :   1.6255 B(  3-C ,  5-H ) :   0.9929 B(  4-C , 20-C ) :   1.0330
B(  6-C ,  7-H ) :   0.9209 B(  6-C ,  8-H ) :   0.9368 B(  6-C ,  9-C ) :   1.0701
B(  9-C , 10-H ) :   0.9445 B(  9-C , 11-H ) :   0.9649 B(  9-C , 12-C ) :   1.0924
B( 12-C , 13-H ) :   0.9719 B( 12-C , 14-H ) :   0.9687 B( 12-C , 15-H ) :   0.9720
B( 16-S , 17-C ) :   1.1341 B( 16-S , 20-C ) :   1.1049 B( 17-C , 18-C ) :   1.6483
B( 17-C , 33-H ) :   0.9653 B( 18-C , 19-C ) :   1.2101 B( 18-C , 21-H ) :   1.0021
B( 19-C , 20-C ) :   1.6226 B( 19-C , 22-C ) :   1.0389 B( 22-C , 23-H ) :   0.9161
B( 22-C , 24-H ) :   0.9333 B( 22-C , 25-C ) :   1.0561 B( 25-C , 26-H ) :   0.9607
B( 25-C , 27-H ) :   0.9492 B( 25-C , 28-C ) :   1.0940 B( 28-C , 29-H ) :   0.9677
B( 28-C , 30-H ) :   0.9721 B( 28-C , 31-H ) :   0.9709

Dispersion correction           -0.014634752
FINAL SINGLE POINT ENERGY     -1339.855866039806

DIPOLE MOMENT
-------------
                                X             Y             Z
Electronic contribution:    -10.19160      24.51170       5.80475
Nuclear contribution   :     10.34245     -25.37202      -5.86329
                        -----------------------------------------
Total Dipole Moment    :      0.15084      -0.86032      -0.05854
                        -----------------------------------------
Magnitude (a.u.)       :      0.87541
Magnitude (Debye)      :      2.22510

Rotational constants in cm-1:     0.017366     0.008529     0.007620
Rotational constants in MHz :   520.610284   255.707024   228.449375

                             ****ORCA TERMINATED NORMALLY****
TOTAL RUN TIME: 0 days 0 hours 0 minutes 34 seconds 928 msec
