                         Program Version 4.2.1 -  RELEASE  -
|  1> ! wB97X-D3 SP def2-SVP
|  2> %pal
|  3> nprocs 16
|  4> end
|  5>
|  6> * xyz 0 1
|  7> S 	 9.20832 	 -18.4489 	 82.2681
|  8> C 	 8.54303 	 -19.6676 	 83.2831
|  9> C 	 8.47878 	 -19.2461 	 84.5934
| 10> C 	 9.07068 	 -17.9574 	 84.7742
| 11> C 	 9.49242 	 -17.3604 	 83.6128
| 12> H 	 9.19265 	 -17.4693 	 85.6965
| 13> C 	 7.85966 	 -20.0759 	 85.7417
| 14> H 	 7.18398 	 -20.6575 	 85.1801
| 15> H 	 7.32996 	 -19.5551 	 86.5351
| 16> C 	 8.75596 	 -21.1145 	 86.4282
| 17> H 	 8.01448 	 -21.7762 	 86.9381
| 18> H 	 9.24522 	 -21.7398 	 85.671
| 19> C 	 9.76141 	 -20.4259 	 87.4073
| 20> H 	 10.4142 	 -21.2204 	 87.7252
| 21> H 	 10.3432 	 -19.6172 	 87.0187
| 22> H 	 9.21612 	 -20.0896 	 88.2596
| 23> S 	 8.98799 	 -14.9733 	 82.4146
| 24> C 	 10.0478 	 -13.6762 	 82.7661
| 25> C 	 11.0795 	 -13.9953 	 83.6928
| 26> C 	 10.9852 	 -15.3075 	 84.16
| 27> C 	 10.017 	 -16.0134 	 83.4528
| 28> H 	 11.8676 	 -13.3112 	 83.8701
| 29> C 	 11.9538 	 -15.9492 	 85.1208
| 30> H 	 12.79 	 -15.2447 	 85.0507
| 31> H 	 12.3625 	 -16.9113 	 84.864
| 32> C 	 11.6037 	 -15.8119 	 86.6214
| 33> H 	 12.3712 	 -16.1421 	 87.2645
| 34> H 	 10.7563 	 -16.4964 	 86.8487
| 35> C 	 11.2079 	 -14.4724 	 87.1638
| 36> H 	 10.4438 	 -14.5686 	 87.9603
| 37> H 	 10.8258 	 -13.8574 	 86.4163
| 38> H 	 12.0911 	 -14.0196 	 87.6015
| 39> H 	 8.34452 	 -20.6625 	 83.034
| 40> H 	 10.1051 	 -12.7776 	 82.1553
| 41> *
| 42>
| 43>                          ****END OF INPUT****

CARTESIAN COORDINATES (ANGSTROEM)
---------------------------------
  S      9.208320  -18.448900   82.268100
  C      8.543030  -19.667600   83.283100
  C      8.478780  -19.246100   84.593400
  C      9.070680  -17.957400   84.774200
  C      9.492420  -17.360400   83.612800
  H      9.192650  -17.469300   85.696500
  C      7.859660  -20.075900   85.741700
  H      7.183980  -20.657500   85.180100
  H      7.329960  -19.555100   86.535100
  C      8.755960  -21.114500   86.428200
  H      8.014480  -21.776200   86.938100
  H      9.245220  -21.739800   85.671000
  C      9.761410  -20.425900   87.407300
  H     10.414200  -21.220400   87.725200
  H     10.343200  -19.617200   87.018700
  H      9.216120  -20.089600   88.259600
  S      8.987990  -14.973300   82.414600
  C     10.047800  -13.676200   82.766100
  C     11.079500  -13.995300   83.692800
  C     10.985200  -15.307500   84.160000
  C     10.017000  -16.013400   83.452800
  H     11.867600  -13.311200   83.870100
  C     11.953800  -15.949200   85.120800
  H     12.790000  -15.244700   85.050700
  H     12.362500  -16.911300   84.864000
  C     11.603700  -15.811900   86.621400
  H     12.371200  -16.142100   87.264500
  H     10.756300  -16.496400   86.848700
  C     11.207900  -14.472400   87.163800
  H     10.443800  -14.568600   87.960300
  H     10.825800  -13.857400   86.416300
  H     12.091100  -14.019600   87.601500
  H      8.344520  -20.662500   83.034000
  H     10.105100  -12.777600   82.155300

 Total Charge           Charge          ....    0
 Multiplicity           Mult            ....    1
 Number of Electrons    NEL             ....  134
 Basis Dimension        Dim             ....  322

ORBITAL ENERGIES
----------------

  NO   OCC          E(Eh)            E(eV)
   0   2.0000     -88.969246     -2420.9763
   1   2.0000     -88.965854     -2420.8840
   2   2.0000     -10.326770      -281.0057
   3   2.0000     -10.324570      -280.9458
   4   2.0000     -10.316740      -280.7328
   5   2.0000     -10.307262      -280.4749
   6   2.0000     -10.304647      -280.4037
   7   2.0000     -10.299335      -280.2591
   8   2.0000     -10.294123      -280.1173
   9   2.0000     -10.293845      -280.1098
  10   2.0000     -10.290660      -280.0231
  11   2.0000     -10.286586      -279.9122
  12   2.0000     -10.286195      -279.9016
  13   2.0000     -10.281568      -279.7757
  14   2.0000     -10.273161      -279.5469
  15   2.0000     -10.268485      -279.4197
  16   2.0000      -8.083943      -219.9753
  17   2.0000      -8.080905      -219.8926
  18   2.0000      -6.042247      -164.4179
  19   2.0000      -6.039398      -164.3404
  20   2.0000      -6.038478      -164.3153
  21   2.0000      -6.035276      -164.2282
  22   2.0000      -6.034885      -164.2176
  23   2.0000      -6.031760      -164.1325
  24   2.0000      -1.008069       -27.4310
  25   2.0000      -0.986098       -26.8331
  26   2.0000      -0.915051       -24.8998
  27   2.0000      -0.908776       -24.7291
  28   2.0000      -0.867940       -23.6178
  29   2.0000      -0.859800       -23.3963
  30   2.0000      -0.844170       -22.9710
  31   2.0000      -0.813040       -22.1240
  32   2.0000      -0.791012       -21.5245
  33   2.0000      -0.775399       -21.0997
  34   2.0000      -0.707273       -19.2459
  35   2.0000      -0.697945       -18.9920
  36   2.0000      -0.690048       -18.7772
  37   2.0000      -0.667465       -18.1626
  38   2.0000      -0.644787       -17.5455
  39   2.0000      -0.615152       -16.7391
  40   2.0000      -0.594275       -16.1711
  41   2.0000      -0.577823       -15.7234
  42   2.0000      -0.561370       -15.2757
  43   2.0000      -0.557337       -15.1659
  44   2.0000      -0.544954       -14.8289
  45   2.0000      -0.538905       -14.6644
  46   2.0000      -0.513614       -13.9762
  47   2.0000      -0.511602       -13.9214
  48   2.0000      -0.504262       -13.7217
  49   2.0000      -0.493066       -13.4170
  50   2.0000      -0.489592       -13.3225
  51   2.0000      -0.484706       -13.1895
  52   2.0000      -0.478556       -13.0222
  53   2.0000      -0.467791       -12.7292
  54   2.0000      -0.461218       -12.5504
  55   2.0000      -0.452837       -12.3223
  56   2.0000      -0.442460       -12.0399
  57   2.0000      -0.437280       -11.8990
  58   2.0000      -0.434440       -11.8217
  59   2.0000      -0.428135       -11.6501
  60   2.0000      -0.421650       -11.4737
  61   2.0000      -0.415784       -11.3140
  62   2.0000      -0.402757       -10.9596
  63   2.0000      -0.343377        -9.3438
  64   2.0000      -0.337940        -9.1958
  65   2.0000      -0.327234        -8.9045
  66   2.0000      -0.289732        -7.8840
  67   0.0000       0.028573         0.7775
  68   0.0000       0.064534         1.7561
  69   0.0000       0.113593         3.0910
  70   0.0000       0.120769         3.2863
  71   0.0000       0.126756         3.4492

MULLIKEN ATOMIC CHARGES
-----------------------
   0 S :    0.117795
   1 C :   -0.089864
   2 C :   -0.101960
   3 C :    0.068927
   4 C :   -0.157051
   5 H :   -0.028371
   6 C :    0.079335
   7 H :    0.003544
   8 H :    0.029446
   9 C :   -0.091706
  10 H :    0.035155
  11 H :    0.024024
  12 C :   -0.027531
  13 H :    0.031528
  14 H :    0.038336
  15 H :    0.021765
  16 S :    0.121527
  17 C :   -0.095104
  18 C :   -0.038270
  19 C :   -0.023696
  20 C :   -0.166554
  21 H :    0.009734
  22 C :    0.099191
  23 H :    0.005579
  24 H :    0.042008
  25 C :   -0.076861
  26 H :    0.017920
  27 H :    0.016598
  28 C :   -0.033886
  29 H :    0.035112
  30 H :    0.022140
  31 H :    0.026446
  32 H :    0.024080
  33 H :    0.060667
Sum of atomic charges:    0.0000000

LOEWDIN ATOMIC CHARGES
----------------------
   0 S :    0.417724
   1 C :   -0.199868
   2 C :   -0.058573
   3 C :   -0.056121
   4 C :   -0.202444
   5 H :    0.018583
   6 C :   -0.031239
   7 H :    0.023786
   8 H :    0.030231
   9 C :   -0.036276
  10 H :    0.028644
  11 H :    0.019628
  12 C :   -0.061524
  13 H :    0.026722
  14 H :    0.023200
  15 H :    0.021846
  16 S :    0.416423
  17 C :   -0.200736
  18 C :   -0.067407
  19 C :   -0.055895
  20 C :   -0.180784
  21 H :    0.025963
  22 C :   -0.025531
  23 H :    0.032281
  24 H :    0.034888
  25 C :   -0.042201
  26 H :    0.019838
  27 H :    0.018166
  28 C :   -0.060307
  29 H :    0.034060
  30 H :    0.015799
  31 H :    0.024782
  32 H :    0.018810
  33 H :    0.027530

  Mayer bond orders larger than 0.100000
B(  0-S ,  1-C ) :   1.1468 B(  0-S ,  4-C ) :   1.1509 B(  1-C ,  2-C ) :   1.6103
B(  1-C , 32-H ) :   0.9688 B(  2-C ,  3-C ) :   1.2496 B(  2-C ,  6-C ) :   1.0098
B(  3-C ,  4-C ) :   1.5610 B(  3-C ,  5-H ) :   1.0070 B(  4-C , 20-C ) :   1.0235
B(  6-C ,  7-H ) :   0.9321 B(  6-C ,  8-H ) :   0.9504 B(  6-C ,  9-C ) :   1.0802
B(  9-C , 10-H ) :   0.9567 B(  9-C , 11-H ) :   0.9576 B(  9-C , 12-C ) :   1.0660
B( 12-C , 13-H ) :   0.9748 B( 12-C , 14-H ) :   0.9786 B( 12-C , 15-H ) :   0.9754
B( 16-S , 17-C ) :   1.1782 B( 16-S , 20-C ) :   1.1537 B( 17-C , 18-C ) :   1.5804
B( 17-C , 20-C ) :   0.1145 B( 17-C , 33-H ) :   0.9615 B( 18-C , 19-C ) :   1.2575
B( 18-C , 21-H ) :   0.9888 B( 19-C , 20-C ) :   1.5854 B( 19-C , 22-C ) :   1.0249
B( 22-C , 23-H ) :   0.9287 B( 22-C , 24-H ) :   0.9470 B( 22-C , 25-C ) :   1.0611
B( 25-C , 26-H ) :   0.9561 B( 25-C , 27-H ) :   0.9575 B( 25-C , 28-C ) :   1.0744
B( 28-C , 29-H ) :   0.9732 B( 28-C , 30-H ) :   0.9745 B( 28-C , 31-H ) :   0.9775

Dispersion correction           -0.015095497
FINAL SINGLE POINT ENERGY     -1339.866377206666

DIPOLE MOMENT
-------------
                                X             Y             Z
Electronic contribution:     -7.13611       7.43227     -27.75296
Nuclear contribution   :      7.38345      -7.58631      28.31018
                        -----------------------------------------
Total Dipole Moment    :      0.24734      -0.15405       0.55721
                        -----------------------------------------
Magnitude (a.u.)       :      0.62880
Magnitude (Debye)      :      1.59829

Rotational constants in cm-1:     0.018508     0.009892     0.007019
Rotational constants in MHz :   554.864365   296.564271   210.418154

                             ****ORCA TERMINATED NORMALLY****
TOTAL RUN TIME: 0 days 0 hours 0 minutes 33 seconds 524 msec
