                         Program Version 4.2.1 -  RELEASE  -
|  1> ! wB97X-D3 SP def2-SVP
|  2> %pal
|  3> nprocs 16
|  4> end
|  5>
|  6> * xyz 0 1
|  7> S 	 -33.7163 	 53.5846 	 101.998
|  8> C 	 -33.7641 	 52.9979 	 100.377
|  9> C 	 -32.8849 	 53.6774 	 99.5179
| 10> C 	 -32.3767 	 54.866 	 100.148
| 11> C 	 -32.7773 	 55.0309 	 101.444
| 12> H 	 -31.6006 	 55.547 	 99.7265
| 13> C 	 -32.5727 	 53.3381 	 98.0384
| 14> H 	 -33.444 	 53.7712 	 97.4211
| 15> H 	 -32.5924 	 52.3178 	 97.9058
| 16> C 	 -31.2658 	 53.9086 	 97.4197
| 17> H 	 -31.4076 	 55.0133 	 97.3629
| 18> H 	 -30.4206 	 53.7396 	 98.0752
| 19> C 	 -30.9256 	 53.3344 	 96.03
| 20> H 	 -30.003 	 53.7046 	 95.6174
| 21> H 	 -30.8786 	 52.2575 	 96.1779
| 22> H 	 -31.7464 	 53.5834 	 95.3118
| 23> S 	 -31.1927 	 55.6388 	 103.586
| 24> C 	 -31.2181 	 57.3032 	 104.111
| 25> C 	 -32.072 	 58.0977 	 103.44
| 26> C 	 -32.6689 	 57.431 	 102.359
| 27> C 	 -32.3775 	 56.0738 	 102.339
| 28> H 	 -32.0628 	 59.1037 	 103.698
| 29> C 	 -33.5343 	 58.2043 	 101.312
| 30> H 	 -34.1412 	 57.5322 	 100.766
| 31> H 	 -32.8497 	 58.631 	 100.642
| 32> C 	 -34.5031 	 59.2253 	 101.867
| 33> H 	 -33.9243 	 59.9781 	 102.329
| 34> H 	 -35.0609 	 58.7538 	 102.633
| 35> C 	 -35.3906 	 59.8591 	 100.791
| 36> H 	 -34.8551 	 60.0278 	 99.8689
| 37> H 	 -35.7586 	 60.8138 	 101.085
| 38> H 	 -36.2627 	 59.2514 	 100.657
| 39> H 	 -34.2697 	 52.0898 	 100.01
| 40> H 	 -30.5857 	 57.7186 	 104.899
| 41> *
| 42>
| 43>                          ****END OF INPUT****

CARTESIAN COORDINATES (ANGSTROEM)
---------------------------------
  S    -33.716300   53.584600  101.998000
  C    -33.764100   52.997900  100.377000
  C    -32.884900   53.677400   99.517900
  C    -32.376700   54.866000  100.148000
  C    -32.777300   55.030900  101.444000
  H    -31.600600   55.547000   99.726500
  C    -32.572700   53.338100   98.038400
  H    -33.444000   53.771200   97.421100
  H    -32.592400   52.317800   97.905800
  C    -31.265800   53.908600   97.419700
  H    -31.407600   55.013300   97.362900
  H    -30.420600   53.739600   98.075200
  C    -30.925600   53.334400   96.030000
  H    -30.003000   53.704600   95.617400
  H    -30.878600   52.257500   96.177900
  H    -31.746400   53.583400   95.311800
  S    -31.192700   55.638800  103.586000
  C    -31.218100   57.303200  104.111000
  C    -32.072000   58.097700  103.440000
  C    -32.668900   57.431000  102.359000
  C    -32.377500   56.073800  102.339000
  H    -32.062800   59.103700  103.698000
  C    -33.534300   58.204300  101.312000
  H    -34.141200   57.532200  100.766000
  H    -32.849700   58.631000  100.642000
  C    -34.503100   59.225300  101.867000
  H    -33.924300   59.978100  102.329000
  H    -35.060900   58.753800  102.633000
  C    -35.390600   59.859100  100.791000
  H    -34.855100   60.027800   99.868900
  H    -35.758600   60.813800  101.085000
  H    -36.262700   59.251400  100.657000
  H    -34.269700   52.089800  100.010000
  H    -30.585700   57.718600  104.899000

 Total Charge           Charge          ....    0
 Multiplicity           Mult            ....    1
 Number of Electrons    NEL             ....  134
 Basis Dimension        Dim             ....  322

ORBITAL ENERGIES
----------------

  NO   OCC          E(Eh)            E(eV)
   0   2.0000     -88.965711     -2420.8801
   1   2.0000     -88.963779     -2420.8275
   2   2.0000     -10.324989      -280.9572
   3   2.0000     -10.321236      -280.8551
   4   2.0000     -10.315028      -280.6862
   5   2.0000     -10.311667      -280.5947
   6   2.0000     -10.304096      -280.3887
   7   2.0000     -10.303048      -280.3602
   8   2.0000     -10.296189      -280.1736
   9   2.0000     -10.294666      -280.1321
  10   2.0000     -10.291302      -280.0406
  11   2.0000     -10.283582      -279.8305
  12   2.0000     -10.281314      -279.7688
  13   2.0000     -10.281028      -279.7610
  14   2.0000     -10.274542      -279.5845
  15   2.0000     -10.271604      -279.5046
  16   2.0000      -8.079860      -219.8642
  17   2.0000      -8.078534      -219.8281
  18   2.0000      -6.038391      -164.3130
  19   2.0000      -6.036908      -164.2726
  20   2.0000      -6.034631      -164.2107
  21   2.0000      -6.033241      -164.1728
  22   2.0000      -6.030449      -164.0969
  23   2.0000      -6.029227      -164.0636
  24   2.0000      -1.004128       -27.3237
  25   2.0000      -0.980818       -26.6894
  26   2.0000      -0.911287       -24.7974
  27   2.0000      -0.905719       -24.6459
  28   2.0000      -0.872717       -23.7478
  29   2.0000      -0.850601       -23.1460
  30   2.0000      -0.844899       -22.9909
  31   2.0000      -0.814807       -22.1720
  32   2.0000      -0.784146       -21.3377
  33   2.0000      -0.769126       -20.9290
  34   2.0000      -0.711211       -19.3530
  35   2.0000      -0.702202       -19.1079
  36   2.0000      -0.688284       -18.7291
  37   2.0000      -0.654757       -17.8168
  38   2.0000      -0.638278       -17.3684
  39   2.0000      -0.616705       -16.7814
  40   2.0000      -0.597710       -16.2645
  41   2.0000      -0.576062       -15.6754
  42   2.0000      -0.569465       -15.4959
  43   2.0000      -0.563944       -15.3457
  44   2.0000      -0.526961       -14.3393
  45   2.0000      -0.522533       -14.2188
  46   2.0000      -0.514690       -14.0054
  47   2.0000      -0.504329       -13.7235
  48   2.0000      -0.499017       -13.5789
  49   2.0000      -0.493888       -13.4394
  50   2.0000      -0.491420       -13.3722
  51   2.0000      -0.480980       -13.0881
  52   2.0000      -0.472913       -12.8686
  53   2.0000      -0.465839       -12.6761
  54   2.0000      -0.455241       -12.3877
  55   2.0000      -0.453887       -12.3509
  56   2.0000      -0.452657       -12.3174
  57   2.0000      -0.437328       -11.9003
  58   2.0000      -0.428886       -11.6706
  59   2.0000      -0.424649       -11.5553
  60   2.0000      -0.423629       -11.5275
  61   2.0000      -0.419651       -11.4193
  62   2.0000      -0.417266       -11.3544
  63   2.0000      -0.344154        -9.3649
  64   2.0000      -0.331899        -9.0314
  65   2.0000      -0.323558        -8.8045
  66   2.0000      -0.293444        -7.9850
  67   0.0000       0.039711         1.0806
  68   0.0000       0.056257         1.5308
  69   0.0000       0.115746         3.1496
  70   0.0000       0.121540         3.3073
  71   0.0000       0.131563         3.5800

MULLIKEN ATOMIC CHARGES
-----------------------
   0 S :    0.115983
   1 C :   -0.118602
   2 C :   -0.100139
   3 C :    0.020427
   4 C :   -0.169931
   5 H :    0.037018
   6 C :    0.068792
   7 H :    0.052747
   8 H :    0.001091
   9 C :   -0.124888
  10 H :    0.039387
  11 H :    0.036107
  12 C :   -0.034353
  13 H :    0.038493
  14 H :    0.033121
  15 H :    0.036575
  16 S :    0.110885
  17 C :   -0.085804
  18 C :   -0.023212
  19 C :   -0.015838
  20 C :   -0.194648
  21 H :   -0.006314
  22 C :    0.122848
  23 H :    0.012762
  24 H :    0.018971
  25 C :   -0.080921
  26 H :    0.013552
  27 H :    0.024865
  28 C :   -0.006379
  29 H :    0.025164
  30 H :    0.017111
  31 H :    0.031765
  32 H :    0.051943
  33 H :    0.051425
Sum of atomic charges:    0.0000000

LOEWDIN ATOMIC CHARGES
----------------------
   0 S :    0.390444
   1 C :   -0.209375
   2 C :   -0.065005
   3 C :   -0.061210
   4 C :   -0.185295
   5 H :    0.041748
   6 C :   -0.029906
   7 H :    0.045016
   8 H :    0.012493
   9 C :   -0.046424
  10 H :    0.024265
  11 H :    0.021778
  12 C :   -0.061424
  13 H :    0.025675
  14 H :    0.025676
  15 H :    0.029797
  16 S :    0.394575
  17 C :   -0.174954
  18 C :   -0.074264
  19 C :   -0.041562
  20 C :   -0.200321
  21 H :    0.024206
  22 C :   -0.017280
  23 H :    0.023860
  24 H :    0.023822
  25 C :   -0.034379
  26 H :    0.013085
  27 H :    0.022446
  28 C :   -0.054493
  29 H :    0.024960
  30 H :    0.022823
  31 H :    0.025851
  32 H :    0.033374
  33 H :    0.029998

  Mayer bond orders larger than 0.100000
B(  0-S ,  1-C ) :   1.1459 B(  0-S ,  4-C ) :   1.1181 B(  1-C ,  2-C ) :   1.6259
B(  1-C , 32-H ) :   0.9630 B(  2-C ,  3-C ) :   1.2304 B(  2-C ,  6-C ) :   1.0127
B(  3-C ,  4-C ) :   1.6085 B(  3-C ,  5-H ) :   0.9811 B(  4-C , 20-C ) :   1.0519
B(  6-C ,  7-H ) :   0.9366 B(  6-C ,  8-H ) :   0.9432 B(  6-C ,  9-C ) :   1.0672
B(  9-C , 10-H ) :   0.9468 B(  9-C , 11-H ) :   0.9613 B(  9-C , 12-C ) :   1.0830
B( 12-C , 13-H ) :   0.9740 B( 12-C , 14-H ) :   0.9754 B( 12-C , 15-H ) :   0.9751
B( 16-S , 17-C ) :   1.1494 B( 16-S , 20-C ) :   1.1324 B( 17-C , 18-C ) :   1.6487
B( 17-C , 33-H ) :   0.9580 B( 18-C , 19-C ) :   1.2133 B( 18-C , 21-H ) :   1.0015
B( 19-C , 20-C ) :   1.6271 B( 19-C , 22-C ) :   1.0241 B( 22-C , 23-H ) :   0.9361
B( 22-C , 24-H ) :   0.9271 B( 22-C , 25-C ) :   1.0719 B( 25-C , 26-H ) :   0.9492
B( 25-C , 27-H ) :   0.9619 B( 25-C , 28-C ) :   1.0897 B( 28-C , 29-H ) :   0.9733
B( 28-C , 30-H ) :   0.9723 B( 28-C , 31-H ) :   0.9751

Dispersion correction           -0.013380293
FINAL SINGLE POINT ENERGY     -1339.874511806852

DIPOLE MOMENT
-------------
                                X             Y             Z
Electronic contribution:      3.59960     -11.25850      24.12022
Nuclear contribution   :     -3.48402      11.66797     -24.67448
                        -----------------------------------------
Total Dipole Moment    :      0.11559       0.40947      -0.55426
                        -----------------------------------------
Magnitude (a.u.)       :      0.69873
Magnitude (Debye)      :      1.77604

Rotational constants in cm-1:     0.016376     0.007802     0.006660
Rotational constants in MHz :   490.939848   233.905025   199.663084

                             ****ORCA TERMINATED NORMALLY****
TOTAL RUN TIME: 0 days 0 hours 0 minutes 29 seconds 45 msec
