                         Program Version 4.2.1 -  RELEASE  -
|  1> ! wB97X-D3 SP def2-SVP
|  2> %pal
|  3> nprocs 16
|  4> end
|  5>
|  6> * xyz 0 1
|  7> S 	 3.81453 	 -12.7936 	 58.5663
|  8> C 	 4.2005 	 -13.204 	 60.2086
|  9> C 	 3.52063 	 -14.3374 	 60.6684
| 10> C 	 2.82686 	 -14.9624 	 59.5337
| 11> C 	 3.02788 	 -14.3231 	 58.367
| 12> H 	 2.35007 	 -15.9376 	 59.6169
| 13> C 	 3.4107 	 -14.8306 	 62.1454
| 14> H 	 2.53857 	 -14.2973 	 62.5415
| 15> H 	 4.32378 	 -14.4404 	 62.6228
| 16> C 	 3.50171 	 -16.3719 	 62.4113
| 17> H 	 3.70783 	 -16.6512 	 63.4371
| 18> H 	 2.64157 	 -16.9077 	 62.0306
| 19> C 	 4.59015 	 -17.0637 	 61.5852
| 20> H 	 5.53147 	 -16.4813 	 61.494
| 21> H 	 4.84092 	 -18.016 	 62.1154
| 22> H 	 4.18117 	 -17.2816 	 60.6041
| 23> S 	 1.46689 	 -13.8413 	 56.2929
| 24> C 	 1.32359 	 -14.9255 	 54.9896
| 25> C 	 2.15516 	 -16.0074 	 55.1943
| 26> C 	 2.95054 	 -15.9459 	 56.3744
| 27> C 	 2.66536 	 -14.8105 	 57.02
| 28> H 	 2.0563 	 -16.8672 	 54.5607
| 29> C 	 3.83046 	 -17.1451 	 56.8434
| 30> H 	 3.56696 	 -18.065 	 56.3231
| 31> H 	 3.79736 	 -17.1497 	 57.9571
| 32> C 	 5.29248 	 -16.9463 	 56.3851
| 33> H 	 5.1933 	 -16.6723 	 55.2979
| 34> H 	 5.77851 	 -17.9265 	 56.3759
| 35> C 	 6.07889 	 -15.9471 	 57.249
| 36> H 	 6.44227 	 -16.5535 	 58.1868
| 37> H 	 5.40103 	 -15.1386 	 57.4382
| 38> H 	 6.91203 	 -15.6337 	 56.6545
| 39> H 	 4.79872 	 -12.5134 	 60.8305
| 40> H 	 0.688332 	 -14.6251 	 54.1553
| 41> *
| 42>
| 43>                          ****END OF INPUT****

CARTESIAN COORDINATES (ANGSTROEM)
---------------------------------
  S      3.814530  -12.793600   58.566300
  C      4.200500  -13.204000   60.208600
  C      3.520630  -14.337400   60.668400
  C      2.826860  -14.962400   59.533700
  C      3.027880  -14.323100   58.367000
  H      2.350070  -15.937600   59.616900
  C      3.410700  -14.830600   62.145400
  H      2.538570  -14.297300   62.541500
  H      4.323780  -14.440400   62.622800
  C      3.501710  -16.371900   62.411300
  H      3.707830  -16.651200   63.437100
  H      2.641570  -16.907700   62.030600
  C      4.590150  -17.063700   61.585200
  H      5.531470  -16.481300   61.494000
  H      4.840920  -18.016000   62.115400
  H      4.181170  -17.281600   60.604100
  S      1.466890  -13.841300   56.292900
  C      1.323590  -14.925500   54.989600
  C      2.155160  -16.007400   55.194300
  C      2.950540  -15.945900   56.374400
  C      2.665360  -14.810500   57.020000
  H      2.056300  -16.867200   54.560700
  C      3.830460  -17.145100   56.843400
  H      3.566960  -18.065000   56.323100
  H      3.797360  -17.149700   57.957100
  C      5.292480  -16.946300   56.385100
  H      5.193300  -16.672300   55.297900
  H      5.778510  -17.926500   56.375900
  C      6.078890  -15.947100   57.249000
  H      6.442270  -16.553500   58.186800
  H      5.401030  -15.138600   57.438200
  H      6.912030  -15.633700   56.654500
  H      4.798720  -12.513400   60.830500
  H      0.688332  -14.625100   54.155300

 Total Charge           Charge          ....    0
 Multiplicity           Mult            ....    1
 Number of Electrons    NEL             ....  134
 Basis Dimension        Dim             ....  322

ORBITAL ENERGIES
----------------

  NO   OCC          E(Eh)            E(eV)
   0   2.0000     -88.965179     -2420.8656
   1   2.0000     -88.959514     -2420.7115
   2   2.0000     -10.323194      -280.9084
   3   2.0000     -10.317153      -280.7440
   4   2.0000     -10.316049      -280.7140
   5   2.0000     -10.312608      -280.6203
   6   2.0000     -10.310083      -280.5516
   7   2.0000     -10.303528      -280.3732
   8   2.0000     -10.299015      -280.2504
   9   2.0000     -10.296833      -280.1911
  10   2.0000     -10.293566      -280.1022
  11   2.0000     -10.290675      -280.0235
  12   2.0000     -10.290159      -280.0095
  13   2.0000     -10.282307      -279.7958
  14   2.0000     -10.280782      -279.7543
  15   2.0000     -10.273985      -279.5693
  16   2.0000      -8.080445      -219.8801
  17   2.0000      -8.076698      -219.7781
  18   2.0000      -6.038890      -164.3266
  19   2.0000      -6.035018      -164.2212
  20   2.0000      -6.034926      -164.2187
  21   2.0000      -6.031080      -164.1140
  22   2.0000      -6.030815      -164.1068
  23   2.0000      -6.027654      -164.0208
  24   2.0000      -1.018071       -27.7031
  25   2.0000      -0.989916       -26.9370
  26   2.0000      -0.908175       -24.7127
  27   2.0000      -0.907064       -24.6825
  28   2.0000      -0.868506       -23.6333
  29   2.0000      -0.850549       -23.1446
  30   2.0000      -0.844107       -22.9693
  31   2.0000      -0.813854       -22.1461
  32   2.0000      -0.782036       -21.2803
  33   2.0000      -0.772782       -21.0285
  34   2.0000      -0.699219       -19.0267
  35   2.0000      -0.687626       -18.7113
  36   2.0000      -0.685344       -18.6492
  37   2.0000      -0.663931       -18.0665
  38   2.0000      -0.640145       -17.4192
  39   2.0000      -0.622498       -16.9390
  40   2.0000      -0.597340       -16.2545
  41   2.0000      -0.564698       -15.3662
  42   2.0000      -0.553932       -15.0733
  43   2.0000      -0.553441       -15.0599
  44   2.0000      -0.548223       -14.9179
  45   2.0000      -0.538046       -14.6410
  46   2.0000      -0.517040       -14.0694
  47   2.0000      -0.505640       -13.7592
  48   2.0000      -0.502846       -13.6831
  49   2.0000      -0.496697       -13.5158
  50   2.0000      -0.492310       -13.3964
  51   2.0000      -0.476537       -12.9672
  52   2.0000      -0.472318       -12.8524
  53   2.0000      -0.464576       -12.6418
  54   2.0000      -0.450086       -12.2475
  55   2.0000      -0.447318       -12.1722
  56   2.0000      -0.440234       -11.9794
  57   2.0000      -0.437884       -11.9154
  58   2.0000      -0.426173       -11.5968
  59   2.0000      -0.424594       -11.5538
  60   2.0000      -0.420608       -11.4453
  61   2.0000      -0.416651       -11.3377
  62   2.0000      -0.406808       -11.0698
  63   2.0000      -0.340851        -9.2750
  64   2.0000      -0.332826        -9.0567
  65   2.0000      -0.328637        -8.9427
  66   2.0000      -0.301466        -8.2033
  67   0.0000       0.045549         1.2395
  68   0.0000       0.066707         1.8152
  69   0.0000       0.109399         2.9769
  70   0.0000       0.120740         3.2855
  71   0.0000       0.131228         3.5709

MULLIKEN ATOMIC CHARGES
-----------------------
   0 S :    0.119692
   1 C :   -0.134011
   2 C :   -0.127567
   3 C :    0.053584
   4 C :   -0.180120
   5 H :    0.014847
   6 C :    0.077840
   7 H :    0.061347
   8 H :    0.027216
   9 C :   -0.079883
  10 H :    0.040439
  11 H :    0.029459
  12 C :   -0.080541
  13 H :    0.040774
  14 H :    0.037351
  15 H :    0.028757
  16 S :    0.111756
  17 C :   -0.100142
  18 C :   -0.045232
  19 C :   -0.022998
  20 C :   -0.182416
  21 H :    0.011252
  22 C :    0.093255
  23 H :    0.021625
  24 H :    0.031571
  25 C :   -0.124098
  26 H :    0.029136
  27 H :    0.026433
  28 C :   -0.016370
  29 H :    0.050094
  30 H :    0.034051
  31 H :    0.032355
  32 H :    0.055299
  33 H :    0.065244
Sum of atomic charges:   -0.0000000

LOEWDIN ATOMIC CHARGES
----------------------
   0 S :    0.412473
   1 C :   -0.204255
   2 C :   -0.057908
   3 C :   -0.065569
   4 C :   -0.205726
   5 H :    0.030708
   6 C :   -0.030936
   7 H :    0.038738
   8 H :    0.033616
   9 C :   -0.045325
  10 H :    0.026647
  11 H :    0.022820
  12 C :   -0.066303
  13 H :    0.025588
  14 H :    0.031174
  15 H :    0.018433
  16 S :    0.441392
  17 C :   -0.200828
  18 C :   -0.070661
  19 C :   -0.061140
  20 C :   -0.214469
  21 H :    0.026109
  22 C :   -0.023415
  23 H :    0.032819
  24 H :    0.030240
  25 C :   -0.047984
  26 H :    0.024691
  27 H :    0.017603
  28 C :   -0.063150
  29 H :    0.040943
  30 H :    0.020083
  31 H :    0.023728
  32 H :    0.029308
  33 H :    0.030556

  Mayer bond orders larger than 0.100000
B(  0-S ,  1-C ) :   1.1355 B(  0-S ,  4-C ) :   1.1471 B(  1-C ,  2-C ) :   1.6441
B(  1-C , 32-H ) :   0.9653 B(  2-C ,  3-C ) :   1.1973 B(  2-C ,  6-C ) :   1.0007
B(  3-C ,  4-C ) :   1.6315 B(  3-C ,  5-H ) :   0.9926 B(  4-C , 20-C ) :   0.9514
B(  6-C ,  7-H ) :   0.9465 B(  6-C ,  8-H ) :   0.9439 B(  6-C ,  9-C ) :   1.0573
B(  9-C , 10-H ) :   0.9676 B(  9-C , 11-H ) :   0.9573 B(  9-C , 12-C ) :   1.0734
B( 12-C , 13-H ) :   0.9756 B( 12-C , 14-H ) :   0.9734 B( 12-C , 15-H ) :   0.9760
B( 16-S , 17-C ) :   1.1692 B( 16-S , 20-C ) :   1.1843 B( 17-C , 18-C ) :   1.5870
B( 17-C , 33-H ) :   0.9735 B( 18-C , 19-C ) :   1.2382 B( 18-C , 21-H ) :   0.9934
B( 19-C , 20-C ) :   1.6395 B( 19-C , 22-C ) :   1.0318 B( 22-C , 23-H ) :   0.9315
B( 22-C , 24-H ) :   0.9354 B( 22-C , 25-C ) :   1.0717 B( 25-C , 26-H ) :   0.9540
B( 25-C , 27-H ) :   0.9593 B( 25-C , 28-C ) :   1.0697 B( 28-C , 29-H ) :   0.9717
B( 28-C , 30-H ) :   0.9764 B( 28-C , 31-H ) :   0.9718

Dispersion correction           -0.016399527
FINAL SINGLE POINT ENERGY     -1339.872596054215

DIPOLE MOMENT
-------------
                                X             Y             Z
Electronic contribution:    -13.62739      19.73402     -12.43904
Nuclear contribution   :     13.67772     -20.25873      12.73926
                        -----------------------------------------
Total Dipole Moment    :      0.05032      -0.52471       0.30022
                        -----------------------------------------
Magnitude (a.u.)       :      0.60662
Magnitude (Debye)      :      1.54191

Rotational constants in cm-1:     0.019438     0.010073     0.008377
Rotational constants in MHz :   582.733766   301.974624   251.134364

                             ****ORCA TERMINATED NORMALLY****
TOTAL RUN TIME: 0 days 0 hours 0 minutes 33 seconds 172 msec
