                         Program Version 4.2.1 -  RELEASE  -
|  1> ! wB97X-D3 SP def2-SVP
|  2> %pal
|  3> nprocs 16
|  4> end
|  5>
|  6> * xyz 0 1
|  7> S 	 -36.3631 	 48.2878 	 94.8719
|  8> C 	 -35.0263 	 49.3511 	 95.3527
|  9> C 	 -35.3469 	 50.0392 	 96.5128
| 10> C 	 -36.7934 	 49.924 	 96.7227
| 11> C 	 -37.5251 	 49.146 	 95.8792
| 12> H 	 -37.3727 	 50.4611 	 97.5206
| 13> C 	 -34.3383 	 50.8863 	 97.324
| 14> H 	 -34.6672 	 51.9275 	 97.4066
| 15> H 	 -33.4711 	 50.9447 	 96.6815
| 16> C 	 -33.6937 	 50.3871 	 98.6193
| 17> H 	 -32.9704 	 49.616 	 98.3851
| 18> H 	 -33.0084 	 51.1595 	 99.0397
| 19> C 	 -34.7553 	 50.0736 	 99.7031
| 20> H 	 -35.2025 	 50.8702 	 100.238
| 21> H 	 -35.5413 	 49.4571 	 99.3971
| 22> H 	 -34.2323 	 49.5269 	 100.494
| 23> S 	 -39.5808 	 47.2621 	 95.5252
| 24> C 	 -41.1873 	 47.8791 	 95.5673
| 25> C 	 -41.2132 	 49.2246 	 95.84
| 26> C 	 -39.9906 	 49.8101 	 96.0311
| 27> C 	 -38.9343 	 48.9352 	 95.7778
| 28> H 	 -42.0984 	 49.7736 	 95.8359
| 29> C 	 -39.8983 	 51.3254 	 96.3782
| 30> H 	 -40.4695 	 51.848 	 95.53
| 31> H 	 -38.9079 	 51.7858 	 96.2081
| 32> C 	 -40.332 	 51.6518 	 97.784
| 33> H 	 -40.0242 	 50.8697 	 98.421
| 34> H 	 -41.4081 	 51.607 	 97.8372
| 35> C 	 -39.9451 	 52.9797 	 98.3271
| 36> H 	 -38.8617 	 53.0778 	 98.3449
| 37> H 	 -40.3449 	 53.1379 	 99.344
| 38> H 	 -40.3463 	 53.9279 	 97.8172
| 39> H 	 -33.9918 	 49.241 	 95.1303
| 40> H 	 -42.0908 	 47.3505 	 95.3916
| 41> *
| 42>
| 43>                          ****END OF INPUT****

CARTESIAN COORDINATES (ANGSTROEM)
---------------------------------
  S    -36.363100   48.287800   94.871900
  C    -35.026300   49.351100   95.352700
  C    -35.346900   50.039200   96.512800
  C    -36.793400   49.924000   96.722700
  C    -37.525100   49.146000   95.879200
  H    -37.372700   50.461100   97.520600
  C    -34.338300   50.886300   97.324000
  H    -34.667200   51.927500   97.406600
  H    -33.471100   50.944700   96.681500
  C    -33.693700   50.387100   98.619300
  H    -32.970400   49.616000   98.385100
  H    -33.008400   51.159500   99.039700
  C    -34.755300   50.073600   99.703100
  H    -35.202500   50.870200  100.238000
  H    -35.541300   49.457100   99.397100
  H    -34.232300   49.526900  100.494000
  S    -39.580800   47.262100   95.525200
  C    -41.187300   47.879100   95.567300
  C    -41.213200   49.224600   95.840000
  C    -39.990600   49.810100   96.031100
  C    -38.934300   48.935200   95.777800
  H    -42.098400   49.773600   95.835900
  C    -39.898300   51.325400   96.378200
  H    -40.469500   51.848000   95.530000
  H    -38.907900   51.785800   96.208100
  C    -40.332000   51.651800   97.784000
  H    -40.024200   50.869700   98.421000
  H    -41.408100   51.607000   97.837200
  C    -39.945100   52.979700   98.327100
  H    -38.861700   53.077800   98.344900
  H    -40.344900   53.137900   99.344000
  H    -40.346300   53.927900   97.817200
  H    -33.991800   49.241000   95.130300
  H    -42.090800   47.350500   95.391600

 Total Charge           Charge          ....    0
 Multiplicity           Mult            ....    1
 Number of Electrons    NEL             ....  134
 Basis Dimension        Dim             ....  322

ORBITAL ENERGIES
----------------

  NO   OCC          E(Eh)            E(eV)
   0   2.0000     -88.971235     -2421.0304
   1   2.0000     -88.961063     -2420.7536
   2   2.0000     -10.331731      -281.1407
   3   2.0000     -10.327747      -281.0323
   4   2.0000     -10.315325      -280.6943
   5   2.0000     -10.314422      -280.6697
   6   2.0000     -10.309638      -280.5395
   7   2.0000     -10.303550      -280.3738
   8   2.0000     -10.300260      -280.2843
   9   2.0000     -10.297415      -280.2069
  10   2.0000     -10.295341      -280.1505
  11   2.0000     -10.293580      -280.1026
  12   2.0000     -10.284815      -279.8640
  13   2.0000     -10.283486      -279.8279
  14   2.0000     -10.281390      -279.7708
  15   2.0000     -10.268778      -279.4276
  16   2.0000      -8.085379      -220.0143
  17   2.0000      -8.075582      -219.7478
  18   2.0000      -6.043913      -164.4632
  19   2.0000      -6.040036      -164.3577
  20   2.0000      -6.036085      -164.2502
  21   2.0000      -6.034407      -164.2046
  22   2.0000      -6.030265      -164.0918
  23   2.0000      -6.025857      -163.9719
  24   2.0000      -1.008034       -27.4300
  25   2.0000      -0.984631       -26.7932
  26   2.0000      -0.916164       -24.9301
  27   2.0000      -0.909749       -24.7555
  28   2.0000      -0.873522       -23.7697
  29   2.0000      -0.860022       -23.4024
  30   2.0000      -0.836412       -22.7599
  31   2.0000      -0.815112       -22.1803
  32   2.0000      -0.789039       -21.4708
  33   2.0000      -0.778211       -21.1762
  34   2.0000      -0.712211       -19.3803
  35   2.0000      -0.704308       -19.1652
  36   2.0000      -0.700323       -19.0568
  37   2.0000      -0.664359       -18.0781
  38   2.0000      -0.639582       -17.4039
  39   2.0000      -0.612207       -16.6590
  40   2.0000      -0.601966       -16.3803
  41   2.0000      -0.570915       -15.5354
  42   2.0000      -0.567084       -15.4312
  43   2.0000      -0.546374       -14.8676
  44   2.0000      -0.543031       -14.7766
  45   2.0000      -0.526659       -14.3311
  46   2.0000      -0.521656       -14.1950
  47   2.0000      -0.513721       -13.9791
  48   2.0000      -0.508241       -13.8299
  49   2.0000      -0.503063       -13.6890
  50   2.0000      -0.492750       -13.4084
  51   2.0000      -0.478573       -13.0226
  52   2.0000      -0.475067       -12.9272
  53   2.0000      -0.464199       -12.6315
  54   2.0000      -0.460571       -12.5328
  55   2.0000      -0.455340       -12.3904
  56   2.0000      -0.447653       -12.1813
  57   2.0000      -0.435990       -11.8639
  58   2.0000      -0.431237       -11.7346
  59   2.0000      -0.425075       -11.5669
  60   2.0000      -0.415144       -11.2967
  61   2.0000      -0.410540       -11.1714
  62   2.0000      -0.407063       -11.0768
  63   2.0000      -0.357476        -9.7274
  64   2.0000      -0.340431        -9.2636
  65   2.0000      -0.324336        -8.8256
  66   2.0000      -0.286469        -7.7952
  67   0.0000       0.019975         0.5435
  68   0.0000       0.067687         1.8419
  69   0.0000       0.106755         2.9050
  70   0.0000       0.120960         3.2915
  71   0.0000       0.127086         3.4582

MULLIKEN ATOMIC CHARGES
-----------------------
   0 S :    0.085561
   1 C :   -0.082260
   2 C :   -0.110048
   3 C :   -0.004272
   4 C :   -0.136893
   5 H :    0.017240
   6 C :    0.061864
   7 H :    0.038114
   8 H :    0.005887
   9 C :   -0.059370
  10 H :    0.026386
  11 H :    0.031240
  12 C :   -0.030406
  13 H :    0.021210
  14 H :    0.030005
  15 H :    0.022291
  16 S :    0.111333
  17 C :   -0.060230
  18 C :   -0.017595
  19 C :   -0.023966
  20 C :   -0.138578
  21 H :   -0.008953
  22 C :    0.018812
  23 H :    0.042786
  24 H :    0.022500
  25 C :   -0.027328
  26 H :    0.026341
  27 H :    0.018717
  28 C :   -0.067425
  29 H :    0.028909
  30 H :    0.035492
  31 H :    0.037452
  32 H :    0.040102
  33 H :    0.045082
Sum of atomic charges:    0.0000000

LOEWDIN ATOMIC CHARGES
----------------------
   0 S :    0.377481
   1 C :   -0.181277
   2 C :   -0.058872
   3 C :   -0.073452
   4 C :   -0.188442
   5 H :    0.032305
   6 C :   -0.036624
   7 H :    0.032675
   8 H :    0.030209
   9 C :   -0.037290
  10 H :    0.023802
  11 H :    0.032846
  12 C :   -0.066284
  13 H :    0.021989
  14 H :    0.018379
  15 H :    0.029702
  16 S :    0.399579
  17 C :   -0.180669
  18 C :   -0.068173
  19 C :   -0.049395
  20 C :   -0.180358
  21 H :    0.022968
  22 C :   -0.034712
  23 H :    0.040144
  24 H :    0.028028
  25 C :   -0.048185
  26 H :    0.024644
  27 H :    0.024692
  28 C :   -0.070958
  29 H :    0.020600
  30 H :    0.031023
  31 H :    0.033676
  32 H :    0.023332
  33 H :    0.026615

  Mayer bond orders larger than 0.100000
B(  0-S ,  1-C ) :   1.1279 B(  0-S ,  4-C ) :   1.1090 B(  1-C ,  2-C ) :   1.6516
B(  1-C , 32-H ) :   0.9588 B(  2-C ,  3-C ) :   1.1970 B(  2-C ,  6-C ) :   1.0169
B(  3-C ,  4-C ) :   1.6125 B(  3-C ,  5-H ) :   0.9849 B(  4-C , 20-C ) :   1.0836
B(  6-C ,  7-H ) :   0.9461 B(  6-C ,  8-H ) :   0.9343 B(  6-C ,  9-C ) :   1.0813
B(  9-C , 10-H ) :   0.9593 B(  9-C , 11-H ) :   0.9497 B(  9-C , 12-C ) :   1.0716
B( 12-C , 13-H ) :   0.9754 B( 12-C , 14-H ) :   0.9786 B( 12-C , 15-H ) :   0.9715
B( 16-S , 17-C ) :   1.1610 B( 16-S , 20-C ) :   1.1269 B( 17-C , 18-C ) :   1.5807
B( 17-C , 20-C ) :   0.1109 B( 17-C , 33-H ) :   0.9690 B( 18-C , 19-C ) :   1.2809
B( 18-C , 21-H ) :   0.9989 B( 19-C , 20-C ) :   1.5762 B( 19-C , 22-C ) :   1.0294
B( 22-C , 23-H ) :   0.9358 B( 22-C , 24-H ) :   0.9451 B( 22-C , 25-C ) :   1.0470
B( 25-C , 26-H ) :   0.9501 B( 25-C , 27-H ) :   0.9436 B( 25-C , 28-C ) :   1.1043
B( 28-C , 29-H ) :   0.9730 B( 28-C , 30-H ) :   0.9702 B( 28-C , 31-H ) :   0.9707

Dispersion correction           -0.014203277
FINAL SINGLE POINT ENERGY     -1339.858806851695

DIPOLE MOMENT
-------------
                                X             Y             Z
Electronic contribution:     -5.34899     -22.26963     -20.42310
Nuclear contribution   :      5.26525      22.84848      20.96279
                        -----------------------------------------
Total Dipole Moment    :     -0.08374       0.57886       0.53969
                        -----------------------------------------
Magnitude (a.u.)       :      0.79584
Magnitude (Debye)      :      2.02286

Rotational constants in cm-1:     0.016664     0.009537     0.006833
Rotational constants in MHz :   499.571451   285.920615   204.838344

                             ****ORCA TERMINATED NORMALLY****
TOTAL RUN TIME: 0 days 0 hours 0 minutes 31 seconds 379 msec
