                         Program Version 4.2.1 -  RELEASE  -
|  1> ! wB97X-D3 SP def2-SVP
|  2> %pal
|  3> nprocs 16
|  4> end
|  5>
|  6> * xyz 0 1
|  7> S 	 -70.3383 	 38.4337 	 125.09
|  8> C 	 -70.8926 	 39.9517 	 125.648
|  9> C 	 -70.1531 	 40.3731 	 126.794
| 10> C 	 -69.266 	 39.3438 	 127.278
| 11> C 	 -69.2265 	 38.2506 	 126.432
| 12> H 	 -68.622 	 39.5236 	 128.129
| 13> C 	 -70.3299 	 41.7566 	 127.41
| 14> H 	 -71.3634 	 41.8772 	 127.555
| 15> H 	 -70.0261 	 42.4884 	 126.706
| 16> C 	 -69.4685 	 42.0273 	 128.674
| 17> H 	 -69.3854 	 41.1222 	 129.242
| 18> H 	 -68.4511 	 42.2907 	 128.453
| 19> C 	 -70.0876 	 43.1332 	 129.54
| 20> H 	 -71.0976 	 42.8113 	 129.782
| 21> H 	 -69.5451 	 43.3358 	 130.494
| 22> H 	 -70.1294 	 44.0773 	 128.943
| 23> S 	 -69.2551 	 35.6193 	 126.212
| 24> C 	 -67.761 	 34.7846 	 126.599
| 25> C 	 -66.8563 	 35.5459 	 127.35
| 26> C 	 -67.2311 	 36.9216 	 127.285
| 27> C 	 -68.4616 	 37.0913 	 126.568
| 28> H 	 -65.9576 	 35.096 	 127.844
| 29> C 	 -66.3162 	 38.0051 	 127.934
| 30> H 	 -65.4363 	 37.44 	 128.294
| 31> H 	 -66.8339 	 38.3594 	 128.833
| 32> C 	 -65.9873 	 39.2622 	 127.09
| 33> H 	 -66.8166 	 39.8232 	 126.705
| 34> H 	 -65.5638 	 38.8513 	 126.157
| 35> C 	 -64.9845 	 40.2137 	 127.764
| 36> H 	 -64.0329 	 39.775 	 128.169
| 37> H 	 -65.4846 	 40.6109 	 128.661
| 38> H 	 -64.8072 	 41.0586 	 127.228
| 39> H 	 -71.6114 	 40.6155 	 125.139
| 40> H 	 -67.7371 	 33.6969 	 126.587
| 41> *
| 42>
| 43>                          ****END OF INPUT****

CARTESIAN COORDINATES (ANGSTROEM)
---------------------------------
  S    -70.338300   38.433700  125.090000
  C    -70.892600   39.951700  125.648000
  C    -70.153100   40.373100  126.794000
  C    -69.266000   39.343800  127.278000
  C    -69.226500   38.250600  126.432000
  H    -68.622000   39.523600  128.129000
  C    -70.329900   41.756600  127.410000
  H    -71.363400   41.877200  127.555000
  H    -70.026100   42.488400  126.706000
  C    -69.468500   42.027300  128.674000
  H    -69.385400   41.122200  129.242000
  H    -68.451100   42.290700  128.453000
  C    -70.087600   43.133200  129.540000
  H    -71.097600   42.811300  129.782000
  H    -69.545100   43.335800  130.494000
  H    -70.129400   44.077300  128.943000
  S    -69.255100   35.619300  126.212000
  C    -67.761000   34.784600  126.599000
  C    -66.856300   35.545900  127.350000
  C    -67.231100   36.921600  127.285000
  C    -68.461600   37.091300  126.568000
  H    -65.957600   35.096000  127.844000
  C    -66.316200   38.005100  127.934000
  H    -65.436300   37.440000  128.294000
  H    -66.833900   38.359400  128.833000
  C    -65.987300   39.262200  127.090000
  H    -66.816600   39.823200  126.705000
  H    -65.563800   38.851300  126.157000
  C    -64.984500   40.213700  127.764000
  H    -64.032900   39.775000  128.169000
  H    -65.484600   40.610900  128.661000
  H    -64.807200   41.058600  127.228000
  H    -71.611400   40.615500  125.139000
  H    -67.737100   33.696900  126.587000

 Total Charge           Charge          ....    0
 Multiplicity           Mult            ....    1
 Number of Electrons    NEL             ....  134
 Basis Dimension        Dim             ....  322

ORBITAL ENERGIES
----------------

  NO   OCC          E(Eh)            E(eV)
   0   2.0000     -88.969612     -2420.9862
   1   2.0000     -88.967270     -2420.9225
   2   2.0000     -10.322625      -280.8929
   3   2.0000     -10.320384      -280.8319
   4   2.0000     -10.315984      -280.7122
   5   2.0000     -10.313265      -280.6382
   6   2.0000     -10.308729      -280.5148
   7   2.0000     -10.303950      -280.3847
   8   2.0000     -10.302008      -280.3319
   9   2.0000     -10.300823      -280.2996
  10   2.0000     -10.292682      -280.0781
  11   2.0000     -10.287238      -279.9300
  12   2.0000     -10.285768      -279.8900
  13   2.0000     -10.285366      -279.8790
  14   2.0000     -10.284870      -279.8655
  15   2.0000     -10.275611      -279.6136
  16   2.0000      -8.084918      -220.0018
  17   2.0000      -8.082316      -219.9310
  18   2.0000      -6.043164      -164.4428
  19   2.0000      -6.040711      -164.3761
  20   2.0000      -6.039638      -164.3469
  21   2.0000      -6.036647      -164.2655
  22   2.0000      -6.035625      -164.2377
  23   2.0000      -6.033326      -164.1752
  24   2.0000      -1.011524       -27.5250
  25   2.0000      -0.981322       -26.7031
  26   2.0000      -0.913049       -24.8453
  27   2.0000      -0.903904       -24.5965
  28   2.0000      -0.873895       -23.7799
  29   2.0000      -0.854173       -23.2432
  30   2.0000      -0.846114       -23.0239
  31   2.0000      -0.811677       -22.0869
  32   2.0000      -0.783726       -21.3263
  33   2.0000      -0.764052       -20.7909
  34   2.0000      -0.715965       -19.4824
  35   2.0000      -0.704479       -19.1699
  36   2.0000      -0.685003       -18.6399
  37   2.0000      -0.663348       -18.0506
  38   2.0000      -0.633440       -17.2368
  39   2.0000      -0.624169       -16.9845
  40   2.0000      -0.592642       -16.1266
  41   2.0000      -0.573249       -15.5989
  42   2.0000      -0.558700       -15.2030
  43   2.0000      -0.558069       -15.1858
  44   2.0000      -0.529135       -14.3985
  45   2.0000      -0.520991       -14.1769
  46   2.0000      -0.513602       -13.9758
  47   2.0000      -0.511829       -13.9276
  48   2.0000      -0.500919       -13.6307
  49   2.0000      -0.496181       -13.5018
  50   2.0000      -0.493743       -13.4354
  51   2.0000      -0.487283       -13.2596
  52   2.0000      -0.469399       -12.7730
  53   2.0000      -0.465804       -12.6752
  54   2.0000      -0.460756       -12.5378
  55   2.0000      -0.454339       -12.3632
  56   2.0000      -0.449707       -12.2371
  57   2.0000      -0.440894       -11.9973
  58   2.0000      -0.436515       -11.8782
  59   2.0000      -0.430491       -11.7143
  60   2.0000      -0.422599       -11.4995
  61   2.0000      -0.417881       -11.3711
  62   2.0000      -0.409463       -11.1421
  63   2.0000      -0.354638        -9.6502
  64   2.0000      -0.332169        -9.0388
  65   2.0000      -0.327354        -8.9078
  66   2.0000      -0.273999        -7.4559
  67   0.0000       0.016809         0.4574
  68   0.0000       0.077171         2.0999
  69   0.0000       0.096961         2.6384
  70   0.0000       0.115776         3.1504
  71   0.0000       0.130058         3.5391

MULLIKEN ATOMIC CHARGES
-----------------------
   0 S :    0.123126
   1 C :   -0.125868
   2 C :   -0.145337
   3 C :    0.015065
   4 C :   -0.148207
   5 H :    0.006854
   6 C :    0.102941
   7 H :    0.023465
   8 H :    0.029707
   9 C :   -0.095987
  10 H :    0.033650
  11 H :    0.028557
  12 C :   -0.062242
  13 H :    0.031988
  14 H :    0.042786
  15 H :    0.036681
  16 S :    0.119730
  17 C :   -0.088982
  18 C :   -0.062245
  19 C :   -0.052576
  20 C :   -0.116404
  21 H :    0.044357
  22 C :    0.058838
  23 H :    0.021645
  24 H :    0.032473
  25 C :   -0.081718
  26 H :    0.042764
  27 H :    0.028022
  28 C :   -0.009058
  29 H :    0.036779
  30 H :    0.009108
  31 H :    0.013126
  32 H :    0.054184
  33 H :    0.052779
Sum of atomic charges:   -0.0000000

LOEWDIN ATOMIC CHARGES
----------------------
   0 S :    0.425458
   1 C :   -0.227341
   2 C :   -0.055560
   3 C :   -0.066981
   4 C :   -0.198876
   5 H :    0.029098
   6 C :   -0.025729
   7 H :    0.026937
   8 H :    0.031703
   9 C :   -0.040765
  10 H :    0.017804
  11 H :    0.020869
  12 C :   -0.064615
  13 H :    0.023028
  14 H :    0.029704
  15 H :    0.028050
  16 S :    0.432184
  17 C :   -0.190662
  18 C :   -0.069869
  19 C :   -0.052106
  20 C :   -0.216632
  21 H :    0.043437
  22 C :   -0.030027
  23 H :    0.033694
  24 H :    0.026280
  25 C :   -0.043693
  26 H :    0.025985
  27 H :    0.026639
  28 C :   -0.060970
  29 H :    0.030935
  30 H :    0.024039
  31 H :    0.012749
  32 H :    0.033285
  33 H :    0.021949

  Mayer bond orders larger than 0.100000
B(  0-S ,  1-C ) :   1.1512 B(  0-S ,  4-C ) :   1.1589 B(  1-C ,  2-C ) :   1.5743
B(  1-C ,  4-C ) :   0.1021 B(  1-C , 32-H ) :   0.9693 B(  2-C ,  3-C ) :   1.2951
B(  2-C ,  6-C ) :   1.0022 B(  3-C ,  4-C ) :   1.5133 B(  3-C ,  5-H ) :   0.9802
B(  4-C , 20-C ) :   1.1086 B(  6-C ,  7-H ) :   0.9444 B(  6-C ,  8-H ) :   0.9297
B(  6-C ,  9-C ) :   1.0700 B(  9-C , 10-H ) :   0.9531 B(  9-C , 11-H ) :   0.9541
B(  9-C , 12-C ) :   1.0849 B( 12-C , 13-H ) :   0.9785 B( 12-C , 14-H ) :   0.9733
B( 12-C , 15-H ) :   0.9746 B( 16-S , 17-C ) :   1.1596 B( 16-S , 20-C ) :   1.1693
B( 17-C , 18-C ) :   1.5841 B( 17-C , 20-C ) :   0.1054 B( 17-C , 33-H ) :   0.9658
B( 18-C , 19-C ) :   1.2824 B( 18-C , 21-H ) :   0.9802 B( 19-C , 20-C ) :   1.5219
B( 19-C , 22-C ) :   1.0335 B( 22-C , 23-H ) :   0.9371 B( 22-C , 24-H ) :   0.9281
B( 22-C , 25-C ) :   1.0526 B( 25-C , 26-H ) :   0.9492 B( 25-C , 27-H ) :   0.9526
B( 25-C , 28-C ) :   1.0884 B( 28-C , 29-H ) :   0.9753 B( 28-C , 30-H ) :   0.9680
B( 28-C , 31-H ) :   0.9722

Dispersion correction           -0.014770665
FINAL SINGLE POINT ENERGY     -1339.867655146782

DIPOLE MOMENT
-------------
                                X             Y             Z
Electronic contribution:    -12.57476     -25.77581     -16.63492
Nuclear contribution   :     12.85638      26.23651      17.09557
                        -----------------------------------------
Total Dipole Moment    :      0.28162       0.46071       0.46065
                        -----------------------------------------
Magnitude (a.u.)       :      0.70976
Magnitude (Debye)      :      1.80406

Rotational constants in cm-1:     0.017951     0.009736     0.007056
Rotational constants in MHz :   538.144551   291.866994   211.530770

                             ****ORCA TERMINATED NORMALLY****
TOTAL RUN TIME: 0 days 0 hours 0 minutes 36 seconds 338 msec
