                         Program Version 4.2.1 -  RELEASE  -
|  1> ! wB97X-D3 SP def2-SVP
|  2> %pal
|  3> nprocs 16
|  4> end
|  5>
|  6> * xyz 0 1
|  7> S 	 -22.8044 	 44.5836 	 58.1623
|  8> C 	 -23.9075 	 45.6189 	 59.0733
|  9> C 	 -25.2039 	 45.4135 	 58.6609
| 10> C 	 -25.3636 	 44.3595 	 57.6913
| 11> C 	 -24.1411 	 43.8266 	 57.2357
| 12> H 	 -26.3136 	 43.9838 	 57.3313
| 13> C 	 -26.4664 	 46.1569 	 59.0878
| 14> H 	 -26.8262 	 45.4828 	 59.9328
| 15> H 	 -27.1714 	 45.9855 	 58.2276
| 16> C 	 -26.3175 	 47.6937 	 59.2904
| 17> H 	 -27.2493 	 48.0863 	 59.715
| 18> H 	 -25.5024 	 48.0237 	 59.9177
| 19> C 	 -25.9913 	 48.4548 	 57.9484
| 20> H 	 -26.8737 	 48.3379 	 57.2916
| 21> H 	 -25.7081 	 49.5452 	 57.9692
| 22> H 	 -25.1162 	 48.0407 	 57.4289
| 23> S 	 -22.7414 	 41.6317 	 56.6054
| 24> C 	 -23.0196 	 40.8449 	 55.1245
| 25> C 	 -24.0281 	 41.4517 	 54.4217
| 26> C 	 -24.6378 	 42.5095 	 55.1376
| 27> C 	 -23.9235 	 42.8409 	 56.2319
| 28> H 	 -24.4087 	 40.9009 	 53.629
| 29> C 	 -25.9305 	 43.0949 	 54.5714
| 30> H 	 -25.8342 	 43.0279 	 53.4501
| 31> H 	 -25.9208 	 44.1973 	 54.7529
| 32> C 	 -27.172 	 42.375 	 55.0286
| 33> H 	 -27.9544 	 42.9549 	 54.5836
| 34> H 	 -27.269 	 42.3455 	 56.1304
| 35> C 	 -27.2691 	 40.981 	 54.4632
| 36> H 	 -28.1786 	 40.4897 	 54.6916
| 37> H 	 -26.5334 	 40.3019 	 54.9212
| 38> H 	 -27.0112 	 40.9565 	 53.3938
| 39> H 	 -23.6159 	 46.4079 	 59.6838
| 40> H 	 -22.6272 	 39.8821 	 54.8652
| 41> *
| 42>
| 43>                          ****END OF INPUT****

CARTESIAN COORDINATES (ANGSTROEM)
---------------------------------
  S    -22.804400   44.583600   58.162300
  C    -23.907500   45.618900   59.073300
  C    -25.203900   45.413500   58.660900
  C    -25.363600   44.359500   57.691300
  C    -24.141100   43.826600   57.235700
  H    -26.313600   43.983800   57.331300
  C    -26.466400   46.156900   59.087800
  H    -26.826200   45.482800   59.932800
  H    -27.171400   45.985500   58.227600
  C    -26.317500   47.693700   59.290400
  H    -27.249300   48.086300   59.715000
  H    -25.502400   48.023700   59.917700
  C    -25.991300   48.454800   57.948400
  H    -26.873700   48.337900   57.291600
  H    -25.708100   49.545200   57.969200
  H    -25.116200   48.040700   57.428900
  S    -22.741400   41.631700   56.605400
  C    -23.019600   40.844900   55.124500
  C    -24.028100   41.451700   54.421700
  C    -24.637800   42.509500   55.137600
  C    -23.923500   42.840900   56.231900
  H    -24.408700   40.900900   53.629000
  C    -25.930500   43.094900   54.571400
  H    -25.834200   43.027900   53.450100
  H    -25.920800   44.197300   54.752900
  C    -27.172000   42.375000   55.028600
  H    -27.954400   42.954900   54.583600
  H    -27.269000   42.345500   56.130400
  C    -27.269100   40.981000   54.463200
  H    -28.178600   40.489700   54.691600
  H    -26.533400   40.301900   54.921200
  H    -27.011200   40.956500   53.393800
  H    -23.615900   46.407900   59.683800
  H    -22.627200   39.882100   54.865200

 Total Charge           Charge          ....    0
 Multiplicity           Mult            ....    1
 Number of Electrons    NEL             ....  134
 Basis Dimension        Dim             ....  322

ORBITAL ENERGIES
----------------

  NO   OCC          E(Eh)            E(eV)
   0   2.0000     -88.963769     -2420.8272
   1   2.0000     -88.963373     -2420.8165
   2   2.0000     -10.332943      -281.1737
   3   2.0000     -10.319305      -280.8026
   4   2.0000     -10.310580      -280.5651
   5   2.0000     -10.308167      -280.4995
   6   2.0000     -10.305253      -280.4202
   7   2.0000     -10.300161      -280.2816
   8   2.0000     -10.298254      -280.2297
   9   2.0000     -10.298055      -280.2243
  10   2.0000     -10.296477      -280.1814
  11   2.0000     -10.294712      -280.1333
  12   2.0000     -10.288831      -279.9733
  13   2.0000     -10.284272      -279.8493
  14   2.0000     -10.283195      -279.8200
  15   2.0000     -10.276579      -279.6399
  16   2.0000      -8.079776      -219.8619
  17   2.0000      -8.077488      -219.7996
  18   2.0000      -6.038137      -164.3061
  19   2.0000      -6.036167      -164.2525
  20   2.0000      -6.034122      -164.1968
  21   2.0000      -6.032138      -164.1428
  22   2.0000      -6.030496      -164.0981
  23   2.0000      -6.028124      -164.0336
  24   2.0000      -1.016259       -27.6538
  25   2.0000      -0.981226       -26.7005
  26   2.0000      -0.920336       -25.0436
  27   2.0000      -0.905197       -24.6317
  28   2.0000      -0.872273       -23.7357
  29   2.0000      -0.855687       -23.2844
  30   2.0000      -0.841704       -22.9039
  31   2.0000      -0.811665       -22.0865
  32   2.0000      -0.786367       -21.3981
  33   2.0000      -0.771283       -20.9877
  34   2.0000      -0.714352       -19.4385
  35   2.0000      -0.705424       -19.1956
  36   2.0000      -0.695408       -18.9230
  37   2.0000      -0.670512       -18.2456
  38   2.0000      -0.637750       -17.3541
  39   2.0000      -0.608290       -16.5524
  40   2.0000      -0.597530       -16.2596
  41   2.0000      -0.573225       -15.5983
  42   2.0000      -0.561842       -15.2885
  43   2.0000      -0.551986       -15.0203
  44   2.0000      -0.549420       -14.9505
  45   2.0000      -0.541077       -14.7235
  46   2.0000      -0.514795       -14.0083
  47   2.0000      -0.512494       -13.9457
  48   2.0000      -0.506163       -13.7734
  49   2.0000      -0.497604       -13.5405
  50   2.0000      -0.487381       -13.2623
  51   2.0000      -0.477360       -12.9896
  52   2.0000      -0.471244       -12.8232
  53   2.0000      -0.467074       -12.7097
  54   2.0000      -0.456686       -12.4270
  55   2.0000      -0.451325       -12.2812
  56   2.0000      -0.448194       -12.1960
  57   2.0000      -0.441966       -12.0265
  58   2.0000      -0.431792       -11.7497
  59   2.0000      -0.424104       -11.5404
  60   2.0000      -0.417321       -11.3559
  61   2.0000      -0.413430       -11.2500
  62   2.0000      -0.411964       -11.2101
  63   2.0000      -0.356898        -9.7117
  64   2.0000      -0.333292        -9.0693
  65   2.0000      -0.324863        -8.8400
  66   2.0000      -0.285794        -7.7768
  67   0.0000       0.026052         0.7089
  68   0.0000       0.076883         2.0921
  69   0.0000       0.109252         2.9729
  70   0.0000       0.119308         3.2465
  71   0.0000       0.133635         3.6364

MULLIKEN ATOMIC CHARGES
-----------------------
   0 S :    0.092275
   1 C :   -0.098287
   2 C :   -0.106652
   3 C :    0.011470
   4 C :   -0.134361
   5 H :   -0.004338
   6 C :    0.032706
   7 H :    0.067789
   8 H :    0.032584
   9 C :   -0.044733
  10 H :    0.038099
  11 H :    0.033360
  12 C :   -0.113842
  13 H :    0.033129
  14 H :    0.046767
  15 H :    0.046166
  16 S :    0.112471
  17 C :   -0.082890
  18 C :   -0.006939
  19 C :   -0.066979
  20 C :   -0.119104
  21 H :   -0.008265
  22 C :    0.004854
  23 H :    0.033907
  24 H :    0.040409
  25 C :   -0.026622
  26 H :    0.028948
  27 H :    0.046429
  28 C :   -0.051340
  29 H :    0.027369
  30 H :    0.033340
  31 H :    0.028140
  32 H :    0.024681
  33 H :    0.049460
Sum of atomic charges:    0.0000000

LOEWDIN ATOMIC CHARGES
----------------------
   0 S :    0.376693
   1 C :   -0.193591
   2 C :   -0.062663
   3 C :   -0.069733
   4 C :   -0.170779
   5 H :    0.025665
   6 C :   -0.038432
   7 H :    0.048593
   8 H :    0.034371
   9 C :   -0.040464
  10 H :    0.027857
  11 H :    0.021705
  12 C :   -0.077973
  13 H :    0.023220
  14 H :    0.033022
  15 H :    0.027904
  16 S :    0.433111
  17 C :   -0.190055
  18 C :   -0.068644
  19 C :   -0.054942
  20 C :   -0.206465
  21 H :    0.019069
  22 C :   -0.035652
  23 H :    0.036321
  24 H :    0.033923
  25 C :   -0.038431
  26 H :    0.025690
  27 H :    0.027891
  28 C :   -0.064956
  29 H :    0.022063
  30 H :    0.028023
  31 H :    0.025425
  32 H :    0.015665
  33 H :    0.026572

  Mayer bond orders larger than 0.100000
B(  0-S ,  1-C ) :   1.1096 B(  0-S ,  4-C ) :   1.1428 B(  1-C ,  2-C ) :   1.6274
B(  1-C , 32-H ) :   0.9772 B(  2-C ,  3-C ) :   1.2368 B(  2-C ,  6-C ) :   0.9905
B(  3-C ,  4-C ) :   1.5662 B(  3-C ,  5-H ) :   0.9868 B(  4-C , 20-C ) :   1.0744
B(  6-C ,  7-H ) :   0.9391 B(  6-C ,  8-H ) :   0.9514 B(  6-C ,  9-C ) :   1.0538
B(  9-C , 10-H ) :   0.9591 B(  9-C , 11-H ) :   0.9628 B(  9-C , 12-C ) :   1.0546
B( 12-C , 13-H ) :   0.9781 B( 12-C , 14-H ) :   0.9778 B( 12-C , 15-H ) :   0.9769
B( 16-S , 17-C ) :   1.1716 B( 16-S , 20-C ) :   1.1396 B( 17-C , 18-C ) :   1.6036
B( 17-C , 33-H ) :   0.9672 B( 18-C , 19-C ) :   1.2498 B( 18-C , 21-H ) :   0.9911
B( 19-C , 20-C ) :   1.6128 B( 19-C , 22-C ) :   1.0261 B( 22-C , 23-H ) :   0.9397
B( 22-C , 24-H ) :   0.9349 B( 22-C , 25-C ) :   1.0719 B( 25-C , 26-H ) :   0.9503
B( 25-C , 27-H ) :   0.9458 B( 25-C , 28-C ) :   1.0914 B( 28-C , 29-H ) :   0.9681
B( 28-C , 30-H ) :   0.9655 B( 28-C , 31-H ) :   0.9716

Dispersion correction           -0.015021088
FINAL SINGLE POINT ENERGY     -1339.873620785424

DIPOLE MOMENT
-------------
                                X             Y             Z
Electronic contribution:     23.74636     -10.29046       5.22837
Nuclear contribution   :    -24.51228      10.25219      -5.45748
                        -----------------------------------------
Total Dipole Moment    :     -0.76592      -0.03828      -0.22912
                        -----------------------------------------
Magnitude (a.u.)       :      0.80037
Magnitude (Debye)      :      2.03438

Rotational constants in cm-1:     0.021268     0.008707     0.006675
Rotational constants in MHz :   637.598082   261.028765   200.125103

                             ****ORCA TERMINATED NORMALLY****
TOTAL RUN TIME: 0 days 0 hours 0 minutes 35 seconds 963 msec
