                         Program Version 4.2.1 -  RELEASE  -
|  1> ! wB97X-D3 SP def2-SVP
|  2> %pal
|  3> nprocs 16
|  4> end
|  5>
|  6> * xyz 0 1
|  7> S 	 18.9617 	 -8.70156 	 82.1185
|  8> C 	 17.968 	 -7.2776 	 82.2777
|  9> C 	 16.602 	 -7.56362 	 82.4154
| 10> C 	 16.374 	 -8.9295 	 82.6004
| 11> C 	 17.5447 	 -9.66385 	 82.4076
| 12> H 	 15.3802 	 -9.35445 	 82.7692
| 13> C 	 15.5651 	 -6.49153 	 82.5478
| 14> H 	 16.0911 	 -5.71934 	 83.1122
| 15> H 	 14.7703 	 -6.7985 	 83.1686
| 16> C 	 14.9402 	 -5.87835 	 81.2953
| 17> H 	 15.7682 	 -5.43235 	 80.6684
| 18> H 	 14.5386 	 -6.70251 	 80.7202
| 19> C 	 13.8682 	 -4.80157 	 81.7241
| 20> H 	 13.3037 	 -5.21047 	 82.5661
| 21> H 	 14.3017 	 -3.94175 	 82.1889
| 22> H 	 13.286 	 -4.48658 	 80.8705
| 23> S 	 17.1947 	 -11.8064 	 84.0684
| 24> C 	 17.7584 	 -13.3638 	 83.6321
| 25> C 	 18.3374 	 -13.3306 	 82.388
| 26> C 	 18.2719 	 -12.0546 	 81.7453
| 27> C 	 17.6893 	 -11.0985 	 82.5685
| 28> H 	 18.7477 	 -14.2774 	 82.0273
| 29> C 	 18.9083 	 -11.8169 	 80.3529
| 30> H 	 19.6513 	 -12.6542 	 80.2832
| 31> H 	 19.5374 	 -10.9297 	 80.6033
| 32> C 	 18.0248 	 -11.6819 	 79.1135
| 33> H 	 18.8199 	 -11.3062 	 78.4461
| 34> H 	 17.261 	 -10.9025 	 79.3179
| 35> C 	 17.3733 	 -12.9112 	 78.4355
| 36> H 	 18.111 	 -13.7076 	 78.1101
| 37> H 	 16.9692 	 -12.6554 	 77.5473
| 38> H 	 16.6 	 -13.408 	 78.9149
| 39> H 	 18.3632 	 -6.27538 	 82.0143
| 40> H 	 17.7754 	 -14.2971 	 84.1568
| 41> *
| 42>
| 43>                          ****END OF INPUT****

CARTESIAN COORDINATES (ANGSTROEM)
---------------------------------
  S     18.961700   -8.701560   82.118500
  C     17.968000   -7.277600   82.277700
  C     16.602000   -7.563620   82.415400
  C     16.374000   -8.929500   82.600400
  C     17.544700   -9.663850   82.407600
  H     15.380200   -9.354450   82.769200
  C     15.565100   -6.491530   82.547800
  H     16.091100   -5.719340   83.112200
  H     14.770300   -6.798500   83.168600
  C     14.940200   -5.878350   81.295300
  H     15.768200   -5.432350   80.668400
  H     14.538600   -6.702510   80.720200
  C     13.868200   -4.801570   81.724100
  H     13.303700   -5.210470   82.566100
  H     14.301700   -3.941750   82.188900
  H     13.286000   -4.486580   80.870500
  S     17.194700  -11.806400   84.068400
  C     17.758400  -13.363800   83.632100
  C     18.337400  -13.330600   82.388000
  C     18.271900  -12.054600   81.745300
  C     17.689300  -11.098500   82.568500
  H     18.747700  -14.277400   82.027300
  C     18.908300  -11.816900   80.352900
  H     19.651300  -12.654200   80.283200
  H     19.537400  -10.929700   80.603300
  C     18.024800  -11.681900   79.113500
  H     18.819900  -11.306200   78.446100
  H     17.261000  -10.902500   79.317900
  C     17.373300  -12.911200   78.435500
  H     18.111000  -13.707600   78.110100
  H     16.969200  -12.655400   77.547300
  H     16.600000  -13.408000   78.914900
  H     18.363200   -6.275380   82.014300
  H     17.775400  -14.297100   84.156800

 Total Charge           Charge          ....    0
 Multiplicity           Mult            ....    1
 Number of Electrons    NEL             ....  134
 Basis Dimension        Dim             ....  322

ORBITAL ENERGIES
----------------

  NO   OCC          E(Eh)            E(eV)
   0   2.0000     -88.972663     -2421.0692
   1   2.0000     -88.962725     -2420.7988
   2   2.0000     -10.328218      -281.0451
   3   2.0000     -10.318340      -280.7763
   4   2.0000     -10.314276      -280.6657
   5   2.0000     -10.306490      -280.4538
   6   2.0000     -10.298716      -280.2423
   7   2.0000     -10.297617      -280.2124
   8   2.0000     -10.295392      -280.1519
   9   2.0000     -10.294618      -280.1308
  10   2.0000     -10.292119      -280.0628
  11   2.0000     -10.291651      -280.0501
  12   2.0000     -10.286277      -279.9038
  13   2.0000     -10.284034      -279.8428
  14   2.0000     -10.280743      -279.7532
  15   2.0000     -10.268518      -279.4206
  16   2.0000      -8.087159      -220.0628
  17   2.0000      -8.078084      -219.8159
  18   2.0000      -6.045472      -164.5056
  19   2.0000      -6.041774      -164.4050
  20   2.0000      -6.038098      -164.3050
  21   2.0000      -6.036597      -164.2642
  22   2.0000      -6.032313      -164.1476
  23   2.0000      -6.029009      -164.0577
  24   2.0000      -1.009940       -27.4819
  25   2.0000      -0.986902       -26.8550
  26   2.0000      -0.913521       -24.8582
  27   2.0000      -0.901009       -24.5177
  28   2.0000      -0.866781       -23.5863
  29   2.0000      -0.855509       -23.2796
  30   2.0000      -0.846366       -23.0308
  31   2.0000      -0.812237       -22.1021
  32   2.0000      -0.788306       -21.4509
  33   2.0000      -0.772176       -21.0120
  34   2.0000      -0.710024       -19.3207
  35   2.0000      -0.704734       -19.1768
  36   2.0000      -0.688706       -18.7406
  37   2.0000      -0.659274       -17.9398
  38   2.0000      -0.637516       -17.3477
  39   2.0000      -0.618656       -16.8345
  40   2.0000      -0.582924       -15.8622
  41   2.0000      -0.574644       -15.6369
  42   2.0000      -0.556077       -15.1316
  43   2.0000      -0.546013       -14.8578
  44   2.0000      -0.540036       -14.6951
  45   2.0000      -0.527511       -14.3543
  46   2.0000      -0.516719       -14.0606
  47   2.0000      -0.510079       -13.8800
  48   2.0000      -0.501493       -13.6463
  49   2.0000      -0.493052       -13.4166
  50   2.0000      -0.485595       -13.2137
  51   2.0000      -0.477131       -12.9834
  52   2.0000      -0.475108       -12.9283
  53   2.0000      -0.466460       -12.6930
  54   2.0000      -0.465063       -12.6550
  55   2.0000      -0.455984       -12.4080
  56   2.0000      -0.442921       -12.0525
  57   2.0000      -0.441931       -12.0255
  58   2.0000      -0.434303       -11.8180
  59   2.0000      -0.429372       -11.6838
  60   2.0000      -0.420344       -11.4381
  61   2.0000      -0.413862       -11.2617
  62   2.0000      -0.401790       -10.9333
  63   2.0000      -0.341146        -9.2830
  64   2.0000      -0.336734        -9.1630
  65   2.0000      -0.327564        -8.9135
  66   2.0000      -0.288996        -7.8640
  67   0.0000       0.031532         0.8580
  68   0.0000       0.072143         1.9631
  69   0.0000       0.108105         2.9417
  70   0.0000       0.116503         3.1702
  71   0.0000       0.130719         3.5570

MULLIKEN ATOMIC CHARGES
-----------------------
   0 S :    0.128238
   1 C :   -0.138818
   2 C :   -0.071394
   3 C :    0.011964
   4 C :   -0.154297
   5 H :    0.022074
   6 C :    0.047218
   7 H :    0.023868
   8 H :    0.002639
   9 C :   -0.070940
  10 H :    0.032899
  11 H :    0.029793
  12 C :   -0.025393
  13 H :    0.025084
  14 H :    0.021877
  15 H :    0.045994
  16 S :    0.125993
  17 C :   -0.079779
  18 C :   -0.069745
  19 C :   -0.048135
  20 C :   -0.164168
  21 H :    0.018016
  22 C :    0.049860
  23 H :    0.019563
  24 H :    0.027318
  25 C :   -0.051776
  26 H :    0.038065
  27 H :    0.044906
  28 C :    0.011549
  29 H :    0.021524
  30 H :    0.001410
  31 H :    0.022441
  32 H :    0.058900
  33 H :    0.043251
Sum of atomic charges:    0.0000000

LOEWDIN ATOMIC CHARGES
----------------------
   0 S :    0.433877
   1 C :   -0.209629
   2 C :   -0.060842
   3 C :   -0.063476
   4 C :   -0.195556
   5 H :    0.037578
   6 C :   -0.036494
   7 H :    0.033570
   8 H :    0.020904
   9 C :   -0.036365
  10 H :    0.026773
  11 H :    0.021509
  12 C :   -0.062218
  13 H :    0.026845
  14 H :    0.023428
  15 H :    0.027882
  16 S :    0.433502
  17 C :   -0.204704
  18 C :   -0.079269
  19 C :   -0.066411
  20 C :   -0.217468
  21 H :    0.031478
  22 C :   -0.040965
  23 H :    0.032402
  24 H :    0.027340
  25 C :   -0.038936
  26 H :    0.035392
  27 H :    0.033180
  28 C :   -0.058968
  29 H :    0.033255
  30 H :    0.014563
  31 H :    0.017812
  32 H :    0.029256
  33 H :    0.030755

  Mayer bond orders larger than 0.100000
B(  0-S ,  1-C ) :   1.1494 B(  0-S ,  4-C ) :   1.1797 B(  1-C ,  2-C ) :   1.5822
B(  1-C ,  4-C ) :   0.1050 B(  1-C , 32-H ) :   0.9598 B(  2-C ,  3-C ) :   1.2774
B(  2-C ,  6-C ) :   1.0166 B(  3-C ,  4-C ) :   1.5260 B(  3-C ,  5-H ) :   0.9968
B(  4-C , 20-C ) :   1.0360 B(  6-C ,  7-H ) :   0.9413 B(  6-C ,  8-H ) :   0.9397
B(  6-C ,  9-C ) :   1.0597 B(  9-C , 10-H ) :   0.9563 B(  9-C , 11-H ) :   0.9577
B(  9-C , 12-C ) :   1.0670 B( 12-C , 13-H ) :   0.9735 B( 12-C , 14-H ) :   0.9749
B( 12-C , 15-H ) :   0.9759 B( 16-S , 17-C ) :   1.1576 B( 16-S , 20-C ) :   1.1528
B( 17-C , 18-C ) :   1.6173 B( 17-C , 33-H ) :   0.9657 B( 18-C , 19-C ) :   1.2550
B( 18-C , 21-H ) :   0.9865 B( 19-C , 20-C ) :   1.5699 B( 19-C , 22-C ) :   1.0097
B( 22-C , 23-H ) :   0.9352 B( 22-C , 24-H ) :   0.9332 B( 22-C , 25-C ) :   1.0589
B( 25-C , 26-H ) :   0.9517 B( 25-C , 27-H ) :   0.9559 B( 25-C , 28-C ) :   1.0789
B( 28-C , 29-H ) :   0.9699 B( 28-C , 30-H ) :   0.9666 B( 28-C , 31-H ) :   0.9751

Dispersion correction           -0.013860116
FINAL SINGLE POINT ENERGY     -1339.870930858355

DIPOLE MOMENT
-------------
                                X             Y             Z
Electronic contribution:     11.36526      -8.86125      16.89725
Nuclear contribution   :    -11.55076       8.97087     -17.26192
                        -----------------------------------------
Total Dipole Moment    :     -0.18549       0.10962      -0.36468
                        -----------------------------------------
Magnitude (a.u.)       :      0.42357
Magnitude (Debye)      :      1.07663

Rotational constants in cm-1:     0.020245     0.007436     0.006592
Rotational constants in MHz :   606.919451   222.933939   197.637431

                             ****ORCA TERMINATED NORMALLY****
TOTAL RUN TIME: 0 days 0 hours 0 minutes 27 seconds 460 msec
