                         Program Version 4.2.1 -  RELEASE  -
|  1> ! wB97X-D3 SP def2-SVP
|  2> %pal
|  3> nprocs 16
|  4> end
|  5>
|  6> * xyz 0 1
|  7> S 	 4.63917 	 -14.6831 	 100.844
|  8> C 	 5.75818 	 -13.3813 	 100.431
|  9> C 	 6.71966 	 -13.8189 	 99.5417
| 10> C 	 6.53831 	 -15.2072 	 99.1288
| 11> C 	 5.47333 	 -15.8161 	 99.7701
| 12> H 	 7.15308 	 -15.7637 	 98.4359
| 13> C 	 7.86622 	 -13.0551 	 99.0243
| 14> H 	 8.78969 	 -13.5762 	 99.2207
| 15> H 	 7.92982 	 -12.0996 	 99.5805
| 16> C 	 7.89105 	 -12.8219 	 97.5022
| 17> H 	 8.92343 	 -12.6794 	 97.123
| 18> H 	 7.42499 	 -13.5742 	 96.8953
| 19> C 	 7.31144 	 -11.4758 	 97.1635
| 20> H 	 7.87322 	 -10.6816 	 97.5126
| 21> H 	 6.90566 	 -11.5258 	 96.1862
| 22> H 	 6.35363 	 -11.365 	 97.7462
| 23> S 	 3.12164 	 -17.2892 	 99.2565
| 24> C 	 3.34492 	 -19.015 	 99.1427
| 25> C 	 4.65658 	 -19.4366 	 99.1998
| 26> C 	 5.55738 	 -18.38 	 99.4316
| 27> C 	 4.90567 	 -17.1589 	 99.4992
| 28> H 	 4.85876 	 -20.5321 	 99.2583
| 29> C 	 7.01653 	 -18.5813 	 99.5395
| 30> H 	 7.42068 	 -17.7268 	 99.0556
| 31> H 	 7.25388 	 -19.4844 	 98.951
| 32> C 	 7.57177 	 -18.7842 	 100.972
| 33> H 	 7.48786 	 -19.8317 	 101.301
| 34> H 	 7.02927 	 -18.2049 	 101.679
| 35> C 	 9.07879 	 -18.56 	 100.891
| 36> H 	 9.45996 	 -18.7194 	 101.832
| 37> H 	 9.36435 	 -17.5296 	 100.628
| 38> H 	 9.56943 	 -19.1857 	 100.093
| 39> H 	 5.65246 	 -12.3677 	 100.774
| 40> H 	 2.50276 	 -19.6859 	 99.1005
| 41> *
| 42>
| 43>                          ****END OF INPUT****

CARTESIAN COORDINATES (ANGSTROEM)
---------------------------------
  S      4.639170  -14.683100  100.844000
  C      5.758180  -13.381300  100.431000
  C      6.719660  -13.818900   99.541700
  C      6.538310  -15.207200   99.128800
  C      5.473330  -15.816100   99.770100
  H      7.153080  -15.763700   98.435900
  C      7.866220  -13.055100   99.024300
  H      8.789690  -13.576200   99.220700
  H      7.929820  -12.099600   99.580500
  C      7.891050  -12.821900   97.502200
  H      8.923430  -12.679400   97.123000
  H      7.424990  -13.574200   96.895300
  C      7.311440  -11.475800   97.163500
  H      7.873220  -10.681600   97.512600
  H      6.905660  -11.525800   96.186200
  H      6.353630  -11.365000   97.746200
  S      3.121640  -17.289200   99.256500
  C      3.344920  -19.015000   99.142700
  C      4.656580  -19.436600   99.199800
  C      5.557380  -18.380000   99.431600
  C      4.905670  -17.158900   99.499200
  H      4.858760  -20.532100   99.258300
  C      7.016530  -18.581300   99.539500
  H      7.420680  -17.726800   99.055600
  H      7.253880  -19.484400   98.951000
  C      7.571770  -18.784200  100.972000
  H      7.487860  -19.831700  101.301000
  H      7.029270  -18.204900  101.679000
  C      9.078790  -18.560000  100.891000
  H      9.459960  -18.719400  101.832000
  H      9.364350  -17.529600  100.628000
  H      9.569430  -19.185700  100.093000
  H      5.652460  -12.367700  100.774000
  H      2.502760  -19.685900   99.100500

 Total Charge           Charge          ....    0
 Multiplicity           Mult            ....    1
 Number of Electrons    NEL             ....  134
 Basis Dimension        Dim             ....  322

ORBITAL ENERGIES
----------------

  NO   OCC          E(Eh)            E(eV)
   0   2.0000     -88.967981     -2420.9418
   1   2.0000     -88.964577     -2420.8492
   2   2.0000     -10.332775      -281.1691
   3   2.0000     -10.327977      -281.0385
   4   2.0000     -10.315395      -280.6962
   5   2.0000     -10.315133      -280.6890
   6   2.0000     -10.302539      -280.3463
   7   2.0000     -10.298405      -280.2338
   8   2.0000     -10.295975      -280.1677
   9   2.0000     -10.293495      -280.1002
  10   2.0000     -10.288936      -279.9762
  11   2.0000     -10.286736      -279.9163
  12   2.0000     -10.284758      -279.8625
  13   2.0000     -10.282550      -279.8024
  14   2.0000     -10.274476      -279.5827
  15   2.0000     -10.265869      -279.3485
  16   2.0000      -8.081977      -219.9218
  17   2.0000      -8.078836      -219.8363
  18   2.0000      -6.040379      -164.3671
  19   2.0000      -6.037552      -164.2901
  20   2.0000      -6.036804      -164.2698
  21   2.0000      -6.033370      -164.1763
  22   2.0000      -6.032681      -164.1576
  23   2.0000      -6.029452      -164.0697
  24   2.0000      -1.001529       -27.2530
  25   2.0000      -0.980761       -26.6879
  26   2.0000      -0.916897       -24.9500
  27   2.0000      -0.913539       -24.8587
  28   2.0000      -0.866781       -23.5863
  29   2.0000      -0.857826       -23.3426
  30   2.0000      -0.846631       -23.0380
  31   2.0000      -0.813035       -22.1238
  32   2.0000      -0.782683       -21.2979
  33   2.0000      -0.770249       -20.9595
  34   2.0000      -0.709708       -19.3121
  35   2.0000      -0.700077       -19.0501
  36   2.0000      -0.692704       -18.8494
  37   2.0000      -0.659413       -17.9435
  38   2.0000      -0.642285       -17.4775
  39   2.0000      -0.621804       -16.9202
  40   2.0000      -0.597983       -16.2719
  41   2.0000      -0.573149       -15.5962
  42   2.0000      -0.564545       -15.3620
  43   2.0000      -0.550916       -14.9912
  44   2.0000      -0.541448       -14.7335
  45   2.0000      -0.533641       -14.5211
  46   2.0000      -0.527397       -14.3512
  47   2.0000      -0.507622       -13.8131
  48   2.0000      -0.501280       -13.6405
  49   2.0000      -0.495683       -13.4882
  50   2.0000      -0.489694       -13.3253
  51   2.0000      -0.483553       -13.1582
  52   2.0000      -0.471356       -12.8262
  53   2.0000      -0.466918       -12.7055
  54   2.0000      -0.456951       -12.4343
  55   2.0000      -0.451130       -12.2759
  56   2.0000      -0.445007       -12.1092
  57   2.0000      -0.437662       -11.9094
  58   2.0000      -0.432340       -11.7646
  59   2.0000      -0.425301       -11.5730
  60   2.0000      -0.421902       -11.4805
  61   2.0000      -0.414867       -11.2891
  62   2.0000      -0.406417       -11.0592
  63   2.0000      -0.347327        -9.4512
  64   2.0000      -0.334752        -9.1091
  65   2.0000      -0.324611        -8.8331
  66   2.0000      -0.289575        -7.8797
  67   0.0000       0.027438         0.7466
  68   0.0000       0.072517         1.9733
  69   0.0000       0.104854         2.8532
  70   0.0000       0.113080         3.0771
  71   0.0000       0.134383         3.6567

MULLIKEN ATOMIC CHARGES
-----------------------
   0 S :    0.094260
   1 C :   -0.121681
   2 C :   -0.068593
   3 C :    0.019646
   4 C :   -0.147149
   5 H :    0.025743
   6 C :    0.069063
   7 H :    0.028554
   8 H :    0.017608
   9 C :   -0.085202
  10 H :    0.028473
  11 H :    0.031796
  12 C :   -0.017573
  13 H :    0.023673
  14 H :    0.024468
  15 H :    0.006775
  16 S :    0.110669
  17 C :   -0.095231
  18 C :   -0.041191
  19 C :   -0.047586
  20 C :   -0.162765
  21 H :    0.033901
  22 C :    0.094726
  23 H :   -0.006827
  24 H :    0.025029
  25 C :   -0.046608
  26 H :    0.027127
  27 H :    0.034346
  28 C :   -0.027631
  29 H :    0.015925
  30 H :    0.025554
  31 H :    0.034622
  32 H :    0.045305
  33 H :    0.050774
Sum of atomic charges:   -0.0000000

LOEWDIN ATOMIC CHARGES
----------------------
   0 S :    0.382873
   1 C :   -0.193247
   2 C :   -0.059273
   3 C :   -0.063530
   4 C :   -0.180575
   5 H :    0.028621
   6 C :   -0.034226
   7 H :    0.033009
   8 H :    0.032189
   9 C :   -0.040281
  10 H :    0.027269
  11 H :    0.022454
  12 C :   -0.061684
  13 H :    0.014184
  14 H :    0.024586
  15 H :    0.025483
  16 S :    0.385871
  17 C :   -0.178501
  18 C :   -0.078270
  19 C :   -0.054341
  20 C :   -0.187111
  21 H :    0.040862
  22 C :   -0.028790
  23 H :    0.022816
  24 H :    0.036216
  25 C :   -0.027350
  26 H :    0.027745
  27 H :    0.022215
  28 C :   -0.059110
  29 H :    0.012790
  30 H :    0.023596
  31 H :    0.032052
  32 H :    0.027379
  33 H :    0.024076

  Mayer bond orders larger than 0.100000
B(  0-S ,  1-C ) :   1.1137 B(  0-S ,  4-C ) :   1.1401 B(  1-C ,  2-C ) :   1.6295
B(  1-C , 32-H ) :   0.9690 B(  2-C ,  3-C ) :   1.2026 B(  2-C ,  6-C ) :   1.0510
B(  3-C ,  4-C ) :   1.6033 B(  3-C ,  5-H ) :   0.9819 B(  4-C , 20-C ) :   1.0394
B(  6-C ,  7-H ) :   0.9338 B(  6-C ,  8-H ) :   0.9439 B(  6-C ,  9-C ) :   1.0472
B(  9-C , 10-H ) :   0.9577 B(  9-C , 11-H ) :   0.9625 B(  9-C , 12-C ) :   1.0878
B( 12-C , 13-H ) :   0.9770 B( 12-C , 14-H ) :   0.9693 B( 12-C , 15-H ) :   0.9709
B( 16-S , 17-C ) :   1.1555 B( 16-S , 20-C ) :   1.1237 B( 17-C , 18-C ) :   1.6227
B( 17-C , 33-H ) :   0.9645 B( 18-C , 19-C ) :   1.2428 B( 18-C , 21-H ) :   0.9812
B( 19-C , 20-C ) :   1.6039 B( 19-C , 22-C ) :   1.0422 B( 22-C , 23-H ) :   0.9340
B( 22-C , 24-H ) :   0.9212 B( 22-C , 25-C ) :   1.0577 B( 25-C , 26-H ) :   0.9513
B( 25-C , 27-H ) :   0.9619 B( 25-C , 28-C ) :   1.0817 B( 28-C , 29-H ) :   0.9733
B( 28-C , 30-H ) :   0.9760 B( 28-C , 31-H ) :   0.9705

Dispersion correction           -0.014206987
FINAL SINGLE POINT ENERGY     -1339.871652457503

DIPOLE MOMENT
-------------
                                X             Y             Z
Electronic contribution:    -24.93725      -4.34797       5.76224
Nuclear contribution   :     25.51305       4.16128      -5.87832
                        -----------------------------------------
Total Dipole Moment    :      0.57580      -0.18669      -0.11608
                        -----------------------------------------
Magnitude (a.u.)       :      0.61634
Magnitude (Debye)      :      1.56661

Rotational constants in cm-1:     0.018027     0.008775     0.007094
Rotational constants in MHz :   540.450653   263.080796   212.668228

                             ****ORCA TERMINATED NORMALLY****
TOTAL RUN TIME: 0 days 0 hours 0 minutes 36 seconds 572 msec
