                         Program Version 4.2.1 -  RELEASE  -
|  1> ! wB97X-D3 SP def2-SVP
|  2> %pal
|  3> nprocs 16
|  4> end
|  5>
|  6> * xyz 0 1
|  7> S 	 -12.4469 	 40.8282 	 33.1685
|  8> C 	 -13.9527 	 41.3793 	 33.9556
|  9> C 	 -14.3512 	 40.5419 	 34.9559
| 10> C 	 -13.4802 	 39.3996 	 35.1297
| 11> C 	 -12.4596 	 39.4049 	 34.2213
| 12> H 	 -13.52 	 38.7135 	 35.9434
| 13> C 	 -15.5975 	 40.7486 	 35.8421
| 14> H 	 -16.4171 	 40.3215 	 35.2585
| 15> H 	 -15.7535 	 41.8599 	 35.8575
| 16> C 	 -15.6436 	 40.1019 	 37.2522
| 17> H 	 -15.45 	 39.003 	 37.163
| 18> H 	 -14.7549 	 40.5075 	 37.7532
| 19> C 	 -16.8356 	 40.2655 	 38.1221
| 20> H 	 -17.8154 	 40.138 	 37.628
| 21> H 	 -16.7198 	 39.631 	 39.0316
| 22> H 	 -16.9636 	 41.2944 	 38.572
| 23> S 	 -9.85998 	 39.0861 	 34.567
| 24> C 	 -9.20745 	 37.4455 	 34.368
| 25> C 	 -10.1738 	 36.4777 	 34.2963
| 26> C 	 -11.424 	 37.1198 	 34.0984
| 27> C 	 -11.4238 	 38.4583 	 34.1917
| 28> H 	 -10.0289 	 35.3993 	 34.247
| 29> C 	 -12.6577 	 36.321 	 34.0388
| 30> H 	 -12.5805 	 35.6312 	 33.2065
| 31> H 	 -13.4681 	 36.9956 	 33.6798
| 32> C 	 -13.0211 	 35.6446 	 35.3218
| 33> H 	 -14.1071 	 35.5948 	 35.3784
| 34> H 	 -12.7624 	 36.203 	 36.1832
| 35> C 	 -12.6651 	 34.1083 	 35.3284
| 36> H 	 -12.7631 	 33.9066 	 36.3553
| 37> H 	 -11.623 	 33.8943 	 35.1317
| 38> H 	 -13.2911 	 33.5507 	 34.6778
| 39> H 	 -14.6659 	 42.031 	 33.4877
| 40> H 	 -8.13688 	 37.2543 	 34.5564
| 41> *
| 42>
| 43>                          ****END OF INPUT****

CARTESIAN COORDINATES (ANGSTROEM)
---------------------------------
  S    -12.446900   40.828200   33.168500
  C    -13.952700   41.379300   33.955600
  C    -14.351200   40.541900   34.955900
  C    -13.480200   39.399600   35.129700
  C    -12.459600   39.404900   34.221300
  H    -13.520000   38.713500   35.943400
  C    -15.597500   40.748600   35.842100
  H    -16.417100   40.321500   35.258500
  H    -15.753500   41.859900   35.857500
  C    -15.643600   40.101900   37.252200
  H    -15.450000   39.003000   37.163000
  H    -14.754900   40.507500   37.753200
  C    -16.835600   40.265500   38.122100
  H    -17.815400   40.138000   37.628000
  H    -16.719800   39.631000   39.031600
  H    -16.963600   41.294400   38.572000
  S     -9.859980   39.086100   34.567000
  C     -9.207450   37.445500   34.368000
  C    -10.173800   36.477700   34.296300
  C    -11.424000   37.119800   34.098400
  C    -11.423800   38.458300   34.191700
  H    -10.028900   35.399300   34.247000
  C    -12.657700   36.321000   34.038800
  H    -12.580500   35.631200   33.206500
  H    -13.468100   36.995600   33.679800
  C    -13.021100   35.644600   35.321800
  H    -14.107100   35.594800   35.378400
  H    -12.762400   36.203000   36.183200
  C    -12.665100   34.108300   35.328400
  H    -12.763100   33.906600   36.355300
  H    -11.623000   33.894300   35.131700
  H    -13.291100   33.550700   34.677800
  H    -14.665900   42.031000   33.487700
  H     -8.136880   37.254300   34.556400

 Total Charge           Charge          ....    0
 Multiplicity           Mult            ....    1
 Number of Electrons    NEL             ....  134
 Basis Dimension        Dim             ....  322

ORBITAL ENERGIES
----------------

  NO   OCC          E(Eh)            E(eV)
   0   2.0000     -88.965936     -2420.8862
   1   2.0000     -88.960305     -2420.7330
   2   2.0000     -10.324562      -280.9456
   3   2.0000     -10.318182      -280.7720
   4   2.0000     -10.309697      -280.5411
   5   2.0000     -10.309229      -280.5284
   6   2.0000     -10.303077      -280.3610
   7   2.0000     -10.299010      -280.2503
   8   2.0000     -10.294093      -280.1165
   9   2.0000     -10.292336      -280.0687
  10   2.0000     -10.291475      -280.0453
  11   2.0000     -10.288199      -279.9561
  12   2.0000     -10.287701      -279.9426
  13   2.0000     -10.282849      -279.8105
  14   2.0000     -10.277962      -279.6776
  15   2.0000     -10.274769      -279.5907
  16   2.0000      -8.079884      -219.8648
  17   2.0000      -8.075674      -219.7503
  18   2.0000      -6.038468      -164.3151
  19   2.0000      -6.034650      -164.2112
  20   2.0000      -6.034161      -164.1979
  21   2.0000      -6.030456      -164.0970
  22   2.0000      -6.030323      -164.0934
  23   2.0000      -6.026184      -163.9808
  24   2.0000      -1.013742       -27.5853
  25   2.0000      -0.982169       -26.7262
  26   2.0000      -0.914656       -24.8891
  27   2.0000      -0.909533       -24.7496
  28   2.0000      -0.877923       -23.8895
  29   2.0000      -0.852543       -23.1989
  30   2.0000      -0.846853       -23.0440
  31   2.0000      -0.817436       -22.2436
  32   2.0000      -0.784162       -21.3381
  33   2.0000      -0.772255       -21.0141
  34   2.0000      -0.713356       -19.4114
  35   2.0000      -0.701584       -19.0911
  36   2.0000      -0.689459       -18.7611
  37   2.0000      -0.669946       -18.2302
  38   2.0000      -0.639173       -17.3928
  39   2.0000      -0.618807       -16.8386
  40   2.0000      -0.600932       -16.3522
  41   2.0000      -0.568146       -15.4600
  42   2.0000      -0.560653       -15.2562
  43   2.0000      -0.546998       -14.8846
  44   2.0000      -0.542281       -14.7562
  45   2.0000      -0.533210       -14.5094
  46   2.0000      -0.518646       -14.1131
  47   2.0000      -0.517361       -14.0781
  48   2.0000      -0.507768       -13.8171
  49   2.0000      -0.498141       -13.5551
  50   2.0000      -0.491257       -13.3678
  51   2.0000      -0.481642       -13.1061
  52   2.0000      -0.475675       -12.9438
  53   2.0000      -0.467781       -12.7290
  54   2.0000      -0.459868       -12.5136
  55   2.0000      -0.453336       -12.3359
  56   2.0000      -0.448616       -12.2075
  57   2.0000      -0.443509       -12.0685
  58   2.0000      -0.428978       -11.6731
  59   2.0000      -0.421266       -11.4632
  60   2.0000      -0.414890       -11.2897
  61   2.0000      -0.413515       -11.2523
  62   2.0000      -0.401554       -10.9268
  63   2.0000      -0.345932        -9.4133
  64   2.0000      -0.330668        -8.9979
  65   2.0000      -0.327260        -8.9052
  66   2.0000      -0.293631        -7.9901
  67   0.0000       0.034574         0.9408
  68   0.0000       0.064960         1.7677
  69   0.0000       0.105618         2.8740
  70   0.0000       0.121417         3.3039
  71   0.0000       0.130567         3.5529

MULLIKEN ATOMIC CHARGES
-----------------------
   0 S :    0.107984
   1 C :   -0.124135
   2 C :   -0.089844
   3 C :    0.027402
   4 C :   -0.147862
   5 H :    0.003841
   6 C :    0.059864
   7 H :    0.036767
   8 H :    0.036501
   9 C :   -0.107311
  10 H :    0.040169
  11 H :    0.035511
  12 C :   -0.051390
  13 H :    0.035326
  14 H :    0.044299
  15 H :    0.030494
  16 S :    0.099595
  17 C :   -0.093633
  18 C :   -0.024887
  19 C :   -0.053913
  20 C :   -0.150040
  21 H :    0.026866
  22 C :    0.056656
  23 H :    0.014708
  24 H :    0.028761
  25 C :   -0.067441
  26 H :    0.021669
  27 H :    0.028402
  28 C :   -0.010841
  29 H :    0.019455
  30 H :    0.017552
  31 H :    0.038116
  32 H :    0.049082
  33 H :    0.062277
Sum of atomic charges:   -0.0000000

LOEWDIN ATOMIC CHARGES
----------------------
   0 S :    0.380653
   1 C :   -0.195830
   2 C :   -0.054470
   3 C :   -0.057688
   4 C :   -0.179952
   5 H :    0.026273
   6 C :   -0.036560
   7 H :    0.032142
   8 H :    0.035259
   9 C :   -0.054821
  10 H :    0.028208
  11 H :    0.029143
  12 C :   -0.074791
  13 H :    0.027491
  14 H :    0.036212
  15 H :    0.029698
  16 S :    0.397649
  17 C :   -0.168144
  18 C :   -0.065855
  19 C :   -0.060768
  20 C :   -0.210831
  21 H :    0.035828
  22 C :   -0.040843
  23 H :    0.027565
  24 H :    0.034004
  25 C :   -0.035489
  26 H :    0.029153
  27 H :    0.018026
  28 C :   -0.050717
  29 H :    0.023584
  30 H :    0.017485
  31 H :    0.022693
  32 H :    0.027364
  33 H :    0.028330

  Mayer bond orders larger than 0.100000
B(  0-S ,  1-C ) :   1.1028 B(  0-S ,  4-C ) :   1.1403 B(  1-C ,  2-C ) :   1.6778
B(  1-C , 32-H ) :   0.9617 B(  2-C ,  3-C ) :   1.2082 B(  2-C ,  6-C ) :   1.0048
B(  3-C ,  4-C ) :   1.5902 B(  3-C ,  5-H ) :   0.9949 B(  4-C , 20-C ) :   1.0368
B(  6-C ,  7-H ) :   0.9287 B(  6-C ,  8-H ) :   0.9483 B(  6-C ,  9-C ) :   1.0679
B(  9-C , 10-H ) :   0.9436 B(  9-C , 11-H ) :   0.9550 B(  9-C , 12-C ) :   1.0959
B( 12-C , 13-H ) :   0.9722 B( 12-C , 14-H ) :   0.9698 B( 12-C , 15-H ) :   0.9701
B( 16-S , 17-C ) :   1.1469 B( 16-S , 20-C ) :   1.1273 B( 17-C , 18-C ) :   1.6221
B( 17-C , 33-H ) :   0.9631 B( 18-C , 19-C ) :   1.2082 B( 18-C , 21-H ) :   0.9902
B( 19-C , 20-C ) :   1.6505 B( 19-C , 22-C ) :   1.0835 B( 22-C , 23-H ) :   0.9251
B( 22-C , 24-H ) :   0.9252 B( 22-C , 25-C ) :   1.0523 B( 25-C , 26-H ) :   0.9529
B( 25-C , 27-H ) :   0.9613 B( 25-C , 28-C ) :   1.0677 B( 28-C , 29-H ) :   0.9717
B( 28-C , 30-H ) :   0.9774 B( 28-C , 31-H ) :   0.9775

Dispersion correction           -0.014539207
FINAL SINGLE POINT ENERGY     -1339.862380496530

DIPOLE MOMENT
-------------
                                X             Y             Z
Electronic contribution:     21.41203      14.21784     -15.86787
Nuclear contribution   :    -21.98476     -14.72165      16.32139
                        -----------------------------------------
Total Dipole Moment    :     -0.57272      -0.50381       0.45352
                        -----------------------------------------
Magnitude (a.u.)       :      0.88742
Magnitude (Debye)      :      2.25565

Rotational constants in cm-1:     0.016919     0.009360     0.006855
Rotational constants in MHz :   507.216704   280.600094   205.514847

                             ****ORCA TERMINATED NORMALLY****
TOTAL RUN TIME: 0 days 0 hours 0 minutes 33 seconds 92 msec
