                         Program Version 4.2.1 -  RELEASE  -
|  1> ! wB97X-D3 SP def2-SVP
|  2> %pal
|  3> nprocs 16
|  4> end
|  5>
|  6> * xyz 0 1
|  7> S 	 9.37095 	 -14.5721 	 55.2609
|  8> C 	 9.26075 	 -14.2644 	 56.9873
|  9> C 	 8.59576 	 -15.2541 	 57.6754
| 10> C 	 7.92065 	 -16.1629 	 56.7163
| 11> C 	 8.35426 	 -16.0242 	 55.4232
| 12> H 	 7.15372 	 -16.8787 	 57.0279
| 13> C 	 8.20434 	 -15.2098 	 59.1315
| 14> H 	 9.18874 	 -15.1585 	 59.7715
| 15> H 	 7.80955 	 -16.1176 	 59.5429
| 16> C 	 7.26872 	 -14.0232 	 59.5503
| 17> H 	 7.28162 	 -14.0389 	 60.6792
| 18> H 	 7.70318 	 -13.0478 	 59.2706
| 19> C 	 5.81947 	 -14.141 	 59.017
| 20> H 	 5.6388 	 -13.9102 	 57.9575
| 21> H 	 5.37693 	 -15.0842 	 59.2566
| 22> H 	 5.34459 	 -13.3588 	 59.6114
| 23> S 	 6.10544 	 -15.7006 	 53.7261
| 24> C 	 5.77379 	 -16.9664 	 52.5641
| 25> C 	 6.62072 	 -18.0424 	 52.8096
| 26> C 	 7.60738 	 -17.7974 	 53.7903
| 27> C 	 7.62448 	 -16.4832 	 54.2154
| 28> H 	 6.29507 	 -18.9305 	 52.3249
| 29> C 	 8.57616 	 -18.7903 	 54.3275
| 30> H 	 9.52517 	 -18.3619 	 54.6469
| 31> H 	 8.76231 	 -19.3844 	 53.4471
| 32> C 	 7.9951 	 -19.6393 	 55.4165
| 33> H 	 7.1663 	 -20.0855 	 55.1106
| 34> H 	 7.85023 	 -19.0253 	 56.3074
| 35> C 	 8.97562 	 -20.7352 	 55.9164
| 36> H 	 9.93834 	 -20.3382 	 56.1426
| 37> H 	 9.17783 	 -21.4111 	 55.039
| 38> H 	 8.52183 	 -21.3731 	 56.6133
| 39> H 	 9.47934 	 -13.3584 	 57.5017
| 40> H 	 4.8263 	 -17.098 	 52.0214
| 41> *
| 42>
| 43>                          ****END OF INPUT****

CARTESIAN COORDINATES (ANGSTROEM)
---------------------------------
  S      9.370950  -14.572100   55.260900
  C      9.260750  -14.264400   56.987300
  C      8.595760  -15.254100   57.675400
  C      7.920650  -16.162900   56.716300
  C      8.354260  -16.024200   55.423200
  H      7.153720  -16.878700   57.027900
  C      8.204340  -15.209800   59.131500
  H      9.188740  -15.158500   59.771500
  H      7.809550  -16.117600   59.542900
  C      7.268720  -14.023200   59.550300
  H      7.281620  -14.038900   60.679200
  H      7.703180  -13.047800   59.270600
  C      5.819470  -14.141000   59.017000
  H      5.638800  -13.910200   57.957500
  H      5.376930  -15.084200   59.256600
  H      5.344590  -13.358800   59.611400
  S      6.105440  -15.700600   53.726100
  C      5.773790  -16.966400   52.564100
  C      6.620720  -18.042400   52.809600
  C      7.607380  -17.797400   53.790300
  C      7.624480  -16.483200   54.215400
  H      6.295070  -18.930500   52.324900
  C      8.576160  -18.790300   54.327500
  H      9.525170  -18.361900   54.646900
  H      8.762310  -19.384400   53.447100
  C      7.995100  -19.639300   55.416500
  H      7.166300  -20.085500   55.110600
  H      7.850230  -19.025300   56.307400
  C      8.975620  -20.735200   55.916400
  H      9.938340  -20.338200   56.142600
  H      9.177830  -21.411100   55.039000
  H      8.521830  -21.373100   56.613300
  H      9.479340  -13.358400   57.501700
  H      4.826300  -17.098000   52.021400

 Total Charge           Charge          ....    0
 Multiplicity           Mult            ....    1
 Number of Electrons    NEL             ....  134
 Basis Dimension        Dim             ....  322

ORBITAL ENERGIES
----------------

  NO   OCC          E(Eh)            E(eV)
   0   2.0000     -88.964541     -2420.8482
   1   2.0000     -88.962785     -2420.8005
   2   2.0000     -10.328156      -281.0434
   3   2.0000     -10.321450      -280.8609
   4   2.0000     -10.319736      -280.8143
   5   2.0000     -10.314409      -280.6693
   6   2.0000     -10.304443      -280.3981
   7   2.0000     -10.302718      -280.3512
   8   2.0000     -10.300346      -280.2867
   9   2.0000     -10.299488      -280.2633
  10   2.0000     -10.298677      -280.2412
  11   2.0000     -10.291271      -280.0397
  12   2.0000     -10.281571      -279.7758
  13   2.0000     -10.278763      -279.6994
  14   2.0000     -10.272648      -279.5330
  15   2.0000     -10.272369      -279.5254
  16   2.0000      -8.078741      -219.8337
  17   2.0000      -8.077073      -219.7883
  18   2.0000      -6.037377      -164.2854
  19   2.0000      -6.035519      -164.2348
  20   2.0000      -6.033356      -164.1760
  21   2.0000      -6.031872      -164.1356
  22   2.0000      -6.029339      -164.0667
  23   2.0000      -6.027674      -164.0213
  24   2.0000      -1.003089       -27.2954
  25   2.0000      -0.980480       -26.6802
  26   2.0000      -0.916553       -24.9407
  27   2.0000      -0.905556       -24.6414
  28   2.0000      -0.866265       -23.5723
  29   2.0000      -0.849950       -23.1283
  30   2.0000      -0.842611       -22.9286
  31   2.0000      -0.814220       -22.1561
  32   2.0000      -0.782881       -21.3033
  33   2.0000      -0.772011       -21.0075
  34   2.0000      -0.706110       -19.2142
  35   2.0000      -0.701313       -19.0837
  36   2.0000      -0.695869       -18.9356
  37   2.0000      -0.655355       -17.8331
  38   2.0000      -0.638696       -17.3798
  39   2.0000      -0.613369       -16.6906
  40   2.0000      -0.598783       -16.2937
  41   2.0000      -0.576869       -15.6974
  42   2.0000      -0.570968       -15.5368
  43   2.0000      -0.541453       -14.7337
  44   2.0000      -0.538974       -14.6662
  45   2.0000      -0.531946       -14.4750
  46   2.0000      -0.514561       -14.0019
  47   2.0000      -0.511386       -13.9155
  48   2.0000      -0.506971       -13.7954
  49   2.0000      -0.496666       -13.5150
  50   2.0000      -0.489872       -13.3301
  51   2.0000      -0.475995       -12.9525
  52   2.0000      -0.470963       -12.8155
  53   2.0000      -0.467090       -12.7102
  54   2.0000      -0.456515       -12.4224
  55   2.0000      -0.447444       -12.1756
  56   2.0000      -0.441470       -12.0130
  57   2.0000      -0.438844       -11.9415
  58   2.0000      -0.430810       -11.7229
  59   2.0000      -0.424193       -11.5429
  60   2.0000      -0.419474       -11.4145
  61   2.0000      -0.418580       -11.3901
  62   2.0000      -0.406516       -11.0619
  63   2.0000      -0.338208        -9.2031
  64   2.0000      -0.322887        -8.7862
  65   2.0000      -0.316025        -8.5995
  66   2.0000      -0.312661        -8.5079
  67   0.0000       0.033491         0.9113
  68   0.0000       0.048677         1.3246
  69   0.0000       0.104558         2.8452
  70   0.0000       0.116181         3.1614
  71   0.0000       0.121900         3.3171

MULLIKEN ATOMIC CHARGES
-----------------------
   0 S :    0.105442
   1 C :   -0.104258
   2 C :   -0.070024
   3 C :    0.014439
   4 C :   -0.169174
   5 H :    0.037802
   6 C :    0.012268
   7 H :    0.042287
   8 H :    0.015316
   9 C :   -0.093838
  10 H :    0.037635
  11 H :    0.029332
  12 C :   -0.040733
  13 H :    0.053818
  14 H :    0.024561
  15 H :    0.033541
  16 S :    0.097972
  17 C :   -0.105363
  18 C :   -0.030762
  19 C :   -0.046589
  20 C :   -0.124409
  21 H :    0.006631
  22 C :    0.085901
  23 H :    0.029897
  24 H :    0.013325
  25 C :   -0.028778
  26 H :   -0.009233
  27 H :    0.021779
  28 C :   -0.018246
  29 H :    0.026888
  30 H :    0.012650
  31 H :    0.027618
  32 H :    0.040635
  33 H :    0.071668
Sum of atomic charges:    0.0000000

LOEWDIN ATOMIC CHARGES
----------------------
   0 S :    0.390914
   1 C :   -0.180604
   2 C :   -0.068191
   3 C :   -0.044906
   4 C :   -0.198420
   5 H :    0.033402
   6 C :   -0.048264
   7 H :    0.043112
   8 H :    0.023465
   9 C :   -0.038418
  10 H :    0.029838
  11 H :    0.021951
  12 C :   -0.066552
  13 H :    0.031748
  14 H :    0.019479
  15 H :    0.031528
  16 S :    0.394366
  17 C :   -0.185746
  18 C :   -0.075566
  19 C :   -0.048092
  20 C :   -0.204248
  21 H :    0.026868
  22 C :   -0.027344
  23 H :    0.033417
  24 H :    0.029003
  25 C :   -0.022255
  26 H :    0.002946
  27 H :    0.024554
  28 C :   -0.055336
  29 H :    0.021132
  30 H :    0.025801
  31 H :    0.018505
  32 H :    0.024405
  33 H :    0.037506

  Mayer bond orders larger than 0.100000
B(  0-S ,  1-C ) :   1.1463 B(  0-S ,  4-C ) :   1.1148 B(  1-C ,  2-C ) :   1.6347
B(  1-C , 32-H ) :   0.9683 B(  2-C ,  3-C ) :   1.2010 B(  2-C ,  6-C ) :   1.0358
B(  3-C ,  4-C ) :   1.6252 B(  3-C ,  5-H ) :   0.9806 B(  4-C , 20-C ) :   1.0001
B(  6-C ,  7-H ) :   0.9368 B(  6-C ,  8-H ) :   0.9467 B(  6-C ,  9-C ) :   1.0682
B(  9-C , 10-H ) :   0.9558 B(  9-C , 11-H ) :   0.9577 B(  9-C , 12-C ) :   1.0643
B( 12-C , 13-H ) :   0.9760 B( 12-C , 14-H ) :   0.9764 B( 12-C , 15-H ) :   0.9738
B( 16-S , 17-C ) :   1.1703 B( 16-S , 20-C ) :   1.1336 B( 17-C , 18-C ) :   1.6013
B( 17-C , 33-H ) :   0.9599 B( 18-C , 19-C ) :   1.2505 B( 18-C , 21-H ) :   0.9983
B( 19-C , 20-C ) :   1.5827 B( 19-C , 22-C ) :   1.0429 B( 22-C , 23-H ) :   0.9264
B( 22-C , 24-H ) :   0.9307 B( 22-C , 25-C ) :   1.0822 B( 25-C , 26-H ) :   0.9520
B( 25-C , 27-H ) :   0.9449 B( 25-C , 28-C ) :   1.0929 B( 28-C , 29-H ) :   0.9740
B( 28-C , 30-H ) :   0.9721 B( 28-C , 31-H ) :   0.9746

Dispersion correction           -0.015027403
FINAL SINGLE POINT ENERGY     -1339.847382752738

DIPOLE MOMENT
-------------
                                X             Y             Z
Electronic contribution:      1.71155      12.18410     -18.76440
Nuclear contribution   :     -2.16830     -12.58036      19.37292
                        -----------------------------------------
Total Dipole Moment    :     -0.45676      -0.39625       0.60852
                        -----------------------------------------
Magnitude (a.u.)       :      0.85787
Magnitude (Debye)      :      2.18054

Rotational constants in cm-1:     0.017574     0.009102     0.007815
Rotational constants in MHz :   526.863061   272.876231   234.290729

                             ****ORCA TERMINATED NORMALLY****
TOTAL RUN TIME: 0 days 0 hours 0 minutes 30 seconds 643 msec
