                         Program Version 4.2.1 -  RELEASE  -
|  1> ! wB97X-D3 SP def2-SVP
|  2> %pal
|  3> nprocs 16
|  4> end
|  5>
|  6> * xyz 0 1
|  7> S 	 60.7713 	 -2.86866 	 89.7915
|  8> C 	 60.4365 	 -2.20459 	 91.3363
|  9> C 	 61.4606 	 -1.33846 	 91.7711
| 10> C 	 62.6112 	 -1.3796 	 90.9391
| 11> C 	 62.3022 	 -1.96762 	 89.7311
| 12> H 	 63.5344 	 -0.889305 	 91.1102
| 13> C 	 61.3604 	 -0.740487 	 93.2119
| 14> H 	 60.6291 	 0.0822609 	 93.2464
| 15> H 	 62.2905 	 -0.188165 	 93.3344
| 16> C 	 61.3378 	 -1.58306 	 94.3904
| 17> H 	 61.4804 	 -0.94488 	 95.26
| 18> H 	 60.3602 	 -2.0353 	 94.5033
| 19> C 	 62.4109 	 -2.6453 	 94.3778
| 20> H 	 63.3673 	 -2.2892 	 94.1144
| 21> H 	 62.4076 	 -3.10074 	 95.3835
| 22> H 	 62.0685 	 -3.42646 	 93.6511
| 23> S 	 63.8389 	 -3.72508 	 88.3214
| 24> C 	 65.0083 	 -3.00917 	 87.2003
| 25> C 	 64.9994 	 -1.64229 	 87.2464
| 26> C 	 63.9619 	 -1.08627 	 88.0311
| 27> C 	 63.219 	 -2.07405 	 88.62
| 28> H 	 65.8175 	 -1.21746 	 86.7306
| 29> C 	 63.6777 	 0.414255 	 87.9567
| 30> H 	 64.1877 	 0.957585 	 88.7442
| 31> H 	 62.6579 	 0.326469 	 88.3048
| 32> C 	 63.8942 	 1.07417 	 86.6803
| 33> H 	 63.4996 	 0.541198 	 85.8282
| 34> H 	 64.878 	 1.1292 	 86.3874
| 35> C 	 63.4413 	 2.54456 	 86.6826
| 36> H 	 62.3436 	 2.6187 	 86.625
| 37> H 	 63.8899 	 3.23557 	 86.0023
| 38> H 	 63.9013 	 2.86157 	 87.6267
| 39> H 	 59.4017 	 -2.16289 	 91.7354
| 40> H 	 65.6874 	 -3.48427 	 86.5408
| 41> *
| 42>
| 43>                          ****END OF INPUT****

CARTESIAN COORDINATES (ANGSTROEM)
---------------------------------
  S     60.771300   -2.868660   89.791500
  C     60.436500   -2.204590   91.336300
  C     61.460600   -1.338460   91.771100
  C     62.611200   -1.379600   90.939100
  C     62.302200   -1.967620   89.731100
  H     63.534400   -0.889305   91.110200
  C     61.360400   -0.740487   93.211900
  H     60.629100    0.082261   93.246400
  H     62.290500   -0.188165   93.334400
  C     61.337800   -1.583060   94.390400
  H     61.480400   -0.944880   95.260000
  H     60.360200   -2.035300   94.503300
  C     62.410900   -2.645300   94.377800
  H     63.367300   -2.289200   94.114400
  H     62.407600   -3.100740   95.383500
  H     62.068500   -3.426460   93.651100
  S     63.838900   -3.725080   88.321400
  C     65.008300   -3.009170   87.200300
  C     64.999400   -1.642290   87.246400
  C     63.961900   -1.086270   88.031100
  C     63.219000   -2.074050   88.620000
  H     65.817500   -1.217460   86.730600
  C     63.677700    0.414255   87.956700
  H     64.187700    0.957585   88.744200
  H     62.657900    0.326469   88.304800
  C     63.894200    1.074170   86.680300
  H     63.499600    0.541198   85.828200
  H     64.878000    1.129200   86.387400
  C     63.441300    2.544560   86.682600
  H     62.343600    2.618700   86.625000
  H     63.889900    3.235570   86.002300
  H     63.901300    2.861570   87.626700
  H     59.401700   -2.162890   91.735400
  H     65.687400   -3.484270   86.540800

 Total Charge           Charge          ....    0
 Multiplicity           Mult            ....    1
 Number of Electrons    NEL             ....  134
 Basis Dimension        Dim             ....  322

ORBITAL ENERGIES
----------------

  NO   OCC          E(Eh)            E(eV)
   0   2.0000     -88.968192     -2420.9476
   1   2.0000     -88.964248     -2420.8403
   2   2.0000     -10.327968      -281.0383
   3   2.0000     -10.323128      -280.9066
   4   2.0000     -10.314471      -280.6710
   5   2.0000     -10.311499      -280.5902
   6   2.0000     -10.304377      -280.3964
   7   2.0000     -10.301860      -280.3279
   8   2.0000     -10.296096      -280.1710
   9   2.0000     -10.287064      -279.9252
  10   2.0000     -10.286191      -279.9015
  11   2.0000     -10.284024      -279.8425
  12   2.0000     -10.277224      -279.6575
  13   2.0000     -10.275544      -279.6118
  14   2.0000     -10.274132      -279.5733
  15   2.0000     -10.270894      -279.4852
  16   2.0000      -8.083122      -219.9529
  17   2.0000      -8.078236      -219.8200
  18   2.0000      -6.041407      -164.3950
  19   2.0000      -6.037586      -164.2911
  20   2.0000      -6.036800      -164.2697
  21   2.0000      -6.034128      -164.1970
  22   2.0000      -6.033067      -164.1681
  23   2.0000      -6.028760      -164.0509
  24   2.0000      -1.007373       -27.4120
  25   2.0000      -0.983294       -26.7568
  26   2.0000      -0.921869       -25.0853
  27   2.0000      -0.919702       -25.0264
  28   2.0000      -0.872081       -23.7305
  29   2.0000      -0.854531       -23.2530
  30   2.0000      -0.848504       -23.0890
  31   2.0000      -0.813057       -22.1244
  32   2.0000      -0.784969       -21.3601
  33   2.0000      -0.772739       -21.0273
  34   2.0000      -0.711650       -19.3650
  35   2.0000      -0.701514       -19.0892
  36   2.0000      -0.695222       -18.9180
  37   2.0000      -0.657584       -17.8938
  38   2.0000      -0.642276       -17.4772
  39   2.0000      -0.612661       -16.6713
  40   2.0000      -0.599017       -16.3001
  41   2.0000      -0.577951       -15.7269
  42   2.0000      -0.573710       -15.6115
  43   2.0000      -0.556389       -15.1401
  44   2.0000      -0.546576       -14.8731
  45   2.0000      -0.531775       -14.4703
  46   2.0000      -0.516417       -14.0524
  47   2.0000      -0.512372       -13.9424
  48   2.0000      -0.508747       -13.8437
  49   2.0000      -0.495357       -13.4794
  50   2.0000      -0.488495       -13.2926
  51   2.0000      -0.478324       -13.0159
  52   2.0000      -0.475372       -12.9355
  53   2.0000      -0.460093       -12.5198
  54   2.0000      -0.456482       -12.4215
  55   2.0000      -0.446777       -12.1574
  56   2.0000      -0.442625       -12.0444
  57   2.0000      -0.439084       -11.9481
  58   2.0000      -0.435432       -11.8487
  59   2.0000      -0.424346       -11.5470
  60   2.0000      -0.419133       -11.4052
  61   2.0000      -0.409961       -11.1556
  62   2.0000      -0.401339       -10.9210
  63   2.0000      -0.346333        -9.4242
  64   2.0000      -0.331243        -9.0136
  65   2.0000      -0.330109        -8.9827
  66   2.0000      -0.293167        -7.9775
  67   0.0000       0.026777         0.7286
  68   0.0000       0.062430         1.6988
  69   0.0000       0.107221         2.9176
  70   0.0000       0.123736         3.3670
  71   0.0000       0.125779         3.4226

MULLIKEN ATOMIC CHARGES
-----------------------
   0 S :    0.117397
   1 C :   -0.123771
   2 C :   -0.119892
   3 C :    0.058416
   4 C :   -0.186715
   5 H :    0.010876
   6 C :    0.051083
   7 H :    0.033098
   8 H :   -0.001463
   9 C :   -0.037411
  10 H :    0.022619
  11 H :    0.015037
  12 C :   -0.042839
  13 H :    0.018653
  14 H :    0.034524
  15 H :    0.047558
  16 S :    0.098736
  17 C :   -0.066238
  18 C :   -0.054434
  19 C :   -0.035193
  20 C :   -0.149903
  21 H :    0.003836
  22 C :    0.123868
  23 H :    0.021946
  24 H :    0.024249
  25 C :   -0.040142
  26 H :    0.020803
  27 H :    0.002979
  28 C :   -0.042783
  29 H :    0.047624
  30 H :    0.024767
  31 H :    0.014458
  32 H :    0.074303
  33 H :    0.033954
Sum of atomic charges:    0.0000000

LOEWDIN ATOMIC CHARGES
----------------------
   0 S :    0.413127
   1 C :   -0.217116
   2 C :   -0.060753
   3 C :   -0.047266
   4 C :   -0.191928
   5 H :    0.030310
   6 C :   -0.040877
   7 H :    0.032513
   8 H :    0.025304
   9 C :   -0.045772
  10 H :    0.026118
  11 H :    0.018568
  12 C :   -0.059081
  13 H :    0.014600
  14 H :    0.029466
  15 H :    0.035308
  16 S :    0.376888
  17 C :   -0.168231
  18 C :   -0.070230
  19 C :   -0.050496
  20 C :   -0.190180
  21 H :    0.026746
  22 C :   -0.029609
  23 H :    0.030953
  24 H :    0.036763
  25 C :   -0.043523
  26 H :    0.024862
  27 H :    0.015679
  28 C :   -0.058136
  29 H :    0.029023
  30 H :    0.021706
  31 H :    0.026895
  32 H :    0.036297
  33 H :    0.022074

  Mayer bond orders larger than 0.100000
B(  0-S ,  1-C ) :   1.1572 B(  0-S ,  4-C ) :   1.1574 B(  1-C ,  2-C ) :   1.5834
B(  1-C ,  4-C ) :   0.1004 B(  1-C , 32-H ) :   0.9604 B(  2-C ,  3-C ) :   1.2568
B(  2-C ,  6-C ) :   1.0141 B(  3-C ,  4-C ) :   1.5576 B(  3-C ,  5-H ) :   0.9937
B(  4-C , 20-C ) :   1.0248 B(  6-C ,  7-H ) :   0.9368 B(  6-C ,  8-H ) :   0.9367
B(  6-C ,  9-C ) :   1.0927 B(  9-C , 10-H ) :   0.9484 B(  9-C , 11-H ) :   0.9452
B(  9-C , 12-C ) :   1.0845 B( 12-C , 13-H ) :   0.9785 B( 12-C , 14-H ) :   0.9725
B( 12-C , 15-H ) :   0.9680 B( 16-S , 17-C ) :   1.1271 B( 16-S , 20-C ) :   1.1285
B( 17-C , 18-C ) :   1.6687 B( 17-C , 33-H ) :   0.9654 B( 18-C , 19-C ) :   1.1901
B( 18-C , 21-H ) :   0.9954 B( 19-C , 20-C ) :   1.6416 B( 19-C , 22-C ) :   1.0134
B( 22-C , 23-H ) :   0.9114 B( 22-C , 24-H ) :   0.9342 B( 22-C , 25-C ) :   1.0903
B( 25-C , 26-H ) :   0.9503 B( 25-C , 27-H ) :   0.9341 B( 25-C , 28-C ) :   1.0770
B( 28-C , 29-H ) :   0.9793 B( 28-C , 30-H ) :   0.9753 B( 28-C , 31-H ) :   0.9711

Dispersion correction           -0.014185929
FINAL SINGLE POINT ENERGY     -1339.845972858313

DIPOLE MOMENT
-------------
                                X             Y             Z
Electronic contribution:     -2.87297     -19.46632      -9.88454
Nuclear contribution   :      3.16064      20.06912      10.05779
                        -----------------------------------------
Total Dipole Moment    :      0.28767       0.60280       0.17325
                        -----------------------------------------
Magnitude (a.u.)       :      0.69003
Magnitude (Debye)      :      1.75392

Rotational constants in cm-1:     0.019311     0.008025     0.006718
Rotational constants in MHz :   578.926735   240.574686   201.391297

                             ****ORCA TERMINATED NORMALLY****
TOTAL RUN TIME: 0 days 0 hours 0 minutes 29 seconds 576 msec
