                         Program Version 4.2.1 -  RELEASE  -
|  1> ! wB97X-D3 SP def2-SVP
|  2> %pal
|  3> nprocs 16
|  4> end
|  5>
|  6> * xyz 0 1
|  7> S 	 -25.6342 	 -5.93255 	 87.8083
|  8> C 	 -27.3531 	 -6.02434 	 87.501
|  9> C 	 -27.8529 	 -4.75272 	 87.3769
| 10> C 	 -26.8384 	 -3.74385 	 87.6278
| 11> C 	 -25.5712 	 -4.23947 	 87.7927
| 12> H 	 -26.8716 	 -2.67501 	 87.4994
| 13> C 	 -29.2784 	 -4.3912 	 87.1488
| 14> H 	 -29.5284 	 -3.44486 	 87.6096
| 15> H 	 -29.8973 	 -5.08212 	 87.7227
| 16> C 	 -29.7716 	 -4.42691 	 85.7168
| 17> H 	 -29.6829 	 -5.4426 	 85.3751
| 18> H 	 -30.7719 	 -4.15169 	 85.5821
| 19> C 	 -28.9395 	 -3.53072 	 84.7814
| 20> H 	 -27.8715 	 -3.86454 	 84.8969
| 21> H 	 -29.3629 	 -3.52654 	 83.8153
| 22> H 	 -28.9497 	 -2.48882 	 85.1043
| 23> S 	 -23.8555 	 -3.15887 	 89.5524
| 24> C 	 -22.6218 	 -2.01225 	 89.0998
| 25> C 	 -22.473 	 -2.01364 	 87.7215
| 26> C 	 -23.4935 	 -2.73113 	 87.1023
| 27> C 	 -24.4097 	 -3.41074 	 87.8988
| 28> H 	 -21.7192 	 -1.38383 	 87.4085
| 29> C 	 -23.5534 	 -2.70597 	 85.589
| 30> H 	 -24.2441 	 -3.41019 	 85.184
| 31> H 	 -22.53 	 -3.04679 	 85.4721
| 32> C 	 -23.7964 	 -1.2492 	 85.168
| 33> H 	 -22.8714 	 -0.72499 	 84.9888
| 34> H 	 -24.3567 	 -0.753082 	 85.9865
| 35> C 	 -24.6657 	 -1.15467 	 83.903
| 36> H 	 -25.6619 	 -1.48812 	 84.0728
| 37> H 	 -24.2066 	 -1.79469 	 83.0904
| 38> H 	 -24.8215 	 -0.131833 	 83.6659
| 39> H 	 -27.9934 	 -6.92911 	 87.2617
| 40> H 	 -21.9656 	 -1.47237 	 89.817
| 41> *
| 42>
| 43>                          ****END OF INPUT****

CARTESIAN COORDINATES (ANGSTROEM)
---------------------------------
  S    -25.634200   -5.932550   87.808300
  C    -27.353100   -6.024340   87.501000
  C    -27.852900   -4.752720   87.376900
  C    -26.838400   -3.743850   87.627800
  C    -25.571200   -4.239470   87.792700
  H    -26.871600   -2.675010   87.499400
  C    -29.278400   -4.391200   87.148800
  H    -29.528400   -3.444860   87.609600
  H    -29.897300   -5.082120   87.722700
  C    -29.771600   -4.426910   85.716800
  H    -29.682900   -5.442600   85.375100
  H    -30.771900   -4.151690   85.582100
  C    -28.939500   -3.530720   84.781400
  H    -27.871500   -3.864540   84.896900
  H    -29.362900   -3.526540   83.815300
  H    -28.949700   -2.488820   85.104300
  S    -23.855500   -3.158870   89.552400
  C    -22.621800   -2.012250   89.099800
  C    -22.473000   -2.013640   87.721500
  C    -23.493500   -2.731130   87.102300
  C    -24.409700   -3.410740   87.898800
  H    -21.719200   -1.383830   87.408500
  C    -23.553400   -2.705970   85.589000
  H    -24.244100   -3.410190   85.184000
  H    -22.530000   -3.046790   85.472100
  C    -23.796400   -1.249200   85.168000
  H    -22.871400   -0.724990   84.988800
  H    -24.356700   -0.753082   85.986500
  C    -24.665700   -1.154670   83.903000
  H    -25.661900   -1.488120   84.072800
  H    -24.206600   -1.794690   83.090400
  H    -24.821500   -0.131833   83.665900
  H    -27.993400   -6.929110   87.261700
  H    -21.965600   -1.472370   89.817000

 Total Charge           Charge          ....    0
 Multiplicity           Mult            ....    1
 Number of Electrons    NEL             ....  134
 Basis Dimension        Dim             ....  322

ORBITAL ENERGIES
----------------

  NO   OCC          E(Eh)            E(eV)
   0   2.0000     -88.966434     -2420.8997
   1   2.0000     -88.956740     -2420.6360
   2   2.0000     -10.323638      -280.9205
   3   2.0000     -10.323039      -280.9042
   4   2.0000     -10.321172      -280.8534
   5   2.0000     -10.319981      -280.8210
   6   2.0000     -10.303637      -280.3762
   7   2.0000     -10.302110      -280.3347
   8   2.0000     -10.290874      -280.0289
   9   2.0000     -10.286379      -279.9066
  10   2.0000     -10.286215      -279.9021
  11   2.0000     -10.284684      -279.8605
  12   2.0000     -10.282269      -279.7948
  13   2.0000     -10.278117      -279.6818
  14   2.0000     -10.273896      -279.5669
  15   2.0000     -10.273263      -279.5497
  16   2.0000      -8.082014      -219.9228
  17   2.0000      -8.071972      -219.6495
  18   2.0000      -6.040524      -164.3710
  19   2.0000      -6.036254      -164.2548
  20   2.0000      -6.032832      -164.1617
  21   2.0000      -6.030319      -164.0933
  22   2.0000      -6.026289      -163.9836
  23   2.0000      -6.022961      -163.8931
  24   2.0000      -1.014143       -27.5962
  25   2.0000      -0.991150       -26.9705
  26   2.0000      -0.919492       -25.0207
  27   2.0000      -0.910864       -24.7859
  28   2.0000      -0.877016       -23.8648
  29   2.0000      -0.848133       -23.0789
  30   2.0000      -0.846051       -23.0222
  31   2.0000      -0.818778       -22.2801
  32   2.0000      -0.784250       -21.3405
  33   2.0000      -0.770523       -20.9670
  34   2.0000      -0.707638       -19.2558
  35   2.0000      -0.704364       -19.1667
  36   2.0000      -0.696755       -18.9597
  37   2.0000      -0.661439       -17.9987
  38   2.0000      -0.643715       -17.5164
  39   2.0000      -0.614332       -16.7168
  40   2.0000      -0.594107       -16.1665
  41   2.0000      -0.584145       -15.8954
  42   2.0000      -0.568429       -15.4677
  43   2.0000      -0.558057       -15.1855
  44   2.0000      -0.548251       -14.9187
  45   2.0000      -0.531578       -14.4650
  46   2.0000      -0.527027       -14.3411
  47   2.0000      -0.512374       -13.9424
  48   2.0000      -0.505502       -13.7554
  49   2.0000      -0.497187       -13.5291
  50   2.0000      -0.487223       -13.2580
  51   2.0000      -0.479316       -13.0428
  52   2.0000      -0.474244       -12.9048
  53   2.0000      -0.469187       -12.7672
  54   2.0000      -0.460437       -12.5291
  55   2.0000      -0.445517       -12.1231
  56   2.0000      -0.439008       -11.9460
  57   2.0000      -0.437447       -11.9035
  58   2.0000      -0.429719       -11.6933
  59   2.0000      -0.428117       -11.6497
  60   2.0000      -0.418997       -11.4015
  61   2.0000      -0.416146       -11.3239
  62   2.0000      -0.398031       -10.8310
  63   2.0000      -0.334047        -9.0899
  64   2.0000      -0.328210        -8.9310
  65   2.0000      -0.322095        -8.7647
  66   2.0000      -0.311715        -8.4822
  67   0.0000       0.048766         1.3270
  68   0.0000       0.050001         1.3606
  69   0.0000       0.116881         3.1805
  70   0.0000       0.119640         3.2556
  71   0.0000       0.129662         3.5283

MULLIKEN ATOMIC CHARGES
-----------------------
   0 S :    0.130285
   1 C :   -0.133981
   2 C :   -0.105667
   3 C :    0.049031
   4 C :   -0.163667
   5 H :    0.008247
   6 C :    0.073827
   7 H :    0.019185
   8 H :    0.021914
   9 C :   -0.032534
  10 H :    0.014200
  11 H :    0.015921
  12 C :   -0.068103
  13 H :    0.055254
  14 H :    0.030006
  15 H :    0.019064
  16 S :    0.088727
  17 C :   -0.111648
  18 C :   -0.021171
  19 C :   -0.053762
  20 C :   -0.176167
  21 H :   -0.005398
  22 C :    0.117706
  23 H :    0.020085
  24 H :    0.033049
  25 C :   -0.101640
  26 H :    0.032676
  27 H :    0.045833
  28 C :   -0.036979
  29 H :    0.022761
  30 H :    0.043707
  31 H :    0.021656
  32 H :    0.074650
  33 H :    0.072934
Sum of atomic charges:    0.0000000

LOEWDIN ATOMIC CHARGES
----------------------
   0 S :    0.434470
   1 C :   -0.208399
   2 C :   -0.067809
   3 C :   -0.058570
   4 C :   -0.228288
   5 H :    0.029849
   6 C :   -0.034640
   7 H :    0.029326
   8 H :    0.032799
   9 C :   -0.032121
  10 H :    0.019348
  11 H :    0.016439
  12 C :   -0.065376
  13 H :    0.033088
  14 H :    0.019598
  15 H :    0.020495
  16 S :    0.402511
  17 C :   -0.175746
  18 C :   -0.077912
  19 C :   -0.048036
  20 C :   -0.207945
  21 H :    0.024113
  22 C :   -0.027311
  23 H :    0.023920
  24 H :    0.038024
  25 C :   -0.038977
  26 H :    0.022251
  27 H :    0.028833
  28 C :   -0.063776
  29 H :    0.019582
  30 H :    0.032703
  31 H :    0.020809
  32 H :    0.048891
  33 H :    0.037857

  Mayer bond orders larger than 0.100000
B(  0-S ,  1-C ) :   1.1403 B(  0-S ,  4-C ) :   1.1583 B(  1-C ,  2-C ) :   1.6158
B(  1-C , 32-H ) :   0.9578 B(  2-C ,  3-C ) :   1.2208 B(  2-C ,  6-C ) :   1.0229
B(  3-C ,  4-C ) :   1.5864 B(  3-C ,  5-H ) :   0.9946 B(  4-C , 20-C ) :   1.0235
B(  6-C ,  7-H ) :   0.9434 B(  6-C ,  8-H ) :   0.9387 B(  6-C ,  9-C ) :   1.0773
B(  9-C , 10-H ) :   0.9543 B(  9-C , 11-H ) :   0.9545 B(  9-C , 12-C ) :   1.0806
B( 12-C , 13-H ) :   0.9716 B( 12-C , 14-H ) :   0.9739 B( 12-C , 15-H ) :   0.9751
B( 16-S , 17-C ) :   1.1903 B( 16-S , 20-C ) :   1.1314 B( 17-C , 18-C ) :   1.5820
B( 17-C , 20-C ) :   0.1128 B( 17-C , 33-H ) :   0.9615 B( 18-C , 19-C ) :   1.2316
B( 18-C , 21-H ) :   1.0133 B( 19-C , 20-C ) :   1.5982 B( 19-C , 22-C ) :   1.0223
B( 22-C , 23-H ) :   0.9495 B( 22-C , 24-H ) :   0.9303 B( 22-C , 25-C ) :   1.0370
B( 25-C , 26-H ) :   0.9496 B( 25-C , 27-H ) :   0.9652 B( 25-C , 28-C ) :   1.0979
B( 28-C , 29-H ) :   0.9749 B( 28-C , 30-H ) :   0.9721 B( 28-C , 31-H ) :   0.9713

Dispersion correction           -0.014998607
FINAL SINGLE POINT ENERGY     -1339.858146264099

DIPOLE MOMENT
-------------
                                X             Y             Z
Electronic contribution:     12.62266     -11.79632      22.65873
Nuclear contribution   :    -12.82982      12.19645     -23.12285
                        -----------------------------------------
Total Dipole Moment    :     -0.20716       0.40013      -0.46411
                        -----------------------------------------
Magnitude (a.u.)       :      0.64685
Magnitude (Debye)      :      1.64417

Rotational constants in cm-1:     0.017997     0.009806     0.007209
Rotational constants in MHz :   539.527049   293.987955   216.107402

                             ****ORCA TERMINATED NORMALLY****
TOTAL RUN TIME: 0 days 0 hours 0 minutes 35 seconds 66 msec
