                         Program Version 4.2.1 -  RELEASE  -
|  1> ! wB97X-D3 SP def2-SVP
|  2> %pal
|  3> nprocs 16
|  4> end
|  5>
|  6> * xyz 0 1
|  7> S 	 -46.0093 	 16.3514 	 76.6281
|  8> C 	 -44.7143 	 17.4287 	 77.096
|  9> C 	 -43.4447 	 16.7988 	 77.0717
| 10> C 	 -43.539 	 15.4408 	 76.7675
| 11> C 	 -44.8435 	 15.0148 	 76.4254
| 12> H 	 -42.7402 	 14.7524 	 76.6384
| 13> C 	 -42.1975 	 17.5726 	 77.421
| 14> H 	 -42.5138 	 18.6082 	 77.6392
| 15> H 	 -41.5612 	 17.6214 	 76.5492
| 16> C 	 -41.4588 	 16.9084 	 78.6311
| 17> H 	 -42.1787 	 16.8338 	 79.4048
| 18> H 	 -41.0823 	 15.9192 	 78.4798
| 19> C 	 -40.2964 	 17.7732 	 79.1942
| 20> H 	 -40.6761 	 18.6757 	 79.6885
| 21> H 	 -39.6171 	 17.1903 	 79.7996
| 22> H 	 -39.752 	 18.0563 	 78.3703
| 23> S 	 -45.8875 	 13.85 	 74.2076
| 24> C 	 -45.7452 	 12.1592 	 73.915
| 25> C 	 -45.1922 	 11.6093 	 75.0137
| 26> C 	 -44.7519 	 12.4524 	 76.0763
| 27> C 	 -45.1292 	 13.7385 	 75.8198
| 28> H 	 -45.2249 	 10.4753 	 75.051
| 29> C 	 -44.2212 	 11.8644 	 77.3837
| 30> H 	 -44.9368 	 11.113 	 77.8103
| 31> H 	 -44.1659 	 12.6307 	 78.2407
| 32> C 	 -42.8793 	 11.1421 	 77.2638
| 33> H 	 -42.2059 	 11.7208 	 76.6351
| 34> H 	 -43.0702 	 10.1313 	 76.8145
| 35> C 	 -42.3053 	 10.9999 	 78.632
| 36> H 	 -42.8619 	 10.3548 	 79.3101
| 37> H 	 -42.2277 	 11.9966 	 79.012
| 38> H 	 -41.3095 	 10.6658 	 78.5828
| 39> H 	 -44.8179 	 18.4181 	 77.514
| 40> H 	 -46.2225 	 11.5524 	 73.1251
| 41> *
| 42>
| 43>                          ****END OF INPUT****

CARTESIAN COORDINATES (ANGSTROEM)
---------------------------------
  S    -46.009300   16.351400   76.628100
  C    -44.714300   17.428700   77.096000
  C    -43.444700   16.798800   77.071700
  C    -43.539000   15.440800   76.767500
  C    -44.843500   15.014800   76.425400
  H    -42.740200   14.752400   76.638400
  C    -42.197500   17.572600   77.421000
  H    -42.513800   18.608200   77.639200
  H    -41.561200   17.621400   76.549200
  C    -41.458800   16.908400   78.631100
  H    -42.178700   16.833800   79.404800
  H    -41.082300   15.919200   78.479800
  C    -40.296400   17.773200   79.194200
  H    -40.676100   18.675700   79.688500
  H    -39.617100   17.190300   79.799600
  H    -39.752000   18.056300   78.370300
  S    -45.887500   13.850000   74.207600
  C    -45.745200   12.159200   73.915000
  C    -45.192200   11.609300   75.013700
  C    -44.751900   12.452400   76.076300
  C    -45.129200   13.738500   75.819800
  H    -45.224900   10.475300   75.051000
  C    -44.221200   11.864400   77.383700
  H    -44.936800   11.113000   77.810300
  H    -44.165900   12.630700   78.240700
  C    -42.879300   11.142100   77.263800
  H    -42.205900   11.720800   76.635100
  H    -43.070200   10.131300   76.814500
  C    -42.305300   10.999900   78.632000
  H    -42.861900   10.354800   79.310100
  H    -42.227700   11.996600   79.012000
  H    -41.309500   10.665800   78.582800
  H    -44.817900   18.418100   77.514000
  H    -46.222500   11.552400   73.125100

 Total Charge           Charge          ....    0
 Multiplicity           Mult            ....    1
 Number of Electrons    NEL             ....  134
 Basis Dimension        Dim             ....  322

ORBITAL ENERGIES
----------------

  NO   OCC          E(Eh)            E(eV)
   0   2.0000     -88.973524     -2421.0927
   1   2.0000     -88.958313     -2420.6788
   2   2.0000     -10.333468      -281.1880
   3   2.0000     -10.327822      -281.0343
   4   2.0000     -10.315452      -280.6977
   5   2.0000     -10.311804      -280.5984
   6   2.0000     -10.302949      -280.3575
   7   2.0000     -10.300997      -280.3044
   8   2.0000     -10.299722      -280.2697
   9   2.0000     -10.296666      -280.1865
  10   2.0000     -10.294358      -280.1237
  11   2.0000     -10.291086      -280.0347
  12   2.0000     -10.285789      -279.8905
  13   2.0000     -10.284042      -279.8430
  14   2.0000     -10.272021      -279.5159
  15   2.0000     -10.269381      -279.4441
  16   2.0000      -8.086999      -220.0584
  17   2.0000      -8.073533      -219.6920
  18   2.0000      -6.045478      -164.5058
  19   2.0000      -6.041614      -164.4007
  20   2.0000      -6.037946      -164.3009
  21   2.0000      -6.032170      -164.1437
  22   2.0000      -6.027945      -164.0287
  23   2.0000      -6.024107      -163.9243
  24   2.0000      -1.007256       -27.4088
  25   2.0000      -0.983451       -26.7611
  26   2.0000      -0.915769       -24.9194
  27   2.0000      -0.910376       -24.7726
  28   2.0000      -0.872096       -23.7309
  29   2.0000      -0.855613       -23.2824
  30   2.0000      -0.848320       -23.0840
  31   2.0000      -0.814072       -22.1520
  32   2.0000      -0.780172       -21.2296
  33   2.0000      -0.770577       -20.9685
  34   2.0000      -0.714036       -19.4299
  35   2.0000      -0.698365       -19.0035
  36   2.0000      -0.692977       -18.8569
  37   2.0000      -0.655099       -17.8262
  38   2.0000      -0.639627       -17.4051
  39   2.0000      -0.619723       -16.8635
  40   2.0000      -0.599046       -16.3009
  41   2.0000      -0.573720       -15.6117
  42   2.0000      -0.571877       -15.5616
  43   2.0000      -0.559671       -15.2294
  44   2.0000      -0.529064       -14.3966
  45   2.0000      -0.524378       -14.2691
  46   2.0000      -0.519542       -14.1375
  47   2.0000      -0.511686       -13.9237
  48   2.0000      -0.506664       -13.7870
  49   2.0000      -0.495660       -13.4876
  50   2.0000      -0.493924       -13.4404
  51   2.0000      -0.482932       -13.1412
  52   2.0000      -0.472032       -12.8446
  53   2.0000      -0.464114       -12.6292
  54   2.0000      -0.461539       -12.5591
  55   2.0000      -0.446211       -12.1420
  56   2.0000      -0.442228       -12.0336
  57   2.0000      -0.437824       -11.9138
  58   2.0000      -0.432766       -11.7762
  59   2.0000      -0.428754       -11.6670
  60   2.0000      -0.422349       -11.4927
  61   2.0000      -0.419490       -11.4149
  62   2.0000      -0.413389       -11.2489
  63   2.0000      -0.350128        -9.5275
  64   2.0000      -0.334261        -9.0957
  65   2.0000      -0.327407        -8.9092
  66   2.0000      -0.288051        -7.8383
  67   0.0000       0.025966         0.7066
  68   0.0000       0.070748         1.9252
  69   0.0000       0.116162         3.1609
  70   0.0000       0.119683         3.2567
  71   0.0000       0.129263         3.5174

MULLIKEN ATOMIC CHARGES
-----------------------
   0 S :    0.128861
   1 C :   -0.120823
   2 C :   -0.097473
   3 C :    0.049355
   4 C :   -0.162554
   5 H :   -0.000630
   6 C :    0.087693
   7 H :    0.015871
   8 H :    0.036946
   9 C :   -0.094684
  10 H :    0.023211
  11 H :    0.027699
  12 C :   -0.008125
  13 H :    0.036179
  14 H :    0.030079
  15 H :    0.004950
  16 S :    0.084142
  17 C :   -0.092730
  18 C :   -0.067267
  19 C :    0.023414
  20 C :   -0.158201
  21 H :    0.032058
  22 C :   -0.018819
  23 H :    0.040827
  24 H :    0.036276
  25 C :   -0.087915
  26 H :    0.030316
  27 H :    0.039019
  28 C :   -0.000879
  29 H :    0.032248
  30 H :    0.015304
  31 H :    0.017579
  32 H :    0.048368
  33 H :    0.069705
Sum of atomic charges:   -0.0000000

LOEWDIN ATOMIC CHARGES
----------------------
   0 S :    0.406495
   1 C :   -0.204983
   2 C :   -0.060645
   3 C :   -0.050535
   4 C :   -0.189171
   5 H :    0.026251
   6 C :   -0.024704
   7 H :    0.031717
   8 H :    0.030099
   9 C :   -0.033387
  10 H :    0.019111
  11 H :    0.020167
  12 C :   -0.057128
  13 H :    0.027707
  14 H :    0.026142
  15 H :    0.011968
  16 S :    0.393369
  17 C :   -0.203991
  18 C :   -0.080736
  19 C :   -0.067089
  20 C :   -0.177643
  21 H :    0.036257
  22 C :   -0.038681
  23 H :    0.037563
  24 H :    0.034371
  25 C :   -0.042837
  26 H :    0.022422
  27 H :    0.027868
  28 C :   -0.058251
  29 H :    0.026558
  30 H :    0.022456
  31 H :    0.019891
  32 H :    0.026524
  33 H :    0.042845

  Mayer bond orders larger than 0.100000
B(  0-S ,  1-C ) :   1.1474 B(  0-S ,  4-C ) :   1.1556 B(  1-C ,  2-C ) :   1.5713
B(  1-C ,  4-C ) :   0.1099 B(  1-C , 32-H ) :   0.9629 B(  2-C ,  3-C ) :   1.2840
B(  2-C ,  6-C ) :   1.0333 B(  3-C ,  4-C ) :   1.5259 B(  3-C ,  5-H ) :   0.9968
B(  4-C , 20-C ) :   1.0504 B(  6-C ,  7-H ) :   0.9422 B(  6-C ,  8-H ) :   0.9308
B(  6-C ,  9-C ) :   1.0520 B(  9-C , 10-H ) :   0.9621 B(  9-C , 11-H ) :   0.9574
B(  9-C , 12-C ) :   1.0857 B( 12-C , 13-H ) :   0.9772 B( 12-C , 14-H ) :   0.9747
B( 12-C , 15-H ) :   0.9723 B( 16-S , 17-C ) :   1.1345 B( 16-S , 20-C ) :   1.1321
B( 17-C , 18-C ) :   1.6521 B( 17-C , 33-H ) :   0.9609 B( 18-C , 19-C ) :   1.2115
B( 18-C , 21-H ) :   0.9730 B( 19-C , 20-C ) :   1.6177 B( 19-C , 22-C ) :   1.0343
B( 22-C , 23-H ) :   0.9401 B( 22-C , 24-H ) :   0.9523 B( 22-C , 25-C ) :   1.0469
B( 25-C , 26-H ) :   0.9583 B( 25-C , 27-H ) :   0.9483 B( 25-C , 28-C ) :   1.1001
B( 28-C , 29-H ) :   0.9702 B( 28-C , 30-H ) :   0.9708 B( 28-C , 31-H ) :   0.9687

Dispersion correction           -0.013698383
FINAL SINGLE POINT ENERGY     -1339.874882830607

DIPOLE MOMENT
-------------
                                X             Y             Z
Electronic contribution:    -25.31222       4.42397     -18.60192
Nuclear contribution   :     25.86316      -4.65954      18.97406
                        -----------------------------------------
Total Dipole Moment    :      0.55094      -0.23557       0.37214
                        -----------------------------------------
Magnitude (a.u.)       :      0.70535
Magnitude (Debye)      :      1.79286

Rotational constants in cm-1:     0.016419     0.009160     0.006406
Rotational constants in MHz :   492.239983   274.610410   192.044725

                             ****ORCA TERMINATED NORMALLY****
TOTAL RUN TIME: 0 days 0 hours 0 minutes 28 seconds 183 msec
