                         Program Version 4.2.1 -  RELEASE  -
|  1> ! wB97X-D3 SP def2-SVP
|  2> %pal
|  3> nprocs 16
|  4> end
|  5>
|  6> * xyz 0 1
|  7> S 	 0.513557 	 7.27912 	 79.9086
|  8> C 	 0.842811 	 6.39712 	 78.4282
|  9> C 	 -1.68091e-05 	 6.73175 	 77.3597
| 10> C 	 -0.998205 	 7.64823 	 77.8254
| 11> C 	 -0.888591 	 8.02085 	 79.1696
| 12> H 	 -1.72504 	 8.13772 	 77.2391
| 13> C 	 0.298479 	 6.39765 	 75.938
| 14> H 	 0.203785 	 5.36712 	 75.7368
| 15> H 	 1.4247 	 6.56594 	 75.8521
| 16> C 	 -0.185833 	 7.35579 	 74.8268
| 17> H 	 -1.3144 	 7.41803 	 74.9286
| 18> H 	 0.299723 	 8.30711 	 74.991
| 19> C 	 0.15215 	 6.76409 	 73.4565
| 20> H 	 1.18035 	 6.33308 	 73.3357
| 21> H 	 -0.599543 	 6.10532 	 73.1666
| 22> H 	 0.222041 	 7.70891 	 72.843
| 23> S 	 -0.951572 	 10.1413 	 80.8793
| 24> C 	 -2.3003 	 11.2001 	 80.9637
| 25> C 	 -3.37704 	 10.5902 	 80.41
| 26> C 	 -3.03878 	 9.38339 	 79.6778
| 27> C 	 -1.71576 	 9.00984 	 79.7594
| 28> H 	 -4.34887 	 11.1019 	 80.5198
| 29> C 	 -4.01915 	 8.61627 	 78.7978
| 30> H 	 -4.77042 	 8.22911 	 79.5079
| 31> H 	 -3.48277 	 7.76999 	 78.3685
| 32> C 	 -4.68541 	 9.46693 	 77.6879
| 33> H 	 -3.8185 	 9.81544 	 77.0572
| 34> H 	 -5.06475 	 10.2547 	 78.1979
| 35> C 	 -5.74653 	 8.69948 	 76.9163
| 36> H 	 -5.31687 	 7.82767 	 76.4371
| 37> H 	 -6.23588 	 9.33556 	 76.121
| 38> H 	 -6.47865 	 8.2289 	 77.57
| 39> H 	 1.72339 	 5.73974 	 78.2515
| 40> H 	 -2.38065 	 12.1167 	 81.5799
| 41> *
| 42>
| 43>                          ****END OF INPUT****

CARTESIAN COORDINATES (ANGSTROEM)
---------------------------------
  S      0.513557    7.279120   79.908600
  C      0.842811    6.397120   78.428200
  C     -0.000017    6.731750   77.359700
  C     -0.998205    7.648230   77.825400
  C     -0.888591    8.020850   79.169600
  H     -1.725040    8.137720   77.239100
  C      0.298479    6.397650   75.938000
  H      0.203785    5.367120   75.736800
  H      1.424700    6.565940   75.852100
  C     -0.185833    7.355790   74.826800
  H     -1.314400    7.418030   74.928600
  H      0.299723    8.307110   74.991000
  C      0.152150    6.764090   73.456500
  H      1.180350    6.333080   73.335700
  H     -0.599543    6.105320   73.166600
  H      0.222041    7.708910   72.843000
  S     -0.951572   10.141300   80.879300
  C     -2.300300   11.200100   80.963700
  C     -3.377040   10.590200   80.410000
  C     -3.038780    9.383390   79.677800
  C     -1.715760    9.009840   79.759400
  H     -4.348870   11.101900   80.519800
  C     -4.019150    8.616270   78.797800
  H     -4.770420    8.229110   79.507900
  H     -3.482770    7.769990   78.368500
  C     -4.685410    9.466930   77.687900
  H     -3.818500    9.815440   77.057200
  H     -5.064750   10.254700   78.197900
  C     -5.746530    8.699480   76.916300
  H     -5.316870    7.827670   76.437100
  H     -6.235880    9.335560   76.121000
  H     -6.478650    8.228900   77.570000
  H      1.723390    5.739740   78.251500
  H     -2.380650   12.116700   81.579900

 Total Charge           Charge          ....    0
 Multiplicity           Mult            ....    1
 Number of Electrons    NEL             ....  134
 Basis Dimension        Dim             ....  322

ORBITAL ENERGIES
----------------

  NO   OCC          E(Eh)            E(eV)
   0   2.0000     -88.973306     -2421.0867
   1   2.0000     -88.956136     -2420.6195
   2   2.0000     -10.329813      -281.0885
   3   2.0000     -10.324302      -280.9385
   4   2.0000     -10.316875      -280.7364
   5   2.0000     -10.315804      -280.7073
   6   2.0000     -10.303831      -280.3815
   7   2.0000     -10.303188      -280.3640
   8   2.0000     -10.295565      -280.1566
   9   2.0000     -10.295253      -280.1481
  10   2.0000     -10.292946      -280.0853
  11   2.0000     -10.292263      -280.0667
  12   2.0000     -10.287425      -279.9351
  13   2.0000     -10.283774      -279.8357
  14   2.0000     -10.282179      -279.7923
  15   2.0000     -10.281523      -279.7745
  16   2.0000      -8.087369      -220.0685
  17   2.0000      -8.072001      -219.6503
  18   2.0000      -6.045925      -164.5180
  19   2.0000      -6.041996      -164.4111
  20   2.0000      -6.038099      -164.3050
  21   2.0000      -6.030603      -164.1011
  22   2.0000      -6.026329      -163.9847
  23   2.0000      -6.022604      -163.8834
  24   2.0000      -1.010128       -27.4870
  25   2.0000      -0.984960       -26.8021
  26   2.0000      -0.916816       -24.9478
  27   2.0000      -0.909580       -24.7509
  28   2.0000      -0.877468       -23.8771
  29   2.0000      -0.855098       -23.2684
  30   2.0000      -0.842675       -22.9304
  31   2.0000      -0.816917       -22.2294
  32   2.0000      -0.780638       -21.2422
  33   2.0000      -0.769554       -20.9406
  34   2.0000      -0.714866       -19.4525
  35   2.0000      -0.702158       -19.1067
  36   2.0000      -0.690019       -18.7764
  37   2.0000      -0.657648       -17.8955
  38   2.0000      -0.636372       -17.3166
  39   2.0000      -0.623514       -16.9667
  40   2.0000      -0.591506       -16.0957
  41   2.0000      -0.580832       -15.8052
  42   2.0000      -0.567448       -15.4410
  43   2.0000      -0.565558       -15.3896
  44   2.0000      -0.529719       -14.4144
  45   2.0000      -0.523407       -14.2426
  46   2.0000      -0.517265       -14.0755
  47   2.0000      -0.513700       -13.9785
  48   2.0000      -0.508276       -13.8309
  49   2.0000      -0.499973       -13.6050
  50   2.0000      -0.495196       -13.4750
  51   2.0000      -0.480966       -13.0877
  52   2.0000      -0.471754       -12.8371
  53   2.0000      -0.465536       -12.6679
  54   2.0000      -0.462269       -12.5790
  55   2.0000      -0.449793       -12.2395
  56   2.0000      -0.448941       -12.2163
  57   2.0000      -0.441030       -12.0010
  58   2.0000      -0.429694       -11.6926
  59   2.0000      -0.426325       -11.6009
  60   2.0000      -0.426046       -11.5933
  61   2.0000      -0.408434       -11.1141
  62   2.0000      -0.404092       -10.9959
  63   2.0000      -0.358226        -9.7478
  64   2.0000      -0.333370        -9.0715
  65   2.0000      -0.322960        -8.7882
  66   2.0000      -0.282381        -7.6840
  67   0.0000       0.023379         0.6362
  68   0.0000       0.074015         2.0140
  69   0.0000       0.112075         3.0497
  70   0.0000       0.119403         3.2491
  71   0.0000       0.128588         3.4990

MULLIKEN ATOMIC CHARGES
-----------------------
   0 S :    0.132322
   1 C :   -0.136971
   2 C :   -0.039176
   3 C :   -0.007054
   4 C :   -0.121647
   5 H :   -0.004983
   6 C :    0.016476
   7 H :    0.029551
   8 H :    0.035786
   9 C :   -0.103168
  10 H :    0.046096
  11 H :    0.041495
  12 C :   -0.043563
  13 H :    0.038386
  14 H :    0.038240
  15 H :    0.040057
  16 S :    0.074476
  17 C :   -0.094682
  18 C :   -0.048773
  19 C :   -0.057999
  20 C :   -0.133385
  21 H :    0.031815
  22 C :    0.025059
  23 H :    0.030864
  24 H :    0.019618
  25 C :   -0.041400
  26 H :    0.037762
  27 H :    0.002101
  28 C :   -0.030006
  29 H :    0.018835
  30 H :    0.049854
  31 H :    0.025072
  32 H :    0.057005
  33 H :    0.071937
Sum of atomic charges:   -0.0000000

LOEWDIN ATOMIC CHARGES
----------------------
   0 S :    0.414344
   1 C :   -0.203587
   2 C :   -0.062748
   3 C :   -0.057488
   4 C :   -0.196183
   5 H :    0.020709
   6 C :   -0.043900
   7 H :    0.024388
   8 H :    0.043189
   9 C :   -0.038041
  10 H :    0.028332
  11 H :    0.025094
  12 C :   -0.063899
  13 H :    0.030115
  14 H :    0.018888
  15 H :    0.037588
  16 S :    0.392931
  17 C :   -0.193497
  18 C :   -0.083543
  19 C :   -0.058909
  20 C :   -0.187852
  21 H :    0.036748
  22 C :   -0.032681
  23 H :    0.032149
  24 H :    0.023867
  25 C :   -0.034486
  26 H :    0.031019
  27 H :    0.005977
  28 C :   -0.067981
  29 H :    0.023403
  30 H :    0.034592
  31 H :    0.026032
  32 H :    0.034134
  33 H :    0.041296

  Mayer bond orders larger than 0.100000
B(  0-S ,  1-C ) :   1.1436 B(  0-S ,  4-C ) :   1.1403 B(  1-C ,  2-C ) :   1.6010
B(  1-C , 32-H ) :   0.9620 B(  2-C ,  3-C ) :   1.2608 B(  2-C ,  6-C ) :   1.0030
B(  3-C ,  4-C ) :   1.5324 B(  3-C ,  5-H ) :   0.9939 B(  4-C , 20-C ) :   1.1037
B(  6-C ,  7-H ) :   0.9392 B(  6-C ,  8-H ) :   0.9468 B(  6-C ,  9-C ) :   1.0667
B(  9-C , 10-H ) :   0.9494 B(  9-C , 11-H ) :   0.9628 B(  9-C , 12-C ) :   1.0742
B( 12-C , 13-H ) :   0.9732 B( 12-C , 14-H ) :   0.9788 B( 12-C , 15-H ) :   0.9754
B( 16-S , 17-C ) :   1.1591 B( 16-S , 20-C ) :   1.1065 B( 17-C , 18-C ) :   1.6287
B( 17-C , 33-H ) :   0.9610 B( 18-C , 19-C ) :   1.2067 B( 18-C , 21-H ) :   0.9881
B( 19-C , 20-C ) :   1.6056 B( 19-C , 22-C ) :   1.0462 B( 22-C , 23-H ) :   0.9260
B( 22-C , 24-H ) :   0.9386 B( 22-C , 25-C ) :   1.0576 B( 25-C , 26-H ) :   0.9523
B( 25-C , 27-H ) :   0.9534 B( 25-C , 28-C ) :   1.0853 B( 28-C , 29-H ) :   0.9721
B( 28-C , 30-H ) :   0.9737 B( 28-C , 31-H ) :   0.9707

Dispersion correction           -0.013755143
FINAL SINGLE POINT ENERGY     -1339.864058783788

DIPOLE MOMENT
-------------
                                X             Y             Z
Electronic contribution:     13.29749       4.52119      28.58604
Nuclear contribution   :    -13.56639      -4.50091     -29.23004
                        -----------------------------------------
Total Dipole Moment    :     -0.26890       0.02028      -0.64400
                        -----------------------------------------
Magnitude (a.u.)       :      0.69818
Magnitude (Debye)      :      1.77463

Rotational constants in cm-1:     0.015921     0.009512     0.006579
Rotational constants in MHz :   477.306127   285.170357   197.248435

                             ****ORCA TERMINATED NORMALLY****
TOTAL RUN TIME: 0 days 0 hours 0 minutes 34 seconds 599 msec
