                         Program Version 4.2.1 -  RELEASE  -
|  1> ! wB97X-D3 SP def2-SVP
|  2> %pal
|  3> nprocs 16
|  4> end
|  5>
|  6> * xyz 0 1
|  7> S 	 -30.5453 	 72.1506 	 158.382
|  8> C 	 -29.2341 	 72.8166 	 159.251
|  9> C 	 -29.6367 	 73.2956 	 160.453
| 10> C 	 -31.0403 	 73.0624 	 160.716
| 11> C 	 -31.6642 	 72.3507 	 159.707
| 12> H 	 -31.558 	 73.3403 	 161.615
| 13> C 	 -28.7432 	 73.9045 	 161.525
| 14> H 	 -29.252 	 73.7808 	 162.504
| 15> H 	 -28.5632 	 75.0018 	 161.375
| 16> C 	 -27.3472 	 73.2298 	 161.52
| 17> H 	 -27.4682 	 72.1553 	 161.399
| 18> H 	 -26.7077 	 73.5538 	 160.654
| 19> C 	 -26.4807 	 73.6055 	 162.668
| 20> H 	 -25.4111 	 73.3401 	 162.605
| 21> H 	 -26.387 	 74.7548 	 162.666
| 22> H 	 -26.8217 	 73.2587 	 163.65
| 23> S 	 -33.4958 	 70.6232 	 160.716
| 24> C 	 -35.2277 	 70.8759 	 160.325
| 25> C 	 -35.3999 	 71.8096 	 159.285
| 26> C 	 -34.0962 	 72.2313 	 158.759
| 27> C 	 -33.0275 	 71.889 	 159.604
| 28> H 	 -36.2704 	 72.0506 	 158.775
| 29> C 	 -33.9059 	 73.1206 	 157.63
| 30> H 	 -33.0744 	 73.769 	 157.679
| 31> H 	 -34.6963 	 73.8693 	 157.714
| 32> C 	 -33.9766 	 72.4346 	 156.221
| 33> H 	 -33.8075 	 73.196 	 155.438
| 34> H 	 -35.0227 	 72.0214 	 156.178
| 35> C 	 -32.9563 	 71.2355 	 156.193
| 36> H 	 -31.9624 	 71.6874 	 156.352
| 37> H 	 -32.9804 	 70.7319 	 155.194
| 38> H 	 -33.1291 	 70.4962 	 156.948
| 39> H 	 -28.2747 	 72.9754 	 158.846
| 40> H 	 -35.9795 	 70.3334 	 160.715
| 41> *
| 42>
| 43>                          ****END OF INPUT****

CARTESIAN COORDINATES (ANGSTROEM)
---------------------------------
  S    -30.545300   72.150600  158.382000
  C    -29.234100   72.816600  159.251000
  C    -29.636700   73.295600  160.453000
  C    -31.040300   73.062400  160.716000
  C    -31.664200   72.350700  159.707000
  H    -31.558000   73.340300  161.615000
  C    -28.743200   73.904500  161.525000
  H    -29.252000   73.780800  162.504000
  H    -28.563200   75.001800  161.375000
  C    -27.347200   73.229800  161.520000
  H    -27.468200   72.155300  161.399000
  H    -26.707700   73.553800  160.654000
  C    -26.480700   73.605500  162.668000
  H    -25.411100   73.340100  162.605000
  H    -26.387000   74.754800  162.666000
  H    -26.821700   73.258700  163.650000
  S    -33.495800   70.623200  160.716000
  C    -35.227700   70.875900  160.325000
  C    -35.399900   71.809600  159.285000
  C    -34.096200   72.231300  158.759000
  C    -33.027500   71.889000  159.604000
  H    -36.270400   72.050600  158.775000
  C    -33.905900   73.120600  157.630000
  H    -33.074400   73.769000  157.679000
  H    -34.696300   73.869300  157.714000
  C    -33.976600   72.434600  156.221000
  H    -33.807500   73.196000  155.438000
  H    -35.022700   72.021400  156.178000
  C    -32.956300   71.235500  156.193000
  H    -31.962400   71.687400  156.352000
  H    -32.980400   70.731900  155.194000
  H    -33.129100   70.496200  156.948000
  H    -28.274700   72.975400  158.846000
  H    -35.979500   70.333400  160.715000

 Total Charge           Charge          ....    0
 Multiplicity           Mult            ....    1
 Number of Electrons    NEL             ....  134
 Basis Dimension        Dim             ....  322

ORBITAL ENERGIES
----------------

  NO   OCC          E(Eh)            E(eV)
   0   2.0000     -88.965944     -2420.8864
   1   2.0000     -88.963082     -2420.8085
   2   2.0000     -10.328402      -281.0501
   3   2.0000     -10.324561      -280.9456
   4   2.0000     -10.319329      -280.8032
   5   2.0000     -10.305435      -280.4251
   6   2.0000     -10.303215      -280.3647
   7   2.0000     -10.299883      -280.2741
   8   2.0000     -10.299306      -280.2584
   9   2.0000     -10.298275      -280.2303
  10   2.0000     -10.295410      -280.1523
  11   2.0000     -10.293348      -280.0962
  12   2.0000     -10.288372      -279.9608
  13   2.0000     -10.283393      -279.8254
  14   2.0000     -10.278729      -279.6984
  15   2.0000     -10.273273      -279.5500
  16   2.0000      -8.079963      -219.8670
  17   2.0000      -8.078303      -219.8218
  18   2.0000      -6.038590      -164.3184
  19   2.0000      -6.036755      -164.2684
  20   2.0000      -6.034564      -164.2088
  21   2.0000      -6.032649      -164.1567
  22   2.0000      -6.030648      -164.1023
  23   2.0000      -6.029146      -164.0614
  24   2.0000      -1.008593       -27.4452
  25   2.0000      -0.982083       -26.7238
  26   2.0000      -0.912399       -24.8276
  27   2.0000      -0.906183       -24.6585
  28   2.0000      -0.872396       -23.7391
  29   2.0000      -0.850550       -23.1447
  30   2.0000      -0.838883       -22.8272
  31   2.0000      -0.816306       -22.2128
  32   2.0000      -0.780729       -21.2447
  33   2.0000      -0.766148       -20.8479
  34   2.0000      -0.710602       -19.3365
  35   2.0000      -0.695610       -18.9285
  36   2.0000      -0.694228       -18.8909
  37   2.0000      -0.665808       -18.1176
  38   2.0000      -0.648106       -17.6359
  39   2.0000      -0.613539       -16.6952
  40   2.0000      -0.601064       -16.3558
  41   2.0000      -0.572510       -15.5788
  42   2.0000      -0.569196       -15.4886
  43   2.0000      -0.548916       -14.9368
  44   2.0000      -0.544643       -14.8205
  45   2.0000      -0.520642       -14.1674
  46   2.0000      -0.517929       -14.0936
  47   2.0000      -0.513415       -13.9707
  48   2.0000      -0.507601       -13.8125
  49   2.0000      -0.499470       -13.5913
  50   2.0000      -0.486543       -13.2395
  51   2.0000      -0.482753       -13.1364
  52   2.0000      -0.466983       -12.7072
  53   2.0000      -0.461427       -12.5561
  54   2.0000      -0.458685       -12.4815
  55   2.0000      -0.452113       -12.3026
  56   2.0000      -0.447681       -12.1820
  57   2.0000      -0.432075       -11.7573
  58   2.0000      -0.423967       -11.5367
  59   2.0000      -0.422490       -11.4965
  60   2.0000      -0.419695       -11.4205
  61   2.0000      -0.417535       -11.3617
  62   2.0000      -0.398973       -10.8566
  63   2.0000      -0.339487        -9.2379
  64   2.0000      -0.332314        -9.0427
  65   2.0000      -0.322956        -8.7881
  66   2.0000      -0.296959        -8.0807
  67   0.0000       0.032683         0.8894
  68   0.0000       0.063986         1.7412
  69   0.0000       0.103330         2.8117
  70   0.0000       0.115295         3.1373
  71   0.0000       0.132955         3.6179

MULLIKEN ATOMIC CHARGES
-----------------------
   0 S :    0.100975
   1 C :   -0.086269
   2 C :   -0.096660
   3 C :    0.048555
   4 C :   -0.154668
   5 H :    0.007916
   6 C :    0.068411
   7 H :    0.032277
   8 H :    0.046377
   9 C :   -0.112142
  10 H :    0.039691
  11 H :    0.033154
  12 C :   -0.061297
  13 H :    0.034902
  14 H :    0.026220
  15 H :    0.033896
  16 S :    0.108733
  17 C :   -0.043578
  18 C :    0.021295
  19 C :   -0.045107
  20 C :   -0.175430
  21 H :   -0.000317
  22 C :    0.036183
  23 H :    0.016805
  24 H :    0.014429
  25 C :   -0.072090
  26 H :    0.043760
  27 H :    0.029294
  28 C :   -0.080029
  29 H :    0.045454
  30 H :    0.040306
  31 H :    0.050570
  32 H :    0.029978
  33 H :    0.018404
Sum of atomic charges:   -0.0000000

LOEWDIN ATOMIC CHARGES
----------------------
   0 S :    0.447812
   1 C :   -0.201375
   2 C :   -0.068456
   3 C :   -0.053852
   4 C :   -0.198832
   5 H :    0.030337
   6 C :   -0.031459
   7 H :    0.033044
   8 H :    0.038110
   9 C :   -0.053124
  10 H :    0.023323
  11 H :    0.030345
  12 C :   -0.074911
  13 H :    0.028233
  14 H :    0.031721
  15 H :    0.020933
  16 S :    0.395553
  17 C :   -0.150249
  18 C :   -0.049002
  19 C :   -0.048799
  20 C :   -0.204439
  21 H :    0.020845
  22 C :   -0.046924
  23 H :    0.021091
  24 H :    0.031386
  25 C :   -0.032470
  26 H :    0.027348
  27 H :    0.022689
  28 C :   -0.076316
  29 H :    0.010376
  30 H :    0.029488
  31 H :    0.022830
  32 H :    0.021449
  33 H :    0.003293

  Mayer bond orders larger than 0.100000
B(  0-S ,  1-C ) :   1.1393 B(  0-S ,  4-C ) :   1.1531 B(  1-C ,  2-C ) :   1.6197
B(  1-C , 32-H ) :   0.9738 B(  2-C ,  3-C ) :   1.2401 B(  2-C ,  6-C ) :   1.0172
B(  3-C ,  4-C ) :   1.5806 B(  3-C ,  5-H ) :   0.9996 B(  4-C , 20-C ) :   1.0275
B(  6-C ,  7-H ) :   0.9520 B(  6-C ,  8-H ) :   0.9249 B(  6-C ,  9-C ) :   1.0692
B(  9-C , 10-H ) :   0.9610 B(  9-C , 11-H ) :   0.9437 B(  9-C , 12-C ) :   1.0915
B( 12-C , 13-H ) :   0.9724 B( 12-C , 14-H ) :   0.9676 B( 12-C , 15-H ) :   0.9744
B( 16-S , 17-C ) :   1.1458 B( 16-S , 20-C ) :   1.1407 B( 17-C , 18-C ) :   1.5932
B( 17-C , 20-C ) :   0.1009 B( 17-C , 33-H ) :   0.9837 B( 18-C , 19-C ) :   1.2385
B( 18-C , 21-H ) :   0.9912 B( 19-C , 20-C ) :   1.5714 B( 19-C , 22-C ) :   1.0685
B( 22-C , 23-H ) :   0.9369 B( 22-C , 24-H ) :   0.9298 B( 22-C , 25-C ) :   1.0494
B( 25-C , 26-H ) :   0.9592 B( 25-C , 27-H ) :   0.9591 B( 25-C , 28-C ) :   1.0646
B( 28-C , 29-H ) :   0.9662 B( 28-C , 30-H ) :   0.9726 B( 28-C , 31-H ) :   0.9730

Dispersion correction           -0.015137951
FINAL SINGLE POINT ENERGY     -1339.869634939900

DIPOLE MOMENT
-------------
                                X             Y             Z
Electronic contribution:    -11.99051      -8.42930       1.50973
Nuclear contribution   :     12.06047       8.79290      -1.50896
                        -----------------------------------------
Total Dipole Moment    :      0.06996       0.36360       0.00077
                        -----------------------------------------
Magnitude (a.u.)       :      0.37027
Magnitude (Debye)      :      0.94116

Rotational constants in cm-1:     0.026146     0.007537     0.006393
Rotational constants in MHz :   783.836865   225.950971   191.652401

                             ****ORCA TERMINATED NORMALLY****
TOTAL RUN TIME: 0 days 0 hours 0 minutes 35 seconds 428 msec
