                         Program Version 4.2.1 -  RELEASE  -
|  1> ! wB97X-D3 SP def2-SVP
|  2> %pal
|  3> nprocs 16
|  4> end
|  5>
|  6> * xyz 0 1
|  7> S 	 7.95206 	 -9.00994 	 64.4574
|  8> C 	 7.18488 	 -9.43346 	 65.932
|  9> C 	 7.77455 	 -10.5145 	 66.61
| 10> C 	 8.94506 	 -10.9923 	 65.9045
| 11> C 	 9.08514 	 -10.3368 	 64.6504
| 12> H 	 9.52981 	 -11.7807 	 66.1789
| 13> C 	 7.56233 	 -10.9183 	 68.034
| 14> H 	 7.69557 	 -12.0208 	 68.0281
| 15> H 	 6.46657 	 -10.7859 	 68.2298
| 16> C 	 8.53729 	 -10.3485 	 69.0945
| 17> H 	 8.65453 	 -10.9964 	 69.8839
| 18> H 	 9.57982 	 -10.5001 	 68.7201
| 19> C 	 8.29692 	 -8.87716 	 69.5232
| 20> H 	 8.21064 	 -8.21356 	 68.6592
| 21> H 	 7.35627 	 -8.86032 	 70.1286
| 22> H 	 9.07231 	 -8.5646 	 70.24
| 23> S 	 11.1531 	 -9.41276 	 63.1392
| 24> C 	 11.6922 	 -10.4767 	 61.8297
| 25> C 	 11.1016 	 -11.7342 	 61.8951
| 26> C 	 10.1395 	 -11.8054 	 62.9142
| 27> C 	 10.0248 	 -10.6008 	 63.591
| 28> H 	 11.5069 	 -12.4795 	 61.2321
| 29> C 	 9.3297 	 -13.0879 	 63.1404
| 30> H 	 8.39852 	 -12.9688 	 62.6351
| 31> H 	 9.07708 	 -13.1926 	 64.21
| 32> C 	 9.8735 	 -14.5529 	 62.71
| 33> H 	 10.7212 	 -14.6377 	 63.3786
| 34> H 	 10.1113 	 -14.5935 	 61.6061
| 35> C 	 8.85376 	 -15.7224 	 62.8679
| 36> H 	 8.31573 	 -15.6349 	 63.8092
| 37> H 	 9.43017 	 -16.7051 	 63.0238
| 38> H 	 8.17614 	 -15.7979 	 62.0671
| 39> H 	 6.41445 	 -8.87559 	 66.4157
| 40> H 	 12.5315 	 -10.289 	 61.2283
| 41> *
| 42>
| 43>                          ****END OF INPUT****

CARTESIAN COORDINATES (ANGSTROEM)
---------------------------------
  S      7.952060   -9.009940   64.457400
  C      7.184880   -9.433460   65.932000
  C      7.774550  -10.514500   66.610000
  C      8.945060  -10.992300   65.904500
  C      9.085140  -10.336800   64.650400
  H      9.529810  -11.780700   66.178900
  C      7.562330  -10.918300   68.034000
  H      7.695570  -12.020800   68.028100
  H      6.466570  -10.785900   68.229800
  C      8.537290  -10.348500   69.094500
  H      8.654530  -10.996400   69.883900
  H      9.579820  -10.500100   68.720100
  C      8.296920   -8.877160   69.523200
  H      8.210640   -8.213560   68.659200
  H      7.356270   -8.860320   70.128600
  H      9.072310   -8.564600   70.240000
  S     11.153100   -9.412760   63.139200
  C     11.692200  -10.476700   61.829700
  C     11.101600  -11.734200   61.895100
  C     10.139500  -11.805400   62.914200
  C     10.024800  -10.600800   63.591000
  H     11.506900  -12.479500   61.232100
  C      9.329700  -13.087900   63.140400
  H      8.398520  -12.968800   62.635100
  H      9.077080  -13.192600   64.210000
  C      9.873500  -14.552900   62.710000
  H     10.721200  -14.637700   63.378600
  H     10.111300  -14.593500   61.606100
  C      8.853760  -15.722400   62.867900
  H      8.315730  -15.634900   63.809200
  H      9.430170  -16.705100   63.023800
  H      8.176140  -15.797900   62.067100
  H      6.414450   -8.875590   66.415700
  H     12.531500  -10.289000   61.228300

 Total Charge           Charge          ....    0
 Multiplicity           Mult            ....    1
 Number of Electrons    NEL             ....  134
 Basis Dimension        Dim             ....  322

ORBITAL ENERGIES
----------------

  NO   OCC          E(Eh)            E(eV)
   0   2.0000     -88.968890     -2420.9666
   1   2.0000     -88.968121     -2420.9456
   2   2.0000     -10.327469      -281.0247
   3   2.0000     -10.317863      -280.7633
   4   2.0000     -10.311910      -280.6013
   5   2.0000     -10.309170      -280.5268
   6   2.0000     -10.302009      -280.3319
   7   2.0000     -10.299130      -280.2536
   8   2.0000     -10.298826      -280.2453
   9   2.0000     -10.296229      -280.1746
  10   2.0000     -10.292159      -280.0639
  11   2.0000     -10.291299      -280.0405
  12   2.0000     -10.290740      -280.0253
  13   2.0000     -10.286029      -279.8971
  14   2.0000     -10.284814      -279.8640
  15   2.0000     -10.282965      -279.8137
  16   2.0000      -8.084084      -219.9791
  17   2.0000      -8.083110      -219.9526
  18   2.0000      -6.042408      -164.4223
  19   2.0000      -6.041459      -164.3964
  20   2.0000      -6.038624      -164.3193
  21   2.0000      -6.037532      -164.2896
  22   2.0000      -6.034922      -164.2186
  23   2.0000      -6.034094      -164.1961
  24   2.0000      -1.009005       -27.4564
  25   2.0000      -0.982163       -26.7260
  26   2.0000      -0.908056       -24.7094
  27   2.0000      -0.896303       -24.3896
  28   2.0000      -0.867454       -23.6046
  29   2.0000      -0.853101       -23.2141
  30   2.0000      -0.847819       -23.0703
  31   2.0000      -0.810215       -22.0471
  32   2.0000      -0.781504       -21.2658
  33   2.0000      -0.769466       -20.9382
  34   2.0000      -0.711825       -19.3697
  35   2.0000      -0.698188       -18.9987
  36   2.0000      -0.696624       -18.9561
  37   2.0000      -0.657681       -17.8964
  38   2.0000      -0.642682       -17.4883
  39   2.0000      -0.616797       -16.7839
  40   2.0000      -0.593106       -16.1392
  41   2.0000      -0.571148       -15.5417
  42   2.0000      -0.563888       -15.3442
  43   2.0000      -0.552143       -15.0246
  44   2.0000      -0.532756       -14.4970
  45   2.0000      -0.520419       -14.1613
  46   2.0000      -0.516732       -14.0610
  47   2.0000      -0.503717       -13.7068
  48   2.0000      -0.501388       -13.6435
  49   2.0000      -0.494668       -13.4606
  50   2.0000      -0.489659       -13.3243
  51   2.0000      -0.479601       -13.0506
  52   2.0000      -0.470500       -12.8030
  53   2.0000      -0.464829       -12.6486
  54   2.0000      -0.457379       -12.4459
  55   2.0000      -0.451708       -12.2916
  56   2.0000      -0.447807       -12.1854
  57   2.0000      -0.440419       -11.9844
  58   2.0000      -0.438351       -11.9281
  59   2.0000      -0.426776       -11.6132
  60   2.0000      -0.424857       -11.5609
  61   2.0000      -0.409751       -11.1499
  62   2.0000      -0.405331       -11.0296
  63   2.0000      -0.341343        -9.2884
  64   2.0000      -0.331434        -9.0188
  65   2.0000      -0.326948        -8.8967
  66   2.0000      -0.289494        -7.8775
  67   0.0000       0.033241         0.9045
  68   0.0000       0.065651         1.7865
  69   0.0000       0.110658         3.0112
  70   0.0000       0.120541         3.2801
  71   0.0000       0.126205         3.4342

MULLIKEN ATOMIC CHARGES
-----------------------
   0 S :    0.130948
   1 C :   -0.092783
   2 C :   -0.108339
   3 C :    0.082866
   4 C :   -0.197429
   5 H :   -0.020109
   6 C :    0.023842
   7 H :    0.024471
   8 H :    0.029977
   9 C :   -0.021119
  10 H :    0.001057
  11 H :    0.015237
  12 C :   -0.054597
  13 H :    0.049004
  14 H :    0.031735
  15 H :    0.039768
  16 S :    0.129511
  17 C :   -0.081957
  18 C :   -0.052075
  19 C :    0.007655
  20 C :   -0.172914
  21 H :    0.020454
  22 C :    0.061389
  23 H :    0.031037
  24 H :    0.019422
  25 C :   -0.109117
  26 H :    0.040146
  27 H :    0.047169
  28 C :   -0.052135
  29 H :    0.025258
  30 H :    0.045611
  31 H :    0.037912
  32 H :    0.032941
  33 H :    0.035162
Sum of atomic charges:   -0.0000000

LOEWDIN ATOMIC CHARGES
----------------------
   0 S :    0.426584
   1 C :   -0.211873
   2 C :   -0.065801
   3 C :   -0.043460
   4 C :   -0.188884
   5 H :    0.012421
   6 C :   -0.040566
   7 H :    0.035070
   8 H :    0.032670
   9 C :   -0.040726
  10 H :    0.013228
  11 H :    0.029820
  12 C :   -0.065839
  13 H :    0.027711
  14 H :    0.028266
  15 H :    0.030247
  16 S :    0.426071
  17 C :   -0.175157
  18 C :   -0.064300
  19 C :   -0.054356
  20 C :   -0.229955
  21 H :    0.033396
  22 C :   -0.034889
  23 H :    0.028831
  24 H :    0.028736
  25 C :   -0.040851
  26 H :    0.022806
  27 H :    0.028845
  28 C :   -0.065907
  29 H :    0.022595
  30 H :    0.040357
  31 H :    0.018926
  32 H :    0.020327
  33 H :    0.015656

  Mayer bond orders larger than 0.100000
B(  0-S ,  1-C ) :   1.1488 B(  0-S ,  4-C ) :   1.1664 B(  1-C ,  2-C ) :   1.5967
B(  1-C , 32-H ) :   0.9662 B(  2-C ,  3-C ) :   1.2375 B(  2-C ,  6-C ) :   1.0475
B(  3-C ,  4-C ) :   1.5546 B(  3-C ,  5-H ) :   1.0007 B(  4-C , 20-C ) :   1.0360
B(  6-C ,  7-H ) :   0.9296 B(  6-C ,  8-H ) :   0.9433 B(  6-C ,  9-C ) :   1.0649
B(  9-C , 10-H ) :   0.9504 B(  9-C , 11-H ) :   0.9455 B(  9-C , 12-C ) :   1.0699
B( 12-C , 13-H ) :   0.9775 B( 12-C , 14-H ) :   0.9762 B( 12-C , 15-H ) :   0.9730
B( 16-S , 17-C ) :   1.1514 B( 16-S , 20-C ) :   1.1703 B( 17-C , 18-C ) :   1.6048
B( 17-C , 20-C ) :   0.1025 B( 17-C , 33-H ) :   0.9702 B( 18-C , 19-C ) :   1.2555
B( 18-C , 21-H ) :   0.9917 B( 19-C , 20-C ) :   1.5722 B( 19-C , 22-C ) :   1.0310
B( 22-C , 23-H ) :   0.9294 B( 22-C , 24-H ) :   0.9313 B( 22-C , 25-C ) :   1.0551
B( 25-C , 26-H ) :   0.9647 B( 25-C , 27-H ) :   0.9531 B( 25-C , 28-C ) :   1.0768
B( 28-C , 29-H ) :   0.9750 B( 28-C , 30-H ) :   0.9735 B( 28-C , 31-H ) :   0.9788

Dispersion correction           -0.014088131
FINAL SINGLE POINT ENERGY     -1339.861616619261

DIPOLE MOMENT
-------------
                                X             Y             Z
Electronic contribution:      5.09749      19.31724     -14.41875
Nuclear contribution   :     -5.00554     -19.89979      14.72086
                        -----------------------------------------
Total Dipole Moment    :      0.09195      -0.58255       0.30211
                        -----------------------------------------
Magnitude (a.u.)       :      0.66264
Magnitude (Debye)      :      1.68430

Rotational constants in cm-1:     0.017914     0.008276     0.006521
Rotational constants in MHz :   537.048318   248.100559   195.493592

                             ****ORCA TERMINATED NORMALLY****
TOTAL RUN TIME: 0 days 0 hours 0 minutes 33 seconds 907 msec
