                         Program Version 4.2.1 -  RELEASE  -
|  1> ! wB97X-D3 SP def2-SVP
|  2> %pal
|  3> nprocs 16
|  4> end
|  5>
|  6> * xyz 0 1
|  7> S 	 33.8164 	 2.53422 	 67.4812
|  8> C 	 34.1844 	 4.24761 	 67.4386
|  9> C 	 33.2549 	 5.0195 	 66.8546
| 10> C 	 32.3516 	 4.11095 	 66.1429
| 11> C 	 32.5244 	 2.75746 	 66.4033
| 12> H 	 31.5608 	 4.29519 	 65.4669
| 13> C 	 33.1721 	 6.49123 	 66.6617
| 14> H 	 33.7628 	 7.0381 	 67.4562
| 15> H 	 32.1263 	 6.71112 	 66.8517
| 16> C 	 33.5883 	 7.02895 	 65.2842
| 17> H 	 32.9252 	 6.40931 	 64.6364
| 18> H 	 33.4019 	 8.09439 	 65.2757
| 19> C 	 35.0319 	 6.80175 	 64.8584
| 20> H 	 35.6443 	 7.36376 	 65.5565
| 21> H 	 35.345 	 5.83442 	 65.0275
| 22> H 	 35.1938 	 7.15896 	 63.854
| 23> S 	 31.0118 	 0.579254 	 66.9215
| 24> C 	 30.5767 	 -0.420872 	 65.5257
| 25> C 	 30.7697 	 0.247424 	 64.3206
| 26> C 	 31.5873 	 1.4266 	 64.4236
| 27> C 	 31.7903 	 1.73707 	 65.7808
| 28> H 	 30.3882 	 -0.108988 	 63.3691
| 29> C 	 31.988 	 2.17697 	 63.2104
| 30> H 	 32.7527 	 1.71289 	 62.6325
| 31> H 	 32.4979 	 3.21598 	 63.3601
| 32> C 	 30.8291 	 2.47875 	 62.2238
| 33> H 	 29.8861 	 2.67964 	 62.693
| 34> H 	 30.5739 	 1.59557 	 61.6642
| 35> C 	 31.2295 	 3.65334 	 61.2541
| 36> H 	 32.214 	 3.40199 	 60.8352
| 37> H 	 31.3196 	 4.58894 	 61.7868
| 38> H 	 30.4841 	 3.84123 	 60.4975
| 39> H 	 34.853 	 4.81344 	 68.1057
| 40> H 	 30.0055 	 -1.34631 	 65.5278
| 41> *
| 42>
| 43>                          ****END OF INPUT****

CARTESIAN COORDINATES (ANGSTROEM)
---------------------------------
  S     33.816400    2.534220   67.481200
  C     34.184400    4.247610   67.438600
  C     33.254900    5.019500   66.854600
  C     32.351600    4.110950   66.142900
  C     32.524400    2.757460   66.403300
  H     31.560800    4.295190   65.466900
  C     33.172100    6.491230   66.661700
  H     33.762800    7.038100   67.456200
  H     32.126300    6.711120   66.851700
  C     33.588300    7.028950   65.284200
  H     32.925200    6.409310   64.636400
  H     33.401900    8.094390   65.275700
  C     35.031900    6.801750   64.858400
  H     35.644300    7.363760   65.556500
  H     35.345000    5.834420   65.027500
  H     35.193800    7.158960   63.854000
  S     31.011800    0.579254   66.921500
  C     30.576700   -0.420872   65.525700
  C     30.769700    0.247424   64.320600
  C     31.587300    1.426600   64.423600
  C     31.790300    1.737070   65.780800
  H     30.388200   -0.108988   63.369100
  C     31.988000    2.176970   63.210400
  H     32.752700    1.712890   62.632500
  H     32.497900    3.215980   63.360100
  C     30.829100    2.478750   62.223800
  H     29.886100    2.679640   62.693000
  H     30.573900    1.595570   61.664200
  C     31.229500    3.653340   61.254100
  H     32.214000    3.401990   60.835200
  H     31.319600    4.588940   61.786800
  H     30.484100    3.841230   60.497500
  H     34.853000    4.813440   68.105700
  H     30.005500   -1.346310   65.527800

 Total Charge           Charge          ....    0
 Multiplicity           Mult            ....    1
 Number of Electrons    NEL             ....  134
 Basis Dimension        Dim             ....  322

ORBITAL ENERGIES
----------------

  NO   OCC          E(Eh)            E(eV)
   0   2.0000     -88.968637     -2420.9597
   1   2.0000     -88.965007     -2420.8609
   2   2.0000     -10.327948      -281.0377
   3   2.0000     -10.320805      -280.8434
   4   2.0000     -10.316959      -280.7387
   5   2.0000     -10.309179      -280.5270
   6   2.0000     -10.308928      -280.5202
   7   2.0000     -10.299308      -280.2584
   8   2.0000     -10.298138      -280.2266
   9   2.0000     -10.296686      -280.1871
  10   2.0000     -10.296188      -280.1735
  11   2.0000     -10.289506      -279.9917
  12   2.0000     -10.288566      -279.9661
  13   2.0000     -10.288285      -279.9585
  14   2.0000     -10.283166      -279.8192
  15   2.0000     -10.268296      -279.4145
  16   2.0000      -8.082260      -219.9295
  17   2.0000      -8.080659      -219.8859
  18   2.0000      -6.040822      -164.3791
  19   2.0000      -6.039227      -164.3357
  20   2.0000      -6.037138      -164.2789
  21   2.0000      -6.035109      -164.2237
  22   2.0000      -6.032811      -164.1611
  23   2.0000      -6.031196      -164.1172
  24   2.0000      -1.010744       -27.5037
  25   2.0000      -0.980926       -26.6923
  26   2.0000      -0.919572       -25.0228
  27   2.0000      -0.909387       -24.7457
  28   2.0000      -0.875135       -23.8136
  29   2.0000      -0.851842       -23.1798
  30   2.0000      -0.846350       -23.0304
  31   2.0000      -0.808750       -22.0072
  32   2.0000      -0.790401       -21.5079
  33   2.0000      -0.775570       -21.1043
  34   2.0000      -0.714288       -19.4368
  35   2.0000      -0.703172       -19.1343
  36   2.0000      -0.696624       -18.9561
  37   2.0000      -0.659252       -17.9392
  38   2.0000      -0.639249       -17.3948
  39   2.0000      -0.617412       -16.8006
  40   2.0000      -0.604313       -16.4442
  41   2.0000      -0.569856       -15.5066
  42   2.0000      -0.560043       -15.2395
  43   2.0000      -0.553205       -15.0535
  44   2.0000      -0.548911       -14.9366
  45   2.0000      -0.528077       -14.3697
  46   2.0000      -0.519669       -14.1409
  47   2.0000      -0.510094       -13.8804
  48   2.0000      -0.500998       -13.6328
  49   2.0000      -0.493680       -13.4337
  50   2.0000      -0.490617       -13.3504
  51   2.0000      -0.476015       -12.9530
  52   2.0000      -0.472469       -12.8565
  53   2.0000      -0.468143       -12.7388
  54   2.0000      -0.458217       -12.4687
  55   2.0000      -0.449422       -12.2294
  56   2.0000      -0.445943       -12.1347
  57   2.0000      -0.442086       -12.0298
  58   2.0000      -0.439663       -11.9638
  59   2.0000      -0.431335       -11.7372
  60   2.0000      -0.423535       -11.5250
  61   2.0000      -0.415072       -11.2947
  62   2.0000      -0.411443       -11.1959
  63   2.0000      -0.341764        -9.2999
  64   2.0000      -0.333170        -9.0660
  65   2.0000      -0.327258        -8.9051
  66   2.0000      -0.292785        -7.9671
  67   0.0000       0.029342         0.7984
  68   0.0000       0.069965         1.9038
  69   0.0000       0.098670         2.6850
  70   0.0000       0.116095         3.1591
  71   0.0000       0.121665         3.3107

MULLIKEN ATOMIC CHARGES
-----------------------
   0 S :    0.130201
   1 C :   -0.110997
   2 C :   -0.086727
   3 C :    0.012775
   4 C :   -0.145878
   5 H :   -0.008355
   6 C :    0.054019
   7 H :    0.020478
   8 H :    0.035136
   9 C :   -0.079013
  10 H :    0.026879
  11 H :    0.037240
  12 C :    0.003096
  13 H :    0.008641
  14 H :    0.018804
  15 H :    0.040443
  16 S :    0.105091
  17 C :   -0.078227
  18 C :   -0.047939
  19 C :    0.031290
  20 C :   -0.193755
  21 H :    0.020051
  22 C :    0.022817
  23 H :    0.030107
  24 H :    0.036972
  25 C :   -0.093096
  26 H :    0.027070
  27 H :    0.025917
  28 C :   -0.049994
  29 H :    0.035156
  30 H :    0.033445
  31 H :    0.035473
  32 H :    0.044004
  33 H :    0.058876
Sum of atomic charges:    0.0000000

LOEWDIN ATOMIC CHARGES
----------------------
   0 S :    0.423441
   1 C :   -0.202485
   2 C :   -0.063917
   3 C :   -0.055852
   4 C :   -0.224181
   5 H :    0.019002
   6 C :   -0.036060
   7 H :    0.029180
   8 H :    0.036684
   9 C :   -0.035396
  10 H :    0.024528
  11 H :    0.025632
  12 C :   -0.055161
  13 H :    0.023703
  14 H :    0.015532
  15 H :    0.028994
  16 S :    0.377448
  17 C :   -0.180253
  18 C :   -0.064224
  19 C :   -0.047518
  20 C :   -0.178236
  21 H :    0.029525
  22 C :   -0.040408
  23 H :    0.030711
  24 H :    0.040905
  25 C :   -0.036943
  26 H :    0.019629
  27 H :    0.017798
  28 C :   -0.060494
  29 H :    0.026950
  30 H :    0.023418
  31 H :    0.025164
  32 H :    0.031930
  33 H :    0.030955

  Mayer bond orders larger than 0.100000
B(  0-S ,  1-C ) :   1.1276 B(  0-S ,  4-C ) :   1.1331 B(  1-C ,  2-C ) :   1.6624
B(  1-C , 32-H ) :   0.9493 B(  2-C ,  3-C ) :   1.1731 B(  2-C ,  6-C ) :   1.0379
B(  3-C ,  4-C ) :   1.5972 B(  3-C ,  5-H ) :   0.9998 B(  4-C , 20-C ) :   1.0745
B(  6-C ,  7-H ) :   0.9350 B(  6-C ,  8-H ) :   0.9309 B(  6-C ,  9-C ) :   1.0733
B(  9-C , 10-H ) :   0.9533 B(  9-C , 11-H ) :   0.9555 B(  9-C , 12-C ) :   1.0803
B( 12-C , 13-H ) :   0.9691 B( 12-C , 14-H ) :   0.9741 B( 12-C , 15-H ) :   0.9726
B( 16-S , 17-C ) :   1.1314 B( 16-S , 20-C ) :   1.1248 B( 17-C , 18-C ) :   1.6399
B( 17-C , 33-H ) :   0.9638 B( 18-C , 19-C ) :   1.2137 B( 18-C , 21-H ) :   0.9815
B( 19-C , 20-C ) :   1.6032 B( 19-C , 22-C ) :   1.0512 B( 22-C , 23-H ) :   0.9188
B( 22-C , 24-H ) :   0.9469 B( 22-C , 25-C ) :   1.0411 B( 25-C , 26-H ) :   0.9647
B( 25-C , 27-H ) :   0.9485 B( 25-C , 28-C ) :   1.0820 B( 28-C , 29-H ) :   0.9747
B( 28-C , 30-H ) :   0.9762 B( 28-C , 31-H ) :   0.9742

Dispersion correction           -0.014483880
FINAL SINGLE POINT ENERGY     -1339.861025742768

DIPOLE MOMENT
-------------
                                X             Y             Z
Electronic contribution:     -2.21630     -21.47801      22.71976
Nuclear contribution   :      2.03135      21.93681     -23.32983
                        -----------------------------------------
Total Dipole Moment    :     -0.18495       0.45879      -0.61007
                        -----------------------------------------
Magnitude (a.u.)       :      0.78542
Magnitude (Debye)      :      1.99637

Rotational constants in cm-1:     0.016868     0.010081     0.006827
Rotational constants in MHz :   505.691739   302.206459   204.665680

                             ****ORCA TERMINATED NORMALLY****
TOTAL RUN TIME: 0 days 0 hours 0 minutes 30 seconds 581 msec
