                         Program Version 4.2.1 -  RELEASE  -
|  1> ! wB97X-D3 SP def2-SVP
|  2> %pal
|  3> nprocs 16
|  4> end
|  5>
|  6> * xyz 0 1
|  7> S 	 58.7297 	 -7.58802 	 87.6861
|  8> C 	 59.7598 	 -6.23226 	 88.0913
|  9> C 	 60.1581 	 -5.48784 	 87.021
| 10> C 	 59.6924 	 -6.07407 	 85.831
| 11> C 	 58.757 	 -7.12844 	 85.9972
| 12> H 	 59.9299 	 -5.708 	 84.9025
| 13> C 	 61.0331 	 -4.26254 	 87.1245
| 14> H 	 61.9692 	 -4.51822 	 86.6552
| 15> H 	 61.2859 	 -4.0399 	 88.1434
| 16> C 	 60.5444 	 -2.96958 	 86.4117
| 17> H 	 61.2738 	 -2.17548 	 86.5753
| 18> H 	 60.6282 	 -3.19242 	 85.3388
| 19> C 	 59.1023 	 -2.54528 	 86.6721
| 20> H 	 58.8962 	 -2.39953 	 87.7283
| 21> H 	 58.9002 	 -1.68305 	 86.2149
| 22> H 	 58.4756 	 -3.32666 	 86.2658
| 23> S 	 56.8542 	 -9.04563 	 85.4783
| 24> C 	 56.7574 	 -9.8648 	 83.9422
| 25> C 	 57.6415 	 -9.21485 	 83.0555
| 26> C 	 58.3249 	 -8.12026 	 83.5848
| 27> C 	 58.1448 	 -8.01183 	 84.9714
| 28> H 	 57.7014 	 -9.39218 	 81.9876
| 29> C 	 59.4493 	 -7.68285 	 82.7284
| 30> H 	 59.6845 	 -6.65666 	 83.1069
| 31> H 	 59.1231 	 -7.67784 	 81.704
| 32> C 	 60.6698 	 -8.58875 	 82.8244
| 33> H 	 61.402 	 -8.21123 	 82.0834
| 34> H 	 60.4376 	 -9.59984 	 82.4655
| 35> C 	 61.3204 	 -8.71654 	 84.1932
| 36> H 	 61.9704 	 -7.94955 	 84.4271
| 37> H 	 61.9292 	 -9.64411 	 84.1983
| 38> H 	 60.6232 	 -8.72667 	 85.0747
| 39> H 	 59.9613 	 -5.85848 	 89.1316
| 40> H 	 56.1334 	 -10.7553 	 83.694
| 41> *
| 42>
| 43>                          ****END OF INPUT****

CARTESIAN COORDINATES (ANGSTROEM)
---------------------------------
  S     58.729700   -7.588020   87.686100
  C     59.759800   -6.232260   88.091300
  C     60.158100   -5.487840   87.021000
  C     59.692400   -6.074070   85.831000
  C     58.757000   -7.128440   85.997200
  H     59.929900   -5.708000   84.902500
  C     61.033100   -4.262540   87.124500
  H     61.969200   -4.518220   86.655200
  H     61.285900   -4.039900   88.143400
  C     60.544400   -2.969580   86.411700
  H     61.273800   -2.175480   86.575300
  H     60.628200   -3.192420   85.338800
  C     59.102300   -2.545280   86.672100
  H     58.896200   -2.399530   87.728300
  H     58.900200   -1.683050   86.214900
  H     58.475600   -3.326660   86.265800
  S     56.854200   -9.045630   85.478300
  C     56.757400   -9.864800   83.942200
  C     57.641500   -9.214850   83.055500
  C     58.324900   -8.120260   83.584800
  C     58.144800   -8.011830   84.971400
  H     57.701400   -9.392180   81.987600
  C     59.449300   -7.682850   82.728400
  H     59.684500   -6.656660   83.106900
  H     59.123100   -7.677840   81.704000
  C     60.669800   -8.588750   82.824400
  H     61.402000   -8.211230   82.083400
  H     60.437600   -9.599840   82.465500
  C     61.320400   -8.716540   84.193200
  H     61.970400   -7.949550   84.427100
  H     61.929200   -9.644110   84.198300
  H     60.623200   -8.726670   85.074700
  H     59.961300   -5.858480   89.131600
  H     56.133400  -10.755300   83.694000

 Total Charge           Charge          ....    0
 Multiplicity           Mult            ....    1
 Number of Electrons    NEL             ....  134
 Basis Dimension        Dim             ....  322

ORBITAL ENERGIES
----------------

  NO   OCC          E(Eh)            E(eV)
   0   2.0000     -88.970460     -2421.0093
   1   2.0000     -88.969358     -2420.9793
   2   2.0000     -10.338482      -281.3244
   3   2.0000     -10.332917      -281.1730
   4   2.0000     -10.324049      -280.9317
   5   2.0000     -10.313560      -280.6462
   6   2.0000     -10.298224      -280.2289
   7   2.0000     -10.294266      -280.1212
   8   2.0000     -10.291757      -280.0529
   9   2.0000     -10.291733      -280.0523
  10   2.0000     -10.291633      -280.0496
  11   2.0000     -10.290623      -280.0221
  12   2.0000     -10.288203      -279.9562
  13   2.0000     -10.286267      -279.9036
  14   2.0000     -10.266676      -279.3705
  15   2.0000     -10.263676      -279.2888
  16   2.0000      -8.084790      -219.9983
  17   2.0000      -8.084274      -219.9843
  18   2.0000      -6.043352      -164.4480
  19   2.0000      -6.042742      -164.4314
  20   2.0000      -6.039362      -164.3394
  21   2.0000      -6.038615      -164.3191
  22   2.0000      -6.035509      -164.2345
  23   2.0000      -6.035215      -164.2266
  24   2.0000      -1.010710       -27.5028
  25   2.0000      -0.989398       -26.9229
  26   2.0000      -0.917468       -24.9656
  27   2.0000      -0.912031       -24.8176
  28   2.0000      -0.868609       -23.6360
  29   2.0000      -0.849871       -23.1262
  30   2.0000      -0.847986       -23.0749
  31   2.0000      -0.814276       -22.1576
  32   2.0000      -0.788222       -21.4486
  33   2.0000      -0.777762       -21.1640
  34   2.0000      -0.709753       -19.3134
  35   2.0000      -0.696446       -18.9513
  36   2.0000      -0.692010       -18.8305
  37   2.0000      -0.667792       -18.1716
  38   2.0000      -0.635667       -17.2974
  39   2.0000      -0.627490       -17.0749
  40   2.0000      -0.593529       -16.1507
  41   2.0000      -0.565888       -15.3986
  42   2.0000      -0.555023       -15.1030
  43   2.0000      -0.554043       -15.0763
  44   2.0000      -0.546536       -14.8720
  45   2.0000      -0.540734       -14.7141
  46   2.0000      -0.522983       -14.2311
  47   2.0000      -0.509950       -13.8765
  48   2.0000      -0.506141       -13.7728
  49   2.0000      -0.496173       -13.5015
  50   2.0000      -0.488364       -13.2891
  51   2.0000      -0.478236       -13.0135
  52   2.0000      -0.471744       -12.8368
  53   2.0000      -0.466040       -12.6816
  54   2.0000      -0.459555       -12.5051
  55   2.0000      -0.449007       -12.2181
  56   2.0000      -0.445320       -12.1178
  57   2.0000      -0.441693       -12.0191
  58   2.0000      -0.432373       -11.7655
  59   2.0000      -0.428905       -11.6711
  60   2.0000      -0.419838       -11.4244
  61   2.0000      -0.417910       -11.3719
  62   2.0000      -0.406443       -11.0599
  63   2.0000      -0.356773        -9.7083
  64   2.0000      -0.336733        -9.1630
  65   2.0000      -0.331086        -9.0093
  66   2.0000      -0.280617        -7.6360
  67   0.0000       0.014856         0.4043
  68   0.0000       0.082684         2.2500
  69   0.0000       0.101545         2.7632
  70   0.0000       0.115044         3.1305
  71   0.0000       0.137638         3.7453

MULLIKEN ATOMIC CHARGES
-----------------------
   0 S :    0.105431
   1 C :   -0.136620
   2 C :   -0.094461
   3 C :    0.021250
   4 C :   -0.093207
   5 H :   -0.040898
   6 C :    0.111885
   7 H :    0.030034
   8 H :    0.007854
   9 C :   -0.121071
  10 H :    0.029138
  11 H :    0.022338
  12 C :    0.025939
  13 H :    0.024964
  14 H :    0.003380
  15 H :    0.038009
  16 S :    0.107114
  17 C :   -0.097498
  18 C :   -0.051321
  19 C :   -0.041492
  20 C :   -0.149036
  21 H :    0.017629
  22 C :    0.039853
  23 H :    0.024755
  24 H :    0.021682
  25 C :   -0.052043
  26 H :    0.031121
  27 H :    0.022394
  28 C :   -0.044803
  29 H :    0.011249
  30 H :    0.031505
  31 H :    0.057886
  32 H :    0.058168
  33 H :    0.078869
Sum of atomic charges:   -0.0000000

LOEWDIN ATOMIC CHARGES
----------------------
   0 S :    0.406232
   1 C :   -0.204154
   2 C :   -0.065139
   3 C :   -0.057962
   4 C :   -0.185519
   5 H :    0.007680
   6 C :   -0.024879
   7 H :    0.035344
   8 H :    0.024507
   9 C :   -0.040020
  10 H :    0.023507
  11 H :    0.021643
  12 C :   -0.050785
  13 H :    0.025825
  14 H :    0.008706
  15 H :    0.031020
  16 S :    0.424623
  17 C :   -0.200642
  18 C :   -0.067258
  19 C :   -0.071553
  20 C :   -0.204547
  21 H :    0.029791
  22 C :   -0.032466
  23 H :    0.028753
  24 H :    0.030644
  25 C :   -0.037350
  26 H :    0.028209
  27 H :    0.023399
  28 C :   -0.068338
  29 H :    0.011622
  30 H :    0.031785
  31 H :    0.037755
  32 H :    0.037107
  33 H :    0.042462

  Mayer bond orders larger than 0.100000
B(  0-S ,  1-C ) :   1.1372 B(  0-S ,  4-C ) :   1.1539 B(  1-C ,  2-C ) :   1.6191
B(  1-C , 32-H ) :   0.9485 B(  2-C ,  3-C ) :   1.2659 B(  2-C ,  6-C ) :   1.0235
B(  3-C ,  4-C ) :   1.5375 B(  3-C ,  5-H ) :   1.0032 B(  4-C , 20-C ) :   1.0561
B(  6-C ,  7-H ) :   0.9337 B(  6-C ,  8-H ) :   0.9384 B(  6-C ,  9-C ) :   1.0701
B(  9-C , 10-H ) :   0.9563 B(  9-C , 11-H ) :   0.9551 B(  9-C , 12-C ) :   1.0825
B( 12-C , 13-H ) :   0.9758 B( 12-C , 14-H ) :   0.9697 B( 12-C , 15-H ) :   0.9672
B( 16-S , 17-C ) :   1.1616 B( 16-S , 20-C ) :   1.1673 B( 17-C , 18-C ) :   1.5439
B( 17-C , 20-C ) :   0.1104 B( 17-C , 33-H ) :   0.9674 B( 18-C , 19-C ) :   1.2950
B( 18-C , 21-H ) :   0.9849 B( 19-C , 20-C ) :   1.5208 B( 19-C , 22-C ) :   1.0694
B( 22-C , 23-H ) :   0.9340 B( 22-C , 24-H ) :   0.9243 B( 22-C , 25-C ) :   1.0779
B( 25-C , 26-H ) :   0.9504 B( 25-C , 27-H ) :   0.9530 B( 25-C , 28-C ) :   1.0766
B( 28-C , 29-H ) :   0.9716 B( 28-C , 30-H ) :   0.9714 B( 28-C , 31-H ) :   0.9729

Dispersion correction           -0.015902400
FINAL SINGLE POINT ENERGY     -1339.870441679498

DIPOLE MOMENT
-------------
                                X             Y             Z
Electronic contribution:    -16.46453     -15.55059       8.74426
Nuclear contribution   :     16.90373      15.85640      -9.14963
                        -----------------------------------------
Total Dipole Moment    :      0.43920       0.30581      -0.40538
                        -----------------------------------------
Magnitude (a.u.)       :      0.67137
Magnitude (Debye)      :      1.70649

Rotational constants in cm-1:     0.021186     0.009097     0.007811
Rotational constants in MHz :   635.152022   272.715889   234.162244

                             ****ORCA TERMINATED NORMALLY****
TOTAL RUN TIME: 0 days 0 hours 0 minutes 33 seconds 204 msec
