                         Program Version 4.2.1 -  RELEASE  -
|  1> ! wB97X-D3 SP def2-SVP
|  2> %pal
|  3> nprocs 16
|  4> end
|  5>
|  6> * xyz 0 1
|  7> S 	 8.33167 	 -5.67032 	 91.8598
|  8> C 	 8.29503 	 -6.09953 	 93.5779
|  9> C 	 9.28281 	 -7.07683 	 93.8727
| 10> C 	 10.138 	 -7.35714 	 92.768
| 11> C 	 9.70012 	 -6.77247 	 91.5764
| 12> H 	 10.9771 	 -8.0268 	 92.8806
| 13> C 	 9.42567 	 -7.82872 	 95.1737
| 14> H 	 9.14329 	 -7.05842 	 96.0308
| 15> H 	 10.3941 	 -8.24679 	 95.4053
| 16> C 	 8.44807 	 -9.04343 	 95.2061
| 17> H 	 8.48995 	 -9.43253 	 96.1763
| 18> H 	 7.41468 	 -8.76472 	 95.0338
| 19> C 	 8.83886 	 -10.1643 	 94.1528
| 20> H 	 9.88818 	 -10.294 	 94.2379
| 21> H 	 8.31213 	 -11.0791 	 94.4283
| 22> H 	 8.5316 	 -9.87733 	 93.1209
| 23> S 	 10.3665 	 -5.30437 	 89.3023
| 24> C 	 11.003 	 -6.09724 	 87.9153
| 25> C 	 11.2028 	 -7.43713 	 88.0994
| 26> C 	 10.751 	 -7.88242 	 89.3799
| 27> C 	 10.3205 	 -6.83792 	 90.2097
| 28> H 	 11.5578 	 -8.03297 	 87.2989
| 29> C 	 10.8758 	 -9.38081 	 89.8257
| 30> H 	 10.9116 	 -9.35005 	 90.8817
| 31> H 	 11.7821 	 -9.79734 	 89.4913
| 32> C 	 9.71415 	 -10.2453 	 89.4891
| 33> H 	 9.65786 	 -10.3137 	 88.3852
| 34> H 	 8.77758 	 -9.92778 	 89.8734
| 35> C 	 9.97116 	 -11.7102 	 89.867
| 36> H 	 9.28655 	 -12.505 	 89.4883
| 37> H 	 10.1205 	 -11.8027 	 91.0103
| 38> H 	 10.9827 	 -11.9771 	 89.5226
| 39> H 	 7.52061 	 -5.69507 	 94.2359
| 40> H 	 11.1533 	 -5.75736 	 86.9596
| 41> *
| 42>
| 43>                          ****END OF INPUT****

CARTESIAN COORDINATES (ANGSTROEM)
---------------------------------
  S      8.331670   -5.670320   91.859800
  C      8.295030   -6.099530   93.577900
  C      9.282810   -7.076830   93.872700
  C     10.138000   -7.357140   92.768000
  C      9.700120   -6.772470   91.576400
  H     10.977100   -8.026800   92.880600
  C      9.425670   -7.828720   95.173700
  H      9.143290   -7.058420   96.030800
  H     10.394100   -8.246790   95.405300
  C      8.448070   -9.043430   95.206100
  H      8.489950   -9.432530   96.176300
  H      7.414680   -8.764720   95.033800
  C      8.838860  -10.164300   94.152800
  H      9.888180  -10.294000   94.237900
  H      8.312130  -11.079100   94.428300
  H      8.531600   -9.877330   93.120900
  S     10.366500   -5.304370   89.302300
  C     11.003000   -6.097240   87.915300
  C     11.202800   -7.437130   88.099400
  C     10.751000   -7.882420   89.379900
  C     10.320500   -6.837920   90.209700
  H     11.557800   -8.032970   87.298900
  C     10.875800   -9.380810   89.825700
  H     10.911600   -9.350050   90.881700
  H     11.782100   -9.797340   89.491300
  C      9.714150  -10.245300   89.489100
  H      9.657860  -10.313700   88.385200
  H      8.777580   -9.927780   89.873400
  C      9.971160  -11.710200   89.867000
  H      9.286550  -12.505000   89.488300
  H     10.120500  -11.802700   91.010300
  H     10.982700  -11.977100   89.522600
  H      7.520610   -5.695070   94.235900
  H     11.153300   -5.757360   86.959600

 Total Charge           Charge          ....    0
 Multiplicity           Mult            ....    1
 Number of Electrons    NEL             ....  134
 Basis Dimension        Dim             ....  322

ORBITAL ENERGIES
----------------

  NO   OCC          E(Eh)            E(eV)
   0   2.0000     -88.970587     -2421.0128
   1   2.0000     -88.966944     -2420.9136
   2   2.0000     -10.340072      -281.3677
   3   2.0000     -10.333677      -281.1937
   4   2.0000     -10.321743      -280.8689
   5   2.0000     -10.308213      -280.5007
   6   2.0000     -10.307654      -280.4855
   7   2.0000     -10.307042      -280.4689
   8   2.0000     -10.303109      -280.3619
   9   2.0000     -10.297936      -280.2211
  10   2.0000     -10.288460      -279.9632
  11   2.0000     -10.285865      -279.8926
  12   2.0000     -10.285497      -279.8826
  13   2.0000     -10.284891      -279.8661
  14   2.0000     -10.281071      -279.7622
  15   2.0000     -10.280513      -279.7470
  16   2.0000      -8.084228      -219.9830
  17   2.0000      -8.081541      -219.9099
  18   2.0000      -6.042761      -164.4319
  19   2.0000      -6.040060      -164.3584
  20   2.0000      -6.038856      -164.3256
  21   2.0000      -6.036068      -164.2498
  22   2.0000      -6.035057      -164.2223
  23   2.0000      -6.032286      -164.1468
  24   2.0000      -1.001026       -27.2393
  25   2.0000      -0.980282       -26.6748
  26   2.0000      -0.914883       -24.8952
  27   2.0000      -0.907452       -24.6930
  28   2.0000      -0.862422       -23.4677
  29   2.0000      -0.849987       -23.1293
  30   2.0000      -0.842411       -22.9232
  31   2.0000      -0.813886       -22.1470
  32   2.0000      -0.780382       -21.2353
  33   2.0000      -0.769164       -20.9300
  34   2.0000      -0.703341       -19.1389
  35   2.0000      -0.701914       -19.1000
  36   2.0000      -0.693690       -18.8763
  37   2.0000      -0.662378       -18.0242
  38   2.0000      -0.640123       -17.4186
  39   2.0000      -0.620288       -16.8789
  40   2.0000      -0.595959       -16.2169
  41   2.0000      -0.577929       -15.7263
  42   2.0000      -0.573778       -15.6133
  43   2.0000      -0.543912       -14.8006
  44   2.0000      -0.539240       -14.6735
  45   2.0000      -0.523077       -14.2337
  46   2.0000      -0.513992       -13.9864
  47   2.0000      -0.508560       -13.8386
  48   2.0000      -0.503555       -13.7024
  49   2.0000      -0.497804       -13.5459
  50   2.0000      -0.489730       -13.3262
  51   2.0000      -0.478204       -13.0126
  52   2.0000      -0.470327       -12.7982
  53   2.0000      -0.464141       -12.6299
  54   2.0000      -0.457319       -12.4443
  55   2.0000      -0.452007       -12.2997
  56   2.0000      -0.445044       -12.1103
  57   2.0000      -0.439240       -11.9523
  58   2.0000      -0.437776       -11.9125
  59   2.0000      -0.424523       -11.5519
  60   2.0000      -0.420609       -11.4453
  61   2.0000      -0.418024       -11.3750
  62   2.0000      -0.405863       -11.0441
  63   2.0000      -0.348552        -9.4846
  64   2.0000      -0.334074        -9.0906
  65   2.0000      -0.330567        -8.9952
  66   2.0000      -0.288292        -7.8448
  67   0.0000       0.023339         0.6351
  68   0.0000       0.070225         1.9109
  69   0.0000       0.103416         2.8141
  70   0.0000       0.118740         3.2311
  71   0.0000       0.126076         3.4307

MULLIKEN ATOMIC CHARGES
-----------------------
   0 S :    0.106933
   1 C :   -0.138873
   2 C :   -0.073155
   3 C :    0.035910
   4 C :   -0.138602
   5 H :    0.021505
   6 C :    0.005210
   7 H :    0.047836
   8 H :    0.026743
   9 C :   -0.051042
  10 H :    0.018657
  11 H :    0.026551
  12 C :   -0.064575
  13 H :    0.017816
  14 H :    0.039125
  15 H :    0.059633
  16 S :    0.103559
  17 C :   -0.033677
  18 C :   -0.036654
  19 C :   -0.044424
  20 C :   -0.152722
  21 H :    0.006178
  22 C :    0.119965
  23 H :   -0.014414
  24 H :    0.008719
  25 C :   -0.042652
  26 H :    0.022242
  27 H :    0.032285
  28 C :   -0.083367
  29 H :    0.053225
  30 H :    0.029343
  31 H :    0.013785
  32 H :    0.061238
  33 H :    0.017699
Sum of atomic charges:    0.0000000

LOEWDIN ATOMIC CHARGES
----------------------
   0 S :    0.393032
   1 C :   -0.198646
   2 C :   -0.059527
   3 C :   -0.062850
   4 C :   -0.181801
   5 H :    0.030840
   6 C :   -0.037250
   7 H :    0.043805
   8 H :    0.025080
   9 C :   -0.030267
  10 H :    0.013764
  11 H :    0.021014
  12 C :   -0.061968
  13 H :    0.014183
  14 H :    0.028338
  15 H :    0.032241
  16 S :    0.405147
  17 C :   -0.179327
  18 C :   -0.068959
  19 C :   -0.046550
  20 C :   -0.191598
  21 H :    0.027032
  22 C :   -0.018779
  23 H :    0.021320
  24 H :    0.023717
  25 C :   -0.037534
  26 H :    0.025635
  27 H :    0.021313
  28 C :   -0.076621
  29 H :    0.031059
  30 H :    0.027550
  31 H :    0.020613
  32 H :    0.030311
  33 H :    0.015683

  Mayer bond orders larger than 0.100000
B(  0-S ,  1-C ) :   1.1377 B(  0-S ,  4-C ) :   1.1608 B(  1-C ,  2-C ) :   1.5755
B(  1-C ,  4-C ) :   0.1076 B(  1-C , 32-H ) :   0.9694 B(  2-C ,  3-C ) :   1.2695
B(  2-C ,  6-C ) :   1.0283 B(  3-C ,  4-C ) :   1.5489 B(  3-C ,  5-H ) :   0.9864
B(  4-C , 20-C ) :   1.0299 B(  6-C ,  7-H ) :   0.9421 B(  6-C ,  8-H ) :   0.9486
B(  6-C ,  9-C ) :   1.0659 B(  9-C , 10-H ) :   0.9594 B(  9-C , 11-H ) :   0.9586
B(  9-C , 12-C ) :   1.0673 B( 12-C , 13-H ) :   0.9776 B( 12-C , 14-H ) :   0.9747
B( 12-C , 15-H ) :   0.9740 B( 16-S , 17-C ) :   1.1554 B( 16-S , 20-C ) :   1.1309
B( 17-C , 18-C ) :   1.6207 B( 17-C , 33-H ) :   0.9695 B( 18-C , 19-C ) :   1.2449
B( 18-C , 21-H ) :   0.9949 B( 19-C , 20-C ) :   1.6040 B( 19-C , 22-C ) :   1.0232
B( 22-C , 23-H ) :   0.9296 B( 22-C , 24-H ) :   0.9367 B( 22-C , 25-C ) :   1.0756
B( 25-C , 26-H ) :   0.9530 B( 25-C , 27-H ) :   0.9541 B( 25-C , 28-C ) :   1.0750
B( 28-C , 29-H ) :   0.9751 B( 28-C , 30-H ) :   0.9723 B( 28-C , 31-H ) :   0.9698

Dispersion correction           -0.015035603
FINAL SINGLE POINT ENERGY     -1339.872869951278

DIPOLE MOMENT
-------------
                                X             Y             Z
Electronic contribution:      0.02266      29.59500     -10.24514
Nuclear contribution   :      0.04585     -30.24938      10.41573
                        -----------------------------------------
Total Dipole Moment    :      0.06851      -0.65437       0.17059
                        -----------------------------------------
Magnitude (a.u.)       :      0.67970
Magnitude (Debye)      :      1.72767

Rotational constants in cm-1:     0.017013     0.010499     0.007008
Rotational constants in MHz :   510.045435   314.737995   210.101859

                             ****ORCA TERMINATED NORMALLY****
TOTAL RUN TIME: 0 days 0 hours 0 minutes 34 seconds 927 msec
