                         Program Version 4.2.1 -  RELEASE  -
|  1> ! wB97X-D3 SP def2-SVP
|  2> %pal
|  3> nprocs 16
|  4> end
|  5>
|  6> * xyz 0 1
|  7> S 	 -0.759239 	 -16.5588 	 86.1793
|  8> C 	 0.932911 	 -17.0563 	 85.9685
|  9> C 	 1.09717 	 -18.3841 	 86.3163
| 10> C 	 -0.118043 	 -18.9286 	 86.7632
| 11> C 	 -1.25444 	 -18.1893 	 86.6921
| 12> H 	 -0.344946 	 -19.9231 	 87.1058
| 13> C 	 2.3127 	 -19.3038 	 86.1764
| 14> H 	 2.89301 	 -19.0433 	 87.0868
| 15> H 	 2.95163 	 -18.9254 	 85.3686
| 16> C 	 2.20529 	 -20.8383 	 86.2578
| 17> H 	 3.20617 	 -21.2502 	 86.2681
| 18> H 	 1.81381 	 -21.0828 	 87.1746
| 19> C 	 1.3211 	 -21.3381 	 85.0859
| 20> H 	 1.45635 	 -22.3696 	 85.1487
| 21> H 	 0.292658 	 -21.2182 	 85.2057
| 22> H 	 1.6512 	 -21.0324 	 84.1472
| 23> S 	 -3.29498 	 -20.0007 	 86.6563
| 24> C 	 -4.68993 	 -19.6175 	 87.6677
| 25> C 	 -4.62316 	 -18.433 	 88.3572
| 26> C 	 -3.41655 	 -17.7526 	 88.1181
| 27> C 	 -2.57033 	 -18.4564 	 87.2942
| 28> H 	 -5.4536 	 -18.1939 	 89.0401
| 29> C 	 -2.95378 	 -16.452 	 88.7757
| 30> H 	 -2.91314 	 -15.677 	 87.9892
| 31> H 	 -1.95236 	 -16.5614 	 89.2787
| 32> C 	 -3.91065 	 -15.7977 	 89.8059
| 33> H 	 -4.03205 	 -16.5704 	 90.5857
| 34> H 	 -4.91226 	 -15.7375 	 89.2897
| 35> C 	 -3.26256 	 -14.5002 	 90.4855
| 36> H 	 -2.64465 	 -14.8718 	 91.266
| 37> H 	 -4.0781 	 -13.9782 	 90.9679
| 38> H 	 -2.73145 	 -13.7912 	 89.7242
| 39> H 	 1.72476 	 -16.4429 	 85.523
| 40> H 	 -5.48528 	 -20.302 	 87.7995
| 41> *
| 42>
| 43>                          ****END OF INPUT****

CARTESIAN COORDINATES (ANGSTROEM)
---------------------------------
  S     -0.759239  -16.558800   86.179300
  C      0.932911  -17.056300   85.968500
  C      1.097170  -18.384100   86.316300
  C     -0.118043  -18.928600   86.763200
  C     -1.254440  -18.189300   86.692100
  H     -0.344946  -19.923100   87.105800
  C      2.312700  -19.303800   86.176400
  H      2.893010  -19.043300   87.086800
  H      2.951630  -18.925400   85.368600
  C      2.205290  -20.838300   86.257800
  H      3.206170  -21.250200   86.268100
  H      1.813810  -21.082800   87.174600
  C      1.321100  -21.338100   85.085900
  H      1.456350  -22.369600   85.148700
  H      0.292658  -21.218200   85.205700
  H      1.651200  -21.032400   84.147200
  S     -3.294980  -20.000700   86.656300
  C     -4.689930  -19.617500   87.667700
  C     -4.623160  -18.433000   88.357200
  C     -3.416550  -17.752600   88.118100
  C     -2.570330  -18.456400   87.294200
  H     -5.453600  -18.193900   89.040100
  C     -2.953780  -16.452000   88.775700
  H     -2.913140  -15.677000   87.989200
  H     -1.952360  -16.561400   89.278700
  C     -3.910650  -15.797700   89.805900
  H     -4.032050  -16.570400   90.585700
  H     -4.912260  -15.737500   89.289700
  C     -3.262560  -14.500200   90.485500
  H     -2.644650  -14.871800   91.266000
  H     -4.078100  -13.978200   90.967900
  H     -2.731450  -13.791200   89.724200
  H      1.724760  -16.442900   85.523000
  H     -5.485280  -20.302000   87.799500

 Total Charge           Charge          ....    0
 Multiplicity           Mult            ....    1
 Number of Electrons    NEL             ....  134
 Basis Dimension        Dim             ....  322

ORBITAL ENERGIES
----------------

  NO   OCC          E(Eh)            E(eV)
   0   2.0000     -88.967683     -2420.9337
   1   2.0000     -88.960882     -2420.7487
   2   2.0000     -10.330415      -281.1049
   3   2.0000     -10.325621      -280.9744
   4   2.0000     -10.317188      -280.7450
   5   2.0000     -10.314864      -280.6817
   6   2.0000     -10.305503      -280.4270
   7   2.0000     -10.301478      -280.3175
   8   2.0000     -10.296312      -280.1769
   9   2.0000     -10.295074      -280.1432
  10   2.0000     -10.294380      -280.1243
  11   2.0000     -10.292879      -280.0835
  12   2.0000     -10.290208      -280.0108
  13   2.0000     -10.285028      -279.8698
  14   2.0000     -10.285001      -279.8691
  15   2.0000     -10.260434      -279.2006
  16   2.0000      -8.081225      -219.9013
  17   2.0000      -8.074491      -219.7181
  18   2.0000      -6.039628      -164.3466
  19   2.0000      -6.036147      -164.2519
  20   2.0000      -6.033144      -164.1702
  21   2.0000      -6.031924      -164.1370
  22   2.0000      -6.029105      -164.0603
  23   2.0000      -6.025208      -163.9542
  24   2.0000      -1.002542       -27.2805
  25   2.0000      -0.981434       -26.7062
  26   2.0000      -0.910401       -24.7733
  27   2.0000      -0.900469       -24.5030
  28   2.0000      -0.869983       -23.6735
  29   2.0000      -0.848374       -23.0854
  30   2.0000      -0.839995       -22.8574
  31   2.0000      -0.815265       -22.1845
  32   2.0000      -0.785637       -21.3783
  33   2.0000      -0.773539       -21.0491
  34   2.0000      -0.712782       -19.3958
  35   2.0000      -0.699953       -19.0467
  36   2.0000      -0.692478       -18.8433
  37   2.0000      -0.657899       -17.9023
  38   2.0000      -0.632797       -17.2193
  39   2.0000      -0.619663       -16.8619
  40   2.0000      -0.598169       -16.2770
  41   2.0000      -0.568822       -15.4784
  42   2.0000      -0.565061       -15.3761
  43   2.0000      -0.547427       -14.8963
  44   2.0000      -0.535802       -14.5799
  45   2.0000      -0.518608       -14.1121
  46   2.0000      -0.517943       -14.0939
  47   2.0000      -0.508772       -13.8444
  48   2.0000      -0.507499       -13.8098
  49   2.0000      -0.494814       -13.4646
  50   2.0000      -0.486350       -13.2342
  51   2.0000      -0.482147       -13.1199
  52   2.0000      -0.474057       -12.8997
  53   2.0000      -0.466916       -12.7054
  54   2.0000      -0.456824       -12.4308
  55   2.0000      -0.454419       -12.3654
  56   2.0000      -0.444019       -12.0824
  57   2.0000      -0.436659       -11.8821
  58   2.0000      -0.430143       -11.7048
  59   2.0000      -0.422325       -11.4920
  60   2.0000      -0.418436       -11.3862
  61   2.0000      -0.410493       -11.1701
  62   2.0000      -0.406801       -11.0696
  63   2.0000      -0.346496        -9.4286
  64   2.0000      -0.337704        -9.1894
  65   2.0000      -0.323437        -8.8012
  66   2.0000      -0.289070        -7.8660
  67   0.0000       0.027496         0.7482
  68   0.0000       0.070916         1.9297
  69   0.0000       0.097596         2.6557
  70   0.0000       0.122769         3.3407
  71   0.0000       0.131124         3.5681

MULLIKEN ATOMIC CHARGES
-----------------------
   0 S :    0.084894
   1 C :   -0.146943
   2 C :   -0.036300
   3 C :    0.004308
   4 C :   -0.132485
   5 H :   -0.002569
   6 C :    0.022013
   7 H :    0.036477
   8 H :    0.026993
   9 C :   -0.019940
  10 H :    0.028546
  11 H :    0.007908
  12 C :    0.017683
  13 H :    0.007015
  14 H :    0.024385
  15 H :    0.019405
  16 S :    0.089694
  17 C :   -0.064312
  18 C :   -0.067104
  19 C :   -0.002391
  20 C :   -0.165693
  21 H :    0.032456
  22 C :    0.017184
  23 H :    0.043132
  24 H :    0.056218
  25 C :   -0.138200
  26 H :    0.029040
  27 H :    0.040961
  28 C :   -0.038003
  29 H :    0.038482
  30 H :    0.037222
  31 H :    0.060697
  32 H :    0.052767
  33 H :    0.036460
Sum of atomic charges:    0.0000000

LOEWDIN ATOMIC CHARGES
----------------------
   0 S :    0.385040
   1 C :   -0.189818
   2 C :   -0.064981
   3 C :   -0.068082
   4 C :   -0.190464
   5 H :    0.022919
   6 C :   -0.038793
   7 H :    0.039074
   8 H :    0.029108
   9 C :   -0.023706
  10 H :    0.030973
  11 H :    0.013214
  12 C :   -0.048797
  13 H :    0.021194
  14 H :    0.019674
  15 H :    0.019245
  16 S :    0.370956
  17 C :   -0.166356
  18 C :   -0.075567
  19 C :   -0.059222
  20 C :   -0.164268
  21 H :    0.041273
  22 C :   -0.043467
  23 H :    0.029083
  24 H :    0.039170
  25 C :   -0.050744
  26 H :    0.020078
  27 H :    0.024624
  28 C :   -0.064063
  29 H :    0.024677
  30 H :    0.027411
  31 H :    0.040708
  32 H :    0.032741
  33 H :    0.017165

  Mayer bond orders larger than 0.100000
B(  0-S ,  1-C ) :   1.1442 B(  0-S ,  4-C ) :   1.1237 B(  1-C ,  2-C ) :   1.6051
B(  1-C , 32-H ) :   0.9669 B(  2-C ,  3-C ) :   1.2409 B(  2-C ,  6-C ) :   0.9930
B(  3-C ,  4-C ) :   1.6061 B(  3-C ,  5-H ) :   0.9787 B(  4-C , 20-C ) :   1.0082
B(  6-C ,  7-H ) :   0.9282 B(  6-C ,  8-H ) :   0.9470 B(  6-C ,  9-C ) :   1.0963
B(  9-C , 10-H ) :   0.9496 B(  9-C , 11-H ) :   0.9389 B(  9-C , 12-C ) :   1.0820
B( 12-C , 13-H ) :   0.9689 B( 12-C , 14-H ) :   0.9718 B( 12-C , 15-H ) :   0.9764
B( 16-S , 17-C ) :   1.1446 B( 16-S , 20-C ) :   1.1240 B( 17-C , 18-C ) :   1.6405
B( 17-C , 20-C ) :   0.1041 B( 17-C , 33-H ) :   0.9628 B( 18-C , 19-C ) :   1.2125
B( 18-C , 21-H ) :   0.9867 B( 19-C , 20-C ) :   1.6457 B( 19-C , 22-C ) :   1.0113
B( 22-C , 23-H ) :   0.9282 B( 22-C , 24-H ) :   0.9453 B( 22-C , 25-C ) :   1.0784
B( 25-C , 26-H ) :   0.9567 B( 25-C , 27-H ) :   0.9546 B( 25-C , 28-C ) :   1.0570
B( 28-C , 29-H ) :   0.9750 B( 28-C , 30-H ) :   0.9742 B( 28-C , 31-H ) :   0.9762

Dispersion correction           -0.014227157
FINAL SINGLE POINT ENERGY     -1339.852279085279

DIPOLE MOMENT
-------------
                                X             Y             Z
Electronic contribution:     -7.75321      -1.25690      -8.75360
Nuclear contribution   :      7.97923       1.09562       9.17852
                        -----------------------------------------
Total Dipole Moment    :      0.22602      -0.16128       0.42492
                        -----------------------------------------
Magnitude (a.u.)       :      0.50759
Magnitude (Debye)      :      1.29020

Rotational constants in cm-1:     0.019965     0.008490     0.006570
Rotational constants in MHz :   598.542766   254.513539   196.955268

                             ****ORCA TERMINATED NORMALLY****
TOTAL RUN TIME: 0 days 0 hours 0 minutes 33 seconds 397 msec
