                         Program Version 4.2.1 -  RELEASE  -
|  1> ! wB97X-D3 SP def2-SVP
|  2> %pal
|  3> nprocs 16
|  4> end
|  5>
|  6> * xyz 0 1
|  7> S 	 -29.0718 	 75.4516 	 157.542
|  8> C 	 -28.8917 	 76.1841 	 159.121
|  9> C 	 -29.7348 	 75.6255 	 160.114
| 10> C 	 -30.5076 	 74.534 	 159.616
| 11> C 	 -30.2525 	 74.3091 	 158.246
| 12> H 	 -31.1835 	 73.8835 	 160.22
| 13> C 	 -29.7306 	 76.189 	 161.588
| 14> H 	 -28.8398 	 76.8549 	 161.636
| 15> H 	 -29.6541 	 75.4377 	 162.369
| 16> C 	 -30.9462 	 77.0902 	 161.955
| 17> H 	 -30.8973 	 77.875 	 161.283
| 18> H 	 -31.8985 	 76.5453 	 161.746
| 19> C 	 -31.0077 	 77.5077 	 163.33
| 20> H 	 -30.2121 	 78.1425 	 163.705
| 21> H 	 -31.9112 	 78.0018 	 163.574
| 22> H 	 -30.8243 	 76.7357 	 164.052
| 23> S 	 -29.5427 	 72.5006 	 156.424
| 24> C 	 -30.5995 	 71.2905 	 155.799
| 25> C 	 -31.7048 	 71.26 	 156.548
| 26> C 	 -31.8721 	 72.4285 	 157.436
| 27> C 	 -30.7014 	 73.1582 	 157.473
| 28> H 	 -32.5461 	 70.6318 	 156.311
| 29> C 	 -33.1661 	 72.6977 	 158.19
| 30> H 	 -32.9264 	 73.1073 	 159.217
| 31> H 	 -33.5634 	 71.7381 	 158.307
| 32> C 	 -34.0994 	 73.6742 	 157.412
| 33> H 	 -34.8916 	 73.9955 	 158.169
| 34> H 	 -34.5496 	 73.2689 	 156.522
| 35> C 	 -33.4844 	 74.9388 	 156.915
| 36> H 	 -32.6355 	 74.6356 	 156.237
| 37> H 	 -33.0795 	 75.6701 	 157.636
| 38> H 	 -34.2044 	 75.5286 	 156.291
| 39> H 	 -28.2452 	 77.036 	 159.281
| 40> H 	 -30.4537 	 70.5245 	 155.048
| 41> *
| 42>
| 43>                          ****END OF INPUT****

CARTESIAN COORDINATES (ANGSTROEM)
---------------------------------
  S    -29.071800   75.451600  157.542000
  C    -28.891700   76.184100  159.121000
  C    -29.734800   75.625500  160.114000
  C    -30.507600   74.534000  159.616000
  C    -30.252500   74.309100  158.246000
  H    -31.183500   73.883500  160.220000
  C    -29.730600   76.189000  161.588000
  H    -28.839800   76.854900  161.636000
  H    -29.654100   75.437700  162.369000
  C    -30.946200   77.090200  161.955000
  H    -30.897300   77.875000  161.283000
  H    -31.898500   76.545300  161.746000
  C    -31.007700   77.507700  163.330000
  H    -30.212100   78.142500  163.705000
  H    -31.911200   78.001800  163.574000
  H    -30.824300   76.735700  164.052000
  S    -29.542700   72.500600  156.424000
  C    -30.599500   71.290500  155.799000
  C    -31.704800   71.260000  156.548000
  C    -31.872100   72.428500  157.436000
  C    -30.701400   73.158200  157.473000
  H    -32.546100   70.631800  156.311000
  C    -33.166100   72.697700  158.190000
  H    -32.926400   73.107300  159.217000
  H    -33.563400   71.738100  158.307000
  C    -34.099400   73.674200  157.412000
  H    -34.891600   73.995500  158.169000
  H    -34.549600   73.268900  156.522000
  C    -33.484400   74.938800  156.915000
  H    -32.635500   74.635600  156.237000
  H    -33.079500   75.670100  157.636000
  H    -34.204400   75.528600  156.291000
  H    -28.245200   77.036000  159.281000
  H    -30.453700   70.524500  155.048000

 Total Charge           Charge          ....    0
 Multiplicity           Mult            ....    1
 Number of Electrons    NEL             ....  134
 Basis Dimension        Dim             ....  322

ORBITAL ENERGIES
----------------

  NO   OCC          E(Eh)            E(eV)
   0   2.0000     -88.974353     -2421.1152
   1   2.0000     -88.960840     -2420.7475
   2   2.0000     -10.336896      -281.2812
   3   2.0000     -10.320641      -280.8389
   4   2.0000     -10.318833      -280.7897
   5   2.0000     -10.311829      -280.5991
   6   2.0000     -10.309311      -280.5306
   7   2.0000     -10.305617      -280.4301
   8   2.0000     -10.300379      -280.2875
   9   2.0000     -10.300156      -280.2815
  10   2.0000     -10.294547      -280.1289
  11   2.0000     -10.288907      -279.9754
  12   2.0000     -10.287519      -279.9376
  13   2.0000     -10.278333      -279.6877
  14   2.0000     -10.272537      -279.5299
  15   2.0000     -10.267231      -279.3856
  16   2.0000      -8.088055      -220.0872
  17   2.0000      -8.077219      -219.7923
  18   2.0000      -6.046459      -164.5325
  19   2.0000      -6.042765      -164.4320
  20   2.0000      -6.038928      -164.3276
  21   2.0000      -6.035791      -164.2422
  22   2.0000      -6.031406      -164.1229
  23   2.0000      -6.027860      -164.0264
  24   2.0000      -1.012431       -27.5496
  25   2.0000      -0.981540       -26.7091
  26   2.0000      -0.915559       -24.9136
  27   2.0000      -0.908397       -24.7187
  28   2.0000      -0.874876       -23.8066
  29   2.0000      -0.854577       -23.2542
  30   2.0000      -0.843288       -22.9470
  31   2.0000      -0.817596       -22.2479
  32   2.0000      -0.782226       -21.2854
  33   2.0000      -0.771326       -20.9888
  34   2.0000      -0.706587       -19.2272
  35   2.0000      -0.697467       -18.9790
  36   2.0000      -0.684870       -18.6363
  37   2.0000      -0.663453       -18.0535
  38   2.0000      -0.638370       -17.3709
  39   2.0000      -0.620100       -16.8738
  40   2.0000      -0.592121       -16.1124
  41   2.0000      -0.575640       -15.6640
  42   2.0000      -0.560782       -15.2596
  43   2.0000      -0.552147       -15.0247
  44   2.0000      -0.545429       -14.8419
  45   2.0000      -0.528816       -14.3898
  46   2.0000      -0.516011       -14.0414
  47   2.0000      -0.514043       -13.9878
  48   2.0000      -0.502852       -13.6833
  49   2.0000      -0.498592       -13.5674
  50   2.0000      -0.494336       -13.4516
  51   2.0000      -0.479244       -13.0409
  52   2.0000      -0.469953       -12.7881
  53   2.0000      -0.467704       -12.7269
  54   2.0000      -0.458580       -12.4786
  55   2.0000      -0.450497       -12.2586
  56   2.0000      -0.441636       -12.0175
  57   2.0000      -0.437062       -11.8931
  58   2.0000      -0.428520       -11.6606
  59   2.0000      -0.424793       -11.5592
  60   2.0000      -0.420823       -11.4512
  61   2.0000      -0.411359       -11.1936
  62   2.0000      -0.400644       -10.9021
  63   2.0000      -0.357815        -9.7367
  64   2.0000      -0.336422        -9.1545
  65   2.0000      -0.325286        -8.8515
  66   2.0000      -0.285969        -7.7816
  67   0.0000       0.023325         0.6347
  68   0.0000       0.080805         2.1988
  69   0.0000       0.104021         2.8306
  70   0.0000       0.114454         3.1145
  71   0.0000       0.133124         3.6225

MULLIKEN ATOMIC CHARGES
-----------------------
   0 S :    0.122673
   1 C :   -0.126258
   2 C :   -0.075365
   3 C :    0.012409
   4 C :   -0.140775
   5 H :    0.038901
   6 C :    0.036797
   7 H :    0.022971
   8 H :    0.026383
   9 C :   -0.036508
  10 H :    0.008812
  11 H :    0.026866
  12 C :   -0.003173
  13 H :    0.008698
  14 H :    0.029499
  15 H :    0.006627
  16 S :    0.099402
  17 C :   -0.070708
  18 C :   -0.024800
  19 C :   -0.142039
  20 C :   -0.129190
  21 H :    0.014892
  22 C :    0.120658
  23 H :    0.025023
  24 H :    0.010033
  25 C :   -0.062119
  26 H :    0.037071
  27 H :    0.029024
  28 C :   -0.096218
  29 H :    0.049616
  30 H :    0.040964
  31 H :    0.035213
  32 H :    0.050391
  33 H :    0.054228
Sum of atomic charges:    0.0000000

LOEWDIN ATOMIC CHARGES
----------------------
   0 S :    0.401264
   1 C :   -0.200096
   2 C :   -0.057512
   3 C :   -0.061441
   4 C :   -0.178769
   5 H :    0.040120
   6 C :   -0.023892
   7 H :    0.031473
   8 H :    0.024447
   9 C :   -0.040569
  10 H :    0.015196
  11 H :    0.028786
  12 C :   -0.068903
  13 H :    0.024843
  14 H :    0.026306
  15 H :    0.023990
  16 S :    0.429208
  17 C :   -0.196910
  18 C :   -0.073272
  19 C :   -0.066482
  20 C :   -0.215465
  21 H :    0.026254
  22 C :   -0.027537
  23 H :    0.034273
  24 H :    0.023952
  25 C :   -0.043110
  26 H :    0.031087
  27 H :    0.025261
  28 C :   -0.079041
  29 H :    0.031341
  30 H :    0.024379
  31 H :    0.029454
  32 H :    0.024585
  33 H :    0.036779

  Mayer bond orders larger than 0.100000
B(  0-S ,  1-C ) :   1.1417 B(  0-S ,  4-C ) :   1.1519 B(  1-C ,  2-C ) :   1.5954
B(  1-C ,  4-C ) :   0.1046 B(  1-C , 32-H ) :   0.9652 B(  2-C ,  3-C ) :   1.2660
B(  2-C ,  6-C ) :   1.0187 B(  3-C ,  4-C ) :   1.5525 B(  3-C ,  5-H ) :   0.9780
B(  4-C , 20-C ) :   1.0549 B(  6-C ,  7-H ) :   0.9452 B(  6-C ,  8-H ) :   0.9476
B(  6-C ,  9-C ) :   1.0591 B(  9-C , 10-H ) :   0.9492 B(  9-C , 11-H ) :   0.9537
B(  9-C , 12-C ) :   1.1019 B( 12-C , 13-H ) :   0.9631 B( 12-C , 14-H ) :   0.9685
B( 12-C , 15-H ) :   0.9626 B( 16-S , 17-C ) :   1.1338 B( 16-S , 20-C ) :   1.1472
B( 17-C , 18-C ) :   1.6474 B( 17-C , 33-H ) :   0.9651 B( 18-C , 19-C ) :   1.2358
B( 18-C , 21-H ) :   0.9772 B( 19-C , 20-C ) :   1.5996 B( 19-C , 22-C ) :   1.0361
B( 22-C , 23-H ) :   0.9376 B( 22-C , 24-H ) :   0.9270 B( 22-C , 25-C ) :   1.0617
B( 25-C , 26-H ) :   0.9552 B( 25-C , 27-H ) :   0.9551 B( 25-C , 28-C ) :   1.0906
B( 28-C , 29-H ) :   0.9644 B( 28-C , 30-H ) :   0.9731 B( 28-C , 31-H ) :   0.9715

Dispersion correction           -0.014869438
FINAL SINGLE POINT ENERGY     -1339.868285700710

DIPOLE MOMENT
-------------
                                X             Y             Z
Electronic contribution:     17.44218     -11.43939     -18.58466
Nuclear contribution   :    -17.84929      11.48998      18.98986
                        -----------------------------------------
Total Dipole Moment    :     -0.40711       0.05059       0.40520
                        -----------------------------------------
Magnitude (a.u.)       :      0.57661
Magnitude (Debye)      :      1.46564

Rotational constants in cm-1:     0.021653     0.008296     0.006856
Rotational constants in MHz :   649.145920   248.710986   205.539090

                             ****ORCA TERMINATED NORMALLY****
TOTAL RUN TIME: 0 days 0 hours 0 minutes 33 seconds 669 msec
