                         Program Version 4.2.1 -  RELEASE  -
|  1> ! wB97X-D3 SP def2-SVP
|  2> %pal
|  3> nprocs 16
|  4> end
|  5>
|  6> * xyz 0 1
|  7> S 	 -31.9963 	 73.7942 	 167.925
|  8> C 	 -30.9363 	 73.9461 	 166.549
|  9> C 	 -31.5541 	 74.5917 	 165.484
| 10> C 	 -32.9221 	 75.0866 	 165.863
| 11> C 	 -33.2521 	 74.7469 	 167.135
| 12> H 	 -33.6164 	 75.6977 	 165.325
| 13> C 	 -30.98 	 74.9531 	 164.144
| 14> H 	 -30.2961 	 75.7244 	 164.241
| 15> H 	 -31.7332 	 75.1897 	 163.471
| 16> C 	 -30.1896 	 73.7584 	 163.476
| 17> H 	 -29.4683 	 73.3127 	 164.155
| 18> H 	 -30.9464 	 72.9459 	 163.353
| 19> C 	 -29.6299 	 73.9925 	 162.112
| 20> H 	 -28.7412 	 74.6648 	 162.204
| 21> H 	 -29.2745 	 73.0059 	 161.803
| 22> H 	 -30.3226 	 74.404 	 161.404
| 23> S 	 -34.2608 	 76.556 	 169.001
| 24> C 	 -36.009 	 76.6908 	 169.175
| 25> C 	 -36.6148 	 75.8502 	 168.24
| 26> C 	 -35.7429 	 75.0338 	 167.414
| 27> C 	 -34.4068 	 75.2667 	 167.766
| 28> H 	 -37.7219 	 75.8399 	 168.36
| 29> C 	 -36.2018 	 73.9071 	 166.492
| 30> H 	 -35.4348 	 73.5457 	 165.818
| 31> H 	 -37.0099 	 74.1336 	 165.799
| 32> C 	 -36.7575 	 72.6138 	 167.194
| 33> H 	 -37.0788 	 71.8736 	 166.424
| 34> H 	 -37.6144 	 72.8425 	 167.735
| 35> C 	 -35.8306 	 72.0945 	 168.316
| 36> H 	 -36.3348 	 71.1852 	 168.767
| 37> H 	 -35.6447 	 72.8336 	 169.168
| 38> H 	 -34.8694 	 71.5639 	 168.07
| 39> H 	 -29.9339 	 73.5611 	 166.464
| 40> H 	 -36.5616 	 77.4981 	 169.771
| 41> *
| 42>
| 43>                          ****END OF INPUT****

CARTESIAN COORDINATES (ANGSTROEM)
---------------------------------
  S    -31.996300   73.794200  167.925000
  C    -30.936300   73.946100  166.549000
  C    -31.554100   74.591700  165.484000
  C    -32.922100   75.086600  165.863000
  C    -33.252100   74.746900  167.135000
  H    -33.616400   75.697700  165.325000
  C    -30.980000   74.953100  164.144000
  H    -30.296100   75.724400  164.241000
  H    -31.733200   75.189700  163.471000
  C    -30.189600   73.758400  163.476000
  H    -29.468300   73.312700  164.155000
  H    -30.946400   72.945900  163.353000
  C    -29.629900   73.992500  162.112000
  H    -28.741200   74.664800  162.204000
  H    -29.274500   73.005900  161.803000
  H    -30.322600   74.404000  161.404000
  S    -34.260800   76.556000  169.001000
  C    -36.009000   76.690800  169.175000
  C    -36.614800   75.850200  168.240000
  C    -35.742900   75.033800  167.414000
  C    -34.406800   75.266700  167.766000
  H    -37.721900   75.839900  168.360000
  C    -36.201800   73.907100  166.492000
  H    -35.434800   73.545700  165.818000
  H    -37.009900   74.133600  165.799000
  C    -36.757500   72.613800  167.194000
  H    -37.078800   71.873600  166.424000
  H    -37.614400   72.842500  167.735000
  C    -35.830600   72.094500  168.316000
  H    -36.334800   71.185200  168.767000
  H    -35.644700   72.833600  169.168000
  H    -34.869400   71.563900  168.070000
  H    -29.933900   73.561100  166.464000
  H    -36.561600   77.498100  169.771000

 Total Charge           Charge          ....    0
 Multiplicity           Mult            ....    1
 Number of Electrons    NEL             ....  134
 Basis Dimension        Dim             ....  322

ORBITAL ENERGIES
----------------

  NO   OCC          E(Eh)            E(eV)
   0   2.0000     -88.965730     -2420.8806
   1   2.0000     -88.964838     -2420.8563
   2   2.0000     -10.328446      -281.0513
   3   2.0000     -10.326164      -280.9892
   4   2.0000     -10.321646      -280.8663
   5   2.0000     -10.315411      -280.6966
   6   2.0000     -10.312551      -280.6188
   7   2.0000     -10.307443      -280.4798
   8   2.0000     -10.301367      -280.3145
   9   2.0000     -10.295052      -280.1426
  10   2.0000     -10.291925      -280.0575
  11   2.0000     -10.286494      -279.9097
  12   2.0000     -10.286249      -279.9031
  13   2.0000     -10.283032      -279.8155
  14   2.0000     -10.281239      -279.7667
  15   2.0000     -10.279314      -279.7143
  16   2.0000      -8.080212      -219.8737
  17   2.0000      -8.078803      -219.8354
  18   2.0000      -6.038900      -164.3268
  19   2.0000      -6.037362      -164.2850
  20   2.0000      -6.034761      -164.2142
  21   2.0000      -6.033358      -164.1760
  22   2.0000      -6.030786      -164.1060
  23   2.0000      -6.029590      -164.0735
  24   2.0000      -1.002695       -27.2847
  25   2.0000      -0.975506       -26.5449
  26   2.0000      -0.912811       -24.8389
  27   2.0000      -0.900361       -24.5001
  28   2.0000      -0.874141       -23.7866
  29   2.0000      -0.850821       -23.1520
  30   2.0000      -0.837898       -22.8004
  31   2.0000      -0.811351       -22.0780
  32   2.0000      -0.781940       -21.2777
  33   2.0000      -0.771134       -20.9836
  34   2.0000      -0.708091       -19.2681
  35   2.0000      -0.696303       -18.9474
  36   2.0000      -0.688054       -18.7229
  37   2.0000      -0.652036       -17.7428
  38   2.0000      -0.642259       -17.4767
  39   2.0000      -0.611266       -16.6334
  40   2.0000      -0.594777       -16.1847
  41   2.0000      -0.576226       -15.6799
  42   2.0000      -0.560901       -15.2629
  43   2.0000      -0.541513       -14.7353
  44   2.0000      -0.537417       -14.6239
  45   2.0000      -0.525841       -14.3089
  46   2.0000      -0.515649       -14.0315
  47   2.0000      -0.512451       -13.9445
  48   2.0000      -0.504641       -13.7320
  49   2.0000      -0.497853       -13.5473
  50   2.0000      -0.492394       -13.3987
  51   2.0000      -0.480984       -13.0882
  52   2.0000      -0.470463       -12.8019
  53   2.0000      -0.462336       -12.5808
  54   2.0000      -0.457611       -12.4522
  55   2.0000      -0.451487       -12.2856
  56   2.0000      -0.440155       -11.9772
  57   2.0000      -0.428651       -11.6642
  58   2.0000      -0.422514       -11.4972
  59   2.0000      -0.418475       -11.3873
  60   2.0000      -0.417238       -11.3536
  61   2.0000      -0.412877       -11.2350
  62   2.0000      -0.408710       -11.1216
  63   2.0000      -0.342509        -9.3201
  64   2.0000      -0.329126        -8.9560
  65   2.0000      -0.321516        -8.7489
  66   2.0000      -0.300589        -8.1794
  67   0.0000       0.034167         0.9297
  68   0.0000       0.062497         1.7006
  69   0.0000       0.114374         3.1123
  70   0.0000       0.120247         3.2721
  71   0.0000       0.126904         3.4532

MULLIKEN ATOMIC CHARGES
-----------------------
   0 S :    0.118533
   1 C :   -0.119923
   2 C :   -0.108270
   3 C :    0.051592
   4 C :   -0.173120
   5 H :    0.013768
   6 C :    0.160724
   7 H :    0.024125
   8 H :    0.003357
   9 C :   -0.159114
  10 H :    0.024660
  11 H :    0.027126
  12 C :   -0.016787
  13 H :    0.031588
  14 H :    0.035054
  15 H :    0.032825
  16 S :    0.107818
  17 C :   -0.136929
  18 C :   -0.062364
  19 C :    0.001187
  20 C :   -0.167994
  21 H :    0.036420
  22 C :    0.074144
  23 H :    0.027117
  24 H :    0.022884
  25 C :   -0.052225
  26 H :    0.039770
  27 H :    0.014195
  28 C :   -0.119508
  29 H :    0.025853
  30 H :    0.065637
  31 H :    0.037390
  32 H :    0.047431
  33 H :    0.093035
Sum of atomic charges:   -0.0000000

LOEWDIN ATOMIC CHARGES
----------------------
   0 S :    0.399616
   1 C :   -0.199439
   2 C :   -0.052290
   3 C :   -0.045366
   4 C :   -0.198364
   5 H :    0.031258
   6 C :   -0.020011
   7 H :    0.024302
   8 H :    0.021859
   9 C :   -0.045291
  10 H :    0.018054
  11 H :    0.025375
  12 C :   -0.063690
  13 H :    0.027250
  14 H :    0.031996
  15 H :    0.022538
  16 S :    0.384988
  17 C :   -0.202589
  18 C :   -0.080540
  19 C :   -0.051507
  20 C :   -0.183277
  21 H :    0.036873
  22 C :   -0.035121
  23 H :    0.030035
  24 H :    0.031199
  25 C :   -0.035782
  26 H :    0.032218
  27 H :    0.014149
  28 C :   -0.089920
  29 H :    0.028889
  30 H :    0.037883
  31 H :    0.025077
  32 H :    0.027738
  33 H :    0.051889

  Mayer bond orders larger than 0.100000
B(  0-S ,  1-C ) :   1.1218 B(  0-S ,  4-C ) :   1.1204 B(  1-C ,  2-C ) :   1.6462
B(  1-C , 32-H ) :   0.9692 B(  2-C ,  3-C ) :   1.1806 B(  2-C ,  6-C ) :   1.0324
B(  3-C ,  4-C ) :   1.6312 B(  3-C ,  5-H ) :   0.9932 B(  4-C , 20-C ) :   1.0548
B(  6-C ,  7-H ) :   0.9327 B(  6-C ,  8-H ) :   0.9371 B(  6-C ,  9-C ) :   1.0526
B(  9-C , 10-H ) :   0.9561 B(  9-C , 11-H ) :   0.9604 B(  9-C , 12-C ) :   1.0948
B( 12-C , 13-H ) :   0.9716 B( 12-C , 14-H ) :   0.9704 B( 12-C , 15-H ) :   0.9724
B( 16-S , 17-C ) :   1.1382 B( 16-S , 20-C ) :   1.1399 B( 17-C , 18-C ) :   1.6385
B( 17-C , 33-H ) :   0.9552 B( 18-C , 19-C ) :   1.2081 B( 18-C , 21-H ) :   0.9810
B( 19-C , 20-C ) :   1.5833 B( 19-C , 22-C ) :   1.0565 B( 22-C , 23-H ) :   0.9335
B( 22-C , 24-H ) :   0.9365 B( 22-C , 25-C ) :   1.0676 B( 25-C , 26-H ) :   0.9566
B( 25-C , 27-H ) :   0.9546 B( 25-C , 28-C ) :   1.0675 B( 28-C , 29-H ) :   0.9718
B( 28-C , 30-H ) :   0.9692 B( 28-C , 31-H ) :   0.9761

Dispersion correction           -0.014859404
FINAL SINGLE POINT ENERGY     -1339.863420700421

DIPOLE MOMENT
-------------
                                X             Y             Z
Electronic contribution:     -0.55352      12.25711      19.42041
Nuclear contribution   :      0.36009     -12.30005     -20.01628
                        -----------------------------------------
Total Dipole Moment    :     -0.19343      -0.04294      -0.59587
                        -----------------------------------------
Magnitude (a.u.)       :      0.62794
Magnitude (Debye)      :      1.59611

Rotational constants in cm-1:     0.022421     0.007389     0.006784
Rotational constants in MHz :   672.163738   221.512960   203.376557

                             ****ORCA TERMINATED NORMALLY****
TOTAL RUN TIME: 0 days 0 hours 0 minutes 34 seconds 290 msec
