                         Program Version 4.2.1 -  RELEASE  -
|  1> ! wB97X-D3 SP def2-SVP
|  2> %pal
|  3> nprocs 16
|  4> end
|  5>
|  6> * xyz 0 1
|  7> S 	 -37.6226 	 68.2087 	 144.792
|  8> C 	 -37.4697 	 67.0001 	 143.544
|  9> C 	 -36.6908 	 65.963 	 143.917
| 10> C 	 -36.2751 	 66.0604 	 145.276
| 11> C 	 -36.7459 	 67.1886 	 145.95
| 12> H 	 -35.6649 	 65.2749 	 145.851
| 13> C 	 -36.35 	 64.8079 	 142.936
| 14> H 	 -36.9799 	 64.8153 	 142.072
| 15> H 	 -36.4577 	 63.8699 	 143.505
| 16> C 	 -34.897 	 64.8165 	 142.494
| 17> H 	 -34.3441 	 64.4532 	 143.333
| 18> H 	 -34.7707 	 64.0213 	 141.71
| 19> C 	 -34.3081 	 66.0809 	 141.956
| 20> H 	 -34.9282 	 66.5169 	 141.123
| 21> H 	 -34.2395 	 66.9132 	 142.607
| 22> H 	 -33.3899 	 65.933 	 141.416
| 23> S 	 -38.1488 	 67.9474 	 148.155
| 24> C 	 -37.3629 	 68.2061 	 149.677
| 25> C 	 -36.022 	 67.953 	 149.509
| 26> C 	 -35.6372 	 67.4976 	 148.265
| 27> C 	 -36.6635 	 67.5941 	 147.343
| 28> H 	 -35.3775 	 68.0764 	 150.409
| 29> C 	 -34.1259 	 67.1279 	 148.054
| 30> H 	 -34.098 	 66.1882 	 147.537
| 31> H 	 -33.6928 	 66.9001 	 149.086
| 32> C 	 -33.3025 	 68.0915 	 147.185
| 33> H 	 -33.5378 	 69.0548 	 147.587
| 34> H 	 -33.8679 	 68.0823 	 146.283
| 35> C 	 -31.8519 	 67.607 	 147.109
| 36> H 	 -31.3305 	 68.2752 	 146.441
| 37> H 	 -31.6744 	 66.6141 	 146.747
| 38> H 	 -31.4501 	 67.6191 	 148.146
| 39> H 	 -37.6958 	 67.0085 	 142.517
| 40> H 	 -37.9178 	 68.5702 	 150.514
| 41> *
| 42>
| 43>                          ****END OF INPUT****

CARTESIAN COORDINATES (ANGSTROEM)
---------------------------------
  S    -37.622600   68.208700  144.792000
  C    -37.469700   67.000100  143.544000
  C    -36.690800   65.963000  143.917000
  C    -36.275100   66.060400  145.276000
  C    -36.745900   67.188600  145.950000
  H    -35.664900   65.274900  145.851000
  C    -36.350000   64.807900  142.936000
  H    -36.979900   64.815300  142.072000
  H    -36.457700   63.869900  143.505000
  C    -34.897000   64.816500  142.494000
  H    -34.344100   64.453200  143.333000
  H    -34.770700   64.021300  141.710000
  C    -34.308100   66.080900  141.956000
  H    -34.928200   66.516900  141.123000
  H    -34.239500   66.913200  142.607000
  H    -33.389900   65.933000  141.416000
  S    -38.148800   67.947400  148.155000
  C    -37.362900   68.206100  149.677000
  C    -36.022000   67.953000  149.509000
  C    -35.637200   67.497600  148.265000
  C    -36.663500   67.594100  147.343000
  H    -35.377500   68.076400  150.409000
  C    -34.125900   67.127900  148.054000
  H    -34.098000   66.188200  147.537000
  H    -33.692800   66.900100  149.086000
  C    -33.302500   68.091500  147.185000
  H    -33.537800   69.054800  147.587000
  H    -33.867900   68.082300  146.283000
  C    -31.851900   67.607000  147.109000
  H    -31.330500   68.275200  146.441000
  H    -31.674400   66.614100  146.747000
  H    -31.450100   67.619100  148.146000
  H    -37.695800   67.008500  142.517000
  H    -37.917800   68.570200  150.514000

 Total Charge           Charge          ....    0
 Multiplicity           Mult            ....    1
 Number of Electrons    NEL             ....  134
 Basis Dimension        Dim             ....  322

ORBITAL ENERGIES
----------------

  NO   OCC          E(Eh)            E(eV)
   0   2.0000     -88.966820     -2420.9103
   1   2.0000     -88.964629     -2420.8506
   2   2.0000     -10.334906      -281.2271
   3   2.0000     -10.326322      -280.9935
   4   2.0000     -10.314126      -280.6616
   5   2.0000     -10.305159      -280.4176
   6   2.0000     -10.303700      -280.3779
   7   2.0000     -10.301367      -280.3144
   8   2.0000     -10.298016      -280.2233
   9   2.0000     -10.294645      -280.1315
  10   2.0000     -10.294392      -280.1246
  11   2.0000     -10.291516      -280.0464
  12   2.0000     -10.285260      -279.8762
  13   2.0000     -10.280754      -279.7535
  14   2.0000     -10.279711      -279.7252
  15   2.0000     -10.272325      -279.5242
  16   2.0000      -8.081120      -219.8985
  17   2.0000      -8.080195      -219.8733
  18   2.0000      -6.039749      -164.3499
  19   2.0000      -6.038552      -164.3174
  20   2.0000      -6.035650      -164.2384
  21   2.0000      -6.034417      -164.2048
  22   2.0000      -6.031810      -164.1339
  23   2.0000      -6.031220      -164.1178
  24   2.0000      -1.013122       -27.5684
  25   2.0000      -0.989765       -26.9329
  26   2.0000      -0.915296       -24.9065
  27   2.0000      -0.908762       -24.7287
  28   2.0000      -0.873335       -23.7646
  29   2.0000      -0.853145       -23.2153
  30   2.0000      -0.842490       -22.9253
  31   2.0000      -0.815119       -22.1805
  32   2.0000      -0.787832       -21.4380
  33   2.0000      -0.778082       -21.1727
  34   2.0000      -0.714680       -19.4474
  35   2.0000      -0.700189       -19.0531
  36   2.0000      -0.692160       -18.8346
  37   2.0000      -0.663231       -18.0474
  38   2.0000      -0.636694       -17.3253
  39   2.0000      -0.617452       -16.8017
  40   2.0000      -0.600249       -16.3336
  41   2.0000      -0.569300       -15.4915
  42   2.0000      -0.562039       -15.2938
  43   2.0000      -0.555170       -15.1069
  44   2.0000      -0.546374       -14.8676
  45   2.0000      -0.523743       -14.2518
  46   2.0000      -0.517031       -14.0691
  47   2.0000      -0.511626       -13.9221
  48   2.0000      -0.503863       -13.7108
  49   2.0000      -0.500925       -13.6308
  50   2.0000      -0.490638       -13.3509
  51   2.0000      -0.483566       -13.1585
  52   2.0000      -0.474970       -12.9246
  53   2.0000      -0.470000       -12.7893
  54   2.0000      -0.463466       -12.6115
  55   2.0000      -0.448146       -12.1947
  56   2.0000      -0.440106       -11.9759
  57   2.0000      -0.437499       -11.9049
  58   2.0000      -0.429783       -11.6950
  59   2.0000      -0.422376       -11.4934
  60   2.0000      -0.416146       -11.3239
  61   2.0000      -0.415321       -11.3015
  62   2.0000      -0.413713       -11.2577
  63   2.0000      -0.351808        -9.5732
  64   2.0000      -0.334881        -9.1126
  65   2.0000      -0.331643        -9.0245
  66   2.0000      -0.292932        -7.9711
  67   0.0000       0.026400         0.7184
  68   0.0000       0.073854         2.0097
  69   0.0000       0.118174         3.2157
  70   0.0000       0.121421         3.3040
  71   0.0000       0.126976         3.4552

MULLIKEN ATOMIC CHARGES
-----------------------
   0 S :    0.107645
   1 C :   -0.072274
   2 C :   -0.129857
   3 C :    0.012687
   4 C :   -0.173575
   5 H :    0.040492
   6 C :    0.102299
   7 H :    0.016041
   8 H :    0.032501
   9 C :   -0.083950
  10 H :    0.019056
  11 H :    0.031798
  12 C :   -0.029938
  13 H :    0.009515
  14 H :    0.036188
  15 H :    0.028138
  16 S :    0.112242
  17 C :   -0.098764
  18 C :   -0.050661
  19 C :   -0.021121
  20 C :   -0.151017
  21 H :    0.030648
  22 C :    0.030190
  23 H :    0.004685
  24 H :    0.024216
  25 C :   -0.027949
  26 H :    0.021800
  27 H :    0.021679
  28 C :   -0.016321
  29 H :    0.037247
  30 H :    0.026916
  31 H :    0.034053
  32 H :    0.019469
  33 H :    0.055920
Sum of atomic charges:    0.0000000

LOEWDIN ATOMIC CHARGES
----------------------
   0 S :    0.396768
   1 C :   -0.194961
   2 C :   -0.066911
   3 C :   -0.073745
   4 C :   -0.185305
   5 H :    0.042190
   6 C :   -0.020123
   7 H :    0.023491
   8 H :    0.037126
   9 C :   -0.046787
  10 H :    0.018234
  11 H :    0.031189
  12 C :   -0.070840
  13 H :    0.028063
  14 H :    0.021428
  15 H :    0.027319
  16 S :    0.432603
  17 C :   -0.188319
  18 C :   -0.078640
  19 C :   -0.060951
  20 C :   -0.214376
  21 H :    0.037799
  22 C :   -0.027352
  23 H :    0.019020
  24 H :    0.030047
  25 C :   -0.037008
  26 H :    0.022846
  27 H :    0.023051
  28 C :   -0.058809
  29 H :    0.027562
  30 H :    0.024156
  31 H :    0.032282
  32 H :    0.022634
  33 H :    0.026320

  Mayer bond orders larger than 0.100000
B(  0-S ,  1-C ) :   1.1212 B(  0-S ,  4-C ) :   1.1466 B(  1-C ,  2-C ) :   1.6524
B(  1-C , 32-H ) :   0.9600 B(  2-C ,  3-C ) :   1.2323 B(  2-C ,  6-C ) :   1.0214
B(  3-C ,  4-C ) :   1.5872 B(  3-C ,  5-H ) :   0.9764 B(  4-C , 20-C ) :   1.0348
B(  6-C ,  7-H ) :   0.9423 B(  6-C ,  8-H ) :   0.9402 B(  6-C ,  9-C ) :   1.0755
B(  9-C , 10-H ) :   0.9541 B(  9-C , 11-H ) :   0.9544 B(  9-C , 12-C ) :   1.0849
B( 12-C , 13-H ) :   0.9679 B( 12-C , 14-H ) :   0.9708 B( 12-C , 15-H ) :   0.9709
B( 16-S , 17-C ) :   1.1746 B( 16-S , 20-C ) :   1.1747 B( 17-C , 18-C ) :   1.5519
B( 17-C , 20-C ) :   0.1150 B( 17-C , 33-H ) :   0.9770 B( 18-C , 19-C ) :   1.2909
B( 18-C , 21-H ) :   0.9865 B( 19-C , 20-C ) :   1.5483 B( 19-C , 22-C ) :   1.0288
B( 22-C , 23-H ) :   0.9309 B( 22-C , 24-H ) :   0.9415 B( 22-C , 25-C ) :   1.0543
B( 25-C , 26-H ) :   0.9570 B( 25-C , 27-H ) :   0.9497 B( 25-C , 28-C ) :   1.0707
B( 28-C , 29-H ) :   0.9739 B( 28-C , 30-H ) :   0.9745 B( 28-C , 31-H ) :   0.9743

Dispersion correction           -0.014686433
FINAL SINGLE POINT ENERGY     -1339.874909148297

DIPOLE MOMENT
-------------
                                X             Y             Z
Electronic contribution:    -25.73276       9.53586      11.06227
Nuclear contribution   :     26.28997      -9.89021     -11.10990
                        -----------------------------------------
Total Dipole Moment    :      0.55721      -0.35436      -0.04763
                        -----------------------------------------
Magnitude (a.u.)       :      0.66206
Magnitude (Debye)      :      1.68282

Rotational constants in cm-1:     0.018145     0.009600     0.006997
Rotational constants in MHz :   543.958875   287.810903   209.760162

                             ****ORCA TERMINATED NORMALLY****
TOTAL RUN TIME: 0 days 0 hours 0 minutes 35 seconds 620 msec
