                         Program Version 4.2.1 -  RELEASE  -
|  1> ! wB97X-D3 SP def2-SVP
|  2> %pal
|  3> nprocs 16
|  4> end
|  5>
|  6> * xyz 0 1
|  7> S 	 38.142 	 11.8131 	 79.1916
|  8> C 	 39.0924 	 11.6042 	 77.7856
|  9> C 	 40.2485 	 12.3591 	 77.9088
| 10> C 	 40.3878 	 13.036 	 79.1541
| 11> C 	 39.2686 	 12.9282 	 79.9112
| 12> H 	 41.178 	 13.6446 	 79.5367
| 13> C 	 41.2589 	 12.4571 	 76.7
| 14> H 	 41.7499 	 13.3914 	 76.7744
| 15> H 	 40.6636 	 12.3874 	 75.7692
| 16> C 	 42.3774 	 11.3681 	 76.6997
| 17> H 	 41.9075 	 10.3697 	 76.9397
| 18> H 	 42.719 	 11.3226 	 75.6756
| 19> C 	 43.4833 	 11.677 	 77.735
| 20> H 	 43.9283 	 12.562 	 77.3443
| 21> H 	 43.047 	 11.9279 	 78.7475
| 22> H 	 44.1137 	 10.8096 	 77.8691
| 23> S 	 37.8674 	 14.7035 	 81.4474
| 24> C 	 38.1113 	 14.8868 	 83.188
| 25> C 	 39.1303 	 14.0913 	 83.5787
| 26> C 	 39.7448 	 13.2607 	 82.5271
| 27> C 	 39.1448 	 13.4595 	 81.2878
| 28> H 	 39.3285 	 14.057 	 84.6258
| 29> C 	 40.8385 	 12.1558 	 82.7552
| 30> H 	 40.6161 	 11.3122 	 82.1336
| 31> H 	 40.6958 	 11.8105 	 83.7889
| 32> C 	 42.2997 	 12.4846 	 82.6065
| 33> H 	 42.4311 	 12.852 	 81.5879
| 34> H 	 43.0558 	 11.6583 	 82.7545
| 35> C 	 42.669 	 13.6453 	 83.56
| 36> H 	 42.1421 	 14.5887 	 83.3493
| 37> H 	 43.7294 	 13.9531 	 83.4691
| 38> H 	 42.4048 	 13.3142 	 84.6536
| 39> H 	 38.9657 	 10.8922 	 76.9752
| 40> H 	 37.672 	 15.4167 	 84.0451
| 41> *
| 42>
| 43>                          ****END OF INPUT****

CARTESIAN COORDINATES (ANGSTROEM)
---------------------------------
  S     38.142000   11.813100   79.191600
  C     39.092400   11.604200   77.785600
  C     40.248500   12.359100   77.908800
  C     40.387800   13.036000   79.154100
  C     39.268600   12.928200   79.911200
  H     41.178000   13.644600   79.536700
  C     41.258900   12.457100   76.700000
  H     41.749900   13.391400   76.774400
  H     40.663600   12.387400   75.769200
  C     42.377400   11.368100   76.699700
  H     41.907500   10.369700   76.939700
  H     42.719000   11.322600   75.675600
  C     43.483300   11.677000   77.735000
  H     43.928300   12.562000   77.344300
  H     43.047000   11.927900   78.747500
  H     44.113700   10.809600   77.869100
  S     37.867400   14.703500   81.447400
  C     38.111300   14.886800   83.188000
  C     39.130300   14.091300   83.578700
  C     39.744800   13.260700   82.527100
  C     39.144800   13.459500   81.287800
  H     39.328500   14.057000   84.625800
  C     40.838500   12.155800   82.755200
  H     40.616100   11.312200   82.133600
  H     40.695800   11.810500   83.788900
  C     42.299700   12.484600   82.606500
  H     42.431100   12.852000   81.587900
  H     43.055800   11.658300   82.754500
  C     42.669000   13.645300   83.560000
  H     42.142100   14.588700   83.349300
  H     43.729400   13.953100   83.469100
  H     42.404800   13.314200   84.653600
  H     38.965700   10.892200   76.975200
  H     37.672000   15.416700   84.045100

 Total Charge           Charge          ....    0
 Multiplicity           Mult            ....    1
 Number of Electrons    NEL             ....  134
 Basis Dimension        Dim             ....  322

ORBITAL ENERGIES
----------------

  NO   OCC          E(Eh)            E(eV)
   0   2.0000     -88.969699     -2420.9886
   1   2.0000     -88.962591     -2420.7952
   2   2.0000     -10.334656      -281.2203
   3   2.0000     -10.329679      -281.0849
   4   2.0000     -10.316929      -280.7379
   5   2.0000     -10.315834      -280.7081
   6   2.0000     -10.315182      -280.6904
   7   2.0000     -10.304168      -280.3907
   8   2.0000     -10.294575      -280.1296
   9   2.0000     -10.294523      -280.1282
  10   2.0000     -10.292685      -280.0782
  11   2.0000     -10.292639      -280.0769
  12   2.0000     -10.290601      -280.0215
  13   2.0000     -10.290392      -280.0158
  14   2.0000     -10.285365      -279.8790
  15   2.0000     -10.281508      -279.7741
  16   2.0000      -8.085015      -220.0044
  17   2.0000      -8.076456      -219.7715
  18   2.0000      -6.043439      -164.4503
  19   2.0000      -6.039302      -164.3378
  20   2.0000      -6.035930      -164.2460
  21   2.0000      -6.035302      -164.2289
  22   2.0000      -6.030949      -164.1105
  23   2.0000      -6.027001      -164.0030
  24   2.0000      -1.010946       -27.5092
  25   2.0000      -0.982886       -26.7457
  26   2.0000      -0.907047       -24.6820
  27   2.0000      -0.906064       -24.6553
  28   2.0000      -0.874579       -23.7985
  29   2.0000      -0.848864       -23.0988
  30   2.0000      -0.835411       -22.7327
  31   2.0000      -0.822805       -22.3896
  32   2.0000      -0.780108       -21.2278
  33   2.0000      -0.770790       -20.9743
  34   2.0000      -0.708322       -19.2744
  35   2.0000      -0.696857       -18.9624
  36   2.0000      -0.685867       -18.6634
  37   2.0000      -0.656238       -17.8571
  38   2.0000      -0.648521       -17.6472
  39   2.0000      -0.615152       -16.7391
  40   2.0000      -0.584144       -15.8954
  41   2.0000      -0.578633       -15.7454
  42   2.0000      -0.555143       -15.1062
  43   2.0000      -0.550360       -14.9761
  44   2.0000      -0.546831       -14.8800
  45   2.0000      -0.539631       -14.6841
  46   2.0000      -0.518998       -14.1226
  47   2.0000      -0.513469       -13.9722
  48   2.0000      -0.506983       -13.7957
  49   2.0000      -0.496479       -13.5099
  50   2.0000      -0.482078       -13.1180
  51   2.0000      -0.478603       -13.0235
  52   2.0000      -0.474192       -12.9034
  53   2.0000      -0.466479       -12.6935
  54   2.0000      -0.458269       -12.4701
  55   2.0000      -0.438699       -11.9376
  56   2.0000      -0.438195       -11.9239
  57   2.0000      -0.434107       -11.8127
  58   2.0000      -0.430896       -11.7253
  59   2.0000      -0.428729       -11.6663
  60   2.0000      -0.422521       -11.4974
  61   2.0000      -0.412158       -11.2154
  62   2.0000      -0.406641       -11.0653
  63   2.0000      -0.344884        -9.3848
  64   2.0000      -0.333688        -9.0801
  65   2.0000      -0.327330        -8.9071
  66   2.0000      -0.307600        -8.3702
  67   0.0000       0.037744         1.0271
  68   0.0000       0.060508         1.6465
  69   0.0000       0.113121         3.0782
  70   0.0000       0.126109         3.4316
  71   0.0000       0.126441         3.4406

MULLIKEN ATOMIC CHARGES
-----------------------
   0 S :    0.136226
   1 C :   -0.110227
   2 C :   -0.105931
   3 C :    0.042965
   4 C :   -0.137420
   5 H :    0.012046
   6 C :    0.058024
   7 H :    0.011888
   8 H :    0.034642
   9 C :   -0.078484
  10 H :    0.026661
  11 H :    0.032204
  12 C :   -0.048904
  13 H :    0.028168
  14 H :    0.038043
  15 H :    0.044729
  16 S :    0.089541
  17 C :   -0.065839
  18 C :   -0.059636
  19 C :   -0.030539
  20 C :   -0.192441
  21 H :    0.010688
  22 C :    0.078485
  23 H :    0.030808
  24 H :    0.017329
  25 C :   -0.051149
  26 H :    0.016406
  27 H :    0.048317
  28 C :   -0.112027
  29 H :    0.045883
  30 H :    0.037227
  31 H :    0.037259
  32 H :    0.055363
  33 H :    0.059692
Sum of atomic charges:    0.0000000

LOEWDIN ATOMIC CHARGES
----------------------
   0 S :    0.436466
   1 C :   -0.210521
   2 C :   -0.062957
   3 C :   -0.059805
   4 C :   -0.208931
   5 H :    0.031172
   6 C :   -0.025232
   7 H :    0.020242
   8 H :    0.032930
   9 C :   -0.041694
  10 H :    0.022990
  11 H :    0.020578
  12 C :   -0.064080
  13 H :    0.021177
  14 H :    0.031297
  15 H :    0.027297
  16 S :    0.379159
  17 C :   -0.191732
  18 C :   -0.075442
  19 C :   -0.051522
  20 C :   -0.178804
  21 H :    0.026009
  22 C :   -0.029539
  23 H :    0.029642
  24 H :    0.028699
  25 C :   -0.046704
  26 H :    0.018448
  27 H :    0.035102
  28 C :   -0.079215
  29 H :    0.026231
  30 H :    0.025415
  31 H :    0.030135
  32 H :    0.035529
  33 H :    0.047660

  Mayer bond orders larger than 0.100000
B(  0-S ,  1-C ) :   1.1548 B(  0-S ,  4-C ) :   1.1626 B(  1-C ,  2-C ) :   1.6012
B(  1-C , 32-H ) :   0.9673 B(  2-C ,  3-C ) :   1.2393 B(  2-C ,  6-C ) :   1.0120
B(  3-C ,  4-C ) :   1.5759 B(  3-C ,  5-H ) :   1.0004 B(  4-C , 20-C ) :   0.9952
B(  6-C ,  7-H ) :   0.9458 B(  6-C ,  8-H ) :   0.9493 B(  6-C ,  9-C ) :   1.0595
B(  9-C , 10-H ) :   0.9592 B(  9-C , 11-H ) :   0.9598 B(  9-C , 12-C ) :   1.0636
B( 12-C , 13-H ) :   0.9771 B( 12-C , 14-H ) :   0.9764 B( 12-C , 15-H ) :   0.9743
B( 16-S , 17-C ) :   1.1177 B( 16-S , 20-C ) :   1.1249 B( 17-C , 18-C ) :   1.6908
B( 17-C , 33-H ) :   0.9564 B( 18-C , 19-C ) :   1.1903 B( 18-C , 21-H ) :   0.9858
B( 19-C , 20-C ) :   1.6531 B( 19-C , 22-C ) :   1.0168 B( 22-C , 23-H ) :   0.9393
B( 22-C , 24-H ) :   0.9395 B( 22-C , 25-C ) :   1.0759 B( 25-C , 26-H ) :   0.9478
B( 25-C , 27-H ) :   0.9551 B( 25-C , 28-C ) :   1.0713 B( 28-C , 29-H ) :   0.9722
B( 28-C , 30-H ) :   0.9740 B( 28-C , 31-H ) :   0.9749

Dispersion correction           -0.015157612
FINAL SINGLE POINT ENERGY     -1339.868832099093

DIPOLE MOMENT
-------------
                                X             Y             Z
Electronic contribution:    -28.00471       5.51395       0.47144
Nuclear contribution   :     28.62759      -5.76873      -0.49529
                        -----------------------------------------
Total Dipole Moment    :      0.62288      -0.25478      -0.02386
                        -----------------------------------------
Magnitude (a.u.)       :      0.67339
Magnitude (Debye)      :      1.71163

Rotational constants in cm-1:     0.018539     0.009453     0.006962
Rotational constants in MHz :   555.787518   283.394355   208.718748

                             ****ORCA TERMINATED NORMALLY****
TOTAL RUN TIME: 0 days 0 hours 0 minutes 31 seconds 612 msec
