                         Program Version 4.2.1 -  RELEASE  -
|  1> ! wB97X-D3 SP def2-SVP
|  2> %pal
|  3> nprocs 16
|  4> end
|  5>
|  6> * xyz 0 1
|  7> S 	 -77.5426 	 46.5109 	 122.228
|  8> C 	 -77.2913 	 44.8624 	 121.82
|  9> C 	 -76.1637 	 44.3273 	 122.517
| 10> C 	 -75.4371 	 45.3669 	 123.201
| 11> C 	 -76.0179 	 46.5978 	 123.041
| 12> H 	 -74.5382 	 45.1291 	 123.661
| 13> C 	 -75.7396 	 42.8693 	 122.412
| 14> H 	 -75.9866 	 42.5312 	 121.425
| 15> H 	 -76.5143 	 42.3895 	 123.035
| 16> C 	 -74.2685 	 42.4786 	 122.807
| 17> H 	 -73.9983 	 42.8082 	 123.814
| 18> H 	 -74.2879 	 41.3769 	 122.831
| 19> C 	 -73.2251 	 42.7635 	 121.757
| 20> H 	 -72.2752 	 42.3506 	 122.049
| 21> H 	 -73.6258 	 42.4469 	 120.785
| 22> H 	 -73.1894 	 43.8941 	 121.774
| 23> S 	 -76.4882 	 48.8677 	 124.434
| 24> C 	 -75.2322 	 49.9597 	 124.868
| 25> C 	 -73.9895 	 49.5759 	 124.354
| 26> C 	 -74.1126 	 48.393 	 123.537
| 27> C 	 -75.3978 	 47.8171 	 123.553
| 28> H 	 -73.0598 	 50.1168 	 124.625
| 29> C 	 -72.9803 	 47.7333 	 122.84
| 30> H 	 -73.3041 	 47.1329 	 122.006
| 31> H 	 -72.3989 	 47.0329 	 123.544
| 32> C 	 -71.855 	 48.6797 	 122.307
| 33> H 	 -71.4913 	 49.1481 	 123.243
| 34> H 	 -72.2823 	 49.3976 	 121.59
| 35> C 	 -70.6101 	 48.0347 	 121.513
| 36> H 	 -69.8957 	 48.8015 	 121.285
| 37> H 	 -71.055 	 47.5929 	 120.643
| 38> H 	 -70.0952 	 47.3343 	 122.124
| 39> H 	 -77.9426 	 44.2358 	 121.279
| 40> H 	 -75.3488 	 50.932 	 125.394
| 41> *
| 42>
| 43>                          ****END OF INPUT****

CARTESIAN COORDINATES (ANGSTROEM)
---------------------------------
  S    -77.542600   46.510900  122.228000
  C    -77.291300   44.862400  121.820000
  C    -76.163700   44.327300  122.517000
  C    -75.437100   45.366900  123.201000
  C    -76.017900   46.597800  123.041000
  H    -74.538200   45.129100  123.661000
  C    -75.739600   42.869300  122.412000
  H    -75.986600   42.531200  121.425000
  H    -76.514300   42.389500  123.035000
  C    -74.268500   42.478600  122.807000
  H    -73.998300   42.808200  123.814000
  H    -74.287900   41.376900  122.831000
  C    -73.225100   42.763500  121.757000
  H    -72.275200   42.350600  122.049000
  H    -73.625800   42.446900  120.785000
  H    -73.189400   43.894100  121.774000
  S    -76.488200   48.867700  124.434000
  C    -75.232200   49.959700  124.868000
  C    -73.989500   49.575900  124.354000
  C    -74.112600   48.393000  123.537000
  C    -75.397800   47.817100  123.553000
  H    -73.059800   50.116800  124.625000
  C    -72.980300   47.733300  122.840000
  H    -73.304100   47.132900  122.006000
  H    -72.398900   47.032900  123.544000
  C    -71.855000   48.679700  122.307000
  H    -71.491300   49.148100  123.243000
  H    -72.282300   49.397600  121.590000
  C    -70.610100   48.034700  121.513000
  H    -69.895700   48.801500  121.285000
  H    -71.055000   47.592900  120.643000
  H    -70.095200   47.334300  122.124000
  H    -77.942600   44.235800  121.279000
  H    -75.348800   50.932000  125.394000

 Total Charge           Charge          ....    0
 Multiplicity           Mult            ....    1
 Number of Electrons    NEL             ....  134
 Basis Dimension        Dim             ....  322

ORBITAL ENERGIES
----------------

  NO   OCC          E(Eh)            E(eV)
   0   2.0000     -88.970630     -2421.0139
   1   2.0000     -88.963244     -2420.8129
   2   2.0000     -10.328288      -281.0470
   3   2.0000     -10.326663      -281.0028
   4   2.0000     -10.317920      -280.7649
   5   2.0000     -10.309931      -280.5475
   6   2.0000     -10.306283      -280.4482
   7   2.0000     -10.304035      -280.3870
   8   2.0000     -10.298657      -280.2407
   9   2.0000     -10.296693      -280.1873
  10   2.0000     -10.292975      -280.0861
  11   2.0000     -10.292476      -280.0725
  12   2.0000     -10.291166      -280.0369
  13   2.0000     -10.288869      -279.9744
  14   2.0000     -10.283163      -279.8191
  15   2.0000     -10.277225      -279.6575
  16   2.0000      -8.085817      -220.0263
  17   2.0000      -8.078585      -219.8295
  18   2.0000      -6.044325      -164.4745
  19   2.0000      -6.040221      -164.3628
  20   2.0000      -6.036979      -164.2746
  21   2.0000      -6.036597      -164.2642
  22   2.0000      -6.032871      -164.1628
  23   2.0000      -6.029573      -164.0730
  24   2.0000      -1.008280       -27.4367
  25   2.0000      -0.983973       -26.7753
  26   2.0000      -0.912091       -24.8192
  27   2.0000      -0.901171       -24.5221
  28   2.0000      -0.869869       -23.6703
  29   2.0000      -0.854151       -23.2426
  30   2.0000      -0.843505       -22.9529
  31   2.0000      -0.817058       -22.2333
  32   2.0000      -0.781913       -21.2769
  33   2.0000      -0.768653       -20.9161
  34   2.0000      -0.707989       -19.2654
  35   2.0000      -0.693960       -18.8836
  36   2.0000      -0.691166       -18.8076
  37   2.0000      -0.648725       -17.6527
  38   2.0000      -0.638306       -17.3692
  39   2.0000      -0.630125       -17.1466
  40   2.0000      -0.594206       -16.1692
  41   2.0000      -0.569073       -15.4853
  42   2.0000      -0.567599       -15.4452
  43   2.0000      -0.555784       -15.1236
  44   2.0000      -0.541772       -14.7424
  45   2.0000      -0.521347       -14.1866
  46   2.0000      -0.515118       -14.0171
  47   2.0000      -0.511319       -13.9137
  48   2.0000      -0.504900       -13.7390
  49   2.0000      -0.502128       -13.6636
  50   2.0000      -0.489764       -13.3272
  51   2.0000      -0.488244       -13.2858
  52   2.0000      -0.470158       -12.7937
  53   2.0000      -0.465002       -12.6534
  54   2.0000      -0.460117       -12.5204
  55   2.0000      -0.452211       -12.3053
  56   2.0000      -0.447296       -12.1715
  57   2.0000      -0.444125       -12.0853
  58   2.0000      -0.434063       -11.8114
  59   2.0000      -0.428878       -11.6704
  60   2.0000      -0.416414       -11.3312
  61   2.0000      -0.408522       -11.1164
  62   2.0000      -0.404444       -11.0055
  63   2.0000      -0.347923        -9.4675
  64   2.0000      -0.329138        -8.9563
  65   2.0000      -0.325198        -8.8491
  66   2.0000      -0.285609        -7.7718
  67   0.0000       0.029233         0.7955
  68   0.0000       0.069897         1.9020
  69   0.0000       0.112601         3.0640
  70   0.0000       0.118092         3.2134
  71   0.0000       0.134824         3.6687

MULLIKEN ATOMIC CHARGES
-----------------------
   0 S :    0.140079
   1 C :   -0.106442
   2 C :   -0.127896
   3 C :    0.044400
   4 C :   -0.115886
   5 H :   -0.016526
   6 C :    0.061612
   7 H :    0.016621
   8 H :    0.045672
   9 C :   -0.099992
  10 H :    0.037514
  11 H :    0.026649
  12 C :   -0.024322
  13 H :    0.043710
  14 H :    0.034534
  15 H :    0.030026
  16 S :    0.102218
  17 C :   -0.102081
  18 C :   -0.064601
  19 C :   -0.009077
  20 C :   -0.156849
  21 H :    0.041347
  22 C :    0.023296
  23 H :    0.031304
  24 H :    0.043975
  25 C :   -0.154770
  26 H :    0.032812
  27 H :    0.043007
  28 C :   -0.012815
  29 H :    0.036560
  30 H :    0.036211
  31 H :    0.021490
  32 H :    0.026996
  33 H :    0.071225
Sum of atomic charges:   -0.0000000

LOEWDIN ATOMIC CHARGES
----------------------
   0 S :    0.435187
   1 C :   -0.214696
   2 C :   -0.053069
   3 C :   -0.054856
   4 C :   -0.205411
   5 H :    0.019232
   6 C :   -0.036243
   7 H :    0.027797
   8 H :    0.042329
   9 C :   -0.046812
  10 H :    0.022567
  11 H :    0.027496
  12 C :   -0.061162
  13 H :    0.025951
  14 H :    0.028244
  15 H :    0.029008
  16 S :    0.417458
  17 C :   -0.203931
  18 C :   -0.079023
  19 C :   -0.060052
  20 C :   -0.191593
  21 H :    0.039575
  22 C :   -0.043269
  23 H :    0.025640
  24 H :    0.037478
  25 C :   -0.041807
  26 H :    0.018871
  27 H :    0.024368
  28 C :   -0.054803
  29 H :    0.027276
  30 H :    0.024368
  31 H :    0.017599
  32 H :    0.017282
  33 H :    0.039001

  Mayer bond orders larger than 0.100000
B(  0-S ,  1-C ) :   1.1483 B(  0-S ,  4-C ) :   1.1645 B(  1-C ,  2-C ) :   1.5782
B(  1-C , 32-H ) :   0.9758 B(  2-C ,  3-C ) :   1.2761 B(  2-C ,  6-C ) :   1.0014
B(  3-C ,  4-C ) :   1.5173 B(  3-C ,  5-H ) :   1.0055 B(  4-C , 20-C ) :   1.0450
B(  6-C ,  7-H ) :   0.9428 B(  6-C ,  8-H ) :   0.9299 B(  6-C ,  9-C ) :   1.0790
B(  9-C , 10-H ) :   0.9528 B(  9-C , 11-H ) :   0.9507 B(  9-C , 12-C ) :   1.0731
B( 12-C , 13-H ) :   0.9728 B( 12-C , 14-H ) :   0.9706 B( 12-C , 15-H ) :   0.9775
B( 16-S , 17-C ) :   1.1757 B( 16-S , 20-C ) :   1.1444 B( 17-C , 18-C ) :   1.5947
B( 17-C , 20-C ) :   0.1013 B( 17-C , 33-H ) :   0.9597 B( 18-C , 19-C ) :   1.2427
B( 18-C , 21-H ) :   0.9839 B( 19-C , 20-C ) :   1.5745 B( 19-C , 22-C ) :   1.0604
B( 22-C , 23-H ) :   0.9379 B( 22-C , 24-H ) :   0.9304 B( 22-C , 25-C ) :   1.0510
B( 25-C , 26-H ) :   0.9532 B( 25-C , 27-H ) :   0.9645 B( 25-C , 28-C ) :   1.0777
B( 28-C , 29-H ) :   0.9758 B( 28-C , 30-H ) :   0.9781 B( 28-C , 31-H ) :   0.9765

Dispersion correction           -0.014057248
FINAL SINGLE POINT ENERGY     -1339.870975783724

DIPOLE MOMENT
-------------
                                X             Y             Z
Electronic contribution:    -27.03685      14.22222       7.93763
Nuclear contribution   :     27.59337     -14.69875      -7.99727
                        -----------------------------------------
Total Dipole Moment    :      0.55652      -0.47654      -0.05963
                        -----------------------------------------
Magnitude (a.u.)       :      0.73509
Magnitude (Debye)      :      1.86846

Rotational constants in cm-1:     0.015209     0.010131     0.006733
Rotational constants in MHz :   455.956821   303.715036   201.853435

                             ****ORCA TERMINATED NORMALLY****
TOTAL RUN TIME: 0 days 0 hours 0 minutes 32 seconds 58 msec
