                         Program Version 4.2.1 -  RELEASE  -
|  1> ! wB97X-D3 SP def2-SVP
|  2> %pal
|  3> nprocs 16
|  4> end
|  5>
|  6> * xyz 0 1
|  7> S 	 -36.8448 	 52.9483 	 109.517
|  8> C 	 -38.5898 	 53.0091 	 109.741
|  9> C 	 -39.3184 	 52.6685 	 108.643
| 10> C 	 -38.51 	 52.1352 	 107.613
| 11> C 	 -37.1965 	 52.0415 	 108.005
| 12> H 	 -38.7592 	 51.8227 	 106.596
| 13> C 	 -40.7977 	 52.8789 	 108.572
| 14> H 	 -41.2716 	 52.6249 	 107.631
| 15> H 	 -41.0139 	 53.8963 	 108.833
| 16> C 	 -41.431 	 51.8994 	 109.6
| 17> H 	 -41.0444 	 50.8789 	 109.471
| 18> H 	 -41.1154 	 52.2213 	 110.659
| 19> C 	 -42.9265 	 51.8539 	 109.402
| 20> H 	 -43.3747 	 51.3968 	 110.342
| 21> H 	 -43.359 	 52.7721 	 109.194
| 22> H 	 -43.1024 	 51.2914 	 108.445
| 23> S 	 -35.5153 	 49.98 	 107.356
| 24> C 	 -34.8489 	 49.9489 	 105.675
| 25> C 	 -35.0767 	 51.1475 	 104.999
| 26> C 	 -35.8129 	 52.1009 	 105.776
| 27> C 	 -36.1492 	 51.6181 	 107.073
| 28> H 	 -34.875 	 51.1566 	 103.957
| 29> C 	 -36.3253 	 53.4055 	 105.265
| 30> H 	 -35.4725 	 53.9073 	 104.784
| 31> H 	 -36.4599 	 54.0944 	 106.131
| 32> C 	 -37.5727 	 53.343 	 104.288
| 33> H 	 -38.5613 	 53.12 	 104.758
| 34> H 	 -37.409 	 52.3889 	 103.729
| 35> C 	 -37.7201 	 54.5445 	 103.331
| 36> H 	 -37.9892 	 55.4977 	 103.797
| 37> H 	 -38.5009 	 54.3771 	 102.601
| 38> H 	 -36.8036 	 54.6164 	 102.745
| 39> H 	 -39.0906 	 53.4132 	 110.664
| 40> H 	 -34.2587 	 49.1708 	 105.325
| 41> *
| 42>
| 43>                          ****END OF INPUT****

CARTESIAN COORDINATES (ANGSTROEM)
---------------------------------
  S    -36.844800   52.948300  109.517000
  C    -38.589800   53.009100  109.741000
  C    -39.318400   52.668500  108.643000
  C    -38.510000   52.135200  107.613000
  C    -37.196500   52.041500  108.005000
  H    -38.759200   51.822700  106.596000
  C    -40.797700   52.878900  108.572000
  H    -41.271600   52.624900  107.631000
  H    -41.013900   53.896300  108.833000
  C    -41.431000   51.899400  109.600000
  H    -41.044400   50.878900  109.471000
  H    -41.115400   52.221300  110.659000
  C    -42.926500   51.853900  109.402000
  H    -43.374700   51.396800  110.342000
  H    -43.359000   52.772100  109.194000
  H    -43.102400   51.291400  108.445000
  S    -35.515300   49.980000  107.356000
  C    -34.848900   49.948900  105.675000
  C    -35.076700   51.147500  104.999000
  C    -35.812900   52.100900  105.776000
  C    -36.149200   51.618100  107.073000
  H    -34.875000   51.156600  103.957000
  C    -36.325300   53.405500  105.265000
  H    -35.472500   53.907300  104.784000
  H    -36.459900   54.094400  106.131000
  C    -37.572700   53.343000  104.288000
  H    -38.561300   53.120000  104.758000
  H    -37.409000   52.388900  103.729000
  C    -37.720100   54.544500  103.331000
  H    -37.989200   55.497700  103.797000
  H    -38.500900   54.377100  102.601000
  H    -36.803600   54.616400  102.745000
  H    -39.090600   53.413200  110.664000
  H    -34.258700   49.170800  105.325000

 Total Charge           Charge          ....    0
 Multiplicity           Mult            ....    1
 Number of Electrons    NEL             ....  134
 Basis Dimension        Dim             ....  322

ORBITAL ENERGIES
----------------

  NO   OCC          E(Eh)            E(eV)
   0   2.0000     -88.967661     -2420.9331
   1   2.0000     -88.962888     -2420.8033
   2   2.0000     -10.326367      -280.9947
   3   2.0000     -10.326143      -280.9886
   4   2.0000     -10.318746      -280.7874
   5   2.0000     -10.312576      -280.6195
   6   2.0000     -10.307578      -280.4834
   7   2.0000     -10.298592      -280.2389
   8   2.0000     -10.296202      -280.1739
   9   2.0000     -10.295499      -280.1548
  10   2.0000     -10.294679      -280.1325
  11   2.0000     -10.294143      -280.1179
  12   2.0000     -10.290910      -280.0299
  13   2.0000     -10.289668      -279.9961
  14   2.0000     -10.281076      -279.7623
  15   2.0000     -10.278896      -279.7030
  16   2.0000      -8.081405      -219.9062
  17   2.0000      -8.076395      -219.7699
  18   2.0000      -6.039835      -164.3523
  19   2.0000      -6.036483      -164.2610
  20   2.0000      -6.034865      -164.2170
  21   2.0000      -6.031883      -164.1359
  22   2.0000      -6.031061      -164.1135
  23   2.0000      -6.027292      -164.0110
  24   2.0000      -1.000068       -27.2132
  25   2.0000      -0.974961       -26.5300
  26   2.0000      -0.915318       -24.9071
  27   2.0000      -0.899126       -24.4665
  28   2.0000      -0.866206       -23.5707
  29   2.0000      -0.850546       -23.1445
  30   2.0000      -0.847139       -23.0518
  31   2.0000      -0.814847       -22.1731
  32   2.0000      -0.779126       -21.2011
  33   2.0000      -0.762878       -20.7590
  34   2.0000      -0.705423       -19.1955
  35   2.0000      -0.699281       -19.0284
  36   2.0000      -0.692788       -18.8517
  37   2.0000      -0.661110       -17.9897
  38   2.0000      -0.639240       -17.3946
  39   2.0000      -0.614615       -16.7245
  40   2.0000      -0.592346       -16.1186
  41   2.0000      -0.575746       -15.6668
  42   2.0000      -0.560497       -15.2519
  43   2.0000      -0.551244       -15.0001
  44   2.0000      -0.528156       -14.3719
  45   2.0000      -0.521794       -14.1987
  46   2.0000      -0.518921       -14.1206
  47   2.0000      -0.509402       -13.8615
  48   2.0000      -0.505641       -13.7592
  49   2.0000      -0.501569       -13.6484
  50   2.0000      -0.483271       -13.1505
  51   2.0000      -0.476612       -12.9693
  52   2.0000      -0.464112       -12.6291
  53   2.0000      -0.460552       -12.5323
  54   2.0000      -0.459625       -12.5070
  55   2.0000      -0.452779       -12.3208
  56   2.0000      -0.445403       -12.1200
  57   2.0000      -0.437964       -11.9176
  58   2.0000      -0.434413       -11.8210
  59   2.0000      -0.425145       -11.5688
  60   2.0000      -0.423541       -11.5251
  61   2.0000      -0.412992       -11.2381
  62   2.0000      -0.408695       -11.1212
  63   2.0000      -0.338704        -9.2166
  64   2.0000      -0.329752        -8.9730
  65   2.0000      -0.313957        -8.5432
  66   2.0000      -0.302651        -8.2356
  67   0.0000       0.035260         0.9595
  68   0.0000       0.049920         1.3584
  69   0.0000       0.100238         2.7276
  70   0.0000       0.115930         3.1546
  71   0.0000       0.122073         3.3218

MULLIKEN ATOMIC CHARGES
-----------------------
   0 S :    0.112540
   1 C :   -0.146017
   2 C :   -0.063720
   3 C :    0.035443
   4 C :   -0.155430
   5 H :    0.019886
   6 C :    0.102728
   7 H :    0.011466
   8 H :    0.032526
   9 C :   -0.145950
  10 H :    0.043728
  11 H :    0.035023
  12 C :   -0.020213
  13 H :    0.051455
  14 H :    0.010488
  15 H :    0.034257
  16 S :    0.091045
  17 C :   -0.087962
  18 C :   -0.017288
  19 C :   -0.046109
  20 C :   -0.173156
  21 H :    0.019141
  22 C :    0.067566
  23 H :    0.023476
  24 H :    0.035265
  25 C :   -0.092350
  26 H :    0.034067
  27 H :    0.026509
  28 C :   -0.037279
  29 H :    0.042440
  30 H :    0.026877
  31 H :    0.030542
  32 H :    0.059802
  33 H :    0.039203
Sum of atomic charges:    0.0000000

LOEWDIN ATOMIC CHARGES
----------------------
   0 S :    0.380738
   1 C :   -0.197600
   2 C :   -0.065341
   3 C :   -0.046845
   4 C :   -0.187971
   5 H :    0.035936
   6 C :   -0.025534
   7 H :    0.025965
   8 H :    0.029957
   9 C :   -0.041942
  10 H :    0.027964
  11 H :    0.024060
  12 C :   -0.069648
  13 H :    0.037873
  14 H :    0.010358
  15 H :    0.032238
  16 S :    0.375037
  17 C :   -0.153337
  18 C :   -0.067634
  19 C :   -0.055015
  20 C :   -0.194975
  21 H :    0.029743
  22 C :   -0.042135
  23 H :    0.034518
  24 H :    0.036267
  25 C :   -0.045044
  26 H :    0.024632
  27 H :    0.027096
  28 C :   -0.066873
  29 H :    0.028164
  30 H :    0.026386
  31 H :    0.025558
  32 H :    0.033916
  33 H :    0.013486

  Mayer bond orders larger than 0.100000
B(  0-S ,  1-C ) :   1.1273 B(  0-S ,  4-C ) :   1.1327 B(  1-C ,  2-C ) :   1.6266
B(  1-C , 32-H ) :   0.9581 B(  2-C ,  3-C ) :   1.2186 B(  2-C ,  6-C ) :   1.0245
B(  3-C ,  4-C ) :   1.5949 B(  3-C ,  5-H ) :   0.9989 B(  4-C , 20-C ) :   1.0096
B(  6-C ,  7-H ) :   0.9490 B(  6-C ,  8-H ) :   0.9301 B(  6-C ,  9-C ) :   1.0523
B(  9-C , 10-H ) :   0.9607 B(  9-C , 11-H ) :   0.9557 B(  9-C , 12-C ) :   1.0810
B( 12-C , 13-H ) :   0.9716 B( 12-C , 14-H ) :   0.9710 B( 12-C , 15-H ) :   0.9713
B( 16-S , 17-C ) :   1.1545 B( 16-S , 20-C ) :   1.1422 B( 17-C , 18-C ) :   1.6132
B( 17-C , 20-C ) :   0.1040 B( 17-C , 33-H ) :   0.9747 B( 18-C , 19-C ) :   1.2275
B( 18-C , 21-H ) :   0.9937 B( 19-C , 20-C ) :   1.5895 B( 19-C , 22-C ) :   1.0608
B( 22-C , 23-H ) :   0.9352 B( 22-C , 24-H ) :   0.9276 B( 22-C , 25-C ) :   1.0299
B( 25-C , 26-H ) :   0.9507 B( 25-C , 27-H ) :   0.9605 B( 25-C , 28-C ) :   1.0821
B( 28-C , 29-H ) :   0.9765 B( 28-C , 30-H ) :   0.9723 B( 28-C , 31-H ) :   0.9754

Dispersion correction           -0.014571235
FINAL SINGLE POINT ENERGY     -1339.861766866104

DIPOLE MOMENT
-------------
                                X             Y             Z
Electronic contribution:     23.21757      -9.37048      11.21634
Nuclear contribution   :    -23.79464       9.63931     -11.77638
                        -----------------------------------------
Total Dipole Moment    :     -0.57707       0.26883      -0.56004
                        -----------------------------------------
Magnitude (a.u.)       :      0.84789
Magnitude (Debye)      :      2.15517

Rotational constants in cm-1:     0.017368     0.008402     0.006887
Rotational constants in MHz :   520.673780   251.884443   206.469597

                             ****ORCA TERMINATED NORMALLY****
TOTAL RUN TIME: 0 days 0 hours 0 minutes 30 seconds 451 msec
