                         Program Version 4.2.1 -  RELEASE  -
|  1> ! wB97X-D3 SP def2-SVP
|  2> %pal
|  3> nprocs 16
|  4> end
|  5>
|  6> * xyz 0 1
|  7> S 	 -44.0679 	 54.6271 	 107.233
|  8> C 	 -42.4844 	 54.6135 	 106.636
|  9> C 	 -41.5702 	 54.5706 	 107.669
| 10> C 	 -42.1983 	 54.555 	 108.943
| 11> C 	 -43.5792 	 54.7015 	 108.84
| 12> H 	 -41.6605 	 54.4425 	 109.904
| 13> C 	 -40.1907 	 54.1514 	 107.439
| 14> H 	 -39.6702 	 54.568 	 106.567
| 15> H 	 -40.1943 	 53.0771 	 107.241
| 16> C 	 -39.0936 	 54.3455 	 108.508
| 17> H 	 -39.3213 	 53.8756 	 109.428
| 18> H 	 -38.123 	 53.9122 	 108.073
| 19> C 	 -38.7385 	 55.8604 	 108.709
| 20> H 	 -38.2682 	 56.2354 	 107.742
| 21> H 	 -39.6679 	 56.4461 	 108.83
| 22> H 	 -38.0989 	 55.9498 	 109.543
| 23> S 	 -45.0948 	 53.5877 	 110.664
| 24> C 	 -45.8056 	 54.4303 	 111.908
| 25> C 	 -45.5285 	 55.7718 	 111.827
| 26> C 	 -44.7218 	 56.1044 	 110.708
| 27> C 	 -44.5213 	 55.017 	 109.891
| 28> H 	 -45.9388 	 56.4735 	 112.443
| 29> C 	 -44.2646 	 57.4925 	 110.346
| 30> H 	 -43.2367 	 57.4522 	 110.616
| 31> H 	 -44.5674 	 58.1748 	 111.164
| 32> C 	 -44.7272 	 58.1203 	 108.977
| 33> H 	 -44.4424 	 57.5494 	 108.187
| 34> H 	 -44.3387 	 59.0978 	 108.828
| 35> C 	 -46.2606 	 58.1724 	 108.813
| 36> H 	 -46.4217 	 58.558 	 107.771
| 37> H 	 -46.8257 	 58.7311 	 109.603
| 38> H 	 -46.6141 	 57.1417 	 108.745
| 39> H 	 -42.216 	 54.5851 	 105.605
| 40> H 	 -46.3098 	 53.919 	 112.706
| 41> *
| 42>
| 43>                          ****END OF INPUT****

CARTESIAN COORDINATES (ANGSTROEM)
---------------------------------
  S    -44.067900   54.627100  107.233000
  C    -42.484400   54.613500  106.636000
  C    -41.570200   54.570600  107.669000
  C    -42.198300   54.555000  108.943000
  C    -43.579200   54.701500  108.840000
  H    -41.660500   54.442500  109.904000
  C    -40.190700   54.151400  107.439000
  H    -39.670200   54.568000  106.567000
  H    -40.194300   53.077100  107.241000
  C    -39.093600   54.345500  108.508000
  H    -39.321300   53.875600  109.428000
  H    -38.123000   53.912200  108.073000
  C    -38.738500   55.860400  108.709000
  H    -38.268200   56.235400  107.742000
  H    -39.667900   56.446100  108.830000
  H    -38.098900   55.949800  109.543000
  S    -45.094800   53.587700  110.664000
  C    -45.805600   54.430300  111.908000
  C    -45.528500   55.771800  111.827000
  C    -44.721800   56.104400  110.708000
  C    -44.521300   55.017000  109.891000
  H    -45.938800   56.473500  112.443000
  C    -44.264600   57.492500  110.346000
  H    -43.236700   57.452200  110.616000
  H    -44.567400   58.174800  111.164000
  C    -44.727200   58.120300  108.977000
  H    -44.442400   57.549400  108.187000
  H    -44.338700   59.097800  108.828000
  C    -46.260600   58.172400  108.813000
  H    -46.421700   58.558000  107.771000
  H    -46.825700   58.731100  109.603000
  H    -46.614100   57.141700  108.745000
  H    -42.216000   54.585100  105.605000
  H    -46.309800   53.919000  112.706000

 Total Charge           Charge          ....    0
 Multiplicity           Mult            ....    1
 Number of Electrons    NEL             ....  134
 Basis Dimension        Dim             ....  322

ORBITAL ENERGIES
----------------

  NO   OCC          E(Eh)            E(eV)
   0   2.0000     -88.966823     -2420.9103
   1   2.0000     -88.958469     -2420.6830
   2   2.0000     -10.321143      -280.8526
   3   2.0000     -10.313255      -280.6379
   4   2.0000     -10.308245      -280.5016
   5   2.0000     -10.305210      -280.4190
   6   2.0000     -10.299216      -280.2559
   7   2.0000     -10.295377      -280.1514
   8   2.0000     -10.294791      -280.1355
   9   2.0000     -10.289495      -279.9914
  10   2.0000     -10.288240      -279.9572
  11   2.0000     -10.286908      -279.9210
  12   2.0000     -10.282375      -279.7976
  13   2.0000     -10.279269      -279.7131
  14   2.0000     -10.277261      -279.6585
  15   2.0000     -10.276862      -279.6476
  16   2.0000      -8.083379      -219.9599
  17   2.0000      -8.075915      -219.7568
  18   2.0000      -6.041534      -164.3985
  19   2.0000      -6.037414      -164.2864
  20   2.0000      -6.034618      -164.2103
  21   2.0000      -6.034043      -164.1946
  22   2.0000      -6.029827      -164.0799
  23   2.0000      -6.027122      -164.0063
  24   2.0000      -1.022183       -27.8150
  25   2.0000      -1.000088       -27.2138
  26   2.0000      -0.915221       -24.9044
  27   2.0000      -0.905701       -24.6454
  28   2.0000      -0.873090       -23.7580
  29   2.0000      -0.852895       -23.2085
  30   2.0000      -0.848273       -23.0827
  31   2.0000      -0.814843       -22.1730
  32   2.0000      -0.784084       -21.3360
  33   2.0000      -0.772442       -21.0192
  34   2.0000      -0.709714       -19.3123
  35   2.0000      -0.697402       -18.9773
  36   2.0000      -0.685740       -18.6599
  37   2.0000      -0.669874       -18.2282
  38   2.0000      -0.641630       -17.4596
  39   2.0000      -0.626736       -17.0544
  40   2.0000      -0.596954       -16.2439
  41   2.0000      -0.574282       -15.6270
  42   2.0000      -0.556801       -15.1513
  43   2.0000      -0.552221       -15.0267
  44   2.0000      -0.549313       -14.9476
  45   2.0000      -0.534409       -14.5420
  46   2.0000      -0.516605       -14.0575
  47   2.0000      -0.510953       -13.9037
  48   2.0000      -0.503669       -13.7055
  49   2.0000      -0.498021       -13.5519
  50   2.0000      -0.492369       -13.3980
  51   2.0000      -0.480015       -13.0619
  52   2.0000      -0.477331       -12.9888
  53   2.0000      -0.466552       -12.6955
  54   2.0000      -0.458035       -12.4638
  55   2.0000      -0.444906       -12.1065
  56   2.0000      -0.441627       -12.0173
  57   2.0000      -0.432288       -11.7632
  58   2.0000      -0.430266       -11.7081
  59   2.0000      -0.421706       -11.4752
  60   2.0000      -0.417716       -11.3666
  61   2.0000      -0.417150       -11.3512
  62   2.0000      -0.413520       -11.2524
  63   2.0000      -0.336065        -9.1448
  64   2.0000      -0.327776        -8.9192
  65   2.0000      -0.319941        -8.7060
  66   2.0000      -0.309471        -8.4211
  67   0.0000       0.050387         1.3711
  68   0.0000       0.055847         1.5197
  69   0.0000       0.117669         3.2019
  70   0.0000       0.128944         3.5088
  71   0.0000       0.137417         3.7393

MULLIKEN ATOMIC CHARGES
-----------------------
   0 S :    0.140632
   1 C :   -0.108325
   2 C :   -0.056654
   3 C :    0.039813
   4 C :   -0.185951
   5 H :    0.025359
   6 C :    0.018592
   7 H :    0.017007
   8 H :    0.046517
   9 C :   -0.104383
  10 H :    0.025895
  11 H :    0.038221
  12 C :   -0.061619
  13 H :    0.033845
  14 H :    0.039089
  15 H :    0.035554
  16 S :    0.115226
  17 C :   -0.070353
  18 C :   -0.003926
  19 C :   -0.067962
  20 C :   -0.181215
  21 H :   -0.024193
  22 C :    0.111304
  23 H :    0.020755
  24 H :   -0.000982
  25 C :    0.014045
  26 H :    0.005272
  27 H :    0.022796
  28 C :   -0.091914
  29 H :    0.036563
  30 H :    0.043792
  31 H :    0.037199
  32 H :    0.036380
  33 H :    0.053622
Sum of atomic charges:   -0.0000000

LOEWDIN ATOMIC CHARGES
----------------------
   0 S :    0.473727
   1 C :   -0.211134
   2 C :   -0.073191
   3 C :   -0.062138
   4 C :   -0.233414
   5 H :    0.037549
   6 C :   -0.043140
   7 H :    0.031875
   8 H :    0.038994
   9 C :   -0.041230
  10 H :    0.010044
  11 H :    0.034592
  12 C :   -0.067040
  13 H :    0.030503
  14 H :    0.025358
  15 H :    0.018084
  16 S :    0.461889
  17 C :   -0.202195
  18 C :   -0.069638
  19 C :   -0.047544
  20 C :   -0.226060
  21 H :    0.014236
  22 C :   -0.036122
  23 H :    0.032788
  24 H :    0.030439
  25 C :   -0.022589
  26 H :    0.007477
  27 H :    0.021724
  28 C :   -0.067705
  29 H :    0.032669
  30 H :    0.025738
  31 H :    0.024867
  32 H :    0.023959
  33 H :    0.026628

  Mayer bond orders larger than 0.100000
B(  0-S ,  1-C ) :   1.1711 B(  0-S ,  4-C ) :   1.2075 B(  1-C ,  2-C ) :   1.5544
B(  1-C ,  4-C ) :   0.1033 B(  1-C , 32-H ) :   0.9811 B(  2-C ,  3-C ) :   1.2764
B(  2-C ,  6-C ) :   1.0346 B(  3-C ,  4-C ) :   1.5289 B(  3-C ,  5-H ) :   0.9957
B(  4-C , 20-C ) :   0.9678 B(  6-C ,  7-H ) :   0.9401 B(  6-C ,  8-H ) :   0.9355
B(  6-C ,  9-C ) :   1.0827 B(  9-C , 10-H ) :   0.9539 B(  9-C , 11-H ) :   0.9580
B(  9-C , 12-C ) :   1.0674 B( 12-C , 13-H ) :   0.9747 B( 12-C , 14-H ) :   0.9788
B( 12-C , 15-H ) :   0.9778 B( 16-S , 17-C ) :   1.2114 B( 16-S , 20-C ) :   1.1741
B( 17-C , 18-C ) :   1.5360 B( 17-C , 33-H ) :   0.9713 B( 18-C , 19-C ) :   1.2788
B( 18-C , 21-H ) :   1.0113 B( 19-C , 20-C ) :   1.5815 B( 19-C , 22-C ) :   1.0339
B( 22-C , 23-H ) :   0.9185 B( 22-C , 24-H ) :   0.9270 B( 22-C , 25-C ) :   1.0536
B( 25-C , 26-H ) :   0.9546 B( 25-C , 27-H ) :   0.9578 B( 25-C , 28-C ) :   1.0753
B( 28-C , 29-H ) :   0.9728 B( 28-C , 30-H ) :   0.9782 B( 28-C , 31-H ) :   0.9734

Dispersion correction           -0.015434673
FINAL SINGLE POINT ENERGY     -1339.862756976445

DIPOLE MOMENT
-------------
                                X             Y             Z
Electronic contribution:    -14.89604     -14.95071       1.61267
Nuclear contribution   :     15.30252      15.08932      -1.50247
                        -----------------------------------------
Total Dipole Moment    :      0.40648       0.13861       0.11020
                        -----------------------------------------
Magnitude (a.u.)       :      0.44338
Magnitude (Debye)      :      1.12698

Rotational constants in cm-1:     0.019514     0.008849     0.008289
Rotational constants in MHz :   585.024895   265.297465   248.484322

                             ****ORCA TERMINATED NORMALLY****
TOTAL RUN TIME: 0 days 0 hours 0 minutes 31 seconds 480 msec
