                         Program Version 4.2.1 -  RELEASE  -
|  1> ! wB97X-D3 SP def2-SVP
|  2> %pal
|  3> nprocs 16
|  4> end
|  5>
|  6> * xyz 0 1
|  7> S 	 -2.6358 	 -24.2596 	 59.464
|  8> C 	 -3.03706 	 -23.4887 	 57.9018
|  9> C 	 -2.71135 	 -22.1556 	 57.9269
| 10> C 	 -1.88914 	 -21.8387 	 59.0287
| 11> C 	 -1.78165 	 -22.8566 	 59.9525
| 12> H 	 -1.44681 	 -20.8969 	 59.2544
| 13> C 	 -3.14737 	 -21.2476 	 56.8671
| 14> H 	 -3.33846 	 -21.8375 	 55.9499
| 15> H 	 -2.32547 	 -20.5055 	 56.7192
| 16> C 	 -4.43359 	 -20.3918 	 57.0153
| 17> H 	 -4.67719 	 -19.8149 	 56.1176
| 18> H 	 -5.29242 	 -21.0241 	 57.0971
| 19> C 	 -4.33552 	 -19.4556 	 58.2832
| 20> H 	 -5.24114 	 -18.7714 	 58.3215
| 21> H 	 -4.28642 	 -20.0576 	 59.1528
| 22> H 	 -3.39242 	 -18.8926 	 58.2562
| 23> S 	 -1.91265 	 -23.0564 	 62.7239
| 24> C 	 -0.377045 	 -23.105 	 63.5961
| 25> C 	 0.630329 	 -22.6436 	 62.7669
| 26> C 	 0.268062 	 -22.4708 	 61.4135
| 27> C 	 -1.10576 	 -22.6925 	 61.207
| 28> H 	 1.58538 	 -22.6162 	 63.2581
| 29> C 	 1.2699 	 -22.1144 	 60.2574
| 30> H 	 0.748588 	 -21.7596 	 59.3731
| 31> H 	 1.84636 	 -23.0319 	 59.9591
| 32> C 	 2.23066 	 -20.9399 	 60.6243
| 33> H 	 2.94016 	 -20.7397 	 59.7851
| 34> H 	 2.87911 	 -21.2667 	 61.4868
| 35> C 	 1.41618 	 -19.7485 	 61.1525
| 36> H 	 2.14546 	 -19.2411 	 61.7025
| 37> H 	 0.678676 	 -19.9762 	 61.9258
| 38> H 	 1.08103 	 -19.0459 	 60.4296
| 39> H 	 -3.58868 	 -23.8735 	 57.0778
| 40> H 	 -0.180014 	 -23.2633 	 64.6631
| 41> *
| 42>
| 43>                          ****END OF INPUT****

CARTESIAN COORDINATES (ANGSTROEM)
---------------------------------
  S     -2.635800  -24.259600   59.464000
  C     -3.037060  -23.488700   57.901800
  C     -2.711350  -22.155600   57.926900
  C     -1.889140  -21.838700   59.028700
  C     -1.781650  -22.856600   59.952500
  H     -1.446810  -20.896900   59.254400
  C     -3.147370  -21.247600   56.867100
  H     -3.338460  -21.837500   55.949900
  H     -2.325470  -20.505500   56.719200
  C     -4.433590  -20.391800   57.015300
  H     -4.677190  -19.814900   56.117600
  H     -5.292420  -21.024100   57.097100
  C     -4.335520  -19.455600   58.283200
  H     -5.241140  -18.771400   58.321500
  H     -4.286420  -20.057600   59.152800
  H     -3.392420  -18.892600   58.256200
  S     -1.912650  -23.056400   62.723900
  C     -0.377045  -23.105000   63.596100
  C      0.630329  -22.643600   62.766900
  C      0.268062  -22.470800   61.413500
  C     -1.105760  -22.692500   61.207000
  H      1.585380  -22.616200   63.258100
  C      1.269900  -22.114400   60.257400
  H      0.748588  -21.759600   59.373100
  H      1.846360  -23.031900   59.959100
  C      2.230660  -20.939900   60.624300
  H      2.940160  -20.739700   59.785100
  H      2.879110  -21.266700   61.486800
  C      1.416180  -19.748500   61.152500
  H      2.145460  -19.241100   61.702500
  H      0.678676  -19.976200   61.925800
  H      1.081030  -19.045900   60.429600
  H     -3.588680  -23.873500   57.077800
  H     -0.180014  -23.263300   64.663100

 Total Charge           Charge          ....    0
 Multiplicity           Mult            ....    1
 Number of Electrons    NEL             ....  134
 Basis Dimension        Dim             ....  322

ORBITAL ENERGIES
----------------

  NO   OCC          E(Eh)            E(eV)
   0   2.0000     -88.969832     -2420.9922
   1   2.0000     -88.967849     -2420.9382
   2   2.0000     -10.326226      -280.9909
   3   2.0000     -10.324266      -280.9376
   4   2.0000     -10.319679      -280.8127
   5   2.0000     -10.310688      -280.5681
   6   2.0000     -10.307930      -280.4930
   7   2.0000     -10.295703      -280.1603
   8   2.0000     -10.294833      -280.1366
   9   2.0000     -10.294574      -280.1296
  10   2.0000     -10.293484      -280.1000
  11   2.0000     -10.292716      -280.0790
  12   2.0000     -10.288393      -279.9614
  13   2.0000     -10.288075      -279.9528
  14   2.0000     -10.279733      -279.7258
  15   2.0000     -10.266638      -279.3694
  16   2.0000      -8.084238      -219.9833
  17   2.0000      -8.081955      -219.9212
  18   2.0000      -6.042744      -164.4314
  19   2.0000      -6.040509      -164.3706
  20   2.0000      -6.038840      -164.3252
  21   2.0000      -6.036517      -164.2620
  22   2.0000      -6.034959      -164.2196
  23   2.0000      -6.032739      -164.1592
  24   2.0000      -1.010068       -27.4853
  25   2.0000      -0.984733       -26.7959
  26   2.0000      -0.913785       -24.8654
  27   2.0000      -0.902291       -24.5526
  28   2.0000      -0.870159       -23.6782
  29   2.0000      -0.848081       -23.0774
  30   2.0000      -0.841835       -22.9075
  31   2.0000      -0.816046       -22.2057
  32   2.0000      -0.783665       -21.3246
  33   2.0000      -0.772147       -21.0112
  34   2.0000      -0.710344       -19.3294
  35   2.0000      -0.707166       -19.2430
  36   2.0000      -0.690966       -18.8021
  37   2.0000      -0.651180       -17.7195
  38   2.0000      -0.639669       -17.4063
  39   2.0000      -0.616826       -16.7847
  40   2.0000      -0.591653       -16.0997
  41   2.0000      -0.574557       -15.6345
  42   2.0000      -0.551481       -15.0066
  43   2.0000      -0.545575       -14.8459
  44   2.0000      -0.543147       -14.7798
  45   2.0000      -0.538547       -14.6546
  46   2.0000      -0.519952       -14.1486
  47   2.0000      -0.507889       -13.8204
  48   2.0000      -0.504725       -13.7343
  49   2.0000      -0.498537       -13.5659
  50   2.0000      -0.488602       -13.2955
  51   2.0000      -0.478009       -13.0073
  52   2.0000      -0.471244       -12.8232
  53   2.0000      -0.465825       -12.6757
  54   2.0000      -0.462286       -12.5795
  55   2.0000      -0.446892       -12.1605
  56   2.0000      -0.443487       -12.0679
  57   2.0000      -0.440859       -11.9964
  58   2.0000      -0.427057       -11.6208
  59   2.0000      -0.422350       -11.4927
  60   2.0000      -0.419547       -11.4164
  61   2.0000      -0.414658       -11.2834
  62   2.0000      -0.409762       -11.1502
  63   2.0000      -0.342401        -9.3172
  64   2.0000      -0.334367        -9.0986
  65   2.0000      -0.330498        -8.9933
  66   2.0000      -0.290776        -7.9124
  67   0.0000       0.028751         0.7823
  68   0.0000       0.064874         1.7653
  69   0.0000       0.115133         3.1329
  70   0.0000       0.118495         3.2244
  71   0.0000       0.121292         3.3005

MULLIKEN ATOMIC CHARGES
-----------------------
   0 S :    0.131151
   1 C :   -0.111930
   2 C :   -0.055794
   3 C :    0.027258
   4 C :   -0.141453
   5 H :    0.000390
   6 C :    0.028385
   7 H :    0.026506
   8 H :    0.029767
   9 C :   -0.046388
  10 H :    0.031911
  11 H :    0.014878
  12 C :   -0.076785
  13 H :    0.047879
  14 H :    0.041393
  15 H :    0.027949
  16 S :    0.111131
  17 C :   -0.112854
  18 C :   -0.047444
  19 C :   -0.041179
  20 C :   -0.179214
  21 H :    0.017524
  22 C :    0.094890
  23 H :    0.021850
  24 H :    0.047985
  25 C :   -0.129669
  26 H :    0.044529
  27 H :    0.031645
  28 C :   -0.020619
  29 H :    0.006850
  30 H :    0.054037
  31 H :    0.029981
  32 H :    0.030130
  33 H :    0.065311
Sum of atomic charges:    0.0000000

LOEWDIN ATOMIC CHARGES
----------------------
   0 S :    0.416023
   1 C :   -0.183699
   2 C :   -0.065750
   3 C :   -0.059050
   4 C :   -0.203148
   5 H :    0.025291
   6 C :   -0.037354
   7 H :    0.035293
   8 H :    0.033290
   9 C :   -0.035110
  10 H :    0.025274
  11 H :    0.016835
  12 C :   -0.067528
  13 H :    0.033788
  14 H :    0.020567
  15 H :    0.022404
  16 S :    0.396587
  17 C :   -0.186553
  18 C :   -0.076707
  19 C :   -0.051630
  20 C :   -0.200147
  21 H :    0.030753
  22 C :   -0.032113
  23 H :    0.026027
  24 H :    0.036422
  25 C :   -0.043559
  26 H :    0.031275
  27 H :    0.022790
  28 C :   -0.068584
  29 H :    0.022517
  30 H :    0.035149
  31 H :    0.020539
  32 H :    0.022800
  33 H :    0.037311

  Mayer bond orders larger than 0.100000
B(  0-S ,  1-C ) :   1.1236 B(  0-S ,  4-C ) :   1.1583 B(  1-C ,  2-C ) :   1.6098
B(  1-C , 32-H ) :   0.9689 B(  2-C ,  3-C ) :   1.2317 B(  2-C ,  6-C ) :   1.0397
B(  3-C ,  4-C ) :   1.5522 B(  3-C ,  5-H ) :   0.9988 B(  4-C , 20-C ) :   1.0596
B(  6-C ,  7-H ) :   0.9338 B(  6-C ,  8-H ) :   0.9399 B(  6-C ,  9-C ) :   1.0731
B(  9-C , 10-H ) :   0.9579 B(  9-C , 11-H ) :   0.9527 B(  9-C , 12-C ) :   1.0669
B( 12-C , 13-H ) :   0.9750 B( 12-C , 14-H ) :   0.9764 B( 12-C , 15-H ) :   0.9777
B( 16-S , 17-C ) :   1.1455 B( 16-S , 20-C ) :   1.1469 B( 17-C , 18-C ) :   1.6238
B( 17-C , 20-C ) :   0.1025 B( 17-C , 33-H ) :   0.9618 B( 18-C , 19-C ) :   1.2382
B( 18-C , 21-H ) :   0.9916 B( 19-C , 20-C ) :   1.5730 B( 19-C , 22-C ) :   1.0268
B( 22-C , 23-H ) :   0.9374 B( 22-C , 24-H ) :   0.9373 B( 22-C , 25-C ) :   1.0644
B( 25-C , 26-H ) :   0.9577 B( 25-C , 27-H ) :   0.9594 B( 25-C , 28-C ) :   1.0704
B( 28-C , 29-H ) :   0.9696 B( 28-C , 30-H ) :   0.9651 B( 28-C , 31-H ) :   0.9757

Dispersion correction           -0.015193508
FINAL SINGLE POINT ENERGY     -1339.869285934374

DIPOLE MOMENT
-------------
                                X             Y             Z
Electronic contribution:     -6.06848     -21.39054      11.19187
Nuclear contribution   :      6.36621      21.81323     -11.40074
                        -----------------------------------------
Total Dipole Moment    :      0.29772       0.42269      -0.20887
                        -----------------------------------------
Magnitude (a.u.)       :      0.55762
Magnitude (Debye)      :      1.41735

Rotational constants in cm-1:     0.019075     0.009026     0.007553
Rotational constants in MHz :   571.859248   270.604283   226.431697

                             ****ORCA TERMINATED NORMALLY****
TOTAL RUN TIME: 0 days 0 hours 0 minutes 34 seconds 549 msec
