                         Program Version 4.2.1 -  RELEASE  -
|  1> ! wB97X-D3 SP def2-SVP
|  2> %pal
|  3> nprocs 16
|  4> end
|  5>
|  6> * xyz 0 1
|  7> S 	 -59.538 	 36.6048 	 89.9418
|  8> C 	 -59.9035 	 34.798 	 89.9532
|  9> C 	 -58.8215 	 34.1231 	 90.5121
| 10> C 	 -57.8383 	 35.0447 	 91.02
| 11> C 	 -57.9869 	 36.3677 	 90.6593
| 12> H 	 -56.9046 	 34.7641 	 91.5367
| 13> C 	 -58.6491 	 32.6119 	 90.6078
| 14> H 	 -59.5732 	 32.1139 	 90.4539
| 15> H 	 -58.4679 	 32.4169 	 91.6724
| 16> C 	 -57.635 	 31.9296 	 89.6228
| 17> H 	 -56.7047 	 31.8059 	 90.1837
| 18> H 	 -57.9677 	 30.9045 	 89.2719
| 19> C 	 -57.3092 	 32.744 	 88.329
| 20> H 	 -56.8233 	 32.1249 	 87.6253
| 21> H 	 -58.1872 	 33.1254 	 87.8682
| 22> H 	 -56.7091 	 33.6846 	 88.5443
| 23> S 	 -57.422 	 38.7406 	 91.9825
| 24> C 	 -55.8091 	 39.4418 	 91.6103
| 25> C 	 -55.0153 	 38.6759 	 90.852
| 26> C 	 -55.7483 	 37.5148 	 90.4475
| 27> C 	 -57.0494 	 37.4532 	 90.8698
| 28> H 	 -54.0139 	 39.0429 	 90.6197
| 29> C 	 -54.9803 	 36.5309 	 89.5928
| 30> H 	 -54.063 	 37.0489 	 89.2624
| 31> H 	 -55.6327 	 36.3288 	 88.7433
| 32> C 	 -54.3957 	 35.2778 	 90.2306
| 33> H 	 -53.61 	 34.8225 	 89.5593
| 34> H 	 -55.1362 	 34.4972 	 90.3188
| 35> C 	 -53.7532 	 35.5232 	 91.6574
| 36> H 	 -54.4735 	 35.8432 	 92.3616
| 37> H 	 -52.949 	 36.2689 	 91.5764
| 38> H 	 -53.3199 	 34.581 	 92.0313
| 39> H 	 -60.6552 	 34.2785 	 89.4866
| 40> H 	 -55.445 	 40.2914 	 92.114
| 41> *
| 42>
| 43>                          ****END OF INPUT****

CARTESIAN COORDINATES (ANGSTROEM)
---------------------------------
  S    -59.538000   36.604800   89.941800
  C    -59.903500   34.798000   89.953200
  C    -58.821500   34.123100   90.512100
  C    -57.838300   35.044700   91.020000
  C    -57.986900   36.367700   90.659300
  H    -56.904600   34.764100   91.536700
  C    -58.649100   32.611900   90.607800
  H    -59.573200   32.113900   90.453900
  H    -58.467900   32.416900   91.672400
  C    -57.635000   31.929600   89.622800
  H    -56.704700   31.805900   90.183700
  H    -57.967700   30.904500   89.271900
  C    -57.309200   32.744000   88.329000
  H    -56.823300   32.124900   87.625300
  H    -58.187200   33.125400   87.868200
  H    -56.709100   33.684600   88.544300
  S    -57.422000   38.740600   91.982500
  C    -55.809100   39.441800   91.610300
  C    -55.015300   38.675900   90.852000
  C    -55.748300   37.514800   90.447500
  C    -57.049400   37.453200   90.869800
  H    -54.013900   39.042900   90.619700
  C    -54.980300   36.530900   89.592800
  H    -54.063000   37.048900   89.262400
  H    -55.632700   36.328800   88.743300
  C    -54.395700   35.277800   90.230600
  H    -53.610000   34.822500   89.559300
  H    -55.136200   34.497200   90.318800
  C    -53.753200   35.523200   91.657400
  H    -54.473500   35.843200   92.361600
  H    -52.949000   36.268900   91.576400
  H    -53.319900   34.581000   92.031300
  H    -60.655200   34.278500   89.486600
  H    -55.445000   40.291400   92.114000

 Total Charge           Charge          ....    0
 Multiplicity           Mult            ....    1
 Number of Electrons    NEL             ....  134
 Basis Dimension        Dim             ....  322

ORBITAL ENERGIES
----------------

  NO   OCC          E(Eh)            E(eV)
   0   2.0000     -88.966450     -2420.9002
   1   2.0000     -88.966127     -2420.8914
   2   2.0000     -10.328374      -281.0493
   3   2.0000     -10.324608      -280.9469
   4   2.0000     -10.316611      -280.7293
   5   2.0000     -10.314285      -280.6660
   6   2.0000     -10.306935      -280.4660
   7   2.0000     -10.302524      -280.3459
   8   2.0000     -10.297429      -280.2073
   9   2.0000     -10.294495      -280.1275
  10   2.0000     -10.294342      -280.1233
  11   2.0000     -10.293174      -280.0915
  12   2.0000     -10.290865      -280.0287
  13   2.0000     -10.289311      -279.9864
  14   2.0000     -10.279555      -279.7209
  15   2.0000     -10.275340      -279.6062
  16   2.0000      -8.080971      -219.8944
  17   2.0000      -8.079835      -219.8635
  18   2.0000      -6.039518      -164.3437
  19   2.0000      -6.038539      -164.3170
  20   2.0000      -6.035747      -164.2410
  21   2.0000      -6.034472      -164.2063
  22   2.0000      -6.031456      -164.1243
  23   2.0000      -6.030440      -164.0966
  24   2.0000      -1.008055       -27.4306
  25   2.0000      -0.981161       -26.6987
  26   2.0000      -0.907892       -24.7050
  27   2.0000      -0.905516       -24.6404
  28   2.0000      -0.871180       -23.7060
  29   2.0000      -0.844558       -22.9816
  30   2.0000      -0.839524       -22.8446
  31   2.0000      -0.816756       -22.2251
  32   2.0000      -0.787970       -21.4417
  33   2.0000      -0.776875       -21.1398
  34   2.0000      -0.714690       -19.4477
  35   2.0000      -0.699857       -19.0441
  36   2.0000      -0.690741       -18.7960
  37   2.0000      -0.665259       -18.1026
  38   2.0000      -0.640341       -17.4246
  39   2.0000      -0.614662       -16.7258
  40   2.0000      -0.585006       -15.9188
  41   2.0000      -0.569538       -15.4979
  42   2.0000      -0.562067       -15.2946
  43   2.0000      -0.551037       -14.9945
  44   2.0000      -0.548097       -14.9145
  45   2.0000      -0.545386       -14.8407
  46   2.0000      -0.515015       -14.0143
  47   2.0000      -0.508841       -13.8463
  48   2.0000      -0.501357       -13.6426
  49   2.0000      -0.492797       -13.4097
  50   2.0000      -0.487133       -13.2556
  51   2.0000      -0.476121       -12.9559
  52   2.0000      -0.469516       -12.7762
  53   2.0000      -0.467243       -12.7143
  54   2.0000      -0.458231       -12.4691
  55   2.0000      -0.449342       -12.2272
  56   2.0000      -0.444023       -12.0825
  57   2.0000      -0.440582       -11.9888
  58   2.0000      -0.438685       -11.9372
  59   2.0000      -0.418655       -11.3922
  60   2.0000      -0.415813       -11.3149
  61   2.0000      -0.413347       -11.2477
  62   2.0000      -0.408987       -11.1291
  63   2.0000      -0.347443        -9.4544
  64   2.0000      -0.332884        -9.0582
  65   2.0000      -0.325089        -8.8461
  66   2.0000      -0.302239        -8.2243
  67   0.0000       0.033123         0.9013
  68   0.0000       0.062164         1.6916
  69   0.0000       0.105278         2.8648
  70   0.0000       0.114666         3.1202
  71   0.0000       0.122977         3.3464

MULLIKEN ATOMIC CHARGES
-----------------------
   0 S :    0.099314
   1 C :   -0.068772
   2 C :   -0.138242
   3 C :    0.033921
   4 C :   -0.175223
   5 H :    0.019502
   6 C :    0.104022
   7 H :    0.005172
   8 H :    0.039699
   9 C :   -0.111803
  10 H :    0.034716
  11 H :    0.043621
  12 C :   -0.023572
  13 H :    0.029688
  14 H :    0.016269
  15 H :    0.039674
  16 S :    0.103493
  17 C :   -0.066302
  18 C :   -0.031533
  19 C :   -0.067836
  20 C :   -0.134834
  21 H :    0.031247
  22 C :    0.103579
  23 H :    0.016132
  24 H :    0.042884
  25 C :   -0.098852
  26 H :    0.036749
  27 H :    0.018410
  28 C :   -0.052742
  29 H :    0.041349
  30 H :    0.028987
  31 H :    0.035410
  32 H :    0.012012
  33 H :    0.033863
Sum of atomic charges:    0.0000000

LOEWDIN ATOMIC CHARGES
----------------------
   0 S :    0.381989
   1 C :   -0.162223
   2 C :   -0.054231
   3 C :   -0.068365
   4 C :   -0.199383
   5 H :    0.032372
   6 C :   -0.034419
   7 H :    0.025001
   8 H :    0.038113
   9 C :   -0.040969
  10 H :    0.022634
  11 H :    0.032329
  12 C :   -0.065156
  13 H :    0.020119
  14 H :    0.019225
  15 H :    0.033619
  16 S :    0.384944
  17 C :   -0.148570
  18 C :   -0.069767
  19 C :   -0.050386
  20 C :   -0.210126
  21 H :    0.041388
  22 C :   -0.034199
  23 H :    0.032717
  24 H :    0.035468
  25 C :   -0.041442
  26 H :    0.030610
  27 H :    0.010386
  28 C :   -0.062236
  29 H :    0.019357
  30 H :    0.023807
  31 H :    0.028898
  32 H :    0.011419
  33 H :    0.017079

  Mayer bond orders larger than 0.100000
B(  0-S ,  1-C ) :   1.1110 B(  0-S ,  4-C ) :   1.1447 B(  1-C ,  2-C ) :   1.6367
B(  1-C , 32-H ) :   0.9725 B(  2-C ,  3-C ) :   1.2061 B(  2-C ,  6-C ) :   1.0361
B(  3-C ,  4-C ) :   1.6065 B(  3-C ,  5-H ) :   0.9838 B(  4-C , 20-C ) :   1.0230
B(  6-C ,  7-H ) :   0.9347 B(  6-C ,  8-H ) :   0.9453 B(  6-C ,  9-C ) :   1.0367
B(  9-C , 10-H ) :   0.9578 B(  9-C , 11-H ) :   0.9636 B(  9-C , 12-C ) :   1.0954
B( 12-C , 13-H ) :   0.9744 B( 12-C , 14-H ) :   0.9699 B( 12-C , 15-H ) :   0.9634
B( 16-S , 17-C ) :   1.1356 B( 16-S , 20-C ) :   1.1214 B( 17-C , 18-C ) :   1.6691
B( 17-C , 33-H ) :   0.9647 B( 18-C , 19-C ) :   1.1949 B( 18-C , 21-H ) :   0.9897
B( 19-C , 20-C ) :   1.6412 B( 19-C , 22-C ) :   1.0401 B( 22-C , 23-H ) :   0.9331
B( 22-C , 24-H ) :   0.9296 B( 22-C , 25-C ) :   1.0687 B( 25-C , 26-H ) :   0.9564
B( 25-C , 27-H ) :   0.9503 B( 25-C , 28-C ) :   1.0771 B( 28-C , 29-H ) :   0.9703
B( 28-C , 30-H ) :   0.9767 B( 28-C , 31-H ) :   0.9751

Dispersion correction           -0.017226644
FINAL SINGLE POINT ENERGY     -1339.868495521268

DIPOLE MOMENT
-------------
                                X             Y             Z
Electronic contribution:    -16.71183      22.92577       6.12018
Nuclear contribution   :     17.33001     -23.43076      -6.20505
                        -----------------------------------------
Total Dipole Moment    :      0.61819      -0.50498      -0.08487
                        -----------------------------------------
Magnitude (a.u.)       :      0.80272
Magnitude (Debye)      :      2.04036

Rotational constants in cm-1:     0.019694     0.010640     0.007778
Rotational constants in MHz :   590.420626   318.987702   233.184187

                             ****ORCA TERMINATED NORMALLY****
TOTAL RUN TIME: 0 days 0 hours 0 minutes 34 seconds 73 msec
