                         Program Version 4.2.1 -  RELEASE  -
|  1> ! wB97X-D3 SP def2-SVP
|  2> %pal
|  3> nprocs 16
|  4> end
|  5>
|  6> * xyz 0 1
|  7> S 	 18.6841 	 3.98417 	 73.023
|  8> C 	 19.4032 	 3.0893 	 71.688
|  9> C 	 20.7051 	 3.45832 	 71.3676
| 10> C 	 21.1291 	 4.43557 	 72.3245
| 11> C 	 20.2123 	 4.77813 	 73.2645
| 12> H 	 22.1065 	 4.93248 	 72.3266
| 13> C 	 21.5689 	 3.02619 	 70.2399
| 14> H 	 22.1655 	 3.87404 	 69.9021
| 15> H 	 20.9165 	 2.72028 	 69.3798
| 16> C 	 22.4501 	 1.781 	 70.5358
| 17> H 	 22.6102 	 1.22786 	 69.5996
| 18> H 	 23.3629 	 2.17698 	 70.92
| 19> C 	 21.784 	 0.711866 	 71.3871
| 20> H 	 22.2432 	 -0.311945 	 71.281
| 21> H 	 21.6874 	 1.01739 	 72.3898
| 22> H 	 20.7715 	 0.51273 	 71.1349
| 23> S 	 20.168 	 5.25691 	 75.9324
| 24> C 	 20.3953 	 6.86757 	 76.6163
| 25> C 	 20.6549 	 7.75755 	 75.5988
| 26> C 	 20.6414 	 7.22972 	 74.2526
| 27> C 	 20.3254 	 5.84966 	 74.3087
| 28> H 	 20.7771 	 8.77606 	 75.8465
| 29> C 	 20.8792 	 8.06318 	 73.0171
| 30> H 	 21.9103 	 7.82995 	 72.6855
| 31> H 	 20.7641 	 9.08677 	 73.3452
| 32> C 	 19.9255 	 7.85128 	 71.7765
| 33> H 	 20.1958 	 6.87888 	 71.3179
| 34> H 	 20.1383 	 8.62298 	 70.964
| 35> C 	 18.466 	 7.91146 	 72.1914
| 36> H 	 18.1356 	 8.89782 	 72.5761
| 37> H 	 18.2236 	 7.09875 	 72.8059
| 38> H 	 17.8117 	 7.73395 	 71.3308
| 39> H 	 18.8165 	 2.38078 	 71.1504
| 40> H 	 20.5188 	 7.1528 	 77.6818
| 41> *
| 42>
| 43>                          ****END OF INPUT****

CARTESIAN COORDINATES (ANGSTROEM)
---------------------------------
  S     18.684100    3.984170   73.023000
  C     19.403200    3.089300   71.688000
  C     20.705100    3.458320   71.367600
  C     21.129100    4.435570   72.324500
  C     20.212300    4.778130   73.264500
  H     22.106500    4.932480   72.326600
  C     21.568900    3.026190   70.239900
  H     22.165500    3.874040   69.902100
  H     20.916500    2.720280   69.379800
  C     22.450100    1.781000   70.535800
  H     22.610200    1.227860   69.599600
  H     23.362900    2.176980   70.920000
  C     21.784000    0.711866   71.387100
  H     22.243200   -0.311945   71.281000
  H     21.687400    1.017390   72.389800
  H     20.771500    0.512730   71.134900
  S     20.168000    5.256910   75.932400
  C     20.395300    6.867570   76.616300
  C     20.654900    7.757550   75.598800
  C     20.641400    7.229720   74.252600
  C     20.325400    5.849660   74.308700
  H     20.777100    8.776060   75.846500
  C     20.879200    8.063180   73.017100
  H     21.910300    7.829950   72.685500
  H     20.764100    9.086770   73.345200
  C     19.925500    7.851280   71.776500
  H     20.195800    6.878880   71.317900
  H     20.138300    8.622980   70.964000
  C     18.466000    7.911460   72.191400
  H     18.135600    8.897820   72.576100
  H     18.223600    7.098750   72.805900
  H     17.811700    7.733950   71.330800
  H     18.816500    2.380780   71.150400
  H     20.518800    7.152800   77.681800

 Total Charge           Charge          ....    0
 Multiplicity           Mult            ....    1
 Number of Electrons    NEL             ....  134
 Basis Dimension        Dim             ....  322

ORBITAL ENERGIES
----------------

  NO   OCC          E(Eh)            E(eV)
   0   2.0000     -88.969187     -2420.9747
   1   2.0000     -88.964494     -2420.8470
   2   2.0000     -10.328296      -281.0472
   3   2.0000     -10.327688      -281.0307
   4   2.0000     -10.317747      -280.7602
   5   2.0000     -10.315215      -280.6913
   6   2.0000     -10.307563      -280.4830
   7   2.0000     -10.303484      -280.3721
   8   2.0000     -10.297010      -280.1959
   9   2.0000     -10.294427      -280.1256
  10   2.0000     -10.292853      -280.0828
  11   2.0000     -10.290810      -280.0272
  12   2.0000     -10.290656      -280.0230
  13   2.0000     -10.286630      -279.9134
  14   2.0000     -10.270998      -279.4881
  15   2.0000     -10.266693      -279.3709
  16   2.0000      -8.083778      -219.9708
  17   2.0000      -8.079071      -219.8427
  18   2.0000      -6.042174      -164.4159
  19   2.0000      -6.038391      -164.3130
  20   2.0000      -6.037630      -164.2923
  21   2.0000      -6.034573      -164.2091
  22   2.0000      -6.033464      -164.1789
  23   2.0000      -6.029928      -164.0827
  24   2.0000      -1.005840       -27.3703
  25   2.0000      -0.982476       -26.7345
  26   2.0000      -0.915528       -24.9128
  27   2.0000      -0.902166       -24.5492
  28   2.0000      -0.864322       -23.5194
  29   2.0000      -0.850299       -23.1378
  30   2.0000      -0.842956       -22.9380
  31   2.0000      -0.813555       -22.1380
  32   2.0000      -0.787141       -21.4192
  33   2.0000      -0.772111       -21.0102
  34   2.0000      -0.706447       -19.2234
  35   2.0000      -0.700657       -19.0658
  36   2.0000      -0.681901       -18.5555
  37   2.0000      -0.659523       -17.9465
  38   2.0000      -0.643469       -17.5097
  39   2.0000      -0.619402       -16.8548
  40   2.0000      -0.580633       -15.7998
  41   2.0000      -0.567873       -15.4526
  42   2.0000      -0.562438       -15.3047
  43   2.0000      -0.556368       -15.1395
  44   2.0000      -0.544950       -14.8289
  45   2.0000      -0.539700       -14.6860
  46   2.0000      -0.512483       -13.9454
  47   2.0000      -0.501746       -13.6532
  48   2.0000      -0.497633       -13.5413
  49   2.0000      -0.493639       -13.4326
  50   2.0000      -0.489090       -13.3088
  51   2.0000      -0.478407       -13.0181
  52   2.0000      -0.470421       -12.8008
  53   2.0000      -0.465351       -12.6629
  54   2.0000      -0.457593       -12.4517
  55   2.0000      -0.449334       -12.2270
  56   2.0000      -0.441928       -12.0255
  57   2.0000      -0.437203       -11.8969
  58   2.0000      -0.433172       -11.7872
  59   2.0000      -0.425685       -11.5835
  60   2.0000      -0.420443       -11.4408
  61   2.0000      -0.414310       -11.2739
  62   2.0000      -0.408642       -11.1197
  63   2.0000      -0.341609        -9.2956
  64   2.0000      -0.332307        -9.0425
  65   2.0000      -0.325505        -8.8574
  66   2.0000      -0.298270        -8.1163
  67   0.0000       0.036606         0.9961
  68   0.0000       0.063199         1.7197
  69   0.0000       0.104378         2.8403
  70   0.0000       0.117739         3.2038
  71   0.0000       0.134847         3.6694

MULLIKEN ATOMIC CHARGES
-----------------------
   0 S :    0.120327
   1 C :   -0.122491
   2 C :   -0.086951
   3 C :    0.020922
   4 C :   -0.152458
   5 H :    0.013283
   6 C :    0.064067
   7 H :    0.032788
   8 H :    0.028337
   9 C :   -0.057692
  10 H :    0.031545
  11 H :    0.029561
  12 C :   -0.035986
  13 H :    0.042461
  14 H :    0.034946
  15 H :    0.001685
  16 S :    0.108119
  17 C :   -0.094699
  18 C :   -0.045760
  19 C :   -0.025054
  20 C :   -0.195484
  21 H :    0.002984
  22 C :    0.080762
  23 H :    0.046064
  24 H :    0.018313
  25 C :   -0.100290
  26 H :    0.040893
  27 H :    0.038618
  28 C :   -0.020777
  29 H :    0.032639
  30 H :    0.021567
  31 H :    0.021975
  32 H :    0.035588
  33 H :    0.070195
Sum of atomic charges:    0.0000000

LOEWDIN ATOMIC CHARGES
----------------------
   0 S :    0.411281
   1 C :   -0.184143
   2 C :   -0.061987
   3 C :   -0.065339
   4 C :   -0.203797
   5 H :    0.033895
   6 C :   -0.034126
   7 H :    0.033528
   8 H :    0.036736
   9 C :   -0.034895
  10 H :    0.029371
  11 H :    0.019583
  12 C :   -0.067797
  13 H :    0.035116
  14 H :    0.021448
  15 H :    0.018794
  16 S :    0.411443
  17 C :   -0.195431
  18 C :   -0.068412
  19 C :   -0.056457
  20 C :   -0.207495
  21 H :    0.022827
  22 C :   -0.032571
  23 H :    0.037799
  24 H :    0.028325
  25 C :   -0.044203
  26 H :    0.026504
  27 H :    0.030343
  28 C :   -0.067118
  29 H :    0.027676
  30 H :    0.013985
  31 H :    0.028060
  32 H :    0.015742
  33 H :    0.041316

  Mayer bond orders larger than 0.100000
B(  0-S ,  1-C ) :   1.1447 B(  0-S ,  4-C ) :   1.1569 B(  1-C ,  2-C ) :   1.6058
B(  1-C , 32-H ) :   0.9692 B(  2-C ,  3-C ) :   1.2127 B(  2-C ,  6-C ) :   1.0401
B(  3-C ,  4-C ) :   1.6147 B(  3-C ,  5-H ) :   0.9970 B(  4-C , 20-C ) :   0.9847
B(  6-C ,  7-H ) :   0.9463 B(  6-C ,  8-H ) :   0.9324 B(  6-C ,  9-C ) :   1.0618
B(  9-C , 10-H ) :   0.9602 B(  9-C , 11-H ) :   0.9595 B(  9-C , 12-C ) :   1.0880
B( 12-C , 13-H ) :   0.9735 B( 12-C , 14-H ) :   0.9646 B( 12-C , 15-H ) :   0.9677
B( 16-S , 17-C ) :   1.1389 B( 16-S , 20-C ) :   1.1750 B( 17-C , 18-C ) :   1.6220
B( 17-C , 33-H ) :   0.9619 B( 18-C , 19-C ) :   1.2455 B( 18-C , 21-H ) :   0.9887
B( 19-C , 20-C ) :   1.5653 B( 19-C , 22-C ) :   1.0296 B( 22-C , 23-H ) :   0.9323
B( 22-C , 24-H ) :   0.9358 B( 22-C , 25-C ) :   1.0686 B( 25-C , 26-H ) :   0.9481
B( 25-C , 27-H ) :   0.9571 B( 25-C , 28-C ) :   1.0872 B( 28-C , 29-H ) :   0.9756
B( 28-C , 30-H ) :   0.9668 B( 28-C , 31-H ) :   0.9687

Dispersion correction           -0.016232347
FINAL SINGLE POINT ENERGY     -1339.885741898902

DIPOLE MOMENT
-------------
                                X             Y             Z
Electronic contribution:     -6.74274       0.23695      18.30675
Nuclear contribution   :      7.06369      -0.08203     -18.79613
                        -----------------------------------------
Total Dipole Moment    :      0.32096       0.15492      -0.48938
                        -----------------------------------------
Magnitude (a.u.)       :      0.60540
Magnitude (Debye)      :      1.53880

Rotational constants in cm-1:     0.021913     0.008800     0.007763
Rotational constants in MHz :   656.930665   263.809372   232.738722

                             ****ORCA TERMINATED NORMALLY****
TOTAL RUN TIME: 0 days 0 hours 0 minutes 36 seconds 412 msec
