                         Program Version 4.2.1 -  RELEASE  -
|  1> ! wB97X-D3 SP def2-SVP
|  2> %pal
|  3> nprocs 16
|  4> end
|  5>
|  6> * xyz 0 1
|  7> S 	 -32.6308 	 70.4492 	 145.992
|  8> C 	 -31.1128 	 69.8155 	 145.313
|  9> C 	 -30.7784 	 68.748 	 146.06
| 10> C 	 -31.6422 	 68.3819 	 147.066
| 11> C 	 -32.7591 	 69.1293 	 147.19
| 12> H 	 -31.485 	 67.4259 	 147.664
| 13> C 	 -29.5046 	 67.8735 	 145.874
| 14> H 	 -29.3057 	 67.1358 	 146.642
| 15> H 	 -28.7201 	 68.5781 	 145.912
| 16> C 	 -29.4289 	 67.14 	 144.488
| 17> H 	 -29.651 	 67.8384 	 143.696
| 18> H 	 -28.4233 	 66.6515 	 144.304
| 19> C 	 -30.4593 	 65.9606 	 144.394
| 20> H 	 -30.5466 	 65.5731 	 143.394
| 21> H 	 -30.1001 	 65.0474 	 144.947
| 22> H 	 -31.4038 	 66.1687 	 144.893
| 23> S 	 -35.1911 	 68.0208 	 147.146
| 24> C 	 -36.1069 	 68.0047 	 148.664
| 25> C 	 -35.3926 	 68.5764 	 149.678
| 26> C 	 -34.2318 	 69.2005 	 149.34
| 27> C 	 -33.8882 	 68.8667 	 148.024
| 28> H 	 -35.6793 	 68.4626 	 150.698
| 29> C 	 -33.371 	 69.8919 	 150.315
| 30> H 	 -33.7649 	 70.9421 	 150.271
| 31> H 	 -32.3502 	 69.8633 	 150.087
| 32> C 	 -33.4671 	 69.4998 	 151.808
| 33> H 	 -34.4751 	 69.5105 	 152.264
| 34> H 	 -32.8646 	 70.2128 	 152.366
| 35> C 	 -33.0515 	 68.0351 	 152.049
| 36> H 	 -33.3699 	 67.3283 	 151.29
| 37> H 	 -33.4922 	 67.757 	 153.016
| 38> H 	 -31.9727 	 67.9059 	 152.133
| 39> H 	 -30.5542 	 70.2736 	 144.583
| 40> H 	 -36.9355 	 67.3559 	 148.844
| 41> *
| 42>
| 43>                          ****END OF INPUT****

CARTESIAN COORDINATES (ANGSTROEM)
---------------------------------
  S    -32.630800   70.449200  145.992000
  C    -31.112800   69.815500  145.313000
  C    -30.778400   68.748000  146.060000
  C    -31.642200   68.381900  147.066000
  C    -32.759100   69.129300  147.190000
  H    -31.485000   67.425900  147.664000
  C    -29.504600   67.873500  145.874000
  H    -29.305700   67.135800  146.642000
  H    -28.720100   68.578100  145.912000
  C    -29.428900   67.140000  144.488000
  H    -29.651000   67.838400  143.696000
  H    -28.423300   66.651500  144.304000
  C    -30.459300   65.960600  144.394000
  H    -30.546600   65.573100  143.394000
  H    -30.100100   65.047400  144.947000
  H    -31.403800   66.168700  144.893000
  S    -35.191100   68.020800  147.146000
  C    -36.106900   68.004700  148.664000
  C    -35.392600   68.576400  149.678000
  C    -34.231800   69.200500  149.340000
  C    -33.888200   68.866700  148.024000
  H    -35.679300   68.462600  150.698000
  C    -33.371000   69.891900  150.315000
  H    -33.764900   70.942100  150.271000
  H    -32.350200   69.863300  150.087000
  C    -33.467100   69.499800  151.808000
  H    -34.475100   69.510500  152.264000
  H    -32.864600   70.212800  152.366000
  C    -33.051500   68.035100  152.049000
  H    -33.369900   67.328300  151.290000
  H    -33.492200   67.757000  153.016000
  H    -31.972700   67.905900  152.133000
  H    -30.554200   70.273600  144.583000
  H    -36.935500   67.355900  148.844000

 Total Charge           Charge          ....    0
 Multiplicity           Mult            ....    1
 Number of Electrons    NEL             ....  134
 Basis Dimension        Dim             ....  322

ORBITAL ENERGIES
----------------

  NO   OCC          E(Eh)            E(eV)
   0   2.0000     -88.966655     -2420.9058
   1   2.0000     -88.960775     -2420.7458
   2   2.0000     -10.325537      -280.9721
   3   2.0000     -10.324546      -280.9452
   4   2.0000     -10.313796      -280.6527
   5   2.0000     -10.309286      -280.5299
   6   2.0000     -10.299694      -280.2689
   7   2.0000     -10.292932      -280.0849
   8   2.0000     -10.292496      -280.0731
   9   2.0000     -10.292078      -280.0617
  10   2.0000     -10.290670      -280.0234
  11   2.0000     -10.289140      -279.9817
  12   2.0000     -10.288156      -279.9550
  13   2.0000     -10.283907      -279.8393
  14   2.0000     -10.277252      -279.6582
  15   2.0000     -10.274961      -279.5959
  16   2.0000      -8.080598      -219.8842
  17   2.0000      -8.074773      -219.7258
  18   2.0000      -6.039037      -164.3306
  19   2.0000      -6.035291      -164.2286
  20   2.0000      -6.033386      -164.1768
  21   2.0000      -6.031390      -164.1225
  22   2.0000      -6.029315      -164.0660
  23   2.0000      -6.025500      -163.9622
  24   2.0000      -1.010054       -27.4850
  25   2.0000      -0.989234       -26.9184
  26   2.0000      -0.915128       -24.9019
  27   2.0000      -0.901757       -24.5381
  28   2.0000      -0.871287       -23.7089
  29   2.0000      -0.853276       -23.2188
  30   2.0000      -0.840121       -22.8609
  31   2.0000      -0.815954       -22.2032
  32   2.0000      -0.786168       -21.3927
  33   2.0000      -0.772458       -21.0196
  34   2.0000      -0.714745       -19.4492
  35   2.0000      -0.701036       -19.0762
  36   2.0000      -0.694636       -18.9020
  37   2.0000      -0.664414       -18.0796
  38   2.0000      -0.642877       -17.4936
  39   2.0000      -0.615305       -16.7433
  40   2.0000      -0.606147       -16.4941
  41   2.0000      -0.572342       -15.5742
  42   2.0000      -0.560111       -15.2414
  43   2.0000      -0.548374       -14.9220
  44   2.0000      -0.538720       -14.6593
  45   2.0000      -0.536225       -14.5914
  46   2.0000      -0.528521       -14.3818
  47   2.0000      -0.512879       -13.9562
  48   2.0000      -0.499947       -13.6042
  49   2.0000      -0.495168       -13.4742
  50   2.0000      -0.489755       -13.3269
  51   2.0000      -0.477905       -13.0045
  52   2.0000      -0.475936       -12.9509
  53   2.0000      -0.466767       -12.7014
  54   2.0000      -0.459210       -12.4957
  55   2.0000      -0.449530       -12.2323
  56   2.0000      -0.436572       -11.8797
  57   2.0000      -0.430771       -11.7219
  58   2.0000      -0.424658       -11.5555
  59   2.0000      -0.424120       -11.5409
  60   2.0000      -0.423461       -11.5230
  61   2.0000      -0.421899       -11.4805
  62   2.0000      -0.406317       -11.0564
  63   2.0000      -0.340411        -9.2630
  64   2.0000      -0.330977        -9.0063
  65   2.0000      -0.320430        -8.7193
  66   2.0000      -0.306510        -8.3406
  67   0.0000       0.038794         1.0556
  68   0.0000       0.045877         1.2484
  69   0.0000       0.112006         3.0478
  70   0.0000       0.121695         3.3115
  71   0.0000       0.133651         3.6368

MULLIKEN ATOMIC CHARGES
-----------------------
   0 S :    0.094168
   1 C :   -0.106233
   2 C :   -0.061008
   3 C :    0.021027
   4 C :   -0.154575
   5 H :    0.033393
   6 C :    0.088638
   7 H :    0.020171
   8 H :    0.019434
   9 C :   -0.085034
  10 H :    0.029009
  11 H :    0.040727
  12 C :   -0.074040
  13 H :    0.033740
  14 H :    0.020016
  15 H :    0.040879
  16 S :    0.112116
  17 C :   -0.062262
  18 C :   -0.044536
  19 C :    0.003968
  20 C :   -0.227977
  21 H :    0.003429
  22 C :    0.112663
  23 H :    0.049239
  24 H :    0.023740
  25 C :   -0.103800
  26 H :    0.032265
  27 H :    0.036028
  28 C :   -0.067215
  29 H :    0.044813
  30 H :    0.031300
  31 H :    0.028930
  32 H :    0.017790
  33 H :    0.049197
Sum of atomic charges:   -0.0000000

LOEWDIN ATOMIC CHARGES
----------------------
   0 S :    0.375823
   1 C :   -0.168230
   2 C :   -0.070001
   3 C :   -0.073395
   4 C :   -0.194029
   5 H :    0.043878
   6 C :   -0.022243
   7 H :    0.026352
   8 H :    0.024266
   9 C :   -0.038254
  10 H :    0.017823
  11 H :    0.030236
  12 C :   -0.074766
  13 H :    0.023225
  14 H :    0.025925
  15 H :    0.024512
  16 S :    0.396328
  17 C :   -0.173010
  18 C :   -0.069426
  19 C :   -0.051699
  20 C :   -0.186880
  21 H :    0.027594
  22 C :   -0.026474
  23 H :    0.049677
  24 H :    0.026988
  25 C :   -0.042201
  26 H :    0.023605
  27 H :    0.028883
  28 C :   -0.070556
  29 H :    0.026402
  30 H :    0.027508
  31 H :    0.023113
  32 H :    0.014833
  33 H :    0.024194

  Mayer bond orders larger than 0.100000
B(  0-S ,  1-C ) :   1.1268 B(  0-S ,  4-C ) :   1.1333 B(  1-C ,  2-C ) :   1.6083
B(  1-C ,  4-C ) :   0.1027 B(  1-C , 32-H ) :   0.9870 B(  2-C ,  3-C ) :   1.2638
B(  2-C ,  6-C ) :   0.9945 B(  3-C ,  4-C ) :   1.5861 B(  3-C ,  5-H ) :   0.9842
B(  4-C , 20-C ) :   1.0368 B(  6-C ,  7-H ) :   0.9544 B(  6-C ,  8-H ) :   0.9364
B(  6-C ,  9-C ) :   1.0706 B(  9-C , 10-H ) :   0.9620 B(  9-C , 11-H ) :   0.9592
B(  9-C , 12-C ) :   1.0631 B( 12-C , 13-H ) :   0.9762 B( 12-C , 14-H ) :   0.9753
B( 12-C , 15-H ) :   0.9798 B( 16-S , 17-C ) :   1.1491 B( 16-S , 20-C ) :   1.1600
B( 17-C , 18-C ) :   1.6070 B( 17-C , 20-C ) :   0.1187 B( 17-C , 33-H ) :   0.9624
B( 18-C , 19-C ) :   1.2669 B( 18-C , 21-H ) :   0.9804 B( 19-C , 20-C ) :   1.5621
B( 19-C , 22-C ) :   1.0439 B( 22-C , 23-H ) :   0.9062 B( 22-C , 24-H ) :   0.9392
B( 22-C , 25-C ) :   1.0857 B( 25-C , 26-H ) :   0.9577 B( 25-C , 27-H ) :   0.9521
B( 25-C , 28-C ) :   1.0625 B( 28-C , 29-H ) :   0.9766 B( 28-C , 30-H ) :   0.9801
B( 28-C , 31-H ) :   0.9756

Dispersion correction           -0.014531083
FINAL SINGLE POINT ENERGY     -1339.858724621875

DIPOLE MOMENT
-------------
                                X             Y             Z
Electronic contribution:    -14.54402      10.83820      -9.74401
Nuclear contribution   :     14.94098     -11.11682      10.26616
                        -----------------------------------------
Total Dipole Moment    :      0.39696      -0.27862       0.52215
                        -----------------------------------------
Magnitude (a.u.)       :      0.71263
Magnitude (Debye)      :      1.81137

Rotational constants in cm-1:     0.020829     0.007765     0.007260
Rotational constants in MHz :   624.432569   232.798093   217.643039

                             ****ORCA TERMINATED NORMALLY****
TOTAL RUN TIME: 0 days 0 hours 0 minutes 32 seconds 551 msec
