                         Program Version 4.2.1 -  RELEASE  -
|  1> ! wB97X-D3 SP def2-SVP
|  2> %pal
|  3> nprocs 16
|  4> end
|  5>
|  6> * xyz 0 1
|  7> S 	 -102.693 	 54.0289 	 118.981
|  8> C 	 -102.431 	 55.2842 	 117.787
|  9> C 	 -103.352 	 56.3447 	 117.986
| 10> C 	 -104.221 	 56.106 	 119.088
| 11> C 	 -104.056 	 54.9031 	 119.697
| 12> H 	 -104.851 	 56.8309 	 119.52
| 13> C 	 -103.542 	 57.6121 	 117.182
| 14> H 	 -102.67 	 57.8426 	 116.587
| 15> H 	 -103.548 	 58.4347 	 117.868
| 16> C 	 -104.785 	 57.7116 	 116.315
| 17> H 	 -105.76 	 57.6061 	 116.859
| 18> H 	 -104.787 	 58.7276 	 115.841
| 19> C 	 -104.782 	 56.5855 	 115.304
| 20> H 	 -104.782 	 55.55 	 115.683
| 21> H 	 -105.675 	 56.6274 	 114.688
| 22> H 	 -104.01 	 56.6982 	 114.562
| 23> S 	 -103.862 	 53.4593 	 122.026
| 24> C 	 -105.069 	 53.6318 	 123.217
| 25> C 	 -106.235 	 54.2012 	 122.632
| 26> C 	 -106.03 	 54.5572 	 121.299
| 27> C 	 -104.758 	 54.2858 	 120.803
| 28> H 	 -107.128 	 54.3287 	 123.253
| 29> C 	 -107.064 	 55.3936 	 120.647
| 30> H 	 -107.973 	 54.9359 	 120.621
| 31> H 	 -106.853 	 55.406 	 119.583
| 32> C 	 -107.181 	 56.8123 	 121.212
| 33> H 	 -106.243 	 57.3742 	 120.873
| 34> H 	 -107.396 	 56.7028 	 122.291
| 35> C 	 -108.307 	 57.6085 	 120.534
| 36> H 	 -109.272 	 57.3206 	 120.771
| 37> H 	 -108.251 	 57.5968 	 119.398
| 38> H 	 -108.172 	 58.5979 	 120.97
| 39> H 	 -101.861 	 55.184 	 116.875
| 40> H 	 -105.149 	 53.4104 	 124.244
| 41> *
| 42>
| 43>                          ****END OF INPUT****

CARTESIAN COORDINATES (ANGSTROEM)
---------------------------------
  S    -102.693000   54.028900  118.981000
  C    -102.431000   55.284200  117.787000
  C    -103.352000   56.344700  117.986000
  C    -104.221000   56.106000  119.088000
  C    -104.056000   54.903100  119.697000
  H    -104.851000   56.830900  119.520000
  C    -103.542000   57.612100  117.182000
  H    -102.670000   57.842600  116.587000
  H    -103.548000   58.434700  117.868000
  C    -104.785000   57.711600  116.315000
  H    -105.760000   57.606100  116.859000
  H    -104.787000   58.727600  115.841000
  C    -104.782000   56.585500  115.304000
  H    -104.782000   55.550000  115.683000
  H    -105.675000   56.627400  114.688000
  H    -104.010000   56.698200  114.562000
  S    -103.862000   53.459300  122.026000
  C    -105.069000   53.631800  123.217000
  C    -106.235000   54.201200  122.632000
  C    -106.030000   54.557200  121.299000
  C    -104.758000   54.285800  120.803000
  H    -107.128000   54.328700  123.253000
  C    -107.064000   55.393600  120.647000
  H    -107.973000   54.935900  120.621000
  H    -106.853000   55.406000  119.583000
  C    -107.181000   56.812300  121.212000
  H    -106.243000   57.374200  120.873000
  H    -107.396000   56.702800  122.291000
  C    -108.307000   57.608500  120.534000
  H    -109.272000   57.320600  120.771000
  H    -108.251000   57.596800  119.398000
  H    -108.172000   58.597900  120.970000
  H    -101.861000   55.184000  116.875000
  H    -105.149000   53.410400  124.244000

 Total Charge           Charge          ....    0
 Multiplicity           Mult            ....    1
 Number of Electrons    NEL             ....  134
 Basis Dimension        Dim             ....  322

ORBITAL ENERGIES
----------------

  NO   OCC          E(Eh)            E(eV)
   0   2.0000     -88.970817     -2421.0190
   1   2.0000     -88.964504     -2420.8472
   2   2.0000     -10.331229      -281.1270
   3   2.0000     -10.323988      -280.9300
   4   2.0000     -10.317066      -280.7416
   5   2.0000     -10.316251      -280.7195
   6   2.0000     -10.303386      -280.3694
   7   2.0000     -10.297430      -280.2073
   8   2.0000     -10.296770      -280.1894
   9   2.0000     -10.293399      -280.0976
  10   2.0000     -10.292523      -280.0738
  11   2.0000     -10.287389      -279.9341
  12   2.0000     -10.287106      -279.9264
  13   2.0000     -10.278775      -279.6997
  14   2.0000     -10.275514      -279.6110
  15   2.0000     -10.270696      -279.4799
  16   2.0000      -8.086212      -220.0370
  17   2.0000      -8.078987      -219.8404
  18   2.0000      -6.044699      -164.4846
  19   2.0000      -6.040334      -164.3659
  20   2.0000      -6.037548      -164.2900
  21   2.0000      -6.037235      -164.2815
  22   2.0000      -6.033539      -164.1809
  23   2.0000      -6.029714      -164.0769
  24   2.0000      -1.013860       -27.5885
  25   2.0000      -0.985888       -26.8274
  26   2.0000      -0.918116       -24.9832
  27   2.0000      -0.914700       -24.8903
  28   2.0000      -0.869674       -23.6650
  29   2.0000      -0.858094       -23.3499
  30   2.0000      -0.846582       -23.0367
  31   2.0000      -0.815241       -22.1838
  32   2.0000      -0.786145       -21.3921
  33   2.0000      -0.775340       -21.0981
  34   2.0000      -0.707817       -19.2607
  35   2.0000      -0.698957       -19.0196
  36   2.0000      -0.696230       -18.9454
  37   2.0000      -0.664808       -18.0904
  38   2.0000      -0.642782       -17.4910
  39   2.0000      -0.627853       -17.0847
  40   2.0000      -0.599990       -16.3266
  41   2.0000      -0.572025       -15.5656
  42   2.0000      -0.571401       -15.5486
  43   2.0000      -0.550932       -14.9916
  44   2.0000      -0.543171       -14.7804
  45   2.0000      -0.534920       -14.5559
  46   2.0000      -0.521530       -14.1916
  47   2.0000      -0.516317       -14.0497
  48   2.0000      -0.512323       -13.9410
  49   2.0000      -0.503437       -13.6992
  50   2.0000      -0.492324       -13.3968
  51   2.0000      -0.475510       -12.9393
  52   2.0000      -0.467120       -12.7110
  53   2.0000      -0.462320       -12.5804
  54   2.0000      -0.461258       -12.5515
  55   2.0000      -0.450435       -12.2570
  56   2.0000      -0.439589       -11.9618
  57   2.0000      -0.433429       -11.7942
  58   2.0000      -0.430414       -11.7122
  59   2.0000      -0.425070       -11.5667
  60   2.0000      -0.423204       -11.5160
  61   2.0000      -0.416287       -11.3277
  62   2.0000      -0.414797       -11.2872
  63   2.0000      -0.357030        -9.7153
  64   2.0000      -0.335135        -9.1195
  65   2.0000      -0.328463        -8.9379
  66   2.0000      -0.281545        -7.6612
  67   0.0000       0.022626         0.6157
  68   0.0000       0.071234         1.9384
  69   0.0000       0.105871         2.8809
  70   0.0000       0.117190         3.1889
  71   0.0000       0.122103         3.3226

MULLIKEN ATOMIC CHARGES
-----------------------
   0 S :    0.089274
   1 C :   -0.104945
   2 C :   -0.109282
   3 C :    0.019479
   4 C :   -0.107718
   5 H :   -0.032491
   6 C :    0.088525
   7 H :    0.012484
   8 H :    0.018631
   9 C :   -0.077274
  10 H :    0.034491
  11 H :    0.039115
  12 C :   -0.057714
  13 H :    0.053275
  14 H :    0.018251
  15 H :    0.015702
  16 S :    0.128158
  17 C :   -0.066671
  18 C :   -0.081474
  19 C :   -0.044603
  20 C :   -0.088318
  21 H :    0.027739
  22 C :    0.088670
  23 H :   -0.007912
  24 H :    0.006925
  25 C :   -0.107225
  26 H :    0.051350
  27 H :    0.040393
  28 C :   -0.029069
  29 H :    0.013317
  30 H :    0.040057
  31 H :    0.035845
  32 H :    0.052430
  33 H :    0.040585
Sum of atomic charges:    0.0000000

LOEWDIN ATOMIC CHARGES
----------------------
   0 S :    0.389320
   1 C :   -0.203134
   2 C :   -0.053945
   3 C :   -0.066562
   4 C :   -0.167535
   5 H :    0.021680
   6 C :   -0.035699
   7 H :    0.028684
   8 H :    0.028971
   9 C :   -0.042776
  10 H :    0.026727
  11 H :    0.032341
  12 C :   -0.072977
  13 H :    0.032760
  14 H :    0.023664
  15 H :    0.019053
  16 S :    0.449621
  17 C :   -0.195494
  18 C :   -0.073372
  19 C :   -0.054880
  20 C :   -0.218044
  21 H :    0.033471
  22 C :   -0.039279
  23 H :    0.017411
  24 H :    0.027816
  25 C :   -0.034705
  26 H :    0.032727
  27 H :    0.029141
  28 C :   -0.064439
  29 H :    0.010110
  30 H :    0.032640
  31 H :    0.030204
  32 H :    0.029549
  33 H :    0.026952

  Mayer bond orders larger than 0.100000
B(  0-S ,  1-C ) :   1.1330 B(  0-S ,  4-C ) :   1.1400 B(  1-C ,  2-C ) :   1.6050
B(  1-C , 32-H ) :   0.9661 B(  2-C ,  3-C ) :   1.2361 B(  2-C ,  6-C ) :   1.0328
B(  3-C ,  4-C ) :   1.5829 B(  3-C ,  5-H ) :   0.9965 B(  4-C , 20-C ) :   1.0327
B(  6-C ,  7-H ) :   0.9389 B(  6-C ,  8-H ) :   0.9319 B(  6-C ,  9-C ) :   1.0759
B(  9-C , 10-H ) :   0.9545 B(  9-C , 11-H ) :   0.9523 B(  9-C , 12-C ) :   1.0767
B( 12-C , 13-H ) :   0.9726 B( 12-C , 14-H ) :   0.9709 B( 12-C , 15-H ) :   0.9743
B( 16-S , 17-C ) :   1.1946 B( 16-S , 20-C ) :   1.1411 B( 17-C , 18-C ) :   1.5479
B( 17-C , 20-C ) :   0.1025 B( 17-C , 33-H ) :   0.9713 B( 18-C , 19-C ) :   1.2934
B( 18-C , 21-H ) :   0.9901 B( 19-C , 20-C ) :   1.5473 B( 19-C , 22-C ) :   1.0638
B( 22-C , 23-H ) :   0.9185 B( 22-C , 24-H ) :   0.9200 B( 22-C , 25-C ) :   1.0676
B( 25-C , 26-H ) :   0.9498 B( 25-C , 27-H ) :   0.9493 B( 25-C , 28-C ) :   1.0810
B( 28-C , 29-H ) :   0.9740 B( 28-C , 30-H ) :   0.9725 B( 28-C , 31-H ) :   0.9742

Dispersion correction           -0.015049977
FINAL SINGLE POINT ENERGY     -1339.864891084695

DIPOLE MOMENT
-------------
                                X             Y             Z
Electronic contribution:     17.96168     -21.38573      14.09035
Nuclear contribution   :    -18.57654      21.96983     -14.10068
                        -----------------------------------------
Total Dipole Moment    :     -0.61486       0.58410      -0.01034
                        -----------------------------------------
Magnitude (a.u.)       :      0.84813
Magnitude (Debye)      :      2.15578

Rotational constants in cm-1:     0.017894     0.010365     0.006997
Rotational constants in MHz :   536.434692   310.749837   209.761202

                             ****ORCA TERMINATED NORMALLY****
TOTAL RUN TIME: 0 days 0 hours 0 minutes 34 seconds 442 msec
