                         Program Version 4.2.1 -  RELEASE  -
|  1> ! wB97X-D3 SP def2-SVP
|  2> %pal
|  3> nprocs 16
|  4> end
|  5>
|  6> * xyz 0 1
|  7> S 	 -2.39787 	 -11.308 	 71.2717
|  8> C 	 -2.86093 	 -13.0713 	 71.3088
|  9> C 	 -1.77627 	 -13.9104 	 71.2075
| 10> C 	 -0.576411 	 -13.1761 	 71.1433
| 11> C 	 -0.738508 	 -11.8063 	 71.1208
| 12> H 	 0.425227 	 -13.5298 	 71.188
| 13> C 	 -1.73727 	 -15.4159 	 71.4227
| 14> H 	 -2.79555 	 -15.5305 	 71.5701
| 15> H 	 -1.22432 	 -15.6001 	 72.3674
| 16> C 	 -1.10929 	 -16.1633 	 70.1984
| 17> H 	 -1.34636 	 -15.6512 	 69.2431
| 18> H 	 -0.042145 	 -16.0341 	 70.3825
| 19> C 	 -1.54912 	 -17.6167 	 70.2188
| 20> H 	 -2.53324 	 -17.69 	 70.672
| 21> H 	 -1.56152 	 -18.0536 	 69.2295
| 22> H 	 -0.838028 	 -18.1443 	 70.824
| 23> S 	 0.430289 	 -9.90882 	 72.5995
| 24> C 	 1.84539 	 -8.94918 	 71.9519
| 25> C 	 2.144 	 -9.36343 	 70.6469
| 26> C 	 1.28578 	 -10.4527 	 70.2076
| 27> C 	 0.296857 	 -10.8141 	 71.1217
| 28> H 	 3.00995 	 -8.91719 	 70.0504
| 29> C 	 1.40162 	 -11.0733 	 68.7944
| 30> H 	 1.73425 	 -10.2941 	 68.1315
| 31> H 	 0.404005 	 -11.4286 	 68.4191
| 32> C 	 2.50089 	 -12.1764 	 68.655
| 33> H 	 2.63871 	 -12.7226 	 69.5761
| 34> H 	 3.45293 	 -11.6842 	 68.6317
| 35> C 	 2.17667 	 -13.2421 	 67.5388
| 36> H 	 2.97626 	 -13.8901 	 67.1997
| 37> H 	 1.62729 	 -12.7186 	 66.6647
| 38> H 	 1.43536 	 -13.9489 	 67.8898
| 39> H 	 -3.8464 	 -13.4904 	 71.3446
| 40> H 	 2.40777 	 -8.09818 	 72.4294
| 41> *
| 42>
| 43>                          ****END OF INPUT****

CARTESIAN COORDINATES (ANGSTROEM)
---------------------------------
  S     -2.397870  -11.308000   71.271700
  C     -2.860930  -13.071300   71.308800
  C     -1.776270  -13.910400   71.207500
  C     -0.576411  -13.176100   71.143300
  C     -0.738508  -11.806300   71.120800
  H      0.425227  -13.529800   71.188000
  C     -1.737270  -15.415900   71.422700
  H     -2.795550  -15.530500   71.570100
  H     -1.224320  -15.600100   72.367400
  C     -1.109290  -16.163300   70.198400
  H     -1.346360  -15.651200   69.243100
  H     -0.042145  -16.034100   70.382500
  C     -1.549120  -17.616700   70.218800
  H     -2.533240  -17.690000   70.672000
  H     -1.561520  -18.053600   69.229500
  H     -0.838028  -18.144300   70.824000
  S      0.430289   -9.908820   72.599500
  C      1.845390   -8.949180   71.951900
  C      2.144000   -9.363430   70.646900
  C      1.285780  -10.452700   70.207600
  C      0.296857  -10.814100   71.121700
  H      3.009950   -8.917190   70.050400
  C      1.401620  -11.073300   68.794400
  H      1.734250  -10.294100   68.131500
  H      0.404005  -11.428600   68.419100
  C      2.500890  -12.176400   68.655000
  H      2.638710  -12.722600   69.576100
  H      3.452930  -11.684200   68.631700
  C      2.176670  -13.242100   67.538800
  H      2.976260  -13.890100   67.199700
  H      1.627290  -12.718600   66.664700
  H      1.435360  -13.948900   67.889800
  H     -3.846400  -13.490400   71.344600
  H      2.407770   -8.098180   72.429400

 Total Charge           Charge          ....    0
 Multiplicity           Mult            ....    1
 Number of Electrons    NEL             ....  134
 Basis Dimension        Dim             ....  322

ORBITAL ENERGIES
----------------

  NO   OCC          E(Eh)            E(eV)
   0   2.0000     -88.969547     -2420.9845
   1   2.0000     -88.965852     -2420.8839
   2   2.0000     -10.329457      -281.0788
   3   2.0000     -10.325357      -280.9673
   4   2.0000     -10.324140      -280.9341
   5   2.0000     -10.316584      -280.7285
   6   2.0000     -10.308324      -280.5037
   7   2.0000     -10.307077      -280.4698
   8   2.0000     -10.297453      -280.2080
   9   2.0000     -10.294694      -280.1329
  10   2.0000     -10.293885      -280.1108
  11   2.0000     -10.292340      -280.0688
  12   2.0000     -10.287338      -279.9327
  13   2.0000     -10.286330      -279.9053
  14   2.0000     -10.286310      -279.9047
  15   2.0000     -10.275965      -279.6232
  16   2.0000      -8.083255      -219.9566
  17   2.0000      -8.079587      -219.8568
  18   2.0000      -6.041840      -164.4068
  19   2.0000      -6.038334      -164.3114
  20   2.0000      -6.038068      -164.3042
  21   2.0000      -6.034139      -164.1973
  22   2.0000      -6.033818      -164.1885
  23   2.0000      -6.030211      -164.0904
  24   2.0000      -1.004328       -27.3292
  25   2.0000      -0.975150       -26.5352
  26   2.0000      -0.914622       -24.8881
  27   2.0000      -0.896365       -24.3913
  28   2.0000      -0.871719       -23.7207
  29   2.0000      -0.847476       -23.0610
  30   2.0000      -0.838893       -22.8274
  31   2.0000      -0.813451       -22.1351
  32   2.0000      -0.781403       -21.2631
  33   2.0000      -0.767332       -20.8802
  34   2.0000      -0.712572       -19.3901
  35   2.0000      -0.701030       -19.0760
  36   2.0000      -0.693949       -18.8833
  37   2.0000      -0.657586       -17.8938
  38   2.0000      -0.642342       -17.4790
  39   2.0000      -0.615573       -16.7506
  40   2.0000      -0.586617       -15.9627
  41   2.0000      -0.577134       -15.7046
  42   2.0000      -0.556636       -15.1468
  43   2.0000      -0.548940       -14.9374
  44   2.0000      -0.531294       -14.4572
  45   2.0000      -0.517918       -14.0933
  46   2.0000      -0.514407       -13.9977
  47   2.0000      -0.512496       -13.9457
  48   2.0000      -0.503820       -13.7096
  49   2.0000      -0.496358       -13.5066
  50   2.0000      -0.483799       -13.1649
  51   2.0000      -0.478991       -13.0340
  52   2.0000      -0.472156       -12.8480
  53   2.0000      -0.463104       -12.6017
  54   2.0000      -0.459856       -12.5133
  55   2.0000      -0.445895       -12.1334
  56   2.0000      -0.440410       -11.9842
  57   2.0000      -0.438935       -11.9440
  58   2.0000      -0.436196       -11.8695
  59   2.0000      -0.428428       -11.6581
  60   2.0000      -0.424891       -11.5619
  61   2.0000      -0.417047       -11.3484
  62   2.0000      -0.405292       -11.0286
  63   2.0000      -0.341087        -9.2815
  64   2.0000      -0.335012        -9.1161
  65   2.0000      -0.323438        -8.8012
  66   2.0000      -0.297906        -8.1064
  67   0.0000       0.033274         0.9054
  68   0.0000       0.061531         1.6744
  69   0.0000       0.102360         2.7854
  70   0.0000       0.115018         3.1298
  71   0.0000       0.124712         3.3936

MULLIKEN ATOMIC CHARGES
-----------------------
   0 S :    0.117597
   1 C :   -0.122131
   2 C :   -0.095622
   3 C :    0.055816
   4 C :   -0.173181
   5 H :   -0.000447
   6 C :    0.069794
   7 H :    0.004950
   8 H :    0.050418
   9 C :   -0.110966
  10 H :    0.048207
  11 H :    0.037396
  12 C :   -0.006294
  13 H :    0.032297
  14 H :    0.036145
  15 H :    0.026131
  16 S :    0.102145
  17 C :   -0.119161
  18 C :   -0.056352
  19 C :   -0.030590
  20 C :   -0.171192
  21 H :    0.052815
  22 C :    0.046335
  23 H :    0.022037
  24 H :    0.045252
  25 C :   -0.045474
  26 H :    0.018292
  27 H :    0.015554
  28 C :   -0.078040
  29 H :    0.040005
  30 H :    0.042333
  31 H :    0.031643
  32 H :    0.035155
  33 H :    0.079134
Sum of atomic charges:    0.0000000

LOEWDIN ATOMIC CHARGES
----------------------
   0 S :    0.387750
   1 C :   -0.179344
   2 C :   -0.061688
   3 C :   -0.056407
   4 C :   -0.198860
   5 H :    0.026781
   6 C :   -0.024198
   7 H :    0.023197
   8 H :    0.036678
   9 C :   -0.040015
  10 H :    0.028992
  11 H :    0.024877
  12 C :   -0.061110
  13 H :    0.026219
  14 H :    0.026830
  15 H :    0.025869
  16 S :    0.386300
  17 C :   -0.181149
  18 C :   -0.079090
  19 C :   -0.057048
  20 C :   -0.207251
  21 H :    0.046522
  22 C :   -0.029716
  23 H :    0.028140
  24 H :    0.035462
  25 C :   -0.042226
  26 H :    0.018184
  27 H :    0.019103
  28 C :   -0.073140
  29 H :    0.025276
  30 H :    0.033526
  31 H :    0.024741
  32 H :    0.022623
  33 H :    0.044173

  Mayer bond orders larger than 0.100000
B(  0-S ,  1-C ) :   1.1126 B(  0-S ,  4-C ) :   1.1416 B(  1-C ,  2-C ) :   1.6542
B(  1-C , 32-H ) :   0.9604 B(  2-C ,  3-C ) :   1.2013 B(  2-C ,  6-C ) :   1.0101
B(  3-C ,  4-C ) :   1.6107 B(  3-C ,  5-H ) :   0.9972 B(  4-C , 20-C ) :   1.0232
B(  6-C ,  7-H ) :   0.9420 B(  6-C ,  8-H ) :   0.9443 B(  6-C ,  9-C ) :   1.0367
B(  9-C , 10-H ) :   0.9666 B(  9-C , 11-H ) :   0.9577 B(  9-C , 12-C ) :   1.0750
B( 12-C , 13-H ) :   0.9799 B( 12-C , 14-H ) :   0.9765 B( 12-C , 15-H ) :   0.9724
B( 16-S , 17-C ) :   1.1304 B( 16-S , 20-C ) :   1.1371 B( 17-C , 18-C ) :   1.6364
B( 17-C , 20-C ) :   0.1022 B( 17-C , 33-H ) :   0.9598 B( 18-C , 19-C ) :   1.2256
B( 18-C , 21-H ) :   0.9718 B( 19-C , 20-C ) :   1.6170 B( 19-C , 22-C ) :   1.0462
B( 22-C , 23-H ) :   0.9347 B( 22-C , 24-H ) :   0.9493 B( 22-C , 25-C ) :   1.0370
B( 25-C , 26-H ) :   0.9636 B( 25-C , 27-H ) :   0.9580 B( 25-C , 28-C ) :   1.0595
B( 28-C , 29-H ) :   0.9763 B( 28-C , 30-H ) :   0.9776 B( 28-C , 31-H ) :   0.9767

Dispersion correction           -0.014411092
FINAL SINGLE POINT ENERGY     -1339.863294241201

DIPOLE MOMENT
-------------
                                X             Y             Z
Electronic contribution:     -8.05548      25.44105      16.31603
Nuclear contribution   :      8.40079     -25.98044     -16.56600
                        -----------------------------------------
Total Dipole Moment    :      0.34531      -0.53939      -0.24997
                        -----------------------------------------
Magnitude (a.u.)       :      0.68751
Magnitude (Debye)      :      1.74751

Rotational constants in cm-1:     0.017665     0.009173     0.006754
Rotational constants in MHz :   529.592264   274.987711   202.467348

                             ****ORCA TERMINATED NORMALLY****
TOTAL RUN TIME: 0 days 0 hours 0 minutes 36 seconds 529 msec
