                         Program Version 4.2.1 -  RELEASE  -
|  1> ! wB97X-D3 SP def2-SVP
|  2> %pal
|  3> nprocs 16
|  4> end
|  5>
|  6> * xyz 0 1
|  7> S 	 -26.3667 	 -10.3223 	 86.6738
|  8> C 	 -28.0603 	 -10.8784 	 86.8506
|  9> C 	 -28.872 	 -9.98406 	 87.5542
| 10> C 	 -28.1096 	 -8.81438 	 87.9615
| 11> C 	 -26.803 	 -8.78421 	 87.4209
| 12> H 	 -28.4986 	 -8.02604 	 88.5305
| 13> C 	 -30.3345 	 -10.2237 	 87.8803
| 14> H 	 -30.7234 	 -9.51102 	 88.5811
| 15> H 	 -30.4187 	 -11.2098 	 88.3427
| 16> C 	 -31.3788 	 -10.1032 	 86.6788
| 17> H 	 -31.198 	 -10.8157 	 85.8973
| 18> H 	 -32.4176 	 -10.2878 	 87.0443
| 19> C 	 -31.3867 	 -8.6838 	 85.9868
| 20> H 	 -32.1888 	 -8.57543 	 85.2524
| 21> H 	 -31.3892 	 -7.87989 	 86.7188
| 22> H 	 -30.3513 	 -8.65883 	 85.5223
| 23> S 	 -24.3749 	 -8.53272 	 88.5447
| 24> C 	 -23.6097 	 -6.95694 	 88.7967
| 25> C 	 -24.3526 	 -6.04022 	 88.1393
| 26> C 	 -25.5639 	 -6.53796 	 87.6534
| 27> C 	 -25.6864 	 -7.90057 	 87.7348
| 28> H 	 -23.9832 	 -5.03469 	 88.1019
| 29> C 	 -26.4762 	 -5.6639 	 86.8767
| 30> H 	 -26.2118 	 -4.7129 	 87.27
| 31> H 	 -27.4377 	 -5.76971 	 87.3138
| 32> C 	 -26.5101 	 -5.73931 	 85.3378
| 33> H 	 -26.8753 	 -6.68376 	 84.9668
| 34> H 	 -25.5885 	 -5.58333 	 84.7988
| 35> C 	 -27.4649 	 -4.68623 	 84.8115
| 36> H 	 -27.2889 	 -4.59495 	 83.7185
| 37> H 	 -27.3377 	 -3.69557 	 85.1476
| 38> H 	 -28.5218 	 -4.97075 	 85.0877
| 39> H 	 -28.4604 	 -11.7642 	 86.3064
| 40> H 	 -22.595 	 -6.78226 	 89.1473
| 41> *
| 42>
| 43>                          ****END OF INPUT****

CARTESIAN COORDINATES (ANGSTROEM)
---------------------------------
  S    -26.366700  -10.322300   86.673800
  C    -28.060300  -10.878400   86.850600
  C    -28.872000   -9.984060   87.554200
  C    -28.109600   -8.814380   87.961500
  C    -26.803000   -8.784210   87.420900
  H    -28.498600   -8.026040   88.530500
  C    -30.334500  -10.223700   87.880300
  H    -30.723400   -9.511020   88.581100
  H    -30.418700  -11.209800   88.342700
  C    -31.378800  -10.103200   86.678800
  H    -31.198000  -10.815700   85.897300
  H    -32.417600  -10.287800   87.044300
  C    -31.386700   -8.683800   85.986800
  H    -32.188800   -8.575430   85.252400
  H    -31.389200   -7.879890   86.718800
  H    -30.351300   -8.658830   85.522300
  S    -24.374900   -8.532720   88.544700
  C    -23.609700   -6.956940   88.796700
  C    -24.352600   -6.040220   88.139300
  C    -25.563900   -6.537960   87.653400
  C    -25.686400   -7.900570   87.734800
  H    -23.983200   -5.034690   88.101900
  C    -26.476200   -5.663900   86.876700
  H    -26.211800   -4.712900   87.270000
  H    -27.437700   -5.769710   87.313800
  C    -26.510100   -5.739310   85.337800
  H    -26.875300   -6.683760   84.966800
  H    -25.588500   -5.583330   84.798800
  C    -27.464900   -4.686230   84.811500
  H    -27.288900   -4.594950   83.718500
  H    -27.337700   -3.695570   85.147600
  H    -28.521800   -4.970750   85.087700
  H    -28.460400  -11.764200   86.306400
  H    -22.595000   -6.782260   89.147300

 Total Charge           Charge          ....    0
 Multiplicity           Mult            ....    1
 Number of Electrons    NEL             ....  134
 Basis Dimension        Dim             ....  322

ORBITAL ENERGIES
----------------

  NO   OCC          E(Eh)            E(eV)
   0   2.0000     -88.970600     -2421.0131
   1   2.0000     -88.960445     -2420.7368
   2   2.0000     -10.336758      -281.2775
   3   2.0000     -10.322627      -280.8930
   4   2.0000     -10.316076      -280.7147
   5   2.0000     -10.311511      -280.5905
   6   2.0000     -10.310884      -280.5734
   7   2.0000     -10.301803      -280.3263
   8   2.0000     -10.299448      -280.2622
   9   2.0000     -10.295158      -280.1455
  10   2.0000     -10.288040      -279.9518
  11   2.0000     -10.284922      -279.8670
  12   2.0000     -10.283710      -279.8340
  13   2.0000     -10.280827      -279.7555
  14   2.0000     -10.278344      -279.6880
  15   2.0000     -10.273811      -279.5646
  16   2.0000      -8.084379      -219.9871
  17   2.0000      -8.076663      -219.7772
  18   2.0000      -6.042950      -164.4370
  19   2.0000      -6.039049      -164.3309
  20   2.0000      -6.035110      -164.2237
  21   2.0000      -6.035078      -164.2228
  22   2.0000      -6.030787      -164.1061
  23   2.0000      -6.027558      -164.0182
  24   2.0000      -1.016664       -27.6648
  25   2.0000      -0.981211       -26.7001
  26   2.0000      -0.910859       -24.7857
  27   2.0000      -0.905248       -24.6331
  28   2.0000      -0.870813       -23.6960
  29   2.0000      -0.853730       -23.2312
  30   2.0000      -0.843588       -22.9552
  31   2.0000      -0.816349       -22.2140
  32   2.0000      -0.780886       -21.2490
  33   2.0000      -0.767361       -20.8810
  34   2.0000      -0.708207       -19.2713
  35   2.0000      -0.700284       -19.0557
  36   2.0000      -0.696883       -18.9631
  37   2.0000      -0.667123       -18.1533
  38   2.0000      -0.638045       -17.3621
  39   2.0000      -0.617424       -16.8010
  40   2.0000      -0.595673       -16.2091
  41   2.0000      -0.575457       -15.6590
  42   2.0000      -0.558357       -15.1937
  43   2.0000      -0.550819       -14.9886
  44   2.0000      -0.539723       -14.6866
  45   2.0000      -0.534373       -14.5410
  46   2.0000      -0.517502       -14.0819
  47   2.0000      -0.510161       -13.8822
  48   2.0000      -0.505330       -13.7507
  49   2.0000      -0.496599       -13.5131
  50   2.0000      -0.487587       -13.2679
  51   2.0000      -0.474006       -12.8984
  52   2.0000      -0.471159       -12.8209
  53   2.0000      -0.467457       -12.7202
  54   2.0000      -0.453337       -12.3359
  55   2.0000      -0.448943       -12.2164
  56   2.0000      -0.444568       -12.0973
  57   2.0000      -0.440027       -11.9737
  58   2.0000      -0.434420       -11.8212
  59   2.0000      -0.427291       -11.6272
  60   2.0000      -0.416757       -11.3405
  61   2.0000      -0.412935       -11.2365
  62   2.0000      -0.410003       -11.1567
  63   2.0000      -0.351435        -9.5630
  64   2.0000      -0.332790        -9.0557
  65   2.0000      -0.325828        -8.8662
  66   2.0000      -0.292937        -7.9712
  67   0.0000       0.028487         0.7752
  68   0.0000       0.064543         1.7563
  69   0.0000       0.102419         2.7870
  70   0.0000       0.122528         3.3341
  71   0.0000       0.129512         3.5242

MULLIKEN ATOMIC CHARGES
-----------------------
   0 S :    0.097986
   1 C :   -0.132350
   2 C :   -0.099874
   3 C :    0.070294
   4 C :   -0.159641
   5 H :   -0.001949
   6 C :    0.071194
   7 H :    0.019941
   8 H :    0.046124
   9 C :   -0.093326
  10 H :    0.027796
  11 H :    0.035117
  12 C :   -0.084284
  13 H :    0.049356
  14 H :    0.026122
  15 H :    0.050889
  16 S :    0.102427
  17 C :   -0.100008
  18 C :   -0.033778
  19 C :   -0.081960
  20 C :   -0.118887
  21 H :    0.013654
  22 C :    0.128052
  23 H :   -0.012995
  24 H :   -0.005308
  25 C :   -0.005197
  26 H :    0.028500
  27 H :    0.021577
  28 C :   -0.068875
  29 H :    0.033582
  30 H :    0.014775
  31 H :    0.035627
  32 H :    0.066559
  33 H :    0.058857
Sum of atomic charges:    0.0000000

LOEWDIN ATOMIC CHARGES
----------------------
   0 S :    0.389208
   1 C :   -0.191046
   2 C :   -0.061201
   3 C :   -0.047886
   4 C :   -0.180257
   5 H :    0.021854
   6 C :   -0.029998
   7 H :    0.028167
   8 H :    0.037756
   9 C :   -0.036682
  10 H :    0.015763
  11 H :    0.024280
  12 C :   -0.071556
  13 H :    0.027313
  14 H :    0.018305
  15 H :    0.035493
  16 S :    0.434551
  17 C :   -0.186257
  18 C :   -0.068429
  19 C :   -0.073496
  20 C :   -0.230796
  21 H :    0.031422
  22 C :   -0.031262
  23 H :    0.024885
  24 H :    0.026703
  25 C :   -0.030969
  26 H :    0.027014
  27 H :    0.023603
  28 C :   -0.066090
  29 H :    0.029678
  30 H :    0.013135
  31 H :    0.029091
  32 H :    0.034524
  33 H :    0.033181

  Mayer bond orders larger than 0.100000
B(  0-S ,  1-C ) :   1.1321 B(  0-S ,  4-C ) :   1.1482 B(  1-C ,  2-C ) :   1.6144
B(  1-C ,  4-C ) :   0.1034 B(  1-C , 32-H ) :   0.9617 B(  2-C ,  3-C ) :   1.2323
B(  2-C ,  6-C ) :   1.0205 B(  3-C ,  4-C ) :   1.5738 B(  3-C ,  5-H ) :   0.9956
B(  4-C , 20-C ) :   1.0074 B(  6-C ,  7-H ) :   0.9453 B(  6-C ,  8-H ) :   0.9433
B(  6-C ,  9-C ) :   1.0590 B(  9-C , 10-H ) :   0.9638 B(  9-C , 11-H ) :   0.9609
B(  9-C , 12-C ) :   1.0599 B( 12-C , 13-H ) :   0.9766 B( 12-C , 14-H ) :   0.9790
B( 12-C , 15-H ) :   0.9757 B( 16-S , 17-C ) :   1.1567 B( 16-S , 20-C ) :   1.1677
B( 17-C , 18-C ) :   1.5933 B( 17-C , 33-H ) :   0.9651 B( 18-C , 19-C ) :   1.2758
B( 18-C , 21-H ) :   0.9930 B( 19-C , 20-C ) :   1.5672 B( 19-C , 22-C ) :   1.0520
B( 22-C , 23-H ) :   0.9225 B( 22-C , 24-H ) :   0.9107 B( 22-C , 25-C ) :   1.0612
B( 25-C , 26-H ) :   0.9503 B( 25-C , 27-H ) :   0.9589 B( 25-C , 28-C ) :   1.0810
B( 28-C , 29-H ) :   0.9746 B( 28-C , 30-H ) :   0.9767 B( 28-C , 31-H ) :   0.9757

Dispersion correction           -0.014497638
FINAL SINGLE POINT ENERGY     -1339.867775756559

DIPOLE MOMENT
-------------
                                X             Y             Z
Electronic contribution:     23.52151     -13.30633      11.12483
Nuclear contribution   :    -23.96410      13.64415     -11.20204
                        -----------------------------------------
Total Dipole Moment    :     -0.44259       0.33782      -0.07721
                        -----------------------------------------
Magnitude (a.u.)       :      0.56211
Magnitude (Debye)      :      1.42877

Rotational constants in cm-1:     0.018389     0.009367     0.007013
Rotational constants in MHz :   551.298349   280.823530   210.244069

                             ****ORCA TERMINATED NORMALLY****
TOTAL RUN TIME: 0 days 0 hours 0 minutes 34 seconds 540 msec
