                         Program Version 4.2.1 -  RELEASE  -
|  1> ! wB97X-D3 SP def2-SVP
|  2> %pal
|  3> nprocs 16
|  4> end
|  5>
|  6> * xyz 0 1
|  7> S 	 -63.2934 	 47.9835 	 123.876
|  8> C 	 -63.7002 	 46.4377 	 123.099
|  9> C 	 -63.6349 	 46.5962 	 121.688
| 10> C 	 -63.0487 	 47.7979 	 121.268
| 11> C 	 -62.7296 	 48.6597 	 122.255
| 12> H 	 -63.0147 	 48.1139 	 120.192
| 13> C 	 -63.9935 	 45.5827 	 120.65
| 14> H 	 -63.2135 	 44.8297 	 120.733
| 15> H 	 -64.0609 	 46.0493 	 119.695
| 16> C 	 -65.2783 	 44.756 	 121.014
| 17> H 	 -65.1577 	 43.9857 	 121.663
| 18> H 	 -65.8749 	 45.446 	 121.49
| 19> C 	 -66.0468 	 44.2772 	 119.715
| 20> H 	 -65.2603 	 43.7773 	 119.143
| 21> H 	 -66.8504 	 43.616 	 120.062
| 22> H 	 -66.4485 	 45.0916 	 119.18
| 23> S 	 -62.7021 	 51.2937 	 121.326
| 24> C 	 -61.277 	 52.2537 	 121.617
| 25> C 	 -60.218 	 51.441 	 121.952
| 26> C 	 -60.6001 	 50.1031 	 122.26
| 27> C 	 -61.945 	 49.8852 	 122.135
| 28> H 	 -59.2094 	 51.8809 	 122.104
| 29> C 	 -59.6372 	 49.0506 	 122.666
| 30> H 	 -60.0698 	 48.3397 	 123.308
| 31> H 	 -58.8167 	 49.594 	 123.114
| 32> C 	 -58.9019 	 48.4103 	 121.512
| 33> H 	 -58.2896 	 49.1781 	 121.135
| 34> H 	 -59.4786 	 48.1508 	 120.638
| 35> C 	 -57.9928 	 47.2372 	 121.85
| 36> H 	 -58.567 	 46.3434 	 121.902
| 37> H 	 -57.4645 	 47.3569 	 122.799
| 38> H 	 -57.1694 	 47.0745 	 121.175
| 39> H 	 -64.1428 	 45.5539 	 123.498
| 40> H 	 -61.0767 	 53.295 	 121.39
| 41> *
| 42>
| 43>                          ****END OF INPUT****

CARTESIAN COORDINATES (ANGSTROEM)
---------------------------------
  S    -63.293400   47.983500  123.876000
  C    -63.700200   46.437700  123.099000
  C    -63.634900   46.596200  121.688000
  C    -63.048700   47.797900  121.268000
  C    -62.729600   48.659700  122.255000
  H    -63.014700   48.113900  120.192000
  C    -63.993500   45.582700  120.650000
  H    -63.213500   44.829700  120.733000
  H    -64.060900   46.049300  119.695000
  C    -65.278300   44.756000  121.014000
  H    -65.157700   43.985700  121.663000
  H    -65.874900   45.446000  121.490000
  C    -66.046800   44.277200  119.715000
  H    -65.260300   43.777300  119.143000
  H    -66.850400   43.616000  120.062000
  H    -66.448500   45.091600  119.180000
  S    -62.702100   51.293700  121.326000
  C    -61.277000   52.253700  121.617000
  C    -60.218000   51.441000  121.952000
  C    -60.600100   50.103100  122.260000
  C    -61.945000   49.885200  122.135000
  H    -59.209400   51.880900  122.104000
  C    -59.637200   49.050600  122.666000
  H    -60.069800   48.339700  123.308000
  H    -58.816700   49.594000  123.114000
  C    -58.901900   48.410300  121.512000
  H    -58.289600   49.178100  121.135000
  H    -59.478600   48.150800  120.638000
  C    -57.992800   47.237200  121.850000
  H    -58.567000   46.343400  121.902000
  H    -57.464500   47.356900  122.799000
  H    -57.169400   47.074500  121.175000
  H    -64.142800   45.553900  123.498000
  H    -61.076700   53.295000  121.390000

 Total Charge           Charge          ....    0
 Multiplicity           Mult            ....    1
 Number of Electrons    NEL             ....  134
 Basis Dimension        Dim             ....  322

ORBITAL ENERGIES
----------------

  NO   OCC          E(Eh)            E(eV)
   0   2.0000     -88.969174     -2420.9743
   1   2.0000     -88.963968     -2420.8326
   2   2.0000     -10.332668      -281.1662
   3   2.0000     -10.324483      -280.9435
   4   2.0000     -10.317748      -280.7602
   5   2.0000     -10.317560      -280.7551
   6   2.0000     -10.300221      -280.2833
   7   2.0000     -10.298669      -280.2410
   8   2.0000     -10.294580      -280.1298
   9   2.0000     -10.293387      -280.0973
  10   2.0000     -10.288853      -279.9739
  11   2.0000     -10.279874      -279.7296
  12   2.0000     -10.278914      -279.7035
  13   2.0000     -10.274075      -279.5718
  14   2.0000     -10.273847      -279.5656
  15   2.0000     -10.269676      -279.4521
  16   2.0000      -8.081458      -219.9077
  17   2.0000      -8.078258      -219.8206
  18   2.0000      -6.040172      -164.3614
  19   2.0000      -6.036836      -164.2707
  20   2.0000      -6.036400      -164.2588
  21   2.0000      -6.033009      -164.1665
  22   2.0000      -6.032038      -164.1401
  23   2.0000      -6.028784      -164.0516
  24   2.0000      -1.003020       -27.2936
  25   2.0000      -0.980549       -26.6821
  26   2.0000      -0.915996       -24.9255
  27   2.0000      -0.909873       -24.7589
  28   2.0000      -0.867137       -23.5960
  29   2.0000      -0.851676       -23.1753
  30   2.0000      -0.848922       -23.1004
  31   2.0000      -0.814479       -22.1631
  32   2.0000      -0.783839       -21.3293
  33   2.0000      -0.766645       -20.8615
  34   2.0000      -0.719118       -19.5682
  35   2.0000      -0.703877       -19.1535
  36   2.0000      -0.696832       -18.9618
  37   2.0000      -0.661556       -18.0019
  38   2.0000      -0.634475       -17.2649
  39   2.0000      -0.616099       -16.7649
  40   2.0000      -0.596493       -16.2314
  41   2.0000      -0.575711       -15.6659
  42   2.0000      -0.571805       -15.5596
  43   2.0000      -0.564235       -15.3536
  44   2.0000      -0.530678       -14.4405
  45   2.0000      -0.521012       -14.1775
  46   2.0000      -0.518673       -14.1138
  47   2.0000      -0.514697       -14.0056
  48   2.0000      -0.510649       -13.8955
  49   2.0000      -0.500505       -13.6194
  50   2.0000      -0.492295       -13.3960
  51   2.0000      -0.477734       -12.9998
  52   2.0000      -0.471346       -12.8260
  53   2.0000      -0.464917       -12.6510
  54   2.0000      -0.459924       -12.5152
  55   2.0000      -0.450729       -12.2650
  56   2.0000      -0.447540       -12.1782
  57   2.0000      -0.436509       -11.8780
  58   2.0000      -0.430271       -11.7083
  59   2.0000      -0.424619       -11.5545
  60   2.0000      -0.420466       -11.4415
  61   2.0000      -0.414760       -11.2862
  62   2.0000      -0.411844       -11.2068
  63   2.0000      -0.341021        -9.2797
  64   2.0000      -0.328796        -8.9470
  65   2.0000      -0.319803        -8.7023
  66   2.0000      -0.300768        -8.1843
  67   0.0000       0.035095         0.9550
  68   0.0000       0.045832         1.2471
  69   0.0000       0.102590         2.7916
  70   0.0000       0.110994         3.0203
  71   0.0000       0.132311         3.6004

MULLIKEN ATOMIC CHARGES
-----------------------
   0 S :    0.105566
   1 C :   -0.102802
   2 C :   -0.128978
   3 C :    0.030322
   4 C :   -0.164345
   5 H :    0.036887
   6 C :    0.091358
   7 H :    0.044924
   8 H :    0.018425
   9 C :   -0.071751
  10 H :    0.012368
  11 H :    0.011599
  12 C :   -0.049045
  13 H :    0.036963
  14 H :    0.040263
  15 H :    0.033496
  16 S :    0.095820
  17 C :   -0.074197
  18 C :   -0.062922
  19 C :   -0.022376
  20 C :   -0.181615
  21 H :    0.031400
  22 C :    0.146890
  23 H :    0.017120
  24 H :    0.006299
  25 C :   -0.067695
  26 H :   -0.001365
  27 H :    0.020626
  28 C :   -0.022277
  29 H :    0.030980
  30 H :    0.016185
  31 H :    0.025244
  32 H :    0.039964
  33 H :    0.056672
Sum of atomic charges:    0.0000000

LOEWDIN ATOMIC CHARGES
----------------------
   0 S :    0.364709
   1 C :   -0.194833
   2 C :   -0.062261
   3 C :   -0.065684
   4 C :   -0.166664
   5 H :    0.044207
   6 C :   -0.026207
   7 H :    0.041305
   8 H :    0.025941
   9 C :   -0.027052
  10 H :    0.007445
  11 H :    0.010695
  12 C :   -0.053888
  13 H :    0.025642
  14 H :    0.029388
  15 H :    0.018347
  16 S :    0.386469
  17 C :   -0.181883
  18 C :   -0.079552
  19 C :   -0.045082
  20 C :   -0.190418
  21 H :    0.036584
  22 C :   -0.021043
  23 H :    0.021994
  24 H :    0.033393
  25 C :   -0.036968
  26 H :    0.015464
  27 H :    0.021044
  28 C :   -0.061378
  29 H :    0.022187
  30 H :    0.024280
  31 H :    0.025685
  32 H :    0.024257
  33 H :    0.033876

  Mayer bond orders larger than 0.100000
B(  0-S ,  1-C ) :   1.1288 B(  0-S ,  4-C ) :   1.1144 B(  1-C ,  2-C ) :   1.5933
B(  1-C ,  4-C ) :   0.1077 B(  1-C , 32-H ) :   0.9681 B(  2-C ,  3-C ) :   1.2535
B(  2-C ,  6-C ) :   1.0358 B(  3-C ,  4-C ) :   1.6166 B(  3-C ,  5-H ) :   0.9771
B(  4-C , 20-C ) :   1.0231 B(  6-C ,  7-H ) :   0.9259 B(  6-C ,  8-H ) :   0.9482
B(  6-C ,  9-C ) :   1.0530 B(  9-C , 10-H ) :   0.9551 B(  9-C , 11-H ) :   0.9661
B(  9-C , 12-C ) :   1.0822 B( 12-C , 13-H ) :   0.9784 B( 12-C , 14-H ) :   0.9758
B( 12-C , 15-H ) :   0.9807 B( 16-S , 17-C ) :   1.1537 B( 16-S , 20-C ) :   1.1134
B( 17-C , 18-C ) :   1.6294 B( 17-C , 33-H ) :   0.9631 B( 18-C , 19-C ) :   1.2296
B( 18-C , 21-H ) :   0.9797 B( 19-C , 20-C ) :   1.6156 B( 19-C , 22-C ) :   1.0646
B( 22-C , 23-H ) :   0.9315 B( 22-C , 24-H ) :   0.9166 B( 22-C , 25-C ) :   1.0568
B( 25-C , 26-H ) :   0.9536 B( 25-C , 27-H ) :   0.9551 B( 25-C , 28-C ) :   1.0902
B( 28-C , 29-H ) :   0.9771 B( 28-C , 30-H ) :   0.9694 B( 28-C , 31-H ) :   0.9735

Dispersion correction           -0.014118704
FINAL SINGLE POINT ENERGY     -1339.845613396385

DIPOLE MOMENT
-------------
                                X             Y             Z
Electronic contribution:     -6.43740      21.41017       9.86219
Nuclear contribution   :      6.76456     -21.75855     -10.26160
                        -----------------------------------------
Total Dipole Moment    :      0.32716      -0.34838      -0.39942
                        -----------------------------------------
Magnitude (a.u.)       :      0.62285
Magnitude (Debye)      :      1.58315

Rotational constants in cm-1:     0.019157     0.007732     0.006701
Rotational constants in MHz :   574.318282   231.810488   200.892026

                             ****ORCA TERMINATED NORMALLY****
TOTAL RUN TIME: 0 days 0 hours 0 minutes 31 seconds 149 msec
