                         Program Version 4.2.1 -  RELEASE  -
|  1> ! wB97X-D3 SP def2-SVP
|  2> %pal
|  3> nprocs 16
|  4> end
|  5>
|  6> * xyz 0 1
|  7> S 	 -12.2219 	 41.1806 	 31.5814
|  8> C 	 -13.1297 	 40.6156 	 32.9755
|  9> C 	 -14.0761 	 39.6356 	 32.7143
| 10> C 	 -13.9017 	 39.2655 	 31.3134
| 11> C 	 -12.9749 	 39.9874 	 30.5867
| 12> H 	 -14.4655 	 38.4251 	 30.9059
| 13> C 	 -15.0183 	 38.9937 	 33.7229
| 14> H 	 -14.706 	 39.1542 	 34.7209
| 15> H 	 -14.9815 	 37.8948 	 33.6553
| 16> C 	 -16.4385 	 39.4111 	 33.6177
| 17> H 	 -16.8332 	 39.1248 	 32.6714
| 18> H 	 -16.9691 	 38.9349 	 34.4522
| 19> C 	 -16.6657 	 40.948 	 33.7383
| 20> H 	 -16.1843 	 41.4639 	 33.0001
| 21> H 	 -17.7068 	 41.1635 	 33.5399
| 22> H 	 -16.3096 	 41.3818 	 34.6922
| 23> S 	 -12.5019 	 37.8959 	 28.8396
| 24> C 	 -12.0212 	 38.2513 	 27.14
| 25> C 	 -11.8089 	 39.589 	 27.0355
| 26> C 	 -12.254 	 40.4424 	 28.1543
| 27> C 	 -12.597 	 39.6532 	 29.237
| 28> H 	 -11.5504 	 40.0007 	 26.1016
| 29> C 	 -12.1891 	 41.9735 	 28.0987
| 30> H 	 -11.3368 	 42.1958 	 27.3683
| 31> H 	 -11.865 	 42.3591 	 29.0575
| 32> C 	 -13.4915 	 42.6413 	 27.6812
| 33> H 	 -13.4161 	 43.6506 	 28.0072
| 34> H 	 -14.4154 	 42.274 	 28.2438
| 35> C 	 -13.7573 	 42.6192 	 26.1509
| 36> H 	 -14.0806 	 41.6553 	 25.8696
| 37> H 	 -12.7832 	 42.8482 	 25.65
| 38> H 	 -14.4432 	 43.4843 	 25.8219
| 39> H 	 -13.0448 	 41.085 	 34.0046
| 40> H 	 -11.5806 	 37.4801 	 26.5492
| 41> *
| 42>
| 43>                          ****END OF INPUT****

CARTESIAN COORDINATES (ANGSTROEM)
---------------------------------
  S    -12.221900   41.180600   31.581400
  C    -13.129700   40.615600   32.975500
  C    -14.076100   39.635600   32.714300
  C    -13.901700   39.265500   31.313400
  C    -12.974900   39.987400   30.586700
  H    -14.465500   38.425100   30.905900
  C    -15.018300   38.993700   33.722900
  H    -14.706000   39.154200   34.720900
  H    -14.981500   37.894800   33.655300
  C    -16.438500   39.411100   33.617700
  H    -16.833200   39.124800   32.671400
  H    -16.969100   38.934900   34.452200
  C    -16.665700   40.948000   33.738300
  H    -16.184300   41.463900   33.000100
  H    -17.706800   41.163500   33.539900
  H    -16.309600   41.381800   34.692200
  S    -12.501900   37.895900   28.839600
  C    -12.021200   38.251300   27.140000
  C    -11.808900   39.589000   27.035500
  C    -12.254000   40.442400   28.154300
  C    -12.597000   39.653200   29.237000
  H    -11.550400   40.000700   26.101600
  C    -12.189100   41.973500   28.098700
  H    -11.336800   42.195800   27.368300
  H    -11.865000   42.359100   29.057500
  C    -13.491500   42.641300   27.681200
  H    -13.416100   43.650600   28.007200
  H    -14.415400   42.274000   28.243800
  C    -13.757300   42.619200   26.150900
  H    -14.080600   41.655300   25.869600
  H    -12.783200   42.848200   25.650000
  H    -14.443200   43.484300   25.821900
  H    -13.044800   41.085000   34.004600
  H    -11.580600   37.480100   26.549200

 Total Charge           Charge          ....    0
 Multiplicity           Mult            ....    1
 Number of Electrons    NEL             ....  134
 Basis Dimension        Dim             ....  322

ORBITAL ENERGIES
----------------

  NO   OCC          E(Eh)            E(eV)
   0   2.0000     -88.972163     -2421.0557
   1   2.0000     -88.960360     -2420.7345
   2   2.0000     -10.331050      -281.1222
   3   2.0000     -10.327434      -281.0238
   4   2.0000     -10.320455      -280.8339
   5   2.0000     -10.317400      -280.7507
   6   2.0000     -10.306349      -280.4500
   7   2.0000     -10.306002      -280.4406
   8   2.0000     -10.300570      -280.2928
   9   2.0000     -10.296040      -280.1695
  10   2.0000     -10.294763      -280.1347
  11   2.0000     -10.291290      -280.0402
  12   2.0000     -10.287304      -279.9318
  13   2.0000     -10.283290      -279.8225
  14   2.0000     -10.282993      -279.8145
  15   2.0000     -10.268060      -279.4081
  16   2.0000      -8.086653      -220.0490
  17   2.0000      -8.073820      -219.6998
  18   2.0000      -6.045291      -164.5007
  19   2.0000      -6.041238      -164.3904
  20   2.0000      -6.037273      -164.2826
  21   2.0000      -6.032632      -164.1563
  22   2.0000      -6.028584      -164.0461
  23   2.0000      -6.024247      -163.9281
  24   2.0000      -1.004613       -27.3369
  25   2.0000      -0.976397       -26.5691
  26   2.0000      -0.919588       -25.0233
  27   2.0000      -0.905588       -24.6423
  28   2.0000      -0.870808       -23.6959
  29   2.0000      -0.848267       -23.0825
  30   2.0000      -0.838289       -22.8110
  31   2.0000      -0.808986       -22.0136
  32   2.0000      -0.790527       -21.5113
  33   2.0000      -0.775177       -21.0936
  34   2.0000      -0.710762       -19.3408
  35   2.0000      -0.697068       -18.9682
  36   2.0000      -0.686089       -18.6694
  37   2.0000      -0.667824       -18.1724
  38   2.0000      -0.632277       -17.2051
  39   2.0000      -0.621897       -16.9227
  40   2.0000      -0.592700       -16.1282
  41   2.0000      -0.569120       -15.4865
  42   2.0000      -0.555686       -15.1210
  43   2.0000      -0.551111       -14.9965
  44   2.0000      -0.546145       -14.8614
  45   2.0000      -0.543640       -14.7932
  46   2.0000      -0.515191       -14.0191
  47   2.0000      -0.513465       -13.9721
  48   2.0000      -0.500303       -13.6139
  49   2.0000      -0.490783       -13.3549
  50   2.0000      -0.486923       -13.2499
  51   2.0000      -0.478743       -13.0273
  52   2.0000      -0.472410       -12.8549
  53   2.0000      -0.461557       -12.5596
  54   2.0000      -0.456625       -12.4254
  55   2.0000      -0.448156       -12.1949
  56   2.0000      -0.441961       -12.0264
  57   2.0000      -0.433124       -11.7859
  58   2.0000      -0.431038       -11.7291
  59   2.0000      -0.427795       -11.6409
  60   2.0000      -0.423869       -11.5341
  61   2.0000      -0.416056       -11.3215
  62   2.0000      -0.409242       -11.1360
  63   2.0000      -0.355558        -9.6752
  64   2.0000      -0.333860        -9.0848
  65   2.0000      -0.327160        -8.9025
  66   2.0000      -0.289935        -7.8895
  67   0.0000       0.024854         0.6763
  68   0.0000       0.073592         2.0025
  69   0.0000       0.101149         2.7524
  70   0.0000       0.111851         3.0436
  71   0.0000       0.120779         3.2866

MULLIKEN ATOMIC CHARGES
-----------------------
   0 S :    0.115427
   1 C :   -0.150849
   2 C :   -0.085518
   3 C :   -0.020891
   4 C :   -0.119902
   5 H :    0.017089
   6 C :    0.098027
   7 H :    0.003146
   8 H :    0.033519
   9 C :   -0.064828
  10 H :    0.022491
  11 H :    0.035476
  12 C :   -0.033281
  13 H :    0.016876
  14 H :    0.027684
  15 H :    0.026439
  16 S :    0.068400
  17 C :   -0.083763
  18 C :   -0.006845
  19 C :   -0.074560
  20 C :   -0.121786
  21 H :    0.006635
  22 C :    0.040976
  23 H :    0.039854
  24 H :    0.021919
  25 C :   -0.061073
  26 H :    0.019412
  27 H :    0.047420
  28 C :   -0.063299
  29 H :    0.041554
  30 H :    0.022361
  31 H :    0.050944
  32 H :    0.064897
  33 H :    0.066049
Sum of atomic charges:   -0.0000000

LOEWDIN ATOMIC CHARGES
----------------------
   0 S :    0.416968
   1 C :   -0.200098
   2 C :   -0.058705
   3 C :   -0.064559
   4 C :   -0.208794
   5 H :    0.026388
   6 C :   -0.031244
   7 H :    0.024765
   8 H :    0.037677
   9 C :   -0.033257
  10 H :    0.019390
  11 H :    0.028819
  12 C :   -0.059614
  13 H :    0.011978
  14 H :    0.027224
  15 H :    0.025322
  16 S :    0.356784
  17 C :   -0.168618
  18 C :   -0.059808
  19 C :   -0.062014
  20 C :   -0.166324
  21 H :    0.020561
  22 C :   -0.033912
  23 H :    0.040454
  24 H :    0.020833
  25 C :   -0.045123
  26 H :    0.018890
  27 H :    0.036235
  28 C :   -0.067578
  29 H :    0.018633
  30 H :    0.024360
  31 H :    0.038066
  32 H :    0.037207
  33 H :    0.029093

  Mayer bond orders larger than 0.100000
B(  0-S ,  1-C ) :   1.1419 B(  0-S ,  4-C ) :   1.1334 B(  1-C ,  2-C ) :   1.6235
B(  1-C , 32-H ) :   0.9519 B(  2-C ,  3-C ) :   1.2337 B(  2-C ,  6-C ) :   1.0228
B(  3-C ,  4-C ) :   1.5573 B(  3-C ,  5-H ) :   0.9905 B(  4-C , 20-C ) :   1.0828
B(  6-C ,  7-H ) :   0.9363 B(  6-C ,  8-H ) :   0.9370 B(  6-C ,  9-C ) :   1.0819
B(  9-C , 10-H ) :   0.9561 B(  9-C , 11-H ) :   0.9549 B(  9-C , 12-C ) :   1.0786
B( 12-C , 13-H ) :   0.9718 B( 12-C , 14-H ) :   0.9731 B( 12-C , 15-H ) :   0.9760
B( 16-S , 17-C ) :   1.1115 B( 16-S , 20-C ) :   1.1225 B( 17-C , 18-C ) :   1.6640
B( 17-C , 33-H ) :   0.9653 B( 18-C , 19-C ) :   1.2045 B( 18-C , 21-H ) :   0.9805
B( 19-C , 20-C ) :   1.6230 B( 19-C , 22-C ) :   1.0321 B( 22-C , 23-H ) :   0.9399
B( 22-C , 24-H ) :   0.9348 B( 22-C , 25-C ) :   1.0695 B( 25-C , 26-H ) :   0.9551
B( 25-C , 27-H ) :   0.9549 B( 25-C , 28-C ) :   1.0676 B( 28-C , 29-H ) :   0.9786
B( 28-C , 30-H ) :   0.9742 B( 28-C , 31-H ) :   0.9755

Dispersion correction           -0.014550685
FINAL SINGLE POINT ENERGY     -1339.877021875911

DIPOLE MOMENT
-------------
                                X             Y             Z
Electronic contribution:     15.60861     -11.24586      -1.02138
Nuclear contribution   :    -15.80217      11.45361       1.08499
                        -----------------------------------------
Total Dipole Moment    :     -0.19356       0.20775       0.06360
                        -----------------------------------------
Magnitude (a.u.)       :      0.29098
Magnitude (Debye)      :      0.73962

Rotational constants in cm-1:     0.020595     0.008015     0.006995
Rotational constants in MHz :   617.409645   240.282413   209.717198

                             ****ORCA TERMINATED NORMALLY****
TOTAL RUN TIME: 0 days 0 hours 0 minutes 32 seconds 113 msec
