                         Program Version 4.2.1 -  RELEASE  -
|  1> ! wB97X-D3 SP def2-SVP
|  2> %pal
|  3> nprocs 16
|  4> end
|  5>
|  6> * xyz 0 1
|  7> S 	 -56.339 	 38.5332 	 114.281
|  8> C 	 -55.517 	 38.6427 	 112.734
|  9> C 	 -54.9988 	 39.8997 	 112.549
| 10> C 	 -55.31 	 40.737 	 113.662
| 11> C 	 -55.9497 	 40.1567 	 114.699
| 12> H 	 -55.2056 	 41.8667 	 113.623
| 13> C 	 -54.4178 	 40.4837 	 111.255
| 14> H 	 -54.8229 	 41.5164 	 111.082
| 15> H 	 -54.7533 	 39.938 	 110.386
| 16> C 	 -52.8564 	 40.3674 	 111.173
| 17> H 	 -52.5132 	 41.161 	 110.661
| 18> H 	 -52.412 	 40.4319 	 112.152
| 19> C 	 -52.4208 	 39.0187 	 110.564
| 20> H 	 -52.639 	 38.9877 	 109.488
| 21> H 	 -51.3157 	 38.9787 	 110.705
| 22> H 	 -53.0254 	 38.2652 	 111.013
| 23> S 	 -58.1542 	 40.4864 	 116.249
| 24> C 	 -58.0844 	 41.2951 	 117.758
| 25> C 	 -56.8885 	 41.9376 	 117.921
| 26> C 	 -55.9738 	 41.68 	 116.843
| 27> C 	 -56.532 	 40.8657 	 115.876
| 28> H 	 -56.6026 	 42.3413 	 118.859
| 29> C 	 -54.5086 	 41.9951 	 116.923
| 30> H 	 -54.3118 	 43.0061 	 117.367
| 31> H 	 -54.1303 	 42.0155 	 115.934
| 32> C 	 -53.6858 	 41.0038 	 117.671
| 33> H 	 -53.9676 	 40.9817 	 118.741
| 34> H 	 -52.665 	 41.4667 	 117.635
| 35> C 	 -53.5176 	 39.591 	 117.133
| 36> H 	 -54.5029 	 39.0584 	 117.067
| 37> H 	 -52.8619 	 39.0043 	 117.733
| 38> H 	 -52.9611 	 39.7155 	 116.178
| 39> H 	 -55.4037 	 37.8422 	 112.061
| 40> H 	 -58.9687 	 41.2945 	 118.45
| 41> *
| 42>
| 43>                          ****END OF INPUT****

CARTESIAN COORDINATES (ANGSTROEM)
---------------------------------
  S    -56.339000   38.533200  114.281000
  C    -55.517000   38.642700  112.734000
  C    -54.998800   39.899700  112.549000
  C    -55.310000   40.737000  113.662000
  C    -55.949700   40.156700  114.699000
  H    -55.205600   41.866700  113.623000
  C    -54.417800   40.483700  111.255000
  H    -54.822900   41.516400  111.082000
  H    -54.753300   39.938000  110.386000
  C    -52.856400   40.367400  111.173000
  H    -52.513200   41.161000  110.661000
  H    -52.412000   40.431900  112.152000
  C    -52.420800   39.018700  110.564000
  H    -52.639000   38.987700  109.488000
  H    -51.315700   38.978700  110.705000
  H    -53.025400   38.265200  111.013000
  S    -58.154200   40.486400  116.249000
  C    -58.084400   41.295100  117.758000
  C    -56.888500   41.937600  117.921000
  C    -55.973800   41.680000  116.843000
  C    -56.532000   40.865700  115.876000
  H    -56.602600   42.341300  118.859000
  C    -54.508600   41.995100  116.923000
  H    -54.311800   43.006100  117.367000
  H    -54.130300   42.015500  115.934000
  C    -53.685800   41.003800  117.671000
  H    -53.967600   40.981700  118.741000
  H    -52.665000   41.466700  117.635000
  C    -53.517600   39.591000  117.133000
  H    -54.502900   39.058400  117.067000
  H    -52.861900   39.004300  117.733000
  H    -52.961100   39.715500  116.178000
  H    -55.403700   37.842200  112.061000
  H    -58.968700   41.294500  118.450000

 Total Charge           Charge          ....    0
 Multiplicity           Mult            ....    1
 Number of Electrons    NEL             ....  134
 Basis Dimension        Dim             ....  322

ORBITAL ENERGIES
----------------

  NO   OCC          E(Eh)            E(eV)
   0   2.0000     -88.966316     -2420.8965
   1   2.0000     -88.962070     -2420.7810
   2   2.0000     -10.327231      -281.0183
   3   2.0000     -10.324237      -280.9368
   4   2.0000     -10.317095      -280.7424
   5   2.0000     -10.312817      -280.6260
   6   2.0000     -10.301580      -280.3203
   7   2.0000     -10.299502      -280.2637
   8   2.0000     -10.296704      -280.1876
   9   2.0000     -10.291901      -280.0569
  10   2.0000     -10.290436      -280.0170
  11   2.0000     -10.284755      -279.8624
  12   2.0000     -10.281805      -279.7821
  13   2.0000     -10.280490      -279.7464
  14   2.0000     -10.276477      -279.6372
  15   2.0000     -10.272489      -279.5286
  16   2.0000      -8.081367      -219.9052
  17   2.0000      -8.078627      -219.8306
  18   2.0000      -6.039928      -164.3548
  19   2.0000      -6.036951      -164.2738
  20   2.0000      -6.035780      -164.2419
  21   2.0000      -6.032765      -164.1599
  22   2.0000      -6.032084      -164.1414
  23   2.0000      -6.029583      -164.0733
  24   2.0000      -1.015476       -27.6325
  25   2.0000      -0.993035       -27.0218
  26   2.0000      -0.914704       -24.8904
  27   2.0000      -0.910708       -24.7816
  28   2.0000      -0.870312       -23.6824
  29   2.0000      -0.849827       -23.1250
  30   2.0000      -0.844389       -22.9770
  31   2.0000      -0.816467       -22.2172
  32   2.0000      -0.783520       -21.3207
  33   2.0000      -0.775914       -21.1137
  34   2.0000      -0.707081       -19.2406
  35   2.0000      -0.697538       -18.9810
  36   2.0000      -0.687671       -18.7125
  37   2.0000      -0.659392       -17.9430
  38   2.0000      -0.642697       -17.4887
  39   2.0000      -0.621129       -16.9018
  40   2.0000      -0.600905       -16.3514
  41   2.0000      -0.576451       -15.6860
  42   2.0000      -0.556265       -15.1367
  43   2.0000      -0.550315       -14.9748
  44   2.0000      -0.543867       -14.7994
  45   2.0000      -0.529554       -14.4099
  46   2.0000      -0.519043       -14.1239
  47   2.0000      -0.508093       -13.8259
  48   2.0000      -0.502746       -13.6804
  49   2.0000      -0.500684       -13.6243
  50   2.0000      -0.489188       -13.3115
  51   2.0000      -0.479869       -13.0579
  52   2.0000      -0.473835       -12.8937
  53   2.0000      -0.467682       -12.7263
  54   2.0000      -0.463260       -12.6059
  55   2.0000      -0.445437       -12.1210
  56   2.0000      -0.443537       -12.0692
  57   2.0000      -0.436893       -11.8885
  58   2.0000      -0.432130       -11.7588
  59   2.0000      -0.425408       -11.5759
  60   2.0000      -0.418073       -11.3763
  61   2.0000      -0.411973       -11.2104
  62   2.0000      -0.406012       -11.0481
  63   2.0000      -0.352789        -9.5999
  64   2.0000      -0.331313        -9.0155
  65   2.0000      -0.329676        -8.9709
  66   2.0000      -0.295594        -8.0435
  67   0.0000       0.034073         0.9272
  68   0.0000       0.076997         2.0952
  69   0.0000       0.114146         3.1061
  70   0.0000       0.122996         3.3469
  71   0.0000       0.132238         3.5984

MULLIKEN ATOMIC CHARGES
-----------------------
   0 S :    0.106488
   1 C :   -0.114918
   2 C :   -0.057837
   3 C :   -0.013868
   4 C :   -0.119145
   5 H :    0.041757
   6 C :    0.015677
   7 H :    0.040469
   8 H :    0.015045
   9 C :   -0.014848
  10 H :    0.000327
  11 H :    0.024133
  12 C :   -0.055821
  13 H :    0.031326
  14 H :    0.049321
  15 H :    0.023047
  16 S :    0.107840
  17 C :   -0.120684
  18 C :   -0.009093
  19 C :   -0.058156
  20 C :   -0.165290
  21 H :    0.009807
  22 C :    0.113535
  23 H :    0.029710
  24 H :   -0.009066
  25 C :   -0.106743
  26 H :    0.022493
  27 H :    0.026322
  28 C :   -0.031442
  29 H :    0.052250
  30 H :    0.024082
  31 H :    0.031632
  32 H :    0.033477
  33 H :    0.078173
Sum of atomic charges:    0.0000000

LOEWDIN ATOMIC CHARGES
----------------------
   0 S :    0.412938
   1 C :   -0.186538
   2 C :   -0.063176
   3 C :   -0.076379
   4 C :   -0.202995
   5 H :    0.041091
   6 C :   -0.029156
   7 H :    0.036919
   8 H :    0.025716
   9 C :   -0.028351
  10 H :    0.005576
  11 H :    0.022721
  12 C :   -0.059824
  13 H :    0.023836
  14 H :    0.034561
  15 H :    0.018836
  16 S :    0.433326
  17 C :   -0.199332
  18 C :   -0.070067
  19 C :   -0.058958
  20 C :   -0.208508
  21 H :    0.026617
  22 C :   -0.035452
  23 H :    0.038759
  24 H :    0.022428
  25 C :   -0.046134
  26 H :    0.019314
  27 H :    0.028552
  28 C :   -0.066798
  29 H :    0.030657
  30 H :    0.021544
  31 H :    0.030843
  32 H :    0.017871
  33 H :    0.039566

  Mayer bond orders larger than 0.100000
B(  0-S ,  1-C ) :   1.1363 B(  0-S ,  4-C ) :   1.1480 B(  1-C ,  2-C ) :   1.6105
B(  1-C , 32-H ) :   0.9732 B(  2-C ,  3-C ) :   1.2523 B(  2-C ,  6-C ) :   1.0196
B(  3-C ,  4-C ) :   1.6017 B(  3-C ,  5-H ) :   0.9749 B(  4-C , 20-C ) :   1.0048
B(  6-C ,  7-H ) :   0.9517 B(  6-C ,  8-H ) :   0.9508 B(  6-C ,  9-C ) :   1.0449
B(  9-C , 10-H ) :   0.9541 B(  9-C , 11-H ) :   0.9623 B(  9-C , 12-C ) :   1.0774
B( 12-C , 13-H ) :   0.9750 B( 12-C , 14-H ) :   0.9748 B( 12-C , 15-H ) :   0.9777
B( 16-S , 17-C ) :   1.1712 B( 16-S , 20-C ) :   1.1613 B( 17-C , 18-C ) :   1.5904
B( 17-C , 33-H ) :   0.9625 B( 18-C , 19-C ) :   1.2515 B( 18-C , 21-H ) :   0.9966
B( 19-C , 20-C ) :   1.5927 B( 19-C , 22-C ) :   1.0597 B( 22-C , 23-H ) :   0.9262
B( 22-C , 24-H ) :   0.9151 B( 22-C , 25-C ) :   1.0867 B( 25-C , 26-H ) :   0.9516
B( 25-C , 27-H ) :   0.9517 B( 25-C , 28-C ) :   1.0897 B( 28-C , 29-H ) :   0.9693
B( 28-C , 30-H ) :   0.9695 B( 28-C , 31-H ) :   0.9697

Dispersion correction           -0.015383906
FINAL SINGLE POINT ENERGY     -1339.881177361656

DIPOLE MOMENT
-------------
                                X             Y             Z
Electronic contribution:    -24.64919      -2.52317       7.86572
Nuclear contribution   :     25.08757       2.79803      -8.00003
                        -----------------------------------------
Total Dipole Moment    :      0.43839       0.27487      -0.13431
                        -----------------------------------------
Magnitude (a.u.)       :      0.53458
Magnitude (Debye)      :      1.35879

Rotational constants in cm-1:     0.023414     0.008416     0.007225
Rotational constants in MHz :   701.938594   252.315614   216.598555

                             ****ORCA TERMINATED NORMALLY****
TOTAL RUN TIME: 0 days 0 hours 0 minutes 31 seconds 695 msec
