                         Program Version 4.2.1 -  RELEASE  -
|  1> ! wB97X-D3 SP def2-SVP
|  2> %pal
|  3> nprocs 16
|  4> end
|  5>
|  6> * xyz 0 1
|  7> S 	 33.0748 	 18.1321 	 48.0672
|  8> C 	 32.8943 	 19.2309 	 49.492
|  9> C 	 32.7046 	 18.5307 	 50.6765
| 10> C 	 32.7337 	 17.1054 	 50.4312
| 11> C 	 32.9867 	 16.7437 	 49.0992
| 12> H 	 32.5301 	 16.3267 	 51.1456
| 13> C 	 32.5606 	 19.1805 	 52.091
| 14> H 	 31.8356 	 18.7321 	 52.7767
| 15> H 	 32.2701 	 20.1576 	 51.8641
| 16> C 	 33.8782 	 19.3981 	 52.9022
| 17> H 	 34.2513 	 18.4196 	 53.0031
| 18> H 	 34.5828 	 20.0486 	 52.3489
| 19> C 	 33.6412 	 19.8561 	 54.3351
| 20> H 	 33.0765 	 20.8418 	 54.3729
| 21> H 	 33.0421 	 19.1064 	 54.7409
| 22> H 	 34.5577 	 19.8855 	 54.8796
| 23> S 	 32.1039 	 15.1035 	 47.0475
| 24> C 	 32.5277 	 13.3864 	 47.1975
| 25> C 	 33.1696 	 13.0128 	 48.3285
| 26> C 	 33.5475 	 14.2137 	 49.0722
| 27> C 	 32.9421 	 15.3833 	 48.5969
| 28> H 	 33.423 	 12.0232 	 48.4942
| 29> C 	 34.2564 	 14.0532 	 50.3993
| 30> H 	 33.6644 	 13.4398 	 51.0724
| 31> H 	 34.323 	 15.0519 	 50.9
| 32> C 	 35.6688 	 13.4687 	 50.2674
| 33> H 	 35.6628 	 12.6188 	 49.617
| 34> H 	 36.0403 	 12.9925 	 51.1561
| 35> C 	 36.6194 	 14.4055 	 49.4758
| 36> H 	 36.6784 	 15.3633 	 50.0196
| 37> H 	 36.2517 	 14.497 	 48.4828
| 38> H 	 37.5779 	 13.8914 	 49.399
| 39> H 	 32.8844 	 20.301 	 49.4946
| 40> H 	 32.1917 	 12.6043 	 46.5295
| 41> *
| 42>
| 43>                          ****END OF INPUT****

CARTESIAN COORDINATES (ANGSTROEM)
---------------------------------
  S     33.074800   18.132100   48.067200
  C     32.894300   19.230900   49.492000
  C     32.704600   18.530700   50.676500
  C     32.733700   17.105400   50.431200
  C     32.986700   16.743700   49.099200
  H     32.530100   16.326700   51.145600
  C     32.560600   19.180500   52.091000
  H     31.835600   18.732100   52.776700
  H     32.270100   20.157600   51.864100
  C     33.878200   19.398100   52.902200
  H     34.251300   18.419600   53.003100
  H     34.582800   20.048600   52.348900
  C     33.641200   19.856100   54.335100
  H     33.076500   20.841800   54.372900
  H     33.042100   19.106400   54.740900
  H     34.557700   19.885500   54.879600
  S     32.103900   15.103500   47.047500
  C     32.527700   13.386400   47.197500
  C     33.169600   13.012800   48.328500
  C     33.547500   14.213700   49.072200
  C     32.942100   15.383300   48.596900
  H     33.423000   12.023200   48.494200
  C     34.256400   14.053200   50.399300
  H     33.664400   13.439800   51.072400
  H     34.323000   15.051900   50.900000
  C     35.668800   13.468700   50.267400
  H     35.662800   12.618800   49.617000
  H     36.040300   12.992500   51.156100
  C     36.619400   14.405500   49.475800
  H     36.678400   15.363300   50.019600
  H     36.251700   14.497000   48.482800
  H     37.577900   13.891400   49.399000
  H     32.884400   20.301000   49.494600
  H     32.191700   12.604300   46.529500

 Total Charge           Charge          ....    0
 Multiplicity           Mult            ....    1
 Number of Electrons    NEL             ....  134
 Basis Dimension        Dim             ....  322

ORBITAL ENERGIES
----------------

  NO   OCC          E(Eh)            E(eV)
   0   2.0000     -88.971905     -2421.0486
   1   2.0000     -88.967789     -2420.9366
   2   2.0000     -10.331182      -281.1258
   3   2.0000     -10.330998      -281.1207
   4   2.0000     -10.319725      -280.8140
   5   2.0000     -10.316955      -280.7386
   6   2.0000     -10.310143      -280.5533
   7   2.0000     -10.308035      -280.4959
   8   2.0000     -10.295679      -280.1597
   9   2.0000     -10.294612      -280.1306
  10   2.0000     -10.291424      -280.0439
  11   2.0000     -10.291173      -280.0370
  12   2.0000     -10.283987      -279.8415
  13   2.0000     -10.278740      -279.6987
  14   2.0000     -10.277392      -279.6621
  15   2.0000     -10.271368      -279.4981
  16   2.0000      -8.085687      -220.0227
  17   2.0000      -8.081767      -219.9161
  18   2.0000      -6.044365      -164.4755
  19   2.0000      -6.040433      -164.3685
  20   2.0000      -6.040387      -164.3673
  21   2.0000      -6.036619      -164.2648
  22   2.0000      -6.036266      -164.2552
  23   2.0000      -6.032177      -164.1439
  24   2.0000      -1.002008       -27.2660
  25   2.0000      -0.977256       -26.5925
  26   2.0000      -0.912444       -24.8289
  27   2.0000      -0.907058       -24.6823
  28   2.0000      -0.873343       -23.7649
  29   2.0000      -0.848328       -23.0842
  30   2.0000      -0.843333       -22.9483
  31   2.0000      -0.814137       -22.1538
  32   2.0000      -0.785360       -21.3707
  33   2.0000      -0.771306       -20.9883
  34   2.0000      -0.708504       -19.2794
  35   2.0000      -0.695987       -18.9388
  36   2.0000      -0.693499       -18.8711
  37   2.0000      -0.660723       -17.9792
  38   2.0000      -0.640170       -17.4199
  39   2.0000      -0.618638       -16.8340
  40   2.0000      -0.594687       -16.1823
  41   2.0000      -0.580026       -15.7833
  42   2.0000      -0.566934       -15.4271
  43   2.0000      -0.554054       -15.0766
  44   2.0000      -0.540418       -14.7055
  45   2.0000      -0.523279       -14.2391
  46   2.0000      -0.517979       -14.0949
  47   2.0000      -0.506843       -13.7919
  48   2.0000      -0.500746       -13.6260
  49   2.0000      -0.498390       -13.5619
  50   2.0000      -0.490486       -13.3468
  51   2.0000      -0.478325       -13.0159
  52   2.0000      -0.467302       -12.7159
  53   2.0000      -0.462180       -12.5766
  54   2.0000      -0.459879       -12.5139
  55   2.0000      -0.449944       -12.2436
  56   2.0000      -0.447539       -12.1782
  57   2.0000      -0.436339       -11.8734
  58   2.0000      -0.433708       -11.8018
  59   2.0000      -0.431534       -11.7426
  60   2.0000      -0.424156       -11.5419
  61   2.0000      -0.417207       -11.3528
  62   2.0000      -0.404913       -11.0182
  63   2.0000      -0.352172        -9.5831
  64   2.0000      -0.333489        -9.0747
  65   2.0000      -0.331808        -9.0290
  66   2.0000      -0.287887        -7.8338
  67   0.0000       0.024741         0.6732
  68   0.0000       0.073735         2.0064
  69   0.0000       0.095695         2.6040
  70   0.0000       0.115472         3.1422
  71   0.0000       0.125811         3.4235

MULLIKEN ATOMIC CHARGES
-----------------------
   0 S :    0.111026
   1 C :   -0.113164
   2 C :   -0.073963
   3 C :    0.011036
   4 C :   -0.134838
   5 H :    0.016229
   6 C :    0.076425
   7 H :    0.029258
   8 H :   -0.001221
   9 C :   -0.074077
  10 H :    0.012934
  11 H :    0.035093
  12 C :   -0.025588
  13 H :    0.039327
  14 H :    0.012442
  15 H :    0.037823
  16 S :    0.096646
  17 C :   -0.075395
  18 C :    0.001205
  19 C :   -0.063621
  20 C :   -0.140556
  21 H :    0.002629
  22 C :    0.049860
  23 H :    0.033779
  24 H :    0.025468
  25 C :   -0.071291
  26 H :    0.002976
  27 H :    0.018558
  28 C :   -0.040366
  29 H :    0.041831
  30 H :    0.041520
  31 H :    0.031126
  32 H :    0.037003
  33 H :    0.049886
Sum of atomic charges:    0.0000000

LOEWDIN ATOMIC CHARGES
----------------------
   0 S :    0.394257
   1 C :   -0.179472
   2 C :   -0.052792
   3 C :   -0.064345
   4 C :   -0.198141
   5 H :    0.027561
   6 C :   -0.024377
   7 H :    0.030961
   8 H :    0.019112
   9 C :   -0.034556
  10 H :    0.015461
  11 H :    0.024119
  12 C :   -0.058869
  13 H :    0.031016
  14 H :    0.016085
  15 H :    0.026454
  16 S :    0.371173
  17 C :   -0.165702
  18 C :   -0.057552
  19 C :   -0.047905
  20 C :   -0.186118
  21 H :    0.023413
  22 C :   -0.036644
  23 H :    0.030824
  24 H :    0.030451
  25 C :   -0.045661
  26 H :    0.016982
  27 H :    0.019756
  28 C :   -0.054867
  29 H :    0.026628
  30 H :    0.024416
  31 H :    0.026536
  32 H :    0.024203
  33 H :    0.027592

  Mayer bond orders larger than 0.100000
B(  0-S ,  1-C ) :   1.1191 B(  0-S ,  4-C ) :   1.1426 B(  1-C ,  2-C ) :   1.6345
B(  1-C , 32-H ) :   0.9656 B(  2-C ,  3-C ) :   1.2284 B(  2-C ,  6-C ) :   1.0213
B(  3-C ,  4-C ) :   1.5646 B(  3-C ,  5-H ) :   0.9900 B(  4-C , 20-C ) :   1.0693
B(  6-C ,  7-H ) :   0.9490 B(  6-C ,  8-H ) :   0.9318 B(  6-C ,  9-C ) :   1.0600
B(  9-C , 10-H ) :   0.9574 B(  9-C , 11-H ) :   0.9574 B(  9-C , 12-C ) :   1.0830
B( 12-C , 13-H ) :   0.9759 B( 12-C , 14-H ) :   0.9722 B( 12-C , 15-H ) :   0.9722
B( 16-S , 17-C ) :   1.1281 B( 16-S , 20-C ) :   1.1040 B( 17-C , 18-C ) :   1.6839
B( 17-C , 33-H ) :   0.9589 B( 18-C , 19-C ) :   1.1733 B( 18-C , 21-H ) :   0.9948
B( 19-C , 20-C ) :   1.6263 B( 19-C , 22-C ) :   1.0467 B( 22-C , 23-H ) :   0.9389
B( 22-C , 24-H ) :   0.9355 B( 22-C , 25-C ) :   1.0665 B( 25-C , 26-H ) :   0.9560
B( 25-C , 27-H ) :   0.9573 B( 25-C , 28-C ) :   1.0643 B( 28-C , 29-H ) :   0.9794
B( 28-C , 30-H ) :   0.9740 B( 28-C , 31-H ) :   0.9738

Dispersion correction           -0.014025498
FINAL SINGLE POINT ENERGY     -1339.867327705484

DIPOLE MOMENT
-------------
                                X             Y             Z
Electronic contribution:    -13.25681      -1.60026     -25.77079
Nuclear contribution   :     13.37334       1.32417      26.42556
                        -----------------------------------------
Total Dipole Moment    :      0.11653      -0.27609       0.65477
                        -----------------------------------------
Magnitude (a.u.)       :      0.72009
Magnitude (Debye)      :      1.83032

Rotational constants in cm-1:     0.019471     0.008229     0.006532
Rotational constants in MHz :   583.725279   246.689908   195.838142

                             ****ORCA TERMINATED NORMALLY****
TOTAL RUN TIME: 0 days 0 hours 0 minutes 37 seconds 604 msec
