                         Program Version 4.2.1 -  RELEASE  -
|  1> ! wB97X-D3 SP def2-SVP
|  2> %pal
|  3> nprocs 16
|  4> end
|  5>
|  6> * xyz 0 1
|  7> S 	 60.685 	 9.61526 	 75.7677
|  8> C 	 61.0682 	 10.5605 	 77.2155
|  9> C 	 60.1557 	 10.1385 	 78.1628
| 10> C 	 59.244 	 9.14727 	 77.8144
| 11> C 	 59.3664 	 8.69963 	 76.5517
| 12> H 	 58.4158 	 8.77018 	 78.4725
| 13> C 	 60.1 	 10.8104 	 79.5195
| 14> H 	 59.1639 	 11.4165 	 79.4889
| 15> H 	 60.993 	 11.3311 	 79.5688
| 16> C 	 59.7793 	 9.91417 	 80.7367
| 17> H 	 58.8161 	 9.44589 	 80.6565
| 18> H 	 60.4034 	 9.01112 	 80.7249
| 19> C 	 60.0353 	 10.4725 	 82.0892
| 20> H 	 59.3894 	 11.3114 	 82.2729
| 21> H 	 59.7533 	 9.79046 	 82.9121
| 22> H 	 61.0105 	 10.7301 	 82.2687
| 23> S 	 57.4919 	 8.63495 	 74.6133
| 24> C 	 57.0268 	 7.08482 	 73.911
| 25> C 	 57.6769 	 6.06987 	 74.5131
| 26> C 	 58.5675 	 6.50227 	 75.5613
| 27> C 	 58.4617 	 7.83831 	 75.7984
| 28> H 	 57.6171 	 5.03909 	 74.2957
| 29> C 	 59.6996 	 5.61595 	 76.1793
| 30> H 	 59.3915 	 4.5611 	 76.1763
| 31> H 	 59.7629 	 5.89831 	 77.2031
| 32> C 	 61.1246 	 5.87539 	 75.4295
| 33> H 	 61.5067 	 6.86749 	 75.5738
| 34> H 	 60.9639 	 5.7245 	 74.3791
| 35> C 	 62.1864 	 4.80985 	 75.8547
| 36> H 	 62.6038 	 4.87351 	 76.8762
| 37> H 	 63.0374 	 4.98281 	 75.2218
| 38> H 	 61.9198 	 3.79921 	 75.6632
| 39> H 	 61.8494 	 11.3815 	 77.4084
| 40> H 	 56.2586 	 6.99767 	 73.2529
| 41> *
| 42>
| 43>                          ****END OF INPUT****

CARTESIAN COORDINATES (ANGSTROEM)
---------------------------------
  S     60.685000    9.615260   75.767700
  C     61.068200   10.560500   77.215500
  C     60.155700   10.138500   78.162800
  C     59.244000    9.147270   77.814400
  C     59.366400    8.699630   76.551700
  H     58.415800    8.770180   78.472500
  C     60.100000   10.810400   79.519500
  H     59.163900   11.416500   79.488900
  H     60.993000   11.331100   79.568800
  C     59.779300    9.914170   80.736700
  H     58.816100    9.445890   80.656500
  H     60.403400    9.011120   80.724900
  C     60.035300   10.472500   82.089200
  H     59.389400   11.311400   82.272900
  H     59.753300    9.790460   82.912100
  H     61.010500   10.730100   82.268700
  S     57.491900    8.634950   74.613300
  C     57.026800    7.084820   73.911000
  C     57.676900    6.069870   74.513100
  C     58.567500    6.502270   75.561300
  C     58.461700    7.838310   75.798400
  H     57.617100    5.039090   74.295700
  C     59.699600    5.615950   76.179300
  H     59.391500    4.561100   76.176300
  H     59.762900    5.898310   77.203100
  C     61.124600    5.875390   75.429500
  H     61.506700    6.867490   75.573800
  H     60.963900    5.724500   74.379100
  C     62.186400    4.809850   75.854700
  H     62.603800    4.873510   76.876200
  H     63.037400    4.982810   75.221800
  H     61.919800    3.799210   75.663200
  H     61.849400   11.381500   77.408400
  H     56.258600    6.997670   73.252900

 Total Charge           Charge          ....    0
 Multiplicity           Mult            ....    1
 Number of Electrons    NEL             ....  134
 Basis Dimension        Dim             ....  322

ORBITAL ENERGIES
----------------

  NO   OCC          E(Eh)            E(eV)
   0   2.0000     -88.963677     -2420.8247
   1   2.0000     -88.962162     -2420.7835
   2   2.0000     -10.327697      -281.0309
   3   2.0000     -10.321522      -280.8629
   4   2.0000     -10.318479      -280.7801
   5   2.0000     -10.312016      -280.6042
   6   2.0000     -10.301399      -280.3153
   7   2.0000     -10.296007      -280.1686
   8   2.0000     -10.294396      -280.1248
   9   2.0000     -10.290360      -280.0149
  10   2.0000     -10.290170      -280.0098
  11   2.0000     -10.288116      -279.9539
  12   2.0000     -10.286739      -279.9164
  13   2.0000     -10.281018      -279.7607
  14   2.0000     -10.272166      -279.5199
  15   2.0000     -10.268501      -279.4201
  16   2.0000      -8.077538      -219.8010
  17   2.0000      -8.077014      -219.7867
  18   2.0000      -6.036131      -164.2515
  19   2.0000      -6.035713      -164.2401
  20   2.0000      -6.031959      -164.1379
  21   2.0000      -6.031579      -164.1276
  22   2.0000      -6.028157      -164.0345
  23   2.0000      -6.027727      -164.0228
  24   2.0000      -1.011048       -27.5120
  25   2.0000      -0.987841       -26.8805
  26   2.0000      -0.913258       -24.8510
  27   2.0000      -0.891622       -24.2623
  28   2.0000      -0.875566       -23.8254
  29   2.0000      -0.848559       -23.0905
  30   2.0000      -0.845357       -23.0033
  31   2.0000      -0.824877       -22.4460
  32   2.0000      -0.779039       -21.1987
  33   2.0000      -0.769048       -20.9269
  34   2.0000      -0.714853       -19.4521
  35   2.0000      -0.700971       -19.0744
  36   2.0000      -0.692849       -18.8534
  37   2.0000      -0.670281       -18.2393
  38   2.0000      -0.636006       -17.3066
  39   2.0000      -0.619083       -16.8461
  40   2.0000      -0.597406       -16.2562
  41   2.0000      -0.575505       -15.6603
  42   2.0000      -0.563556       -15.3351
  43   2.0000      -0.557576       -15.1724
  44   2.0000      -0.530164       -14.4265
  45   2.0000      -0.518727       -14.1153
  46   2.0000      -0.514329       -13.9956
  47   2.0000      -0.511441       -13.9170
  48   2.0000      -0.508153       -13.8275
  49   2.0000      -0.504281       -13.7222
  50   2.0000      -0.490747       -13.3539
  51   2.0000      -0.479976       -13.0608
  52   2.0000      -0.476588       -12.9686
  53   2.0000      -0.463875       -12.6227
  54   2.0000      -0.460709       -12.5365
  55   2.0000      -0.449572       -12.2335
  56   2.0000      -0.446427       -12.1479
  57   2.0000      -0.436225       -11.8703
  58   2.0000      -0.432957       -11.7814
  59   2.0000      -0.425334       -11.5739
  60   2.0000      -0.415041       -11.2939
  61   2.0000      -0.412289       -11.2189
  62   2.0000      -0.400881       -10.9085
  63   2.0000      -0.342732        -9.3262
  64   2.0000      -0.330710        -8.9991
  65   2.0000      -0.323686        -8.8079
  66   2.0000      -0.306112        -8.3297
  67   0.0000       0.043378         1.1804
  68   0.0000       0.053019         1.4427
  69   0.0000       0.119625         3.2552
  70   0.0000       0.127339         3.4651
  71   0.0000       0.130233         3.5438

MULLIKEN ATOMIC CHARGES
-----------------------
   0 S :    0.094588
   1 C :   -0.152246
   2 C :   -0.111450
   3 C :    0.025852
   4 C :   -0.143613
   5 H :    0.034346
   6 C :    0.125352
   7 H :    0.045935
   8 H :   -0.005606
   9 C :   -0.110836
  10 H :    0.020358
  11 H :    0.016122
  12 C :    0.005519
  13 H :    0.013700
  14 H :    0.026665
  15 H :    0.014809
  16 S :    0.100615
  17 C :   -0.041802
  18 C :    0.008028
  19 C :   -0.076319
  20 C :   -0.169442
  21 H :   -0.000222
  22 C :    0.089524
  23 H :    0.021414
  24 H :    0.022599
  25 C :   -0.057334
  26 H :    0.036185
  27 H :    0.028224
  28 C :   -0.044781
  29 H :    0.036626
  30 H :    0.021236
  31 H :    0.020593
  32 H :    0.082471
  33 H :    0.022887
Sum of atomic charges:    0.0000000

LOEWDIN ATOMIC CHARGES
----------------------
   0 S :    0.385930
   1 C :   -0.213034
   2 C :   -0.070739
   3 C :   -0.071845
   4 C :   -0.176659
   5 H :    0.044729
   6 C :   -0.022642
   7 H :    0.043200
   8 H :    0.016411
   9 C :   -0.050375
  10 H :    0.019605
  11 H :    0.022494
  12 C :   -0.056146
  13 H :    0.020183
  14 H :    0.033548
  15 H :    0.013433
  16 S :    0.408910
  17 C :   -0.153057
  18 C :   -0.062805
  19 C :   -0.049935
  20 C :   -0.215345
  21 H :    0.025148
  22 C :   -0.023912
  23 H :    0.027596
  24 H :    0.025647
  25 C :   -0.023508
  26 H :    0.015048
  27 H :    0.022877
  28 C :   -0.068575
  29 H :    0.027345
  30 H :    0.025044
  31 H :    0.017527
  32 H :    0.054933
  33 H :    0.008970

  Mayer bond orders larger than 0.100000
B(  0-S ,  1-C ) :   1.1161 B(  0-S ,  4-C ) :   1.1414 B(  1-C ,  2-C ) :   1.6149
B(  1-C , 32-H ) :   0.9574 B(  2-C ,  3-C ) :   1.2385 B(  2-C ,  6-C ) :   1.0319
B(  3-C ,  4-C ) :   1.6059 B(  3-C ,  5-H ) :   0.9854 B(  4-C , 20-C ) :   0.9953
B(  6-C ,  7-H ) :   0.9306 B(  6-C ,  8-H ) :   0.9419 B(  6-C ,  9-C ) :   1.0571
B(  9-C , 10-H ) :   0.9458 B(  9-C , 11-H ) :   0.9563 B(  9-C , 12-C ) :   1.1047
B( 12-C , 13-H ) :   0.9698 B( 12-C , 14-H ) :   0.9676 B( 12-C , 15-H ) :   0.9732
B( 16-S , 17-C ) :   1.1457 B( 16-S , 20-C ) :   1.1488 B( 17-C , 18-C ) :   1.6037
B( 17-C , 33-H ) :   0.9815 B( 18-C , 19-C ) :   1.2467 B( 18-C , 21-H ) :   0.9974
B( 19-C , 20-C ) :   1.6225 B( 19-C , 22-C ) :   1.0452 B( 22-C , 23-H ) :   0.9440
B( 22-C , 24-H ) :   0.9293 B( 22-C , 25-C ) :   1.0438 B( 25-C , 26-H ) :   0.9541
B( 25-C , 27-H ) :   0.9603 B( 25-C , 28-C ) :   1.0831 B( 28-C , 29-H ) :   0.9770
B( 28-C , 30-H ) :   0.9730 B( 28-C , 31-H ) :   0.9768

Dispersion correction           -0.014297907
FINAL SINGLE POINT ENERGY     -1339.856014921529

DIPOLE MOMENT
-------------
                                X             Y             Z
Electronic contribution:    -10.86494       7.69347     -20.73145
Nuclear contribution   :     10.91291      -7.95614      21.11178
                        -----------------------------------------
Total Dipole Moment    :      0.04797      -0.26267       0.38033
                        -----------------------------------------
Magnitude (a.u.)       :      0.46470
Magnitude (Debye)      :      1.18118

Rotational constants in cm-1:     0.018729     0.008136     0.007146
Rotational constants in MHz :   561.472225   243.919964   214.230025

                             ****ORCA TERMINATED NORMALLY****
TOTAL RUN TIME: 0 days 0 hours 0 minutes 30 seconds 606 msec
