                         Program Version 4.2.1 -  RELEASE  -
|  1> ! wB97X-D3 SP def2-SVP
|  2> %pal
|  3> nprocs 16
|  4> end
|  5>
|  6> * xyz 0 1
|  7> S 	 54.6192 	 3.26219 	 84.052
|  8> C 	 53.6849 	 4.73715 	 83.6732
|  9> C 	 52.7464 	 4.52058 	 82.7413
| 10> C 	 52.7092 	 3.13085 	 82.2652
| 11> C 	 53.5077 	 2.27748 	 83.0407
| 12> H 	 52.0981 	 2.57318 	 81.4907
| 13> C 	 51.7068 	 5.50063 	 82.1765
| 14> H 	 51.9441 	 5.7111 	 81.1157
| 15> H 	 51.7269 	 6.48672 	 82.6199
| 16> C 	 50.204 	 5.26748 	 82.4999
| 17> H 	 49.9148 	 4.23253 	 82.1911
| 18> H 	 49.9835 	 5.42974 	 83.5268
| 19> C 	 49.4543 	 6.26752 	 81.7049
| 20> H 	 48.4323 	 5.97171 	 81.5798
| 21> H 	 49.4531 	 7.19014 	 82.2887
| 22> H 	 49.7099 	 6.57616 	 80.6704
| 23> S 	 54.06 	 -0.0361 	 84.2731
| 24> C 	 54.0207 	 -1.53023 	 83.4815
| 25> C 	 53.7096 	 -1.38088 	 82.1382
| 26> C 	 53.5159 	 -0.0139755 	 81.7668
| 27> C 	 53.6449 	 0.86474 	 82.826
| 28> H 	 53.5815 	 -2.19909 	 81.4369
| 29> C 	 53.2369 	 0.279042 	 80.3415
| 30> H 	 53.8045 	 1.22274 	 80.1213
| 31> H 	 52.189 	 0.674203 	 80.2357
| 32> C 	 53.7673 	 -0.679444 	 79.2295
| 33> H 	 53.3551 	 -1.68407 	 79.3523
| 34> H 	 54.8304 	 -0.764018 	 79.395
| 35> C 	 53.2809 	 -0.255448 	 77.8493
| 36> H 	 52.1962 	 -0.37274 	 77.7603
| 37> H 	 53.5184 	 -0.879602 	 76.9604
| 38> H 	 53.4333 	 0.809089 	 77.6464
| 39> H 	 53.801 	 5.68034 	 84.2333
| 40> H 	 54.2652 	 -2.44792 	 84.0189
| 41> *
| 42>
| 43>                          ****END OF INPUT****

CARTESIAN COORDINATES (ANGSTROEM)
---------------------------------
  S     54.619200    3.262190   84.052000
  C     53.684900    4.737150   83.673200
  C     52.746400    4.520580   82.741300
  C     52.709200    3.130850   82.265200
  C     53.507700    2.277480   83.040700
  H     52.098100    2.573180   81.490700
  C     51.706800    5.500630   82.176500
  H     51.944100    5.711100   81.115700
  H     51.726900    6.486720   82.619900
  C     50.204000    5.267480   82.499900
  H     49.914800    4.232530   82.191100
  H     49.983500    5.429740   83.526800
  C     49.454300    6.267520   81.704900
  H     48.432300    5.971710   81.579800
  H     49.453100    7.190140   82.288700
  H     49.709900    6.576160   80.670400
  S     54.060000   -0.036100   84.273100
  C     54.020700   -1.530230   83.481500
  C     53.709600   -1.380880   82.138200
  C     53.515900   -0.013976   81.766800
  C     53.644900    0.864740   82.826000
  H     53.581500   -2.199090   81.436900
  C     53.236900    0.279042   80.341500
  H     53.804500    1.222740   80.121300
  H     52.189000    0.674203   80.235700
  C     53.767300   -0.679444   79.229500
  H     53.355100   -1.684070   79.352300
  H     54.830400   -0.764018   79.395000
  C     53.280900   -0.255448   77.849300
  H     52.196200   -0.372740   77.760300
  H     53.518400   -0.879602   76.960400
  H     53.433300    0.809089   77.646400
  H     53.801000    5.680340   84.233300
  H     54.265200   -2.447920   84.018900

 Total Charge           Charge          ....    0
 Multiplicity           Mult            ....    1
 Number of Electrons    NEL             ....  134
 Basis Dimension        Dim             ....  322

ORBITAL ENERGIES
----------------

  NO   OCC          E(Eh)            E(eV)
   0   2.0000     -88.963293     -2420.8143
   1   2.0000     -88.962408     -2420.7902
   2   2.0000     -10.332892      -281.1723
   3   2.0000     -10.324290      -280.9382
   4   2.0000     -10.316763      -280.7334
   5   2.0000     -10.315246      -280.6921
   6   2.0000     -10.305133      -280.4169
   7   2.0000     -10.304260      -280.3932
   8   2.0000     -10.301978      -280.3311
   9   2.0000     -10.299313      -280.2585
  10   2.0000     -10.295700      -280.1602
  11   2.0000     -10.293271      -280.0942
  12   2.0000     -10.293107      -280.0897
  13   2.0000     -10.287122      -279.9268
  14   2.0000     -10.284515      -279.8559
  15   2.0000     -10.274432      -279.5815
  16   2.0000      -8.078598      -219.8298
  17   2.0000      -8.076903      -219.7837
  18   2.0000      -6.036982      -164.2746
  19   2.0000      -6.035777      -164.2419
  20   2.0000      -6.032746      -164.1594
  21   2.0000      -6.031774      -164.1329
  22   2.0000      -6.029559      -164.0726
  23   2.0000      -6.027117      -164.0062
  24   2.0000      -1.009216       -27.4622
  25   2.0000      -0.979958       -26.6660
  26   2.0000      -0.916060       -24.9273
  27   2.0000      -0.913800       -24.8657
  28   2.0000      -0.876353       -23.8468
  29   2.0000      -0.857771       -23.3411
  30   2.0000      -0.840740       -22.8777
  31   2.0000      -0.810382       -22.0516
  32   2.0000      -0.780779       -21.2461
  33   2.0000      -0.772302       -21.0154
  34   2.0000      -0.716962       -19.5095
  35   2.0000      -0.700411       -19.0591
  36   2.0000      -0.696457       -18.9515
  37   2.0000      -0.661020       -17.9873
  38   2.0000      -0.637894       -17.3580
  39   2.0000      -0.615776       -16.7561
  40   2.0000      -0.603859       -16.4318
  41   2.0000      -0.569260       -15.4903
  42   2.0000      -0.567244       -15.4355
  43   2.0000      -0.562536       -15.3074
  44   2.0000      -0.528104       -14.3704
  45   2.0000      -0.522305       -14.2126
  46   2.0000      -0.518862       -14.1190
  47   2.0000      -0.510407       -13.8889
  48   2.0000      -0.507281       -13.8038
  49   2.0000      -0.498930       -13.5766
  50   2.0000      -0.496698       -13.5158
  51   2.0000      -0.476090       -12.9551
  52   2.0000      -0.471057       -12.8181
  53   2.0000      -0.466368       -12.6905
  54   2.0000      -0.461643       -12.5620
  55   2.0000      -0.456456       -12.4208
  56   2.0000      -0.445583       -12.1249
  57   2.0000      -0.436631       -11.8813
  58   2.0000      -0.431974       -11.7546
  59   2.0000      -0.420904       -11.4534
  60   2.0000      -0.416912       -11.3447
  61   2.0000      -0.414721       -11.2851
  62   2.0000      -0.402272       -10.9464
  63   2.0000      -0.356911        -9.7120
  64   2.0000      -0.330126        -8.9832
  65   2.0000      -0.326670        -8.8891
  66   2.0000      -0.287330        -7.8187
  67   0.0000       0.023885         0.6499
  68   0.0000       0.077309         2.1037
  69   0.0000       0.110004         2.9934
  70   0.0000       0.122826         3.3423
  71   0.0000       0.134076         3.6484

MULLIKEN ATOMIC CHARGES
-----------------------
   0 S :    0.086136
   1 C :   -0.130366
   2 C :   -0.017197
   3 C :   -0.032210
   4 C :   -0.104631
   5 H :    0.030713
   6 C :    0.013963
   7 H :    0.045736
   8 H :    0.000960
   9 C :   -0.035402
  10 H :    0.031948
  11 H :    0.034890
  12 C :   -0.065352
  13 H :    0.024596
  14 H :    0.025877
  15 H :    0.032242
  16 S :    0.103817
  17 C :   -0.080606
  18 C :   -0.041418
  19 C :   -0.024193
  20 C :   -0.165250
  21 H :    0.014847
  22 C :   -0.036032
  23 H :    0.038188
  24 H :    0.052918
  25 C :   -0.042272
  26 H :    0.032187
  27 H :    0.043350
  28 C :   -0.051864
  29 H :    0.020235
  30 H :    0.039952
  31 H :    0.030939
  32 H :    0.057430
  33 H :    0.065869
Sum of atomic charges:    0.0000000

LOEWDIN ATOMIC CHARGES
----------------------
   0 S :    0.355443
   1 C :   -0.185569
   2 C :   -0.064018
   3 C :   -0.070926
   4 C :   -0.177454
   5 H :    0.040658
   6 C :   -0.037522
   7 H :    0.036569
   8 H :    0.026307
   9 C :   -0.031211
  10 H :    0.020888
  11 H :    0.026596
  12 C :   -0.071544
  13 H :    0.024189
  14 H :    0.026011
  15 H :    0.028471
  16 S :    0.433891
  17 C :   -0.197564
  18 C :   -0.076573
  19 C :   -0.058426
  20 C :   -0.202040
  21 H :    0.030402
  22 C :   -0.047808
  23 H :    0.040656
  24 H :    0.034999
  25 C :   -0.036147
  26 H :    0.022394
  27 H :    0.028333
  28 C :   -0.074711
  29 H :    0.028403
  30 H :    0.033856
  31 H :    0.024296
  32 H :    0.036929
  33 H :    0.032223

  Mayer bond orders larger than 0.100000
B(  0-S ,  1-C ) :   1.0935 B(  0-S ,  4-C ) :   1.1123 B(  1-C ,  2-C ) :   1.6877
B(  1-C , 32-H ) :   0.9610 B(  2-C ,  3-C ) :   1.1612 B(  2-C ,  6-C ) :   1.0137
B(  3-C ,  4-C ) :   1.6165 B(  3-C ,  5-H ) :   0.9834 B(  4-C , 20-C ) :   1.0885
B(  6-C ,  7-H ) :   0.9491 B(  6-C ,  8-H ) :   0.9481 B(  6-C ,  9-C ) :   1.0450
B(  9-C , 10-H ) :   0.9601 B(  9-C , 11-H ) :   0.9569 B(  9-C , 12-C ) :   1.0767
B( 12-C , 13-H ) :   0.9704 B( 12-C , 14-H ) :   0.9747 B( 12-C , 15-H ) :   0.9756
B( 16-S , 17-C ) :   1.1926 B( 16-S , 20-C ) :   1.1383 B( 17-C , 18-C ) :   1.5440
B( 17-C , 33-H ) :   0.9679 B( 18-C , 19-C ) :   1.2825 B( 18-C , 21-H ) :   0.9910
B( 19-C , 20-C ) :   1.5575 B( 19-C , 22-C ) :   1.0415 B( 22-C , 23-H ) :   0.9328
B( 22-C , 24-H ) :   0.9250 B( 22-C , 25-C ) :   1.0562 B( 25-C , 26-H ) :   0.9463
B( 25-C , 27-H ) :   0.9578 B( 25-C , 28-C ) :   1.0761 B( 28-C , 29-H ) :   0.9705
B( 28-C , 30-H ) :   0.9720 B( 28-C , 31-H ) :   0.9756

Dispersion correction           -0.013144847
FINAL SINGLE POINT ENERGY     -1339.861565513101

DIPOLE MOMENT
-------------
                                X             Y             Z
Electronic contribution:     16.81390      -8.02826      23.87729
Nuclear contribution   :    -17.30189       8.04082     -24.46377
                        -----------------------------------------
Total Dipole Moment    :     -0.48799       0.01256      -0.58648
                        -----------------------------------------
Magnitude (a.u.)       :      0.76305
Magnitude (Debye)      :      1.93952

Rotational constants in cm-1:     0.016317     0.008294     0.006193
Rotational constants in MHz :   489.175841   248.639244   185.659393

                             ****ORCA TERMINATED NORMALLY****
TOTAL RUN TIME: 0 days 0 hours 0 minutes 29 seconds 3 msec
