                         Program Version 4.2.1 -  RELEASE  -
|  1> ! wB97X-D3 SP def2-SVP
|  2> %pal
|  3> nprocs 16
|  4> end
|  5>
|  6> * xyz 0 1
|  7> S 	 9.76104 	 27.3449 	 63.0691
|  8> C 	 10.2171 	 26.7489 	 61.4924
|  9> C 	 9.30561 	 25.8328 	 60.9862
| 10> C 	 8.30531 	 25.6168 	 61.932
| 11> C 	 8.43795 	 26.3174 	 63.1189
| 12> H 	 7.61069 	 24.8637 	 61.9642
| 13> C 	 9.32678 	 25.1495 	 59.6287
| 14> H 	 9.07743 	 25.9821 	 58.9157
| 15> H 	 8.43017 	 24.4704 	 59.5672
| 16> C 	 10.6096 	 24.3905 	 59.1773
| 17> H 	 10.4325 	 24.1299 	 58.1519
| 18> H 	 11.4601 	 24.9791 	 59.0235
| 19> C 	 10.9279 	 23.1003 	 59.8884
| 20> H 	 11.899 	 22.8163 	 59.5547
| 21> H 	 10.7892 	 23.1482 	 61.0129
| 22> H 	 10.2622 	 22.337 	 59.481
| 23> S 	 8.26885 	 25.6816 	 65.7972
| 24> C 	 6.7116 	 25.7914 	 66.5403
| 25> C 	 5.7014 	 25.965 	 65.6353
| 26> C 	 6.20946 	 26.2103 	 64.3529
| 27> C 	 7.55841 	 26.2287 	 64.2539
| 28> H 	 4.71691 	 25.8161 	 65.9557
| 29> C 	 5.21266 	 26.376 	 63.247
| 30> H 	 5.73033 	 26.7038 	 62.3022
| 31> H 	 4.55004 	 27.2199 	 63.3658
| 32> C 	 4.35631 	 25.1785 	 62.8407
| 33> H 	 3.48905 	 25.3855 	 62.1359
| 34> H 	 3.89049 	 24.8136 	 63.7247
| 35> C 	 5.15683 	 23.9851 	 62.3416
| 36> H 	 5.82681 	 23.7011 	 63.1875
| 37> H 	 5.64393 	 24.1838 	 61.3613
| 38> H 	 4.50431 	 23.0736 	 62.2122
| 39> H 	 11.1232 	 26.9839 	 60.9978
| 40> H 	 6.53727 	 25.6597 	 67.6229
| 41> *
| 42>
| 43>                          ****END OF INPUT****

CARTESIAN COORDINATES (ANGSTROEM)
---------------------------------
  S      9.761040   27.344900   63.069100
  C     10.217100   26.748900   61.492400
  C      9.305610   25.832800   60.986200
  C      8.305310   25.616800   61.932000
  C      8.437950   26.317400   63.118900
  H      7.610690   24.863700   61.964200
  C      9.326780   25.149500   59.628700
  H      9.077430   25.982100   58.915700
  H      8.430170   24.470400   59.567200
  C     10.609600   24.390500   59.177300
  H     10.432500   24.129900   58.151900
  H     11.460100   24.979100   59.023500
  C     10.927900   23.100300   59.888400
  H     11.899000   22.816300   59.554700
  H     10.789200   23.148200   61.012900
  H     10.262200   22.337000   59.481000
  S      8.268850   25.681600   65.797200
  C      6.711600   25.791400   66.540300
  C      5.701400   25.965000   65.635300
  C      6.209460   26.210300   64.352900
  C      7.558410   26.228700   64.253900
  H      4.716910   25.816100   65.955700
  C      5.212660   26.376000   63.247000
  H      5.730330   26.703800   62.302200
  H      4.550040   27.219900   63.365800
  C      4.356310   25.178500   62.840700
  H      3.489050   25.385500   62.135900
  H      3.890490   24.813600   63.724700
  C      5.156830   23.985100   62.341600
  H      5.826810   23.701100   63.187500
  H      5.643930   24.183800   61.361300
  H      4.504310   23.073600   62.212200
  H     11.123200   26.983900   60.997800
  H      6.537270   25.659700   67.622900

 Total Charge           Charge          ....    0
 Multiplicity           Mult            ....    1
 Number of Electrons    NEL             ....  134
 Basis Dimension        Dim             ....  322

ORBITAL ENERGIES
----------------

  NO   OCC          E(Eh)            E(eV)
   0   2.0000     -88.966017     -2420.8884
   1   2.0000     -88.963138     -2420.8101
   2   2.0000     -10.322366      -280.8859
   3   2.0000     -10.316361      -280.7225
   4   2.0000     -10.315871      -280.7091
   5   2.0000     -10.306970      -280.4669
   6   2.0000     -10.302262      -280.3388
   7   2.0000     -10.297850      -280.2188
   8   2.0000     -10.297008      -280.1958
   9   2.0000     -10.287069      -279.9254
  10   2.0000     -10.286615      -279.9130
  11   2.0000     -10.284819      -279.8641
  12   2.0000     -10.283465      -279.8273
  13   2.0000     -10.281064      -279.7620
  14   2.0000     -10.277346      -279.6608
  15   2.0000     -10.277144      -279.6553
  16   2.0000      -8.081982      -219.9219
  17   2.0000      -8.078192      -219.8188
  18   2.0000      -6.040166      -164.3613
  19   2.0000      -6.036630      -164.2650
  20   2.0000      -6.036180      -164.2528
  21   2.0000      -6.033163      -164.1707
  22   2.0000      -6.032856      -164.1623
  23   2.0000      -6.028796      -164.0519
  24   2.0000      -1.015603       -27.6360
  25   2.0000      -0.992202       -26.9992
  26   2.0000      -0.912204       -24.8223
  27   2.0000      -0.910682       -24.7809
  28   2.0000      -0.873536       -23.7701
  29   2.0000      -0.855527       -23.2801
  30   2.0000      -0.850136       -23.1334
  31   2.0000      -0.812937       -22.1211
  32   2.0000      -0.785000       -21.3609
  33   2.0000      -0.774791       -21.0831
  34   2.0000      -0.707712       -19.2578
  35   2.0000      -0.704324       -19.1656
  36   2.0000      -0.689507       -18.7624
  37   2.0000      -0.662216       -18.0198
  38   2.0000      -0.645809       -17.5734
  39   2.0000      -0.615089       -16.7374
  40   2.0000      -0.599182       -16.3046
  41   2.0000      -0.576418       -15.6851
  42   2.0000      -0.556463       -15.1421
  43   2.0000      -0.553494       -15.0613
  44   2.0000      -0.547909       -14.9094
  45   2.0000      -0.538243       -14.6463
  46   2.0000      -0.516645       -14.0586
  47   2.0000      -0.510497       -13.8913
  48   2.0000      -0.500792       -13.6272
  49   2.0000      -0.495550       -13.4846
  50   2.0000      -0.491567       -13.3762
  51   2.0000      -0.479017       -13.0347
  52   2.0000      -0.471731       -12.8364
  53   2.0000      -0.465016       -12.6537
  54   2.0000      -0.460703       -12.5364
  55   2.0000      -0.443819       -12.0769
  56   2.0000      -0.442386       -12.0379
  57   2.0000      -0.437545       -11.9062
  58   2.0000      -0.434096       -11.8123
  59   2.0000      -0.430744       -11.7211
  60   2.0000      -0.418884       -11.3984
  61   2.0000      -0.412273       -11.2185
  62   2.0000      -0.407301       -11.0832
  63   2.0000      -0.338667        -9.2156
  64   2.0000      -0.335862        -9.1393
  65   2.0000      -0.329903        -8.9771
  66   2.0000      -0.294327        -8.0090
  67   0.0000       0.031921         0.8686
  68   0.0000       0.072617         1.9760
  69   0.0000       0.109669         2.9843
  70   0.0000       0.118711         3.2303
  71   0.0000       0.134237         3.6528

MULLIKEN ATOMIC CHARGES
-----------------------
   0 S :    0.134116
   1 C :   -0.120822
   2 C :   -0.057268
   3 C :    0.065692
   4 C :   -0.179203
   5 H :   -0.060131
   6 C :    0.038442
   7 H :    0.050048
   8 H :    0.026173
   9 C :   -0.047499
  10 H :    0.010664
  11 H :    0.010113
  12 C :   -0.032741
  13 H :    0.024383
  14 H :    0.058089
  15 H :    0.023623
  16 S :    0.101340
  17 C :   -0.094532
  18 C :   -0.022080
  19 C :   -0.012264
  20 C :   -0.141885
  21 H :    0.001078
  22 C :    0.063637
  23 H :    0.021785
  24 H :    0.026848
  25 C :   -0.078722
  26 H :    0.041462
  27 H :    0.008918
  28 C :   -0.095619
  29 H :    0.057697
  30 H :    0.051143
  31 H :    0.036604
  32 H :    0.026648
  33 H :    0.064265
Sum of atomic charges:   -0.0000000

LOEWDIN ATOMIC CHARGES
----------------------
   0 S :    0.450829
   1 C :   -0.197170
   2 C :   -0.063970
   3 C :   -0.058037
   4 C :   -0.224089
   5 H :    0.012190
   6 C :   -0.032733
   7 H :    0.043505
   8 H :    0.034246
   9 C :   -0.045275
  10 H :    0.026654
  11 H :    0.014628
  12 C :   -0.062577
  13 H :    0.024124
  14 H :    0.035852
  15 H :    0.025252
  16 S :    0.395169
  17 C :   -0.180201
  18 C :   -0.068622
  19 C :   -0.059017
  20 C :   -0.186370
  21 H :    0.025506
  22 C :   -0.038450
  23 H :    0.032962
  24 H :    0.031345
  25 C :   -0.045653
  26 H :    0.032428
  27 H :    0.014256
  28 C :   -0.076354
  29 H :    0.033438
  30 H :    0.024636
  31 H :    0.030518
  32 H :    0.017318
  33 H :    0.033658

  Mayer bond orders larger than 0.100000
B(  0-S ,  1-C ) :   1.1617 B(  0-S ,  4-C ) :   1.1867 B(  1-C ,  2-C ) :   1.5649
B(  1-C ,  4-C ) :   0.1033 B(  1-C , 32-H ) :   0.9752 B(  2-C ,  3-C ) :   1.2776
B(  2-C ,  6-C ) :   1.0075 B(  3-C ,  4-C ) :   1.5377 B(  3-C ,  5-H ) :   1.0003
B(  4-C , 20-C ) :   1.0232 B(  6-C ,  7-H ) :   0.9326 B(  6-C ,  8-H ) :   0.9471
B(  6-C ,  9-C ) :   1.0744 B(  9-C , 10-H ) :   0.9458 B(  9-C , 11-H ) :   0.9578
B(  9-C , 12-C ) :   1.0748 B( 12-C , 13-H ) :   0.9706 B( 12-C , 14-H ) :   0.9784
B( 12-C , 15-H ) :   0.9754 B( 16-S , 17-C ) :   1.1620 B( 16-S , 20-C ) :   1.1287
B( 17-C , 18-C ) :   1.6118 B( 17-C , 33-H ) :   0.9614 B( 18-C , 19-C ) :   1.2127
B( 18-C , 21-H ) :   1.0091 B( 19-C , 20-C ) :   1.6233 B( 19-C , 22-C ) :   1.0466
B( 22-C , 23-H ) :   0.9321 B( 22-C , 24-H ) :   0.9341 B( 22-C , 25-C ) :   1.0663
B( 25-C , 26-H ) :   0.9549 B( 25-C , 27-H ) :   0.9541 B( 25-C , 28-C ) :   1.0863
B( 28-C , 29-H ) :   0.9640 B( 28-C , 30-H ) :   0.9630 B( 28-C , 31-H ) :   0.9675

Dispersion correction           -0.015336300
FINAL SINGLE POINT ENERGY     -1339.870611079022

DIPOLE MOMENT
-------------
                                X             Y             Z
Electronic contribution:      7.85486      15.04632      20.94549
Nuclear contribution   :     -8.21978     -15.41973     -21.38281
                        -----------------------------------------
Total Dipole Moment    :     -0.36492      -0.37341      -0.43732
                        -----------------------------------------
Magnitude (a.u.)       :      0.68106
Magnitude (Debye)      :      1.73113

Rotational constants in cm-1:     0.020202     0.008943     0.007312
Rotational constants in MHz :   605.649921   268.092702   219.222857

                             ****ORCA TERMINATED NORMALLY****
TOTAL RUN TIME: 0 days 0 hours 0 minutes 37 seconds 664 msec
