                         Program Version 4.2.1 -  RELEASE  -
|  1> ! wB97X-D3 SP def2-SVP
|  2> %pal
|  3> nprocs 16
|  4> end
|  5>
|  6> * xyz 0 1
|  7> S 	 45.0012 	 23.453 	 82.4966
|  8> C 	 45.2046 	 24.1346 	 80.8977
|  9> C 	 46.057 	 23.377 	 80.115
| 10> C 	 46.3915 	 22.1406 	 80.7504
| 11> C 	 45.8439 	 22.0283 	 82.0219
| 12> H 	 46.9598 	 21.3385 	 80.266
| 13> C 	 46.4974 	 23.6242 	 78.7119
| 14> H 	 45.8218 	 24.3473 	 78.2373
| 15> H 	 46.4225 	 22.7382 	 78.0949
| 16> C 	 47.9542 	 23.9952 	 78.5533
| 17> H 	 48.0843 	 24.7798 	 79.2676
| 18> H 	 48.6559 	 23.2362 	 78.8143
| 19> C 	 48.3094 	 24.6266 	 77.1761
| 20> H 	 48.0272 	 23.9934 	 76.3393
| 21> H 	 47.9005 	 25.633 	 77.1742
| 22> H 	 49.3837 	 24.7876 	 77.1895
| 23> S 	 46.2669 	 21.0956 	 84.5788
| 24> C 	 46.3599 	 19.3753 	 84.86
| 25> C 	 46.027 	 18.7115 	 83.6545
| 26> C 	 45.9031 	 19.5647 	 82.5685
| 27> C 	 46.0313 	 20.8523 	 82.8975
| 28> H 	 45.9005 	 17.6424 	 83.6022
| 29> C 	 45.606 	 19.0437 	 81.1513
| 30> H 	 45.2901 	 19.8536 	 80.4698
| 31> H 	 44.5981 	 18.5217 	 81.2176
| 32> C 	 46.7498 	 18.2387 	 80.4366
| 33> H 	 46.9427 	 17.219 	 80.8066
| 34> H 	 47.7824 	 18.6358 	 80.6431
| 35> C 	 46.4444 	 18.1943 	 78.8833
| 36> H 	 46.3016 	 19.1703 	 78.4689
| 37> H 	 45.6149 	 17.6473 	 78.5518
| 38> H 	 47.3211 	 17.8748 	 78.3627
| 39> H 	 44.8365 	 25.118 	 80.7999
| 40> H 	 46.5873 	 18.9411 	 85.8164
| 41> *
| 42>
| 43>                          ****END OF INPUT****

CARTESIAN COORDINATES (ANGSTROEM)
---------------------------------
  S     45.001200   23.453000   82.496600
  C     45.204600   24.134600   80.897700
  C     46.057000   23.377000   80.115000
  C     46.391500   22.140600   80.750400
  C     45.843900   22.028300   82.021900
  H     46.959800   21.338500   80.266000
  C     46.497400   23.624200   78.711900
  H     45.821800   24.347300   78.237300
  H     46.422500   22.738200   78.094900
  C     47.954200   23.995200   78.553300
  H     48.084300   24.779800   79.267600
  H     48.655900   23.236200   78.814300
  C     48.309400   24.626600   77.176100
  H     48.027200   23.993400   76.339300
  H     47.900500   25.633000   77.174200
  H     49.383700   24.787600   77.189500
  S     46.266900   21.095600   84.578800
  C     46.359900   19.375300   84.860000
  C     46.027000   18.711500   83.654500
  C     45.903100   19.564700   82.568500
  C     46.031300   20.852300   82.897500
  H     45.900500   17.642400   83.602200
  C     45.606000   19.043700   81.151300
  H     45.290100   19.853600   80.469800
  H     44.598100   18.521700   81.217600
  C     46.749800   18.238700   80.436600
  H     46.942700   17.219000   80.806600
  H     47.782400   18.635800   80.643100
  C     46.444400   18.194300   78.883300
  H     46.301600   19.170300   78.468900
  H     45.614900   17.647300   78.551800
  H     47.321100   17.874800   78.362700
  H     44.836500   25.118000   80.799900
  H     46.587300   18.941100   85.816400

 Total Charge           Charge          ....    0
 Multiplicity           Mult            ....    1
 Number of Electrons    NEL             ....  134
 Basis Dimension        Dim             ....  322

ORBITAL ENERGIES
----------------

  NO   OCC          E(Eh)            E(eV)
   0   2.0000     -88.965563     -2420.8760
   1   2.0000     -88.965037     -2420.8617
   2   2.0000     -10.327278      -281.0195
   3   2.0000     -10.319181      -280.7992
   4   2.0000     -10.317789      -280.7613
   5   2.0000     -10.311105      -280.5794
   6   2.0000     -10.301345      -280.3139
   7   2.0000     -10.301060      -280.3061
   8   2.0000     -10.299235      -280.2564
   9   2.0000     -10.292777      -280.0807
  10   2.0000     -10.292068      -280.0614
  11   2.0000     -10.291436      -280.0442
  12   2.0000     -10.287218      -279.9294
  13   2.0000     -10.278749      -279.6990
  14   2.0000     -10.278594      -279.6948
  15   2.0000     -10.274569      -279.5852
  16   2.0000      -8.081021      -219.8958
  17   2.0000      -8.080600      -219.8843
  18   2.0000      -6.039447      -164.3417
  19   2.0000      -6.038973      -164.3288
  20   2.0000      -6.035469      -164.2335
  21   2.0000      -6.035000      -164.2207
  22   2.0000      -6.031816      -164.1340
  23   2.0000      -6.031459      -164.1244
  24   2.0000      -1.014016       -27.5928
  25   2.0000      -0.989651       -26.9298
  26   2.0000      -0.916235       -24.9320
  27   2.0000      -0.899581       -24.4788
  28   2.0000      -0.866812       -23.5871
  29   2.0000      -0.855210       -23.2714
  30   2.0000      -0.848201       -23.0807
  31   2.0000      -0.810041       -22.0423
  32   2.0000      -0.782529       -21.2937
  33   2.0000      -0.775077       -21.0909
  34   2.0000      -0.710535       -19.3346
  35   2.0000      -0.700490       -19.0613
  36   2.0000      -0.696431       -18.9509
  37   2.0000      -0.667347       -18.1594
  38   2.0000      -0.646670       -17.5968
  39   2.0000      -0.622120       -16.9287
  40   2.0000      -0.599455       -16.3120
  41   2.0000      -0.576832       -15.6964
  42   2.0000      -0.557630       -15.1739
  43   2.0000      -0.547892       -14.9089
  44   2.0000      -0.531193       -14.4545
  45   2.0000      -0.524723       -14.2784
  46   2.0000      -0.515045       -14.0151
  47   2.0000      -0.512775       -13.9533
  48   2.0000      -0.510649       -13.8955
  49   2.0000      -0.502929       -13.6854
  50   2.0000      -0.487465       -13.2646
  51   2.0000      -0.476612       -12.9693
  52   2.0000      -0.473448       -12.8832
  53   2.0000      -0.466822       -12.7029
  54   2.0000      -0.459552       -12.5051
  55   2.0000      -0.451600       -12.2887
  56   2.0000      -0.450303       -12.2534
  57   2.0000      -0.440034       -11.9739
  58   2.0000      -0.436824       -11.8866
  59   2.0000      -0.422584       -11.4991
  60   2.0000      -0.421476       -11.4689
  61   2.0000      -0.416494       -11.3334
  62   2.0000      -0.410391       -11.1673
  63   2.0000      -0.349755        -9.5173
  64   2.0000      -0.334920        -9.1136
  65   2.0000      -0.329796        -8.9742
  66   2.0000      -0.288245        -7.8436
  67   0.0000       0.032846         0.8938
  68   0.0000       0.073936         2.0119
  69   0.0000       0.108906         2.9635
  70   0.0000       0.118798         3.2327
  71   0.0000       0.129528         3.5246

MULLIKEN ATOMIC CHARGES
-----------------------
   0 S :    0.104300
   1 C :   -0.131946
   2 C :   -0.036432
   3 C :   -0.009481
   4 C :   -0.131682
   5 H :    0.020498
   6 C :    0.078744
   7 H :    0.017753
   8 H :    0.015891
   9 C :   -0.090337
  10 H :    0.015389
  11 H :    0.028007
  12 C :   -0.036376
  13 H :    0.038947
  14 H :    0.032361
  15 H :    0.030608
  16 S :    0.106669
  17 C :   -0.102874
  18 C :   -0.024399
  19 C :   -0.027188
  20 C :   -0.136484
  21 H :    0.012912
  22 C :    0.027160
  23 H :    0.028091
  24 H :    0.042596
  25 C :   -0.076477
  26 H :    0.031310
  27 H :    0.037866
  28 C :   -0.025641
  29 H :    0.012493
  30 H :    0.030744
  31 H :    0.023175
  32 H :    0.036424
  33 H :    0.057379
Sum of atomic charges:   -0.0000000

LOEWDIN ATOMIC CHARGES
----------------------
   0 S :    0.413396
   1 C :   -0.192035
   2 C :   -0.056894
   3 C :   -0.066502
   4 C :   -0.192291
   5 H :    0.034219
   6 C :   -0.034564
   7 H :    0.031394
   8 H :    0.027763
   9 C :   -0.038470
  10 H :    0.020237
  11 H :    0.018708
  12 C :   -0.060019
  13 H :    0.023161
  14 H :    0.026888
  15 H :    0.027824
  16 S :    0.420238
  17 C :   -0.186309
  18 C :   -0.062045
  19 C :   -0.071905
  20 C :   -0.204569
  21 H :    0.029596
  22 C :   -0.039401
  23 H :    0.030914
  24 H :    0.041437
  25 C :   -0.042772
  26 H :    0.024718
  27 H :    0.031245
  28 C :   -0.061303
  29 H :    0.019965
  30 H :    0.020404
  31 H :    0.024909
  32 H :    0.015691
  33 H :    0.026370

  Mayer bond orders larger than 0.100000
B(  0-S ,  1-C ) :   1.1347 B(  0-S ,  4-C ) :   1.1711 B(  1-C ,  2-C ) :   1.5812
B(  1-C , 32-H ) :   0.9811 B(  2-C ,  3-C ) :   1.2385 B(  2-C ,  6-C ) :   1.0425
B(  3-C ,  4-C ) :   1.5498 B(  3-C ,  5-H ) :   0.9957 B(  4-C , 20-C ) :   1.0212
B(  6-C ,  7-H ) :   0.9428 B(  6-C ,  8-H ) :   0.9351 B(  6-C ,  9-C ) :   1.0529
B(  9-C , 10-H ) :   0.9556 B(  9-C , 11-H ) :   0.9579 B(  9-C , 12-C ) :   1.0888
B( 12-C , 13-H ) :   0.9757 B( 12-C , 14-H ) :   0.9765 B( 12-C , 15-H ) :   0.9740
B( 16-S , 17-C ) :   1.1680 B( 16-S , 20-C ) :   1.1473 B( 17-C , 18-C ) :   1.5515
B( 17-C , 20-C ) :   0.1029 B( 17-C , 33-H ) :   0.9776 B( 18-C , 19-C ) :   1.2809
B( 18-C , 21-H ) :   0.9964 B( 19-C , 20-C ) :   1.6032 B( 19-C , 22-C ) :   1.0332
B( 22-C , 23-H ) :   0.9428 B( 22-C , 24-H ) :   0.9311 B( 22-C , 25-C ) :   1.0324
B( 25-C , 26-H ) :   0.9553 B( 25-C , 27-H ) :   0.9603 B( 25-C , 28-C ) :   1.0727
B( 28-C , 29-H ) :   0.9751 B( 28-C , 30-H ) :   0.9786 B( 28-C , 31-H ) :   0.9736

Dispersion correction           -0.014243273
FINAL SINGLE POINT ENERGY     -1339.878207920924

DIPOLE MOMENT
-------------
                                X             Y             Z
Electronic contribution:     -9.63346       5.42689      30.24162
Nuclear contribution   :      9.81696      -5.69130     -30.79933
                        -----------------------------------------
Total Dipole Moment    :      0.18350      -0.26441      -0.55771
                        -----------------------------------------
Magnitude (a.u.)       :      0.64392
Magnitude (Debye)      :      1.63670

Rotational constants in cm-1:     0.017608     0.009097     0.006627
Rotational constants in MHz :   527.859803   272.718667   198.683593

                             ****ORCA TERMINATED NORMALLY****
TOTAL RUN TIME: 0 days 0 hours 0 minutes 28 seconds 490 msec
