                         Program Version 4.2.1 -  RELEASE  -
|  1> ! wB97X-D3 SP def2-SVP
|  2> %pal
|  3> nprocs 16
|  4> end
|  5>
|  6> * xyz 0 1
|  7> S 	 -12.0088 	 -10.4387 	 88.1701
|  8> C 	 -13.5466 	 -9.9484 	 87.4119
|  9> C 	 -14.6152 	 -10.0273 	 88.2413
| 10> C 	 -14.2104 	 -10.6245 	 89.4832
| 11> C 	 -12.8692 	 -11.0867 	 89.6064
| 12> H 	 -14.8792 	 -10.7438 	 90.3491
| 13> C 	 -16.0951 	 -9.67256 	 87.9627
| 14> H 	 -16.632 	 -10.5744 	 87.9614
| 15> H 	 -16.1769 	 -9.3183 	 86.9274
| 16> C 	 -16.6189 	 -8.52455 	 88.8796
| 17> H 	 -16.4654 	 -8.76377 	 89.94
| 18> H 	 -16.0877 	 -7.58705 	 88.7524
| 19> C 	 -18.164 	 -8.51612 	 88.8301
| 20> H 	 -18.5902 	 -9.4709 	 89.1292
| 21> H 	 -18.4242 	 -7.87189 	 89.6496
| 22> H 	 -18.5937 	 -8.02556 	 87.9543
| 23> S 	 -10.5614 	 -10.9986 	 91.1814
| 24> C 	 -10.5996 	 -11.6623 	 92.7751
| 25> C 	 -11.7284 	 -12.3922 	 92.962
| 26> C 	 -12.627 	 -12.3911 	 91.8467
| 27> C 	 -12.1887 	 -11.5532 	 90.8189
| 28> H 	 -12.0405 	 -12.8607 	 93.887
| 29> C 	 -13.9141 	 -13.2237 	 91.9374
| 30> H 	 -14.7484 	 -12.5979 	 91.6286
| 31> H 	 -14.075 	 -13.3869 	 92.9963
| 32> C 	 -13.9573 	 -14.4988 	 91.1629
| 33> H 	 -14.7778 	 -15.0316 	 91.595
| 34> H 	 -13.0323 	 -15.0249 	 91.2132
| 35> C 	 -14.3912 	 -14.4829 	 89.6659
| 36> H 	 -15.3945 	 -14.0322 	 89.6765
| 37> H 	 -14.4835 	 -15.5847 	 89.2993
| 38> H 	 -13.7413 	 -13.8977 	 88.9632
| 39> H 	 -13.7156 	 -9.55738 	 86.4199
| 40> H 	 -9.85975 	 -11.3901 	 93.5754
| 41> *
| 42>
| 43>                          ****END OF INPUT****

CARTESIAN COORDINATES (ANGSTROEM)
---------------------------------
  S    -12.008800  -10.438700   88.170100
  C    -13.546600   -9.948400   87.411900
  C    -14.615200  -10.027300   88.241300
  C    -14.210400  -10.624500   89.483200
  C    -12.869200  -11.086700   89.606400
  H    -14.879200  -10.743800   90.349100
  C    -16.095100   -9.672560   87.962700
  H    -16.632000  -10.574400   87.961400
  H    -16.176900   -9.318300   86.927400
  C    -16.618900   -8.524550   88.879600
  H    -16.465400   -8.763770   89.940000
  H    -16.087700   -7.587050   88.752400
  C    -18.164000   -8.516120   88.830100
  H    -18.590200   -9.470900   89.129200
  H    -18.424200   -7.871890   89.649600
  H    -18.593700   -8.025560   87.954300
  S    -10.561400  -10.998600   91.181400
  C    -10.599600  -11.662300   92.775100
  C    -11.728400  -12.392200   92.962000
  C    -12.627000  -12.391100   91.846700
  C    -12.188700  -11.553200   90.818900
  H    -12.040500  -12.860700   93.887000
  C    -13.914100  -13.223700   91.937400
  H    -14.748400  -12.597900   91.628600
  H    -14.075000  -13.386900   92.996300
  C    -13.957300  -14.498800   91.162900
  H    -14.777800  -15.031600   91.595000
  H    -13.032300  -15.024900   91.213200
  C    -14.391200  -14.482900   89.665900
  H    -15.394500  -14.032200   89.676500
  H    -14.483500  -15.584700   89.299300
  H    -13.741300  -13.897700   88.963200
  H    -13.715600   -9.557380   86.419900
  H     -9.859750  -11.390100   93.575400

 Total Charge           Charge          ....    0
 Multiplicity           Mult            ....    1
 Number of Electrons    NEL             ....  134
 Basis Dimension        Dim             ....  322

ORBITAL ENERGIES
----------------

  NO   OCC          E(Eh)            E(eV)
   0   2.0000     -88.966749     -2420.9083
   1   2.0000     -88.965316     -2420.8693
   2   2.0000     -10.339050      -281.3398
   3   2.0000     -10.332115      -281.1511
   4   2.0000     -10.318972      -280.7935
   5   2.0000     -10.313886      -280.6551
   6   2.0000     -10.302542      -280.3464
   7   2.0000     -10.300116      -280.2804
   8   2.0000     -10.299116      -280.2532
   9   2.0000     -10.296112      -280.1715
  10   2.0000     -10.293317      -280.0954
  11   2.0000     -10.291373      -280.0425
  12   2.0000     -10.290307      -280.0135
  13   2.0000     -10.283989      -279.8416
  14   2.0000     -10.280040      -279.7341
  15   2.0000     -10.277887      -279.6755
  16   2.0000      -8.080557      -219.8831
  17   2.0000      -8.080066      -219.8698
  18   2.0000      -6.039134      -164.3332
  19   2.0000      -6.038846      -164.3254
  20   2.0000      -6.034991      -164.2205
  21   2.0000      -6.034932      -164.2189
  22   2.0000      -6.031211      -164.1176
  23   2.0000      -6.030457      -164.0971
  24   2.0000      -1.004182       -27.3252
  25   2.0000      -0.980498       -26.6807
  26   2.0000      -0.911123       -24.7929
  27   2.0000      -0.909158       -24.7394
  28   2.0000      -0.871001       -23.7011
  29   2.0000      -0.847841       -23.0709
  30   2.0000      -0.841397       -22.8956
  31   2.0000      -0.809716       -22.0335
  32   2.0000      -0.783173       -21.3112
  33   2.0000      -0.775128       -21.0923
  34   2.0000      -0.708933       -19.2910
  35   2.0000      -0.701007       -19.0754
  36   2.0000      -0.687375       -18.7044
  37   2.0000      -0.662507       -18.0277
  38   2.0000      -0.633441       -17.2368
  39   2.0000      -0.616956       -16.7882
  40   2.0000      -0.599992       -16.3266
  41   2.0000      -0.568851       -15.4792
  42   2.0000      -0.562127       -15.2963
  43   2.0000      -0.553312       -15.0564
  44   2.0000      -0.539209       -14.6726
  45   2.0000      -0.524641       -14.2762
  46   2.0000      -0.516478       -14.0541
  47   2.0000      -0.508014       -13.8238
  48   2.0000      -0.501648       -13.6505
  49   2.0000      -0.495965       -13.4959
  50   2.0000      -0.494285       -13.4502
  51   2.0000      -0.482931       -13.1412
  52   2.0000      -0.469955       -12.7881
  53   2.0000      -0.462369       -12.5817
  54   2.0000      -0.461085       -12.5468
  55   2.0000      -0.450768       -12.2660
  56   2.0000      -0.443531       -12.0691
  57   2.0000      -0.439497       -11.9593
  58   2.0000      -0.433712       -11.8019
  59   2.0000      -0.420407       -11.4398
  60   2.0000      -0.416040       -11.3210
  61   2.0000      -0.412020       -11.2116
  62   2.0000      -0.404587       -11.0094
  63   2.0000      -0.359611        -9.7855
  64   2.0000      -0.333542        -9.0761
  65   2.0000      -0.327481        -8.9112
  66   2.0000      -0.283321        -7.7096
  67   0.0000       0.021179         0.5763
  68   0.0000       0.075074         2.0429
  69   0.0000       0.099325         2.7028
  70   0.0000       0.120919         3.2904
  71   0.0000       0.137934         3.7534

MULLIKEN ATOMIC CHARGES
-----------------------
   0 S :    0.085718
   1 C :   -0.110202
   2 C :   -0.082160
   3 C :   -0.014208
   4 C :   -0.122800
   5 H :    0.018601
   6 C :    0.104702
   7 H :    0.028143
   8 H :    0.013856
   9 C :   -0.103568
  10 H :    0.027935
  11 H :    0.040593
  12 C :   -0.031895
  13 H :    0.034698
  14 H :    0.018802
  15 H :    0.041681
  16 S :    0.101408
  17 C :   -0.103892
  18 C :   -0.021437
  19 C :   -0.087420
  20 C :   -0.138751
  21 H :    0.015531
  22 C :    0.103740
  23 H :    0.003365
  24 H :    0.011436
  25 C :   -0.035016
  26 H :    0.022467
  27 H :    0.028983
  28 C :   -0.100126
  29 H :    0.022307
  30 H :    0.048189
  31 H :    0.062479
  32 H :    0.035094
  33 H :    0.081747
Sum of atomic charges:    0.0000000

LOEWDIN ATOMIC CHARGES
----------------------
   0 S :    0.366197
   1 C :   -0.183450
   2 C :   -0.067926
   3 C :   -0.061420
   4 C :   -0.179110
   5 H :    0.025151
   6 C :   -0.021530
   7 H :    0.026075
   8 H :    0.030399
   9 C :   -0.036358
  10 H :    0.024701
  11 H :    0.028823
  12 C :   -0.064573
  13 H :    0.028098
  14 H :    0.025054
  15 H :    0.024846
  16 S :    0.408671
  17 C :   -0.198619
  18 C :   -0.075466
  19 C :   -0.057478
  20 C :   -0.195465
  21 H :    0.030154
  22 C :   -0.029547
  23 H :    0.026903
  24 H :    0.029848
  25 C :   -0.039075
  26 H :    0.026325
  27 H :    0.021425
  28 C :   -0.072174
  29 H :    0.019699
  30 H :    0.036580
  31 H :    0.029160
  32 H :    0.029015
  33 H :    0.045070

  Mayer bond orders larger than 0.100000
B(  0-S ,  1-C ) :   1.1225 B(  0-S ,  4-C ) :   1.1165 B(  1-C ,  2-C ) :   1.6542
B(  1-C , 32-H ) :   0.9569 B(  2-C ,  3-C ) :   1.2376 B(  2-C ,  6-C ) :   1.0105
B(  3-C ,  4-C ) :   1.5775 B(  3-C ,  5-H ) :   0.9783 B(  4-C , 20-C ) :   1.0819
B(  6-C ,  7-H ) :   0.9483 B(  6-C ,  8-H ) :   0.9377 B(  6-C ,  9-C ) :   1.0489
B(  9-C , 10-H ) :   0.9649 B(  9-C , 11-H ) :   0.9583 B(  9-C , 12-C ) :   1.0725
B( 12-C , 13-H ) :   0.9743 B( 12-C , 14-H ) :   0.9740 B( 12-C , 15-H ) :   0.9762
B( 16-S , 17-C ) :   1.1579 B( 16-S , 20-C ) :   1.1341 B( 17-C , 18-C ) :   1.5925
B( 17-C , 33-H ) :   0.9607 B( 18-C , 19-C ) :   1.2707 B( 18-C , 21-H ) :   0.9873
B( 19-C , 20-C ) :   1.5790 B( 19-C , 22-C ) :   1.0322 B( 22-C , 23-H ) :   0.9249
B( 22-C , 24-H ) :   0.9291 B( 22-C , 25-C ) :   1.0800 B( 25-C , 26-H ) :   0.9512
B( 25-C , 27-H ) :   0.9551 B( 25-C , 28-C ) :   1.0768 B( 28-C , 29-H ) :   0.9734
B( 28-C , 30-H ) :   0.9724 B( 28-C , 31-H ) :   0.9751

Dispersion correction           -0.014477033
FINAL SINGLE POINT ENERGY     -1339.866949640540

DIPOLE MOMENT
-------------
                                X             Y             Z
Electronic contribution:     28.57566       4.28120       0.30250
Nuclear contribution   :    -29.40218      -4.23161       0.06579
                        -----------------------------------------
Total Dipole Moment    :     -0.82651       0.04959       0.36829
                        -----------------------------------------
Magnitude (a.u.)       :      0.90621
Magnitude (Debye)      :      2.30341

Rotational constants in cm-1:     0.018314     0.008460     0.007230
Rotational constants in MHz :   549.035445   253.610291   216.752457

                             ****ORCA TERMINATED NORMALLY****
TOTAL RUN TIME: 0 days 0 hours 0 minutes 34 seconds 53 msec
