                         Program Version 4.2.1 -  RELEASE  -
|  1> ! wB97X-D3 SP def2-SVP
|  2> %pal
|  3> nprocs 16
|  4> end
|  5>
|  6> * xyz 0 1
|  7> S 	 -10.7118 	 64.1271 	 54.1391
|  8> C 	 -10.969 	 62.4957 	 53.4673
|  9> C 	 -11.3152 	 61.612 	 54.4725
| 10> C 	 -11.413 	 62.2592 	 55.7065
| 11> C 	 -11.1282 	 63.6201 	 55.7449
| 12> H 	 -11.812 	 61.6674 	 56.4916
| 13> C 	 -11.7883 	 60.2097 	 54.3248
| 14> H 	 -12.7828 	 60.202 	 54.6574
| 15> H 	 -11.199 	 59.4825 	 54.916
| 16> C 	 -11.5938 	 59.5987 	 52.9473
| 17> H 	 -12.0776 	 60.1149 	 52.1112
| 18> H 	 -10.519 	 59.5171 	 52.742
| 19> C 	 -12.1375 	 58.1904 	 52.8957
| 20> H 	 -13.2116 	 58.3119 	 53.0746
| 21> H 	 -12.1275 	 57.6575 	 51.9468
| 22> H 	 -11.619 	 57.5194 	 53.5629
| 23> S 	 -11.205 	 66.2555 	 56.7359
| 24> C 	 -11.2214 	 66.6064 	 58.3887
| 25> C 	 -11.0423 	 65.468 	 59.1427
| 26> C 	 -10.9721 	 64.3026 	 58.2737
| 27> C 	 -11.1548 	 64.5647 	 56.9145
| 28> H 	 -10.9598 	 65.4706 	 60.224
| 29> C 	 -10.7411 	 62.9141 	 58.7927
| 30> H 	 -11.6432 	 62.1895 	 58.7419
| 31> H 	 -10.5685 	 63.1645 	 59.8851
| 32> C 	 -9.39034 	 62.2519 	 58.4564
| 33> H 	 -8.66456 	 63.092 	 58.5641
| 34> H 	 -9.37264 	 61.8958 	 57.4469
| 35> C 	 -9.06804 	 61.2057 	 59.4198
| 36> H 	 -8.70391 	 61.6492 	 60.2832
| 37> H 	 -8.26252 	 60.5737 	 59.0036
| 38> H 	 -9.95518 	 60.7035 	 59.7598
| 39> H 	 -10.9671 	 62.2662 	 52.3825
| 40> H 	 -11.3216 	 67.598 	 58.8277
| 41> *
| 42>
| 43>                          ****END OF INPUT****

CARTESIAN COORDINATES (ANGSTROEM)
---------------------------------
  S    -10.711800   64.127100   54.139100
  C    -10.969000   62.495700   53.467300
  C    -11.315200   61.612000   54.472500
  C    -11.413000   62.259200   55.706500
  C    -11.128200   63.620100   55.744900
  H    -11.812000   61.667400   56.491600
  C    -11.788300   60.209700   54.324800
  H    -12.782800   60.202000   54.657400
  H    -11.199000   59.482500   54.916000
  C    -11.593800   59.598700   52.947300
  H    -12.077600   60.114900   52.111200
  H    -10.519000   59.517100   52.742000
  C    -12.137500   58.190400   52.895700
  H    -13.211600   58.311900   53.074600
  H    -12.127500   57.657500   51.946800
  H    -11.619000   57.519400   53.562900
  S    -11.205000   66.255500   56.735900
  C    -11.221400   66.606400   58.388700
  C    -11.042300   65.468000   59.142700
  C    -10.972100   64.302600   58.273700
  C    -11.154800   64.564700   56.914500
  H    -10.959800   65.470600   60.224000
  C    -10.741100   62.914100   58.792700
  H    -11.643200   62.189500   58.741900
  H    -10.568500   63.164500   59.885100
  C     -9.390340   62.251900   58.456400
  H     -8.664560   63.092000   58.564100
  H     -9.372640   61.895800   57.446900
  C     -9.068040   61.205700   59.419800
  H     -8.703910   61.649200   60.283200
  H     -8.262520   60.573700   59.003600
  H     -9.955180   60.703500   59.759800
  H    -10.967100   62.266200   52.382500
  H    -11.321600   67.598000   58.827700

 Total Charge           Charge          ....    0
 Multiplicity           Mult            ....    1
 Number of Electrons    NEL             ....  134
 Basis Dimension        Dim             ....  322

ORBITAL ENERGIES
----------------

  NO   OCC          E(Eh)            E(eV)
   0   2.0000     -88.967352     -2420.9247
   1   2.0000     -88.966110     -2420.8909
   2   2.0000     -10.338349      -281.3208
   3   2.0000     -10.328185      -281.0442
   4   2.0000     -10.318077      -280.7691
   5   2.0000     -10.316283      -280.7203
   6   2.0000     -10.302969      -280.3580
   7   2.0000     -10.297844      -280.2186
   8   2.0000     -10.296221      -280.1744
   9   2.0000     -10.295577      -280.1569
  10   2.0000     -10.291485      -280.0455
  11   2.0000     -10.287129      -279.9270
  12   2.0000     -10.287021      -279.9241
  13   2.0000     -10.276672      -279.6425
  14   2.0000     -10.274237      -279.5762
  15   2.0000     -10.263725      -279.2902
  16   2.0000      -8.082700      -219.9414
  17   2.0000      -8.081666      -219.9133
  18   2.0000      -6.041076      -164.3860
  19   2.0000      -6.040311      -164.3652
  20   2.0000      -6.036773      -164.2689
  21   2.0000      -6.036175      -164.2527
  22   2.0000      -6.033657      -164.1842
  23   2.0000      -6.032389      -164.1497
  24   2.0000      -1.013628       -27.5822
  25   2.0000      -0.991918       -26.9915
  26   2.0000      -0.923034       -25.1170
  27   2.0000      -0.916750       -24.9460
  28   2.0000      -0.871618       -23.7179
  29   2.0000      -0.858435       -23.3592
  30   2.0000      -0.850355       -23.1393
  31   2.0000      -0.815922       -22.2024
  32   2.0000      -0.783523       -21.3208
  33   2.0000      -0.769011       -20.9258
  34   2.0000      -0.712593       -19.3906
  35   2.0000      -0.696871       -18.9628
  36   2.0000      -0.683595       -18.6016
  37   2.0000      -0.666192       -18.1280
  38   2.0000      -0.633245       -17.2315
  39   2.0000      -0.626177       -17.0391
  40   2.0000      -0.596667       -16.2361
  41   2.0000      -0.589669       -16.0457
  42   2.0000      -0.576374       -15.6839
  43   2.0000      -0.569341       -15.4925
  44   2.0000      -0.529342       -14.4041
  45   2.0000      -0.523853       -14.2548
  46   2.0000      -0.518306       -14.1038
  47   2.0000      -0.513771       -13.9804
  48   2.0000      -0.510158       -13.8821
  49   2.0000      -0.505950       -13.7676
  50   2.0000      -0.487879       -13.2759
  51   2.0000      -0.486693       -13.2436
  52   2.0000      -0.474987       -12.9251
  53   2.0000      -0.467268       -12.7150
  54   2.0000      -0.455002       -12.3812
  55   2.0000      -0.453407       -12.3378
  56   2.0000      -0.448027       -12.1914
  57   2.0000      -0.431863       -11.7516
  58   2.0000      -0.428101       -11.6492
  59   2.0000      -0.424226       -11.5438
  60   2.0000      -0.419777       -11.4227
  61   2.0000      -0.415336       -11.3019
  62   2.0000      -0.402893       -10.9633
  63   2.0000      -0.359349        -9.7784
  64   2.0000      -0.333653        -9.0792
  65   2.0000      -0.328168        -8.9299
  66   2.0000      -0.286963        -7.8087
  67   0.0000       0.023342         0.6352
  68   0.0000       0.087426         2.3790
  69   0.0000       0.108595         2.9550
  70   0.0000       0.123185         3.3520
  71   0.0000       0.137412         3.7392

MULLIKEN ATOMIC CHARGES
-----------------------
   0 S :    0.100077
   1 C :   -0.151938
   2 C :   -0.061541
   3 C :   -0.002200
   4 C :   -0.090459
   5 H :   -0.016016
   6 C :    0.071529
   7 H :    0.028614
   8 H :    0.032468
   9 C :   -0.102568
  10 H :    0.031403
  11 H :    0.035249
  12 C :   -0.042282
  13 H :    0.026305
  14 H :    0.028263
  15 H :    0.027097
  16 S :    0.112698
  17 C :   -0.087051
  18 C :   -0.015897
  19 C :   -0.090168
  20 C :   -0.087189
  21 H :    0.023065
  22 C :   -0.050545
  23 H :    0.063908
  24 H :    0.010689
  25 C :   -0.056465
  26 H :    0.029220
  27 H :    0.036333
  28 C :    0.007767
  29 H :    0.005244
  30 H :    0.038287
  31 H :    0.019630
  32 H :    0.064206
  33 H :    0.062267
Sum of atomic charges:   -0.0000000

LOEWDIN ATOMIC CHARGES
----------------------
   0 S :    0.399405
   1 C :   -0.194550
   2 C :   -0.066481
   3 C :   -0.067504
   4 C :   -0.183329
   5 H :    0.023307
   6 C :   -0.026876
   7 H :    0.028375
   8 H :    0.040277
   9 C :   -0.044780
  10 H :    0.021865
  11 H :    0.026338
  12 C :   -0.066196
  13 H :    0.026910
  14 H :    0.026381
  15 H :    0.020683
  16 S :    0.451892
  17 C :   -0.203719
  18 C :   -0.074968
  19 C :   -0.063531
  20 C :   -0.215868
  21 H :    0.033614
  22 C :   -0.050828
  23 H :    0.035540
  24 H :    0.033443
  25 C :   -0.041690
  26 H :    0.031163
  27 H :    0.016676
  28 C :   -0.060009
  29 H :    0.016102
  30 H :    0.033783
  31 H :    0.023103
  32 H :    0.035683
  33 H :    0.035788

  Mayer bond orders larger than 0.100000
B(  0-S ,  1-C ) :   1.1289 B(  0-S ,  4-C ) :   1.1600 B(  1-C ,  2-C ) :   1.5935
B(  1-C ,  4-C ) :   0.1014 B(  1-C , 32-H ) :   0.9595 B(  2-C ,  3-C ) :   1.2969
B(  2-C ,  6-C ) :   1.0172 B(  3-C ,  4-C ) :   1.5181 B(  3-C ,  5-H ) :   1.0023
B(  4-C , 20-C ) :   1.0531 B(  6-C ,  7-H ) :   0.9398 B(  6-C ,  8-H ) :   0.9331
B(  6-C ,  9-C ) :   1.0719 B(  9-C , 10-H ) :   0.9482 B(  9-C , 11-H ) :   0.9559
B(  9-C , 12-C ) :   1.0923 B( 12-C , 13-H ) :   0.9744 B( 12-C , 14-H ) :   0.9717
B( 12-C , 15-H ) :   0.9729 B( 16-S , 17-C ) :   1.1956 B( 16-S , 20-C ) :   1.1500
B( 17-C , 18-C ) :   1.5559 B( 17-C , 33-H ) :   0.9655 B( 18-C , 19-C ) :   1.2900
B( 18-C , 21-H ) :   0.9913 B( 19-C , 20-C ) :   1.5435 B( 19-C , 22-C ) :   1.0471
B( 22-C , 23-H ) :   0.9279 B( 22-C , 24-H ) :   0.9387 B( 22-C , 25-C ) :   1.0553
B( 25-C , 26-H ) :   0.9519 B( 25-C , 27-H ) :   0.9522 B( 25-C , 28-C ) :   1.0925
B( 28-C , 29-H ) :   0.9678 B( 28-C , 30-H ) :   0.9694 B( 28-C , 31-H ) :   0.9678

Dispersion correction           -0.013865027
FINAL SINGLE POINT ENERGY     -1339.869437534190

DIPOLE MOMENT
-------------
                                X             Y             Z
Electronic contribution:     -1.79002      30.52288      -3.94375
Nuclear contribution   :      1.70916     -31.07826       4.22628
                        -----------------------------------------
Total Dipole Moment    :     -0.08086      -0.55538       0.28252
                        -----------------------------------------
Magnitude (a.u.)       :      0.62833
Magnitude (Debye)      :      1.59710

Rotational constants in cm-1:     0.020960     0.008095     0.006234
Rotational constants in MHz :   628.376390   242.676827   186.890980

                             ****ORCA TERMINATED NORMALLY****
TOTAL RUN TIME: 0 days 0 hours 0 minutes 34 seconds 467 msec
