                         Program Version 4.2.1 -  RELEASE  -
|  1> ! wB97X-D3 SP def2-SVP
|  2> %pal
|  3> nprocs 16
|  4> end
|  5>
|  6> * xyz 0 1
|  7> S 	 34.1989 	 18.7141 	 62.3622
|  8> C 	 34.0666 	 20.1502 	 63.3206
|  9> C 	 35.2993 	 20.4282 	 63.9301
| 10> C 	 36.353 	 19.5586 	 63.5091
| 11> C 	 35.9695 	 18.6668 	 62.5126
| 12> H 	 37.3991 	 19.5743 	 63.8422
| 13> C 	 35.4979 	 21.5036 	 64.9653
| 14> H 	 34.9183 	 22.4473 	 64.7587
| 15> H 	 36.5946 	 21.7519 	 64.9225
| 16> C 	 35.133 	 21.2059 	 66.4402
| 17> H 	 34.1146 	 20.9435 	 66.5148
| 18> H 	 35.6845 	 20.3018 	 66.6012
| 19> C 	 35.5007 	 22.36 	 67.4231
| 20> H 	 34.9194 	 22.0987 	 68.3454
| 21> H 	 36.5743 	 22.3602 	 67.714
| 22> H 	 35.2928 	 23.4364 	 67.1664
| 23> S 	 36.8078 	 17.9257 	 60.0057
| 24> C 	 37.926 	 16.6393 	 59.8269
| 25> C 	 38.3684 	 16.1371 	 61.0318
| 26> C 	 37.7788 	 16.7918 	 62.1484
| 27> C 	 36.8443 	 17.7435 	 61.7585
| 28> H 	 39.1231 	 15.4426 	 61.0546
| 29> C 	 38.0152 	 16.422 	 63.6117
| 30> H 	 37.73 	 17.2981 	 64.2651
| 31> H 	 39.0886 	 16.3304 	 63.8771
| 32> C 	 37.3117 	 15.2126 	 64.1822
| 33> H 	 37.6954 	 15.2022 	 65.2057
| 34> H 	 37.4417 	 14.3075 	 63.615
| 35> C 	 35.7415 	 15.3363 	 64.2978
| 36> H 	 35.2905 	 15.3493 	 63.2987
| 37> H 	 35.5084 	 16.2937 	 64.7449
| 38> H 	 35.1323 	 14.5765 	 64.8715
| 39> H 	 33.1099 	 20.6654 	 63.5756
| 40> H 	 38.2287 	 16.1755 	 58.9002
| 41> *
| 42>
| 43>                          ****END OF INPUT****

CARTESIAN COORDINATES (ANGSTROEM)
---------------------------------
  S     34.198900   18.714100   62.362200
  C     34.066600   20.150200   63.320600
  C     35.299300   20.428200   63.930100
  C     36.353000   19.558600   63.509100
  C     35.969500   18.666800   62.512600
  H     37.399100   19.574300   63.842200
  C     35.497900   21.503600   64.965300
  H     34.918300   22.447300   64.758700
  H     36.594600   21.751900   64.922500
  C     35.133000   21.205900   66.440200
  H     34.114600   20.943500   66.514800
  H     35.684500   20.301800   66.601200
  C     35.500700   22.360000   67.423100
  H     34.919400   22.098700   68.345400
  H     36.574300   22.360200   67.714000
  H     35.292800   23.436400   67.166400
  S     36.807800   17.925700   60.005700
  C     37.926000   16.639300   59.826900
  C     38.368400   16.137100   61.031800
  C     37.778800   16.791800   62.148400
  C     36.844300   17.743500   61.758500
  H     39.123100   15.442600   61.054600
  C     38.015200   16.422000   63.611700
  H     37.730000   17.298100   64.265100
  H     39.088600   16.330400   63.877100
  C     37.311700   15.212600   64.182200
  H     37.695400   15.202200   65.205700
  H     37.441700   14.307500   63.615000
  C     35.741500   15.336300   64.297800
  H     35.290500   15.349300   63.298700
  H     35.508400   16.293700   64.744900
  H     35.132300   14.576500   64.871500
  H     33.109900   20.665400   63.575600
  H     38.228700   16.175500   58.900200

 Total Charge           Charge          ....    0
 Multiplicity           Mult            ....    1
 Number of Electrons    NEL             ....  134
 Basis Dimension        Dim             ....  322

ORBITAL ENERGIES
----------------

  NO   OCC          E(Eh)            E(eV)
   0   2.0000     -88.968226     -2420.9485
   1   2.0000     -88.967122     -2420.9185
   2   2.0000     -10.333812      -281.1973
   3   2.0000     -10.328943      -281.0648
   4   2.0000     -10.319330      -280.8032
   5   2.0000     -10.314929      -280.6835
   6   2.0000     -10.306152      -280.4447
   7   2.0000     -10.303613      -280.3756
   8   2.0000     -10.298666      -280.2410
   9   2.0000     -10.297497      -280.2091
  10   2.0000     -10.294381      -280.1243
  11   2.0000     -10.291311      -280.0408
  12   2.0000     -10.287888      -279.9477
  13   2.0000     -10.286380      -279.9066
  14   2.0000     -10.285059      -279.8707
  15   2.0000     -10.273953      -279.5685
  16   2.0000      -8.082475      -219.9353
  17   2.0000      -8.082316      -219.9310
  18   2.0000      -6.040981      -164.3835
  19   2.0000      -6.040668      -164.3749
  20   2.0000      -6.037007      -164.2753
  21   2.0000      -6.036719      -164.2675
  22   2.0000      -6.033292      -164.1742
  23   2.0000      -6.033247      -164.1730
  24   2.0000      -1.006322       -27.3834
  25   2.0000      -0.985635       -26.8205
  26   2.0000      -0.907173       -24.6854
  27   2.0000      -0.906321       -24.6623
  28   2.0000      -0.867253       -23.5992
  29   2.0000      -0.849002       -23.1025
  30   2.0000      -0.844675       -22.9848
  31   2.0000      -0.812902       -22.1202
  32   2.0000      -0.780412       -21.2361
  33   2.0000      -0.767587       -20.8871
  34   2.0000      -0.704139       -19.1606
  35   2.0000      -0.700210       -19.0537
  36   2.0000      -0.690563       -18.7912
  37   2.0000      -0.662155       -18.0181
  38   2.0000      -0.640245       -17.4220
  39   2.0000      -0.619918       -16.8688
  40   2.0000      -0.601819       -16.3763
  41   2.0000      -0.568725       -15.4758
  42   2.0000      -0.560561       -15.2536
  43   2.0000      -0.546518       -14.8715
  44   2.0000      -0.539121       -14.6702
  45   2.0000      -0.521093       -14.1797
  46   2.0000      -0.515331       -14.0229
  47   2.0000      -0.504147       -13.7185
  48   2.0000      -0.498715       -13.5707
  49   2.0000      -0.496401       -13.5077
  50   2.0000      -0.492604       -13.4044
  51   2.0000      -0.476380       -12.9629
  52   2.0000      -0.469137       -12.7659
  53   2.0000      -0.466903       -12.7051
  54   2.0000      -0.458768       -12.4837
  55   2.0000      -0.450455       -12.2575
  56   2.0000      -0.443441       -12.0666
  57   2.0000      -0.440786       -11.9944
  58   2.0000      -0.430763       -11.7217
  59   2.0000      -0.425674       -11.5832
  60   2.0000      -0.420652       -11.4465
  61   2.0000      -0.411211       -11.1896
  62   2.0000      -0.403844       -10.9892
  63   2.0000      -0.343586        -9.3494
  64   2.0000      -0.335382        -9.1262
  65   2.0000      -0.325888        -8.8679
  66   2.0000      -0.295896        -8.0517
  67   0.0000       0.028139         0.7657
  68   0.0000       0.065891         1.7930
  69   0.0000       0.110983         3.0200
  70   0.0000       0.116456         3.1689
  71   0.0000       0.130025         3.5382

MULLIKEN ATOMIC CHARGES
-----------------------
   0 S :    0.119555
   1 C :   -0.127289
   2 C :   -0.080776
   3 C :    0.039895
   4 C :   -0.164975
   5 H :    0.029109
   6 C :    0.000040
   7 H :    0.031483
   8 H :    0.026990
   9 C :   -0.024356
  10 H :    0.016813
  11 H :    0.016971
  12 C :   -0.087287
  13 H :    0.043154
  14 H :    0.040427
  15 H :    0.046841
  16 S :    0.125645
  17 C :   -0.078550
  18 C :   -0.013343
  19 C :    0.003073
  20 C :   -0.188986
  21 H :   -0.016600
  22 C :    0.034054
  23 H :    0.013938
  24 H :    0.032215
  25 C :   -0.040584
  26 H :    0.034058
  27 H :    0.033241
  28 C :   -0.086974
  29 H :    0.034165
  30 H :    0.021421
  31 H :    0.043519
  32 H :    0.069614
  33 H :    0.053501
Sum of atomic charges:    0.0000000

LOEWDIN ATOMIC CHARGES
----------------------
   0 S :    0.409726
   1 C :   -0.208553
   2 C :   -0.071607
   3 C :   -0.063426
   4 C :   -0.191871
   5 H :    0.035663
   6 C :   -0.043219
   7 H :    0.031858
   8 H :    0.031603
   9 C :   -0.035626
  10 H :    0.015755
  11 H :    0.022520
  12 C :   -0.077692
  13 H :    0.034491
  14 H :    0.029066
  15 H :    0.031342
  16 S :    0.424736
  17 C :   -0.189612
  18 C :   -0.062673
  19 C :   -0.053425
  20 C :   -0.198472
  21 H :    0.017453
  22 C :   -0.040292
  23 H :    0.034628
  24 H :    0.035222
  25 C :   -0.034811
  26 H :    0.028954
  27 H :    0.021662
  28 C :   -0.077535
  29 H :    0.023704
  30 H :    0.018471
  31 H :    0.031593
  32 H :    0.040640
  33 H :    0.029727

  Mayer bond orders larger than 0.100000
B(  0-S ,  1-C ) :   1.1483 B(  0-S ,  4-C ) :   1.1596 B(  1-C ,  2-C ) :   1.5754
B(  1-C ,  4-C ) :   0.1032 B(  1-C , 32-H ) :   0.9659 B(  2-C ,  3-C ) :   1.2612
B(  2-C ,  6-C ) :   1.0324 B(  3-C ,  4-C ) :   1.5555 B(  3-C ,  5-H ) :   0.9845
B(  4-C , 20-C ) :   1.0265 B(  6-C ,  7-H ) :   0.9441 B(  6-C ,  8-H ) :   0.9452
B(  6-C ,  9-C ) :   1.0570 B(  9-C , 10-H ) :   0.9607 B(  9-C , 11-H ) :   0.9525
B(  9-C , 12-C ) :   1.0647 B( 12-C , 13-H ) :   0.9759 B( 12-C , 14-H ) :   0.9762
B( 12-C , 15-H ) :   0.9772 B( 16-S , 17-C ) :   1.1672 B( 16-S , 20-C ) :   1.1539
B( 17-C , 18-C ) :   1.6002 B( 17-C , 33-H ) :   0.9653 B( 18-C , 19-C ) :   1.2423
B( 18-C , 21-H ) :   1.0060 B( 19-C , 20-C ) :   1.5866 B( 19-C , 22-C ) :   1.0391
B( 22-C , 23-H ) :   0.9295 B( 22-C , 24-H ) :   0.9338 B( 22-C , 25-C ) :   1.0788
B( 25-C , 26-H ) :   0.9528 B( 25-C , 27-H ) :   0.9606 B( 25-C , 28-C ) :   1.0656
B( 28-C , 29-H ) :   0.9764 B( 28-C , 30-H ) :   0.9748 B( 28-C , 31-H ) :   0.9782

Dispersion correction           -0.014956929
FINAL SINGLE POINT ENERGY     -1339.879439870204

DIPOLE MOMENT
-------------
                                X             Y             Z
Electronic contribution:     -2.28740      -2.84100     -27.27886
Nuclear contribution   :      2.57113       2.82165      27.79484
                        -----------------------------------------
Total Dipole Moment    :      0.28374      -0.01935       0.51598
                        -----------------------------------------
Magnitude (a.u.)       :      0.58916
Magnitude (Debye)      :      1.49753

Rotational constants in cm-1:     0.021146     0.007916     0.006907
Rotational constants in MHz :   633.955258   237.328812   207.072852

                             ****ORCA TERMINATED NORMALLY****
TOTAL RUN TIME: 0 days 0 hours 0 minutes 30 seconds 699 msec
