                         Program Version 4.2.1 -  RELEASE  -
|  1> ! wB97X-D3 SP def2-SVP
|  2> %pal
|  3> nprocs 16
|  4> end
|  5>
|  6> * xyz 0 1
|  7> S 	 -4.3485 	 37.6765 	 33.9297
|  8> C 	 -5.79209 	 36.7018 	 34.231
|  9> C 	 -6.78727 	 37.4518 	 34.8135
| 10> C 	 -6.42803 	 38.858 	 34.7947
| 11> C 	 -5.13377 	 39.137 	 34.4318
| 12> H 	 -7.10165 	 39.6272 	 35.2735
| 13> C 	 -8.10425 	 36.8406 	 35.1402
| 14> H 	 -8.20642 	 35.9265 	 34.5163
| 15> H 	 -8.84494 	 37.4622 	 34.6148
| 16> C 	 -8.36992 	 36.4628 	 36.627
| 17> H 	 -7.50681 	 35.85 	 36.8752
| 18> H 	 -8.06999 	 37.3736 	 37.1471
| 19> C 	 -9.79651 	 35.9436 	 36.6865
| 20> H 	 -10.0952 	 35.6268 	 37.6215
| 21> H 	 -10.4969 	 36.7381 	 36.4711
| 22> H 	 -10.1551 	 35.1098 	 36.0289
| 23> S 	 -2.81609 	 40.5287 	 34.8223
| 24> C 	 -2.7851 	 42.2503 	 34.6169
| 25> C 	 -4.01747 	 42.7421 	 34.2469
| 26> C 	 -4.95814 	 41.7254 	 34.0726
| 27> C 	 -4.53997 	 40.4436 	 34.4393
| 28> H 	 -4.31683 	 43.7672 	 33.9128
| 29> C 	 -6.34648 	 42.0359 	 33.4487
| 30> H 	 -6.77463 	 41.125 	 33.0781
| 31> H 	 -6.19153 	 42.6297 	 32.5253
| 32> C 	 -7.33209 	 42.8852 	 34.2861
| 33> H 	 -7.02523 	 43.9177 	 34.2496
| 34> H 	 -7.19658 	 42.6321 	 35.312
| 35> C 	 -8.79267 	 42.7921 	 33.7969
| 36> H 	 -8.74202 	 42.5975 	 32.7431
| 37> H 	 -9.39901 	 43.6082 	 34.2366
| 38> H 	 -9.33755 	 41.8916 	 34.2537
| 39> H 	 -5.72636 	 35.6341 	 34.0753
| 40> H 	 -1.91299 	 42.9035 	 34.6845
| 41> *
| 42>
| 43>                          ****END OF INPUT****

CARTESIAN COORDINATES (ANGSTROEM)
---------------------------------
  S     -4.348500   37.676500   33.929700
  C     -5.792090   36.701800   34.231000
  C     -6.787270   37.451800   34.813500
  C     -6.428030   38.858000   34.794700
  C     -5.133770   39.137000   34.431800
  H     -7.101650   39.627200   35.273500
  C     -8.104250   36.840600   35.140200
  H     -8.206420   35.926500   34.516300
  H     -8.844940   37.462200   34.614800
  C     -8.369920   36.462800   36.627000
  H     -7.506810   35.850000   36.875200
  H     -8.069990   37.373600   37.147100
  C     -9.796510   35.943600   36.686500
  H    -10.095200   35.626800   37.621500
  H    -10.496900   36.738100   36.471100
  H    -10.155100   35.109800   36.028900
  S     -2.816090   40.528700   34.822300
  C     -2.785100   42.250300   34.616900
  C     -4.017470   42.742100   34.246900
  C     -4.958140   41.725400   34.072600
  C     -4.539970   40.443600   34.439300
  H     -4.316830   43.767200   33.912800
  C     -6.346480   42.035900   33.448700
  H     -6.774630   41.125000   33.078100
  H     -6.191530   42.629700   32.525300
  C     -7.332090   42.885200   34.286100
  H     -7.025230   43.917700   34.249600
  H     -7.196580   42.632100   35.312000
  C     -8.792670   42.792100   33.796900
  H     -8.742020   42.597500   32.743100
  H     -9.399010   43.608200   34.236600
  H     -9.337550   41.891600   34.253700
  H     -5.726360   35.634100   34.075300
  H     -1.912990   42.903500   34.684500

 Total Charge           Charge          ....    0
 Multiplicity           Mult            ....    1
 Number of Electrons    NEL             ....  134
 Basis Dimension        Dim             ....  322

ORBITAL ENERGIES
----------------

  NO   OCC          E(Eh)            E(eV)
   0   2.0000     -88.967110     -2420.9181
   1   2.0000     -88.963967     -2420.8326
   2   2.0000     -10.329016      -281.0668
   3   2.0000     -10.328125      -281.0426
   4   2.0000     -10.320117      -280.8247
   5   2.0000     -10.314694      -280.6771
   6   2.0000     -10.302249      -280.3385
   7   2.0000     -10.301039      -280.3055
   8   2.0000     -10.297672      -280.2139
   9   2.0000     -10.294449      -280.1262
  10   2.0000     -10.292650      -280.0772
  11   2.0000     -10.290887      -280.0293
  12   2.0000     -10.290401      -280.0161
  13   2.0000     -10.286525      -279.9106
  14   2.0000     -10.282499      -279.8010
  15   2.0000     -10.279782      -279.7271
  16   2.0000      -8.081863      -219.9187
  17   2.0000      -8.079050      -219.8421
  18   2.0000      -6.040349      -164.3663
  19   2.0000      -6.037610      -164.2917
  20   2.0000      -6.036365      -164.2579
  21   2.0000      -6.033527      -164.1806
  22   2.0000      -6.032653      -164.1568
  23   2.0000      -6.029716      -164.0769
  24   2.0000      -1.009632       -27.4735
  25   2.0000      -0.986531       -26.8449
  26   2.0000      -0.915463       -24.9110
  27   2.0000      -0.905117       -24.6295
  28   2.0000      -0.874186       -23.7878
  29   2.0000      -0.852080       -23.1863
  30   2.0000      -0.845597       -23.0099
  31   2.0000      -0.814316       -22.1587
  32   2.0000      -0.781513       -21.2661
  33   2.0000      -0.770834       -20.9754
  34   2.0000      -0.717062       -19.5123
  35   2.0000      -0.703936       -19.1551
  36   2.0000      -0.699075       -19.0228
  37   2.0000      -0.662880       -18.0379
  38   2.0000      -0.641604       -17.4589
  39   2.0000      -0.618380       -16.8270
  40   2.0000      -0.598982       -16.2991
  41   2.0000      -0.568223       -15.4621
  42   2.0000      -0.556323       -15.1383
  43   2.0000      -0.550657       -14.9841
  44   2.0000      -0.536323       -14.5941
  45   2.0000      -0.524963       -14.2850
  46   2.0000      -0.519919       -14.1477
  47   2.0000      -0.511515       -13.9190
  48   2.0000      -0.508809       -13.8454
  49   2.0000      -0.499504       -13.5922
  50   2.0000      -0.485829       -13.2201
  51   2.0000      -0.481650       -13.1064
  52   2.0000      -0.471592       -12.8327
  53   2.0000      -0.471387       -12.8271
  54   2.0000      -0.455262       -12.3883
  55   2.0000      -0.452103       -12.3024
  56   2.0000      -0.444202       -12.0873
  57   2.0000      -0.442054       -12.0289
  58   2.0000      -0.435761       -11.8577
  59   2.0000      -0.424500       -11.5512
  60   2.0000      -0.421644       -11.4735
  61   2.0000      -0.408349       -11.1117
  62   2.0000      -0.403894       -10.9905
  63   2.0000      -0.356255        -9.6942
  64   2.0000      -0.334496        -9.1021
  65   2.0000      -0.329451        -8.9648
  66   2.0000      -0.286748        -7.8028
  67   0.0000       0.024768         0.6740
  68   0.0000       0.075161         2.0452
  69   0.0000       0.109378         2.9763
  70   0.0000       0.120851         3.2885
  71   0.0000       0.123546         3.3619

MULLIKEN ATOMIC CHARGES
-----------------------
   0 S :    0.098756
   1 C :   -0.130366
   2 C :   -0.076524
   3 C :   -0.020382
   4 C :   -0.107364
   5 H :    0.035739
   6 C :   -0.007748
   7 H :    0.015573
   8 H :    0.026749
   9 C :   -0.018401
  10 H :    0.023526
  11 H :    0.027199
  12 C :    0.003627
  13 H :    0.009723
  14 H :    0.023227
  15 H :    0.037642
  16 S :    0.101849
  17 C :   -0.083472
  18 C :   -0.027346
  19 C :   -0.059303
  20 C :   -0.151449
  21 H :    0.032545
  22 C :    0.035506
  23 H :    0.019500
  24 H :    0.028309
  25 C :   -0.055235
  26 H :    0.020356
  27 H :    0.021469
  28 C :   -0.063973
  29 H :    0.040857
  30 H :    0.047438
  31 H :    0.032180
  32 H :    0.055529
  33 H :    0.064264
Sum of atomic charges:    0.0000000

LOEWDIN ATOMIC CHARGES
----------------------
   0 S :    0.396471
   1 C :   -0.182992
   2 C :   -0.068293
   3 C :   -0.073686
   4 C :   -0.201908
   5 H :    0.039534
   6 C :   -0.041420
   7 H :    0.030324
   8 H :    0.030746
   9 C :   -0.036719
  10 H :    0.027180
  11 H :    0.029098
  12 C :   -0.064284
  13 H :    0.014361
  14 H :    0.030657
  15 H :    0.037103
  16 S :    0.409060
  17 C :   -0.187668
  18 C :   -0.079460
  19 C :   -0.056292
  20 C :   -0.190859
  21 H :    0.041323
  22 C :   -0.032576
  23 H :    0.022990
  24 H :    0.032883
  25 C :   -0.042853
  26 H :    0.019716
  27 H :    0.016731
  28 C :   -0.070017
  29 H :    0.024853
  30 H :    0.033345
  31 H :    0.031547
  32 H :    0.026468
  33 H :    0.034637

  Mayer bond orders larger than 0.100000
B(  0-S ,  1-C ) :   1.1299 B(  0-S ,  4-C ) :   1.1416 B(  1-C ,  2-C ) :   1.6061
B(  1-C , 32-H ) :   0.9701 B(  2-C ,  3-C ) :   1.2371 B(  2-C ,  6-C ) :   1.0222
B(  3-C ,  4-C ) :   1.5651 B(  3-C ,  5-H ) :   0.9867 B(  4-C , 20-C ) :   1.0779
B(  6-C ,  7-H ) :   0.9470 B(  6-C ,  8-H ) :   0.9467 B(  6-C ,  9-C ) :   1.0283
B(  9-C , 10-H ) :   0.9550 B(  9-C , 11-H ) :   0.9606 B(  9-C , 12-C ) :   1.0576
B( 12-C , 13-H ) :   0.9727 B( 12-C , 14-H ) :   0.9707 B( 12-C , 15-H ) :   0.9745
B( 16-S , 17-C ) :   1.1699 B( 16-S , 20-C ) :   1.1288 B( 17-C , 18-C ) :   1.5668
B( 17-C , 20-C ) :   0.1060 B( 17-C , 33-H ) :   0.9653 B( 18-C , 19-C ) :   1.2964
B( 18-C , 21-H ) :   0.9785 B( 19-C , 20-C ) :   1.5662 B( 19-C , 22-C ) :   1.0427
B( 22-C , 23-H ) :   0.9440 B( 22-C , 24-H ) :   0.9316 B( 22-C , 25-C ) :   1.0506
B( 25-C , 26-H ) :   0.9531 B( 25-C , 27-H ) :   0.9612 B( 25-C , 28-C ) :   1.0764
B( 28-C , 29-H ) :   0.9746 B( 28-C , 30-H ) :   0.9734 B( 28-C , 31-H ) :   0.9753

Dispersion correction           -0.013712600
FINAL SINGLE POINT ENERGY     -1339.867507021144

DIPOLE MOMENT
-------------
                                X             Y             Z
Electronic contribution:     31.03941      -1.92322      -4.14235
Nuclear contribution   :    -31.70337       2.07336       4.17865
                        -----------------------------------------
Total Dipole Moment    :     -0.66396       0.15014       0.03630
                        -----------------------------------------
Magnitude (a.u.)       :      0.68169
Magnitude (Debye)      :      1.73273

Rotational constants in cm-1:     0.017290     0.008563     0.006230
Rotational constants in MHz :   518.344764   256.722545   186.767538

                             ****ORCA TERMINATED NORMALLY****
TOTAL RUN TIME: 0 days 0 hours 0 minutes 33 seconds 382 msec
