                         Program Version 4.2.1 -  RELEASE  -
|  1> ! wB97X-D3 SP def2-SVP
|  2> %pal
|  3> nprocs 16
|  4> end
|  5>
|  6> * xyz 0 1
|  7> S 	 55.8268 	 18.4991 	 48.8772
|  8> C 	 54.3593 	 19.4124 	 48.4639
|  9> C 	 53.5485 	 18.6676 	 47.642
| 10> C 	 54.0161 	 17.3111 	 47.573
| 11> C 	 55.2739 	 17.0324 	 48.1213
| 12> H 	 53.5546 	 16.5289 	 47.0097
| 13> C 	 52.3177 	 19.212 	 46.9226
| 14> H 	 52.1437 	 20.1849 	 47.3573
| 15> H 	 51.3921 	 18.6277 	 47.1547
| 16> C 	 52.5541 	 19.3963 	 45.4257
| 17> H 	 53.4336 	 18.8749 	 45.0218
| 18> H 	 51.6485 	 18.9699 	 44.9572
| 19> C 	 52.7221 	 20.8837 	 44.9437
| 20> H 	 52.5643 	 21.0324 	 43.8597
| 21> H 	 51.9562 	 21.4936 	 45.382
| 22> H 	 53.6876 	 21.3533 	 45.2573
| 23> S 	 57.5739 	 15.7282 	 47.4582
| 24> C 	 57.8143 	 14.0615 	 47.7347
| 25> C 	 56.6498 	 13.535 	 48.1937
| 26> C 	 55.523 	 14.4686 	 48.3768
| 27> C 	 55.9219 	 15.7745 	 48.0742
| 28> H 	 56.6574 	 12.4415 	 48.286
| 29> C 	 54.2023 	 14.0194 	 48.8746
| 30> H 	 53.6527 	 14.8119 	 49.4329
| 31> H 	 54.3671 	 13.2546 	 49.6114
| 32> C 	 53.3308 	 13.3079 	 47.7686
| 33> H 	 53.7891 	 12.4475 	 47.2818
| 34> H 	 53.2593 	 13.9293 	 46.9534
| 35> C 	 51.8749 	 12.9296 	 48.2158
| 36> H 	 51.9466 	 12.1914 	 49.0733
| 37> H 	 51.4293 	 12.3393 	 47.3902
| 38> H 	 51.2192 	 13.7672 	 48.3273
| 39> H 	 54.262 	 20.5383 	 48.6202
| 40> H 	 58.6047 	 13.4383 	 47.4949
| 41> *
| 42>
| 43>                          ****END OF INPUT****

CARTESIAN COORDINATES (ANGSTROEM)
---------------------------------
  S     55.826800   18.499100   48.877200
  C     54.359300   19.412400   48.463900
  C     53.548500   18.667600   47.642000
  C     54.016100   17.311100   47.573000
  C     55.273900   17.032400   48.121300
  H     53.554600   16.528900   47.009700
  C     52.317700   19.212000   46.922600
  H     52.143700   20.184900   47.357300
  H     51.392100   18.627700   47.154700
  C     52.554100   19.396300   45.425700
  H     53.433600   18.874900   45.021800
  H     51.648500   18.969900   44.957200
  C     52.722100   20.883700   44.943700
  H     52.564300   21.032400   43.859700
  H     51.956200   21.493600   45.382000
  H     53.687600   21.353300   45.257300
  S     57.573900   15.728200   47.458200
  C     57.814300   14.061500   47.734700
  C     56.649800   13.535000   48.193700
  C     55.523000   14.468600   48.376800
  C     55.921900   15.774500   48.074200
  H     56.657400   12.441500   48.286000
  C     54.202300   14.019400   48.874600
  H     53.652700   14.811900   49.432900
  H     54.367100   13.254600   49.611400
  C     53.330800   13.307900   47.768600
  H     53.789100   12.447500   47.281800
  H     53.259300   13.929300   46.953400
  C     51.874900   12.929600   48.215800
  H     51.946600   12.191400   49.073300
  H     51.429300   12.339300   47.390200
  H     51.219200   13.767200   48.327300
  H     54.262000   20.538300   48.620200
  H     58.604700   13.438300   47.494900

 Total Charge           Charge          ....    0
 Multiplicity           Mult            ....    1
 Number of Electrons    NEL             ....  134
 Basis Dimension        Dim             ....  322

ORBITAL ENERGIES
----------------

  NO   OCC          E(Eh)            E(eV)
   0   2.0000     -88.965496     -2420.8742
   1   2.0000     -88.960244     -2420.7313
   2   2.0000     -10.329540      -281.0811
   3   2.0000     -10.328618      -281.0560
   4   2.0000     -10.321661      -280.8667
   5   2.0000     -10.309721      -280.5418
   6   2.0000     -10.308971      -280.5214
   7   2.0000     -10.304242      -280.3927
   8   2.0000     -10.297496      -280.2091
   9   2.0000     -10.293616      -280.1035
  10   2.0000     -10.293152      -280.0909
  11   2.0000     -10.292908      -280.0843
  12   2.0000     -10.291851      -280.0555
  13   2.0000     -10.285596      -279.8853
  14   2.0000     -10.284744      -279.8621
  15   2.0000     -10.283212      -279.8204
  16   2.0000      -8.079891      -219.8650
  17   2.0000      -8.075841      -219.7548
  18   2.0000      -6.038552      -164.3173
  19   2.0000      -6.034424      -164.2050
  20   2.0000      -6.034340      -164.2027
  21   2.0000      -6.030581      -164.1004
  22   2.0000      -6.030119      -164.0879
  23   2.0000      -6.026545      -163.9906
  24   2.0000      -1.008307       -27.4374
  25   2.0000      -0.984950       -26.8018
  26   2.0000      -0.911901       -24.8141
  27   2.0000      -0.906125       -24.6569
  28   2.0000      -0.875237       -23.8164
  29   2.0000      -0.847773       -23.0691
  30   2.0000      -0.839829       -22.8529
  31   2.0000      -0.815190       -22.1824
  32   2.0000      -0.782800       -21.3011
  33   2.0000      -0.773318       -21.0430
  34   2.0000      -0.715358       -19.4659
  35   2.0000      -0.704591       -19.1729
  36   2.0000      -0.694603       -18.9011
  37   2.0000      -0.659617       -17.9491
  38   2.0000      -0.639122       -17.3914
  39   2.0000      -0.619359       -16.8536
  40   2.0000      -0.595910       -16.2155
  41   2.0000      -0.576473       -15.6866
  42   2.0000      -0.561338       -15.2748
  43   2.0000      -0.551435       -15.0053
  44   2.0000      -0.526827       -14.3357
  45   2.0000      -0.524535       -14.2733
  46   2.0000      -0.518262       -14.1026
  47   2.0000      -0.514433       -13.9984
  48   2.0000      -0.507002       -13.7962
  49   2.0000      -0.504831       -13.7372
  50   2.0000      -0.492382       -13.3984
  51   2.0000      -0.478614       -13.0237
  52   2.0000      -0.472077       -12.8459
  53   2.0000      -0.469433       -12.7739
  54   2.0000      -0.456850       -12.4315
  55   2.0000      -0.445981       -12.1358
  56   2.0000      -0.440495       -11.9865
  57   2.0000      -0.436766       -11.8850
  58   2.0000      -0.434018       -11.8102
  59   2.0000      -0.424149       -11.5417
  60   2.0000      -0.421875       -11.4798
  61   2.0000      -0.414837       -11.2883
  62   2.0000      -0.408902       -11.1268
  63   2.0000      -0.351198        -9.5566
  64   2.0000      -0.329870        -8.9762
  65   2.0000      -0.322833        -8.7847
  66   2.0000      -0.295525        -8.0417
  67   0.0000       0.028912         0.7867
  68   0.0000       0.073702         2.0055
  69   0.0000       0.119560         3.2534
  70   0.0000       0.122715         3.3393
  71   0.0000       0.126125         3.4320

MULLIKEN ATOMIC CHARGES
-----------------------
   0 S :    0.112011
   1 C :   -0.150186
   2 C :   -0.098813
   3 C :    0.029190
   4 C :   -0.142378
   5 H :   -0.004201
   6 C :    0.083435
   7 H :    0.008070
   8 H :    0.047057
   9 C :   -0.077415
  10 H :    0.052571
  11 H :    0.032152
  12 C :   -0.079182
  13 H :    0.043088
  14 H :    0.017643
  15 H :    0.043061
  16 S :    0.097321
  17 C :   -0.043190
  18 C :   -0.064280
  19 C :   -0.016719
  20 C :   -0.164951
  21 H :    0.021450
  22 C :    0.074460
  23 H :    0.040835
  24 H :    0.016054
  25 C :   -0.061894
  26 H :    0.021616
  27 H :   -0.000866
  28 C :   -0.058563
  29 H :    0.043133
  30 H :    0.030487
  31 H :    0.040099
  32 H :    0.078274
  33 H :    0.030632
Sum of atomic charges:   -0.0000000

LOEWDIN ATOMIC CHARGES
----------------------
   0 S :    0.401268
   1 C :   -0.201776
   2 C :   -0.065336
   3 C :   -0.059080
   4 C :   -0.204828
   5 H :    0.023167
   6 C :   -0.030532
   7 H :    0.027506
   8 H :    0.038608
   9 C :   -0.043469
  10 H :    0.030425
  11 H :    0.028445
  12 C :   -0.071568
  13 H :    0.030606
  14 H :    0.016616
  15 H :    0.029415
  16 S :    0.411671
  17 C :   -0.188659
  18 C :   -0.075956
  19 C :   -0.049404
  20 C :   -0.194314
  21 H :    0.031469
  22 C :   -0.035217
  23 H :    0.038818
  24 H :    0.029628
  25 C :   -0.035204
  26 H :    0.026378
  27 H :    0.007409
  28 C :   -0.067412
  29 H :    0.031800
  30 H :    0.029934
  31 H :    0.021728
  32 H :    0.044711
  33 H :    0.023151

  Mayer bond orders larger than 0.100000
B(  0-S ,  1-C ) :   1.1353 B(  0-S ,  4-C ) :   1.1427 B(  1-C ,  2-C ) :   1.6169
B(  1-C , 32-H ) :   0.9520 B(  2-C ,  3-C ) :   1.2409 B(  2-C ,  6-C ) :   1.0288
B(  3-C ,  4-C ) :   1.5539 B(  3-C ,  5-H ) :   1.0004 B(  4-C , 20-C ) :   1.0866
B(  6-C ,  7-H ) :   0.9408 B(  6-C ,  8-H ) :   0.9483 B(  6-C ,  9-C ) :   1.0306
B(  9-C , 10-H ) :   0.9666 B(  9-C , 11-H ) :   0.9570 B(  9-C , 12-C ) :   1.0795
B( 12-C , 13-H ) :   0.9765 B( 12-C , 14-H ) :   0.9761 B( 12-C , 15-H ) :   0.9766
B( 16-S , 17-C ) :   1.1434 B( 16-S , 20-C ) :   1.1342 B( 17-C , 18-C ) :   1.6416
B( 17-C , 33-H ) :   0.9734 B( 18-C , 19-C ) :   1.2116 B( 18-C , 21-H ) :   0.9836
B( 19-C , 20-C ) :   1.5773 B( 19-C , 22-C ) :   1.0730 B( 22-C , 23-H ) :   0.9374
B( 22-C , 24-H ) :   0.9252 B( 22-C , 25-C ) :   1.0411 B( 25-C , 26-H ) :   0.9541
B( 25-C , 27-H ) :   0.9544 B( 25-C , 28-C ) :   1.0853 B( 28-C , 29-H ) :   0.9757
B( 28-C , 30-H ) :   0.9733 B( 28-C , 31-H ) :   0.9775

Dispersion correction           -0.013969875
FINAL SINGLE POINT ENERGY     -1339.870861502878

DIPOLE MOMENT
-------------
                                X             Y             Z
Electronic contribution:     25.28595       2.29776       9.32471
Nuclear contribution   :    -25.93037      -2.55701      -9.67292
                        -----------------------------------------
Total Dipole Moment    :     -0.64442      -0.25925      -0.34822
                        -----------------------------------------
Magnitude (a.u.)       :      0.77701
Magnitude (Debye)      :      1.97500

Rotational constants in cm-1:     0.017380     0.008514     0.006647
Rotational constants in MHz :   521.027980   255.245712   199.260702

                             ****ORCA TERMINATED NORMALLY****
TOTAL RUN TIME: 0 days 0 hours 0 minutes 29 seconds 763 msec
