                         Program Version 4.2.1 -  RELEASE  -
|  1> ! wB97X-D3 SP def2-SVP
|  2> %pal
|  3> nprocs 16
|  4> end
|  5>
|  6> * xyz 0 1
|  7> S 	 -36.0792 	 65.8745 	 145.373
|  8> C 	 -34.7214 	 65.6822 	 144.285
|  9> C 	 -33.5838 	 66.058 	 144.926
| 10> C 	 -33.7592 	 66.3807 	 146.351
| 11> C 	 -35.1455 	 66.4585 	 146.697
| 12> H 	 -33.0043 	 66.5693 	 147.063
| 13> C 	 -32.2665 	 66.1782 	 144.299
| 14> H 	 -32.1322 	 65.6446 	 143.402
| 15> H 	 -31.5317 	 65.6198 	 144.931
| 16> C 	 -31.8198 	 67.6305 	 144.131
| 17> H 	 -31.2704 	 67.9777 	 144.985
| 18> H 	 -30.9381 	 67.7247 	 143.55
| 19> C 	 -32.7394 	 68.7636 	 143.669
| 20> H 	 -33.065 	 68.5852 	 142.667
| 21> H 	 -33.5906 	 69.0012 	 144.26
| 22> H 	 -32.2545 	 69.675 	 143.585
| 23> S 	 -36.5983 	 65.5225 	 148.753
| 24> C 	 -36.8061 	 66.4797 	 150.187
| 25> C 	 -36.1215 	 67.6498 	 150.142
| 26> C 	 -35.5469 	 67.9362 	 148.869
| 27> C 	 -35.7129 	 66.8199 	 148.001
| 28> H 	 -36.1499 	 68.3865 	 150.981
| 29> C 	 -34.7968 	 69.2073 	 148.571
| 30> H 	 -35.4951 	 69.9569 	 148.507
| 31> H 	 -34.1675 	 69.084 	 147.674
| 32> C 	 -33.8215 	 69.6479 	 149.682
| 33> H 	 -32.9134 	 69.0341 	 149.525
| 34> H 	 -34.1498 	 69.515 	 150.676
| 35> C 	 -33.4111 	 71.1188 	 149.571
| 36> H 	 -32.5498 	 71.2897 	 150.268
| 37> H 	 -34.1969 	 71.8192 	 149.859
| 38> H 	 -33.0571 	 71.3398 	 148.554
| 39> H 	 -34.6326 	 65.6107 	 143.218
| 40> H 	 -37.1535 	 66.2005 	 151.093
| 41> *
| 42>
| 43>                          ****END OF INPUT****

CARTESIAN COORDINATES (ANGSTROEM)
---------------------------------
  S    -36.079200   65.874500  145.373000
  C    -34.721400   65.682200  144.285000
  C    -33.583800   66.058000  144.926000
  C    -33.759200   66.380700  146.351000
  C    -35.145500   66.458500  146.697000
  H    -33.004300   66.569300  147.063000
  C    -32.266500   66.178200  144.299000
  H    -32.132200   65.644600  143.402000
  H    -31.531700   65.619800  144.931000
  C    -31.819800   67.630500  144.131000
  H    -31.270400   67.977700  144.985000
  H    -30.938100   67.724700  143.550000
  C    -32.739400   68.763600  143.669000
  H    -33.065000   68.585200  142.667000
  H    -33.590600   69.001200  144.260000
  H    -32.254500   69.675000  143.585000
  S    -36.598300   65.522500  148.753000
  C    -36.806100   66.479700  150.187000
  C    -36.121500   67.649800  150.142000
  C    -35.546900   67.936200  148.869000
  C    -35.712900   66.819900  148.001000
  H    -36.149900   68.386500  150.981000
  C    -34.796800   69.207300  148.571000
  H    -35.495100   69.956900  148.507000
  H    -34.167500   69.084000  147.674000
  C    -33.821500   69.647900  149.682000
  H    -32.913400   69.034100  149.525000
  H    -34.149800   69.515000  150.676000
  C    -33.411100   71.118800  149.571000
  H    -32.549800   71.289700  150.268000
  H    -34.196900   71.819200  149.859000
  H    -33.057100   71.339800  148.554000
  H    -34.632600   65.610700  143.218000
  H    -37.153500   66.200500  151.093000

 Total Charge           Charge          ....    0
 Multiplicity           Mult            ....    1
 Number of Electrons    NEL             ....  134
 Basis Dimension        Dim             ....  322

ORBITAL ENERGIES
----------------

  NO   OCC          E(Eh)            E(eV)
   0   2.0000     -88.967853     -2420.9384
   1   2.0000     -88.965252     -2420.8676
   2   2.0000     -10.334234      -281.2088
   3   2.0000     -10.330066      -281.0954
   4   2.0000     -10.307706      -280.4870
   5   2.0000     -10.307264      -280.4749
   6   2.0000     -10.306060      -280.4422
   7   2.0000     -10.297155      -280.1998
   8   2.0000     -10.296130      -280.1719
   9   2.0000     -10.293641      -280.1042
  10   2.0000     -10.288433      -279.9625
  11   2.0000     -10.286982      -279.9230
  12   2.0000     -10.284701      -279.8609
  13   2.0000     -10.282754      -279.8080
  14   2.0000     -10.279873      -279.7296
  15   2.0000     -10.265279      -279.3324
  16   2.0000      -8.082866      -219.9460
  17   2.0000      -8.080108      -219.8709
  18   2.0000      -6.041341      -164.3933
  19   2.0000      -6.038769      -164.3233
  20   2.0000      -6.037303      -164.2834
  21   2.0000      -6.034427      -164.2051
  22   2.0000      -6.033664      -164.1843
  23   2.0000      -6.030837      -164.1074
  24   2.0000      -1.007095       -27.4044
  25   2.0000      -0.985704       -26.8224
  26   2.0000      -0.916874       -24.9494
  27   2.0000      -0.913606       -24.8605
  28   2.0000      -0.872026       -23.7290
  29   2.0000      -0.852124       -23.1875
  30   2.0000      -0.845501       -23.0073
  31   2.0000      -0.816134       -22.2081
  32   2.0000      -0.789955       -21.4958
  33   2.0000      -0.776347       -21.1255
  34   2.0000      -0.716109       -19.4863
  35   2.0000      -0.703995       -19.1567
  36   2.0000      -0.699750       -19.0412
  37   2.0000      -0.657493       -17.8913
  38   2.0000      -0.637515       -17.3477
  39   2.0000      -0.618565       -16.8320
  40   2.0000      -0.602381       -16.3916
  41   2.0000      -0.574678       -15.6378
  42   2.0000      -0.573690       -15.6109
  43   2.0000      -0.554007       -15.0753
  44   2.0000      -0.543053       -14.7772
  45   2.0000      -0.524344       -14.2681
  46   2.0000      -0.517758       -14.0889
  47   2.0000      -0.508680       -13.8419
  48   2.0000      -0.505656       -13.7596
  49   2.0000      -0.504449       -13.7268
  50   2.0000      -0.495762       -13.4904
  51   2.0000      -0.475710       -12.9447
  52   2.0000      -0.471953       -12.8425
  53   2.0000      -0.464659       -12.6440
  54   2.0000      -0.460749       -12.5376
  55   2.0000      -0.455439       -12.3931
  56   2.0000      -0.448529       -12.2051
  57   2.0000      -0.443612       -12.0713
  58   2.0000      -0.430579       -11.7167
  59   2.0000      -0.428538       -11.6611
  60   2.0000      -0.423264       -11.5176
  61   2.0000      -0.414476       -11.2785
  62   2.0000      -0.400504       -10.8983
  63   2.0000      -0.346153        -9.4193
  64   2.0000      -0.330882        -9.0038
  65   2.0000      -0.322856        -8.7854
  66   2.0000      -0.295396        -8.0381
  67   0.0000       0.033008         0.8982
  68   0.0000       0.067265         1.8304
  69   0.0000       0.113921         3.1000
  70   0.0000       0.123940         3.3726
  71   0.0000       0.125699         3.4204

MULLIKEN ATOMIC CHARGES
-----------------------
   0 S :    0.112319
   1 C :   -0.080093
   2 C :   -0.126867
   3 C :    0.060149
   4 C :   -0.167533
   5 H :   -0.001397
   6 C :    0.101430
   7 H :    0.002743
   8 H :    0.030432
   9 C :   -0.064685
  10 H :    0.000704
  11 H :    0.001241
  12 C :    0.013351
  13 H :    0.011146
  14 H :    0.030764
  15 H :    0.005188
  16 S :    0.121133
  17 C :   -0.014498
  18 C :   -0.084280
  19 C :   -0.030984
  20 C :   -0.174489
  21 H :    0.035379
  22 C :    0.141466
  23 H :    0.009308
  24 H :    0.034142
  25 C :   -0.107419
  26 H :    0.031805
  27 H :    0.021825
  28 C :   -0.068630
  29 H :    0.038339
  30 H :    0.038463
  31 H :    0.030833
  32 H :    0.040316
  33 H :    0.008400
Sum of atomic charges:   -0.0000000

LOEWDIN ATOMIC CHARGES
----------------------
   0 S :    0.417789
   1 C :   -0.208585
   2 C :   -0.059877
   3 C :   -0.057704
   4 C :   -0.205127
   5 H :    0.021471
   6 C :   -0.034718
   7 H :    0.021843
   8 H :    0.043736
   9 C :   -0.049422
  10 H :    0.022173
  11 H :    0.024297
  12 C :   -0.055983
  13 H :    0.021190
  14 H :    0.023013
  15 H :    0.021468
  16 S :    0.425758
  17 C :   -0.175900
  18 C :   -0.072600
  19 C :   -0.047987
  20 C :   -0.206252
  21 H :    0.037631
  22 C :   -0.022143
  23 H :    0.021210
  24 H :    0.036861
  25 C :   -0.037883
  26 H :    0.027400
  27 H :    0.013433
  28 C :   -0.067320
  29 H :    0.032084
  30 H :    0.023472
  31 H :    0.023781
  32 H :    0.033957
  33 H :    0.008934

  Mayer bond orders larger than 0.100000
B(  0-S ,  1-C ) :   1.1108 B(  0-S ,  4-C ) :   1.1748 B(  1-C ,  2-C ) :   1.6420
B(  1-C , 32-H ) :   0.9608 B(  2-C ,  3-C ) :   1.2045 B(  2-C ,  6-C ) :   1.0569
B(  3-C ,  4-C ) :   1.5463 B(  3-C ,  5-H ) :   1.0024 B(  4-C , 20-C ) :   1.0198
B(  6-C ,  7-H ) :   0.9395 B(  6-C ,  8-H ) :   0.9304 B(  6-C ,  9-C ) :   1.0592
B(  9-C , 10-H ) :   0.9446 B(  9-C , 11-H ) :   0.9436 B(  9-C , 12-C ) :   1.0896
B( 12-C , 13-H ) :   0.9719 B( 12-C , 14-H ) :   0.9714 B( 12-C , 15-H ) :   0.9646
B( 16-S , 17-C ) :   1.1499 B( 16-S , 20-C ) :   1.1620 B( 17-C , 18-C ) :   1.6323
B( 17-C , 33-H ) :   0.9690 B( 18-C , 19-C ) :   1.2517 B( 18-C , 21-H ) :   0.9742
B( 19-C , 20-C ) :   1.5756 B( 19-C , 22-C ) :   1.0441 B( 22-C , 23-H ) :   0.9235
B( 22-C , 24-H ) :   0.9340 B( 22-C , 25-C ) :   1.0591 B( 25-C , 26-H ) :   0.9574
B( 25-C , 27-H ) :   0.9573 B( 25-C , 28-C ) :   1.0894 B( 28-C , 29-H ) :   0.9738
B( 28-C , 30-H ) :   0.9750 B( 28-C , 31-H ) :   0.9735

Dispersion correction           -0.014405603
FINAL SINGLE POINT ENERGY     -1339.851830003733

DIPOLE MOMENT
-------------
                                X             Y             Z
Electronic contribution:    -21.44853     -22.21951       2.59663
Nuclear contribution   :     22.13064      22.74827      -2.43612
                        -----------------------------------------
Total Dipole Moment    :      0.68211       0.52876       0.16050
                        -----------------------------------------
Magnitude (a.u.)       :      0.87785
Magnitude (Debye)      :      2.23133

Rotational constants in cm-1:     0.016498     0.010052     0.006774
Rotational constants in MHz :   494.605353   301.364080   203.065815

                             ****ORCA TERMINATED NORMALLY****
TOTAL RUN TIME: 0 days 0 hours 0 minutes 35 seconds 373 msec
