                         Program Version 4.2.1 -  RELEASE  -
|  1> ! wB97X-D3 SP def2-SVP
|  2> %pal
|  3> nprocs 16
|  4> end
|  5>
|  6> * xyz 0 1
|  7> S 	 -45.324 	 39.3862 	 80.7646
|  8> C 	 -46.4534 	 39.0217 	 82.0212
|  9> C 	 -46.3656 	 39.8968 	 83.1079
| 10> C 	 -45.3629 	 40.9399 	 82.8807
| 11> C 	 -44.7106 	 40.7815 	 81.6496
| 12> H 	 -45.0434 	 41.7545 	 83.5885
| 13> C 	 -47.2827 	 39.9881 	 84.357
| 14> H 	 -46.5727 	 39.6978 	 85.1287
| 15> H 	 -48.136 	 39.2997 	 84.292
| 16> C 	 -47.8904 	 41.3329 	 84.6066
| 17> H 	 -47.0677 	 42.0515 	 84.7424
| 18> H 	 -48.5645 	 41.5885 	 83.7452
| 19> C 	 -48.8131 	 41.404 	 85.9162
| 20> H 	 -49.4521 	 42.299 	 85.9801
| 21> H 	 -49.4288 	 40.5187 	 86.0657
| 22> H 	 -48.2048 	 41.3038 	 86.7697
| 23> S 	 -43.6635 	 43.0092 	 80.1343
| 24> C 	 -41.9183 	 43.2944 	 80.2435
| 25> C 	 -41.3895 	 42.3787 	 81.1461
| 26> C 	 -42.2868 	 41.523 	 81.7807
| 27> C 	 -43.5335 	 41.5499 	 81.2212
| 28> H 	 -40.3254 	 42.4932 	 81.2173
| 29> C 	 -41.7928 	 40.5672 	 82.8452
| 30> H 	 -42.3362 	 40.7463 	 83.7853
| 31> H 	 -40.8167 	 40.9107 	 83.0501
| 32> C 	 -41.5694 	 39.0453 	 82.4428
| 33> H 	 -42.615 	 38.6867 	 82.2442
| 34> H 	 -41.2834 	 38.54 	 83.3619
| 35> C 	 -40.4985 	 38.8744 	 81.2676
| 36> H 	 -40.7348 	 39.5506 	 80.4466
| 37> H 	 -40.5476 	 37.909 	 80.7343
| 38> H 	 -39.4822 	 39.0941 	 81.643
| 39> H 	 -47.2998 	 38.2996 	 82.0368
| 40> H 	 -41.3348 	 44.0442 	 79.6551
| 41> *
| 42>
| 43>                          ****END OF INPUT****

CARTESIAN COORDINATES (ANGSTROEM)
---------------------------------
  S    -45.324000   39.386200   80.764600
  C    -46.453400   39.021700   82.021200
  C    -46.365600   39.896800   83.107900
  C    -45.362900   40.939900   82.880700
  C    -44.710600   40.781500   81.649600
  H    -45.043400   41.754500   83.588500
  C    -47.282700   39.988100   84.357000
  H    -46.572700   39.697800   85.128700
  H    -48.136000   39.299700   84.292000
  C    -47.890400   41.332900   84.606600
  H    -47.067700   42.051500   84.742400
  H    -48.564500   41.588500   83.745200
  C    -48.813100   41.404000   85.916200
  H    -49.452100   42.299000   85.980100
  H    -49.428800   40.518700   86.065700
  H    -48.204800   41.303800   86.769700
  S    -43.663500   43.009200   80.134300
  C    -41.918300   43.294400   80.243500
  C    -41.389500   42.378700   81.146100
  C    -42.286800   41.523000   81.780700
  C    -43.533500   41.549900   81.221200
  H    -40.325400   42.493200   81.217300
  C    -41.792800   40.567200   82.845200
  H    -42.336200   40.746300   83.785300
  H    -40.816700   40.910700   83.050100
  C    -41.569400   39.045300   82.442800
  H    -42.615000   38.686700   82.244200
  H    -41.283400   38.540000   83.361900
  C    -40.498500   38.874400   81.267600
  H    -40.734800   39.550600   80.446600
  H    -40.547600   37.909000   80.734300
  H    -39.482200   39.094100   81.643000
  H    -47.299800   38.299600   82.036800
  H    -41.334800   44.044200   79.655100

 Total Charge           Charge          ....    0
 Multiplicity           Mult            ....    1
 Number of Electrons    NEL             ....  134
 Basis Dimension        Dim             ....  322

ORBITAL ENERGIES
----------------

  NO   OCC          E(Eh)            E(eV)
   0   2.0000     -88.971784     -2421.0453
   1   2.0000     -88.962694     -2420.7980
   2   2.0000     -10.332335      -281.1571
   3   2.0000     -10.327614      -281.0287
   4   2.0000     -10.322764      -280.8967
   5   2.0000     -10.318924      -280.7922
   6   2.0000     -10.308124      -280.4983
   7   2.0000     -10.304839      -280.4089
   8   2.0000     -10.299394      -280.2608
   9   2.0000     -10.296201      -280.1739
  10   2.0000     -10.295259      -280.1482
  11   2.0000     -10.294132      -280.1176
  12   2.0000     -10.288884      -279.9748
  13   2.0000     -10.287680      -279.9420
  14   2.0000     -10.283970      -279.8411
  15   2.0000     -10.280489      -279.7463
  16   2.0000      -8.085905      -220.0287
  17   2.0000      -8.076048      -219.7604
  18   2.0000      -6.044447      -164.4778
  19   2.0000      -6.040434      -164.3686
  20   2.0000      -6.036705      -164.2671
  21   2.0000      -6.034627      -164.2106
  22   2.0000      -6.030737      -164.1047
  23   2.0000      -6.026811      -163.9979
  24   2.0000      -1.000290       -27.2193
  25   2.0000      -0.980057       -26.6687
  26   2.0000      -0.910458       -24.7748
  27   2.0000      -0.896069       -24.3833
  28   2.0000      -0.865088       -23.5402
  29   2.0000      -0.843753       -22.9597
  30   2.0000      -0.838018       -22.8036
  31   2.0000      -0.807704       -21.9787
  32   2.0000      -0.782845       -21.3023
  33   2.0000      -0.773831       -21.0570
  34   2.0000      -0.711808       -19.3693
  35   2.0000      -0.697731       -18.9862
  36   2.0000      -0.688044       -18.7226
  37   2.0000      -0.655088       -17.8258
  38   2.0000      -0.635360       -17.2890
  39   2.0000      -0.616260       -16.7693
  40   2.0000      -0.584168       -15.8960
  41   2.0000      -0.569591       -15.4994
  42   2.0000      -0.565558       -15.3896
  43   2.0000      -0.548410       -14.9230
  44   2.0000      -0.534087       -14.5333
  45   2.0000      -0.524143       -14.2627
  46   2.0000      -0.511357       -13.9147
  47   2.0000      -0.504131       -13.7181
  48   2.0000      -0.500939       -13.6312
  49   2.0000      -0.496296       -13.5049
  50   2.0000      -0.477313       -12.9883
  51   2.0000      -0.475131       -12.9290
  52   2.0000      -0.473236       -12.8774
  53   2.0000      -0.464639       -12.6435
  54   2.0000      -0.457087       -12.4380
  55   2.0000      -0.454233       -12.3603
  56   2.0000      -0.440436       -11.9849
  57   2.0000      -0.436561       -11.8794
  58   2.0000      -0.430758       -11.7215
  59   2.0000      -0.425346       -11.5743
  60   2.0000      -0.420346       -11.4382
  61   2.0000      -0.411854       -11.2071
  62   2.0000      -0.406750       -11.0682
  63   2.0000      -0.335519        -9.1299
  64   2.0000      -0.328937        -8.9508
  65   2.0000      -0.322482        -8.7752
  66   2.0000      -0.309196        -8.4137
  67   0.0000       0.035825         0.9749
  68   0.0000       0.054143         1.4733
  69   0.0000       0.113722         3.0945
  70   0.0000       0.121634         3.3098
  71   0.0000       0.126096         3.4313

MULLIKEN ATOMIC CHARGES
-----------------------
   0 S :    0.129253
   1 C :   -0.115381
   2 C :   -0.115368
   3 C :    0.020189
   4 C :   -0.185769
   5 H :    0.045776
   6 C :    0.067003
   7 H :    0.039814
   8 H :    0.020711
   9 C :   -0.109872
  10 H :    0.038825
  11 H :    0.049818
  12 C :   -0.036287
  13 H :    0.050112
  14 H :    0.017963
  15 H :    0.012199
  16 S :    0.087894
  17 C :   -0.124572
  18 C :   -0.036705
  19 C :   -0.016423
  20 C :   -0.168009
  21 H :    0.012815
  22 C :    0.094681
  23 H :    0.032331
  24 H :   -0.009606
  25 C :   -0.062291
  26 H :    0.042008
  27 H :    0.031906
  28 C :   -0.073992
  29 H :    0.041245
  30 H :    0.044149
  31 H :    0.041457
  32 H :    0.057023
  33 H :    0.077105
Sum of atomic charges:   -0.0000000

LOEWDIN ATOMIC CHARGES
----------------------
   0 S :    0.420910
   1 C :   -0.218761
   2 C :   -0.063085
   3 C :   -0.059471
   4 C :   -0.197322
   5 H :    0.042559
   6 C :   -0.035224
   7 H :    0.034510
   8 H :    0.028380
   9 C :   -0.040849
  10 H :    0.023271
  11 H :    0.033496
  12 C :   -0.067986
  13 H :    0.031720
  14 H :    0.023550
  15 H :    0.017453
  16 S :    0.364571
  17 C :   -0.182491
  18 C :   -0.078804
  19 C :   -0.056172
  20 C :   -0.184922
  21 H :    0.029554
  22 C :   -0.030442
  23 H :    0.034359
  24 H :    0.019007
  25 C :   -0.033903
  26 H :    0.024595
  27 H :    0.022411
  28 C :   -0.071949
  29 H :    0.028421
  30 H :    0.032493
  31 H :    0.028210
  32 H :    0.039409
  33 H :    0.042504

  Mayer bond orders larger than 0.100000
B(  0-S ,  1-C ) :   1.1373 B(  0-S ,  4-C ) :   1.1488 B(  1-C ,  2-C ) :   1.6394
B(  1-C , 32-H ) :   0.9567 B(  2-C ,  3-C ) :   1.2199 B(  2-C ,  6-C ) :   1.0091
B(  3-C ,  4-C ) :   1.5973 B(  3-C ,  5-H ) :   0.9782 B(  4-C , 20-C ) :   1.0257
B(  6-C ,  7-H ) :   0.9333 B(  6-C ,  8-H ) :   0.9471 B(  6-C ,  9-C ) :   1.0733
B(  9-C , 10-H ) :   0.9515 B(  9-C , 11-H ) :   0.9595 B(  9-C , 12-C ) :   1.0707
B( 12-C , 13-H ) :   0.9785 B( 12-C , 14-H ) :   0.9742 B( 12-C , 15-H ) :   0.9741
B( 16-S , 17-C ) :   1.1551 B( 16-S , 20-C ) :   1.1227 B( 17-C , 18-C ) :   1.6160
B( 17-C , 20-C ) :   0.1061 B( 17-C , 33-H ) :   0.9601 B( 18-C , 19-C ) :   1.2309
B( 18-C , 21-H ) :   0.9920 B( 19-C , 20-C ) :   1.5926 B( 19-C , 22-C ) :   1.0415
B( 22-C , 23-H ) :   0.9276 B( 22-C , 24-H ) :   0.9276 B( 22-C , 25-C ) :   1.0576
B( 25-C , 26-H ) :   0.9620 B( 25-C , 27-H ) :   0.9595 B( 25-C , 28-C ) :   1.0493
B( 28-C , 29-H ) :   0.9774 B( 28-C , 30-H ) :   0.9763 B( 28-C , 31-H ) :   0.9771

Dispersion correction           -0.015101075
FINAL SINGLE POINT ENERGY     -1339.865831849784

DIPOLE MOMENT
-------------
                                X             Y             Z
Electronic contribution:      1.15940       6.08577     -19.69162
Nuclear contribution   :     -1.02901      -6.13565      20.30181
                        -----------------------------------------
Total Dipole Moment    :      0.13040      -0.04989       0.61018
                        -----------------------------------------
Magnitude (a.u.)       :      0.62595
Magnitude (Debye)      :      1.59104

Rotational constants in cm-1:     0.019849     0.007816     0.007091
Rotational constants in MHz :   595.050104   234.330129   212.591770

                             ****ORCA TERMINATED NORMALLY****
TOTAL RUN TIME: 0 days 0 hours 0 minutes 28 seconds 601 msec
