                         Program Version 4.2.1 -  RELEASE  -
|  1> ! wB97X-D3 SP def2-SVP
|  2> %pal
|  3> nprocs 16
|  4> end
|  5>
|  6> * xyz 0 1
|  7> S 	 -4.38015 	 22.2353 	 54.2486
|  8> C 	 -4.01451 	 20.7345 	 53.5037
|  9> C 	 -3.86264 	 20.9312 	 52.1623
| 10> C 	 -4.1132 	 22.2537 	 51.6894
| 11> C 	 -4.38998 	 23.1052 	 52.7182
| 12> H 	 -4.16453 	 22.6316 	 50.7119
| 13> C 	 -3.46347 	 19.8296 	 51.2166
| 14> H 	 -3.95963 	 19.8568 	 50.2415
| 15> H 	 -3.90394 	 18.9211 	 51.583
| 16> C 	 -1.9598 	 19.7445 	 51.0079
| 17> H 	 -1.59939 	 20.7256 	 50.6195
| 18> H 	 -1.35952 	 19.5561 	 51.8987
| 19> C 	 -1.59818 	 18.725 	 49.8811
| 20> H 	 -0.540382 	 18.6861 	 49.7558
| 21> H 	 -1.95965 	 17.6954 	 50.0446
| 22> H 	 -1.9366 	 19.1325 	 48.9528
| 23> S 	 -6.60865 	 24.7499 	 52.6982
| 24> C 	 -6.39472 	 26.4914 	 52.6107
| 25> C 	 -5.00056 	 26.8086 	 52.62
| 26> C 	 -4.09391 	 25.6938 	 52.6014
| 27> C 	 -4.81539 	 24.4801 	 52.6137
| 28> H 	 -4.8064 	 27.8683 	 52.6341
| 29> C 	 -2.52226 	 25.7629 	 52.582
| 30> H 	 -2.29577 	 25.7368 	 51.4833
| 31> H 	 -2.20435 	 24.8159 	 52.999
| 32> C 	 -1.9177 	 27.0006 	 53.3114
| 33> H 	 -2.09773 	 27.9786 	 52.8789
| 34> H 	 -0.815013 	 27.0328 	 53.2357
| 35> C 	 -2.38144 	 27.0173 	 54.7167
| 36> H 	 -1.96468 	 26.2899 	 55.4011
| 37> H 	 -3.45539 	 26.9476 	 54.9783
| 38> H 	 -2.15936 	 27.9517 	 55.2377
| 39> H 	 -3.93728 	 19.8278 	 54.0545
| 40> H 	 -7.27499 	 27.1273 	 52.6746
| 41> *
| 42>
| 43>                          ****END OF INPUT****

CARTESIAN COORDINATES (ANGSTROEM)
---------------------------------
  S     -4.380150   22.235300   54.248600
  C     -4.014510   20.734500   53.503700
  C     -3.862640   20.931200   52.162300
  C     -4.113200   22.253700   51.689400
  C     -4.389980   23.105200   52.718200
  H     -4.164530   22.631600   50.711900
  C     -3.463470   19.829600   51.216600
  H     -3.959630   19.856800   50.241500
  H     -3.903940   18.921100   51.583000
  C     -1.959800   19.744500   51.007900
  H     -1.599390   20.725600   50.619500
  H     -1.359520   19.556100   51.898700
  C     -1.598180   18.725000   49.881100
  H     -0.540382   18.686100   49.755800
  H     -1.959650   17.695400   50.044600
  H     -1.936600   19.132500   48.952800
  S     -6.608650   24.749900   52.698200
  C     -6.394720   26.491400   52.610700
  C     -5.000560   26.808600   52.620000
  C     -4.093910   25.693800   52.601400
  C     -4.815390   24.480100   52.613700
  H     -4.806400   27.868300   52.634100
  C     -2.522260   25.762900   52.582000
  H     -2.295770   25.736800   51.483300
  H     -2.204350   24.815900   52.999000
  C     -1.917700   27.000600   53.311400
  H     -2.097730   27.978600   52.878900
  H     -0.815013   27.032800   53.235700
  C     -2.381440   27.017300   54.716700
  H     -1.964680   26.289900   55.401100
  H     -3.455390   26.947600   54.978300
  H     -2.159360   27.951700   55.237700
  H     -3.937280   19.827800   54.054500
  H     -7.274990   27.127300   52.674600

 Total Charge           Charge          ....    0
 Multiplicity           Mult            ....    1
 Number of Electrons    NEL             ....  134
 Basis Dimension        Dim             ....  322

ORBITAL ENERGIES
----------------

  NO   OCC          E(Eh)            E(eV)
   0   2.0000     -88.962526     -2420.7934
   1   2.0000     -88.960525     -2420.7389
   2   2.0000     -10.327353      -281.0216
   3   2.0000     -10.323662      -280.9211
   4   2.0000     -10.322559      -280.8911
   5   2.0000     -10.314359      -280.6680
   6   2.0000     -10.308588      -280.5109
   7   2.0000     -10.303488      -280.3722
   8   2.0000     -10.300047      -280.2785
   9   2.0000     -10.295908      -280.1659
  10   2.0000     -10.292285      -280.0673
  11   2.0000     -10.287902      -279.9480
  12   2.0000     -10.287501      -279.9371
  13   2.0000     -10.284134      -279.8455
  14   2.0000     -10.274003      -279.5698
  15   2.0000     -10.269948      -279.4595
  16   2.0000      -8.076275      -219.7666
  17   2.0000      -8.076022      -219.7597
  18   2.0000      -6.034693      -164.2124
  19   2.0000      -6.034450      -164.2057
  20   2.0000      -6.030879      -164.1086
  21   2.0000      -6.030339      -164.0939
  22   2.0000      -6.027232      -164.0093
  23   2.0000      -6.026891      -164.0001
  24   2.0000      -1.005303       -27.3557
  25   2.0000      -0.974601       -26.5202
  26   2.0000      -0.909044       -24.7363
  27   2.0000      -0.906659       -24.6714
  28   2.0000      -0.869421       -23.6581
  29   2.0000      -0.847322       -23.0568
  30   2.0000      -0.844659       -22.9843
  31   2.0000      -0.811113       -22.0715
  32   2.0000      -0.782397       -21.2901
  33   2.0000      -0.767637       -20.8885
  34   2.0000      -0.710538       -19.3347
  35   2.0000      -0.700027       -19.0487
  36   2.0000      -0.696116       -18.9423
  37   2.0000      -0.655406       -17.8345
  38   2.0000      -0.652201       -17.7473
  39   2.0000      -0.615755       -16.7556
  40   2.0000      -0.590989       -16.0816
  41   2.0000      -0.568904       -15.4807
  42   2.0000      -0.558168       -15.1885
  43   2.0000      -0.552643       -15.0382
  44   2.0000      -0.533774       -14.5247
  45   2.0000      -0.524962       -14.2849
  46   2.0000      -0.520428       -14.1616
  47   2.0000      -0.520189       -14.1551
  48   2.0000      -0.507327       -13.8051
  49   2.0000      -0.494211       -13.4482
  50   2.0000      -0.491079       -13.3629
  51   2.0000      -0.476201       -12.9581
  52   2.0000      -0.465756       -12.6739
  53   2.0000      -0.462045       -12.5729
  54   2.0000      -0.459040       -12.4911
  55   2.0000      -0.444927       -12.1071
  56   2.0000      -0.440041       -11.9741
  57   2.0000      -0.439336       -11.9550
  58   2.0000      -0.427566       -11.6347
  59   2.0000      -0.424866       -11.5612
  60   2.0000      -0.415166       -11.2972
  61   2.0000      -0.413434       -11.2501
  62   2.0000      -0.409415       -11.1407
  63   2.0000      -0.336835        -9.1657
  64   2.0000      -0.327976        -8.9247
  65   2.0000      -0.316096        -8.6014
  66   2.0000      -0.307355        -8.3636
  67   0.0000       0.040307         1.0968
  68   0.0000       0.053939         1.4678
  69   0.0000       0.119215         3.2440
  70   0.0000       0.125168         3.4060
  71   0.0000       0.132632         3.6091

MULLIKEN ATOMIC CHARGES
-----------------------
   0 S :    0.111601
   1 C :   -0.113088
   2 C :   -0.068171
   3 C :    0.072276
   4 C :   -0.182917
   5 H :   -0.004213
   6 C :    0.080425
   7 H :    0.012979
   8 H :    0.005294
   9 C :   -0.079646
  10 H :    0.024619
  11 H :    0.030632
  12 C :   -0.031296
  13 H :    0.021803
  14 H :    0.037330
  15 H :    0.020905
  16 S :    0.100625
  17 C :   -0.116109
  18 C :   -0.048064
  19 C :   -0.022521
  20 C :   -0.204307
  21 H :    0.019602
  22 C :    0.103863
  23 H :    0.051173
  24 H :    0.035518
  25 C :   -0.034933
  26 H :    0.024898
  27 H :    0.033295
  28 C :   -0.077990
  29 H :    0.024170
  30 H :    0.043314
  31 H :    0.016418
  32 H :    0.042130
  33 H :    0.070384
Sum of atomic charges:    0.0000000

LOEWDIN ATOMIC CHARGES
----------------------
   0 S :    0.412004
   1 C :   -0.196842
   2 C :   -0.064878
   3 C :   -0.048268
   4 C :   -0.201197
   5 H :    0.028529
   6 C :   -0.037516
   7 H :    0.030302
   8 H :    0.024410
   9 C :   -0.037036
  10 H :    0.027121
  11 H :    0.021981
  12 C :   -0.063538
  13 H :    0.021635
  14 H :    0.025712
  15 H :    0.020645
  16 S :    0.381904
  17 C :   -0.184230
  18 C :   -0.076497
  19 C :   -0.044037
  20 C :   -0.193739
  21 H :    0.028355
  22 C :   -0.020189
  23 H :    0.041342
  24 H :    0.032008
  25 C :   -0.048239
  26 H :    0.026378
  27 H :    0.034571
  28 C :   -0.081079
  29 H :    0.024551
  30 H :    0.033570
  31 H :    0.025806
  32 H :    0.026346
  33 H :    0.030114

  Mayer bond orders larger than 0.100000
B(  0-S ,  1-C ) :   1.1439 B(  0-S ,  4-C ) :   1.1511 B(  1-C ,  2-C ) :   1.6035
B(  1-C , 32-H ) :   0.9794 B(  2-C ,  3-C ) :   1.2227 B(  2-C ,  6-C ) :   1.0294
B(  3-C ,  4-C ) :   1.5846 B(  3-C ,  5-H ) :   1.0088 B(  4-C , 20-C ) :   1.0321
B(  6-C ,  7-H ) :   0.9412 B(  6-C ,  8-H ) :   0.9354 B(  6-C ,  9-C ) :   1.0588
B(  9-C , 10-H ) :   0.9556 B(  9-C , 11-H ) :   0.9593 B(  9-C , 12-C ) :   1.0801
B( 12-C , 13-H ) :   0.9738 B( 12-C , 14-H ) :   0.9769 B( 12-C , 15-H ) :   0.9749
B( 16-S , 17-C ) :   1.1669 B( 16-S , 20-C ) :   1.1463 B( 17-C , 18-C ) :   1.5831
B( 17-C , 20-C ) :   0.1154 B( 17-C , 33-H ) :   0.9690 B( 18-C , 19-C ) :   1.2312
B( 18-C , 21-H ) :   0.9938 B( 19-C , 20-C ) :   1.5866 B( 19-C , 22-C ) :   1.0110
B( 22-C , 23-H ) :   0.9381 B( 22-C , 24-H ) :   0.9356 B( 22-C , 25-C ) :   1.0644
B( 25-C , 26-H ) :   0.9522 B( 25-C , 27-H ) :   0.9508 B( 25-C , 28-C ) :   1.0776
B( 28-C , 29-H ) :   0.9739 B( 28-C , 30-H ) :   0.9710 B( 28-C , 31-H ) :   0.9697

Dispersion correction           -0.014264112
FINAL SINGLE POINT ENERGY     -1339.876803572854

DIPOLE MOMENT
-------------
                                X             Y             Z
Electronic contribution:    -20.46480       3.39606       7.48158
Nuclear contribution   :     20.88023      -3.29895      -7.71377
                        -----------------------------------------
Total Dipole Moment    :      0.41543       0.09711      -0.23219
                        -----------------------------------------
Magnitude (a.u.)       :      0.48572
Magnitude (Debye)      :      1.23460

Rotational constants in cm-1:     0.021127     0.007395     0.006569
Rotational constants in MHz :   633.382250   221.683098   196.927783

                             ****ORCA TERMINATED NORMALLY****
TOTAL RUN TIME: 0 days 0 hours 0 minutes 32 seconds 348 msec
