                         Program Version 4.2.1 -  RELEASE  -
|  1> ! wB97X-D3 SP def2-SVP
|  2> %pal
|  3> nprocs 16
|  4> end
|  5>
|  6> * xyz 0 1
|  7> S 	 -41.7655 	 38.7808 	 75.8131
|  8> C 	 -42.8315 	 38.1376 	 77.0259
|  9> C 	 -42.3061 	 37.0214 	 77.6746
| 10> C 	 -40.9736 	 36.7458 	 77.2716
| 11> C 	 -40.4696 	 37.6724 	 76.3879
| 12> H 	 -40.3628 	 35.9482 	 77.7535
| 13> C 	 -43.1166 	 36.2306 	 78.7071
| 14> H 	 -43.1627 	 35.1941 	 78.3611
| 15> H 	 -44.106 	 36.6631 	 78.6373
| 16> C 	 -42.4997 	 36.0879 	 80.1114
| 17> H 	 -41.6339 	 35.4939 	 80.0676
| 18> H 	 -42.1288 	 37.0754 	 80.4827
| 19> C 	 -43.492 	 35.5106 	 81.1719
| 20> H 	 -43.1917 	 35.6666 	 82.2165
| 21> H 	 -44.4604 	 35.9856 	 81.2456
| 22> H 	 -43.5342 	 34.4043 	 81.0698
| 23> S 	 -38.2567 	 39.2538 	 76.0022
| 24> C 	 -36.7207 	 38.4995 	 75.631
| 25> C 	 -36.8034 	 37.1328 	 75.5256
| 26> C 	 -38.1618 	 36.6415 	 75.7054
| 27> C 	 -39.0969 	 37.7155 	 75.9246
| 28> H 	 -35.9214 	 36.6044 	 75.3127
| 29> C 	 -38.4686 	 35.1956 	 75.2907
| 30> H 	 -39.018 	 34.7656 	 76.1015
| 31> H 	 -37.5139 	 34.6519 	 75.2661
| 32> C 	 -39.0684 	 34.9747 	 73.8796
| 33> H 	 -40.1466 	 35.1834 	 73.8859
| 34> H 	 -39.0364 	 33.9015 	 73.5908
| 35> C 	 -38.4195 	 35.8303 	 72.854
| 36> H 	 -37.3582 	 35.819 	 72.9766
| 37> H 	 -38.5302 	 36.8702 	 73.0363
| 38> H 	 -38.7025 	 35.6273 	 71.8079
| 39> H 	 -43.8102 	 38.4269 	 77.3038
| 40> H 	 -35.8958 	 39.1078 	 75.3802
| 41> *
| 42>
| 43>                          ****END OF INPUT****

CARTESIAN COORDINATES (ANGSTROEM)
---------------------------------
  S    -41.765500   38.780800   75.813100
  C    -42.831500   38.137600   77.025900
  C    -42.306100   37.021400   77.674600
  C    -40.973600   36.745800   77.271600
  C    -40.469600   37.672400   76.387900
  H    -40.362800   35.948200   77.753500
  C    -43.116600   36.230600   78.707100
  H    -43.162700   35.194100   78.361100
  H    -44.106000   36.663100   78.637300
  C    -42.499700   36.087900   80.111400
  H    -41.633900   35.493900   80.067600
  H    -42.128800   37.075400   80.482700
  C    -43.492000   35.510600   81.171900
  H    -43.191700   35.666600   82.216500
  H    -44.460400   35.985600   81.245600
  H    -43.534200   34.404300   81.069800
  S    -38.256700   39.253800   76.002200
  C    -36.720700   38.499500   75.631000
  C    -36.803400   37.132800   75.525600
  C    -38.161800   36.641500   75.705400
  C    -39.096900   37.715500   75.924600
  H    -35.921400   36.604400   75.312700
  C    -38.468600   35.195600   75.290700
  H    -39.018000   34.765600   76.101500
  H    -37.513900   34.651900   75.266100
  C    -39.068400   34.974700   73.879600
  H    -40.146600   35.183400   73.885900
  H    -39.036400   33.901500   73.590800
  C    -38.419500   35.830300   72.854000
  H    -37.358200   35.819000   72.976600
  H    -38.530200   36.870200   73.036300
  H    -38.702500   35.627300   71.807900
  H    -43.810200   38.426900   77.303800
  H    -35.895800   39.107800   75.380200

 Total Charge           Charge          ....    0
 Multiplicity           Mult            ....    1
 Number of Electrons    NEL             ....  134
 Basis Dimension        Dim             ....  322

ORBITAL ENERGIES
----------------

  NO   OCC          E(Eh)            E(eV)
   0   2.0000     -88.970968     -2421.0231
   1   2.0000     -88.966085     -2420.8903
   2   2.0000     -10.332983      -281.1748
   3   2.0000     -10.332525      -281.1623
   4   2.0000     -10.315095      -280.6880
   5   2.0000     -10.312525      -280.6181
   6   2.0000     -10.310580      -280.5651
   7   2.0000     -10.299002      -280.2501
   8   2.0000     -10.296867      -280.1920
   9   2.0000     -10.295142      -280.1450
  10   2.0000     -10.294385      -280.1245
  11   2.0000     -10.292188      -280.0647
  12   2.0000     -10.290586      -280.0211
  13   2.0000     -10.284473      -279.8547
  14   2.0000     -10.283346      -279.8241
  15   2.0000     -10.262963      -279.2694
  16   2.0000      -8.084757      -219.9974
  17   2.0000      -8.080922      -219.8931
  18   2.0000      -6.043388      -164.4489
  19   2.0000      -6.039540      -164.3442
  20   2.0000      -6.039342      -164.3389
  21   2.0000      -6.035335      -164.2298
  22   2.0000      -6.035315      -164.2293
  23   2.0000      -6.031852      -164.1351
  24   2.0000      -1.002169       -27.2704
  25   2.0000      -0.980262       -26.6743
  26   2.0000      -0.909244       -24.7418
  27   2.0000      -0.906905       -24.6782
  28   2.0000      -0.870581       -23.6897
  29   2.0000      -0.850053       -23.1311
  30   2.0000      -0.843962       -22.9654
  31   2.0000      -0.815935       -22.2027
  32   2.0000      -0.783732       -21.3264
  33   2.0000      -0.770623       -20.9697
  34   2.0000      -0.715865       -19.4797
  35   2.0000      -0.700554       -19.0630
  36   2.0000      -0.689620       -18.7655
  37   2.0000      -0.664585       -18.0843
  38   2.0000      -0.634319       -17.2607
  39   2.0000      -0.621040       -16.8994
  40   2.0000      -0.586885       -15.9700
  41   2.0000      -0.572510       -15.5788
  42   2.0000      -0.562161       -15.2972
  43   2.0000      -0.555841       -15.1252
  44   2.0000      -0.549363       -14.9489
  45   2.0000      -0.521589       -14.1932
  46   2.0000      -0.512822       -13.9546
  47   2.0000      -0.504797       -13.7362
  48   2.0000      -0.500941       -13.6313
  49   2.0000      -0.499315       -13.5871
  50   2.0000      -0.486671       -13.2430
  51   2.0000      -0.477418       -12.9912
  52   2.0000      -0.474130       -12.9017
  53   2.0000      -0.468897       -12.7593
  54   2.0000      -0.455500       -12.3948
  55   2.0000      -0.451139       -12.2761
  56   2.0000      -0.441908       -12.0249
  57   2.0000      -0.438692       -11.9374
  58   2.0000      -0.435247       -11.8437
  59   2.0000      -0.427547       -11.6341
  60   2.0000      -0.424347       -11.5471
  61   2.0000      -0.414768       -11.2864
  62   2.0000      -0.401884       -10.9358
  63   2.0000      -0.352770        -9.5993
  64   2.0000      -0.333297        -9.0695
  65   2.0000      -0.328438        -8.9373
  66   2.0000      -0.286092        -7.7850
  67   0.0000       0.019736         0.5371
  68   0.0000       0.074067         2.0155
  69   0.0000       0.106988         2.9113
  70   0.0000       0.115507         3.1431
  71   0.0000       0.126469         3.4414

MULLIKEN ATOMIC CHARGES
-----------------------
   0 S :    0.118186
   1 C :   -0.087918
   2 C :   -0.121863
   3 C :    0.008866
   4 C :   -0.131431
   5 H :    0.033256
   6 C :    0.094179
   7 H :    0.030964
   8 H :    0.011131
   9 C :   -0.068774
  10 H :    0.020849
  11 H :    0.034409
  12 C :   -0.064669
  13 H :    0.027119
  14 H :    0.032210
  15 H :    0.038898
  16 S :    0.102037
  17 C :   -0.086803
  18 C :   -0.016369
  19 C :   -0.081980
  20 C :   -0.142057
  21 H :    0.009160
  22 C :    0.079533
  23 H :    0.014475
  24 H :    0.020610
  25 C :   -0.058513
  26 H :    0.032501
  27 H :    0.033190
  28 C :   -0.017424
  29 H :   -0.000972
  30 H :    0.025560
  31 H :    0.040372
  32 H :    0.022629
  33 H :    0.048640
Sum of atomic charges:    0.0000000

LOEWDIN ATOMIC CHARGES
----------------------
   0 S :    0.390972
   1 C :   -0.198900
   2 C :   -0.061808
   3 C :   -0.061254
   4 C :   -0.181060
   5 H :    0.038888
   6 C :   -0.028337
   7 H :    0.034752
   8 H :    0.027122
   9 C :   -0.038064
  10 H :    0.017099
  11 H :    0.027106
  12 C :   -0.073622
  13 H :    0.028926
  14 H :    0.025147
  15 H :    0.028797
  16 S :    0.408976
  17 C :   -0.175984
  18 C :   -0.065110
  19 C :   -0.052333
  20 C :   -0.201559
  21 H :    0.025816
  22 C :   -0.030415
  23 H :    0.023694
  24 H :    0.032059
  25 C :   -0.040225
  26 H :    0.025222
  27 H :    0.028327
  28 C :   -0.068898
  29 H :    0.018757
  30 H :    0.025872
  31 H :    0.030181
  32 H :    0.019974
  33 H :    0.019882

  Mayer bond orders larger than 0.100000
B(  0-S ,  1-C ) :   1.1250 B(  0-S ,  4-C ) :   1.1298 B(  1-C ,  2-C ) :   1.6294
B(  1-C , 32-H ) :   0.9627 B(  2-C ,  3-C ) :   1.2462 B(  2-C ,  6-C ) :   1.0322
B(  3-C ,  4-C ) :   1.5844 B(  3-C ,  5-H ) :   0.9820 B(  4-C , 20-C ) :   1.0642
B(  6-C ,  7-H ) :   0.9344 B(  6-C ,  8-H ) :   0.9420 B(  6-C ,  9-C ) :   1.0491
B(  9-C , 10-H ) :   0.9538 B(  9-C , 11-H ) :   0.9627 B(  9-C , 12-C ) :   1.0813
B( 12-C , 13-H ) :   0.9747 B( 12-C , 14-H ) :   0.9766 B( 12-C , 15-H ) :   0.9767
B( 16-S , 17-C ) :   1.1609 B( 16-S , 20-C ) :   1.1526 B( 17-C , 18-C ) :   1.5979
B( 17-C , 20-C ) :   0.1008 B( 17-C , 33-H ) :   0.9716 B( 18-C , 19-C ) :   1.2382
B( 18-C , 21-H ) :   0.9985 B( 19-C , 20-C ) :   1.5442 B( 19-C , 22-C ) :   1.0492
B( 22-C , 23-H ) :   0.9309 B( 22-C , 24-H ) :   0.9372 B( 22-C , 25-C ) :   1.0624
B( 25-C , 26-H ) :   0.9520 B( 25-C , 27-H ) :   0.9582 B( 25-C , 28-C ) :   1.0884
B( 28-C , 29-H ) :   0.9677 B( 28-C , 30-H ) :   0.9585 B( 28-C , 31-H ) :   0.9711

Dispersion correction           -0.014671876
FINAL SINGLE POINT ENERGY     -1339.874160899268

DIPOLE MOMENT
-------------
                                X             Y             Z
Electronic contribution:      5.46761      20.75468      -7.12764
Nuclear contribution   :     -5.40194     -21.29299       7.36693
                        -----------------------------------------
Total Dipole Moment    :      0.06567      -0.53831       0.23928
                        -----------------------------------------
Magnitude (a.u.)       :      0.59274
Magnitude (Debye)      :      1.50663

Rotational constants in cm-1:     0.020600     0.007536     0.007017
Rotational constants in MHz :   617.565376   225.920436   210.375382

                             ****ORCA TERMINATED NORMALLY****
TOTAL RUN TIME: 0 days 0 hours 0 minutes 30 seconds 440 msec
