                         Program Version 4.2.1 -  RELEASE  -
|  1> ! wB97X-D3 SP def2-SVP
|  2> %pal
|  3> nprocs 16
|  4> end
|  5>
|  6> * xyz 0 1
|  7> S 	 45.2545 	 15.2079 	 76.0858
|  8> C 	 44.7351 	 13.9345 	 77.2475
|  9> C 	 45.5735 	 13.9161 	 78.3316
| 10> C 	 46.5848 	 14.9618 	 78.2593
| 11> C 	 46.5624 	 15.7238 	 77.1082
| 12> H 	 47.4092 	 15.07 	 78.9371
| 13> C 	 45.422 	 13.0148 	 79.5453
| 14> H 	 46.2715 	 12.2929 	 79.6373
| 15> H 	 44.4467 	 12.4118 	 79.3207
| 16> C 	 45.0822 	 13.8727 	 80.8347
| 17> H 	 45.8885 	 14.5863 	 80.9097
| 18> H 	 44.2832 	 14.5402 	 80.658
| 19> C 	 44.9361 	 13.108 	 82.1881
| 20> H 	 45.8778 	 12.769 	 82.5105
| 21> H 	 44.4766 	 13.6305 	 83.0062
| 22> H 	 44.2466 	 12.2272 	 81.9694
| 23> S 	 49.0252 	 16.3828 	 76.1126
| 24> C 	 49.4673 	 18.0649 	 75.7295
| 25> C 	 48.3735 	 18.9121 	 76.0482
| 26> C 	 47.2696 	 18.2323 	 76.6689
| 27> C 	 47.41 	 16.822 	 76.6462
| 28> H 	 48.4012 	 20.0205 	 75.9727
| 29> C 	 46.1347 	 19.065 	 77.2668
| 30> H 	 45.1327 	 18.6706 	 76.9665
| 31> H 	 46.1625 	 20.028 	 76.7749
| 32> C 	 46.269 	 19.2928 	 78.7912
| 33> H 	 45.8475 	 18.3666 	 79.2933
| 34> H 	 45.6275 	 20.0317 	 79.2072
| 35> C 	 47.6947 	 19.6001 	 79.2461
| 36> H 	 48.2955 	 20.3159 	 78.6737
| 37> H 	 48.2092 	 18.6485 	 79.3078
| 38> H 	 47.5793 	 20.0089 	 80.2587
| 39> H 	 43.8372 	 13.2453 	 77.1324
| 40> H 	 50.3442 	 18.4294 	 75.2485
| 41> *
| 42>
| 43>                          ****END OF INPUT****

CARTESIAN COORDINATES (ANGSTROEM)
---------------------------------
  S     45.254500   15.207900   76.085800
  C     44.735100   13.934500   77.247500
  C     45.573500   13.916100   78.331600
  C     46.584800   14.961800   78.259300
  C     46.562400   15.723800   77.108200
  H     47.409200   15.070000   78.937100
  C     45.422000   13.014800   79.545300
  H     46.271500   12.292900   79.637300
  H     44.446700   12.411800   79.320700
  C     45.082200   13.872700   80.834700
  H     45.888500   14.586300   80.909700
  H     44.283200   14.540200   80.658000
  C     44.936100   13.108000   82.188100
  H     45.877800   12.769000   82.510500
  H     44.476600   13.630500   83.006200
  H     44.246600   12.227200   81.969400
  S     49.025200   16.382800   76.112600
  C     49.467300   18.064900   75.729500
  C     48.373500   18.912100   76.048200
  C     47.269600   18.232300   76.668900
  C     47.410000   16.822000   76.646200
  H     48.401200   20.020500   75.972700
  C     46.134700   19.065000   77.266800
  H     45.132700   18.670600   76.966500
  H     46.162500   20.028000   76.774900
  C     46.269000   19.292800   78.791200
  H     45.847500   18.366600   79.293300
  H     45.627500   20.031700   79.207200
  C     47.694700   19.600100   79.246100
  H     48.295500   20.315900   78.673700
  H     48.209200   18.648500   79.307800
  H     47.579300   20.008900   80.258700
  H     43.837200   13.245300   77.132400
  H     50.344200   18.429400   75.248500

 Total Charge           Charge          ....    0
 Multiplicity           Mult            ....    1
 Number of Electrons    NEL             ....  134
 Basis Dimension        Dim             ....  322

ORBITAL ENERGIES
----------------

  NO   OCC          E(Eh)            E(eV)
   0   2.0000     -88.970297     -2421.0049
   1   2.0000     -88.964202     -2420.8390
   2   2.0000     -10.332621      -281.1649
   3   2.0000     -10.331819      -281.1431
   4   2.0000     -10.325052      -280.9590
   5   2.0000     -10.323499      -280.9167
   6   2.0000     -10.310169      -280.5540
   7   2.0000     -10.309424      -280.5337
   8   2.0000     -10.305550      -280.4283
   9   2.0000     -10.302533      -280.3462
  10   2.0000     -10.296821      -280.1908
  11   2.0000     -10.293160      -280.0911
  12   2.0000     -10.287802      -279.9453
  13   2.0000     -10.285356      -279.8788
  14   2.0000     -10.281330      -279.7692
  15   2.0000     -10.273680      -279.5610
  16   2.0000      -8.083954      -219.9756
  17   2.0000      -8.078480      -219.8266
  18   2.0000      -6.042552      -164.4262
  19   2.0000      -6.038396      -164.3131
  20   2.0000      -6.037158      -164.2794
  21   2.0000      -6.034886      -164.2176
  22   2.0000      -6.032955      -164.1651
  23   2.0000      -6.029151      -164.0615
  24   2.0000      -1.001234       -27.2450
  25   2.0000      -0.977375       -26.5957
  26   2.0000      -0.905702       -24.6454
  27   2.0000      -0.903735       -24.5919
  28   2.0000      -0.865819       -23.5601
  29   2.0000      -0.844549       -22.9814
  30   2.0000      -0.839261       -22.8374
  31   2.0000      -0.812294       -22.1036
  32   2.0000      -0.781854       -21.2753
  33   2.0000      -0.770609       -20.9693
  34   2.0000      -0.712163       -19.3789
  35   2.0000      -0.699155       -19.0250
  36   2.0000      -0.685802       -18.6616
  37   2.0000      -0.663596       -18.0574
  38   2.0000      -0.638321       -17.3696
  39   2.0000      -0.615374       -16.7452
  40   2.0000      -0.583851       -15.8874
  41   2.0000      -0.567252       -15.4357
  42   2.0000      -0.556176       -15.1343
  43   2.0000      -0.552485       -15.0339
  44   2.0000      -0.543437       -14.7877
  45   2.0000      -0.521499       -14.1907
  46   2.0000      -0.517684       -14.0869
  47   2.0000      -0.509172       -13.8553
  48   2.0000      -0.503878       -13.7112
  49   2.0000      -0.499892       -13.6028
  50   2.0000      -0.482530       -13.1303
  51   2.0000      -0.481861       -13.1121
  52   2.0000      -0.471817       -12.8388
  53   2.0000      -0.459096       -12.4926
  54   2.0000      -0.456786       -12.4298
  55   2.0000      -0.450271       -12.2525
  56   2.0000      -0.439875       -11.9696
  57   2.0000      -0.437933       -11.9168
  58   2.0000      -0.428581       -11.6623
  59   2.0000      -0.426203       -11.5976
  60   2.0000      -0.420033       -11.4297
  61   2.0000      -0.409774       -11.1505
  62   2.0000      -0.405308       -11.0290
  63   2.0000      -0.334842        -9.1115
  64   2.0000      -0.328921        -8.9504
  65   2.0000      -0.327838        -8.9209
  66   2.0000      -0.308084        -8.3834
  67   0.0000       0.036506         0.9934
  68   0.0000       0.053290         1.4501
  69   0.0000       0.112185         3.0527
  70   0.0000       0.120104         3.2682
  71   0.0000       0.121411         3.3038

MULLIKEN ATOMIC CHARGES
-----------------------
   0 S :    0.104267
   1 C :   -0.145253
   2 C :   -0.094188
   3 C :    0.055139
   4 C :   -0.164694
   5 H :    0.009770
   6 C :    0.023304
   7 H :    0.056892
   8 H :    0.030775
   9 C :   -0.075006
  10 H :    0.016645
  11 H :    0.021161
  12 C :   -0.026170
  13 H :    0.025309
  14 H :    0.036177
  15 H :    0.033327
  16 S :    0.118864
  17 C :   -0.088750
  18 C :   -0.046799
  19 C :   -0.049536
  20 C :   -0.179510
  21 H :    0.038656
  22 C :    0.089518
  23 H :    0.036070
  24 H :    0.011658
  25 C :   -0.081756
  26 H :    0.035643
  27 H :    0.020541
  28 C :   -0.050714
  29 H :    0.035692
  30 H :    0.043664
  31 H :    0.030591
  32 H :    0.074515
  33 H :    0.054198
Sum of atomic charges:   -0.0000000

LOEWDIN ATOMIC CHARGES
----------------------
   0 S :    0.393189
   1 C :   -0.192796
   2 C :   -0.069707
   3 C :   -0.063188
   4 C :   -0.200059
   5 H :    0.027568
   6 C :   -0.033931
   7 H :    0.036993
   8 H :    0.036076
   9 C :   -0.039968
  10 H :    0.017930
  11 H :    0.021375
  12 C :   -0.062227
  13 H :    0.017995
  14 H :    0.026023
  15 H :    0.032410
  16 S :    0.409889
  17 C :   -0.179595
  18 C :   -0.071551
  19 C :   -0.050367
  20 C :   -0.211000
  21 H :    0.035602
  22 C :   -0.033373
  23 H :    0.034980
  24 H :    0.025607
  25 C :   -0.043284
  26 H :    0.032145
  27 H :    0.016902
  28 C :   -0.067942
  29 H :    0.024559
  30 H :    0.028846
  31 H :    0.028614
  32 H :    0.045389
  33 H :    0.026896

  Mayer bond orders larger than 0.100000
B(  0-S ,  1-C ) :   1.1212 B(  0-S ,  4-C ) :   1.1530 B(  1-C ,  2-C ) :   1.6530
B(  1-C , 32-H ) :   0.9551 B(  2-C ,  3-C ) :   1.2006 B(  2-C ,  6-C ) :   1.0250
B(  3-C ,  4-C ) :   1.6177 B(  3-C ,  5-H ) :   0.9938 B(  4-C , 20-C ) :   1.0038
B(  6-C ,  7-H ) :   0.9430 B(  6-C ,  8-H ) :   0.9441 B(  6-C ,  9-C ) :   1.0411
B(  9-C , 10-H ) :   0.9591 B(  9-C , 11-H ) :   0.9573 B(  9-C , 12-C ) :   1.0719
B( 12-C , 13-H ) :   0.9775 B( 12-C , 14-H ) :   0.9766 B( 12-C , 15-H ) :   0.9764
B( 16-S , 17-C ) :   1.1596 B( 16-S , 20-C ) :   1.1552 B( 17-C , 18-C ) :   1.5799
B( 17-C , 20-C ) :   0.1142 B( 17-C , 33-H ) :   0.9725 B( 18-C , 19-C ) :   1.2758
B( 18-C , 21-H ) :   0.9725 B( 19-C , 20-C ) :   1.5627 B( 19-C , 22-C ) :   1.0407
B( 22-C , 23-H ) :   0.9394 B( 22-C , 24-H ) :   0.9331 B( 22-C , 25-C ) :   1.0605
B( 25-C , 26-H ) :   0.9546 B( 25-C , 27-H ) :   0.9645 B( 25-C , 28-C ) :   1.0746
B( 28-C , 29-H ) :   0.9765 B( 28-C , 30-H ) :   0.9696 B( 28-C , 31-H ) :   0.9735

Dispersion correction           -0.014950639
FINAL SINGLE POINT ENERGY     -1339.874386472731

DIPOLE MOMENT
-------------
                                X             Y             Z
Electronic contribution:      7.18916      -3.37042     -25.16696
Nuclear contribution   :     -7.26881       3.59280      25.71994
                        -----------------------------------------
Total Dipole Moment    :     -0.07965       0.22239       0.55299
                        -----------------------------------------
Magnitude (a.u.)       :      0.60133
Magnitude (Debye)      :      1.52845

Rotational constants in cm-1:     0.019488     0.008197     0.007079
Rotational constants in MHz :   584.246336   245.730000   212.236775

                             ****ORCA TERMINATED NORMALLY****
TOTAL RUN TIME: 0 days 0 hours 0 minutes 30 seconds 193 msec
