                         Program Version 4.2.1 -  RELEASE  -
|  1> ! wB97X-D3 SP def2-SVP
|  2> %pal
|  3> nprocs 16
|  4> end
|  5>
|  6> * xyz 0 1
|  7> S 	 42.9204 	 12.5414 	 49.1643
|  8> C 	 43.3644 	 11.0899 	 50.0134
|  9> C 	 43.9368 	 11.3786 	 51.2278
| 10> C 	 43.954 	 12.7722 	 51.4772
| 11> C 	 43.2473 	 13.5445 	 50.5888
| 12> H 	 44.4278 	 13.2347 	 52.3617
| 13> C 	 44.5661 	 10.379 	 52.0876
| 14> H 	 45.5607 	 10.8555 	 52.3064
| 15> H 	 44.8014 	 9.44637 	 51.5482
| 16> C 	 43.7675 	 10.0603 	 53.2902
| 17> H 	 43.6543 	 10.9988 	 53.7328
| 18> H 	 42.7899 	 9.68731 	 52.9946
| 19> C 	 44.4093 	 9.13463 	 54.2939
| 20> H 	 45.4637 	 9.24094 	 54.4542
| 21> H 	 43.8644 	 9.38257 	 55.2486
| 22> H 	 44.2026 	 8.05296 	 54.0934
| 23> S 	 44.0539 	 15.9067 	 49.3182
| 24> C 	 43.2594 	 17.4402 	 49.7585
| 25> C 	 42.4534 	 17.272 	 50.8719
| 26> C 	 42.3132 	 15.8555 	 51.2276
| 27> C 	 43.1652 	 14.9928 	 50.5741
| 28> H 	 41.939 	 18.1735 	 51.3178
| 29> C 	 41.2767 	 15.3151 	 52.1865
| 30> H 	 41.4963 	 15.6512 	 53.218
| 31> H 	 41.4224 	 14.2097 	 52.3785
| 32> C 	 39.8503 	 15.5885 	 51.7016
| 33> H 	 39.6711 	 16.6469 	 51.821
| 34> H 	 39.2122 	 15.1656 	 52.4516
| 35> C 	 39.6455 	 14.9509 	 50.3603
| 36> H 	 39.8904 	 15.7615 	 49.6464
| 37> H 	 38.5944 	 14.7361 	 50.2223
| 38> H 	 40.3458 	 14.1288 	 50.2165
| 39> H 	 43.1729 	 10.0377 	 49.8104
| 40> H 	 43.5257 	 18.3432 	 49.304
| 41> *
| 42>
| 43>                          ****END OF INPUT****

CARTESIAN COORDINATES (ANGSTROEM)
---------------------------------
  S     42.920400   12.541400   49.164300
  C     43.364400   11.089900   50.013400
  C     43.936800   11.378600   51.227800
  C     43.954000   12.772200   51.477200
  C     43.247300   13.544500   50.588800
  H     44.427800   13.234700   52.361700
  C     44.566100   10.379000   52.087600
  H     45.560700   10.855500   52.306400
  H     44.801400    9.446370   51.548200
  C     43.767500   10.060300   53.290200
  H     43.654300   10.998800   53.732800
  H     42.789900    9.687310   52.994600
  C     44.409300    9.134630   54.293900
  H     45.463700    9.240940   54.454200
  H     43.864400    9.382570   55.248600
  H     44.202600    8.052960   54.093400
  S     44.053900   15.906700   49.318200
  C     43.259400   17.440200   49.758500
  C     42.453400   17.272000   50.871900
  C     42.313200   15.855500   51.227600
  C     43.165200   14.992800   50.574100
  H     41.939000   18.173500   51.317800
  C     41.276700   15.315100   52.186500
  H     41.496300   15.651200   53.218000
  H     41.422400   14.209700   52.378500
  C     39.850300   15.588500   51.701600
  H     39.671100   16.646900   51.821000
  H     39.212200   15.165600   52.451600
  C     39.645500   14.950900   50.360300
  H     39.890400   15.761500   49.646400
  H     38.594400   14.736100   50.222300
  H     40.345800   14.128800   50.216500
  H     43.172900   10.037700   49.810400
  H     43.525700   18.343200   49.304000

 Total Charge           Charge          ....    0
 Multiplicity           Mult            ....    1
 Number of Electrons    NEL             ....  134
 Basis Dimension        Dim             ....  322

ORBITAL ENERGIES
----------------

  NO   OCC          E(Eh)            E(eV)
   0   2.0000     -88.968199     -2420.9478
   1   2.0000     -88.960448     -2420.7369
   2   2.0000     -10.330854      -281.1168
   3   2.0000     -10.326677      -281.0032
   4   2.0000     -10.321317      -280.8573
   5   2.0000     -10.312660      -280.6217
   6   2.0000     -10.306734      -280.4605
   7   2.0000     -10.306050      -280.4419
   8   2.0000     -10.296489      -280.1817
   9   2.0000     -10.293242      -280.0934
  10   2.0000     -10.288548      -279.9656
  11   2.0000     -10.288054      -279.9522
  12   2.0000     -10.281895      -279.7846
  13   2.0000     -10.277744      -279.6716
  14   2.0000     -10.274772      -279.5908
  15   2.0000     -10.267500      -279.3929
  16   2.0000      -8.082251      -219.9292
  17   2.0000      -8.074460      -219.7172
  18   2.0000      -6.040866      -164.3803
  19   2.0000      -6.036880      -164.2719
  20   2.0000      -6.033147      -164.1703
  21   2.0000      -6.032869      -164.1627
  22   2.0000      -6.029043      -164.0586
  23   2.0000      -6.025080      -163.9508
  24   2.0000      -1.007189       -27.4070
  25   2.0000      -0.981768       -26.7153
  26   2.0000      -0.926568       -25.2132
  27   2.0000      -0.909757       -24.7557
  28   2.0000      -0.873842       -23.7784
  29   2.0000      -0.851780       -23.1781
  30   2.0000      -0.838197       -22.8085
  31   2.0000      -0.818650       -22.2766
  32   2.0000      -0.780889       -21.2491
  33   2.0000      -0.769523       -20.9398
  34   2.0000      -0.710529       -19.3345
  35   2.0000      -0.699564       -19.0361
  36   2.0000      -0.695699       -18.9309
  37   2.0000      -0.654364       -17.8062
  38   2.0000      -0.639354       -17.3977
  39   2.0000      -0.621835       -16.9210
  40   2.0000      -0.596458       -16.2304
  41   2.0000      -0.574470       -15.6321
  42   2.0000      -0.567560       -15.4441
  43   2.0000      -0.558049       -15.1853
  44   2.0000      -0.539411       -14.6781
  45   2.0000      -0.534251       -14.5377
  46   2.0000      -0.518209       -14.1012
  47   2.0000      -0.510230       -13.8841
  48   2.0000      -0.506998       -13.7961
  49   2.0000      -0.501949       -13.6587
  50   2.0000      -0.489931       -13.3317
  51   2.0000      -0.473438       -12.8829
  52   2.0000      -0.466958       -12.7066
  53   2.0000      -0.465667       -12.6715
  54   2.0000      -0.458438       -12.4747
  55   2.0000      -0.448784       -12.2120
  56   2.0000      -0.439158       -11.9501
  57   2.0000      -0.438032       -11.9195
  58   2.0000      -0.427577       -11.6350
  59   2.0000      -0.426457       -11.6045
  60   2.0000      -0.413744       -11.2586
  61   2.0000      -0.409547       -11.1443
  62   2.0000      -0.404050       -10.9948
  63   2.0000      -0.341744        -9.2993
  64   2.0000      -0.329291        -8.9605
  65   2.0000      -0.325464        -8.8563
  66   2.0000      -0.302536        -8.2324
  67   0.0000       0.034239         0.9317
  68   0.0000       0.055675         1.5150
  69   0.0000       0.111708         3.0397
  70   0.0000       0.121336         3.3017
  71   0.0000       0.127188         3.4610

MULLIKEN ATOMIC CHARGES
-----------------------
   0 S :    0.120071
   1 C :   -0.097123
   2 C :   -0.112044
   3 C :    0.032580
   4 C :   -0.165816
   5 H :    0.026063
   6 C :    0.047446
   7 H :    0.034582
   8 H :    0.014366
   9 C :   -0.035604
  10 H :    0.003587
  11 H :    0.024465
  12 C :   -0.044019
  13 H :    0.030052
  14 H :    0.038067
  15 H :    0.038789
  16 S :    0.080475
  17 C :   -0.082050
  18 C :   -0.033229
  19 C :   -0.047188
  20 C :   -0.148810
  21 H :    0.049127
  22 C :    0.002010
  23 H :    0.026567
  24 H :    0.034511
  25 C :   -0.057209
  26 H :    0.021084
  27 H :    0.015116
  28 C :   -0.008604
  29 H :    0.036624
  30 H :    0.033640
  31 H :    0.033288
  32 H :    0.043305
  33 H :    0.045879
Sum of atomic charges:   -0.0000000

LOEWDIN ATOMIC CHARGES
----------------------
   0 S :    0.406198
   1 C :   -0.197330
   2 C :   -0.072256
   3 C :   -0.054115
   4 C :   -0.193641
   5 H :    0.036184
   6 C :   -0.037952
   7 H :    0.039628
   8 H :    0.026694
   9 C :   -0.041028
  10 H :    0.016266
  11 H :    0.028371
  12 C :   -0.068009
  13 H :    0.021186
  14 H :    0.036258
  15 H :    0.029254
  16 S :    0.364391
  17 C :   -0.155934
  18 C :   -0.076930
  19 C :   -0.050808
  20 C :   -0.193956
  21 H :    0.044818
  22 C :   -0.042638
  23 H :    0.029206
  24 H :    0.033897
  25 C :   -0.042569
  26 H :    0.018813
  27 H :    0.018706
  28 C :   -0.061111
  29 H :    0.034905
  30 H :    0.025809
  31 H :    0.025019
  32 H :    0.034477
  33 H :    0.018198

  Mayer bond orders larger than 0.100000
B(  0-S ,  1-C ) :   1.1391 B(  0-S ,  4-C ) :   1.1334 B(  1-C ,  2-C ) :   1.6157
B(  1-C , 32-H ) :   0.9596 B(  2-C ,  3-C ) :   1.2475 B(  2-C ,  6-C ) :   1.0318
B(  3-C ,  4-C ) :   1.5750 B(  3-C ,  5-H ) :   0.9851 B(  4-C , 20-C ) :   1.0405
B(  6-C ,  7-H ) :   0.9313 B(  6-C ,  8-H ) :   0.9374 B(  6-C ,  9-C ) :   1.0705
B(  9-C , 10-H ) :   0.9558 B(  9-C , 11-H ) :   0.9466 B(  9-C , 12-C ) :   1.0854
B( 12-C , 13-H ) :   0.9739 B( 12-C , 14-H ) :   0.9748 B( 12-C , 15-H ) :   0.9746
B( 16-S , 17-C ) :   1.1460 B( 16-S , 20-C ) :   1.1088 B( 17-C , 18-C ) :   1.6343
B( 17-C , 33-H ) :   0.9738 B( 18-C , 19-C ) :   1.1941 B( 18-C , 21-H ) :   0.9819
B( 19-C , 20-C ) :   1.6426 B( 19-C , 22-C ) :   1.0426 B( 22-C , 23-H ) :   0.9346
B( 22-C , 24-H ) :   0.9356 B( 22-C , 25-C ) :   1.0753 B( 25-C , 26-H ) :   0.9568
B( 25-C , 27-H ) :   0.9539 B( 25-C , 28-C ) :   1.0585 B( 28-C , 29-H ) :   0.9674
B( 28-C , 30-H ) :   0.9734 B( 28-C , 31-H ) :   0.9742

Dispersion correction           -0.015107192
FINAL SINGLE POINT ENERGY     -1339.870547085649

DIPOLE MOMENT
-------------
                                X             Y             Z
Electronic contribution:      8.43488      11.72002     -19.13110
Nuclear contribution   :     -8.54849     -11.83545      19.76060
                        -----------------------------------------
Total Dipole Moment    :     -0.11360      -0.11543       0.62950
                        -----------------------------------------
Magnitude (a.u.)       :      0.65000
Magnitude (Debye)      :      1.65216

Rotational constants in cm-1:     0.021939     0.007855     0.007146
Rotational constants in MHz :   657.718443   235.486607   214.239467

                             ****ORCA TERMINATED NORMALLY****
TOTAL RUN TIME: 0 days 0 hours 0 minutes 36 seconds 330 msec
