                         Program Version 4.2.1 -  RELEASE  -
|  1> ! wB97X-D3 SP def2-SVP
|  2> %pal
|  3> nprocs 16
|  4> end
|  5>
|  6> * xyz 0 1
|  7> S 	 -12.7634 	 55.8197 	 29.0778
|  8> C 	 -12.3006 	 54.2183 	 28.4356
|  9> C 	 -10.9277 	 54.0072 	 28.5278
| 10> C 	 -10.2181 	 55.1475 	 29.0825
| 11> C 	 -11.0394 	 56.1794 	 29.6014
| 12> H 	 -9.153 	 55.1385 	 29.1286
| 13> C 	 -10.1945 	 52.7527 	 28.1051
| 14> H 	 -10.3011 	 52.7154 	 27.0441
| 15> H 	 -10.7406 	 51.8712 	 28.4108
| 16> C 	 -8.7237 	 52.6234 	 28.5834
| 17> H 	 -8.09201 	 53.4854 	 28.442
| 18> H 	 -8.6933 	 52.4532 	 29.6819
| 19> C 	 -8.04191 	 51.4122 	 27.7936
| 20> H 	 -8.7695 	 50.5492 	 27.7385
| 21> H 	 -7.81896 	 51.5549 	 26.7628
| 22> H 	 -7.17417 	 51.0888 	 28.4209
| 23> S 	 -10.7934 	 58.9625 	 29.0988
| 24> C 	 -9.7313 	 59.9261 	 30.1837
| 25> C 	 -9.30158 	 59.1016 	 31.2392
| 26> C 	 -9.82808 	 57.7883 	 31.255
| 27> C 	 -10.5493 	 57.4826 	 30.0706
| 28> H 	 -8.68578 	 59.4941 	 31.9874
| 29> C 	 -9.44058 	 56.6949 	 32.3209
| 30> H 	 -8.65759 	 56.9901 	 33.0426
| 31> H 	 -9.03027 	 55.8224 	 31.741
| 32> C 	 -10.7441 	 56.2372 	 32.9899
| 33> H 	 -11.4856 	 56.1564 	 32.2623
| 34> H 	 -10.9725 	 57.047 	 33.693
| 35> C 	 -10.7141 	 54.8768 	 33.6923
| 36> H 	 -10.1003 	 54.9056 	 34.5875
| 37> H 	 -10.2691 	 54.0866 	 33.0591
| 38> H 	 -11.6438 	 54.5418 	 34.0458
| 39> H 	 -12.9404 	 53.4551 	 28.0492
| 40> H 	 -9.55595 	 60.9546 	 30.1528
| 41> *
| 42>
| 43>                          ****END OF INPUT****

CARTESIAN COORDINATES (ANGSTROEM)
---------------------------------
  S    -12.763400   55.819700   29.077800
  C    -12.300600   54.218300   28.435600
  C    -10.927700   54.007200   28.527800
  C    -10.218100   55.147500   29.082500
  C    -11.039400   56.179400   29.601400
  H     -9.153000   55.138500   29.128600
  C    -10.194500   52.752700   28.105100
  H    -10.301100   52.715400   27.044100
  H    -10.740600   51.871200   28.410800
  C     -8.723700   52.623400   28.583400
  H     -8.092010   53.485400   28.442000
  H     -8.693300   52.453200   29.681900
  C     -8.041910   51.412200   27.793600
  H     -8.769500   50.549200   27.738500
  H     -7.818960   51.554900   26.762800
  H     -7.174170   51.088800   28.420900
  S    -10.793400   58.962500   29.098800
  C     -9.731300   59.926100   30.183700
  C     -9.301580   59.101600   31.239200
  C     -9.828080   57.788300   31.255000
  C    -10.549300   57.482600   30.070600
  H     -8.685780   59.494100   31.987400
  C     -9.440580   56.694900   32.320900
  H     -8.657590   56.990100   33.042600
  H     -9.030270   55.822400   31.741000
  C    -10.744100   56.237200   32.989900
  H    -11.485600   56.156400   32.262300
  H    -10.972500   57.047000   33.693000
  C    -10.714100   54.876800   33.692300
  H    -10.100300   54.905600   34.587500
  H    -10.269100   54.086600   33.059100
  H    -11.643800   54.541800   34.045800
  H    -12.940400   53.455100   28.049200
  H     -9.555950   60.954600   30.152800

 Total Charge           Charge          ....    0
 Multiplicity           Mult            ....    1
 Number of Electrons    NEL             ....  134
 Basis Dimension        Dim             ....  322

ORBITAL ENERGIES
----------------

  NO   OCC          E(Eh)            E(eV)
   0   2.0000     -88.970248     -2421.0035
   1   2.0000     -88.968306     -2420.9507
   2   2.0000     -10.342516      -281.4342
   3   2.0000     -10.334108      -281.2054
   4   2.0000     -10.320892      -280.8458
   5   2.0000     -10.319560      -280.8095
   6   2.0000     -10.309243      -280.5288
   7   2.0000     -10.304935      -280.4115
   8   2.0000     -10.302145      -280.3356
   9   2.0000     -10.300104      -280.2801
  10   2.0000     -10.298128      -280.2263
  11   2.0000     -10.294753      -280.1345
  12   2.0000     -10.292915      -280.0844
  13   2.0000     -10.289985      -280.0047
  14   2.0000     -10.274399      -279.5806
  15   2.0000     -10.268172      -279.4112
  16   2.0000      -8.082589      -219.9384
  17   2.0000      -8.081299      -219.9033
  18   2.0000      -6.041375      -164.3942
  19   2.0000      -6.039915      -164.3544
  20   2.0000      -6.037396      -164.2859
  21   2.0000      -6.035953      -164.2466
  22   2.0000      -6.033208      -164.1719
  23   2.0000      -6.032125      -164.1425
  24   2.0000      -0.990743       -26.9595
  25   2.0000      -0.970568       -26.4105
  26   2.0000      -0.907101       -24.6835
  27   2.0000      -0.901650       -24.5351
  28   2.0000      -0.864734       -23.5306
  29   2.0000      -0.843444       -22.9513
  30   2.0000      -0.839363       -22.8402
  31   2.0000      -0.812045       -22.0969
  32   2.0000      -0.778756       -21.1910
  33   2.0000      -0.768712       -20.9177
  34   2.0000      -0.720248       -19.5990
  35   2.0000      -0.700886       -19.0721
  36   2.0000      -0.688703       -18.7406
  37   2.0000      -0.661528       -18.0011
  38   2.0000      -0.636920       -17.3315
  39   2.0000      -0.620727       -16.8908
  40   2.0000      -0.590526       -16.0690
  41   2.0000      -0.568314       -15.4646
  42   2.0000      -0.563669       -15.3382
  43   2.0000      -0.562720       -15.3124
  44   2.0000      -0.528808       -14.3896
  45   2.0000      -0.516612       -14.0577
  46   2.0000      -0.513792       -13.9810
  47   2.0000      -0.509468       -13.8633
  48   2.0000      -0.503061       -13.6890
  49   2.0000      -0.501235       -13.6393
  50   2.0000      -0.490447       -13.3457
  51   2.0000      -0.483059       -13.1447
  52   2.0000      -0.469151       -12.7663
  53   2.0000      -0.462924       -12.5968
  54   2.0000      -0.453636       -12.3441
  55   2.0000      -0.448434       -12.2025
  56   2.0000      -0.441348       -12.0097
  57   2.0000      -0.435384       -11.8474
  58   2.0000      -0.430627       -11.7179
  59   2.0000      -0.426507       -11.6059
  60   2.0000      -0.419960       -11.4277
  61   2.0000      -0.416602       -11.3363
  62   2.0000      -0.412039       -11.2122
  63   2.0000      -0.339887        -9.2488
  64   2.0000      -0.331098        -9.0096
  65   2.0000      -0.322802        -8.7839
  66   2.0000      -0.295442        -8.0394
  67   0.0000       0.021774         0.5925
  68   0.0000       0.051173         1.3925
  69   0.0000       0.108909         2.9636
  70   0.0000       0.123286         3.3548
  71   0.0000       0.126110         3.4316

MULLIKEN ATOMIC CHARGES
-----------------------
   0 S :    0.101066
   1 C :   -0.109020
   2 C :   -0.102767
   3 C :    0.049758
   4 C :   -0.160801
   5 H :    0.010524
   6 C :    0.072848
   7 H :    0.032764
   8 H :    0.028806
   9 C :   -0.106475
  10 H :    0.045797
  11 H :    0.044551
  12 C :   -0.067405
  13 H :    0.026405
  14 H :    0.040269
  15 H :    0.046180
  16 S :    0.109544
  17 C :   -0.080009
  18 C :   -0.019808
  19 C :   -0.027241
  20 C :   -0.165133
  21 H :   -0.001744
  22 C :    0.055093
  23 H :    0.031482
  24 H :    0.028111
  25 C :   -0.065213
  26 H :    0.028584
  27 H :    0.028895
  28 C :   -0.018431
  29 H :    0.013408
  30 H :    0.027481
  31 H :    0.021359
  32 H :    0.038011
  33 H :    0.043110
Sum of atomic charges:    0.0000000

LOEWDIN ATOMIC CHARGES
----------------------
   0 S :    0.362122
   1 C :   -0.182942
   2 C :   -0.062552
   3 C :   -0.044212
   4 C :   -0.178426
   5 H :    0.024945
   6 C :   -0.035446
   7 H :    0.032361
   8 H :    0.033913
   9 C :   -0.038803
  10 H :    0.020766
  11 H :    0.030923
  12 C :   -0.066961
  13 H :    0.027189
  14 H :    0.021155
  15 H :    0.032721
  16 S :    0.384325
  17 C :   -0.165855
  18 C :   -0.064741
  19 C :   -0.047595
  20 C :   -0.194665
  21 H :    0.021571
  22 C :   -0.027909
  23 H :    0.029034
  24 H :    0.031412
  25 C :   -0.036145
  26 H :    0.015622
  27 H :    0.027058
  28 C :   -0.062353
  29 H :    0.020399
  30 H :    0.026898
  31 H :    0.019305
  32 H :    0.026577
  33 H :    0.020308

  Mayer bond orders larger than 0.100000
B(  0-S ,  1-C ) :   1.1300 B(  0-S ,  4-C ) :   1.1125 B(  1-C ,  2-C ) :   1.6254
B(  1-C , 32-H ) :   0.9705 B(  2-C ,  3-C ) :   1.2590 B(  2-C ,  6-C ) :   1.0014
B(  3-C ,  4-C ) :   1.5648 B(  3-C ,  5-H ) :   0.9787 B(  4-C , 20-C ) :   1.0539
B(  6-C ,  7-H ) :   0.9373 B(  6-C ,  8-H ) :   0.9369 B(  6-C ,  9-C ) :   1.0722
B(  9-C , 10-H ) :   0.9514 B(  9-C , 11-H ) :   0.9593 B(  9-C , 12-C ) :   1.0660
B( 12-C , 13-H ) :   0.9760 B( 12-C , 14-H ) :   0.9801 B( 12-C , 15-H ) :   0.9749
B( 16-S , 17-C ) :   1.1492 B( 16-S , 20-C ) :   1.1418 B( 17-C , 18-C ) :   1.5823
B( 17-C , 20-C ) :   0.1139 B( 17-C , 33-H ) :   0.9758 B( 18-C , 19-C ) :   1.2831
B( 18-C , 21-H ) :   0.9937 B( 19-C , 20-C ) :   1.5537 B( 19-C , 22-C ) :   1.0244
B( 22-C , 23-H ) :   0.9478 B( 22-C , 24-H ) :   0.9386 B( 22-C , 25-C ) :   1.0465
B( 25-C , 26-H ) :   0.9622 B( 25-C , 27-H ) :   0.9529 B( 25-C , 28-C ) :   1.0869
B( 28-C , 29-H ) :   0.9715 B( 28-C , 30-H ) :   0.9733 B( 28-C , 31-H ) :   0.9738

Dispersion correction           -0.014407271
FINAL SINGLE POINT ENERGY     -1339.862105894010

DIPOLE MOMENT
-------------
                                X             Y             Z
Electronic contribution:    -13.79832      23.41595      -9.53287
Nuclear contribution   :     14.33253     -23.95482       9.64446
                        -----------------------------------------
Total Dipole Moment    :      0.53421      -0.53887       0.11160
                        -----------------------------------------
Magnitude (a.u.)       :      0.76695
Magnitude (Debye)      :      1.94943

Rotational constants in cm-1:     0.016988     0.008439     0.007549
Rotational constants in MHz :   509.296889   252.982817   226.302861

                             ****ORCA TERMINATED NORMALLY****
TOTAL RUN TIME: 0 days 0 hours 0 minutes 34 seconds 524 msec
