                         Program Version 4.2.1 -  RELEASE  -
|  1> ! wB97X-D3 SP def2-SVP
|  2> %pal
|  3> nprocs 16
|  4> end
|  5>
|  6> * xyz 0 1
|  7> S 	 -2.28504 	 -24.4851 	 86.5359
|  8> C 	 -1.09319 	 -24.7032 	 85.281
|  9> C 	 -0.306514 	 -23.4937 	 85.193
| 10> C 	 -0.852637 	 -22.4658 	 85.9838
| 11> C 	 -2.07695 	 -22.7753 	 86.5977
| 12> H 	 -0.481996 	 -21.4737 	 86.187
| 13> C 	 0.97227 	 -23.3343 	 84.3731
| 14> H 	 0.780728 	 -22.5067 	 83.6667
| 15> H 	 1.20412 	 -24.2291 	 83.7919
| 16> C 	 2.10983 	 -22.8105 	 85.2939
| 17> H 	 2.95173 	 -22.586 	 84.5877
| 18> H 	 1.92057 	 -21.8713 	 85.8182
| 19> C 	 2.61328 	 -23.8379 	 86.2424
| 20> H 	 1.747 	 -24.2522 	 86.7876
| 21> H 	 3.17635 	 -24.6415 	 85.7727
| 22> H 	 3.33216 	 -23.417 	 86.984
| 23> S 	 -2.96815 	 -22.7426 	 89.1981
| 24> C 	 -3.57518 	 -21.2808 	 89.7523
| 25> C 	 -3.3818 	 -20.2052 	 88.872
| 26> C 	 -2.92964 	 -20.6337 	 87.598
| 27> C 	 -2.73141 	 -22.0052 	 87.5854
| 28> H 	 -3.66269 	 -19.2309 	 89.0911
| 29> C 	 -2.62459 	 -19.6488 	 86.4324
| 30> H 	 -2.63993 	 -20.2542 	 85.571
| 31> H 	 -1.63348 	 -19.3154 	 86.5863
| 32> C 	 -3.48908 	 -18.3702 	 86.2111
| 33> H 	 -3.27077 	 -17.7311 	 87.0889
| 34> H 	 -4.52984 	 -18.7027 	 86.3575
| 35> C 	 -3.22822 	 -17.5874 	 84.9113
| 36> H 	 -4.07115 	 -16.9388 	 84.628
| 37> H 	 -3.31444 	 -18.3334 	 84.1309
| 38> H 	 -2.28479 	 -17.0611 	 84.7727
| 39> H 	 -0.938729 	 -25.639 	 84.8167
| 40> H 	 -4.30381 	 -21.2136 	 90.516
| 41> *
| 42>
| 43>                          ****END OF INPUT****

CARTESIAN COORDINATES (ANGSTROEM)
---------------------------------
  S     -2.285040  -24.485100   86.535900
  C     -1.093190  -24.703200   85.281000
  C     -0.306514  -23.493700   85.193000
  C     -0.852637  -22.465800   85.983800
  C     -2.076950  -22.775300   86.597700
  H     -0.481996  -21.473700   86.187000
  C      0.972270  -23.334300   84.373100
  H      0.780728  -22.506700   83.666700
  H      1.204120  -24.229100   83.791900
  C      2.109830  -22.810500   85.293900
  H      2.951730  -22.586000   84.587700
  H      1.920570  -21.871300   85.818200
  C      2.613280  -23.837900   86.242400
  H      1.747000  -24.252200   86.787600
  H      3.176350  -24.641500   85.772700
  H      3.332160  -23.417000   86.984000
  S     -2.968150  -22.742600   89.198100
  C     -3.575180  -21.280800   89.752300
  C     -3.381800  -20.205200   88.872000
  C     -2.929640  -20.633700   87.598000
  C     -2.731410  -22.005200   87.585400
  H     -3.662690  -19.230900   89.091100
  C     -2.624590  -19.648800   86.432400
  H     -2.639930  -20.254200   85.571000
  H     -1.633480  -19.315400   86.586300
  C     -3.489080  -18.370200   86.211100
  H     -3.270770  -17.731100   87.088900
  H     -4.529840  -18.702700   86.357500
  C     -3.228220  -17.587400   84.911300
  H     -4.071150  -16.938800   84.628000
  H     -3.314440  -18.333400   84.130900
  H     -2.284790  -17.061100   84.772700
  H     -0.938729  -25.639000   84.816700
  H     -4.303810  -21.213600   90.516000

 Total Charge           Charge          ....    0
 Multiplicity           Mult            ....    1
 Number of Electrons    NEL             ....  134
 Basis Dimension        Dim             ....  322

ORBITAL ENERGIES
----------------

  NO   OCC          E(Eh)            E(eV)
   0   2.0000     -88.965434     -2420.8725
   1   2.0000     -88.964194     -2420.8388
   2   2.0000     -10.321714      -280.8681
   3   2.0000     -10.321376      -280.8589
   4   2.0000     -10.318872      -280.7908
   5   2.0000     -10.309048      -280.5235
   6   2.0000     -10.308125      -280.4983
   7   2.0000     -10.303540      -280.3736
   8   2.0000     -10.297998      -280.2228
   9   2.0000     -10.294631      -280.1311
  10   2.0000     -10.294023      -280.1146
  11   2.0000     -10.289121      -279.9812
  12   2.0000     -10.288690      -279.9695
  13   2.0000     -10.287590      -279.9396
  14   2.0000     -10.284098      -279.8445
  15   2.0000     -10.272912      -279.5401
  16   2.0000      -8.081153      -219.8994
  17   2.0000      -8.079541      -219.8555
  18   2.0000      -6.039535      -164.3441
  19   2.0000      -6.037795      -164.2967
  20   2.0000      -6.035654      -164.2385
  21   2.0000      -6.033980      -164.1930
  22   2.0000      -6.031857      -164.1352
  23   2.0000      -6.030525      -164.0989
  24   2.0000      -1.011526       -27.5250
  25   2.0000      -0.984772       -26.7970
  26   2.0000      -0.914390       -24.8818
  27   2.0000      -0.907299       -24.6889
  28   2.0000      -0.871637       -23.7184
  29   2.0000      -0.856697       -23.3119
  30   2.0000      -0.844638       -22.9838
  31   2.0000      -0.808229       -21.9930
  32   2.0000      -0.789481       -21.4829
  33   2.0000      -0.771941       -21.0056
  34   2.0000      -0.709239       -19.2994
  35   2.0000      -0.701533       -19.0897
  36   2.0000      -0.691586       -18.8190
  37   2.0000      -0.657180       -17.8828
  38   2.0000      -0.644894       -17.5485
  39   2.0000      -0.621184       -16.9033
  40   2.0000      -0.597533       -16.2597
  41   2.0000      -0.571765       -15.5585
  42   2.0000      -0.563061       -15.3217
  43   2.0000      -0.552543       -15.0355
  44   2.0000      -0.535945       -14.5838
  45   2.0000      -0.528288       -14.3755
  46   2.0000      -0.520105       -14.1528
  47   2.0000      -0.515723       -14.0335
  48   2.0000      -0.508524       -13.8376
  49   2.0000      -0.502219       -13.6661
  50   2.0000      -0.490075       -13.3356
  51   2.0000      -0.484348       -13.1798
  52   2.0000      -0.472771       -12.8648
  53   2.0000      -0.465042       -12.6544
  54   2.0000      -0.462975       -12.5982
  55   2.0000      -0.450363       -12.2550
  56   2.0000      -0.441565       -12.0156
  57   2.0000      -0.437181       -11.8963
  58   2.0000      -0.432215       -11.7612
  59   2.0000      -0.428507       -11.6603
  60   2.0000      -0.424329       -11.5466
  61   2.0000      -0.415952       -11.3186
  62   2.0000      -0.404395       -11.0042
  63   2.0000      -0.345812        -9.4100
  64   2.0000      -0.334394        -9.0993
  65   2.0000      -0.325426        -8.8553
  66   2.0000      -0.280453        -7.6315
  67   0.0000       0.014816         0.4032
  68   0.0000       0.069644         1.8951
  69   0.0000       0.103507         2.8166
  70   0.0000       0.125588         3.4174
  71   0.0000       0.126078         3.4308

MULLIKEN ATOMIC CHARGES
-----------------------
   0 S :    0.095583
   1 C :   -0.102851
   2 C :   -0.093649
   3 C :    0.007765
   4 C :   -0.161277
   5 H :    0.010314
   6 C :    0.090104
   7 H :    0.039960
   8 H :    0.026243
   9 C :   -0.108399
  10 H :    0.028736
  11 H :    0.041147
  12 C :   -0.050939
  13 H :    0.043054
  14 H :    0.026116
  15 H :    0.034561
  16 S :    0.114490
  17 C :   -0.072723
  18 C :   -0.028366
  19 C :   -0.066565
  20 C :   -0.134562
  21 H :   -0.011305
  22 C :    0.078362
  23 H :    0.019411
  24 H :    0.033641
  25 C :   -0.089436
  26 H :    0.031284
  27 H :    0.037069
  28 C :   -0.035825
  29 H :    0.038916
  30 H :    0.019038
  31 H :    0.046205
  32 H :    0.040664
  33 H :    0.053235
Sum of atomic charges:    0.0000000

LOEWDIN ATOMIC CHARGES
----------------------
   0 S :    0.423611
   1 C :   -0.196996
   2 C :   -0.059744
   3 C :   -0.058954
   4 C :   -0.209168
   5 H :    0.028676
   6 C :   -0.027756
   7 H :    0.036854
   8 H :    0.030974
   9 C :   -0.047095
  10 H :    0.027570
  11 H :    0.026215
  12 C :   -0.072325
  13 H :    0.028385
  14 H :    0.022728
  15 H :    0.029727
  16 S :    0.418558
  17 C :   -0.203722
  18 C :   -0.060977
  19 C :   -0.049760
  20 C :   -0.193240
  21 H :    0.016230
  22 C :   -0.026422
  23 H :    0.021830
  24 H :    0.025591
  25 C :   -0.042905
  26 H :    0.022053
  27 H :    0.028586
  28 C :   -0.069325
  29 H :    0.034797
  30 H :    0.026012
  31 H :    0.028997
  32 H :    0.019008
  33 H :    0.021989

  Mayer bond orders larger than 0.100000
B(  0-S ,  1-C ) :   1.1714 B(  0-S ,  4-C ) :   1.1720 B(  1-C ,  2-C ) :   1.5058
B(  1-C ,  4-C ) :   0.1135 B(  1-C , 32-H ) :   0.9847 B(  2-C ,  3-C ) :   1.2910
B(  2-C ,  6-C ) :   1.0258 B(  3-C ,  4-C ) :   1.4888 B(  3-C ,  5-H ) :   0.9924
B(  4-C , 20-C ) :   1.0918 B(  6-C ,  7-H ) :   0.9367 B(  6-C ,  8-H ) :   0.9477
B(  6-C ,  9-C ) :   1.0667 B(  9-C , 10-H ) :   0.9531 B(  9-C , 11-H ) :   0.9561
B(  9-C , 12-C ) :   1.0810 B( 12-C , 13-H ) :   0.9736 B( 12-C , 14-H ) :   0.9735
B( 12-C , 15-H ) :   0.9713 B( 16-S , 17-C ) :   1.1774 B( 16-S , 20-C ) :   1.1316
B( 17-C , 18-C ) :   1.5713 B( 17-C , 20-C ) :   0.1008 B( 17-C , 33-H ) :   0.9652
B( 18-C , 19-C ) :   1.2694 B( 18-C , 21-H ) :   1.0003 B( 19-C , 20-C ) :   1.5908
B( 19-C , 22-C ) :   1.0302 B( 22-C , 23-H ) :   0.9319 B( 22-C , 24-H ) :   0.9289
B( 22-C , 25-C ) :   1.0597 B( 25-C , 26-H ) :   0.9494 B( 25-C , 27-H ) :   0.9612
B( 25-C , 28-C ) :   1.0789 B( 28-C , 29-H ) :   0.9720 B( 28-C , 30-H ) :   0.9724
B( 28-C , 31-H ) :   0.9763

Dispersion correction           -0.014074158
FINAL SINGLE POINT ENERGY     -1339.859250042773

DIPOLE MOMENT
-------------
                                X             Y             Z
Electronic contribution:    -13.77764     -17.11601      13.64525
Nuclear contribution   :     14.15032      17.58571     -13.99637
                        -----------------------------------------
Total Dipole Moment    :      0.37268       0.46970      -0.35112
                        -----------------------------------------
Magnitude (a.u.)       :      0.69483
Magnitude (Debye)      :      1.76613

Rotational constants in cm-1:     0.016428     0.009154     0.007030
Rotational constants in MHz :   492.493177   274.424764   210.761516

                             ****ORCA TERMINATED NORMALLY****
TOTAL RUN TIME: 0 days 0 hours 0 minutes 33 seconds 701 msec
