                         Program Version 4.2.1 -  RELEASE  -
|  1> ! wB97X-D3 SP def2-SVP
|  2> %pal
|  3> nprocs 16
|  4> end
|  5>
|  6> * xyz 0 1
|  7> S 	 38.772 	 11.4306 	 79.2704
|  8> C 	 39.6318 	 12.2176 	 78.0319
|  9> C 	 40.1469 	 13.4556 	 78.4429
| 10> C 	 39.6851 	 13.7811 	 79.7863
| 11> C 	 39.0442 	 12.7402 	 80.3963
| 12> H 	 40.0485 	 14.6472 	 80.3174
| 13> C 	 41.022 	 14.4458 	 77.6779
| 14> H 	 40.893 	 15.4406 	 78.1019
| 15> H 	 40.6445 	 14.5575 	 76.7147
| 16> C 	 42.5637 	 14.2698 	 77.682
| 17> H 	 42.7727 	 13.3595 	 77.0979
| 18> H 	 42.9736 	 15.1402 	 77.244
| 19> C 	 43.181 	 14.1218 	 79.0879
| 20> H 	 44.2707 	 14.0164 	 78.9852
| 21> H 	 43.1246 	 15.0783 	 79.6204
| 22> H 	 42.8335 	 13.334 	 79.6917
| 23> S 	 37.1365 	 13.1426 	 82.3459
| 24> C 	 37.6336 	 12.9515 	 84.0406
| 25> C 	 38.9324 	 12.5532 	 84.1815
| 26> C 	 39.5347 	 12.4199 	 82.8957
| 27> C 	 38.699 	 12.5985 	 81.8166
| 28> H 	 39.417 	 12.3663 	 85.1231
| 29> C 	 41.0546 	 12.1032 	 82.8477
| 30> H 	 41.3445 	 11.7671 	 81.8231
| 31> H 	 41.3324 	 11.1901 	 83.4895
| 32> C 	 41.9659 	 13.2958 	 83.2557
| 33> H 	 42.0192 	 14.02 	 82.4502
| 34> H 	 42.9433 	 12.8613 	 83.4044
| 35> C 	 41.6017 	 13.9135 	 84.617
| 36> H 	 40.7394 	 14.5642 	 84.5827
| 37> H 	 42.3619 	 14.483 	 84.9906
| 38> H 	 41.3986 	 13.2284 	 85.4573
| 39> H 	 39.9809 	 11.6597 	 77.1769
| 40> H 	 37.0772 	 13.0396 	 84.9778
| 41> *
| 42>
| 43>                          ****END OF INPUT****

CARTESIAN COORDINATES (ANGSTROEM)
---------------------------------
  S     38.772000   11.430600   79.270400
  C     39.631800   12.217600   78.031900
  C     40.146900   13.455600   78.442900
  C     39.685100   13.781100   79.786300
  C     39.044200   12.740200   80.396300
  H     40.048500   14.647200   80.317400
  C     41.022000   14.445800   77.677900
  H     40.893000   15.440600   78.101900
  H     40.644500   14.557500   76.714700
  C     42.563700   14.269800   77.682000
  H     42.772700   13.359500   77.097900
  H     42.973600   15.140200   77.244000
  C     43.181000   14.121800   79.087900
  H     44.270700   14.016400   78.985200
  H     43.124600   15.078300   79.620400
  H     42.833500   13.334000   79.691700
  S     37.136500   13.142600   82.345900
  C     37.633600   12.951500   84.040600
  C     38.932400   12.553200   84.181500
  C     39.534700   12.419900   82.895700
  C     38.699000   12.598500   81.816600
  H     39.417000   12.366300   85.123100
  C     41.054600   12.103200   82.847700
  H     41.344500   11.767100   81.823100
  H     41.332400   11.190100   83.489500
  C     41.965900   13.295800   83.255700
  H     42.019200   14.020000   82.450200
  H     42.943300   12.861300   83.404400
  C     41.601700   13.913500   84.617000
  H     40.739400   14.564200   84.582700
  H     42.361900   14.483000   84.990600
  H     41.398600   13.228400   85.457300
  H     39.980900   11.659700   77.176900
  H     37.077200   13.039600   84.977800

 Total Charge           Charge          ....    0
 Multiplicity           Mult            ....    1
 Number of Electrons    NEL             ....  134
 Basis Dimension        Dim             ....  322

ORBITAL ENERGIES
----------------

  NO   OCC          E(Eh)            E(eV)
   0   2.0000     -88.965800     -2420.8825
   1   2.0000     -88.964328     -2420.8424
   2   2.0000     -10.326354      -280.9944
   3   2.0000     -10.322398      -280.8867
   4   2.0000     -10.316581      -280.7284
   5   2.0000     -10.312239      -280.6103
   6   2.0000     -10.305190      -280.4185
   7   2.0000     -10.300979      -280.3039
   8   2.0000     -10.298158      -280.2271
   9   2.0000     -10.293717      -280.1063
  10   2.0000     -10.288595      -279.9669
  11   2.0000     -10.288398      -279.9616
  12   2.0000     -10.288037      -279.9517
  13   2.0000     -10.286897      -279.9207
  14   2.0000     -10.276018      -279.6247
  15   2.0000     -10.269596      -279.4499
  16   2.0000      -8.080193      -219.8732
  17   2.0000      -8.080103      -219.8708
  18   2.0000      -6.038868      -164.3260
  19   2.0000      -6.038465      -164.3150
  20   2.0000      -6.034762      -164.2142
  21   2.0000      -6.034353      -164.2031
  22   2.0000      -6.031066      -164.1137
  23   2.0000      -6.030776      -164.1057
  24   2.0000      -1.007093       -27.4044
  25   2.0000      -0.985248       -26.8100
  26   2.0000      -0.909202       -24.7406
  27   2.0000      -0.901769       -24.5384
  28   2.0000      -0.870524       -23.6882
  29   2.0000      -0.848085       -23.0776
  30   2.0000      -0.842689       -22.9307
  31   2.0000      -0.816970       -22.2309
  32   2.0000      -0.787142       -21.4192
  33   2.0000      -0.773490       -21.0477
  34   2.0000      -0.705248       -19.1908
  35   2.0000      -0.702230       -19.1087
  36   2.0000      -0.686699       -18.6860
  37   2.0000      -0.660819       -17.9818
  38   2.0000      -0.646348       -17.5880
  39   2.0000      -0.614753       -16.7283
  40   2.0000      -0.587654       -15.9909
  41   2.0000      -0.577591       -15.7171
  42   2.0000      -0.556266       -15.1368
  43   2.0000      -0.550541       -14.9810
  44   2.0000      -0.545911       -14.8550
  45   2.0000      -0.538305       -14.6480
  46   2.0000      -0.515385       -14.0243
  47   2.0000      -0.504224       -13.7206
  48   2.0000      -0.501847       -13.6560
  49   2.0000      -0.495542       -13.4844
  50   2.0000      -0.484762       -13.1910
  51   2.0000      -0.477008       -12.9800
  52   2.0000      -0.470855       -12.8126
  53   2.0000      -0.465354       -12.6629
  54   2.0000      -0.462180       -12.5766
  55   2.0000      -0.449291       -12.2258
  56   2.0000      -0.444267       -12.0891
  57   2.0000      -0.438867       -11.9422
  58   2.0000      -0.430836       -11.7236
  59   2.0000      -0.425979       -11.5915
  60   2.0000      -0.423107       -11.5133
  61   2.0000      -0.415007       -11.2929
  62   2.0000      -0.410216       -11.1625
  63   2.0000      -0.339992        -9.2517
  64   2.0000      -0.331081        -9.0092
  65   2.0000      -0.317846        -8.6490
  66   2.0000      -0.310219        -8.4415
  67   0.0000       0.049770         1.3543
  68   0.0000       0.054420         1.4808
  69   0.0000       0.117472         3.1966
  70   0.0000       0.118881         3.2349
  71   0.0000       0.123753         3.3675

MULLIKEN ATOMIC CHARGES
-----------------------
   0 S :    0.121111
   1 C :   -0.110661
   2 C :   -0.132793
   3 C :    0.066079
   4 C :   -0.187734
   5 H :    0.013641
   6 C :    0.081242
   7 H :    0.008428
   8 H :    0.016638
   9 C :   -0.045082
  10 H :    0.031588
  11 H :    0.026095
  12 C :   -0.066658
  13 H :    0.029697
  14 H :    0.022422
  15 H :    0.044536
  16 S :    0.114915
  17 C :   -0.078890
  18 C :   -0.027510
  19 C :   -0.024725
  20 C :   -0.155716
  21 H :    0.015298
  22 C :    0.013078
  23 H :    0.030264
  24 H :    0.041148
  25 C :   -0.040211
  26 H :    0.033575
  27 H :    0.026263
  28 C :   -0.036884
  29 H :    0.038391
  30 H :    0.007193
  31 H :    0.018278
  32 H :    0.055125
  33 H :    0.051859
Sum of atomic charges:    0.0000000

LOEWDIN ATOMIC CHARGES
----------------------
   0 S :    0.430541
   1 C :   -0.215018
   2 C :   -0.060127
   3 C :   -0.054179
   4 C :   -0.201855
   5 H :    0.030734
   6 C :   -0.032160
   7 H :    0.029420
   8 H :    0.023037
   9 C :   -0.028553
  10 H :    0.023159
  11 H :    0.021826
  12 C :   -0.066945
  13 H :    0.030441
  14 H :    0.024245
  15 H :    0.018706
  16 S :    0.404101
  17 C :   -0.179897
  18 C :   -0.066208
  19 C :   -0.052620
  20 C :   -0.216344
  21 H :    0.031788
  22 C :   -0.037838
  23 H :    0.029094
  24 H :    0.036568
  25 C :   -0.031536
  26 H :    0.023637
  27 H :    0.025381
  28 C :   -0.065615
  29 H :    0.025931
  30 H :    0.013246
  31 H :    0.025620
  32 H :    0.026960
  33 H :    0.034460

  Mayer bond orders larger than 0.100000
B(  0-S ,  1-C ) :   1.1619 B(  0-S ,  4-C ) :   1.1643 B(  1-C ,  2-C ) :   1.6036
B(  1-C , 32-H ) :   0.9675 B(  2-C ,  3-C ) :   1.2423 B(  2-C ,  6-C ) :   1.0192
B(  3-C ,  4-C ) :   1.5974 B(  3-C ,  5-H ) :   0.9932 B(  4-C , 20-C ) :   0.9803
B(  6-C ,  7-H ) :   0.9403 B(  6-C ,  8-H ) :   0.9412 B(  6-C ,  9-C ) :   1.0726
B(  9-C , 10-H ) :   0.9583 B(  9-C , 11-H ) :   0.9552 B(  9-C , 12-C ) :   1.0839
B( 12-C , 13-H ) :   0.9702 B( 12-C , 14-H ) :   0.9734 B( 12-C , 15-H ) :   0.9753
B( 16-S , 17-C ) :   1.1473 B( 16-S , 20-C ) :   1.1304 B( 17-C , 18-C ) :   1.6310
B( 17-C , 33-H ) :   0.9584 B( 18-C , 19-C ) :   1.2340 B( 18-C , 21-H ) :   0.9860
B( 19-C , 20-C ) :   1.6444 B( 19-C , 22-C ) :   1.0290 B( 22-C , 23-H ) :   0.9378
B( 22-C , 24-H ) :   0.9464 B( 22-C , 25-C ) :   1.0756 B( 25-C , 26-H ) :   0.9524
B( 25-C , 27-H ) :   0.9553 B( 25-C , 28-C ) :   1.0880 B( 28-C , 29-H ) :   0.9656
B( 28-C , 30-H ) :   0.9671 B( 28-C , 31-H ) :   0.9697

Dispersion correction           -0.016159007
FINAL SINGLE POINT ENERGY     -1339.876871419468

DIPOLE MOMENT
-------------
                                X             Y             Z
Electronic contribution:    -27.09651      -9.88492      -2.87893
Nuclear contribution   :     27.92690      10.16096       3.05222
                        -----------------------------------------
Total Dipole Moment    :      0.83039       0.27604       0.17328
                        -----------------------------------------
Magnitude (a.u.)       :      0.89206
Magnitude (Debye)      :      2.26743

Rotational constants in cm-1:     0.018675     0.010082     0.007439
Rotational constants in MHz :   559.863752   302.258841   223.011495

                             ****ORCA TERMINATED NORMALLY****
TOTAL RUN TIME: 0 days 0 hours 0 minutes 33 seconds 125 msec
