                         Program Version 4.2.1 -  RELEASE  -
|  1> ! wB97X-D3 SP def2-SVP
|  2> %pal
|  3> nprocs 16
|  4> end
|  5>
|  6> * xyz 0 1
|  7> S 	 -34.7861 	 47.5334 	 95.7372
|  8> C 	 -33.0706 	 47.3433 	 95.3729
|  9> C 	 -32.4054 	 48.5606 	 95.2324
| 10> C 	 -33.2856 	 49.6494 	 95.6242
| 11> C 	 -34.6011 	 49.2724 	 95.8369
| 12> H 	 -32.9813 	 50.6451 	 95.7083
| 13> C 	 -30.9338 	 48.7389 	 94.9195
| 14> H 	 -30.7908 	 49.8257 	 94.9266
| 15> H 	 -30.7474 	 48.3817 	 93.8686
| 16> C 	 -29.9363 	 48.2086 	 95.9783
| 17> H 	 -30.0536 	 47.147 	 96.049
| 18> H 	 -28.9328 	 48.4446 	 95.5999
| 19> C 	 -30.0257 	 48.7054 	 97.3569
| 20> H 	 -29.8521 	 49.8256 	 97.4601
| 21> H 	 -30.981 	 48.5304 	 97.7295
| 22> H 	 -29.4715 	 48.1038 	 98.008
| 23> S 	 -36.9499 	 50.2319 	 94.7403
| 24> C 	 -37.79 	 51.6195 	 95.4973
| 25> C 	 -37.119 	 51.8435 	 96.695
| 26> C 	 -35.942 	 51.0609 	 97.0167
| 27> C 	 -35.7111 	 50.1523 	 96.0322
| 28> H 	 -37.4404 	 52.701 	 97.2631
| 29> C 	 -35.0834 	 51.4548 	 98.1563
| 30> H 	 -34.1247 	 50.9137 	 97.9188
| 31> H 	 -35.4805 	 51.0092 	 99.0976
| 32> C 	 -34.548 	 52.9827 	 98.284
| 33> H 	 -35.4029 	 53.7242 	 98.3961
| 34> H 	 -34.0531 	 53.3487 	 97.4582
| 35> C 	 -33.6446 	 53.2524 	 99.522
| 36> H 	 -32.9078 	 53.9901 	 99.3723
| 37> H 	 -33.1484 	 52.3363 	 99.7801
| 38> H 	 -34.3445 	 53.4569 	 100.267
| 39> H 	 -32.6089 	 46.4151 	 95.134
| 40> H 	 -38.6982 	 52.1577 	 95.1326
| 41> *
| 42>
| 43>                          ****END OF INPUT****

CARTESIAN COORDINATES (ANGSTROEM)
---------------------------------
  S    -34.786100   47.533400   95.737200
  C    -33.070600   47.343300   95.372900
  C    -32.405400   48.560600   95.232400
  C    -33.285600   49.649400   95.624200
  C    -34.601100   49.272400   95.836900
  H    -32.981300   50.645100   95.708300
  C    -30.933800   48.738900   94.919500
  H    -30.790800   49.825700   94.926600
  H    -30.747400   48.381700   93.868600
  C    -29.936300   48.208600   95.978300
  H    -30.053600   47.147000   96.049000
  H    -28.932800   48.444600   95.599900
  C    -30.025700   48.705400   97.356900
  H    -29.852100   49.825600   97.460100
  H    -30.981000   48.530400   97.729500
  H    -29.471500   48.103800   98.008000
  S    -36.949900   50.231900   94.740300
  C    -37.790000   51.619500   95.497300
  C    -37.119000   51.843500   96.695000
  C    -35.942000   51.060900   97.016700
  C    -35.711100   50.152300   96.032200
  H    -37.440400   52.701000   97.263100
  C    -35.083400   51.454800   98.156300
  H    -34.124700   50.913700   97.918800
  H    -35.480500   51.009200   99.097600
  C    -34.548000   52.982700   98.284000
  H    -35.402900   53.724200   98.396100
  H    -34.053100   53.348700   97.458200
  C    -33.644600   53.252400   99.522000
  H    -32.907800   53.990100   99.372300
  H    -33.148400   52.336300   99.780100
  H    -34.344500   53.456900  100.267000
  H    -32.608900   46.415100   95.134000
  H    -38.698200   52.157700   95.132600

 Total Charge           Charge          ....    0
 Multiplicity           Mult            ....    1
 Number of Electrons    NEL             ....  134
 Basis Dimension        Dim             ....  322

ORBITAL ENERGIES
----------------

  NO   OCC          E(Eh)            E(eV)
   0   2.0000     -88.968525     -2420.9566
   1   2.0000     -88.961145     -2420.7558
   2   2.0000     -10.327228      -281.0182
   3   2.0000     -10.326259      -280.9918
   4   2.0000     -10.324799      -280.9521
   5   2.0000     -10.314288      -280.6661
   6   2.0000     -10.304147      -280.3901
   7   2.0000     -10.303362      -280.3687
   8   2.0000     -10.301762      -280.3252
   9   2.0000     -10.298438      -280.2348
  10   2.0000     -10.294221      -280.1200
  11   2.0000     -10.293581      -280.1026
  12   2.0000     -10.292022      -280.0601
  13   2.0000     -10.283806      -279.8366
  14   2.0000     -10.269995      -279.4608
  15   2.0000     -10.268065      -279.4083
  16   2.0000      -8.082871      -219.9461
  17   2.0000      -8.074830      -219.7273
  18   2.0000      -6.041376      -164.3942
  19   2.0000      -6.037447      -164.2873
  20   2.0000      -6.033647      -164.1839
  21   2.0000      -6.033619      -164.1831
  22   2.0000      -6.029409      -164.0686
  23   2.0000      -6.025396      -163.9594
  24   2.0000      -1.003498       -27.3066
  25   2.0000      -0.977276       -26.5930
  26   2.0000      -0.916743       -24.9458
  27   2.0000      -0.900173       -24.4949
  28   2.0000      -0.872195       -23.7336
  29   2.0000      -0.855797       -23.2874
  30   2.0000      -0.847958       -23.0741
  31   2.0000      -0.812710       -22.1150
  32   2.0000      -0.784183       -21.3387
  33   2.0000      -0.772545       -21.0220
  34   2.0000      -0.709354       -19.3025
  35   2.0000      -0.704100       -19.1595
  36   2.0000      -0.698900       -19.0180
  37   2.0000      -0.658798       -17.9268
  38   2.0000      -0.642488       -17.4830
  39   2.0000      -0.610891       -16.6232
  40   2.0000      -0.590705       -16.0739
  41   2.0000      -0.577591       -15.7171
  42   2.0000      -0.566214       -15.4075
  43   2.0000      -0.555211       -15.1081
  44   2.0000      -0.544133       -14.8066
  45   2.0000      -0.528496       -14.3811
  46   2.0000      -0.522664       -14.2224
  47   2.0000      -0.514642       -14.0041
  48   2.0000      -0.511614       -13.9217
  49   2.0000      -0.496510       -13.5107
  50   2.0000      -0.493095       -13.4178
  51   2.0000      -0.474639       -12.9156
  52   2.0000      -0.472649       -12.8614
  53   2.0000      -0.459268       -12.4973
  54   2.0000      -0.458646       -12.4804
  55   2.0000      -0.454479       -12.3670
  56   2.0000      -0.443707       -12.0739
  57   2.0000      -0.438965       -11.9448
  58   2.0000      -0.436368       -11.8742
  59   2.0000      -0.418025       -11.3750
  60   2.0000      -0.417170       -11.3518
  61   2.0000      -0.413224       -11.2444
  62   2.0000      -0.407025       -11.0757
  63   2.0000      -0.340408        -9.2630
  64   2.0000      -0.331273        -9.0144
  65   2.0000      -0.325169        -8.8483
  66   2.0000      -0.299507        -8.1500
  67   0.0000       0.035116         0.9556
  68   0.0000       0.059342         1.6148
  69   0.0000       0.115873         3.1531
  70   0.0000       0.119167         3.2427
  71   0.0000       0.123931         3.3723

MULLIKEN ATOMIC CHARGES
-----------------------
   0 S :    0.123157
   1 C :   -0.111207
   2 C :   -0.119011
   3 C :    0.070317
   4 C :   -0.185018
   5 H :   -0.009690
   6 C :    0.065119
   7 H :    0.012182
   8 H :    0.053448
   9 C :   -0.063345
  10 H :    0.018912
  11 H :    0.030311
  12 C :   -0.006403
  13 H :    0.034594
  14 H :    0.011112
  15 H :    0.017451
  16 S :    0.089149
  17 C :   -0.116365
  18 C :   -0.039372
  19 C :    0.002691
  20 C :   -0.157669
  21 H :    0.013735
  22 C :    0.036371
  23 H :    0.030324
  24 H :    0.053171
  25 C :   -0.086865
  26 H :    0.029272
  27 H :    0.013112
  28 C :   -0.008168
  29 H :    0.033381
  30 H :    0.020098
  31 H :    0.024714
  32 H :    0.038203
  33 H :    0.082290
Sum of atomic charges:   -0.0000000

LOEWDIN ATOMIC CHARGES
----------------------
   0 S :    0.407172
   1 C :   -0.189132
   2 C :   -0.062056
   3 C :   -0.049075
   4 C :   -0.198542
   5 H :    0.019786
   6 C :   -0.035631
   7 H :    0.028533
   8 H :    0.042488
   9 C :   -0.038731
  10 H :    0.020238
  11 H :    0.026179
  12 C :   -0.061583
  13 H :    0.031278
  14 H :    0.018880
  15 H :    0.024504
  16 S :    0.366902
  17 C :   -0.183846
  18 C :   -0.069000
  19 C :   -0.063358
  20 C :   -0.183605
  21 H :    0.024103
  22 C :   -0.039061
  23 H :    0.038216
  24 H :    0.040929
  25 C :   -0.031228
  26 H :    0.023866
  27 H :    0.010471
  28 C :   -0.052594
  29 H :    0.023191
  30 H :    0.022962
  31 H :    0.021075
  32 H :    0.020276
  33 H :    0.046390

  Mayer bond orders larger than 0.100000
B(  0-S ,  1-C ) :   1.1400 B(  0-S ,  4-C ) :   1.1480 B(  1-C ,  2-C ) :   1.6096
B(  1-C , 32-H ) :   0.9715 B(  2-C ,  3-C ) :   1.2384 B(  2-C ,  6-C ) :   1.0184
B(  3-C ,  4-C ) :   1.5746 B(  3-C ,  5-H ) :   0.9954 B(  4-C , 20-C ) :   1.0382
B(  6-C ,  7-H ) :   0.9396 B(  6-C ,  8-H ) :   0.9375 B(  6-C ,  9-C ) :   1.0686
B(  9-C , 10-H ) :   0.9541 B(  9-C , 11-H ) :   0.9548 B(  9-C , 12-C ) :   1.0974
B( 12-C , 13-H ) :   0.9708 B( 12-C , 14-H ) :   0.9633 B( 12-C , 15-H ) :   0.9634
B( 16-S , 17-C ) :   1.1230 B( 16-S , 20-C ) :   1.1256 B( 17-C , 18-C ) :   1.6430
B( 17-C , 33-H ) :   0.9645 B( 18-C , 19-C ) :   1.1957 B( 18-C , 21-H ) :   0.9848
B( 19-C , 20-C ) :   1.6256 B( 19-C , 22-C ) :   1.0591 B( 22-C , 23-H ) :   0.9283
B( 22-C , 24-H ) :   0.9290 B( 22-C , 25-C ) :   1.0413 B( 25-C , 26-H ) :   0.9630
B( 25-C , 27-H ) :   0.9644 B( 25-C , 28-C ) :   1.0672 B( 28-C , 29-H ) :   0.9776
B( 28-C , 30-H ) :   0.9763 B( 28-C , 31-H ) :   0.9823

Dispersion correction           -0.014300762
FINAL SINGLE POINT ENERGY     -1339.855804460089

DIPOLE MOMENT
-------------
                                X             Y             Z
Electronic contribution:    -23.45422     -11.71281     -15.39051
Nuclear contribution   :     24.01262      12.12048      15.67752
                        -----------------------------------------
Total Dipole Moment    :      0.55840       0.40767       0.28700
                        -----------------------------------------
Magnitude (a.u.)       :      0.74859
Magnitude (Debye)      :      1.90275

Rotational constants in cm-1:     0.016766     0.009433     0.006618
Rotational constants in MHz :   502.618283   282.793759   198.411646

                             ****ORCA TERMINATED NORMALLY****
TOTAL RUN TIME: 0 days 0 hours 0 minutes 27 seconds 990 msec
