                         Program Version 4.2.1 -  RELEASE  -
|  1> ! wB97X-D3 SP def2-SVP
|  2> %pal
|  3> nprocs 16
|  4> end
|  5>
|  6> * xyz 0 1
|  7> S 	 -7.52646 	 14.9647 	 82.2633
|  8> C 	 -7.1387 	 13.5109 	 83.0987
|  9> C 	 -6.08447 	 12.9081 	 82.4452
| 10> C 	 -5.49909 	 13.7253 	 81.4413
| 11> C 	 -6.09146 	 14.9478 	 81.1946
| 12> H 	 -4.57933 	 13.5928 	 80.9332
| 13> C 	 -5.40959 	 11.5468 	 82.8031
| 14> H 	 -5.33652 	 11.5134 	 83.9289
| 15> H 	 -4.37139 	 11.4364 	 82.5267
| 16> C 	 -6.02296 	 10.2243 	 82.3301
| 17> H 	 -5.61227 	 9.29497 	 82.6351
| 18> H 	 -7.05805 	 10.3131 	 82.7508
| 19> C 	 -6.09456 	 10.1288 	 80.8284
| 20> H 	 -5.10715 	 10.2089 	 80.332
| 21> H 	 -6.54274 	 9.17434 	 80.494
| 22> H 	 -6.65654 	 10.8633 	 80.3399
| 23> S 	 -6.97032 	 16.7601 	 79.3948
| 24> C 	 -5.91157 	 17.6596 	 78.3263
| 25> C 	 -4.5771 	 17.2191 	 78.5399
| 26> C 	 -4.52418 	 16.245 	 79.5798
| 27> C 	 -5.67944 	 15.8764 	 80.1554
| 28> H 	 -3.80139 	 17.5459 	 77.8803
| 29> C 	 -3.09144 	 15.7984 	 79.8977
| 30> H 	 -3.02275 	 15.119 	 80.7755
| 31> H 	 -2.55915 	 16.6949 	 80.2684
| 32> C 	 -2.4142 	 15.1042 	 78.6393
| 33> H 	 -2.24664 	 15.8361 	 77.8076
| 34> H 	 -2.94245 	 14.2643 	 78.2298
| 35> C 	 -0.9866 	 14.5624 	 78.9656
| 36> H 	 -0.991139 	 13.9178 	 79.8555
| 37> H 	 -0.447001 	 15.4714 	 79.1749
| 38> H 	 -0.497257 	 14.0315 	 78.1534
| 39> H 	 -7.69811 	 13.0225 	 83.9055
| 40> H 	 -6.27282 	 18.3001 	 77.5683
| 41> *
| 42>
| 43>                          ****END OF INPUT****

CARTESIAN COORDINATES (ANGSTROEM)
---------------------------------
  S     -7.526460   14.964700   82.263300
  C     -7.138700   13.510900   83.098700
  C     -6.084470   12.908100   82.445200
  C     -5.499090   13.725300   81.441300
  C     -6.091460   14.947800   81.194600
  H     -4.579330   13.592800   80.933200
  C     -5.409590   11.546800   82.803100
  H     -5.336520   11.513400   83.928900
  H     -4.371390   11.436400   82.526700
  C     -6.022960   10.224300   82.330100
  H     -5.612270    9.294970   82.635100
  H     -7.058050   10.313100   82.750800
  C     -6.094560   10.128800   80.828400
  H     -5.107150   10.208900   80.332000
  H     -6.542740    9.174340   80.494000
  H     -6.656540   10.863300   80.339900
  S     -6.970320   16.760100   79.394800
  C     -5.911570   17.659600   78.326300
  C     -4.577100   17.219100   78.539900
  C     -4.524180   16.245000   79.579800
  C     -5.679440   15.876400   80.155400
  H     -3.801390   17.545900   77.880300
  C     -3.091440   15.798400   79.897700
  H     -3.022750   15.119000   80.775500
  H     -2.559150   16.694900   80.268400
  C     -2.414200   15.104200   78.639300
  H     -2.246640   15.836100   77.807600
  H     -2.942450   14.264300   78.229800
  C     -0.986600   14.562400   78.965600
  H     -0.991139   13.917800   79.855500
  H     -0.447001   15.471400   79.174900
  H     -0.497257   14.031500   78.153400
  H     -7.698110   13.022500   83.905500
  H     -6.272820   18.300100   77.568300

 Total Charge           Charge          ....    0
 Multiplicity           Mult            ....    1
 Number of Electrons    NEL             ....  134
 Basis Dimension        Dim             ....  322

ORBITAL ENERGIES
----------------

  NO   OCC          E(Eh)            E(eV)
   0   2.0000     -88.970035     -2420.9977
   1   2.0000     -88.963008     -2420.8065
   2   2.0000     -10.335772      -281.2507
   3   2.0000     -10.329729      -281.0862
   4   2.0000     -10.322992      -280.9029
   5   2.0000     -10.321042      -280.8498
   6   2.0000     -10.307598      -280.4840
   7   2.0000     -10.303714      -280.3783
   8   2.0000     -10.303291      -280.3668
   9   2.0000     -10.298926      -280.2480
  10   2.0000     -10.296526      -280.1827
  11   2.0000     -10.295775      -280.1623
  12   2.0000     -10.290059      -280.0067
  13   2.0000     -10.284509      -279.8557
  14   2.0000     -10.278959      -279.7047
  15   2.0000     -10.268940      -279.4321
  16   2.0000      -8.084189      -219.9820
  17   2.0000      -8.078352      -219.8231
  18   2.0000      -6.042897      -164.4356
  19   2.0000      -6.038598      -164.3186
  20   2.0000      -6.036855      -164.2712
  21   2.0000      -6.034891      -164.2177
  22   2.0000      -6.032658      -164.1570
  23   2.0000      -6.029182      -164.0624
  24   2.0000      -1.012334       -27.5470
  25   2.0000      -0.990347       -26.9487
  26   2.0000      -0.909364       -24.7451
  27   2.0000      -0.903193       -24.5771
  28   2.0000      -0.877513       -23.8783
  29   2.0000      -0.852704       -23.2032
  30   2.0000      -0.844016       -22.9669
  31   2.0000      -0.818002       -22.2590
  32   2.0000      -0.779284       -21.2054
  33   2.0000      -0.773928       -21.0596
  34   2.0000      -0.707493       -19.2519
  35   2.0000      -0.702530       -19.1168
  36   2.0000      -0.695840       -18.9348
  37   2.0000      -0.674221       -18.3465
  38   2.0000      -0.645130       -17.5549
  39   2.0000      -0.615924       -16.7601
  40   2.0000      -0.596329       -16.2269
  41   2.0000      -0.579627       -15.7725
  42   2.0000      -0.563543       -15.3348
  43   2.0000      -0.556433       -15.1413
  44   2.0000      -0.545667       -14.8484
  45   2.0000      -0.529942       -14.4205
  46   2.0000      -0.521644       -14.1946
  47   2.0000      -0.518050       -14.0969
  48   2.0000      -0.507750       -13.8166
  49   2.0000      -0.501549       -13.6478
  50   2.0000      -0.488215       -13.2850
  51   2.0000      -0.480816       -13.0837
  52   2.0000      -0.474532       -12.9127
  53   2.0000      -0.464435       -12.6379
  54   2.0000      -0.462657       -12.5895
  55   2.0000      -0.447517       -12.1775
  56   2.0000      -0.439689       -11.9645
  57   2.0000      -0.434280       -11.8173
  58   2.0000      -0.426023       -11.5927
  59   2.0000      -0.423620       -11.5273
  60   2.0000      -0.419709       -11.4209
  61   2.0000      -0.409560       -11.1447
  62   2.0000      -0.404458       -11.0059
  63   2.0000      -0.364823        -9.9273
  64   2.0000      -0.332457        -9.0466
  65   2.0000      -0.328883        -8.9494
  66   2.0000      -0.291274        -7.9260
  67   0.0000       0.023042         0.6270
  68   0.0000       0.072611         1.9758
  69   0.0000       0.108233         2.9452
  70   0.0000       0.119706         3.2574
  71   0.0000       0.126935         3.4541

MULLIKEN ATOMIC CHARGES
-----------------------
   0 S :    0.115834
   1 C :   -0.108593
   2 C :   -0.057856
   3 C :    0.016529
   4 C :   -0.119898
   5 H :   -0.008696
   6 C :    0.022263
   7 H :    0.034834
   8 H :    0.017685
   9 C :   -0.039316
  10 H :    0.029143
  11 H :    0.021303
  12 C :   -0.057268
  13 H :    0.019178
  14 H :    0.029685
  15 H :    0.024034
  16 S :    0.083151
  17 C :   -0.081276
  18 C :   -0.033081
  19 C :   -0.044363
  20 C :   -0.117268
  21 H :    0.023559
  22 C :    0.024458
  23 H :    0.021180
  24 H :    0.045236
  25 C :   -0.100315
  26 H :    0.037789
  27 H :    0.037503
  28 C :   -0.049726
  29 H :    0.031792
  30 H :    0.024537
  31 H :    0.040696
  32 H :    0.063877
  33 H :    0.053390
Sum of atomic charges:   -0.0000000

LOEWDIN ATOMIC CHARGES
----------------------
   0 S :    0.407026
   1 C :   -0.200765
   2 C :   -0.067429
   3 C :   -0.060989
   4 C :   -0.183144
   5 H :    0.022855
   6 C :   -0.036615
   7 H :    0.035330
   8 H :    0.023779
   9 C :   -0.042397
  10 H :    0.022903
  11 H :    0.025607
  12 C :   -0.069021
  13 H :    0.024392
  14 H :    0.028226
  15 H :    0.016868
  16 S :    0.407397
  17 C :   -0.170240
  18 C :   -0.063125
  19 C :   -0.066926
  20 C :   -0.193259
  21 H :    0.030129
  22 C :   -0.032094
  23 H :    0.025859
  24 H :    0.037765
  25 C :   -0.037533
  26 H :    0.026302
  27 H :    0.021547
  28 C :   -0.066985
  29 H :    0.022853
  30 H :    0.022330
  31 H :    0.025862
  32 H :    0.041400
  33 H :    0.022092

  Mayer bond orders larger than 0.100000
B(  0-S ,  1-C ) :   1.1488 B(  0-S ,  4-C ) :   1.1311 B(  1-C ,  2-C ) :   1.5898
B(  1-C ,  4-C ) :   0.1016 B(  1-C , 32-H ) :   0.9668 B(  2-C ,  3-C ) :   1.2536
B(  2-C ,  6-C ) :   1.0032 B(  3-C ,  4-C ) :   1.5633 B(  3-C ,  5-H ) :   1.0012
B(  4-C , 20-C ) :   1.0728 B(  6-C ,  7-H ) :   0.9475 B(  6-C ,  8-H ) :   0.9532
B(  6-C ,  9-C ) :   1.0676 B(  9-C , 10-H ) :   0.9591 B(  9-C , 11-H ) :   0.9536
B(  9-C , 12-C ) :   1.0801 B( 12-C , 13-H ) :   0.9719 B( 12-C , 14-H ) :   0.9733
B( 12-C , 15-H ) :   0.9748 B( 16-S , 17-C ) :   1.1741 B( 16-S , 20-C ) :   1.1161
B( 17-C , 18-C ) :   1.5747 B( 17-C , 33-H ) :   0.9765 B( 18-C , 19-C ) :   1.2374
B( 18-C , 21-H ) :   0.9979 B( 19-C , 20-C ) :   1.6304 B( 19-C , 22-C ) :   1.0268
B( 22-C , 23-H ) :   0.9460 B( 22-C , 24-H ) :   0.9396 B( 22-C , 25-C ) :   1.0405
B( 25-C , 26-H ) :   0.9575 B( 25-C , 27-H ) :   0.9633 B( 25-C , 28-C ) :   1.0770
B( 28-C , 29-H ) :   0.9764 B( 28-C , 30-H ) :   0.9781 B( 28-C , 31-H ) :   0.9763

Dispersion correction           -0.013863872
FINAL SINGLE POINT ENERGY     -1339.861928275250

DIPOLE MOMENT
-------------
                                X             Y             Z
Electronic contribution:    -21.24699      20.51986       3.50760
Nuclear contribution   :     21.84578     -20.84611      -3.69586
                        -----------------------------------------
Total Dipole Moment    :      0.59879      -0.32625      -0.18827
                        -----------------------------------------
Magnitude (a.u.)       :      0.70741
Magnitude (Debye)      :      1.79810

Rotational constants in cm-1:     0.016514     0.009249     0.006636
Rotational constants in MHz :   495.075728   277.284740   198.933112

                             ****ORCA TERMINATED NORMALLY****
TOTAL RUN TIME: 0 days 0 hours 0 minutes 34 seconds 640 msec
