                         Program Version 4.2.1 -  RELEASE  -
|  1> ! wB97X-D3 SP def2-SVP
|  2> %pal
|  3> nprocs 16
|  4> end
|  5>
|  6> * xyz 0 1
|  7> S 	 -88.914 	 52.1972 	 130.586
|  8> C 	 -88.5187 	 53.9146 	 130.759
|  9> C 	 -87.1782 	 54.1669 	 130.662
| 10> C 	 -86.4368 	 52.9802 	 130.377
| 11> C 	 -87.1305 	 51.8495 	 130.511
| 12> H 	 -85.3981 	 52.9361 	 130.367
| 13> C 	 -86.6238 	 55.6082 	 130.706
| 14> H 	 -87.503 	 56.3079 	 130.801
| 15> H 	 -86.2042 	 55.8077 	 129.737
| 16> C 	 -85.6922 	 56.0035 	 131.845
| 17> H 	 -85.2339 	 56.9722 	 131.69
| 18> H 	 -86.1933 	 56.1372 	 132.823
| 19> C 	 -84.5002 	 55.0977 	 132.08
| 20> H 	 -83.9527 	 54.8692 	 131.162
| 21> H 	 -83.8262 	 55.5492 	 132.791
| 22> H 	 -84.8579 	 54.148 	 132.461
| 23> S 	 -87.0255 	 49.4765 	 128.992
| 24> C 	 -85.5952 	 48.4788 	 129.064
| 25> C 	 -84.8615 	 48.9101 	 130.116
| 26> C 	 -85.4537 	 49.957 	 130.937
| 27> C 	 -86.5139 	 50.5395 	 130.306
| 28> H 	 -83.8656 	 48.4737 	 130.302
| 29> C 	 -84.6849 	 50.4693 	 132.137
| 30> H 	 -85.1255 	 51.3482 	 132.494
| 31> H 	 -83.708 	 50.7834 	 131.65
| 32> C 	 -84.3263 	 49.3472 	 133.201
| 33> H 	 -83.5491 	 49.6841 	 133.856
| 34> H 	 -83.982 	 48.3725 	 132.749
| 35> C 	 -85.487 	 48.812 	 134.09
| 36> H 	 -86.3908 	 48.5827 	 133.464
| 37> H 	 -85.8068 	 49.6334 	 134.763
| 38> H 	 -85.2553 	 47.8612 	 134.506
| 39> H 	 -89.2141 	 54.6983 	 130.802
| 40> H 	 -85.3384 	 47.7645 	 128.313
| 41> *
| 42>
| 43>                          ****END OF INPUT****

CARTESIAN COORDINATES (ANGSTROEM)
---------------------------------
  S    -88.914000   52.197200  130.586000
  C    -88.518700   53.914600  130.759000
  C    -87.178200   54.166900  130.662000
  C    -86.436800   52.980200  130.377000
  C    -87.130500   51.849500  130.511000
  H    -85.398100   52.936100  130.367000
  C    -86.623800   55.608200  130.706000
  H    -87.503000   56.307900  130.801000
  H    -86.204200   55.807700  129.737000
  C    -85.692200   56.003500  131.845000
  H    -85.233900   56.972200  131.690000
  H    -86.193300   56.137200  132.823000
  C    -84.500200   55.097700  132.080000
  H    -83.952700   54.869200  131.162000
  H    -83.826200   55.549200  132.791000
  H    -84.857900   54.148000  132.461000
  S    -87.025500   49.476500  128.992000
  C    -85.595200   48.478800  129.064000
  C    -84.861500   48.910100  130.116000
  C    -85.453700   49.957000  130.937000
  C    -86.513900   50.539500  130.306000
  H    -83.865600   48.473700  130.302000
  C    -84.684900   50.469300  132.137000
  H    -85.125500   51.348200  132.494000
  H    -83.708000   50.783400  131.650000
  C    -84.326300   49.347200  133.201000
  H    -83.549100   49.684100  133.856000
  H    -83.982000   48.372500  132.749000
  C    -85.487000   48.812000  134.090000
  H    -86.390800   48.582700  133.464000
  H    -85.806800   49.633400  134.763000
  H    -85.255300   47.861200  134.506000
  H    -89.214100   54.698300  130.802000
  H    -85.338400   47.764500  128.313000

 Total Charge           Charge          ....    0
 Multiplicity           Mult            ....    1
 Number of Electrons    NEL             ....  134
 Basis Dimension        Dim             ....  322

ORBITAL ENERGIES
----------------

  NO   OCC          E(Eh)            E(eV)
   0   2.0000     -88.967038     -2420.9162
   1   2.0000     -88.955873     -2420.6124
   2   2.0000     -10.332134      -281.1517
   3   2.0000     -10.326418      -280.9961
   4   2.0000     -10.314942      -280.6838
   5   2.0000     -10.312501      -280.6174
   6   2.0000     -10.303539      -280.3736
   7   2.0000     -10.301627      -280.3215
   8   2.0000     -10.299315      -280.2586
   9   2.0000     -10.298357      -280.2325
  10   2.0000     -10.293658      -280.1047
  11   2.0000     -10.293586      -280.1027
  12   2.0000     -10.288845      -279.9737
  13   2.0000     -10.286728      -279.9161
  14   2.0000     -10.276600      -279.6405
  15   2.0000     -10.275493      -279.6104
  16   2.0000      -8.080553      -219.8830
  17   2.0000      -8.071201      -219.6285
  18   2.0000      -6.039238      -164.3360
  19   2.0000      -6.035492      -164.2341
  20   2.0000      -6.030930      -164.1100
  21   2.0000      -6.029857      -164.0807
  22   2.0000      -6.025662      -163.9666
  23   2.0000      -6.021701      -163.8588
  24   2.0000      -1.007205       -27.4074
  25   2.0000      -0.985301       -26.8114
  26   2.0000      -0.911683       -24.8082
  27   2.0000      -0.901393       -24.5282
  28   2.0000      -0.876179       -23.8421
  29   2.0000      -0.848636       -23.0926
  30   2.0000      -0.841802       -22.9066
  31   2.0000      -0.822875       -22.3916
  32   2.0000      -0.783846       -21.3295
  33   2.0000      -0.774223       -21.0677
  34   2.0000      -0.707211       -19.2442
  35   2.0000      -0.699370       -19.0308
  36   2.0000      -0.696990       -18.9661
  37   2.0000      -0.655916       -17.8484
  38   2.0000      -0.646612       -17.5952
  39   2.0000      -0.618826       -16.8391
  40   2.0000      -0.599672       -16.3179
  41   2.0000      -0.573081       -15.5943
  42   2.0000      -0.551952       -15.0194
  43   2.0000      -0.547043       -14.8858
  44   2.0000      -0.543723       -14.7955
  45   2.0000      -0.538212       -14.6455
  46   2.0000      -0.526407       -14.3243
  47   2.0000      -0.517106       -14.0712
  48   2.0000      -0.508302       -13.8316
  49   2.0000      -0.495614       -13.4863
  50   2.0000      -0.490016       -13.3340
  51   2.0000      -0.481618       -13.1055
  52   2.0000      -0.469844       -12.7851
  53   2.0000      -0.469678       -12.7806
  54   2.0000      -0.463358       -12.6086
  55   2.0000      -0.442875       -12.0512
  56   2.0000      -0.441599       -12.0165
  57   2.0000      -0.437515       -11.9054
  58   2.0000      -0.431156       -11.7324
  59   2.0000      -0.425187       -11.5699
  60   2.0000      -0.417748       -11.3675
  61   2.0000      -0.412200       -11.2165
  62   2.0000      -0.406577       -11.0635
  63   2.0000      -0.350596        -9.5402
  64   2.0000      -0.332103        -9.0370
  65   2.0000      -0.320996        -8.7347
  66   2.0000      -0.301319        -8.1993
  67   0.0000       0.033542         0.9127
  68   0.0000       0.067270         1.8305
  69   0.0000       0.108748         2.9592
  70   0.0000       0.120959         3.2915
  71   0.0000       0.126749         3.4490

MULLIKEN ATOMIC CHARGES
-----------------------
   0 S :    0.097941
   1 C :   -0.088606
   2 C :   -0.095452
   3 C :    0.056103
   4 C :   -0.144081
   5 H :   -0.006967
   6 C :    0.073743
   7 H :    0.024046
   8 H :    0.036428
   9 C :   -0.063275
  10 H :    0.022254
  11 H :    0.029495
  12 C :   -0.068279
  13 H :    0.030653
  14 H :    0.033558
  15 H :    0.034838
  16 S :    0.078659
  17 C :   -0.073869
  18 C :   -0.057768
  19 C :   -0.052624
  20 C :   -0.143766
  21 H :    0.033299
  22 C :    0.073174
  23 H :    0.017666
  24 H :    0.044754
  25 C :   -0.088573
  26 H :    0.031383
  27 H :    0.035379
  28 C :   -0.063689
  29 H :    0.036988
  30 H :    0.040341
  31 H :    0.033643
  32 H :    0.025233
  33 H :    0.057370
Sum of atomic charges:    0.0000000

LOEWDIN ATOMIC CHARGES
----------------------
   0 S :    0.359583
   1 C :   -0.170673
   2 C :   -0.062825
   3 C :   -0.047400
   4 C :   -0.163978
   5 H :    0.022471
   6 C :   -0.028715
   7 H :    0.037778
   8 H :    0.031001
   9 C :   -0.045718
  10 H :    0.024408
  11 H :    0.028207
  12 C :   -0.066251
  13 H :    0.021644
  14 H :    0.026409
  15 H :    0.020128
  16 S :    0.380504
  17 C :   -0.176835
  18 C :   -0.076269
  19 C :   -0.059512
  20 C :   -0.188742
  21 H :    0.032599
  22 C :   -0.027041
  23 H :    0.018638
  24 H :    0.044286
  25 C :   -0.041148
  26 H :    0.019919
  27 H :    0.030710
  28 C :   -0.070949
  29 H :    0.031457
  30 H :    0.026843
  31 H :    0.021598
  32 H :    0.017388
  33 H :    0.030488

  Mayer bond orders larger than 0.100000
B(  0-S ,  1-C ) :   1.1196 B(  0-S ,  4-C ) :   1.1004 B(  1-C ,  2-C ) :   1.6727
B(  1-C , 32-H ) :   0.9654 B(  2-C ,  3-C ) :   1.1977 B(  2-C ,  6-C ) :   1.0109
B(  3-C ,  4-C ) :   1.6381 B(  3-C ,  5-H ) :   0.9930 B(  4-C , 20-C ) :   1.0429
B(  6-C ,  7-H ) :   0.9394 B(  6-C ,  8-H ) :   0.9425 B(  6-C ,  9-C ) :   1.0749
B(  9-C , 10-H ) :   0.9533 B(  9-C , 11-H ) :   0.9529 B(  9-C , 12-C ) :   1.0934
B( 12-C , 13-H ) :   0.9718 B( 12-C , 14-H ) :   0.9700 B( 12-C , 15-H ) :   0.9701
B( 16-S , 17-C ) :   1.1335 B( 16-S , 20-C ) :   1.1169 B( 17-C , 18-C ) :   1.6451
B( 17-C , 33-H ) :   0.9755 B( 18-C , 19-C ) :   1.1912 B( 18-C , 21-H ) :   0.9816
B( 19-C , 20-C ) :   1.6200 B( 19-C , 22-C ) :   1.0468 B( 22-C , 23-H ) :   0.9402
B( 22-C , 24-H ) :   0.9364 B( 22-C , 25-C ) :   1.0470 B( 25-C , 26-H ) :   0.9600
B( 25-C , 27-H ) :   0.9630 B( 25-C , 28-C ) :   1.0695 B( 28-C , 29-H ) :   0.9754
B( 28-C , 30-H ) :   0.9765 B( 28-C , 31-H ) :   0.9765

Dispersion correction           -0.014845039
FINAL SINGLE POINT ENERGY     -1339.866479372756

DIPOLE MOMENT
-------------
                                X             Y             Z
Electronic contribution:    -18.02189      -9.59097     -17.39580
Nuclear contribution   :     18.76038      10.00575      17.59887
                        -----------------------------------------
Total Dipole Moment    :      0.73849       0.41478       0.20306
                        -----------------------------------------
Magnitude (a.u.)       :      0.87100
Magnitude (Debye)      :      2.21391

Rotational constants in cm-1:     0.017365     0.009322     0.007378
Rotational constants in MHz :   520.576917   279.461216   221.183355

                             ****ORCA TERMINATED NORMALLY****
TOTAL RUN TIME: 0 days 0 hours 0 minutes 33 seconds 523 msec
