                         Program Version 4.2.1 -  RELEASE  -
|  1> ! wB97X-D3 SP def2-SVP
|  2> %pal
|  3> nprocs 16
|  4> end
|  5>
|  6> * xyz 0 1
|  7> S 	 -65.7632 	 40.9087 	 121.582
|  8> C 	 -67.2484 	 40.4063 	 120.841
|  9> C 	 -67.9593 	 39.5702 	 121.706
| 10> C 	 -67.2575 	 39.3375 	 122.887
| 11> C 	 -66.1157 	 40.042 	 123.018
| 12> H 	 -67.4592 	 38.6201 	 123.66
| 13> C 	 -69.2746 	 38.9219 	 121.229
| 14> H 	 -69.0905 	 38.707 	 120.209
| 15> H 	 -69.9501 	 39.7711 	 121.378
| 16> C 	 -69.8337 	 37.7078 	 121.97
| 17> H 	 -69.1471 	 36.857 	 121.943
| 18> H 	 -69.8406 	 37.8333 	 123.038
| 19> C 	 -71.2222 	 37.1352 	 121.476
| 20> H 	 -71.6516 	 36.2694 	 122.016
| 21> H 	 -72.0099 	 37.8596 	 121.533
| 22> H 	 -71.234 	 37.0641 	 120.391
| 23> S 	 -63.7881 	 39.1171 	 124.06
| 24> C 	 -63.4797 	 39.3148 	 125.818
| 25> C 	 -64.5982 	 39.7945 	 126.505
| 26> C 	 -65.6959 	 40.0097 	 125.562
| 27> C 	 -65.3433 	 39.9025 	 124.217
| 28> H 	 -64.6274 	 39.9158 	 127.586
| 29> C 	 -66.9064 	 40.7921 	 126.022
| 30> H 	 -67.2192 	 41.4821 	 125.23
| 31> H 	 -66.6849 	 41.5721 	 126.786
| 32> C 	 -68.0937 	 39.9056 	 126.44
| 33> H 	 -67.6729 	 39.1727 	 127.163
| 34> H 	 -68.4218 	 39.1271 	 125.685
| 35> C 	 -69.2677 	 40.7076 	 126.954
| 36> H 	 -69.1025 	 41.272 	 127.844
| 37> H 	 -70.0998 	 40.0342 	 127.21
| 38> H 	 -69.7057 	 41.3837 	 126.193
| 39> H 	 -67.6793 	 40.8103 	 119.968
| 40> H 	 -62.5097 	 39.1712 	 126.294
| 41> *
| 42>
| 43>                          ****END OF INPUT****

CARTESIAN COORDINATES (ANGSTROEM)
---------------------------------
  S    -65.763200   40.908700  121.582000
  C    -67.248400   40.406300  120.841000
  C    -67.959300   39.570200  121.706000
  C    -67.257500   39.337500  122.887000
  C    -66.115700   40.042000  123.018000
  H    -67.459200   38.620100  123.660000
  C    -69.274600   38.921900  121.229000
  H    -69.090500   38.707000  120.209000
  H    -69.950100   39.771100  121.378000
  C    -69.833700   37.707800  121.970000
  H    -69.147100   36.857000  121.943000
  H    -69.840600   37.833300  123.038000
  C    -71.222200   37.135200  121.476000
  H    -71.651600   36.269400  122.016000
  H    -72.009900   37.859600  121.533000
  H    -71.234000   37.064100  120.391000
  S    -63.788100   39.117100  124.060000
  C    -63.479700   39.314800  125.818000
  C    -64.598200   39.794500  126.505000
  C    -65.695900   40.009700  125.562000
  C    -65.343300   39.902500  124.217000
  H    -64.627400   39.915800  127.586000
  C    -66.906400   40.792100  126.022000
  H    -67.219200   41.482100  125.230000
  H    -66.684900   41.572100  126.786000
  C    -68.093700   39.905600  126.440000
  H    -67.672900   39.172700  127.163000
  H    -68.421800   39.127100  125.685000
  C    -69.267700   40.707600  126.954000
  H    -69.102500   41.272000  127.844000
  H    -70.099800   40.034200  127.210000
  H    -69.705700   41.383700  126.193000
  H    -67.679300   40.810300  119.968000
  H    -62.509700   39.171200  126.294000

 Total Charge           Charge          ....    0
 Multiplicity           Mult            ....    1
 Number of Electrons    NEL             ....  134
 Basis Dimension        Dim             ....  322

ORBITAL ENERGIES
----------------

  NO   OCC          E(Eh)            E(eV)
   0   2.0000     -88.970904     -2421.0214
   1   2.0000     -88.963214     -2420.8121
   2   2.0000     -10.325884      -280.9816
   3   2.0000     -10.321718      -280.8682
   4   2.0000     -10.319246      -280.8010
   5   2.0000     -10.310396      -280.5601
   6   2.0000     -10.304317      -280.3947
   7   2.0000     -10.301425      -280.3160
   8   2.0000     -10.301249      -280.3112
   9   2.0000     -10.295232      -280.1475
  10   2.0000     -10.292029      -280.0604
  11   2.0000     -10.289803      -279.9998
  12   2.0000     -10.288435      -279.9625
  13   2.0000     -10.284359      -279.8516
  14   2.0000     -10.283155      -279.8189
  15   2.0000     -10.276656      -279.6420
  16   2.0000      -8.086026      -220.0320
  17   2.0000      -8.077551      -219.8013
  18   2.0000      -6.044461      -164.4782
  19   2.0000      -6.040333      -164.3658
  20   2.0000      -6.036992      -164.2749
  21   2.0000      -6.036154      -164.2521
  22   2.0000      -6.032165      -164.1436
  23   2.0000      -6.028180      -164.0351
  24   2.0000      -1.015157       -27.6238
  25   2.0000      -0.981395       -26.7051
  26   2.0000      -0.909672       -24.7534
  27   2.0000      -0.903297       -24.5800
  28   2.0000      -0.874273       -23.7902
  29   2.0000      -0.852107       -23.1870
  30   2.0000      -0.845069       -22.9955
  31   2.0000      -0.817830       -22.2543
  32   2.0000      -0.783402       -21.3175
  33   2.0000      -0.767710       -20.8904
  34   2.0000      -0.717924       -19.5357
  35   2.0000      -0.701356       -19.0849
  36   2.0000      -0.693046       -18.8587
  37   2.0000      -0.661923       -18.0118
  38   2.0000      -0.645685       -17.5700
  39   2.0000      -0.619422       -16.8553
  40   2.0000      -0.593949       -16.1622
  41   2.0000      -0.569802       -15.5051
  42   2.0000      -0.567271       -15.4362
  43   2.0000      -0.550907       -14.9909
  44   2.0000      -0.534075       -14.5329
  45   2.0000      -0.519296       -14.1308
  46   2.0000      -0.516934       -14.0665
  47   2.0000      -0.510211       -13.8835
  48   2.0000      -0.502689       -13.6789
  49   2.0000      -0.499167       -13.5830
  50   2.0000      -0.495630       -13.4868
  51   2.0000      -0.485815       -13.2197
  52   2.0000      -0.470345       -12.7987
  53   2.0000      -0.466493       -12.6939
  54   2.0000      -0.456666       -12.4265
  55   2.0000      -0.454682       -12.3725
  56   2.0000      -0.446379       -12.1466
  57   2.0000      -0.440501       -11.9866
  58   2.0000      -0.435659       -11.8549
  59   2.0000      -0.422296       -11.4912
  60   2.0000      -0.416476       -11.3329
  61   2.0000      -0.413347       -11.2477
  62   2.0000      -0.398983       -10.8569
  63   2.0000      -0.344200        -9.3662
  64   2.0000      -0.332441        -9.0462
  65   2.0000      -0.326934        -8.8963
  66   2.0000      -0.295598        -8.0436
  67   0.0000       0.028899         0.7864
  68   0.0000       0.067697         1.8421
  69   0.0000       0.112462         3.0603
  70   0.0000       0.118903         3.2355
  71   0.0000       0.130645         3.5550

MULLIKEN ATOMIC CHARGES
-----------------------
   0 S :    0.135554
   1 C :   -0.116909
   2 C :   -0.093652
   3 C :    0.010666
   4 C :   -0.140065
   5 H :    0.012342
   6 C :    0.100056
   7 H :    0.032354
   8 H :    0.044741
   9 C :   -0.082765
  10 H :    0.026852
  11 H :    0.020518
  12 C :   -0.038324
  13 H :    0.049281
  14 H :    0.008307
  15 H :    0.022344
  16 S :    0.093738
  17 C :   -0.098741
  18 C :   -0.022605
  19 C :   -0.014088
  20 C :   -0.160998
  21 H :    0.033347
  22 C :    0.014640
  23 H :    0.024502
  24 H :    0.027861
  25 C :   -0.096388
  26 H :    0.019841
  27 H :    0.027474
  28 C :   -0.024869
  29 H :    0.027072
  30 H :    0.026871
  31 H :    0.035007
  32 H :    0.034000
  33 H :    0.062035
Sum of atomic charges:    0.0000000

LOEWDIN ATOMIC CHARGES
----------------------
   0 S :    0.438435
   1 C :   -0.202181
   2 C :   -0.055875
   3 C :   -0.061022
   4 C :   -0.218841
   5 H :    0.029923
   6 C :   -0.026368
   7 H :    0.029086
   8 H :    0.040379
   9 C :   -0.046161
  10 H :    0.025644
  11 H :    0.020293
  12 C :   -0.071303
  13 H :    0.035033
  14 H :    0.019293
  15 H :    0.026387
  16 S :    0.383550
  17 C :   -0.173911
  18 C :   -0.063106
  19 C :   -0.060821
  20 C :   -0.187398
  21 H :    0.036715
  22 C :   -0.040707
  23 H :    0.029344
  24 H :    0.033921
  25 C :   -0.053283
  26 H :    0.023950
  27 H :    0.027591
  28 C :   -0.069179
  29 H :    0.020791
  30 H :    0.029369
  31 H :    0.030159
  32 H :    0.020888
  33 H :    0.029403

  Mayer bond orders larger than 0.100000
B(  0-S ,  1-C ) :   1.1523 B(  0-S ,  4-C ) :   1.1608 B(  1-C ,  2-C ) :   1.5849
B(  1-C , 32-H ) :   0.9758 B(  2-C ,  3-C ) :   1.2712 B(  2-C ,  6-C ) :   0.9825
B(  3-C ,  4-C ) :   1.5429 B(  3-C ,  5-H ) :   0.9991 B(  4-C , 20-C ) :   1.0322
B(  6-C ,  7-H ) :   0.9473 B(  6-C ,  8-H ) :   0.9314 B(  6-C ,  9-C ) :   1.0812
B(  9-C , 10-H ) :   0.9552 B(  9-C , 11-H ) :   0.9490 B(  9-C , 12-C ) :   1.0749
B( 12-C , 13-H ) :   0.9757 B( 12-C , 14-H ) :   0.9729 B( 12-C , 15-H ) :   0.9734
B( 16-S , 17-C ) :   1.1376 B( 16-S , 20-C ) :   1.1354 B( 17-C , 18-C ) :   1.6310
B( 17-C , 33-H ) :   0.9663 B( 18-C , 19-C ) :   1.2071 B( 18-C , 21-H ) :   0.9885
B( 19-C , 20-C ) :   1.6162 B( 19-C , 22-C ) :   1.0395 B( 22-C , 23-H ) :   0.9445
B( 22-C , 24-H ) :   0.9538 B( 22-C , 25-C ) :   1.0353 B( 25-C , 26-H ) :   0.9536
B( 25-C , 27-H ) :   0.9508 B( 25-C , 28-C ) :   1.0845 B( 28-C , 29-H ) :   0.9737
B( 28-C , 30-H ) :   0.9703 B( 28-C , 31-H ) :   0.9720

Dispersion correction           -0.014420763
FINAL SINGLE POINT ENERGY     -1339.862055461238

DIPOLE MOMENT
-------------
                                X             Y             Z
Electronic contribution:     30.08086       6.19962      -7.85932
Nuclear contribution   :    -30.71052      -6.23090       8.09394
                        -----------------------------------------
Total Dipole Moment    :     -0.62966      -0.03128       0.23462
                        -----------------------------------------
Magnitude (a.u.)       :      0.67268
Magnitude (Debye)      :      1.70982

Rotational constants in cm-1:     0.016313     0.009293     0.007045
Rotational constants in MHz :   489.057163   278.591908   211.200920

                             ****ORCA TERMINATED NORMALLY****
TOTAL RUN TIME: 0 days 0 hours 0 minutes 32 seconds 421 msec
