                         Program Version 4.2.1 -  RELEASE  -
|  1> ! wB97X-D3 SP def2-SVP
|  2> %pal
|  3> nprocs 16
|  4> end
|  5>
|  6> * xyz 0 1
|  7> S 	 -34.6742 	 57.3076 	 103.791
|  8> C 	 -35.0064 	 55.9361 	 102.83
|  9> C 	 -33.8726 	 55.161 	 102.68
| 10> C 	 -32.6566 	 55.8699 	 103.109
| 11> C 	 -32.9279 	 57.0936 	 103.579
| 12> H 	 -31.6741 	 55.3727 	 103.034
| 13> C 	 -33.8167 	 53.797 	 102.063
| 14> H 	 -34.8366 	 53.4678 	 102.131
| 15> H 	 -33.1962 	 53.1974 	 102.742
| 16> C 	 -33.3393 	 53.9053 	 100.53
| 17> H 	 -32.3773 	 54.3381 	 100.448
| 18> H 	 -33.1058 	 52.9538 	 100.204
| 19> C 	 -34.3935 	 54.4662 	 99.5076
| 20> H 	 -34.5819 	 55.5358 	 99.7538
| 21> H 	 -34.0411 	 54.4396 	 98.4763
| 22> H 	 -35.2886 	 53.8362 	 99.5221
| 23> S 	 -32.1012 	 57.6825 	 106.177
| 24> C 	 -30.7989 	 58.8735 	 106.442
| 25> C 	 -30.1755 	 59.1484 	 105.252
| 26> C 	 -30.7765 	 58.5092 	 104.112
| 27> C 	 -31.9448 	 57.843 	 104.431
| 28> H 	 -29.229 	 59.7659 	 105.166
| 29> C 	 -30.3065 	 58.7645 	 102.648
| 30> H 	 -29.5671 	 59.6147 	 102.773
| 31> H 	 -31.0789 	 59.2603 	 102.092
| 32> C 	 -29.8154 	 57.5594 	 101.781
| 33> H 	 -30.6082 	 56.8531 	 101.809
| 34> H 	 -29.0438 	 56.9875 	 102.362
| 35> C 	 -29.5106 	 57.8251 	 100.271
| 36> H 	 -30.3387 	 58.2428 	 99.7574
| 37> H 	 -29.2389 	 56.981 	 99.6944
| 38> H 	 -28.804 	 58.5328 	 100.047
| 39> H 	 -35.9323 	 55.5125 	 102.682
| 40> H 	 -30.5918 	 59.2713 	 107.445
| 41> *
| 42>
| 43>                          ****END OF INPUT****

CARTESIAN COORDINATES (ANGSTROEM)
---------------------------------
  S    -34.674200   57.307600  103.791000
  C    -35.006400   55.936100  102.830000
  C    -33.872600   55.161000  102.680000
  C    -32.656600   55.869900  103.109000
  C    -32.927900   57.093600  103.579000
  H    -31.674100   55.372700  103.034000
  C    -33.816700   53.797000  102.063000
  H    -34.836600   53.467800  102.131000
  H    -33.196200   53.197400  102.742000
  C    -33.339300   53.905300  100.530000
  H    -32.377300   54.338100  100.448000
  H    -33.105800   52.953800  100.204000
  C    -34.393500   54.466200   99.507600
  H    -34.581900   55.535800   99.753800
  H    -34.041100   54.439600   98.476300
  H    -35.288600   53.836200   99.522100
  S    -32.101200   57.682500  106.177000
  C    -30.798900   58.873500  106.442000
  C    -30.175500   59.148400  105.252000
  C    -30.776500   58.509200  104.112000
  C    -31.944800   57.843000  104.431000
  H    -29.229000   59.765900  105.166000
  C    -30.306500   58.764500  102.648000
  H    -29.567100   59.614700  102.773000
  H    -31.078900   59.260300  102.092000
  C    -29.815400   57.559400  101.781000
  H    -30.608200   56.853100  101.809000
  H    -29.043800   56.987500  102.362000
  C    -29.510600   57.825100  100.271000
  H    -30.338700   58.242800   99.757400
  H    -29.238900   56.981000   99.694400
  H    -28.804000   58.532800  100.047000
  H    -35.932300   55.512500  102.682000
  H    -30.591800   59.271300  107.445000

 Total Charge           Charge          ....    0
 Multiplicity           Mult            ....    1
 Number of Electrons    NEL             ....  134
 Basis Dimension        Dim             ....  322

ORBITAL ENERGIES
----------------

  NO   OCC          E(Eh)            E(eV)
   0   2.0000     -88.964980     -2420.8602
   1   2.0000     -88.961144     -2420.7558
   2   2.0000     -10.329545      -281.0812
   3   2.0000     -10.327688      -281.0307
   4   2.0000     -10.319831      -280.8169
   5   2.0000     -10.306450      -280.4528
   6   2.0000     -10.303538      -280.3735
   7   2.0000     -10.299940      -280.2756
   8   2.0000     -10.299299      -280.2582
   9   2.0000     -10.297588      -280.2116
  10   2.0000     -10.297456      -280.2080
  11   2.0000     -10.296149      -280.1725
  12   2.0000     -10.290364      -280.0150
  13   2.0000     -10.286742      -279.9165
  14   2.0000     -10.285080      -279.8712
  15   2.0000     -10.268062      -279.4082
  16   2.0000      -8.080223      -219.8741
  17   2.0000      -8.075477      -219.7449
  18   2.0000      -6.038847      -164.3254
  19   2.0000      -6.034850      -164.2166
  20   2.0000      -6.034063      -164.1952
  21   2.0000      -6.030609      -164.1012
  22   2.0000      -6.030142      -164.0885
  23   2.0000      -6.026072      -163.9778
  24   2.0000      -1.007125       -27.4053
  25   2.0000      -0.982449       -26.7338
  26   2.0000      -0.905610       -24.6429
  27   2.0000      -0.895397       -24.3650
  28   2.0000      -0.868803       -23.6413
  29   2.0000      -0.846899       -23.0453
  30   2.0000      -0.844297       -22.9745
  31   2.0000      -0.817346       -22.2411
  32   2.0000      -0.782008       -21.2795
  33   2.0000      -0.772049       -21.0085
  34   2.0000      -0.714338       -19.4381
  35   2.0000      -0.710116       -19.3232
  36   2.0000      -0.693046       -18.8587
  37   2.0000      -0.657228       -17.8841
  38   2.0000      -0.643213       -17.5027
  39   2.0000      -0.617820       -16.8117
  40   2.0000      -0.591292       -16.0899
  41   2.0000      -0.563944       -15.3457
  42   2.0000      -0.550039       -14.9673
  43   2.0000      -0.544898       -14.8274
  44   2.0000      -0.540799       -14.7159
  45   2.0000      -0.518685       -14.1141
  46   2.0000      -0.518375       -14.1057
  47   2.0000      -0.511978       -13.9316
  48   2.0000      -0.500311       -13.6141
  49   2.0000      -0.497836       -13.5468
  50   2.0000      -0.489530       -13.3208
  51   2.0000      -0.478534       -13.0216
  52   2.0000      -0.469632       -12.7793
  53   2.0000      -0.465983       -12.6800
  54   2.0000      -0.454404       -12.3649
  55   2.0000      -0.452424       -12.3111
  56   2.0000      -0.442938       -12.0530
  57   2.0000      -0.440694       -11.9919
  58   2.0000      -0.436845       -11.8872
  59   2.0000      -0.433821       -11.8049
  60   2.0000      -0.423209       -11.5161
  61   2.0000      -0.414569       -11.2810
  62   2.0000      -0.406188       -11.0529
  63   2.0000      -0.347290        -9.4502
  64   2.0000      -0.328340        -8.9346
  65   2.0000      -0.317869        -8.6496
  66   2.0000      -0.304533        -8.2868
  67   0.0000       0.034871         0.9489
  68   0.0000       0.060747         1.6530
  69   0.0000       0.108707         2.9581
  70   0.0000       0.114698         3.1211
  71   0.0000       0.130660         3.5554

MULLIKEN ATOMIC CHARGES
-----------------------
   0 S :    0.105980
   1 C :   -0.051015
   2 C :   -0.171396
   3 C :    0.049657
   4 C :   -0.133755
   5 H :    0.040780
   6 C :    0.076302
   7 H :    0.010073
   8 H :    0.039358
   9 C :   -0.024255
  10 H :    0.014242
  11 H :    0.003313
  12 C :   -0.071732
  13 H :    0.052257
  14 H :    0.037918
  15 H :    0.036310
  16 S :    0.091486
  17 C :   -0.110006
  18 C :   -0.034324
  19 C :   -0.057423
  20 C :   -0.167360
  21 H :    0.043665
  22 C :    0.055413
  23 H :    0.016924
  24 H :    0.027714
  25 C :   -0.058904
  26 H :    0.009289
  27 H :    0.028236
  28 C :    0.013701
  29 H :    0.011438
  30 H :    0.022289
  31 H :    0.005752
  32 H :    0.018178
  33 H :    0.069896
Sum of atomic charges:    0.0000000

LOEWDIN ATOMIC CHARGES
----------------------
   0 S :    0.411528
   1 C :   -0.199954
   2 C :   -0.061179
   3 C :   -0.051754
   4 C :   -0.194322
   5 H :    0.038423
   6 C :   -0.027356
   7 H :    0.025787
   8 H :    0.036505
   9 C :   -0.029630
  10 H :    0.018551
  11 H :    0.012209
  12 C :   -0.065069
  13 H :    0.031000
  14 H :    0.028607
  15 H :    0.026234
  16 S :    0.379743
  17 C :   -0.179400
  18 C :   -0.077405
  19 C :   -0.067687
  20 C :   -0.185505
  21 H :    0.043310
  22 C :   -0.031843
  23 H :    0.030198
  24 H :    0.028978
  25 C :   -0.040042
  26 H :    0.016852
  27 H :    0.027221
  28 C :   -0.057634
  29 H :    0.025584
  30 H :    0.026079
  31 H :    0.014356
  32 H :    0.013385
  33 H :    0.034232

  Mayer bond orders larger than 0.100000
B(  0-S ,  1-C ) :   1.1375 B(  0-S ,  4-C ) :   1.1397 B(  1-C ,  2-C ) :   1.6303
B(  1-C , 32-H ) :   0.9697 B(  2-C ,  3-C ) :   1.2198 B(  2-C ,  6-C ) :   1.0329
B(  3-C ,  4-C ) :   1.5948 B(  3-C ,  5-H ) :   0.9784 B(  4-C , 20-C ) :   0.9985
B(  6-C ,  7-H ) :   0.9410 B(  6-C ,  8-H ) :   0.9408 B(  6-C ,  9-C ) :   1.0491
B(  9-C , 10-H ) :   0.9599 B(  9-C , 11-H ) :   0.9540 B(  9-C , 12-C ) :   1.0695
B( 12-C , 13-H ) :   0.9773 B( 12-C , 14-H ) :   0.9750 B( 12-C , 15-H ) :   0.9763
B( 16-S , 17-C ) :   1.1353 B( 16-S , 20-C ) :   1.1470 B( 17-C , 18-C ) :   1.6170
B( 17-C , 33-H ) :   0.9684 B( 18-C , 19-C ) :   1.2458 B( 18-C , 21-H ) :   0.9747
B( 19-C , 20-C ) :   1.6303 B( 19-C , 22-C ) :   1.0274 B( 22-C , 23-H ) :   0.9417
B( 22-C , 24-H ) :   0.9406 B( 22-C , 25-C ) :   1.0468 B( 25-C , 26-H ) :   0.9487
B( 25-C , 27-H ) :   0.9578 B( 25-C , 28-C ) :   1.0733 B( 28-C , 29-H ) :   0.9679
B( 28-C , 30-H ) :   0.9739 B( 28-C , 31-H ) :   0.9763

Dispersion correction           -0.014864628
FINAL SINGLE POINT ENERGY     -1339.851299253034

DIPOLE MOMENT
-------------
                                X             Y             Z
Electronic contribution:     -9.03066       9.38823      26.74921
Nuclear contribution   :      9.28902      -9.84337     -27.20227
                        -----------------------------------------
Total Dipole Moment    :      0.25836      -0.45514      -0.45307
                        -----------------------------------------
Magnitude (a.u.)       :      0.69222
Magnitude (Debye)      :      1.75948

Rotational constants in cm-1:     0.018189     0.009621     0.007034
Rotational constants in MHz :   545.279681   288.421691   210.874302

                             ****ORCA TERMINATED NORMALLY****
TOTAL RUN TIME: 0 days 0 hours 0 minutes 29 seconds 183 msec
