                         Program Version 4.2.1 -  RELEASE  -
|  1> ! wB97X-D3 SP def2-SVP
|  2> %pal
|  3> nprocs 16
|  4> end
|  5>
|  6> * xyz 0 1
|  7> S 	 0.158678 	 -11.8533 	 81.0104
|  8> C 	 -0.750222 	 -12.3532 	 82.4701
|  9> C 	 -2.1044 	 -12.2058 	 82.4054
| 10> C 	 -2.4574 	 -11.5317 	 81.1868
| 11> C 	 -1.37647 	 -11.2692 	 80.3644
| 12> H 	 -3.46576 	 -11.3065 	 80.8147
| 13> C 	 -3.14567 	 -12.5694 	 83.4497
| 14> H 	 -3.82784 	 -11.6584 	 83.6508
| 15> H 	 -2.60497 	 -12.6606 	 84.368
| 16> C 	 -3.97727 	 -13.749 	 82.9949
| 17> H 	 -4.55135 	 -13.5056 	 82.0933
| 18> H 	 -3.30769 	 -14.6368 	 82.6992
| 19> C 	 -4.97944 	 -14.2388 	 83.9929
| 20> H 	 -5.74626 	 -13.4837 	 84.2503
| 21> H 	 -5.52007 	 -15.1388 	 83.6125
| 22> H 	 -4.5137 	 -14.4152 	 84.9209
| 23> S 	 -0.584781 	 -11.8091 	 77.8037
| 24> C 	 -1.10946 	 -10.7129 	 76.5164
| 25> C 	 -2.01969 	 -9.82645 	 76.9664
| 26> C 	 -2.09328 	 -9.72174 	 78.3703
| 27> C 	 -1.38231 	 -10.7785 	 79.0026
| 28> H 	 -2.56889 	 -9.22516 	 76.2888
| 29> C 	 -3.03521 	 -8.71534 	 78.9732
| 30> H 	 -4.08239 	 -9.1088 	 78.994
| 31> H 	 -3.1968 	 -7.94831 	 78.2302
| 32> C 	 -2.68263 	 -8.10961 	 80.3547
| 33> H 	 -1.58057 	 -7.99442 	 80.3303
| 34> H 	 -2.95568 	 -8.76932 	 81.162
| 35> C 	 -3.23692 	 -6.71555 	 80.6533
| 36> H 	 -2.87093 	 -6.03184 	 79.9233
| 37> H 	 -2.8604 	 -6.18296 	 81.5941
| 38> H 	 -4.34013 	 -6.71866 	 80.664
| 39> H 	 -0.209166 	 -12.783 	 83.3193
| 40> H 	 -1.02309 	 -10.9241 	 75.4848
| 41> *
| 42>
| 43>                          ****END OF INPUT****

CARTESIAN COORDINATES (ANGSTROEM)
---------------------------------
  S      0.158678  -11.853300   81.010400
  C     -0.750222  -12.353200   82.470100
  C     -2.104400  -12.205800   82.405400
  C     -2.457400  -11.531700   81.186800
  C     -1.376470  -11.269200   80.364400
  H     -3.465760  -11.306500   80.814700
  C     -3.145670  -12.569400   83.449700
  H     -3.827840  -11.658400   83.650800
  H     -2.604970  -12.660600   84.368000
  C     -3.977270  -13.749000   82.994900
  H     -4.551350  -13.505600   82.093300
  H     -3.307690  -14.636800   82.699200
  C     -4.979440  -14.238800   83.992900
  H     -5.746260  -13.483700   84.250300
  H     -5.520070  -15.138800   83.612500
  H     -4.513700  -14.415200   84.920900
  S     -0.584781  -11.809100   77.803700
  C     -1.109460  -10.712900   76.516400
  C     -2.019690   -9.826450   76.966400
  C     -2.093280   -9.721740   78.370300
  C     -1.382310  -10.778500   79.002600
  H     -2.568890   -9.225160   76.288800
  C     -3.035210   -8.715340   78.973200
  H     -4.082390   -9.108800   78.994000
  H     -3.196800   -7.948310   78.230200
  C     -2.682630   -8.109610   80.354700
  H     -1.580570   -7.994420   80.330300
  H     -2.955680   -8.769320   81.162000
  C     -3.236920   -6.715550   80.653300
  H     -2.870930   -6.031840   79.923300
  H     -2.860400   -6.182960   81.594100
  H     -4.340130   -6.718660   80.664000
  H     -0.209166  -12.783000   83.319300
  H     -1.023090  -10.924100   75.484800

 Total Charge           Charge          ....    0
 Multiplicity           Mult            ....    1
 Number of Electrons    NEL             ....  134
 Basis Dimension        Dim             ....  322

ORBITAL ENERGIES
----------------

  NO   OCC          E(Eh)            E(eV)
   0   2.0000     -88.965876     -2420.8846
   1   2.0000     -88.964925     -2420.8587
   2   2.0000     -10.328693      -281.0580
   3   2.0000     -10.328319      -281.0479
   4   2.0000     -10.315929      -280.7107
   5   2.0000     -10.309535      -280.5367
   6   2.0000     -10.303781      -280.3801
   7   2.0000     -10.302781      -280.3529
   8   2.0000     -10.300053      -280.2787
   9   2.0000     -10.296111      -280.1714
  10   2.0000     -10.294323      -280.1228
  11   2.0000     -10.291650      -280.0500
  12   2.0000     -10.286232      -279.9026
  13   2.0000     -10.283673      -279.8330
  14   2.0000     -10.279965      -279.7321
  15   2.0000     -10.276674      -279.6425
  16   2.0000      -8.080044      -219.8692
  17   2.0000      -8.079093      -219.8433
  18   2.0000      -6.038517      -164.3164
  19   2.0000      -6.037703      -164.2942
  20   2.0000      -6.034919      -164.2185
  21   2.0000      -6.033775      -164.1874
  22   2.0000      -6.030590      -164.1007
  23   2.0000      -6.029673      -164.0757
  24   2.0000      -1.003784       -27.3143
  25   2.0000      -0.980788       -26.6886
  26   2.0000      -0.916936       -24.9511
  27   2.0000      -0.904557       -24.6142
  28   2.0000      -0.873191       -23.7607
  29   2.0000      -0.849582       -23.1183
  30   2.0000      -0.847257       -23.0550
  31   2.0000      -0.814430       -22.1618
  32   2.0000      -0.783920       -21.3316
  33   2.0000      -0.769794       -20.9472
  34   2.0000      -0.711273       -19.3547
  35   2.0000      -0.697880       -18.9903
  36   2.0000      -0.687553       -18.7093
  37   2.0000      -0.660559       -17.9747
  38   2.0000      -0.640836       -17.4380
  39   2.0000      -0.618405       -16.8277
  40   2.0000      -0.595967       -16.2171
  41   2.0000      -0.567858       -15.4522
  42   2.0000      -0.563827       -15.3425
  43   2.0000      -0.557596       -15.1730
  44   2.0000      -0.535283       -14.5658
  45   2.0000      -0.519025       -14.1234
  46   2.0000      -0.516093       -14.0436
  47   2.0000      -0.513475       -13.9724
  48   2.0000      -0.505018       -13.7422
  49   2.0000      -0.495645       -13.4872
  50   2.0000      -0.487088       -13.2543
  51   2.0000      -0.484070       -13.1722
  52   2.0000      -0.465945       -12.6790
  53   2.0000      -0.458895       -12.4872
  54   2.0000      -0.454797       -12.3757
  55   2.0000      -0.449954       -12.2439
  56   2.0000      -0.447963       -12.1897
  57   2.0000      -0.442526       -12.0417
  58   2.0000      -0.429357       -11.6834
  59   2.0000      -0.427575       -11.6349
  60   2.0000      -0.420117       -11.4320
  61   2.0000      -0.415004       -11.2928
  62   2.0000      -0.412948       -11.2369
  63   2.0000      -0.347605        -9.4588
  64   2.0000      -0.333797        -9.0831
  65   2.0000      -0.327430        -8.9098
  66   2.0000      -0.287153        -7.8138
  67   0.0000       0.026376         0.7177
  68   0.0000       0.069711         1.8969
  69   0.0000       0.098681         2.6852
  70   0.0000       0.112160         3.0520
  71   0.0000       0.133132         3.6227

MULLIKEN ATOMIC CHARGES
-----------------------
   0 S :    0.099122
   1 C :   -0.137520
   2 C :   -0.067775
   3 C :    0.028268
   4 C :   -0.159122
   5 H :    0.021932
   6 C :    0.072314
   7 H :    0.040739
   8 H :    0.011557
   9 C :   -0.106850
  10 H :    0.033115
  11 H :    0.046382
  12 C :   -0.018838
  13 H :    0.022421
  14 H :    0.044935
  15 H :    0.014547
  16 S :    0.094254
  17 C :   -0.058938
  18 C :   -0.035216
  19 C :   -0.026654
  20 C :   -0.143882
  21 H :    0.006758
  22 C :    0.046701
  23 H :    0.036752
  24 H :    0.002262
  25 C :   -0.062959
  26 H :    0.038449
  27 H :    0.038348
  28 C :   -0.068436
  29 H :    0.021104
  30 H :    0.042833
  31 H :    0.034052
  32 H :    0.046978
  33 H :    0.042368
Sum of atomic charges:   -0.0000000

LOEWDIN ATOMIC CHARGES
----------------------
   0 S :    0.377153
   1 C :   -0.181431
   2 C :   -0.060905
   3 C :   -0.057369
   4 C :   -0.185439
   5 H :    0.034361
   6 C :   -0.031705
   7 H :    0.041206
   8 H :    0.024961
   9 C :   -0.049628
  10 H :    0.026529
  11 H :    0.036207
  12 C :   -0.067220
  13 H :    0.025330
  14 H :    0.033975
  15 H :    0.015928
  16 S :    0.389143
  17 C :   -0.174413
  18 C :   -0.061593
  19 C :   -0.058128
  20 C :   -0.191931
  21 H :    0.026696
  22 C :   -0.039120
  23 H :    0.036782
  24 H :    0.027185
  25 C :   -0.043295
  26 H :    0.031810
  27 H :    0.021661
  28 C :   -0.072888
  29 H :    0.018465
  30 H :    0.036879
  31 H :    0.023093
  32 H :    0.025653
  33 H :    0.022048

  Mayer bond orders larger than 0.100000
B(  0-S ,  1-C ) :   1.1152 B(  0-S ,  4-C ) :   1.1348 B(  1-C ,  2-C ) :   1.6600
B(  1-C , 32-H ) :   0.9635 B(  2-C ,  3-C ) :   1.2019 B(  2-C ,  6-C ) :   1.0200
B(  3-C ,  4-C ) :   1.6111 B(  3-C ,  5-H ) :   0.9831 B(  4-C , 20-C ) :   1.0523
B(  6-C ,  7-H ) :   0.9395 B(  6-C ,  8-H ) :   0.9385 B(  6-C ,  9-C ) :   1.0552
B(  9-C , 10-H ) :   0.9530 B(  9-C , 11-H ) :   0.9523 B(  9-C , 12-C ) :   1.0964
B( 12-C , 13-H ) :   0.9685 B( 12-C , 14-H ) :   0.9725 B( 12-C , 15-H ) :   0.9714
B( 16-S , 17-C ) :   1.1299 B( 16-S , 20-C ) :   1.1457 B( 17-C , 18-C ) :   1.6359
B( 17-C , 33-H ) :   0.9656 B( 18-C , 19-C ) :   1.2497 B( 18-C , 21-H ) :   0.9872
B( 19-C , 20-C ) :   1.5625 B( 19-C , 22-C ) :   1.0573 B( 22-C , 23-H ) :   0.9207
B( 22-C , 24-H ) :   0.9299 B( 22-C , 25-C ) :   1.0476 B( 25-C , 26-H ) :   0.9619
B( 25-C , 27-H ) :   0.9499 B( 25-C , 28-C ) :   1.0892 B( 28-C , 29-H ) :   0.9734
B( 28-C , 30-H ) :   0.9737 B( 28-C , 31-H ) :   0.9752

Dispersion correction           -0.014115765
FINAL SINGLE POINT ENERGY     -1339.878739756533

DIPOLE MOMENT
-------------
                                X             Y             Z
Electronic contribution:     22.16413      -7.11334     -15.69680
Nuclear contribution   :    -22.89415       7.21105      15.87131
                        -----------------------------------------
Total Dipole Moment    :     -0.73003       0.09770       0.17451
                        -----------------------------------------
Magnitude (a.u.)       :      0.75693
Magnitude (Debye)      :      1.92396

Rotational constants in cm-1:     0.016944     0.008589     0.007034
Rotational constants in MHz :   507.969584   257.499506   210.869328

                             ****ORCA TERMINATED NORMALLY****
TOTAL RUN TIME: 0 days 0 hours 0 minutes 35 seconds 784 msec
