                         Program Version 4.2.1 -  RELEASE  -
|  1> ! wB97X-D3 SP def2-SVP
|  2> %pal
|  3> nprocs 16
|  4> end
|  5>
|  6> * xyz 0 1
|  7> S 	 29.5272 	 2.37571 	 70.5591
|  8> C 	 30.5079 	 3.75231 	 69.9525
|  9> C 	 31.0828 	 4.44453 	 70.9903
| 10> C 	 30.9196 	 3.75155 	 72.2287
| 11> C 	 30.1608 	 2.58242 	 72.1858
| 12> H 	 31.3204 	 4.09342 	 73.1801
| 13> C 	 31.9391 	 5.61939 	 70.8709
| 14> H 	 32.2647 	 5.75402 	 71.9285
| 15> H 	 31.4208 	 6.54727 	 70.5976
| 16> C 	 33.2935 	 5.47889 	 70.0991
| 17> H 	 33.1112 	 5.59358 	 69.0324
| 18> H 	 33.8487 	 6.33768 	 70.3863
| 19> C 	 33.9925 	 4.1332 	 70.2209
| 20> H 	 33.3425 	 3.37164 	 69.7972
| 21> H 	 34.7406 	 4.08424 	 69.4891
| 22> H 	 34.2797 	 3.75247 	 71.2288
| 23> S 	 28.2891 	 0.960909 	 73.6597
| 24> C 	 28.9574 	 -0.0515984 	 74.9146
| 25> C 	 30.2851 	 0.195764 	 75.0167
| 26> C 	 30.8491 	 1.16286 	 74.1815
| 27> C 	 29.9312 	 1.62966 	 73.2964
| 28> H 	 30.8011 	 -0.338919 	 75.7799
| 29> C 	 32.3005 	 1.45044 	 74.1901
| 30> H 	 32.6288 	 2.13009 	 73.4095
| 31> H 	 32.6685 	 0.438858 	 73.907
| 32> C 	 32.8736 	 2.03352 	 75.4865
| 33> H 	 33.9934 	 1.88768 	 75.5259
| 34> H 	 32.6581 	 1.44327 	 76.3032
| 35> C 	 32.3622 	 3.43548 	 75.7534
| 36> H 	 32.746 	 3.87988 	 76.6743
| 37> H 	 31.2724 	 3.49025 	 75.791
| 38> H 	 32.6118 	 4.15767 	 74.9872
| 39> H 	 30.6934 	 4.18371 	 68.9815
| 40> H 	 28.4203 	 -0.692178 	 75.6365
| 41> *
| 42>
| 43>                          ****END OF INPUT****

CARTESIAN COORDINATES (ANGSTROEM)
---------------------------------
  S     29.527200    2.375710   70.559100
  C     30.507900    3.752310   69.952500
  C     31.082800    4.444530   70.990300
  C     30.919600    3.751550   72.228700
  C     30.160800    2.582420   72.185800
  H     31.320400    4.093420   73.180100
  C     31.939100    5.619390   70.870900
  H     32.264700    5.754020   71.928500
  H     31.420800    6.547270   70.597600
  C     33.293500    5.478890   70.099100
  H     33.111200    5.593580   69.032400
  H     33.848700    6.337680   70.386300
  C     33.992500    4.133200   70.220900
  H     33.342500    3.371640   69.797200
  H     34.740600    4.084240   69.489100
  H     34.279700    3.752470   71.228800
  S     28.289100    0.960909   73.659700
  C     28.957400   -0.051598   74.914600
  C     30.285100    0.195764   75.016700
  C     30.849100    1.162860   74.181500
  C     29.931200    1.629660   73.296400
  H     30.801100   -0.338919   75.779900
  C     32.300500    1.450440   74.190100
  H     32.628800    2.130090   73.409500
  H     32.668500    0.438858   73.907000
  C     32.873600    2.033520   75.486500
  H     33.993400    1.887680   75.525900
  H     32.658100    1.443270   76.303200
  C     32.362200    3.435480   75.753400
  H     32.746000    3.879880   76.674300
  H     31.272400    3.490250   75.791000
  H     32.611800    4.157670   74.987200
  H     30.693400    4.183710   68.981500
  H     28.420300   -0.692178   75.636500

 Total Charge           Charge          ....    0
 Multiplicity           Mult            ....    1
 Number of Electrons    NEL             ....  134
 Basis Dimension        Dim             ....  322

ORBITAL ENERGIES
----------------

  NO   OCC          E(Eh)            E(eV)
   0   2.0000     -88.969306     -2420.9779
   1   2.0000     -88.964684     -2420.8521
   2   2.0000     -10.332633      -281.1652
   3   2.0000     -10.330238      -281.1001
   4   2.0000     -10.318181      -280.7720
   5   2.0000     -10.312820      -280.6261
   6   2.0000     -10.297386      -280.2061
   7   2.0000     -10.293554      -280.1019
   8   2.0000     -10.292284      -280.0673
   9   2.0000     -10.291335      -280.0415
  10   2.0000     -10.291162      -280.0368
  11   2.0000     -10.287992      -279.9505
  12   2.0000     -10.287629      -279.9406
  13   2.0000     -10.285092      -279.8716
  14   2.0000     -10.279633      -279.7230
  15   2.0000     -10.273968      -279.5689
  16   2.0000      -8.082671      -219.9407
  17   2.0000      -8.078726      -219.8333
  18   2.0000      -6.041446      -164.3961
  19   2.0000      -6.037378      -164.2854
  20   2.0000      -6.037348      -164.2846
  21   2.0000      -6.033412      -164.1775
  22   2.0000      -6.033241      -164.1728
  23   2.0000      -6.029292      -164.0654
  24   2.0000      -1.005982       -27.3742
  25   2.0000      -0.984740       -26.7961
  26   2.0000      -0.916690       -24.9444
  27   2.0000      -0.914726       -24.8910
  28   2.0000      -0.868110       -23.6225
  29   2.0000      -0.854856       -23.2618
  30   2.0000      -0.844921       -22.9915
  31   2.0000      -0.813054       -22.1243
  32   2.0000      -0.787468       -21.4281
  33   2.0000      -0.780399       -21.2357
  34   2.0000      -0.715900       -19.4806
  35   2.0000      -0.709689       -19.3116
  36   2.0000      -0.701819       -19.0975
  37   2.0000      -0.658142       -17.9089
  38   2.0000      -0.629437       -17.1279
  39   2.0000      -0.615548       -16.7499
  40   2.0000      -0.598786       -16.2938
  41   2.0000      -0.574267       -15.6266
  42   2.0000      -0.564371       -15.3573
  43   2.0000      -0.558678       -15.2024
  44   2.0000      -0.542480       -14.7616
  45   2.0000      -0.531943       -14.4749
  46   2.0000      -0.519060       -14.1244
  47   2.0000      -0.508335       -13.8325
  48   2.0000      -0.501862       -13.6564
  49   2.0000      -0.500391       -13.6163
  50   2.0000      -0.490345       -13.3430
  51   2.0000      -0.478840       -13.0299
  52   2.0000      -0.473085       -12.8733
  53   2.0000      -0.469020       -12.7627
  54   2.0000      -0.460863       -12.5407
  55   2.0000      -0.451788       -12.2938
  56   2.0000      -0.444116       -12.0850
  57   2.0000      -0.439890       -11.9700
  58   2.0000      -0.434398       -11.8206
  59   2.0000      -0.424443       -11.5497
  60   2.0000      -0.421210       -11.4617
  61   2.0000      -0.414911       -11.2903
  62   2.0000      -0.407027       -11.0758
  63   2.0000      -0.349575        -9.5124
  64   2.0000      -0.331931        -9.0323
  65   2.0000      -0.330293        -8.9877
  66   2.0000      -0.290616        -7.9081
  67   0.0000       0.028129         0.7654
  68   0.0000       0.068870         1.8740
  69   0.0000       0.105602         2.8736
  70   0.0000       0.123471         3.3598
  71   0.0000       0.125546         3.4163

MULLIKEN ATOMIC CHARGES
-----------------------
   0 S :    0.115777
   1 C :   -0.098911
   2 C :   -0.112105
   3 C :    0.025712
   4 C :   -0.144147
   5 H :   -0.018535
   6 C :    0.057088
   7 H :    0.014226
   8 H :    0.046341
   9 C :   -0.075413
  10 H :    0.020156
  11 H :    0.027768
  12 C :   -0.010070
  13 H :    0.021579
  14 H :    0.015111
  15 H :    0.043633
  16 S :    0.094682
  17 C :   -0.089115
  18 C :   -0.041095
  19 C :   -0.015205
  20 C :   -0.154300
  21 H :    0.001797
  22 C :    0.051303
  23 H :    0.024837
  24 H :    0.043485
  25 C :   -0.029571
  26 H :    0.030666
  27 H :    0.000776
  28 C :   -0.057260
  29 H :    0.033038
  30 H :    0.046651
  31 H :    0.030852
  32 H :    0.032684
  33 H :    0.067564
Sum of atomic charges:    0.0000000

LOEWDIN ATOMIC CHARGES
----------------------
   0 S :    0.392097
   1 C :   -0.186957
   2 C :   -0.071125
   3 C :   -0.065641
   4 C :   -0.185421
   5 H :    0.024477
   6 C :   -0.040411
   7 H :    0.033754
   8 H :    0.036443
   9 C :   -0.033170
  10 H :    0.022150
  11 H :    0.020788
  12 C :   -0.067888
  13 H :    0.031035
  14 H :    0.022039
  15 H :    0.028126
  16 S :    0.373124
  17 C :   -0.183284
  18 C :   -0.073539
  19 C :   -0.061152
  20 C :   -0.176567
  21 H :    0.025188
  22 C :   -0.029911
  23 H :    0.029779
  24 H :    0.043522
  25 C :   -0.039327
  26 H :    0.034005
  27 H :    0.010823
  28 C :   -0.065936
  29 H :    0.029819
  30 H :    0.031141
  31 H :    0.019758
  32 H :    0.030577
  33 H :    0.041683

  Mayer bond orders larger than 0.100000
B(  0-S ,  1-C ) :   1.1213 B(  0-S ,  4-C ) :   1.1410 B(  1-C ,  2-C ) :   1.6208
B(  1-C , 32-H ) :   0.9644 B(  2-C ,  3-C ) :   1.2453 B(  2-C ,  6-C ) :   1.0317
B(  3-C ,  4-C ) :   1.5711 B(  3-C ,  5-H ) :   0.9833 B(  4-C , 20-C ) :   1.0421
B(  6-C ,  7-H ) :   0.9393 B(  6-C ,  8-H ) :   0.9326 B(  6-C ,  9-C ) :   1.0641
B(  9-C , 10-H ) :   0.9515 B(  9-C , 11-H ) :   0.9597 B(  9-C , 12-C ) :   1.0908
B( 12-C , 13-H ) :   0.9551 B( 12-C , 14-H ) :   0.9661 B( 12-C , 15-H ) :   0.9765
B( 16-S , 17-C ) :   1.1336 B( 16-S , 20-C ) :   1.1189 B( 17-C , 18-C ) :   1.6403
B( 17-C , 33-H ) :   0.9617 B( 18-C , 19-C ) :   1.2218 B( 18-C , 21-H ) :   0.9933
B( 19-C , 20-C ) :   1.6046 B( 19-C , 22-C ) :   1.0351 B( 22-C , 23-H ) :   0.9364
B( 22-C , 24-H ) :   0.9307 B( 22-C , 25-C ) :   1.0701 B( 25-C , 26-H ) :   0.9515
B( 25-C , 27-H ) :   0.9531 B( 25-C , 28-C ) :   1.0712 B( 28-C , 29-H ) :   0.9671
B( 28-C , 30-H ) :   0.9717 B( 28-C , 31-H ) :   0.9666

Dispersion correction           -0.015973872
FINAL SINGLE POINT ENERGY     -1339.868513845396

DIPOLE MOMENT
-------------
                                X             Y             Z
Electronic contribution:    -25.60706     -12.84834      -4.47452
Nuclear contribution   :     26.33801      13.06037       4.81092
                        -----------------------------------------
Total Dipole Moment    :      0.73096       0.21203       0.33639
                        -----------------------------------------
Magnitude (a.u.)       :      0.83211
Magnitude (Debye)      :      2.11507

Rotational constants in cm-1:     0.019884     0.009797     0.007262
Rotational constants in MHz :   596.111226   293.710136   217.700981

                             ****ORCA TERMINATED NORMALLY****
TOTAL RUN TIME: 0 days 0 hours 0 minutes 32 seconds 584 msec
