                         Program Version 4.2.1 -  RELEASE  -
|  1> ! wB97X-D3 SP def2-SVP
|  2> %pal
|  3> nprocs 16
|  4> end
|  5>
|  6> * xyz 0 1
|  7> S 	 -44.9421 	 -2.33088 	 95.1083
|  8> C 	 -46.0506 	 -3.65676 	 94.7198
|  9> C 	 -47.3584 	 -3.36369 	 94.756
| 10> C 	 -47.5437 	 -2.00394 	 95.0972
| 11> C 	 -46.4323 	 -1.29264 	 95.356
| 12> H 	 -48.5027 	 -1.56111 	 95.1331
| 13> C 	 -48.4821 	 -4.36238 	 94.5156
| 14> H 	 -48.9247 	 -4.60627 	 95.4931
| 15> H 	 -48.2689 	 -5.39532 	 94.1264
| 16> C 	 -49.5939 	 -3.85081 	 93.4759
| 17> H 	 -50.4305 	 -4.5774 	 93.5354
| 18> H 	 -49.8978 	 -2.83258 	 93.7264
| 19> C 	 -49.1853 	 -3.88769 	 91.96
| 20> H 	 -48.472 	 -3.07963 	 91.7032
| 21> H 	 -48.7386 	 -4.86349 	 91.6396
| 22> H 	 -50.0959 	 -3.64518 	 91.3648
| 23> S 	 -45.2794 	 0.120204 	 97.286
| 24> C 	 -45.5969 	 1.83108 	 97.4372
| 25> C 	 -46.5997 	 2.27994 	 96.613
| 26> C 	 -47.0112 	 1.28068 	 95.6463
| 27> C 	 -46.3146 	 0.0794885 	 95.8912
| 28> H 	 -46.9399 	 3.29922 	 96.692
| 29> C 	 -47.9748 	 1.48537 	 94.5459
| 30> H 	 -48.1916 	 0.482022 	 94.1399
| 31> H 	 -47.3247 	 2.10081 	 93.956
| 32> C 	 -49.2589 	 2.10209 	 94.9763
| 33> H 	 -49.0961 	 3.02638 	 95.5965
| 34> H 	 -49.7778 	 1.5595 	 95.7539
| 35> C 	 -50.129 	 2.5881 	 93.8584
| 36> H 	 -50.9732 	 3.25242 	 94.209
| 37> H 	 -50.6527 	 1.79358 	 93.3364
| 38> H 	 -49.6656 	 3.26382 	 93.1153
| 39> H 	 -45.6458 	 -4.73282 	 94.5521
| 40> H 	 -45.1938 	 2.42548 	 98.1204
| 41> *
| 42>
| 43>                          ****END OF INPUT****

CARTESIAN COORDINATES (ANGSTROEM)
---------------------------------
  S    -44.942100   -2.330880   95.108300
  C    -46.050600   -3.656760   94.719800
  C    -47.358400   -3.363690   94.756000
  C    -47.543700   -2.003940   95.097200
  C    -46.432300   -1.292640   95.356000
  H    -48.502700   -1.561110   95.133100
  C    -48.482100   -4.362380   94.515600
  H    -48.924700   -4.606270   95.493100
  H    -48.268900   -5.395320   94.126400
  C    -49.593900   -3.850810   93.475900
  H    -50.430500   -4.577400   93.535400
  H    -49.897800   -2.832580   93.726400
  C    -49.185300   -3.887690   91.960000
  H    -48.472000   -3.079630   91.703200
  H    -48.738600   -4.863490   91.639600
  H    -50.095900   -3.645180   91.364800
  S    -45.279400    0.120204   97.286000
  C    -45.596900    1.831080   97.437200
  C    -46.599700    2.279940   96.613000
  C    -47.011200    1.280680   95.646300
  C    -46.314600    0.079488   95.891200
  H    -46.939900    3.299220   96.692000
  C    -47.974800    1.485370   94.545900
  H    -48.191600    0.482022   94.139900
  H    -47.324700    2.100810   93.956000
  C    -49.258900    2.102090   94.976300
  H    -49.096100    3.026380   95.596500
  H    -49.777800    1.559500   95.753900
  C    -50.129000    2.588100   93.858400
  H    -50.973200    3.252420   94.209000
  H    -50.652700    1.793580   93.336400
  H    -49.665600    3.263820   93.115300
  H    -45.645800   -4.732820   94.552100
  H    -45.193800    2.425480   98.120400

 Total Charge           Charge          ....    0
 Multiplicity           Mult            ....    1
 Number of Electrons    NEL             ....  134
 Basis Dimension        Dim             ....  322

ORBITAL ENERGIES
----------------

  NO   OCC          E(Eh)            E(eV)
   0   2.0000     -88.964092     -2420.8360
   1   2.0000     -88.963749     -2420.8267
   2   2.0000     -10.331841      -281.1437
   3   2.0000     -10.324285      -280.9381
   4   2.0000     -10.316241      -280.7192
   5   2.0000     -10.305582      -280.4291
   6   2.0000     -10.305453      -280.4256
   7   2.0000     -10.303895      -280.3832
   8   2.0000     -10.298480      -280.2359
   9   2.0000     -10.297420      -280.2070
  10   2.0000     -10.294237      -280.1204
  11   2.0000     -10.289367      -279.9879
  12   2.0000     -10.289110      -279.9809
  13   2.0000     -10.288525      -279.9650
  14   2.0000     -10.286795      -279.9179
  15   2.0000     -10.282355      -279.7971
  16   2.0000      -8.079185      -219.8458
  17   2.0000      -8.077284      -219.7941
  18   2.0000      -6.037588      -164.2911
  19   2.0000      -6.035962      -164.2469
  20   2.0000      -6.033764      -164.1871
  21   2.0000      -6.032244      -164.1457
  22   2.0000      -6.029901      -164.0820
  23   2.0000      -6.027651      -164.0207
  24   2.0000      -1.004962       -27.3464
  25   2.0000      -0.983120       -26.7521
  26   2.0000      -0.923437       -25.1280
  27   2.0000      -0.899064       -24.4648
  28   2.0000      -0.866802       -23.5869
  29   2.0000      -0.856592       -23.3091
  30   2.0000      -0.842685       -22.9306
  31   2.0000      -0.818736       -22.2789
  32   2.0000      -0.783082       -21.3087
  33   2.0000      -0.770543       -20.9675
  34   2.0000      -0.710773       -19.3411
  35   2.0000      -0.702881       -19.1264
  36   2.0000      -0.686918       -18.6920
  37   2.0000      -0.661671       -18.0050
  38   2.0000      -0.638207       -17.3665
  39   2.0000      -0.628271       -17.0961
  40   2.0000      -0.600993       -16.3539
  41   2.0000      -0.573218       -15.5980
  42   2.0000      -0.563896       -15.3444
  43   2.0000      -0.543379       -14.7861
  44   2.0000      -0.535186       -14.5631
  45   2.0000      -0.532611       -14.4931
  46   2.0000      -0.518585       -14.1114
  47   2.0000      -0.517566       -14.0837
  48   2.0000      -0.499241       -13.5850
  49   2.0000      -0.494635       -13.4597
  50   2.0000      -0.484814       -13.1925
  51   2.0000      -0.481822       -13.1110
  52   2.0000      -0.469035       -12.7631
  53   2.0000      -0.463780       -12.6201
  54   2.0000      -0.458673       -12.4811
  55   2.0000      -0.451841       -12.2952
  56   2.0000      -0.442820       -12.0497
  57   2.0000      -0.440067       -11.9748
  58   2.0000      -0.434685       -11.8284
  59   2.0000      -0.429452       -11.6860
  60   2.0000      -0.423742       -11.5306
  61   2.0000      -0.408479       -11.1153
  62   2.0000      -0.406987       -11.0747
  63   2.0000      -0.350064        -9.5257
  64   2.0000      -0.331541        -9.0217
  65   2.0000      -0.328581        -8.9412
  66   2.0000      -0.290050        -7.8927
  67   0.0000       0.032258         0.8778
  68   0.0000       0.072622         1.9762
  69   0.0000       0.102299         2.7837
  70   0.0000       0.120682         3.2839
  71   0.0000       0.127940         3.4814

MULLIKEN ATOMIC CHARGES
-----------------------
   0 S :    0.087512
   1 C :   -0.166418
   2 C :   -0.027770
   3 C :    0.040207
   4 C :   -0.145794
   5 H :   -0.007410
   6 C :    0.041577
   7 H :    0.044455
   8 H :    0.027037
   9 C :   -0.107796
  10 H :    0.038335
  11 H :    0.033337
  12 C :   -0.083775
  13 H :    0.044129
  14 H :    0.041126
  15 H :    0.043026
  16 S :    0.108291
  17 C :   -0.018959
  18 C :   -0.052845
  19 C :   -0.061889
  20 C :   -0.157042
  21 H :    0.018201
  22 C :    0.141166
  23 H :    0.023451
  24 H :    0.040387
  25 C :   -0.098775
  26 H :    0.020394
  27 H :    0.026198
  28 C :   -0.049611
  29 H :    0.029267
  30 H :    0.028013
  31 H :    0.034589
  32 H :    0.073157
  33 H :   -0.005772
Sum of atomic charges:   -0.0000000

LOEWDIN ATOMIC CHARGES
----------------------
   0 S :    0.346575
   1 C :   -0.189646
   2 C :   -0.075747
   3 C :   -0.058098
   4 C :   -0.163753
   5 H :    0.023825
   6 C :   -0.034234
   7 H :    0.034993
   8 H :    0.034691
   9 C :   -0.040050
  10 H :    0.027411
  11 H :    0.018524
  12 C :   -0.075255
  13 H :    0.027408
  14 H :    0.027554
  15 H :    0.031148
  16 S :    0.414358
  17 C :   -0.161646
  18 C :   -0.066397
  19 C :   -0.049445
  20 C :   -0.204864
  21 H :    0.030063
  22 C :   -0.030411
  23 H :    0.035624
  24 H :    0.042044
  25 C :   -0.053049
  26 H :    0.029002
  27 H :    0.028142
  28 C :   -0.072853
  29 H :    0.032424
  30 H :    0.020553
  31 H :    0.029267
  32 H :    0.043756
  33 H :   -0.001912

  Mayer bond orders larger than 0.100000
B(  0-S ,  1-C ) :   1.1135 B(  0-S ,  4-C ) :   1.1097 B(  1-C ,  2-C ) :   1.6810
B(  1-C , 32-H ) :   0.9480 B(  2-C ,  3-C ) :   1.2042 B(  2-C ,  6-C ) :   1.0078
B(  3-C ,  4-C ) :   1.6337 B(  3-C ,  5-H ) :   0.9932 B(  4-C , 20-C ) :   1.0212
B(  6-C ,  7-H ) :   0.9415 B(  6-C ,  8-H ) :   0.9511 B(  6-C ,  9-C ) :   1.0573
B(  9-C , 10-H ) :   0.9599 B(  9-C , 11-H ) :   0.9603 B(  9-C , 12-C ) :   1.0668
B( 12-C , 13-H ) :   0.9776 B( 12-C , 14-H ) :   0.9748 B( 12-C , 15-H ) :   0.9750
B( 16-S , 17-C ) :   1.1460 B( 16-S , 20-C ) :   1.1515 B( 17-C , 18-C ) :   1.6324
B( 17-C , 33-H ) :   0.9804 B( 18-C , 19-C ) :   1.2096 B( 18-C , 21-H ) :   0.9905
B( 19-C , 20-C ) :   1.5985 B( 19-C , 22-C ) :   1.0246 B( 22-C , 23-H ) :   0.9266
B( 22-C , 24-H ) :   0.9244 B( 22-C , 25-C ) :   1.0690 B( 25-C , 26-H ) :   0.9487
B( 25-C , 27-H ) :   0.9508 B( 25-C , 28-C ) :   1.0885 B( 28-C , 29-H ) :   0.9713
B( 28-C , 30-H ) :   0.9729 B( 28-C , 31-H ) :   0.9733

Dispersion correction           -0.013897078
FINAL SINGLE POINT ENERGY     -1339.860641007129

DIPOLE MOMENT
-------------
                                X             Y             Z
Electronic contribution:     26.62759      -1.11934      16.20001
Nuclear contribution   :    -27.35944       1.25661     -16.31644
                        -----------------------------------------
Total Dipole Moment    :     -0.73185       0.13727      -0.11643
                        -----------------------------------------
Magnitude (a.u.)       :      0.75366
Magnitude (Debye)      :      1.91565

Rotational constants in cm-1:     0.016138     0.009820     0.006535
Rotational constants in MHz :   483.811535   294.403102   195.908995

                             ****ORCA TERMINATED NORMALLY****
TOTAL RUN TIME: 0 days 0 hours 0 minutes 30 seconds 145 msec
