                         Program Version 4.2.1 -  RELEASE  -
|  1> ! wB97X-D3 SP def2-SVP
|  2> %pal
|  3> nprocs 16
|  4> end
|  5>
|  6> * xyz 0 1
|  7> S 	 -4.64276 	 44.4475 	 44.8311
|  8> C 	 -3.01384 	 44.1539 	 45.2826
|  9> C 	 -2.38277 	 45.293 	 45.7349
| 10> C 	 -3.28321 	 46.3065 	 45.9422
| 11> C 	 -4.54479 	 46.0387 	 45.4895
| 12> H 	 -2.99161 	 47.295 	 46.3975
| 13> C 	 -0.848156 	 45.3564 	 45.9986
| 14> H 	 -0.458875 	 44.3602 	 45.9691
| 15> H 	 -0.647876 	 45.6571 	 47.0593
| 16> C 	 0.0304607 	 46.218 	 44.975
| 17> H 	 -0.17344 	 47.2942 	 45.0778
| 18> H 	 1.11866 	 46.1551 	 45.1422
| 19> C 	 -0.24504 	 45.8553 	 43.4853
| 20> H 	 -1.15867 	 46.4696 	 43.1478
| 21> H 	 0.571512 	 46.1548 	 42.7455
| 22> H 	 -0.44113 	 44.7945 	 43.4356
| 23> S 	 -6.41976 	 47.8545 	 44.3762
| 24> C 	 -7.74609 	 48.3789 	 45.3414
| 25> C 	 -7.56219 	 47.9963 	 46.6532
| 26> C 	 -6.40891 	 47.1879 	 46.8651
| 27> C 	 -5.70231 	 46.9276 	 45.722
| 28> H 	 -8.26489 	 48.22 	 47.4874
| 29> C 	 -6.24099 	 46.4915 	 48.1889
| 30> H 	 -6.4505 	 47.1874 	 48.979
| 31> H 	 -5.17091 	 46.239 	 48.3567
| 32> C 	 -6.98185 	 45.1631 	 48.3159
| 33> H 	 -6.67366 	 44.3894 	 47.5761
| 34> H 	 -8.07189 	 45.316 	 48.1263
| 35> C 	 -6.86739 	 44.4279 	 49.6481
| 36> H 	 -7.37911 	 43.3801 	 49.6336
| 37> H 	 -7.4481 	 45.0002 	 50.3956
| 38> H 	 -5.80634 	 44.3558 	 49.9412
| 39> H 	 -2.51909 	 43.1751 	 45.0381
| 40> H 	 -8.5734 	 48.8662 	 44.9346
| 41> *
| 42>
| 43>                          ****END OF INPUT****

CARTESIAN COORDINATES (ANGSTROEM)
---------------------------------
  S     -4.642760   44.447500   44.831100
  C     -3.013840   44.153900   45.282600
  C     -2.382770   45.293000   45.734900
  C     -3.283210   46.306500   45.942200
  C     -4.544790   46.038700   45.489500
  H     -2.991610   47.295000   46.397500
  C     -0.848156   45.356400   45.998600
  H     -0.458875   44.360200   45.969100
  H     -0.647876   45.657100   47.059300
  C      0.030461   46.218000   44.975000
  H     -0.173440   47.294200   45.077800
  H      1.118660   46.155100   45.142200
  C     -0.245040   45.855300   43.485300
  H     -1.158670   46.469600   43.147800
  H      0.571512   46.154800   42.745500
  H     -0.441130   44.794500   43.435600
  S     -6.419760   47.854500   44.376200
  C     -7.746090   48.378900   45.341400
  C     -7.562190   47.996300   46.653200
  C     -6.408910   47.187900   46.865100
  C     -5.702310   46.927600   45.722000
  H     -8.264890   48.220000   47.487400
  C     -6.240990   46.491500   48.188900
  H     -6.450500   47.187400   48.979000
  H     -5.170910   46.239000   48.356700
  C     -6.981850   45.163100   48.315900
  H     -6.673660   44.389400   47.576100
  H     -8.071890   45.316000   48.126300
  C     -6.867390   44.427900   49.648100
  H     -7.379110   43.380100   49.633600
  H     -7.448100   45.000200   50.395600
  H     -5.806340   44.355800   49.941200
  H     -2.519090   43.175100   45.038100
  H     -8.573400   48.866200   44.934600

 Total Charge           Charge          ....    0
 Multiplicity           Mult            ....    1
 Number of Electrons    NEL             ....  134
 Basis Dimension        Dim             ....  322

ORBITAL ENERGIES
----------------

  NO   OCC          E(Eh)            E(eV)
   0   2.0000     -88.971266     -2421.0312
   1   2.0000     -88.961027     -2420.7526
   2   2.0000     -10.325532      -280.9720
   3   2.0000     -10.325050      -280.9589
   4   2.0000     -10.317088      -280.7422
   5   2.0000     -10.313066      -280.6328
   6   2.0000     -10.303084      -280.3612
   7   2.0000     -10.299688      -280.2688
   8   2.0000     -10.298154      -280.2270
   9   2.0000     -10.294763      -280.1348
  10   2.0000     -10.293721      -280.1064
  11   2.0000     -10.292767      -280.0804
  12   2.0000     -10.289016      -279.9784
  13   2.0000     -10.285443      -279.8811
  14   2.0000     -10.284876      -279.8657
  15   2.0000     -10.284419      -279.8533
  16   2.0000      -8.086757      -220.0518
  17   2.0000      -8.076077      -219.7612
  18   2.0000      -6.044970      -164.4920
  19   2.0000      -6.041162      -164.3884
  20   2.0000      -6.037766      -164.2960
  21   2.0000      -6.034536      -164.2081
  22   2.0000      -6.030478      -164.0976
  23   2.0000      -6.026944      -164.0015
  24   2.0000      -1.014840       -27.6152
  25   2.0000      -0.990843       -26.9622
  26   2.0000      -0.906937       -24.6790
  27   2.0000      -0.900043       -24.4914
  28   2.0000      -0.865697       -23.5568
  29   2.0000      -0.852164       -23.1886
  30   2.0000      -0.847636       -23.0654
  31   2.0000      -0.810427       -22.0528
  32   2.0000      -0.779366       -21.2076
  33   2.0000      -0.769378       -20.9358
  34   2.0000      -0.702967       -19.1287
  35   2.0000      -0.690024       -18.7765
  36   2.0000      -0.686524       -18.6813
  37   2.0000      -0.661912       -18.0115
  38   2.0000      -0.640977       -17.4419
  39   2.0000      -0.622189       -16.9306
  40   2.0000      -0.600790       -16.3483
  41   2.0000      -0.562229       -15.2990
  42   2.0000      -0.557921       -15.1818
  43   2.0000      -0.545791       -14.8517
  44   2.0000      -0.539219       -14.6729
  45   2.0000      -0.521809       -14.1991
  46   2.0000      -0.516906       -14.0657
  47   2.0000      -0.510624       -13.8948
  48   2.0000      -0.502487       -13.6734
  49   2.0000      -0.495322       -13.4784
  50   2.0000      -0.485433       -13.2093
  51   2.0000      -0.474343       -12.9075
  52   2.0000      -0.468095       -12.7375
  53   2.0000      -0.462935       -12.5971
  54   2.0000      -0.460137       -12.5210
  55   2.0000      -0.446812       -12.1584
  56   2.0000      -0.445864       -12.1326
  57   2.0000      -0.439058       -11.9474
  58   2.0000      -0.426278       -11.5996
  59   2.0000      -0.422058       -11.4848
  60   2.0000      -0.416881       -11.3439
  61   2.0000      -0.414024       -11.2662
  62   2.0000      -0.407488       -11.0883
  63   2.0000      -0.341656        -9.2969
  64   2.0000      -0.330619        -8.9966
  65   2.0000      -0.327336        -8.9073
  66   2.0000      -0.307868        -8.3775
  67   0.0000       0.040985         1.1152
  68   0.0000       0.058326         1.5871
  69   0.0000       0.122152         3.3239
  70   0.0000       0.125370         3.4115
  71   0.0000       0.127846         3.4789

MULLIKEN ATOMIC CHARGES
-----------------------
   0 S :    0.141128
   1 C :   -0.159369
   2 C :   -0.066911
   3 C :    0.020675
   4 C :   -0.165971
   5 H :    0.032731
   6 C :    0.071361
   7 H :    0.011444
   8 H :    0.040130
   9 C :   -0.085986
  10 H :    0.031997
  11 H :    0.037829
  12 C :   -0.098068
  13 H :    0.052868
  14 H :    0.049599
  15 H :    0.031030
  16 S :    0.097172
  17 C :   -0.070755
  18 C :   -0.041936
  19 C :   -0.009025
  20 C :   -0.191082
  21 H :    0.030527
  22 C :    0.085301
  23 H :    0.015413
  24 H :    0.018508
  25 C :   -0.086140
  26 H :    0.033823
  27 H :    0.023823
  28 C :   -0.078464
  29 H :    0.051305
  30 H :    0.029044
  31 H :    0.039149
  32 H :    0.067271
  33 H :    0.041575
Sum of atomic charges:    0.0000000

LOEWDIN ATOMIC CHARGES
----------------------
   0 S :    0.444158
   1 C :   -0.208539
   2 C :   -0.074154
   3 C :   -0.061038
   4 C :   -0.211820
   5 H :    0.044442
   6 C :   -0.026696
   7 H :    0.023664
   8 H :    0.035916
   9 C :   -0.046900
  10 H :    0.022093
  11 H :    0.026177
  12 C :   -0.078924
  13 H :    0.037057
  14 H :    0.033492
  15 H :    0.018522
  16 S :    0.397474
  17 C :   -0.178408
  18 C :   -0.076079
  19 C :   -0.056940
  20 C :   -0.190889
  21 H :    0.036906
  22 C :   -0.034009
  23 H :    0.026760
  24 H :    0.033278
  25 C :   -0.049983
  26 H :    0.026880
  27 H :    0.023069
  28 C :   -0.074969
  29 H :    0.039094
  30 H :    0.021512
  31 H :    0.024390
  32 H :    0.035601
  33 H :    0.018862

  Mayer bond orders larger than 0.100000
B(  0-S ,  1-C ) :   1.1759 B(  0-S ,  4-C ) :   1.1703 B(  1-C ,  2-C ) :   1.5696
B(  1-C ,  4-C ) :   0.1018 B(  1-C , 32-H ) :   0.9577 B(  2-C ,  3-C ) :   1.2888
B(  2-C ,  6-C ) :   1.0146 B(  3-C ,  4-C ) :   1.5564 B(  3-C ,  5-H ) :   0.9918
B(  4-C , 20-C ) :   1.0030 B(  6-C ,  7-H ) :   0.9422 B(  6-C ,  8-H ) :   0.9472
B(  6-C ,  9-C ) :   1.0544 B(  9-C , 10-H ) :   0.9636 B(  9-C , 11-H ) :   0.9638
B(  9-C , 12-C ) :   1.0590 B( 12-C , 13-H ) :   0.9744 B( 12-C , 14-H ) :   0.9760
B( 12-C , 15-H ) :   0.9805 B( 16-S , 17-C ) :   1.1671 B( 16-S , 20-C ) :   1.1365
B( 17-C , 18-C ) :   1.5823 B( 17-C , 33-H ) :   0.9790 B( 18-C , 19-C ) :   1.2496
B( 18-C , 21-H ) :   0.9839 B( 19-C , 20-C ) :   1.6161 B( 19-C , 22-C ) :   1.0641
B( 22-C , 23-H ) :   0.9289 B( 22-C , 24-H ) :   0.9215 B( 22-C , 25-C ) :   1.0633
B( 25-C , 26-H ) :   0.9526 B( 25-C , 27-H ) :   0.9547 B( 25-C , 28-C ) :   1.0818
B( 28-C , 29-H ) :   0.9725 B( 28-C , 30-H ) :   0.9759 B( 28-C , 31-H ) :   0.9734

Dispersion correction           -0.014974581
FINAL SINGLE POINT ENERGY     -1339.886835341198

DIPOLE MOMENT
-------------
                                X             Y             Z
Electronic contribution:    -12.39633       5.24225     -12.74656
Nuclear contribution   :     12.63792      -5.32051      13.11830
                        -----------------------------------------
Total Dipole Moment    :      0.24159      -0.07825       0.37175
                        -----------------------------------------
Magnitude (a.u.)       :      0.45020
Magnitude (Debye)      :      1.14433

Rotational constants in cm-1:     0.019498     0.008555     0.007006
Rotational constants in MHz :   584.543331   256.477023   210.048378

                             ****ORCA TERMINATED NORMALLY****
TOTAL RUN TIME: 0 days 0 hours 0 minutes 34 seconds 416 msec
