                         Program Version 4.2.1 -  RELEASE  -
|  1> ! wB97X-D3 SP def2-SVP
|  2> %pal
|  3> nprocs 16
|  4> end
|  5>
|  6> * xyz 0 1
|  7> S 	 -110.354 	 55.2612 	 110.727
|  8> C 	 -109.99 	 54.0688 	 109.543
|  9> C 	 -110.209 	 52.7394 	 109.963
| 10> C 	 -111.029 	 52.7481 	 111.115
| 11> C 	 -111.374 	 54.0182 	 111.607
| 12> H 	 -111.371 	 51.8757 	 111.633
| 13> C 	 -109.843 	 51.4874 	 109.247
| 14> H 	 -109.492 	 50.678 	 109.897
| 15> H 	 -108.897 	 51.5595 	 108.735
| 16> C 	 -110.956 	 51.0028 	 108.282
| 17> H 	 -111.794 	 50.4831 	 108.77
| 18> H 	 -111.36 	 51.8554 	 107.784
| 19> C 	 -110.46 	 49.8227 	 107.338
| 20> H 	 -109.954 	 49.0016 	 107.829
| 21> H 	 -111.325 	 49.3972 	 106.798
| 22> H 	 -109.855 	 50.3039 	 106.592
| 23> S 	 -111.765 	 55.8738 	 113.561
| 24> C 	 -113.014 	 55.7297 	 114.655
| 25> C 	 -113.529 	 54.4991 	 114.655
| 26> C 	 -113.064 	 53.7111 	 113.629
| 27> C 	 -112.073 	 54.3148 	 112.838
| 28> H 	 -114.277 	 54.2591 	 115.447
| 29> C 	 -113.677 	 52.3705 	 113.361
| 30> H 	 -113.559 	 52.1262 	 112.356
| 31> H 	 -114.729 	 52.4464 	 113.642
| 32> C 	 -112.871 	 51.2691 	 114.123
| 33> H 	 -113.279 	 51.0644 	 115.127
| 34> H 	 -111.786 	 51.6384 	 114.332
| 35> C 	 -112.95 	 49.8311 	 113.553
| 36> H 	 -112.618 	 49.9182 	 112.527
| 37> H 	 -113.908 	 49.5455 	 113.525
| 38> H 	 -112.368 	 49.1148 	 113.95
| 39> H 	 -109.411 	 54.2145 	 108.665
| 40> H 	 -113.351 	 56.4144 	 115.474
| 41> *
| 42>
| 43>                          ****END OF INPUT****

CARTESIAN COORDINATES (ANGSTROEM)
---------------------------------
  S    -110.354000   55.261200  110.727000
  C    -109.990000   54.068800  109.543000
  C    -110.209000   52.739400  109.963000
  C    -111.029000   52.748100  111.115000
  C    -111.374000   54.018200  111.607000
  H    -111.371000   51.875700  111.633000
  C    -109.843000   51.487400  109.247000
  H    -109.492000   50.678000  109.897000
  H    -108.897000   51.559500  108.735000
  C    -110.956000   51.002800  108.282000
  H    -111.794000   50.483100  108.770000
  H    -111.360000   51.855400  107.784000
  C    -110.460000   49.822700  107.338000
  H    -109.954000   49.001600  107.829000
  H    -111.325000   49.397200  106.798000
  H    -109.855000   50.303900  106.592000
  S    -111.765000   55.873800  113.561000
  C    -113.014000   55.729700  114.655000
  C    -113.529000   54.499100  114.655000
  C    -113.064000   53.711100  113.629000
  C    -112.073000   54.314800  112.838000
  H    -114.277000   54.259100  115.447000
  C    -113.677000   52.370500  113.361000
  H    -113.559000   52.126200  112.356000
  H    -114.729000   52.446400  113.642000
  C    -112.871000   51.269100  114.123000
  H    -113.279000   51.064400  115.127000
  H    -111.786000   51.638400  114.332000
  C    -112.950000   49.831100  113.553000
  H    -112.618000   49.918200  112.527000
  H    -113.908000   49.545500  113.525000
  H    -112.368000   49.114800  113.950000
  H    -109.411000   54.214500  108.665000
  H    -113.351000   56.414400  115.474000

 Total Charge           Charge          ....    0
 Multiplicity           Mult            ....    1
 Number of Electrons    NEL             ....  134
 Basis Dimension        Dim             ....  322

ORBITAL ENERGIES
----------------

  NO   OCC          E(Eh)            E(eV)
   0   2.0000     -88.971161     -2421.0284
   1   2.0000     -88.961649     -2420.7695
   2   2.0000     -10.337426      -281.2957
   3   2.0000     -10.325654      -280.9753
   4   2.0000     -10.313708      -280.6503
   5   2.0000     -10.306708      -280.4598
   6   2.0000     -10.301972      -280.3309
   7   2.0000     -10.296681      -280.1869
   8   2.0000     -10.294727      -280.1338
   9   2.0000     -10.293743      -280.1070
  10   2.0000     -10.292700      -280.0786
  11   2.0000     -10.289896      -280.0023
  12   2.0000     -10.286875      -279.9201
  13   2.0000     -10.282357      -279.7972
  14   2.0000     -10.281252      -279.7671
  15   2.0000     -10.261570      -279.2315
  16   2.0000      -8.084849      -219.9999
  17   2.0000      -8.078337      -219.8227
  18   2.0000      -6.043443      -164.4504
  19   2.0000      -6.039821      -164.3519
  20   2.0000      -6.036648      -164.2655
  21   2.0000      -6.035263      -164.2279
  22   2.0000      -6.032563      -164.1544
  23   2.0000      -6.029205      -164.0630
  24   2.0000      -1.017135       -27.6777
  25   2.0000      -0.987281       -26.8653
  26   2.0000      -0.911333       -24.7986
  27   2.0000      -0.909034       -24.7361
  28   2.0000      -0.872221       -23.7343
  29   2.0000      -0.858600       -23.3637
  30   2.0000      -0.848674       -23.0936
  31   2.0000      -0.816930       -22.2298
  32   2.0000      -0.787067       -21.4172
  33   2.0000      -0.771535       -20.9945
  34   2.0000      -0.710100       -19.3228
  35   2.0000      -0.704967       -19.1831
  36   2.0000      -0.696277       -18.9467
  37   2.0000      -0.663166       -18.0457
  38   2.0000      -0.639318       -17.3967
  39   2.0000      -0.624999       -17.0071
  40   2.0000      -0.598210       -16.2781
  41   2.0000      -0.574418       -15.6307
  42   2.0000      -0.565743       -15.3946
  43   2.0000      -0.554978       -15.1017
  44   2.0000      -0.535436       -14.5699
  45   2.0000      -0.524617       -14.2756
  46   2.0000      -0.517644       -14.0858
  47   2.0000      -0.514036       -13.9876
  48   2.0000      -0.507311       -13.8046
  49   2.0000      -0.500525       -13.6200
  50   2.0000      -0.498096       -13.5539
  51   2.0000      -0.484230       -13.1766
  52   2.0000      -0.469684       -12.7808
  53   2.0000      -0.468634       -12.7522
  54   2.0000      -0.460075       -12.5193
  55   2.0000      -0.451245       -12.2790
  56   2.0000      -0.449093       -12.2204
  57   2.0000      -0.441336       -12.0094
  58   2.0000      -0.437936       -11.9168
  59   2.0000      -0.430622       -11.7178
  60   2.0000      -0.415506       -11.3065
  61   2.0000      -0.407879       -11.0989
  62   2.0000      -0.403567       -10.9816
  63   2.0000      -0.365532        -9.9466
  64   2.0000      -0.335681        -9.1343
  65   2.0000      -0.327761        -8.9188
  66   2.0000      -0.273919        -7.4537
  67   0.0000       0.014703         0.4001
  68   0.0000       0.075155         2.0451
  69   0.0000       0.099796         2.7156
  70   0.0000       0.126773         3.4497
  71   0.0000       0.134397         3.6571

MULLIKEN ATOMIC CHARGES
-----------------------
   0 S :    0.107881
   1 C :   -0.077595
   2 C :   -0.084704
   3 C :    0.011844
   4 C :   -0.092917
   5 H :   -0.014053
   6 C :    0.065456
   7 H :    0.020809
   8 H :    0.008374
   9 C :   -0.071211
  10 H :    0.032649
  11 H :    0.031780
  12 C :   -0.063956
  13 H :    0.040324
  14 H :    0.036342
  15 H :    0.030424
  16 S :    0.095394
  17 C :   -0.081018
  18 C :   -0.069322
  19 C :   -0.078243
  20 C :   -0.138405
  21 H :    0.027495
  22 C :    0.135886
  23 H :   -0.001596
  24 H :    0.031894
  25 C :   -0.157456
  26 H :    0.026943
  27 H :    0.058713
  28 C :    0.053654
  29 H :    0.000572
  30 H :    0.003500
  31 H :    0.012906
  32 H :    0.032714
  33 H :    0.064923
Sum of atomic charges:   -0.0000000

LOEWDIN ATOMIC CHARGES
----------------------
   0 S :    0.387834
   1 C :   -0.195458
   2 C :   -0.061356
   3 C :   -0.052916
   4 C :   -0.166429
   5 H :    0.025700
   6 C :   -0.043149
   7 H :    0.035793
   8 H :    0.028123
   9 C :   -0.031624
  10 H :    0.025195
  11 H :    0.021601
  12 C :   -0.065984
  13 H :    0.024792
  14 H :    0.029154
  15 H :    0.020173
  16 S :    0.435526
  17 C :   -0.216271
  18 C :   -0.089165
  19 C :   -0.060608
  20 C :   -0.197616
  21 H :    0.040938
  22 C :   -0.021395
  23 H :    0.017411
  24 H :    0.034399
  25 C :   -0.046945
  26 H :    0.023231
  27 H :    0.034847
  28 C :   -0.046418
  29 H :    0.019344
  30 H :    0.011525
  31 H :    0.013880
  32 H :    0.020734
  33 H :    0.045135

  Mayer bond orders larger than 0.100000
B(  0-S ,  1-C ) :   1.1526 B(  0-S ,  4-C ) :   1.1182 B(  1-C ,  2-C ) :   1.5801
B(  1-C ,  4-C ) :   0.1012 B(  1-C , 32-H ) :   0.9655 B(  2-C ,  3-C ) :   1.2599
B(  2-C ,  6-C ) :   1.0532 B(  3-C ,  4-C ) :   1.5323 B(  3-C ,  5-H ) :   0.9996
B(  4-C , 20-C ) :   1.1209 B(  6-C ,  7-H ) :   0.9311 B(  6-C ,  8-H ) :   0.9362
B(  6-C ,  9-C ) :   1.0449 B(  9-C , 10-H ) :   0.9620 B(  9-C , 11-H ) :   0.9622
B(  9-C , 12-C ) :   1.0654 B( 12-C , 13-H ) :   0.9768 B( 12-C , 14-H ) :   0.9776
B( 12-C , 15-H ) :   0.9800 B( 16-S , 17-C ) :   1.1805 B( 16-S , 20-C ) :   1.1364
B( 17-C , 18-C ) :   1.5975 B( 17-C , 33-H ) :   0.9535 B( 18-C , 19-C ) :   1.2906
B( 18-C , 21-H ) :   0.9862 B( 19-C , 20-C ) :   1.5318 B( 19-C , 22-C ) :   1.0570
B( 22-C , 23-H ) :   0.9360 B( 22-C , 24-H ) :   0.9305 B( 22-C , 25-C ) :   1.0306
B( 25-C , 26-H ) :   0.9547 B( 25-C , 27-H ) :   0.9631 B( 25-C , 28-C ) :   1.0755
B( 28-C , 29-H ) :   0.9729 B( 28-C , 30-H ) :   0.9659 B( 28-C , 31-H ) :   0.9702

Dispersion correction           -0.014186925
FINAL SINGLE POINT ENERGY     -1339.837147063487

DIPOLE MOMENT
-------------
                                X             Y             Z
Electronic contribution:      4.03109      31.40289       8.60652
Nuclear contribution   :     -4.17676     -32.13353      -8.57001
                        -----------------------------------------
Total Dipole Moment    :     -0.14567      -0.73064       0.03651
                        -----------------------------------------
Magnitude (a.u.)       :      0.74591
Magnitude (Debye)      :      1.89595

Rotational constants in cm-1:     0.018610     0.009029     0.006325
Rotational constants in MHz :   557.903159   270.671451   189.630138

                             ****ORCA TERMINATED NORMALLY****
TOTAL RUN TIME: 0 days 0 hours 0 minutes 35 seconds 588 msec
