                         Program Version 4.2.1 -  RELEASE  -
|  1> ! wB97X-D3 SP def2-SVP
|  2> %pal
|  3> nprocs 16
|  4> end
|  5>
|  6> * xyz 0 1
|  7> S 	 43.1936 	 20.7424 	 44.7329
|  8> C 	 41.8414 	 19.619 	 44.9144
|  9> C 	 40.8276 	 19.7033 	 43.9698
| 10> C 	 41.0911 	 20.7441 	 43.0922
| 11> C 	 42.2985 	 21.4343 	 43.4169
| 12> H 	 40.4827 	 21.0353 	 42.2677
| 13> C 	 39.7225 	 18.7732 	 43.8079
| 14> H 	 39.8885 	 17.7607 	 44.2612
| 15> H 	 39.7685 	 18.5668 	 42.6988
| 16> C 	 38.3081 	 19.2143 	 44.186
| 17> H 	 38.1086 	 20.0632 	 43.5406
| 18> H 	 37.6183 	 18.3993 	 43.871
| 19> C 	 38.0045 	 19.4952 	 45.6669
| 20> H 	 37.1332 	 20.1142 	 45.8074
| 21> H 	 37.8307 	 18.6147 	 46.2259
| 22> H 	 38.8635 	 19.9749 	 46.0312
| 23> S 	 44.2233 	 21.9237 	 41.5496
| 24> C 	 44.2671 	 23.3597 	 40.5929
| 25> C 	 43.3948 	 24.2926 	 41.1323
| 26> C 	 42.5722 	 23.731 	 42.1819
| 27> C 	 42.9672 	 22.4312 	 42.5514
| 28> H 	 43.3304 	 25.2858 	 40.7109
| 29> C 	 41.3875 	 24.4935 	 42.7375
| 30> H 	 41.7263 	 25.1393 	 43.5544
| 31> H 	 40.8933 	 23.6015 	 43.2088
| 32> C 	 40.4503 	 25.2021 	 41.7376
| 33> H 	 41.0629 	 25.821 	 41.0434
| 34> H 	 39.795 	 25.7491 	 42.4463
| 35> C 	 39.4849 	 24.3119 	 41.0172
| 36> H 	 39.0525 	 23.5891 	 41.6405
| 37> H 	 39.9525 	 23.7279 	 40.2268
| 38> H 	 38.6588 	 24.8621 	 40.6237
| 39> H 	 41.8009 	 18.8287 	 45.5917
| 40> H 	 44.8401 	 23.5571 	 39.7411
| 41> *
| 42>
| 43>                          ****END OF INPUT****

CARTESIAN COORDINATES (ANGSTROEM)
---------------------------------
  S     43.193600   20.742400   44.732900
  C     41.841400   19.619000   44.914400
  C     40.827600   19.703300   43.969800
  C     41.091100   20.744100   43.092200
  C     42.298500   21.434300   43.416900
  H     40.482700   21.035300   42.267700
  C     39.722500   18.773200   43.807900
  H     39.888500   17.760700   44.261200
  H     39.768500   18.566800   42.698800
  C     38.308100   19.214300   44.186000
  H     38.108600   20.063200   43.540600
  H     37.618300   18.399300   43.871000
  C     38.004500   19.495200   45.666900
  H     37.133200   20.114200   45.807400
  H     37.830700   18.614700   46.225900
  H     38.863500   19.974900   46.031200
  S     44.223300   21.923700   41.549600
  C     44.267100   23.359700   40.592900
  C     43.394800   24.292600   41.132300
  C     42.572200   23.731000   42.181900
  C     42.967200   22.431200   42.551400
  H     43.330400   25.285800   40.710900
  C     41.387500   24.493500   42.737500
  H     41.726300   25.139300   43.554400
  H     40.893300   23.601500   43.208800
  C     40.450300   25.202100   41.737600
  H     41.062900   25.821000   41.043400
  H     39.795000   25.749100   42.446300
  C     39.484900   24.311900   41.017200
  H     39.052500   23.589100   41.640500
  H     39.952500   23.727900   40.226800
  H     38.658800   24.862100   40.623700
  H     41.800900   18.828700   45.591700
  H     44.840100   23.557100   39.741100

 Total Charge           Charge          ....    0
 Multiplicity           Mult            ....    1
 Number of Electrons    NEL             ....  134
 Basis Dimension        Dim             ....  322

ORBITAL ENERGIES
----------------

  NO   OCC          E(Eh)            E(eV)
   0   2.0000     -88.976115     -2421.1632
   1   2.0000     -88.961939     -2420.7774
   2   2.0000     -10.333579      -281.1910
   3   2.0000     -10.319220      -280.8002
   4   2.0000     -10.310673      -280.5677
   5   2.0000     -10.309240      -280.5287
   6   2.0000     -10.299779      -280.2712
   7   2.0000     -10.296362      -280.1783
   8   2.0000     -10.296139      -280.1722
   9   2.0000     -10.295645      -280.1587
  10   2.0000     -10.290776      -280.0263
  11   2.0000     -10.289938      -280.0035
  12   2.0000     -10.288790      -279.9722
  13   2.0000     -10.286922      -279.9214
  14   2.0000     -10.268749      -279.4269
  15   2.0000     -10.267155      -279.3835
  16   2.0000      -8.090348      -220.1496
  17   2.0000      -8.078135      -219.8172
  18   2.0000      -6.048506      -164.5882
  19   2.0000      -6.045100      -164.4955
  20   2.0000      -6.041339      -164.3932
  21   2.0000      -6.036556      -164.2630
  22   2.0000      -6.032198      -164.1445
  23   2.0000      -6.029122      -164.0607
  24   2.0000      -1.010148       -27.4875
  25   2.0000      -0.988390       -26.8954
  26   2.0000      -0.918759       -25.0007
  27   2.0000      -0.909335       -24.7443
  28   2.0000      -0.868726       -23.6392
  29   2.0000      -0.855687       -23.2844
  30   2.0000      -0.848618       -23.0921
  31   2.0000      -0.814192       -22.1553
  32   2.0000      -0.788799       -21.4643
  33   2.0000      -0.772771       -21.0282
  34   2.0000      -0.709067       -19.2947
  35   2.0000      -0.699543       -19.0355
  36   2.0000      -0.698313       -19.0021
  37   2.0000      -0.652374       -17.7520
  38   2.0000      -0.640319       -17.4240
  39   2.0000      -0.623615       -16.9694
  40   2.0000      -0.594436       -16.1754
  41   2.0000      -0.574675       -15.6377
  42   2.0000      -0.554358       -15.0848
  43   2.0000      -0.550619       -14.9831
  44   2.0000      -0.546041       -14.8585
  45   2.0000      -0.541616       -14.7381
  46   2.0000      -0.524968       -14.2851
  47   2.0000      -0.512730       -13.9521
  48   2.0000      -0.503259       -13.6944
  49   2.0000      -0.497940       -13.5496
  50   2.0000      -0.487346       -13.2613
  51   2.0000      -0.482653       -13.1337
  52   2.0000      -0.471638       -12.8339
  53   2.0000      -0.469227       -12.7683
  54   2.0000      -0.460398       -12.5281
  55   2.0000      -0.457857       -12.4589
  56   2.0000      -0.445825       -12.1315
  57   2.0000      -0.439190       -11.9510
  58   2.0000      -0.435341       -11.8462
  59   2.0000      -0.422754       -11.5037
  60   2.0000      -0.416148       -11.3240
  61   2.0000      -0.413086       -11.2406
  62   2.0000      -0.405831       -11.0432
  63   2.0000      -0.342154        -9.3105
  64   2.0000      -0.334740        -9.1087
  65   2.0000      -0.318932        -8.6786
  66   2.0000      -0.296158        -8.0589
  67   0.0000       0.037501         1.0205
  68   0.0000       0.060123         1.6360
  69   0.0000       0.104360         2.8398
  70   0.0000       0.123170         3.3516
  71   0.0000       0.125717         3.4209

MULLIKEN ATOMIC CHARGES
-----------------------
   0 S :    0.138142
   1 C :   -0.080626
   2 C :   -0.059699
   3 C :    0.053045
   4 C :   -0.194798
   5 H :    0.003237
   6 C :    0.008463
   7 H :    0.026257
   8 H :    0.042486
   9 C :   -0.079285
  10 H :    0.020667
  11 H :    0.033072
  12 C :    0.002325
  13 H :    0.033661
  14 H :    0.019223
  15 H :    0.020818
  16 S :    0.121788
  17 C :   -0.081014
  18 C :   -0.037412
  19 C :   -0.077322
  20 C :   -0.142875
  21 H :    0.019502
  22 C :    0.041375
  23 H :    0.047127
  24 H :    0.021767
  25 C :   -0.069224
  26 H :    0.041130
  27 H :    0.033488
  28 C :   -0.013360
  29 H :    0.005734
  30 H :    0.029822
  31 H :    0.028026
  32 H :    0.007547
  33 H :    0.036913
Sum of atomic charges:    0.0000000

LOEWDIN ATOMIC CHARGES
----------------------
   0 S :    0.424933
   1 C :   -0.183786
   2 C :   -0.068383
   3 C :   -0.047471
   4 C :   -0.200317
   5 H :    0.027668
   6 C :   -0.042761
   7 H :    0.032906
   8 H :    0.045907
   9 C :   -0.039996
  10 H :    0.019522
  11 H :    0.028145
  12 C :   -0.056547
  13 H :    0.029159
  14 H :    0.020877
  15 H :    0.019805
  16 S :    0.447070
  17 C :   -0.188743
  18 C :   -0.075268
  19 C :   -0.061113
  20 C :   -0.243757
  21 H :    0.028632
  22 C :   -0.043431
  23 H :    0.035164
  24 H :    0.035522
  25 C :   -0.040452
  26 H :    0.026783
  27 H :    0.033973
  28 C :   -0.061366
  29 H :    0.017009
  30 H :    0.025325
  31 H :    0.025476
  32 H :    0.008843
  33 H :    0.020672

  Mayer bond orders larger than 0.100000
B(  0-S ,  1-C ) :   1.1440 B(  0-S ,  4-C ) :   1.1807 B(  1-C ,  2-C ) :   1.5875
B(  1-C ,  4-C ) :   0.1010 B(  1-C , 32-H ) :   0.9669 B(  2-C ,  3-C ) :   1.2715
B(  2-C ,  6-C ) :   1.0244 B(  3-C ,  4-C ) :   1.5313 B(  3-C ,  5-H ) :   0.9965
B(  4-C , 20-C ) :   0.9931 B(  6-C ,  7-H ) :   0.9404 B(  6-C ,  8-H ) :   0.9348
B(  6-C ,  9-C ) :   1.0784 B(  9-C , 10-H ) :   0.9574 B(  9-C , 11-H ) :   0.9546
B(  9-C , 12-C ) :   1.0708 B( 12-C , 13-H ) :   0.9736 B( 12-C , 14-H ) :   0.9735
B( 12-C , 15-H ) :   0.9774 B( 16-S , 17-C ) :   1.1801 B( 16-S , 20-C ) :   1.1668
B( 17-C , 18-C ) :   1.5773 B( 17-C , 33-H ) :   0.9762 B( 18-C , 19-C ) :   1.2600
B( 18-C , 21-H ) :   0.9906 B( 19-C , 20-C ) :   1.5739 B( 19-C , 22-C ) :   1.0280
B( 22-C , 23-H ) :   0.9348 B( 22-C , 24-H ) :   0.9330 B( 22-C , 25-C ) :   1.0688
B( 25-C , 26-H ) :   0.9542 B( 25-C , 27-H ) :   0.9512 B( 25-C , 28-C ) :   1.0884
B( 28-C , 29-H ) :   0.9666 B( 28-C , 30-H ) :   0.9734 B( 28-C , 31-H ) :   0.9723

Dispersion correction           -0.014655646
FINAL SINGLE POINT ENERGY     -1339.864820679780

DIPOLE MOMENT
-------------
                                X             Y             Z
Electronic contribution:     28.32154      -2.74618       0.06533
Nuclear contribution   :    -28.90661       2.73723      -0.25631
                        -----------------------------------------
Total Dipole Moment    :     -0.58508      -0.00895      -0.19098
                        -----------------------------------------
Magnitude (a.u.)       :      0.61552
Magnitude (Debye)      :      1.56453

Rotational constants in cm-1:     0.018896     0.009054     0.006931
Rotational constants in MHz :   566.488696   271.428257   207.776641

                             ****ORCA TERMINATED NORMALLY****
TOTAL RUN TIME: 0 days 0 hours 0 minutes 35 seconds 493 msec
