                         Program Version 4.2.1 -  RELEASE  -
|  1> ! wB97X-D3 SP def2-SVP
|  2> %pal
|  3> nprocs 16
|  4> end
|  5>
|  6> * xyz 0 1
|  7> S 	 0.393228 	 31.2919 	 40.6797
|  8> C 	 1.85621 	 30.8869 	 39.6826
|  9> C 	 1.52949 	 30.3537 	 38.4759
| 10> C 	 0.14718 	 30.3309 	 38.235
| 11> C 	 -0.630479 	 30.8159 	 39.3411
| 12> H 	 -0.345967 	 29.9834 	 37.3958
| 13> C 	 2.46183 	 29.8821 	 37.3916
| 14> H 	 3.23594 	 30.598 	 37.1447
| 15> H 	 1.93286 	 29.9049 	 36.4438
| 16> C 	 2.97148 	 28.4806 	 37.6256
| 17> H 	 3.25096 	 28.4983 	 38.663
| 18> H 	 2.05302 	 27.9183 	 37.4475
| 19> C 	 4.17765 	 28.1137 	 36.7477
| 20> H 	 3.95032 	 28.2055 	 35.6629
| 21> H 	 4.87729 	 28.8536 	 36.91
| 22> H 	 4.65196 	 27.0632 	 37.0057
| 23> S 	 -2.9244 	 29.9938 	 40.6424
| 24> C 	 -4.43152 	 30.2376 	 39.8265
| 25> C 	 -4.32647 	 31.1258 	 38.8295
| 26> C 	 -2.96908 	 31.4685 	 38.4577
| 27> C 	 -2.12075 	 30.8262 	 39.3768
| 28> H 	 -5.12561 	 31.3715 	 38.2454
| 29> C 	 -2.6472 	 32.2857 	 37.2814
| 30> H 	 -3.44883 	 32.1187 	 36.5771
| 31> H 	 -1.74786 	 31.8583 	 36.7721
| 32> C 	 -2.45466 	 33.7668 	 37.5647
| 33> H 	 -3.24253 	 34.1654 	 38.2256
| 34> H 	 -2.62099 	 34.2324 	 36.6211
| 35> C 	 -1.01158 	 34.0655 	 38.0213
| 36> H 	 -0.80804 	 33.7711 	 39.0371
| 37> H 	 -0.827203 	 35.1609 	 37.897
| 38> H 	 -0.337221 	 33.68 	 37.2943
| 39> H 	 2.90069 	 30.8089 	 40.0991
| 40> H 	 -5.2886 	 29.6544 	 40.0959
| 41> *
| 42>
| 43>                          ****END OF INPUT****

CARTESIAN COORDINATES (ANGSTROEM)
---------------------------------
  S      0.393228   31.291900   40.679700
  C      1.856210   30.886900   39.682600
  C      1.529490   30.353700   38.475900
  C      0.147180   30.330900   38.235000
  C     -0.630479   30.815900   39.341100
  H     -0.345967   29.983400   37.395800
  C      2.461830   29.882100   37.391600
  H      3.235940   30.598000   37.144700
  H      1.932860   29.904900   36.443800
  C      2.971480   28.480600   37.625600
  H      3.250960   28.498300   38.663000
  H      2.053020   27.918300   37.447500
  C      4.177650   28.113700   36.747700
  H      3.950320   28.205500   35.662900
  H      4.877290   28.853600   36.910000
  H      4.651960   27.063200   37.005700
  S     -2.924400   29.993800   40.642400
  C     -4.431520   30.237600   39.826500
  C     -4.326470   31.125800   38.829500
  C     -2.969080   31.468500   38.457700
  C     -2.120750   30.826200   39.376800
  H     -5.125610   31.371500   38.245400
  C     -2.647200   32.285700   37.281400
  H     -3.448830   32.118700   36.577100
  H     -1.747860   31.858300   36.772100
  C     -2.454660   33.766800   37.564700
  H     -3.242530   34.165400   38.225600
  H     -2.620990   34.232400   36.621100
  C     -1.011580   34.065500   38.021300
  H     -0.808040   33.771100   39.037100
  H     -0.827203   35.160900   37.897000
  H     -0.337221   33.680000   37.294300
  H      2.900690   30.808900   40.099100
  H     -5.288600   29.654400   40.095900

 Total Charge           Charge          ....    0
 Multiplicity           Mult            ....    1
 Number of Electrons    NEL             ....  134
 Basis Dimension        Dim             ....  322

ORBITAL ENERGIES
----------------

  NO   OCC          E(Eh)            E(eV)
   0   2.0000     -88.971094     -2421.0266
   1   2.0000     -88.963799     -2420.8281
   2   2.0000     -10.334310      -281.2109
   3   2.0000     -10.324634      -280.9476
   4   2.0000     -10.317247      -280.7466
   5   2.0000     -10.310201      -280.5548
   6   2.0000     -10.301015      -280.3049
   7   2.0000     -10.296827      -280.1909
   8   2.0000     -10.288492      -279.9641
   9   2.0000     -10.288110      -279.9537
  10   2.0000     -10.285461      -279.8816
  11   2.0000     -10.285413      -279.8803
  12   2.0000     -10.283943      -279.8403
  13   2.0000     -10.282884      -279.8115
  14   2.0000     -10.282034      -279.7884
  15   2.0000     -10.269739      -279.4538
  16   2.0000      -8.084208      -219.9825
  17   2.0000      -8.079950      -219.8666
  18   2.0000      -6.042785      -164.4325
  19   2.0000      -6.038960      -164.3285
  20   2.0000      -6.038326      -164.3112
  21   2.0000      -6.034987      -164.2203
  22   2.0000      -6.034403      -164.2045
  23   2.0000      -6.030630      -164.1018
  24   2.0000      -1.007203       -27.4074
  25   2.0000      -0.982908       -26.7463
  26   2.0000      -0.917789       -24.9743
  27   2.0000      -0.915082       -24.9007
  28   2.0000      -0.867356       -23.6020
  29   2.0000      -0.850010       -23.1300
  30   2.0000      -0.846842       -23.0437
  31   2.0000      -0.809728       -22.0338
  32   2.0000      -0.784467       -21.3464
  33   2.0000      -0.773313       -21.0429
  34   2.0000      -0.705835       -19.2067
  35   2.0000      -0.702550       -19.1174
  36   2.0000      -0.692149       -18.8343
  37   2.0000      -0.665514       -18.1096
  38   2.0000      -0.637172       -17.3383
  39   2.0000      -0.618497       -16.8302
  40   2.0000      -0.603277       -16.4160
  41   2.0000      -0.577922       -15.7261
  42   2.0000      -0.559297       -15.2192
  43   2.0000      -0.556254       -15.1364
  44   2.0000      -0.540770       -14.7151
  45   2.0000      -0.520061       -14.1516
  46   2.0000      -0.513196       -13.9648
  47   2.0000      -0.509322       -13.8594
  48   2.0000      -0.500361       -13.6155
  49   2.0000      -0.499271       -13.5859
  50   2.0000      -0.488985       -13.3060
  51   2.0000      -0.482775       -13.1370
  52   2.0000      -0.472589       -12.8598
  53   2.0000      -0.462182       -12.5766
  54   2.0000      -0.457341       -12.4449
  55   2.0000      -0.448790       -12.2122
  56   2.0000      -0.443110       -12.0576
  57   2.0000      -0.433107       -11.7854
  58   2.0000      -0.431609       -11.7447
  59   2.0000      -0.427258       -11.6263
  60   2.0000      -0.420478       -11.4418
  61   2.0000      -0.419955       -11.4276
  62   2.0000      -0.415947       -11.3185
  63   2.0000      -0.343243        -9.3401
  64   2.0000      -0.336667        -9.1612
  65   2.0000      -0.327112        -8.9012
  66   2.0000      -0.288747        -7.8572
  67   0.0000       0.032346         0.8802
  68   0.0000       0.064822         1.7639
  69   0.0000       0.103795         2.8244
  70   0.0000       0.122803         3.3416
  71   0.0000       0.129052         3.5117

MULLIKEN ATOMIC CHARGES
-----------------------
   0 S :    0.103784
   1 C :   -0.150350
   2 C :   -0.057121
   3 C :    0.049797
   4 C :   -0.161789
   5 H :   -0.014461
   6 C :    0.037376
   7 H :    0.018901
   8 H :    0.005483
   9 C :   -0.045139
  10 H :    0.024788
  11 H :    0.031531
  12 C :   -0.039051
  13 H :    0.031857
  14 H :    0.011040
  15 H :    0.059852
  16 S :    0.116553
  17 C :   -0.090621
  18 C :    0.025778
  19 C :   -0.047992
  20 C :   -0.172990
  21 H :   -0.022026
  22 C :    0.062568
  23 H :    0.012501
  24 H :    0.020760
  25 C :   -0.043037
  26 H :    0.031274
  27 H :    0.013676
  28 C :   -0.021830
  29 H :    0.046539
  30 H :    0.026519
  31 H :    0.017232
  32 H :    0.065598
  33 H :    0.052998
Sum of atomic charges:    0.0000000

LOEWDIN ATOMIC CHARGES
----------------------
   0 S :    0.384626
   1 C :   -0.193813
   2 C :   -0.061792
   3 C :   -0.058415
   4 C :   -0.182575
   5 H :    0.016100
   6 C :   -0.033481
   7 H :    0.025016
   8 H :    0.025320
   9 C :   -0.037450
  10 H :    0.021639
  11 H :    0.027756
  12 C :   -0.068492
  13 H :    0.028561
  14 H :    0.012418
  15 H :    0.042307
  16 S :    0.420152
  17 C :   -0.180432
  18 C :   -0.058006
  19 C :   -0.048987
  20 C :   -0.214377
  21 H :    0.014400
  22 C :   -0.038537
  23 H :    0.028674
  24 H :    0.036106
  25 C :   -0.033573
  26 H :    0.027201
  27 H :    0.019870
  28 C :   -0.058770
  29 H :    0.022175
  30 H :    0.029629
  31 H :    0.021360
  32 H :    0.038877
  33 H :    0.026512

  Mayer bond orders larger than 0.100000
B(  0-S ,  1-C ) :   1.1109 B(  0-S ,  4-C ) :   1.1662 B(  1-C ,  2-C ) :   1.6298
B(  1-C ,  4-C ) :   0.1022 B(  1-C , 32-H ) :   0.9559 B(  2-C ,  3-C ) :   1.2557
B(  2-C ,  6-C ) :   1.0148 B(  3-C ,  4-C ) :   1.5518 B(  3-C ,  5-H ) :   0.9983
B(  4-C , 20-C ) :   1.0199 B(  6-C ,  7-H ) :   0.9423 B(  6-C ,  8-H ) :   0.9396
B(  6-C ,  9-C ) :   1.0436 B(  9-C , 10-H ) :   0.9638 B(  9-C , 11-H ) :   0.9549
B(  9-C , 12-C ) :   1.0726 B( 12-C , 13-H ) :   0.9726 B( 12-C , 14-H ) :   0.9726
B( 12-C , 15-H ) :   0.9732 B( 16-S , 17-C ) :   1.1459 B( 16-S , 20-C ) :   1.1576
B( 17-C , 18-C ) :   1.6181 B( 17-C , 33-H ) :   0.9731 B( 18-C , 19-C ) :   1.2300
B( 18-C , 21-H ) :   0.9995 B( 19-C , 20-C ) :   1.5789 B( 19-C , 22-C ) :   1.0535
B( 22-C , 23-H ) :   0.9220 B( 22-C , 24-H ) :   0.9257 B( 22-C , 25-C ) :   1.0774
B( 25-C , 26-H ) :   0.9539 B( 25-C , 27-H ) :   0.9496 B( 25-C , 28-C ) :   1.0841
B( 28-C , 29-H ) :   0.9729 B( 28-C , 30-H ) :   0.9723 B( 28-C , 31-H ) :   0.9710

Dispersion correction           -0.015206497
FINAL SINGLE POINT ENERGY     -1339.864563840590

DIPOLE MOMENT
-------------
                                X             Y             Z
Electronic contribution:    -14.22228      -2.55619      20.47581
Nuclear contribution   :     14.20251       2.52421     -21.16651
                        -----------------------------------------
Total Dipole Moment    :     -0.01977      -0.03198      -0.69070
                        -----------------------------------------
Magnitude (a.u.)       :      0.69172
Magnitude (Debye)      :      1.75822

Rotational constants in cm-1:     0.020906     0.007961     0.007230
Rotational constants in MHz :   626.741164   238.651017   216.764573

                             ****ORCA TERMINATED NORMALLY****
TOTAL RUN TIME: 0 days 0 hours 0 minutes 35 seconds 779 msec
