                         Program Version 4.2.1 -  RELEASE  -
|  1> ! wB97X-D3 SP def2-SVP
|  2> %pal
|  3> nprocs 16
|  4> end
|  5>
|  6> * xyz 0 1
|  7> S 	 -43.5289 	 23.8171 	 80.87
|  8> C 	 -44.6376 	 25.1633 	 80.9933
|  9> C 	 -45.7655 	 24.7806 	 81.6702
| 10> C 	 -45.766 	 23.446 	 82.1906
| 11> C 	 -44.6434 	 22.7852 	 81.767
| 12> H 	 -46.5281 	 23.0533 	 82.867
| 13> C 	 -46.8877 	 25.7263 	 81.9176
| 14> H 	 -47.8117 	 25.1471 	 82.1848
| 15> H 	 -47.1235 	 26.1748 	 80.9951
| 16> C 	 -46.4284 	 26.7865 	 82.9584
| 17> H 	 -45.9544 	 26.2378 	 83.7986
| 18> H 	 -45.6337 	 27.4436 	 82.5454
| 19> C 	 -47.54 	 27.6657 	 83.4911
| 20> H 	 -48.2431 	 27.0739 	 84.1593
| 21> H 	 -47.1553 	 28.3699 	 84.2142
| 22> H 	 -48.0888 	 28.0525 	 82.6588
| 23> S 	 -43.9283 	 20.411 	 80.7599
| 24> C 	 -43.6799 	 19.022 	 81.8921
| 25> C 	 -43.9768 	 19.3313 	 83.2101
| 26> C 	 -44.179 	 20.7823 	 83.3432
| 27> C 	 -44.1813 	 21.4607 	 82.1434
| 28> H 	 -43.999 	 18.5401 	 83.9768
| 29> C 	 -44.5453 	 21.374 	 84.6723
| 30> H 	 -45.1674 	 22.3047 	 84.5983
| 31> H 	 -43.555 	 21.5919 	 85.1163
| 32> C 	 -45.2832 	 20.4205 	 85.6791
| 33> H 	 -44.6801 	 19.5275 	 85.8009
| 34> H 	 -46.3214 	 20.2502 	 85.3414
| 35> C 	 -45.392 	 21.0648 	 87.1054
| 36> H 	 -46.2579 	 21.7035 	 87.2831
| 37> H 	 -44.5577 	 21.6487 	 87.4079
| 38> H 	 -45.4384 	 20.3139 	 87.8657
| 39> H 	 -44.4413 	 26.073 	 80.4469
| 40> H 	 -43.6184 	 17.969 	 81.542
| 41> *
| 42>
| 43>                          ****END OF INPUT****

CARTESIAN COORDINATES (ANGSTROEM)
---------------------------------
  S    -43.528900   23.817100   80.870000
  C    -44.637600   25.163300   80.993300
  C    -45.765500   24.780600   81.670200
  C    -45.766000   23.446000   82.190600
  C    -44.643400   22.785200   81.767000
  H    -46.528100   23.053300   82.867000
  C    -46.887700   25.726300   81.917600
  H    -47.811700   25.147100   82.184800
  H    -47.123500   26.174800   80.995100
  C    -46.428400   26.786500   82.958400
  H    -45.954400   26.237800   83.798600
  H    -45.633700   27.443600   82.545400
  C    -47.540000   27.665700   83.491100
  H    -48.243100   27.073900   84.159300
  H    -47.155300   28.369900   84.214200
  H    -48.088800   28.052500   82.658800
  S    -43.928300   20.411000   80.759900
  C    -43.679900   19.022000   81.892100
  C    -43.976800   19.331300   83.210100
  C    -44.179000   20.782300   83.343200
  C    -44.181300   21.460700   82.143400
  H    -43.999000   18.540100   83.976800
  C    -44.545300   21.374000   84.672300
  H    -45.167400   22.304700   84.598300
  H    -43.555000   21.591900   85.116300
  C    -45.283200   20.420500   85.679100
  H    -44.680100   19.527500   85.800900
  H    -46.321400   20.250200   85.341400
  C    -45.392000   21.064800   87.105400
  H    -46.257900   21.703500   87.283100
  H    -44.557700   21.648700   87.407900
  H    -45.438400   20.313900   87.865700
  H    -44.441300   26.073000   80.446900
  H    -43.618400   17.969000   81.542000

 Total Charge           Charge          ....    0
 Multiplicity           Mult            ....    1
 Number of Electrons    NEL             ....  134
 Basis Dimension        Dim             ....  322

ORBITAL ENERGIES
----------------

  NO   OCC          E(Eh)            E(eV)
   0   2.0000     -88.962921     -2420.8042
   1   2.0000     -88.961828     -2420.7744
   2   2.0000     -10.327841      -281.0349
   3   2.0000     -10.323455      -280.9155
   4   2.0000     -10.321800      -280.8704
   5   2.0000     -10.309270      -280.5295
   6   2.0000     -10.306610      -280.4571
   7   2.0000     -10.303045      -280.3601
   8   2.0000     -10.296201      -280.1739
   9   2.0000     -10.295973      -280.1677
  10   2.0000     -10.295945      -280.1669
  11   2.0000     -10.295520      -280.1554
  12   2.0000     -10.289220      -279.9839
  13   2.0000     -10.287550      -279.9385
  14   2.0000     -10.277822      -279.6738
  15   2.0000     -10.275214      -279.6028
  16   2.0000      -8.076951      -219.7850
  17   2.0000      -8.076724      -219.7788
  18   2.0000      -6.035623      -164.2377
  19   2.0000      -6.035251      -164.2275
  20   2.0000      -6.031703      -164.1310
  21   2.0000      -6.031176      -164.1166
  22   2.0000      -6.027497      -164.0165
  23   2.0000      -6.027415      -164.0143
  24   2.0000      -1.004902       -27.3448
  25   2.0000      -0.978457       -26.6252
  26   2.0000      -0.912321       -24.8255
  27   2.0000      -0.902756       -24.5652
  28   2.0000      -0.867996       -23.6194
  29   2.0000      -0.851471       -23.1697
  30   2.0000      -0.844373       -22.9765
  31   2.0000      -0.817952       -22.2576
  32   2.0000      -0.778723       -21.1901
  33   2.0000      -0.765414       -20.8280
  34   2.0000      -0.707073       -19.2404
  35   2.0000      -0.698516       -19.0076
  36   2.0000      -0.691762       -18.8238
  37   2.0000      -0.657559       -17.8931
  38   2.0000      -0.643066       -17.4987
  39   2.0000      -0.621286       -16.9061
  40   2.0000      -0.591027       -16.0827
  41   2.0000      -0.570534       -15.5250
  42   2.0000      -0.562749       -15.3132
  43   2.0000      -0.558345       -15.1933
  44   2.0000      -0.534956       -14.5569
  45   2.0000      -0.527257       -14.3474
  46   2.0000      -0.516752       -14.0615
  47   2.0000      -0.510654       -13.8956
  48   2.0000      -0.502874       -13.6839
  49   2.0000      -0.495080       -13.4718
  50   2.0000      -0.490913       -13.3584
  51   2.0000      -0.477055       -12.9813
  52   2.0000      -0.469162       -12.7665
  53   2.0000      -0.458566       -12.4782
  54   2.0000      -0.456682       -12.4270
  55   2.0000      -0.450875       -12.2689
  56   2.0000      -0.445697       -12.1280
  57   2.0000      -0.436330       -11.8731
  58   2.0000      -0.434705       -11.8289
  59   2.0000      -0.420762       -11.4495
  60   2.0000      -0.419716       -11.4210
  61   2.0000      -0.419152       -11.4057
  62   2.0000      -0.413677       -11.2567
  63   2.0000      -0.344793        -9.3823
  64   2.0000      -0.329796        -8.9742
  65   2.0000      -0.324769        -8.8374
  66   2.0000      -0.293525        -7.9872
  67   0.0000       0.033867         0.9216
  68   0.0000       0.065598         1.7850
  69   0.0000       0.102301         2.7837
  70   0.0000       0.119715         3.2576
  71   0.0000       0.130138         3.5412

MULLIKEN ATOMIC CHARGES
-----------------------
   0 S :    0.104358
   1 C :   -0.131454
   2 C :   -0.109499
   3 C :    0.033385
   4 C :   -0.144062
   5 H :    0.025685
   6 C :    0.091743
   7 H :    0.022864
   8 H :    0.014283
   9 C :   -0.111711
  10 H :    0.031991
  11 H :    0.036653
  12 C :   -0.022935
  13 H :    0.025447
  14 H :    0.034422
  15 H :    0.032113
  16 S :    0.090553
  17 C :   -0.095425
  18 C :   -0.057182
  19 C :   -0.021892
  20 C :   -0.139313
  21 H :    0.040277
  22 C :    0.030348
  23 H :    0.037511
  24 H :    0.041344
  25 C :   -0.094622
  26 H :    0.036668
  27 H :    0.046981
  28 C :   -0.033808
  29 H :    0.030503
  30 H :    0.015835
  31 H :    0.019406
  32 H :    0.050899
  33 H :    0.068635
Sum of atomic charges:   -0.0000000

LOEWDIN ATOMIC CHARGES
----------------------
   0 S :    0.399518
   1 C :   -0.198377
   2 C :   -0.061366
   3 C :   -0.062715
   4 C :   -0.185936
   5 H :    0.037105
   6 C :   -0.033132
   7 H :    0.032642
   8 H :    0.023139
   9 C :   -0.041609
  10 H :    0.026281
  11 H :    0.027057
  12 C :   -0.068697
  13 H :    0.028742
  14 H :    0.026458
  15 H :    0.021776
  16 S :    0.378126
  17 C :   -0.170893
  18 C :   -0.070159
  19 C :   -0.055964
  20 C :   -0.203681
  21 H :    0.038528
  22 C :   -0.038200
  23 H :    0.032859
  24 H :    0.039626
  25 C :   -0.034362
  26 H :    0.021191
  27 H :    0.030091
  28 C :   -0.067449
  29 H :    0.025363
  30 H :    0.019848
  31 H :    0.023271
  32 H :    0.026596
  33 H :    0.034322

  Mayer bond orders larger than 0.100000
B(  0-S ,  1-C ) :   1.1250 B(  0-S ,  4-C ) :   1.1671 B(  1-C ,  2-C ) :   1.6061
B(  1-C , 32-H ) :   0.9759 B(  2-C ,  3-C ) :   1.2360 B(  2-C ,  6-C ) :   1.0331
B(  3-C ,  4-C ) :   1.5783 B(  3-C ,  5-H ) :   0.9931 B(  4-C , 20-C ) :   0.9958
B(  6-C ,  7-H ) :   0.9465 B(  6-C ,  8-H ) :   0.9271 B(  6-C ,  9-C ) :   1.0495
B(  9-C , 10-H ) :   0.9594 B(  9-C , 11-H ) :   0.9535 B(  9-C , 12-C ) :   1.0899
B( 12-C , 13-H ) :   0.9739 B( 12-C , 14-H ) :   0.9718 B( 12-C , 15-H ) :   0.9715
B( 16-S , 17-C ) :   1.1341 B( 16-S , 20-C ) :   1.1249 B( 17-C , 18-C ) :   1.6624
B( 17-C , 33-H ) :   0.9580 B( 18-C , 19-C ) :   1.1883 B( 18-C , 21-H ) :   0.9812
B( 19-C , 20-C ) :   1.6534 B( 19-C , 22-C ) :   1.0352 B( 22-C , 23-H ) :   0.9480
B( 22-C , 24-H ) :   0.9195 B( 22-C , 25-C ) :   1.0809 B( 25-C , 26-H ) :   0.9478
B( 25-C , 27-H ) :   0.9606 B( 25-C , 28-C ) :   1.0763 B( 28-C , 29-H ) :   0.9773
B( 28-C , 30-H ) :   0.9744 B( 28-C , 31-H ) :   0.9758

Dispersion correction           -0.013620640
FINAL SINGLE POINT ENERGY     -1339.877205830077

DIPOLE MOMENT
-------------
                                X             Y             Z
Electronic contribution:     15.40563     -12.05278     -24.43759
Nuclear contribution   :    -15.89325      12.14425      25.07412
                        -----------------------------------------
Total Dipole Moment    :     -0.48761       0.09147       0.63652
                        -----------------------------------------
Magnitude (a.u.)       :      0.80703
Magnitude (Debye)      :      2.05131

Rotational constants in cm-1:     0.017125     0.008724     0.006171
Rotational constants in MHz :   513.380408   261.538803   185.008295

                             ****ORCA TERMINATED NORMALLY****
TOTAL RUN TIME: 0 days 0 hours 0 minutes 29 seconds 504 msec
