                         Program Version 4.2.1 -  RELEASE  -
|  1> ! wB97X-D3 SP def2-SVP
|  2> %pal
|  3> nprocs 16
|  4> end
|  5>
|  6> * xyz 0 1
|  7> S 	 -112.871 	 47.7367 	 134.691
|  8> C 	 -113.271 	 47.3444 	 133.067
|  9> C 	 -114.305 	 48.0957 	 132.579
| 10> C 	 -114.715 	 49.125 	 133.504
| 11> C 	 -113.993 	 49.0923 	 134.669
| 12> H 	 -115.472 	 49.9347 	 133.316
| 13> C 	 -114.83 	 48.0577 	 131.101
| 14> H 	 -114.155 	 47.461 	 130.544
| 15> H 	 -114.595 	 49.0022 	 130.656
| 16> C 	 -116.265 	 47.5513 	 130.654
| 17> H 	 -116.334 	 47.5273 	 129.58
| 18> H 	 -116.386 	 46.5428 	 131.072
| 19> C 	 -117.345 	 48.4833 	 131.329
| 20> H 	 -118.185 	 48.1294 	 130.754
| 21> H 	 -117.239 	 48.1909 	 132.359
| 22> H 	 -117.165 	 49.5461 	 131.354
| 23> S 	 -114.37 	 49.185 	 137.459
| 24> C 	 -114.616 	 50.7591 	 138.129
| 25> C 	 -114.605 	 51.7694 	 137.228
| 26> C 	 -114.348 	 51.3779 	 135.887
| 27> C 	 -114.118 	 49.9934 	 135.85
| 28> H 	 -114.826 	 52.7139 	 137.551
| 29> C 	 -114.347 	 52.3557 	 134.729
| 30> H 	 -115.187 	 52.9472 	 134.996
| 31> H 	 -114.487 	 51.7217 	 133.774
| 32> C 	 -113.044 	 53.1852 	 134.559
| 33> H 	 -112.261 	 52.5192 	 134.262
| 34> H 	 -112.861 	 53.5702 	 135.59
| 35> C 	 -113.236 	 54.4207 	 133.626
| 36> H 	 -112.303 	 54.9829 	 133.632
| 37> H 	 -113.983 	 55.0337 	 134.014
| 38> H 	 -113.654 	 54.1655 	 132.646
| 39> H 	 -112.862 	 46.5631 	 132.457
| 40> H 	 -114.86 	 51.0059 	 139.129
| 41> *
| 42>
| 43>                          ****END OF INPUT****

CARTESIAN COORDINATES (ANGSTROEM)
---------------------------------
  S    -112.871000   47.736700  134.691000
  C    -113.271000   47.344400  133.067000
  C    -114.305000   48.095700  132.579000
  C    -114.715000   49.125000  133.504000
  C    -113.993000   49.092300  134.669000
  H    -115.472000   49.934700  133.316000
  C    -114.830000   48.057700  131.101000
  H    -114.155000   47.461000  130.544000
  H    -114.595000   49.002200  130.656000
  C    -116.265000   47.551300  130.654000
  H    -116.334000   47.527300  129.580000
  H    -116.386000   46.542800  131.072000
  C    -117.345000   48.483300  131.329000
  H    -118.185000   48.129400  130.754000
  H    -117.239000   48.190900  132.359000
  H    -117.165000   49.546100  131.354000
  S    -114.370000   49.185000  137.459000
  C    -114.616000   50.759100  138.129000
  C    -114.605000   51.769400  137.228000
  C    -114.348000   51.377900  135.887000
  C    -114.118000   49.993400  135.850000
  H    -114.826000   52.713900  137.551000
  C    -114.347000   52.355700  134.729000
  H    -115.187000   52.947200  134.996000
  H    -114.487000   51.721700  133.774000
  C    -113.044000   53.185200  134.559000
  H    -112.261000   52.519200  134.262000
  H    -112.861000   53.570200  135.590000
  C    -113.236000   54.420700  133.626000
  H    -112.303000   54.982900  133.632000
  H    -113.983000   55.033700  134.014000
  H    -113.654000   54.165500  132.646000
  H    -112.862000   46.563100  132.457000
  H    -114.860000   51.005900  139.129000

 Total Charge           Charge          ....    0
 Multiplicity           Mult            ....    1
 Number of Electrons    NEL             ....  134
 Basis Dimension        Dim             ....  322

ORBITAL ENERGIES
----------------

  NO   OCC          E(Eh)            E(eV)
   0   2.0000     -88.968303     -2420.9506
   1   2.0000     -88.966379     -2420.8983
   2   2.0000     -10.332266      -281.1552
   3   2.0000     -10.330076      -281.0957
   4   2.0000     -10.309920      -280.5472
   5   2.0000     -10.309842      -280.5451
   6   2.0000     -10.305069      -280.4152
   7   2.0000     -10.303826      -280.3813
   8   2.0000     -10.297419      -280.2070
   9   2.0000     -10.297368      -280.2056
  10   2.0000     -10.292726      -280.0793
  11   2.0000     -10.290550      -280.0201
  12   2.0000     -10.288342      -279.9600
  13   2.0000     -10.282504      -279.8011
  14   2.0000     -10.277238      -279.6579
  15   2.0000     -10.273988      -279.5694
  16   2.0000      -8.082376      -219.9326
  17   2.0000      -8.081583      -219.9110
  18   2.0000      -6.040895      -164.3811
  19   2.0000      -6.040074      -164.3588
  20   2.0000      -6.037197      -164.2805
  21   2.0000      -6.036071      -164.2498
  22   2.0000      -6.032954      -164.1650
  23   2.0000      -6.032298      -164.1472
  24   2.0000      -1.004748       -27.3406
  25   2.0000      -0.984961       -26.8022
  26   2.0000      -0.908081       -24.7101
  27   2.0000      -0.900515       -24.5043
  28   2.0000      -0.867281       -23.5999
  29   2.0000      -0.854218       -23.2445
  30   2.0000      -0.844266       -22.9736
  31   2.0000      -0.816373       -22.2146
  32   2.0000      -0.785734       -21.3809
  33   2.0000      -0.772595       -21.0234
  34   2.0000      -0.708321       -19.2744
  35   2.0000      -0.699124       -19.0241
  36   2.0000      -0.693666       -18.8756
  37   2.0000      -0.663635       -18.0584
  38   2.0000      -0.638911       -17.3857
  39   2.0000      -0.615809       -16.7570
  40   2.0000      -0.590803       -16.0766
  41   2.0000      -0.572693       -15.5838
  42   2.0000      -0.565000       -15.3744
  43   2.0000      -0.552888       -15.0448
  44   2.0000      -0.532825       -14.4989
  45   2.0000      -0.530268       -14.4293
  46   2.0000      -0.515272       -14.0213
  47   2.0000      -0.514341       -13.9959
  48   2.0000      -0.501787       -13.6543
  49   2.0000      -0.494308       -13.4508
  50   2.0000      -0.493608       -13.4318
  51   2.0000      -0.478879       -13.0310
  52   2.0000      -0.472184       -12.8488
  53   2.0000      -0.464362       -12.6359
  54   2.0000      -0.459423       -12.5015
  55   2.0000      -0.453128       -12.3302
  56   2.0000      -0.448979       -12.2173
  57   2.0000      -0.441684       -12.0188
  58   2.0000      -0.437114       -11.8945
  59   2.0000      -0.424727       -11.5574
  60   2.0000      -0.424268       -11.5449
  61   2.0000      -0.416781       -11.3412
  62   2.0000      -0.395229       -10.7547
  63   2.0000      -0.351000        -9.5512
  64   2.0000      -0.334492        -9.1020
  65   2.0000      -0.330524        -8.9940
  66   2.0000      -0.289849        -7.8872
  67   0.0000       0.032176         0.8756
  68   0.0000       0.069630         1.8947
  69   0.0000       0.105675         2.8756
  70   0.0000       0.116076         3.1586
  71   0.0000       0.133581         3.6349

MULLIKEN ATOMIC CHARGES
-----------------------
   0 S :    0.114216
   1 C :   -0.097206
   2 C :   -0.092956
   3 C :    0.004179
   4 C :   -0.167837
   5 H :    0.041699
   6 C :    0.049405
   7 H :   -0.008165
   8 H :    0.023791
   9 C :   -0.078365
  10 H :    0.035230
  11 H :    0.038938
  12 C :   -0.052046
  13 H :    0.044194
  14 H :    0.040141
  15 H :    0.033457
  16 S :    0.105321
  17 C :   -0.051037
  18 C :   -0.018573
  19 C :   -0.042583
  20 C :   -0.148318
  21 H :   -0.026010
  22 C :    0.056395
  23 H :    0.020409
  24 H :    0.034457
  25 C :   -0.071206
  26 H :    0.038922
  27 H :    0.027422
  28 C :   -0.008199
  29 H :    0.045261
  30 H :    0.007139
  31 H :    0.029207
  32 H :    0.038228
  33 H :    0.034494
Sum of atomic charges:   -0.0000000

LOEWDIN ATOMIC CHARGES
----------------------
   0 S :    0.409816
   1 C :   -0.202673
   2 C :   -0.064516
   3 C :   -0.074823
   4 C :   -0.190425
   5 H :    0.040102
   6 C :   -0.036368
   7 H :    0.019649
   8 H :    0.026844
   9 C :   -0.026580
  10 H :    0.019626
  11 H :    0.028114
  12 C :   -0.067097
  13 H :    0.028789
  14 H :    0.027918
  15 H :    0.019307
  16 S :    0.385449
  17 C :   -0.179286
  18 C :   -0.065648
  19 C :   -0.049541
  20 C :   -0.179501
  21 H :    0.014931
  22 C :   -0.033912
  23 H :    0.026623
  24 H :    0.038659
  25 C :   -0.031083
  26 H :    0.024255
  27 H :    0.026576
  28 C :   -0.060997
  29 H :    0.031473
  30 H :    0.015929
  31 H :    0.026641
  32 H :    0.028066
  33 H :    0.023682

  Mayer bond orders larger than 0.100000
B(  0-S ,  1-C ) :   1.1323 B(  0-S ,  4-C ) :   1.1488 B(  1-C ,  2-C ) :   1.6542
B(  1-C , 32-H ) :   0.9622 B(  2-C ,  3-C ) :   1.2190 B(  2-C ,  6-C ) :   1.0051
B(  3-C ,  4-C ) :   1.6063 B(  3-C ,  5-H ) :   0.9745 B(  4-C , 20-C ) :   1.0142
B(  6-C ,  7-H ) :   0.9379 B(  6-C ,  8-H ) :   0.9469 B(  6-C ,  9-C ) :   1.0682
B(  9-C , 10-H ) :   0.9604 B(  9-C , 11-H ) :   0.9583 B(  9-C , 12-C ) :   1.0550
B( 12-C , 13-H ) :   0.9779 B( 12-C , 14-H ) :   0.9764 B( 12-C , 15-H ) :   0.9799
B( 16-S , 17-C ) :   1.1385 B( 16-S , 20-C ) :   1.1308 B( 17-C , 18-C ) :   1.6511
B( 17-C , 33-H ) :   0.9637 B( 18-C , 19-C ) :   1.2176 B( 18-C , 21-H ) :   1.0003
B( 19-C , 20-C ) :   1.6159 B( 19-C , 22-C ) :   1.0294 B( 22-C , 23-H ) :   0.9304
B( 22-C , 24-H ) :   0.9247 B( 22-C , 25-C ) :   1.0696 B( 25-C , 26-H ) :   0.9573
B( 25-C , 27-H ) :   0.9586 B( 25-C , 28-C ) :   1.0742 B( 28-C , 29-H ) :   0.9747
B( 28-C , 30-H ) :   0.9726 B( 28-C , 31-H ) :   0.9743

Dispersion correction           -0.013943862
FINAL SINGLE POINT ENERGY     -1339.855862029713

DIPOLE MOMENT
-------------
                                X             Y             Z
Electronic contribution:      8.61421     -14.99523      21.82815
Nuclear contribution   :     -8.87174      15.48131     -22.25641
                        -----------------------------------------
Total Dipole Moment    :     -0.25753       0.48608      -0.42826
                        -----------------------------------------
Magnitude (a.u.)       :      0.69714
Magnitude (Debye)      :      1.77199

Rotational constants in cm-1:     0.015971     0.008862     0.007028
Rotational constants in MHz :   478.809789   265.662297   210.697207

                             ****ORCA TERMINATED NORMALLY****
TOTAL RUN TIME: 0 days 0 hours 0 minutes 33 seconds 283 msec
