                         Program Version 4.2.1 -  RELEASE  -
|  1> ! wB97X-D3 SP def2-SVP
|  2> %pal
|  3> nprocs 16
|  4> end
|  5>
|  6> * xyz 0 1
|  7> S 	 6.03092 	 -10.892 	 90.4129
|  8> C 	 7.38994 	 -10.0407 	 91.0932
|  9> C 	 7.20543 	 -8.62832 	 91.0555
| 10> C 	 5.86819 	 -8.34386 	 90.628
| 11> C 	 5.13813 	 -9.39406 	 90.1477
| 12> H 	 5.42865 	 -7.31626 	 90.5292
| 13> C 	 8.19395 	 -7.59162 	 91.4308
| 14> H 	 8.18555 	 -6.76658 	 90.7763
| 15> H 	 9.21264 	 -8.01993 	 91.3907
| 16> C 	 8.10003 	 -7.19576 	 92.9189
| 17> H 	 8.79075 	 -6.38889 	 93.0639
| 18> H 	 7.08366 	 -6.78068 	 93.2066
| 19> C 	 8.42699 	 -8.27961 	 93.9736
| 20> H 	 7.97105 	 -7.99426 	 94.8967
| 21> H 	 7.90353 	 -9.21243 	 93.7188
| 22> H 	 9.53332 	 -8.515 	 94.1543
| 23> S 	 3.39392 	 -10.3965 	 88.2472
| 24> C 	 1.66557 	 -10.0221 	 88.3328
| 25> C 	 1.34481 	 -9.14443 	 89.3645
| 26> C 	 2.51031 	 -8.84782 	 90.1459
| 27> C 	 3.70276 	 -9.40006 	 89.651
| 28> H 	 0.34442 	 -8.95728 	 89.6174
| 29> C 	 2.31057 	 -7.95571 	 91.3669
| 30> H 	 1.31626 	 -7.5628 	 91.2925
| 31> H 	 3.12922 	 -7.23615 	 91.4764
| 32> C 	 2.39718 	 -8.65355 	 92.7406
| 33> H 	 3.30995 	 -9.1925 	 92.6859
| 34> H 	 1.55372 	 -9.34364 	 92.7136
| 35> C 	 2.58202 	 -7.69204 	 93.9426
| 36> H 	 3.38751 	 -6.90191 	 93.8903
| 37> H 	 2.78402 	 -8.29382 	 94.8277
| 38> H 	 1.58973 	 -7.27986 	 94.218
| 39> H 	 8.33951 	 -10.508 	 91.33
| 40> H 	 0.923611 	 -10.4499 	 87.7308
| 41> *
| 42>
| 43>                          ****END OF INPUT****

CARTESIAN COORDINATES (ANGSTROEM)
---------------------------------
  S      6.030920  -10.892000   90.412900
  C      7.389940  -10.040700   91.093200
  C      7.205430   -8.628320   91.055500
  C      5.868190   -8.343860   90.628000
  C      5.138130   -9.394060   90.147700
  H      5.428650   -7.316260   90.529200
  C      8.193950   -7.591620   91.430800
  H      8.185550   -6.766580   90.776300
  H      9.212640   -8.019930   91.390700
  C      8.100030   -7.195760   92.918900
  H      8.790750   -6.388890   93.063900
  H      7.083660   -6.780680   93.206600
  C      8.426990   -8.279610   93.973600
  H      7.971050   -7.994260   94.896700
  H      7.903530   -9.212430   93.718800
  H      9.533320   -8.515000   94.154300
  S      3.393920  -10.396500   88.247200
  C      1.665570  -10.022100   88.332800
  C      1.344810   -9.144430   89.364500
  C      2.510310   -8.847820   90.145900
  C      3.702760   -9.400060   89.651000
  H      0.344420   -8.957280   89.617400
  C      2.310570   -7.955710   91.366900
  H      1.316260   -7.562800   91.292500
  H      3.129220   -7.236150   91.476400
  C      2.397180   -8.653550   92.740600
  H      3.309950   -9.192500   92.685900
  H      1.553720   -9.343640   92.713600
  C      2.582020   -7.692040   93.942600
  H      3.387510   -6.901910   93.890300
  H      2.784020   -8.293820   94.827700
  H      1.589730   -7.279860   94.218000
  H      8.339510  -10.508000   91.330000
  H      0.923611  -10.449900   87.730800

 Total Charge           Charge          ....    0
 Multiplicity           Mult            ....    1
 Number of Electrons    NEL             ....  134
 Basis Dimension        Dim             ....  322

ORBITAL ENERGIES
----------------

  NO   OCC          E(Eh)            E(eV)
   0   2.0000     -88.969230     -2420.9758
   1   2.0000     -88.968491     -2420.9557
   2   2.0000     -10.334622      -281.2194
   3   2.0000     -10.334041      -281.2035
   4   2.0000     -10.319442      -280.8063
   5   2.0000     -10.317778      -280.7610
   6   2.0000     -10.307103      -280.4705
   7   2.0000     -10.306567      -280.4560
   8   2.0000     -10.297406      -280.2067
   9   2.0000     -10.294020      -280.1145
  10   2.0000     -10.292496      -280.0731
  11   2.0000     -10.292039      -280.0606
  12   2.0000     -10.286140      -279.9001
  13   2.0000     -10.285545      -279.8839
  14   2.0000     -10.280949      -279.7588
  15   2.0000     -10.279983      -279.7326
  16   2.0000      -8.083497      -219.9631
  17   2.0000      -8.082911      -219.9472
  18   2.0000      -6.041998      -164.4111
  19   2.0000      -6.041433      -164.3957
  20   2.0000      -6.038015      -164.3027
  21   2.0000      -6.037411      -164.2863
  22   2.0000      -6.034355      -164.2032
  23   2.0000      -6.033720      -164.1859
  24   2.0000      -1.002202       -27.2713
  25   2.0000      -0.982458       -26.7340
  26   2.0000      -0.913915       -24.8689
  27   2.0000      -0.906779       -24.6747
  28   2.0000      -0.863343       -23.4928
  29   2.0000      -0.848782       -23.0965
  30   2.0000      -0.844963       -22.9926
  31   2.0000      -0.815635       -22.1946
  32   2.0000      -0.784025       -21.3344
  33   2.0000      -0.772088       -21.0096
  34   2.0000      -0.703970       -19.1560
  35   2.0000      -0.695710       -18.9312
  36   2.0000      -0.684729       -18.6324
  37   2.0000      -0.668254       -18.1841
  38   2.0000      -0.642151       -17.4738
  39   2.0000      -0.620735       -16.8911
  40   2.0000      -0.593758       -16.1570
  41   2.0000      -0.575605       -15.6630
  42   2.0000      -0.573042       -15.5933
  43   2.0000      -0.552866       -15.0442
  44   2.0000      -0.538882       -14.6637
  45   2.0000      -0.517201       -14.0738
  46   2.0000      -0.511880       -13.9290
  47   2.0000      -0.506197       -13.7743
  48   2.0000      -0.501090       -13.6353
  49   2.0000      -0.497645       -13.5416
  50   2.0000      -0.488021       -13.2797
  51   2.0000      -0.485026       -13.1982
  52   2.0000      -0.470265       -12.7966
  53   2.0000      -0.466654       -12.6983
  54   2.0000      -0.463926       -12.6241
  55   2.0000      -0.446492       -12.1497
  56   2.0000      -0.446268       -12.1436
  57   2.0000      -0.437355       -11.9010
  58   2.0000      -0.430954       -11.7269
  59   2.0000      -0.421590       -11.4720
  60   2.0000      -0.420432       -11.4405
  61   2.0000      -0.417860       -11.3706
  62   2.0000      -0.408997       -11.1294
  63   2.0000      -0.347789        -9.4638
  64   2.0000      -0.333781        -9.0826
  65   2.0000      -0.328611        -8.9420
  66   2.0000      -0.291443        -7.9306
  67   0.0000       0.028155         0.7661
  68   0.0000       0.066080         1.7981
  69   0.0000       0.107603         2.9280
  70   0.0000       0.117964         3.2100
  71   0.0000       0.124875         3.3980

MULLIKEN ATOMIC CHARGES
-----------------------
   0 S :    0.113215
   1 C :   -0.117300
   2 C :   -0.106297
   3 C :   -0.008091
   4 C :   -0.121825
   5 H :    0.033945
   6 C :    0.107049
   7 H :    0.024980
   8 H :    0.019068
   9 C :   -0.093007
  10 H :    0.026310
  11 H :    0.031112
  12 C :   -0.068117
  13 H :    0.026774
  14 H :    0.035249
  15 H :    0.045062
  16 S :    0.106298
  17 C :   -0.072364
  18 C :   -0.016233
  19 C :   -0.049539
  20 C :   -0.161162
  21 H :    0.009281
  22 C :    0.086270
  23 H :    0.011951
  24 H :    0.011666
  25 C :   -0.074976
  26 H :    0.028218
  27 H :    0.025929
  28 C :   -0.056843
  29 H :    0.050824
  30 H :    0.031483
  31 H :    0.029022
  32 H :    0.054135
  33 H :    0.037914
Sum of atomic charges:   -0.0000000

LOEWDIN ATOMIC CHARGES
----------------------
   0 S :    0.405996
   1 C :   -0.202578
   2 C :   -0.058231
   3 C :   -0.073431
   4 C :   -0.195068
   5 H :    0.039241
   6 C :   -0.031185
   7 H :    0.028087
   8 H :    0.037040
   9 C :   -0.039107
  10 H :    0.019955
  11 H :    0.026213
  12 C :   -0.074294
  13 H :    0.024453
  14 H :    0.025984
  15 H :    0.031490
  16 S :    0.405165
  17 C :   -0.165899
  18 C :   -0.063390
  19 C :   -0.052563
  20 C :   -0.201816
  21 H :    0.026199
  22 C :   -0.029104
  23 H :    0.023499
  24 H :    0.026892
  25 C :   -0.037553
  26 H :    0.020252
  27 H :    0.023582
  28 C :   -0.073289
  29 H :    0.034035
  30 H :    0.028560
  31 H :    0.026175
  32 H :    0.027189
  33 H :    0.017500

  Mayer bond orders larger than 0.100000
B(  0-S ,  1-C ) :   1.1535 B(  0-S ,  4-C ) :   1.1443 B(  1-C ,  2-C ) :   1.5782
B(  1-C ,  4-C ) :   0.1024 B(  1-C , 32-H ) :   0.9632 B(  2-C ,  3-C ) :   1.2417
B(  2-C ,  6-C ) :   1.0478 B(  3-C ,  4-C ) :   1.6038 B(  3-C ,  5-H ) :   0.9822
B(  4-C , 20-C ) :   1.0038 B(  6-C ,  7-H ) :   0.9385 B(  6-C ,  8-H ) :   0.9336
B(  6-C ,  9-C ) :   1.0622 B(  9-C , 10-H ) :   0.9567 B(  9-C , 11-H ) :   0.9603
B(  9-C , 12-C ) :   1.0735 B( 12-C , 13-H ) :   0.9729 B( 12-C , 14-H ) :   0.9711
B( 12-C , 15-H ) :   0.9745 B( 16-S , 17-C ) :   1.1615 B( 16-S , 20-C ) :   1.1414
B( 17-C , 18-C ) :   1.6074 B( 17-C , 33-H ) :   0.9703 B( 18-C , 19-C ) :   1.2516
B( 18-C , 21-H ) :   0.9915 B( 19-C , 20-C ) :   1.5904 B( 19-C , 22-C ) :   1.0511
B( 22-C , 23-H ) :   0.9354 B( 22-C , 24-H ) :   0.9353 B( 22-C , 25-C ) :   1.0551
B( 25-C , 26-H ) :   0.9606 B( 25-C , 27-H ) :   0.9570 B( 25-C , 28-C ) :   1.0782
B( 28-C , 29-H ) :   0.9707 B( 28-C , 30-H ) :   0.9727 B( 28-C , 31-H ) :   0.9750

Dispersion correction           -0.014608197
FINAL SINGLE POINT ENERGY     -1339.873031775673

DIPOLE MOMENT
-------------
                                X             Y             Z
Electronic contribution:     -4.52336     -16.20028     -25.07762
Nuclear contribution   :      4.49507      16.59797      25.51092
                        -----------------------------------------
Total Dipole Moment    :     -0.02829       0.39769       0.43329
                        -----------------------------------------
Magnitude (a.u.)       :      0.58881
Magnitude (Debye)      :      1.49665

Rotational constants in cm-1:     0.019222     0.009139     0.006916
Rotational constants in MHz :   576.267303   273.965584   207.334020

                             ****ORCA TERMINATED NORMALLY****
TOTAL RUN TIME: 0 days 0 hours 0 minutes 34 seconds 460 msec
