                         Program Version 4.2.1 -  RELEASE  -
|  1> ! wB97X-D3 SP def2-SVP
|  2> %pal
|  3> nprocs 16
|  4> end
|  5>
|  6> * xyz 0 1
|  7> S 	 -90.8824 	 40.7616 	 118.036
|  8> C 	 -89.8835 	 39.6662 	 119.008
|  9> C 	 -90.5148 	 38.3931 	 118.977
| 10> C 	 -91.6655 	 38.303 	 118.135
| 11> C 	 -91.9929 	 39.4674 	 117.456
| 12> H 	 -92.317 	 37.4632 	 118.016
| 13> C 	 -90.1989 	 37.1771 	 119.858
| 14> H 	 -90.4591 	 36.2055 	 119.365
| 15> H 	 -90.9461 	 37.1494 	 120.655
| 16> C 	 -88.7401 	 37.1161 	 120.418
| 17> H 	 -88.0572 	 36.7519 	 119.632
| 18> H 	 -88.4407 	 38.0302 	 120.841
| 19> C 	 -88.4203 	 35.9928 	 121.487
| 20> H 	 -88.8375 	 36.2764 	 122.416
| 21> H 	 -88.8431 	 35.0213 	 121.141
| 22> H 	 -87.3787 	 35.7063 	 121.691
| 23> S 	 -94.3136 	 40.9576 	 117.737
| 24> C 	 -95.5696 	 40.8307 	 116.489
| 25> C 	 -95.1476 	 40.0418 	 115.402
| 26> C 	 -93.8408 	 39.5068 	 115.582
| 27> C 	 -93.2936 	 39.8377 	 116.834
| 28> H 	 -95.731 	 40.0487 	 114.556
| 29> C 	 -93.2408 	 38.6385 	 114.492
| 30> H 	 -92.507 	 37.9838 	 114.915
| 31> H 	 -92.8094 	 39.3547 	 113.771
| 32> C 	 -94.2141 	 37.837 	 113.642
| 33> H 	 -94.7957 	 38.4553 	 113.052
| 34> H 	 -94.9101 	 37.3256 	 114.288
| 35> C 	 -93.5364 	 36.878 	 112.693
| 36> H 	 -93.281 	 35.9028 	 113.233
| 37> H 	 -92.8069 	 37.4108 	 112.144
| 38> H 	 -94.2081 	 36.5887 	 111.88
| 39> H 	 -89.2113 	 40.0464 	 119.769
| 40> H 	 -96.5305 	 41.2831 	 116.678
| 41> *
| 42>
| 43>                          ****END OF INPUT****

CARTESIAN COORDINATES (ANGSTROEM)
---------------------------------
  S    -90.882400   40.761600  118.036000
  C    -89.883500   39.666200  119.008000
  C    -90.514800   38.393100  118.977000
  C    -91.665500   38.303000  118.135000
  C    -91.992900   39.467400  117.456000
  H    -92.317000   37.463200  118.016000
  C    -90.198900   37.177100  119.858000
  H    -90.459100   36.205500  119.365000
  H    -90.946100   37.149400  120.655000
  C    -88.740100   37.116100  120.418000
  H    -88.057200   36.751900  119.632000
  H    -88.440700   38.030200  120.841000
  C    -88.420300   35.992800  121.487000
  H    -88.837500   36.276400  122.416000
  H    -88.843100   35.021300  121.141000
  H    -87.378700   35.706300  121.691000
  S    -94.313600   40.957600  117.737000
  C    -95.569600   40.830700  116.489000
  C    -95.147600   40.041800  115.402000
  C    -93.840800   39.506800  115.582000
  C    -93.293600   39.837700  116.834000
  H    -95.731000   40.048700  114.556000
  C    -93.240800   38.638500  114.492000
  H    -92.507000   37.983800  114.915000
  H    -92.809400   39.354700  113.771000
  C    -94.214100   37.837000  113.642000
  H    -94.795700   38.455300  113.052000
  H    -94.910100   37.325600  114.288000
  C    -93.536400   36.878000  112.693000
  H    -93.281000   35.902800  113.233000
  H    -92.806900   37.410800  112.144000
  H    -94.208100   36.588700  111.880000
  H    -89.211300   40.046400  119.769000
  H    -96.530500   41.283100  116.678000

 Total Charge           Charge          ....    0
 Multiplicity           Mult            ....    1
 Number of Electrons    NEL             ....  134
 Basis Dimension        Dim             ....  322

ORBITAL ENERGIES
----------------

  NO   OCC          E(Eh)            E(eV)
   0   2.0000     -88.967272     -2420.9226
   1   2.0000     -88.962210     -2420.7848
   2   2.0000     -10.335147      -281.2336
   3   2.0000     -10.331837      -281.1436
   4   2.0000     -10.323264      -280.9103
   5   2.0000     -10.322158      -280.8802
   6   2.0000     -10.310778      -280.5705
   7   2.0000     -10.307742      -280.4879
   8   2.0000     -10.300448      -280.2895
   9   2.0000     -10.295364      -280.1511
  10   2.0000     -10.292808      -280.0815
  11   2.0000     -10.290039      -280.0062
  12   2.0000     -10.289831      -280.0005
  13   2.0000     -10.279776      -279.7269
  14   2.0000     -10.279746      -279.7261
  15   2.0000     -10.276375      -279.6344
  16   2.0000      -8.081383      -219.9056
  17   2.0000      -8.075858      -219.7553
  18   2.0000      -6.039847      -164.3526
  19   2.0000      -6.035899      -164.2452
  20   2.0000      -6.034419      -164.2049
  21   2.0000      -6.032298      -164.1472
  22   2.0000      -6.030436      -164.0965
  23   2.0000      -6.026679      -163.9943
  24   2.0000      -0.997352       -27.1393
  25   2.0000      -0.975520       -26.5453
  26   2.0000      -0.916784       -24.9470
  27   2.0000      -0.899836       -24.4858
  28   2.0000      -0.861856       -23.4523
  29   2.0000      -0.854317       -23.2471
  30   2.0000      -0.844538       -22.9810
  31   2.0000      -0.812816       -22.1178
  32   2.0000      -0.781104       -21.2549
  33   2.0000      -0.767241       -20.8777
  34   2.0000      -0.708872       -19.2894
  35   2.0000      -0.705042       -19.1852
  36   2.0000      -0.690286       -18.7836
  37   2.0000      -0.659663       -17.9503
  38   2.0000      -0.644890       -17.5483
  39   2.0000      -0.612031       -16.6542
  40   2.0000      -0.598509       -16.2863
  41   2.0000      -0.582707       -15.8563
  42   2.0000      -0.572782       -15.5862
  43   2.0000      -0.558689       -15.2027
  44   2.0000      -0.528133       -14.3712
  45   2.0000      -0.523407       -14.2426
  46   2.0000      -0.516373       -14.0512
  47   2.0000      -0.511175       -13.9098
  48   2.0000      -0.503338       -13.6965
  49   2.0000      -0.497040       -13.5252
  50   2.0000      -0.496457       -13.5093
  51   2.0000      -0.477289       -12.9877
  52   2.0000      -0.473356       -12.8807
  53   2.0000      -0.460066       -12.5190
  54   2.0000      -0.458307       -12.4712
  55   2.0000      -0.452017       -12.3000
  56   2.0000      -0.442516       -12.0415
  57   2.0000      -0.430283       -11.7086
  58   2.0000      -0.428522       -11.6607
  59   2.0000      -0.425356       -11.5745
  60   2.0000      -0.421822       -11.4784
  61   2.0000      -0.419534       -11.4161
  62   2.0000      -0.406550       -11.0628
  63   2.0000      -0.342156        -9.3105
  64   2.0000      -0.330719        -8.9993
  65   2.0000      -0.320585        -8.7236
  66   2.0000      -0.296873        -8.0783
  67   0.0000       0.028998         0.7891
  68   0.0000       0.052028         1.4157
  69   0.0000       0.114369         3.1121
  70   0.0000       0.122526         3.3341
  71   0.0000       0.124068         3.3761

MULLIKEN ATOMIC CHARGES
-----------------------
   0 S :    0.074608
   1 C :   -0.120985
   2 C :   -0.079016
   3 C :    0.047464
   4 C :   -0.146612
   5 H :    0.010906
   6 C :    0.035173
   7 H :    0.028062
   8 H :    0.036244
   9 C :   -0.067660
  10 H :    0.045529
  11 H :    0.024119
  12 C :   -0.071062
  13 H :    0.024435
  14 H :    0.025744
  15 H :    0.037029
  16 S :    0.112431
  17 C :   -0.104027
  18 C :   -0.006949
  19 C :   -0.031510
  20 C :   -0.180085
  21 H :   -0.004587
  22 C :    0.101350
  23 H :    0.024432
  24 H :    0.039486
  25 C :   -0.081098
  26 H :    0.006455
  27 H :    0.020860
  28 C :   -0.028159
  29 H :    0.052190
  30 H :    0.019574
  31 H :    0.022051
  32 H :    0.070918
  33 H :    0.062692
Sum of atomic charges:   -0.0000000

LOEWDIN ATOMIC CHARGES
----------------------
   0 S :    0.375549
   1 C :   -0.199621
   2 C :   -0.058372
   3 C :   -0.058291
   4 C :   -0.179172
   5 H :    0.030567
   6 C :   -0.036646
   7 H :    0.034084
   8 H :    0.033051
   9 C :   -0.036177
  10 H :    0.033411
  11 H :    0.013458
  12 C :   -0.068788
  13 H :    0.013975
  14 H :    0.025907
  15 H :    0.028716
  16 S :    0.398984
  17 C :   -0.167956
  18 C :   -0.063101
  19 C :   -0.048076
  20 C :   -0.205525
  21 H :    0.019012
  22 C :   -0.026054
  23 H :    0.027500
  24 H :    0.041773
  25 C :   -0.041542
  26 H :    0.011446
  27 H :    0.020762
  28 C :   -0.063109
  29 H :    0.037602
  30 H :    0.021119
  31 H :    0.027843
  32 H :    0.032249
  33 H :    0.025419

  Mayer bond orders larger than 0.100000
B(  0-S ,  1-C ) :   1.1345 B(  0-S ,  4-C ) :   1.1492 B(  1-C ,  2-C ) :   1.5837
B(  1-C ,  4-C ) :   0.1017 B(  1-C , 32-H ) :   0.9680 B(  2-C ,  3-C ) :   1.2596
B(  2-C ,  6-C ) :   1.0156 B(  3-C ,  4-C ) :   1.5733 B(  3-C ,  5-H ) :   0.9952
B(  4-C , 20-C ) :   1.0185 B(  6-C ,  7-H ) :   0.9456 B(  6-C ,  8-H ) :   0.9394
B(  6-C ,  9-C ) :   1.0580 B(  9-C , 10-H ) :   0.9642 B(  9-C , 11-H ) :   0.9596
B(  9-C , 12-C ) :   1.0707 B( 12-C , 13-H ) :   0.9795 B( 12-C , 14-H ) :   0.9762
B( 12-C , 15-H ) :   0.9786 B( 16-S , 17-C ) :   1.1666 B( 16-S , 20-C ) :   1.1473
B( 17-C , 18-C ) :   1.5781 B( 17-C , 20-C ) :   0.1014 B( 17-C , 33-H ) :   0.9690
B( 18-C , 19-C ) :   1.2485 B( 18-C , 21-H ) :   1.0034 B( 19-C , 20-C ) :   1.5892
B( 19-C , 22-C ) :   1.0426 B( 22-C , 23-H ) :   0.9417 B( 22-C , 24-H ) :   0.9146
B( 22-C , 25-C ) :   1.0821 B( 25-C , 26-H ) :   0.9383 B( 25-C , 27-H ) :   0.9577
B( 25-C , 28-C ) :   1.1005 B( 28-C , 29-H ) :   0.9738 B( 28-C , 30-H ) :   0.9678
B( 28-C , 31-H ) :   0.9712

Dispersion correction           -0.012888989
FINAL SINGLE POINT ENERGY     -1339.854732200819

DIPOLE MOMENT
-------------
                                X             Y             Z
Electronic contribution:     -8.13687      24.25753       4.00301
Nuclear contribution   :      7.85534     -24.78180      -4.08930
                        -----------------------------------------
Total Dipole Moment    :     -0.28154      -0.52428      -0.08629
                        -----------------------------------------
Magnitude (a.u.)       :      0.60131
Magnitude (Debye)      :      1.52841

Rotational constants in cm-1:     0.019508     0.006846     0.005621
Rotational constants in MHz :   584.826892   205.251067   168.516013

                             ****ORCA TERMINATED NORMALLY****
TOTAL RUN TIME: 0 days 0 hours 0 minutes 30 seconds 831 msec
