                         Program Version 4.2.1 -  RELEASE  -
|  1> ! wB97X-D3 SP def2-SVP
|  2> %pal
|  3> nprocs 16
|  4> end
|  5>
|  6> * xyz 0 1
|  7> S 	 -46.3369 	 38.161 	 83.9543
|  8> C 	 -47.3015 	 37.1894 	 82.7704
|  9> C 	 -47.727 	 37.894 	 81.6976
| 10> C 	 -47.3238 	 39.2417 	 81.8049
| 11> C 	 -46.5559 	 39.5739 	 82.933
| 12> H 	 -47.6409 	 40.0094 	 81.1588
| 13> C 	 -48.3692 	 37.216 	 80.4597
| 14> H 	 -47.6199 	 36.4489 	 80.1964
| 15> H 	 -48.1483 	 37.8462 	 79.6045
| 16> C 	 -49.8327 	 36.846 	 80.5703
| 17> H 	 -50.1236 	 36.5109 	 79.5785
| 18> H 	 -49.9622 	 36.0235 	 81.2343
| 19> C 	 -50.7055 	 38.0622 	 80.9049
| 20> H 	 -50.5189 	 38.325 	 81.9614
| 21> H 	 -50.3608 	 38.9402 	 80.2629
| 22> H 	 -51.796 	 38.0474 	 80.7283
| 23> S 	 -44.656 	 40.8681 	 84.5899
| 24> C 	 -44.3765 	 42.562 	 84.469
| 25> C 	 -45.298 	 43.1159 	 83.601
| 26> C 	 -46.2058 	 42.2097 	 82.9297
| 27> C 	 -45.9101 	 40.9031 	 83.3212
| 28> H 	 -45.156 	 44.1544 	 83.4182
| 29> C 	 -47.3786 	 42.6523 	 82.0079
| 30> H 	 -47.0364 	 42.1718 	 81.0471
| 31> H 	 -47.3646 	 43.7686 	 81.8979
| 32> C 	 -48.7934 	 42.1909 	 82.4668
| 33> H 	 -48.7948 	 41.1152 	 82.7795
| 34> H 	 -49.4269 	 42.329 	 81.6337
| 35> C 	 -49.3308 	 43.0114 	 83.6182
| 36> H 	 -50.2644 	 42.7271 	 84.0051
| 37> H 	 -49.4533 	 44.0359 	 83.3763
| 38> H 	 -48.6801 	 42.9526 	 84.5706
| 39> H 	 -47.5712 	 36.1537 	 82.9113
| 40> H 	 -43.5488 	 43.0705 	 84.8692
| 41> *
| 42>
| 43>                          ****END OF INPUT****

CARTESIAN COORDINATES (ANGSTROEM)
---------------------------------
  S    -46.336900   38.161000   83.954300
  C    -47.301500   37.189400   82.770400
  C    -47.727000   37.894000   81.697600
  C    -47.323800   39.241700   81.804900
  C    -46.555900   39.573900   82.933000
  H    -47.640900   40.009400   81.158800
  C    -48.369200   37.216000   80.459700
  H    -47.619900   36.448900   80.196400
  H    -48.148300   37.846200   79.604500
  C    -49.832700   36.846000   80.570300
  H    -50.123600   36.510900   79.578500
  H    -49.962200   36.023500   81.234300
  C    -50.705500   38.062200   80.904900
  H    -50.518900   38.325000   81.961400
  H    -50.360800   38.940200   80.262900
  H    -51.796000   38.047400   80.728300
  S    -44.656000   40.868100   84.589900
  C    -44.376500   42.562000   84.469000
  C    -45.298000   43.115900   83.601000
  C    -46.205800   42.209700   82.929700
  C    -45.910100   40.903100   83.321200
  H    -45.156000   44.154400   83.418200
  C    -47.378600   42.652300   82.007900
  H    -47.036400   42.171800   81.047100
  H    -47.364600   43.768600   81.897900
  C    -48.793400   42.190900   82.466800
  H    -48.794800   41.115200   82.779500
  H    -49.426900   42.329000   81.633700
  C    -49.330800   43.011400   83.618200
  H    -50.264400   42.727100   84.005100
  H    -49.453300   44.035900   83.376300
  H    -48.680100   42.952600   84.570600
  H    -47.571200   36.153700   82.911300
  H    -43.548800   43.070500   84.869200

 Total Charge           Charge          ....    0
 Multiplicity           Mult            ....    1
 Number of Electrons    NEL             ....  134
 Basis Dimension        Dim             ....  322

ORBITAL ENERGIES
----------------

  NO   OCC          E(Eh)            E(eV)
   0   2.0000     -88.967645     -2420.9327
   1   2.0000     -88.964774     -2420.8546
   2   2.0000     -10.338604      -281.3277
   3   2.0000     -10.336685      -281.2755
   4   2.0000     -10.312650      -280.6215
   5   2.0000     -10.312199      -280.6092
   6   2.0000     -10.310295      -280.5574
   7   2.0000     -10.307699      -280.4868
   8   2.0000     -10.298429      -280.2345
   9   2.0000     -10.297419      -280.2070
  10   2.0000     -10.292565      -280.0749
  11   2.0000     -10.291232      -280.0387
  12   2.0000     -10.289589      -279.9940
  13   2.0000     -10.286847      -279.9193
  14   2.0000     -10.286629      -279.9134
  15   2.0000     -10.271001      -279.4881
  16   2.0000      -8.081242      -219.9018
  17   2.0000      -8.079512      -219.8547
  18   2.0000      -6.039870      -164.3532
  19   2.0000      -6.038102      -164.3051
  20   2.0000      -6.036033      -164.2488
  21   2.0000      -6.033988      -164.1932
  22   2.0000      -6.031831      -164.1345
  23   2.0000      -6.030244      -164.0913
  24   2.0000      -1.000241       -27.2180
  25   2.0000      -0.981396       -26.7052
  26   2.0000      -0.914108       -24.8741
  27   2.0000      -0.906444       -24.6656
  28   2.0000      -0.863890       -23.5076
  29   2.0000      -0.850521       -23.1438
  30   2.0000      -0.837906       -22.8006
  31   2.0000      -0.813041       -22.1240
  32   2.0000      -0.784519       -21.3478
  33   2.0000      -0.776499       -21.1296
  34   2.0000      -0.708122       -19.2690
  35   2.0000      -0.706665       -19.2293
  36   2.0000      -0.689816       -18.7708
  37   2.0000      -0.661780       -18.0079
  38   2.0000      -0.635647       -17.2968
  39   2.0000      -0.615975       -16.7615
  40   2.0000      -0.589254       -16.0344
  41   2.0000      -0.577751       -15.7214
  42   2.0000      -0.555962       -15.1285
  43   2.0000      -0.553961       -15.0741
  44   2.0000      -0.550133       -14.9699
  45   2.0000      -0.538199       -14.6451
  46   2.0000      -0.512806       -13.9542
  47   2.0000      -0.504550       -13.7295
  48   2.0000      -0.497406       -13.5351
  49   2.0000      -0.493289       -13.4231
  50   2.0000      -0.481522       -13.1029
  51   2.0000      -0.479289       -13.0421
  52   2.0000      -0.471180       -12.8214
  53   2.0000      -0.467250       -12.7145
  54   2.0000      -0.457260       -12.4427
  55   2.0000      -0.445907       -12.1338
  56   2.0000      -0.443867       -12.0782
  57   2.0000      -0.440767       -11.9939
  58   2.0000      -0.431429       -11.7398
  59   2.0000      -0.425911       -11.5896
  60   2.0000      -0.418911       -11.3991
  61   2.0000      -0.415082       -11.2950
  62   2.0000      -0.413221       -11.2443
  63   2.0000      -0.356494        -9.7007
  64   2.0000      -0.336361        -9.1529
  65   2.0000      -0.327913        -8.9230
  66   2.0000      -0.283255        -7.7078
  67   0.0000       0.020493         0.5577
  68   0.0000       0.079131         2.1533
  69   0.0000       0.096163         2.6167
  70   0.0000       0.122227         3.3260
  71   0.0000       0.132465         3.6046

MULLIKEN ATOMIC CHARGES
-----------------------
   0 S :    0.091879
   1 C :   -0.124931
   2 C :   -0.086426
   3 C :    0.018158
   4 C :   -0.121831
   5 H :   -0.019730
   6 C :    0.040175
   7 H :    0.040585
   8 H :    0.011701
   9 C :    0.001115
  10 H :    0.025613
  11 H :    0.028467
  12 C :   -0.099213
  13 H :    0.052989
  14 H :    0.030083
  15 H :    0.047364
  16 S :    0.090751
  17 C :   -0.074919
  18 C :   -0.036172
  19 C :   -0.054254
  20 C :   -0.128791
  21 H :    0.006786
  22 C :    0.018369
  23 H :    0.057312
  24 H :    0.032834
  25 C :   -0.056002
  26 H :    0.065970
  27 H :    0.022528
  28 C :   -0.040006
  29 H :    0.016196
  30 H :    0.014268
  31 H :    0.043492
  32 H :    0.039462
  33 H :    0.046180
Sum of atomic charges:    0.0000000

LOEWDIN ATOMIC CHARGES
----------------------
   0 S :    0.374198
   1 C :   -0.174298
   2 C :   -0.066514
   3 C :   -0.069196
   4 C :   -0.178672
   5 H :    0.018280
   6 C :   -0.032178
   7 H :    0.040939
   8 H :    0.028994
   9 C :   -0.036074
  10 H :    0.026694
  11 H :    0.020231
  12 C :   -0.073547
  13 H :    0.029751
  14 H :    0.030461
  15 H :    0.029011
  16 S :    0.395716
  17 C :   -0.187715
  18 C :   -0.071654
  19 C :   -0.058915
  20 C :   -0.183106
  21 H :    0.024567
  22 C :   -0.032488
  23 H :    0.039193
  24 H :    0.035534
  25 C :   -0.041775
  26 H :    0.037256
  27 H :    0.019708
  28 C :   -0.066079
  29 H :    0.018544
  30 H :    0.016222
  31 H :    0.037886
  32 H :    0.024629
  33 H :    0.024397

  Mayer bond orders larger than 0.100000
B(  0-S ,  1-C ) :   1.1207 B(  0-S ,  4-C ) :   1.1478 B(  1-C ,  2-C ) :   1.6453
B(  1-C , 32-H ) :   0.9640 B(  2-C ,  3-C ) :   1.2510 B(  2-C ,  6-C ) :   0.9851
B(  3-C ,  4-C ) :   1.5629 B(  3-C ,  5-H ) :   0.9947 B(  4-C , 20-C ) :   1.0425
B(  6-C ,  7-H ) :   0.9465 B(  6-C ,  8-H ) :   0.9413 B(  6-C ,  9-C ) :   1.0674
B(  9-C , 10-H ) :   0.9516 B(  9-C , 11-H ) :   0.9603 B(  9-C , 12-C ) :   1.0633
B( 12-C , 13-H ) :   0.9716 B( 12-C , 14-H ) :   0.9745 B( 12-C , 15-H ) :   0.9770
B( 16-S , 17-C ) :   1.1509 B( 16-S , 20-C ) :   1.1441 B( 17-C , 18-C ) :   1.6165
B( 17-C , 33-H ) :   0.9735 B( 18-C , 19-C ) :   1.2366 B( 18-C , 21-H ) :   0.9915
B( 19-C , 20-C ) :   1.5889 B( 19-C , 22-C ) :   1.0127 B( 22-C , 23-H ) :   0.9353
B( 22-C , 24-H ) :   0.9408 B( 22-C , 25-C ) :   1.0610 B( 25-C , 26-H ) :   0.9511
B( 25-C , 27-H ) :   0.9514 B( 25-C , 28-C ) :   1.0812 B( 28-C , 29-H ) :   0.9710
B( 28-C , 30-H ) :   0.9728 B( 28-C , 31-H ) :   0.9747

Dispersion correction           -0.015309992
FINAL SINGLE POINT ENERGY     -1339.870933817031

DIPOLE MOMENT
-------------
                                X             Y             Z
Electronic contribution:     24.27396      -3.79250      14.50026
Nuclear contribution   :    -24.73621       3.99636     -15.07282
                        -----------------------------------------
Total Dipole Moment    :     -0.46225       0.20386      -0.57256
                        -----------------------------------------
Magnitude (a.u.)       :      0.76358
Magnitude (Debye)      :      1.94087

Rotational constants in cm-1:     0.020629     0.009251     0.007030
Rotational constants in MHz :   618.451286   277.335792   210.764016

                             ****ORCA TERMINATED NORMALLY****
TOTAL RUN TIME: 0 days 0 hours 0 minutes 31 seconds 907 msec
