                         Program Version 4.2.1 -  RELEASE  -
|  1> ! wB97X-D3 SP def2-SVP
|  2> %pal
|  3> nprocs 16
|  4> end
|  5>
|  6> * xyz 0 1
|  7> S 	 11.9744 	 22.8953 	 46.4552
|  8> C 	 12.9183 	 23.4984 	 47.8963
|  9> C 	 12.1662 	 24.498 	 48.4964
| 10> C 	 10.8461 	 24.6987 	 47.9929
| 11> C 	 10.5735 	 23.8682 	 46.9381
| 12> H 	 9.99277 	 25.4392 	 48.263
| 13> C 	 12.6895 	 25.426 	 49.5933
| 14> H 	 11.9435 	 26.2866 	 49.5931
| 15> H 	 13.6967 	 25.8307 	 49.4032
| 16> C 	 12.6456 	 24.7341 	 51.0167
| 17> H 	 11.6163 	 24.4566 	 51.1491
| 18> H 	 13.4031 	 23.8794 	 50.7615
| 19> C 	 13.0506 	 25.7408 	 52.0381
| 20> H 	 14.1249 	 25.9378 	 52.0672
| 21> H 	 12.4871 	 26.6416 	 51.9894
| 22> H 	 12.7761 	 25.423 	 53.0779
| 23> S 	 9.42277 	 24.8876 	 44.6198
| 24> C 	 7.68306 	 24.7623 	 44.4689
| 25> C 	 7.13609 	 24.0684 	 45.4749
| 26> C 	 8.00355 	 23.6821 	 46.5146
| 27> C 	 9.31749 	 24.0637 	 46.2201
| 28> H 	 6.05425 	 23.9794 	 45.4113
| 29> C 	 7.6815 	 22.7889 	 47.7227
| 30> H 	 6.71847 	 23.0685 	 48.1553
| 31> H 	 8.39095 	 22.7893 	 48.5809
| 32> C 	 7.6418 	 21.329 	 47.2666
| 33> H 	 7.67026 	 20.8082 	 48.1754
| 34> H 	 8.58471 	 21.1446 	 46.7125
| 35> C 	 6.47485 	 20.9372 	 46.4512
| 36> H 	 6.46827 	 19.7961 	 46.3294
| 37> H 	 6.41298 	 21.2488 	 45.3912
| 38> H 	 5.55084 	 21.1603 	 46.9015
| 39> H 	 13.9234 	 23.1743 	 48.2536
| 40> H 	 7.2188 	 25.3445 	 43.7248
| 41> *
| 42>
| 43>                          ****END OF INPUT****

CARTESIAN COORDINATES (ANGSTROEM)
---------------------------------
  S     11.974400   22.895300   46.455200
  C     12.918300   23.498400   47.896300
  C     12.166200   24.498000   48.496400
  C     10.846100   24.698700   47.992900
  C     10.573500   23.868200   46.938100
  H      9.992770   25.439200   48.263000
  C     12.689500   25.426000   49.593300
  H     11.943500   26.286600   49.593100
  H     13.696700   25.830700   49.403200
  C     12.645600   24.734100   51.016700
  H     11.616300   24.456600   51.149100
  H     13.403100   23.879400   50.761500
  C     13.050600   25.740800   52.038100
  H     14.124900   25.937800   52.067200
  H     12.487100   26.641600   51.989400
  H     12.776100   25.423000   53.077900
  S      9.422770   24.887600   44.619800
  C      7.683060   24.762300   44.468900
  C      7.136090   24.068400   45.474900
  C      8.003550   23.682100   46.514600
  C      9.317490   24.063700   46.220100
  H      6.054250   23.979400   45.411300
  C      7.681500   22.788900   47.722700
  H      6.718470   23.068500   48.155300
  H      8.390950   22.789300   48.580900
  C      7.641800   21.329000   47.266600
  H      7.670260   20.808200   48.175400
  H      8.584710   21.144600   46.712500
  C      6.474850   20.937200   46.451200
  H      6.468270   19.796100   46.329400
  H      6.412980   21.248800   45.391200
  H      5.550840   21.160300   46.901500
  H     13.923400   23.174300   48.253600
  H      7.218800   25.344500   43.724800

 Total Charge           Charge          ....    0
 Multiplicity           Mult            ....    1
 Number of Electrons    NEL             ....  134
 Basis Dimension        Dim             ....  322

ORBITAL ENERGIES
----------------

  NO   OCC          E(Eh)            E(eV)
   0   2.0000     -88.969783     -2420.9909
   1   2.0000     -88.959525     -2420.7117
   2   2.0000     -10.328315      -281.0477
   3   2.0000     -10.327969      -281.0383
   4   2.0000     -10.324319      -280.9390
   5   2.0000     -10.309770      -280.5431
   6   2.0000     -10.307146      -280.4717
   7   2.0000     -10.303801      -280.3807
   8   2.0000     -10.298628      -280.2399
   9   2.0000     -10.295294      -280.1492
  10   2.0000     -10.294064      -280.1157
  11   2.0000     -10.293769      -280.1077
  12   2.0000     -10.290641      -280.0226
  13   2.0000     -10.277673      -279.6697
  14   2.0000     -10.276727      -279.6440
  15   2.0000     -10.273860      -279.5659
  16   2.0000      -8.082597      -219.9386
  17   2.0000      -8.074141      -219.7086
  18   2.0000      -6.041399      -164.3948
  19   2.0000      -6.037418      -164.2865
  20   2.0000      -6.033094      -164.1688
  21   2.0000      -6.032504      -164.1528
  22   2.0000      -6.028801      -164.0520
  23   2.0000      -6.024928      -163.9466
  24   2.0000      -1.001727       -27.2584
  25   2.0000      -0.979312       -26.6484
  26   2.0000      -0.913520       -24.8581
  27   2.0000      -0.909187       -24.7402
  28   2.0000      -0.870035       -23.6749
  29   2.0000      -0.847925       -23.0732
  30   2.0000      -0.843948       -22.9650
  31   2.0000      -0.813076       -22.1249
  32   2.0000      -0.782789       -21.3008
  33   2.0000      -0.768329       -20.9073
  34   2.0000      -0.707508       -19.2523
  35   2.0000      -0.694993       -18.9117
  36   2.0000      -0.688768       -18.7423
  37   2.0000      -0.657159       -17.8822
  38   2.0000      -0.633697       -17.2438
  39   2.0000      -0.613148       -16.6846
  40   2.0000      -0.601255       -16.3610
  41   2.0000      -0.568559       -15.4713
  42   2.0000      -0.562552       -15.3078
  43   2.0000      -0.556141       -15.1334
  44   2.0000      -0.539645       -14.6845
  45   2.0000      -0.520642       -14.1674
  46   2.0000      -0.514079       -13.9888
  47   2.0000      -0.508496       -13.8369
  48   2.0000      -0.502125       -13.6635
  49   2.0000      -0.500191       -13.6109
  50   2.0000      -0.490503       -13.3473
  51   2.0000      -0.479235       -13.0406
  52   2.0000      -0.472498       -12.8573
  53   2.0000      -0.465236       -12.6597
  54   2.0000      -0.457713       -12.4550
  55   2.0000      -0.445298       -12.1172
  56   2.0000      -0.437536       -11.9060
  57   2.0000      -0.434632       -11.8269
  58   2.0000      -0.432709       -11.7746
  59   2.0000      -0.424133       -11.5413
  60   2.0000      -0.415031       -11.2936
  61   2.0000      -0.410316       -11.1653
  62   2.0000      -0.402681       -10.9575
  63   2.0000      -0.339555        -9.2398
  64   2.0000      -0.330025        -8.9804
  65   2.0000      -0.327358        -8.9079
  66   2.0000      -0.298670        -8.1272
  67   0.0000       0.037584         1.0227
  68   0.0000       0.053317         1.4508
  69   0.0000       0.104265         2.8372
  70   0.0000       0.120184         3.2704
  71   0.0000       0.132492         3.6053

MULLIKEN ATOMIC CHARGES
-----------------------
   0 S :    0.104498
   1 C :   -0.137068
   2 C :   -0.055366
   3 C :   -0.000803
   4 C :   -0.141006
   5 H :    0.062933
   6 C :   -0.012872
   7 H :    0.026254
   8 H :    0.039725
   9 C :   -0.074334
  10 H :    0.029196
  11 H :    0.045093
  12 C :   -0.016547
  13 H :    0.036191
  14 H :    0.019821
  15 H :    0.026917
  16 S :    0.088451
  17 C :   -0.086060
  18 C :   -0.034919
  19 C :    0.009430
  20 C :   -0.218945
  21 H :    0.020371
  22 C :    0.053382
  23 H :    0.016700
  24 H :    0.035760
  25 C :   -0.027526
  26 H :    0.016524
  27 H :    0.033138
  28 C :   -0.059672
  29 H :    0.033132
  30 H :    0.043931
  31 H :    0.011921
  32 H :    0.066721
  33 H :    0.045029
Sum of atomic charges:    0.0000000

LOEWDIN ATOMIC CHARGES
----------------------
   0 S :    0.368483
   1 C :   -0.189640
   2 C :   -0.064862
   3 C :   -0.073255
   4 C :   -0.194228
   5 H :    0.056914
   6 C :   -0.036769
   7 H :    0.028353
   8 H :    0.027374
   9 C :   -0.040685
  10 H :    0.023763
  11 H :    0.036891
  12 C :   -0.071757
  13 H :    0.028336
  14 H :    0.022734
  15 H :    0.029669
  16 S :    0.373566
  17 C :   -0.169818
  18 C :   -0.077752
  19 C :   -0.050313
  20 C :   -0.177405
  21 H :    0.035060
  22 C :   -0.028804
  23 H :    0.024585
  24 H :    0.036907
  25 C :   -0.037648
  26 H :    0.019577
  27 H :    0.032163
  28 C :   -0.072952
  29 H :    0.036357
  30 H :    0.030013
  31 H :    0.014226
  32 H :    0.040681
  33 H :    0.020234

  Mayer bond orders larger than 0.100000
B(  0-S ,  1-C ) :   1.0998 B(  0-S ,  4-C ) :   1.1350 B(  1-C ,  2-C ) :   1.6307
B(  1-C , 32-H ) :   0.9654 B(  2-C ,  3-C ) :   1.2196 B(  2-C ,  6-C ) :   1.0104
B(  3-C ,  4-C ) :   1.6065 B(  3-C ,  5-H ) :   0.9720 B(  4-C , 20-C ) :   1.0347
B(  6-C ,  7-H ) :   0.9468 B(  6-C ,  8-H ) :   0.9523 B(  6-C ,  9-C ) :   1.0429
B(  9-C , 10-H ) :   0.9545 B(  9-C , 11-H ) :   0.9597 B(  9-C , 12-C ) :   1.0919
B( 12-C , 13-H ) :   0.9719 B( 12-C , 14-H ) :   0.9664 B( 12-C , 15-H ) :   0.9708
B( 16-S , 17-C ) :   1.1455 B( 16-S , 20-C ) :   1.1393 B( 17-C , 18-C ) :   1.6288
B( 17-C , 20-C ) :   0.1019 B( 17-C , 33-H ) :   0.9730 B( 18-C , 19-C ) :   1.2183
B( 18-C , 21-H ) :   0.9870 B( 19-C , 20-C ) :   1.6097 B( 19-C , 22-C ) :   1.0431
B( 22-C , 23-H ) :   0.9330 B( 22-C , 24-H ) :   0.9375 B( 22-C , 25-C ) :   1.0777
B( 25-C , 26-H ) :   0.9516 B( 25-C , 27-H ) :   0.9458 B( 25-C , 28-C ) :   1.0995
B( 28-C , 29-H ) :   0.9676 B( 28-C , 30-H ) :   0.9669 B( 28-C , 31-H ) :   0.9715

Dispersion correction           -0.014478077
FINAL SINGLE POINT ENERGY     -1339.855652707286

DIPOLE MOMENT
-------------
                                X             Y             Z
Electronic contribution:      4.39089       3.00970     -22.00967
Nuclear contribution   :     -4.68708      -2.85558      22.56177
                        -----------------------------------------
Total Dipole Moment    :     -0.29619       0.15412       0.55210
                        -----------------------------------------
Magnitude (a.u.)       :      0.64521
Magnitude (Debye)      :      1.63999

Rotational constants in cm-1:     0.021188     0.007404     0.006746
Rotational constants in MHz :   635.201160   221.979665   202.232276

                             ****ORCA TERMINATED NORMALLY****
TOTAL RUN TIME: 0 days 0 hours 0 minutes 32 seconds 372 msec
