                         Program Version 4.2.1 -  RELEASE  -
|  1> ! wB97X-D3 SP def2-SVP
|  2> %pal
|  3> nprocs 16
|  4> end
|  5>
|  6> * xyz 0 1
|  7> S 	 38.0623 	 11.2831 	 81.703
|  8> C 	 39.1249 	 9.86532 	 81.8566
|  9> C 	 40.263 	 10.1692 	 81.147
| 10> C 	 40.4573 	 11.5367 	 80.8858
| 11> C 	 39.3852 	 12.3255 	 81.159
| 12> H 	 41.3119 	 11.9259 	 80.3882
| 13> C 	 41.3704 	 9.18593 	 80.852
| 14> H 	 41.1749 	 8.40684 	 81.6618
| 15> H 	 42.3264 	 9.61146 	 81.0493
| 16> C 	 41.3866 	 8.41972 	 79.569
| 17> H 	 41.83 	 7.39664 	 79.659
| 18> H 	 40.3584 	 8.37878 	 79.1752
| 19> C 	 42.2493 	 9.12807 	 78.4625
| 20> H 	 42.3334 	 8.35448 	 77.7034
| 21> H 	 41.7702 	 9.98966 	 78.0452
| 22> H 	 43.2613 	 9.345 	 78.763
| 23> S 	 37.8613 	 14.244 	 79.9302
| 24> C 	 38.4041 	 15.9174 	 80.0268
| 25> C 	 39.7057 	 16.04 	 80.6192
| 26> C 	 40.0868 	 14.828 	 81.2523
| 27> C 	 39.2591 	 13.7368 	 80.8757
| 28> H 	 40.2521 	 16.9099 	 80.7041
| 29> C 	 41.4041 	 14.7549 	 82.0574
| 30> H 	 41.5997 	 13.7505 	 82.4411
| 31> H 	 41.1943 	 15.3384 	 82.9258
| 32> C 	 42.685 	 15.3009 	 81.469
| 33> H 	 43.5893 	 15.1028 	 82.0648
| 34> H 	 42.5883 	 16.4035 	 81.3478
| 35> C 	 42.9944 	 14.9509 	 80.0225
| 36> H 	 42.9149 	 13.8536 	 79.7755
| 37> H 	 44.0649 	 15.1692 	 79.8237
| 38> H 	 42.4407 	 15.609 	 79.2892
| 39> H 	 38.7937 	 8.93766 	 82.2062
| 40> H 	 37.9548 	 16.7315 	 79.4876
| 41> *
| 42>
| 43>                          ****END OF INPUT****

CARTESIAN COORDINATES (ANGSTROEM)
---------------------------------
  S     38.062300   11.283100   81.703000
  C     39.124900    9.865320   81.856600
  C     40.263000   10.169200   81.147000
  C     40.457300   11.536700   80.885800
  C     39.385200   12.325500   81.159000
  H     41.311900   11.925900   80.388200
  C     41.370400    9.185930   80.852000
  H     41.174900    8.406840   81.661800
  H     42.326400    9.611460   81.049300
  C     41.386600    8.419720   79.569000
  H     41.830000    7.396640   79.659000
  H     40.358400    8.378780   79.175200
  C     42.249300    9.128070   78.462500
  H     42.333400    8.354480   77.703400
  H     41.770200    9.989660   78.045200
  H     43.261300    9.345000   78.763000
  S     37.861300   14.244000   79.930200
  C     38.404100   15.917400   80.026800
  C     39.705700   16.040000   80.619200
  C     40.086800   14.828000   81.252300
  C     39.259100   13.736800   80.875700
  H     40.252100   16.909900   80.704100
  C     41.404100   14.754900   82.057400
  H     41.599700   13.750500   82.441100
  H     41.194300   15.338400   82.925800
  C     42.685000   15.300900   81.469000
  H     43.589300   15.102800   82.064800
  H     42.588300   16.403500   81.347800
  C     42.994400   14.950900   80.022500
  H     42.914900   13.853600   79.775500
  H     44.064900   15.169200   79.823700
  H     42.440700   15.609000   79.289200
  H     38.793700    8.937660   82.206200
  H     37.954800   16.731500   79.487600

 Total Charge           Charge          ....    0
 Multiplicity           Mult            ....    1
 Number of Electrons    NEL             ....  134
 Basis Dimension        Dim             ....  322

ORBITAL ENERGIES
----------------

  NO   OCC          E(Eh)            E(eV)
   0   2.0000     -88.973476     -2421.0914
   1   2.0000     -88.962123     -2420.7824
   2   2.0000     -10.330794      -281.1152
   3   2.0000     -10.328000      -281.0392
   4   2.0000     -10.323801      -280.9249
   5   2.0000     -10.314159      -280.6625
   6   2.0000     -10.309688      -280.5409
   7   2.0000     -10.298376      -280.2331
   8   2.0000     -10.296579      -280.1841
   9   2.0000     -10.290906      -280.0298
  10   2.0000     -10.290261      -280.0122
  11   2.0000     -10.289369      -279.9880
  12   2.0000     -10.286555      -279.9114
  13   2.0000     -10.285394      -279.8798
  14   2.0000     -10.284516      -279.8559
  15   2.0000     -10.273078      -279.5447
  16   2.0000      -8.087353      -220.0681
  17   2.0000      -8.076428      -219.7708
  18   2.0000      -6.045813      -164.5149
  19   2.0000      -6.041987      -164.4108
  20   2.0000      -6.038224      -164.3084
  21   2.0000      -6.035080      -164.2229
  22   2.0000      -6.031094      -164.1144
  23   2.0000      -6.026948      -164.0016
  24   2.0000      -1.005863       -27.3709
  25   2.0000      -0.981470       -26.7072
  26   2.0000      -0.913008       -24.8442
  27   2.0000      -0.909940       -24.7607
  28   2.0000      -0.869514       -23.6607
  29   2.0000      -0.851931       -23.1822
  30   2.0000      -0.843675       -22.9576
  31   2.0000      -0.814343       -22.1594
  32   2.0000      -0.786598       -21.4044
  33   2.0000      -0.772443       -21.0193
  34   2.0000      -0.706332       -19.2203
  35   2.0000      -0.697889       -18.9905
  36   2.0000      -0.688779       -18.7426
  37   2.0000      -0.665383       -18.1060
  38   2.0000      -0.646942       -17.6042
  39   2.0000      -0.618767       -16.8375
  40   2.0000      -0.595528       -16.2051
  41   2.0000      -0.575170       -15.6512
  42   2.0000      -0.556781       -15.1508
  43   2.0000      -0.552399       -15.0316
  44   2.0000      -0.547361       -14.8944
  45   2.0000      -0.536453       -14.5976
  46   2.0000      -0.522180       -14.2092
  47   2.0000      -0.510586       -13.8937
  48   2.0000      -0.507745       -13.8164
  49   2.0000      -0.495778       -13.4908
  50   2.0000      -0.491831       -13.3834
  51   2.0000      -0.480703       -13.0806
  52   2.0000      -0.472247       -12.8505
  53   2.0000      -0.463372       -12.6090
  54   2.0000      -0.461347       -12.5539
  55   2.0000      -0.450647       -12.2627
  56   2.0000      -0.442063       -12.0291
  57   2.0000      -0.436231       -11.8705
  58   2.0000      -0.434435       -11.8216
  59   2.0000      -0.422740       -11.5033
  60   2.0000      -0.414941       -11.2911
  61   2.0000      -0.409396       -11.1402
  62   2.0000      -0.402874       -10.9628
  63   2.0000      -0.347058        -9.4439
  64   2.0000      -0.335854        -9.1391
  65   2.0000      -0.327428        -8.9098
  66   2.0000      -0.287365        -7.8196
  67   0.0000       0.024036         0.6540
  68   0.0000       0.059525         1.6197
  69   0.0000       0.101440         2.7603
  70   0.0000       0.120166         3.2699
  71   0.0000       0.127932         3.4812

MULLIKEN ATOMIC CHARGES
-----------------------
   0 S :    0.086423
   1 C :   -0.098141
   2 C :   -0.079402
   3 C :    0.039052
   4 C :   -0.118459
   5 H :   -0.010758
   6 C :    0.062802
   7 H :    0.022670
   8 H :    0.012984
   9 C :   -0.077911
  10 H :    0.042005
  11 H :    0.035278
  12 C :   -0.055952
  13 H :    0.025828
  14 H :    0.038720
  15 H :    0.024021
  16 S :    0.124257
  17 C :   -0.089715
  18 C :   -0.013786
  19 C :   -0.047472
  20 C :   -0.170387
  21 H :   -0.005642
  22 C :    0.110585
  23 H :    0.026808
  24 H :    0.027925
  25 C :   -0.097132
  26 H :    0.044196
  27 H :    0.024737
  28 C :   -0.088996
  29 H :    0.039003
  30 H :    0.028973
  31 H :    0.045275
  32 H :    0.033556
  33 H :    0.058654
Sum of atomic charges:   -0.0000000

LOEWDIN ATOMIC CHARGES
----------------------
   0 S :    0.378150
   1 C :   -0.173424
   2 C :   -0.062314
   3 C :   -0.063682
   4 C :   -0.182952
   5 H :    0.025803
   6 C :   -0.038858
   7 H :    0.039724
   8 H :    0.021530
   9 C :   -0.041613
  10 H :    0.030848
  11 H :    0.029569
  12 C :   -0.064342
  13 H :    0.025884
  14 H :    0.021317
  15 H :    0.018612
  16 S :    0.412079
  17 C :   -0.182030
  18 C :   -0.054651
  19 C :   -0.047015
  20 C :   -0.196259
  21 H :    0.017485
  22 C :   -0.033089
  23 H :    0.030993
  24 H :    0.034084
  25 C :   -0.051345
  26 H :    0.032270
  27 H :    0.026541
  28 C :   -0.078845
  29 H :    0.023462
  30 H :    0.028255
  31 H :    0.030941
  32 H :    0.018293
  33 H :    0.024577

  Mayer bond orders larger than 0.100000
B(  0-S ,  1-C ) :   1.1242 B(  0-S ,  4-C ) :   1.1378 B(  1-C ,  2-C ) :   1.5933
B(  1-C ,  4-C ) :   0.1013 B(  1-C , 32-H ) :   0.9811 B(  2-C ,  3-C ) :   1.2406
B(  2-C ,  6-C ) :   1.0286 B(  3-C ,  4-C ) :   1.5580 B(  3-C ,  5-H ) :   1.0061
B(  4-C , 20-C ) :   1.0614 B(  6-C ,  7-H ) :   0.9369 B(  6-C ,  8-H ) :   0.9482
B(  6-C ,  9-C ) :   1.0619 B(  9-C , 10-H ) :   0.9596 B(  9-C , 11-H ) :   0.9532
B(  9-C , 12-C ) :   1.0806 B( 12-C , 13-H ) :   0.9762 B( 12-C , 14-H ) :   0.9781
B( 12-C , 15-H ) :   0.9772 B( 16-S , 17-C ) :   1.1660 B( 16-S , 20-C ) :   1.1502
B( 17-C , 18-C ) :   1.5721 B( 17-C , 20-C ) :   0.1131 B( 17-C , 33-H ) :   0.9683
B( 18-C , 19-C ) :   1.2700 B( 18-C , 21-H ) :   0.9939 B( 19-C , 20-C ) :   1.5606
B( 19-C , 22-C ) :   1.0344 B( 22-C , 23-H ) :   0.9362 B( 22-C , 24-H ) :   0.9261
B( 22-C , 25-C ) :   1.0780 B( 25-C , 26-H ) :   0.9575 B( 25-C , 27-H ) :   0.9482
B( 25-C , 28-C ) :   1.0808 B( 28-C , 29-H ) :   0.9737 B( 28-C , 30-H ) :   0.9707
B( 28-C , 31-H ) :   0.9724

Dispersion correction           -0.014661172
FINAL SINGLE POINT ENERGY     -1339.860231141271

DIPOLE MOMENT
-------------
                                X             Y             Z
Electronic contribution:    -27.00811       5.37678       6.04638
Nuclear contribution   :     27.72050      -5.38150      -6.17647
                        -----------------------------------------
Total Dipole Moment    :      0.71239      -0.00472      -0.13009
                        -----------------------------------------
Magnitude (a.u.)       :      0.72419
Magnitude (Debye)      :      1.84074

Rotational constants in cm-1:     0.017667     0.009279     0.007238
Rotational constants in MHz :   529.651368   278.190503   216.995880

                             ****ORCA TERMINATED NORMALLY****
TOTAL RUN TIME: 0 days 0 hours 0 minutes 29 seconds 528 msec
