                         Program Version 4.2.1 -  RELEASE  -
|  1> ! wB97X-D3 SP def2-SVP
|  2> %pal
|  3> nprocs 16
|  4> end
|  5>
|  6> * xyz 0 1
|  7> S 	 -4.83296 	 -13.8428 	 69.84
|  8> C 	 -5.42149 	 -15.0533 	 68.6514
|  9> C 	 -5.27578 	 -14.5161 	 67.3495
| 10> C 	 -4.72122 	 -13.2039 	 67.3223
| 11> C 	 -4.41637 	 -12.6423 	 68.563
| 12> H 	 -4.40866 	 -12.6258 	 66.486
| 13> C 	 -5.6794 	 -15.2587 	 66.0935
| 14> H 	 -5.43644 	 -16.3578 	 66.2382
| 15> H 	 -5.05747 	 -14.7835 	 65.235
| 16> C 	 -7.16851 	 -15.299 	 65.8506
| 17> H 	 -7.36973 	 -16.0995 	 65.1428
| 18> H 	 -7.57577 	 -15.6646 	 66.7656
| 19> C 	 -7.74345 	 -13.9882 	 65.5267
| 20> H 	 -7.82183 	 -13.7973 	 64.5557
| 21> H 	 -8.74323 	 -13.9161 	 65.9232
| 22> H 	 -7.02213 	 -13.2039 	 65.8701
| 23> S 	 -5.47847 	 -10.328 	 69.6982
| 24> C 	 -4.49941 	 -8.92551 	 69.5928
| 25> C 	 -3.36947 	 -9.08495 	 68.8936
| 26> C 	 -3.03011 	 -10.4743 	 68.6244
| 27> C 	 -4.11565 	 -11.2936 	 68.9442
| 28> H 	 -2.72125 	 -8.24833 	 68.6461
| 29> C 	 -1.86706 	 -10.8951 	 67.6636
| 30> H 	 -2.18161 	 -11.4173 	 66.7577
| 31> H 	 -1.36692 	 -11.6839 	 68.1998
| 32> C 	 -0.942219 	 -9.67234 	 67.2288
| 33> H 	 -0.487041 	 -9.20632 	 68.1068
| 34> H 	 -1.56973 	 -8.90054 	 66.8116
| 35> C 	 0.113541 	 -10.1292 	 66.1872
| 36> H 	 0.635712 	 -11.0284 	 66.5233
| 37> H 	 0.805482 	 -9.34995 	 66.1176
| 38> H 	 -0.295529 	 -10.2742 	 65.1391
| 39> H 	 -5.89925 	 -16.0264 	 68.884
| 40> H 	 -4.86031 	 -7.94599 	 69.8616
| 41> *
| 42>
| 43>                          ****END OF INPUT****

CARTESIAN COORDINATES (ANGSTROEM)
---------------------------------
  S     -4.832960  -13.842800   69.840000
  C     -5.421490  -15.053300   68.651400
  C     -5.275780  -14.516100   67.349500
  C     -4.721220  -13.203900   67.322300
  C     -4.416370  -12.642300   68.563000
  H     -4.408660  -12.625800   66.486000
  C     -5.679400  -15.258700   66.093500
  H     -5.436440  -16.357800   66.238200
  H     -5.057470  -14.783500   65.235000
  C     -7.168510  -15.299000   65.850600
  H     -7.369730  -16.099500   65.142800
  H     -7.575770  -15.664600   66.765600
  C     -7.743450  -13.988200   65.526700
  H     -7.821830  -13.797300   64.555700
  H     -8.743230  -13.916100   65.923200
  H     -7.022130  -13.203900   65.870100
  S     -5.478470  -10.328000   69.698200
  C     -4.499410   -8.925510   69.592800
  C     -3.369470   -9.084950   68.893600
  C     -3.030110  -10.474300   68.624400
  C     -4.115650  -11.293600   68.944200
  H     -2.721250   -8.248330   68.646100
  C     -1.867060  -10.895100   67.663600
  H     -2.181610  -11.417300   66.757700
  H     -1.366920  -11.683900   68.199800
  C     -0.942219   -9.672340   67.228800
  H     -0.487041   -9.206320   68.106800
  H     -1.569730   -8.900540   66.811600
  C      0.113541  -10.129200   66.187200
  H      0.635712  -11.028400   66.523300
  H      0.805482   -9.349950   66.117600
  H     -0.295529  -10.274200   65.139100
  H     -5.899250  -16.026400   68.884000
  H     -4.860310   -7.945990   69.861600

 Total Charge           Charge          ....    0
 Multiplicity           Mult            ....    1
 Number of Electrons    NEL             ....  134
 Basis Dimension        Dim             ....  322

ORBITAL ENERGIES
----------------

  NO   OCC          E(Eh)            E(eV)
   0   2.0000     -88.963893     -2420.8306
   1   2.0000     -88.963666     -2420.8244
   2   2.0000     -10.331395      -281.1316
   3   2.0000     -10.329616      -281.0831
   4   2.0000     -10.324421      -280.9418
   5   2.0000     -10.311285      -280.5843
   6   2.0000     -10.311258      -280.5836
   7   2.0000     -10.304974      -280.4126
   8   2.0000     -10.299451      -280.2623
   9   2.0000     -10.298649      -280.2405
  10   2.0000     -10.296756      -280.1890
  11   2.0000     -10.294964      -280.1402
  12   2.0000     -10.291144      -280.0363
  13   2.0000     -10.282917      -279.8124
  14   2.0000     -10.274664      -279.5878
  15   2.0000     -10.258957      -279.1604
  16   2.0000      -8.078472      -219.8264
  17   2.0000      -8.076860      -219.7825
  18   2.0000      -6.037014      -164.2755
  19   2.0000      -6.035457      -164.2331
  20   2.0000      -6.033212      -164.1720
  21   2.0000      -6.031399      -164.1227
  22   2.0000      -6.028967      -164.0565
  23   2.0000      -6.027769      -164.0239
  24   2.0000      -0.998612       -27.1736
  25   2.0000      -0.975624       -26.5481
  26   2.0000      -0.919525       -25.0215
  27   2.0000      -0.901543       -24.5322
  28   2.0000      -0.870730       -23.6938
  29   2.0000      -0.848861       -23.0987
  30   2.0000      -0.841099       -22.8875
  31   2.0000      -0.814197       -22.1554
  32   2.0000      -0.785149       -21.3650
  33   2.0000      -0.769674       -20.9439
  34   2.0000      -0.710641       -19.3375
  35   2.0000      -0.702445       -19.1145
  36   2.0000      -0.700314       -19.0565
  37   2.0000      -0.647361       -17.6156
  38   2.0000      -0.639691       -17.4069
  39   2.0000      -0.610769       -16.6199
  40   2.0000      -0.598749       -16.2928
  41   2.0000      -0.572032       -15.5658
  42   2.0000      -0.562552       -15.3078
  43   2.0000      -0.558084       -15.1862
  44   2.0000      -0.537253       -14.6194
  45   2.0000      -0.528257       -14.3746
  46   2.0000      -0.518622       -14.1124
  47   2.0000      -0.508778       -13.8445
  48   2.0000      -0.507388       -13.8067
  49   2.0000      -0.495228       -13.4758
  50   2.0000      -0.484839       -13.1931
  51   2.0000      -0.480064       -13.0632
  52   2.0000      -0.474166       -12.9027
  53   2.0000      -0.460959       -12.5433
  54   2.0000      -0.457698       -12.4546
  55   2.0000      -0.454591       -12.3700
  56   2.0000      -0.437441       -11.9034
  57   2.0000      -0.434695       -11.8287
  58   2.0000      -0.433730       -11.8024
  59   2.0000      -0.430902       -11.7254
  60   2.0000      -0.422937       -11.5087
  61   2.0000      -0.412959       -11.2372
  62   2.0000      -0.406665       -11.0659
  63   2.0000      -0.338374        -9.2076
  64   2.0000      -0.330352        -8.9893
  65   2.0000      -0.323780        -8.8105
  66   2.0000      -0.297807        -8.1038
  67   0.0000       0.025346         0.6897
  68   0.0000       0.054875         1.4932
  69   0.0000       0.106665         2.9025
  70   0.0000       0.113203         3.0804
  71   0.0000       0.129234         3.5166

MULLIKEN ATOMIC CHARGES
-----------------------
   0 S :    0.095433
   1 C :   -0.132393
   2 C :   -0.087538
   3 C :    0.070262
   4 C :   -0.198354
   5 H :    0.004181
   6 C :   -0.012663
   7 H :    0.035549
   8 H :    0.042373
   9 C :   -0.028144
  10 H :    0.023779
  11 H :    0.003040
  12 C :    0.021256
  13 H :   -0.008639
  14 H :    0.029460
  15 H :    0.028846
  16 S :    0.110376
  17 C :   -0.052814
  18 C :   -0.064059
  19 C :   -0.019006
  20 C :   -0.159129
  21 H :    0.023076
  22 C :    0.052116
  23 H :    0.032476
  24 H :    0.034226
  25 C :   -0.116075
  26 H :    0.039473
  27 H :    0.035917
  28 C :   -0.022916
  29 H :    0.037325
  30 H :    0.019488
  31 H :    0.045489
  32 H :    0.068740
  33 H :    0.048846
Sum of atomic charges:    0.0000000

LOEWDIN ATOMIC CHARGES
----------------------
   0 S :    0.373356
   1 C :   -0.190287
   2 C :   -0.069043
   3 C :   -0.058855
   4 C :   -0.184744
   5 H :    0.026789
   6 C :   -0.039983
   7 H :    0.038553
   8 H :    0.035700
   9 C :   -0.042878
  10 H :    0.022911
  11 H :    0.019110
  12 C :   -0.056847
  13 H :    0.006381
  14 H :    0.030576
  15 H :    0.037322
  16 S :    0.388829
  17 C :   -0.185651
  18 C :   -0.080232
  19 C :   -0.042575
  20 C :   -0.185642
  21 H :    0.031127
  22 C :   -0.029011
  23 H :    0.030185
  24 H :    0.033272
  25 C :   -0.038770
  26 H :    0.024707
  27 H :    0.021911
  28 C :   -0.062481
  29 H :    0.027667
  30 H :    0.018355
  31 H :    0.034260
  32 H :    0.037681
  33 H :    0.028306

  Mayer bond orders larger than 0.100000
B(  0-S ,  1-C ) :   1.1436 B(  0-S ,  4-C ) :   1.1417 B(  1-C ,  2-C ) :   1.5826
B(  1-C ,  4-C ) :   0.1097 B(  1-C , 32-H ) :   0.9637 B(  2-C ,  3-C ) :   1.2445
B(  2-C ,  6-C ) :   1.0216 B(  3-C ,  4-C ) :   1.5695 B(  3-C ,  5-H ) :   0.9880
B(  4-C , 20-C ) :   1.0568 B(  6-C ,  7-H ) :   0.9381 B(  6-C ,  8-H ) :   0.9480
B(  6-C ,  9-C ) :   1.0802 B(  9-C , 10-H ) :   0.9516 B(  9-C , 11-H ) :   0.9509
B(  9-C , 12-C ) :   1.0698 B( 12-C , 13-H ) :   0.9663 B( 12-C , 14-H ) :   0.9697
B( 12-C , 15-H ) :   0.9739 B( 16-S , 17-C ) :   1.1461 B( 16-S , 20-C ) :   1.1187
B( 17-C , 18-C ) :   1.6539 B( 17-C , 33-H ) :   0.9567 B( 18-C , 19-C ) :   1.2193
B( 18-C , 21-H ) :   0.9787 B( 19-C , 20-C ) :   1.6194 B( 19-C , 22-C ) :   1.0222
B( 22-C , 23-H ) :   0.9465 B( 22-C , 24-H ) :   0.9266 B( 22-C , 25-C ) :   1.0696
B( 25-C , 26-H ) :   0.9579 B( 25-C , 27-H ) :   0.9494 B( 25-C , 28-C ) :   1.0798
B( 28-C , 29-H ) :   0.9759 B( 28-C , 30-H ) :   0.9717 B( 28-C , 31-H ) :   0.9741

Dispersion correction           -0.013888847
FINAL SINGLE POINT ENERGY     -1339.852700270942

DIPOLE MOMENT
-------------
                                X             Y             Z
Electronic contribution:     -7.13576       1.75521      22.34230
Nuclear contribution   :      7.31514      -1.60324     -23.06943
                        -----------------------------------------
Total Dipole Moment    :      0.17938       0.15197      -0.72713
                        -----------------------------------------
Magnitude (a.u.)       :      0.76419
Magnitude (Debye)      :      1.94243

Rotational constants in cm-1:     0.017962     0.007972     0.006794
Rotational constants in MHz :   538.493642   238.991954   203.692051

                             ****ORCA TERMINATED NORMALLY****
TOTAL RUN TIME: 0 days 0 hours 0 minutes 35 seconds 658 msec
