                         Program Version 4.2.1 -  RELEASE  -
|  1> ! wB97X-D3 SP def2-SVP
|  2> %pal
|  3> nprocs 16
|  4> end
|  5>
|  6> * xyz 0 1
|  7> S 	 -12.9718 	 33.3511 	 37.3844
|  8> C 	 -12.3579 	 34.7591 	 36.562
|  9> C 	 -13.3062 	 35.2368 	 35.7122
| 10> C 	 -14.4482 	 34.3933 	 35.5978
| 11> C 	 -14.4657 	 33.3197 	 36.4167
| 12> H 	 -15.3286 	 34.6396 	 34.9923
| 13> C 	 -13.1873 	 36.5401 	 34.8437
| 14> H 	 -13.9005 	 36.4829 	 34.0924
| 15> H 	 -12.2154 	 36.558 	 34.328
| 16> C 	 -13.2831 	 37.8619 	 35.5641
| 17> H 	 -14.1271 	 37.8034 	 36.2829
| 18> H 	 -12.3579 	 38.0504 	 36.12
| 19> C 	 -13.6581 	 38.9903 	 34.5781
| 20> H 	 -12.8223 	 39.1124 	 33.8314
| 21> H 	 -14.5332 	 38.6987 	 33.9999
| 22> H 	 -13.7139 	 39.9015 	 35.1544
| 23> S 	 -15.9312 	 31.5573 	 37.9538
| 24> C 	 -16.8897 	 30.3827 	 37.2154
| 25> C 	 -16.8086 	 30.4345 	 35.8429
| 26> C 	 -16.144 	 31.5994 	 35.3719
| 27> C 	 -15.4121 	 32.1969 	 36.4065
| 28> H 	 -17.3141 	 29.7311 	 35.2054
| 29> C 	 -16.1838 	 32.0043 	 33.897
| 30> H 	 -15.3259 	 31.5084 	 33.418
| 31> H 	 -15.877 	 33.0447 	 33.7937
| 32> C 	 -17.4905 	 31.8328 	 33.1921
| 33> H 	 -17.6251 	 30.7573 	 33.2542
| 34> H 	 -17.4031 	 32.1178 	 32.1358
| 35> C 	 -18.6491 	 32.7068 	 33.7306
| 36> H 	 -19.4839 	 32.4543 	 33.0505
| 37> H 	 -18.5358 	 33.7655 	 33.6265
| 38> H 	 -19.0207 	 32.3536 	 34.6764
| 39> H 	 -11.392 	 35.2288 	 36.6299
| 40> H 	 -17.2351 	 29.4899 	 37.7344
| 41> *
| 42>
| 43>                          ****END OF INPUT****

CARTESIAN COORDINATES (ANGSTROEM)
---------------------------------
  S    -12.971800   33.351100   37.384400
  C    -12.357900   34.759100   36.562000
  C    -13.306200   35.236800   35.712200
  C    -14.448200   34.393300   35.597800
  C    -14.465700   33.319700   36.416700
  H    -15.328600   34.639600   34.992300
  C    -13.187300   36.540100   34.843700
  H    -13.900500   36.482900   34.092400
  H    -12.215400   36.558000   34.328000
  C    -13.283100   37.861900   35.564100
  H    -14.127100   37.803400   36.282900
  H    -12.357900   38.050400   36.120000
  C    -13.658100   38.990300   34.578100
  H    -12.822300   39.112400   33.831400
  H    -14.533200   38.698700   33.999900
  H    -13.713900   39.901500   35.154400
  S    -15.931200   31.557300   37.953800
  C    -16.889700   30.382700   37.215400
  C    -16.808600   30.434500   35.842900
  C    -16.144000   31.599400   35.371900
  C    -15.412100   32.196900   36.406500
  H    -17.314100   29.731100   35.205400
  C    -16.183800   32.004300   33.897000
  H    -15.325900   31.508400   33.418000
  H    -15.877000   33.044700   33.793700
  C    -17.490500   31.832800   33.192100
  H    -17.625100   30.757300   33.254200
  H    -17.403100   32.117800   32.135800
  C    -18.649100   32.706800   33.730600
  H    -19.483900   32.454300   33.050500
  H    -18.535800   33.765500   33.626500
  H    -19.020700   32.353600   34.676400
  H    -11.392000   35.228800   36.629900
  H    -17.235100   29.489900   37.734400

 Total Charge           Charge          ....    0
 Multiplicity           Mult            ....    1
 Number of Electrons    NEL             ....  134
 Basis Dimension        Dim             ....  322

ORBITAL ENERGIES
----------------

  NO   OCC          E(Eh)            E(eV)
   0   2.0000     -88.964736     -2420.8535
   1   2.0000     -88.964028     -2420.8343
   2   2.0000     -10.329000      -281.0664
   3   2.0000     -10.328599      -281.0555
   4   2.0000     -10.311335      -280.5857
   5   2.0000     -10.311211      -280.5823
   6   2.0000     -10.305841      -280.4362
   7   2.0000     -10.297748      -280.2160
   8   2.0000     -10.291214      -280.0382
   9   2.0000     -10.289191      -279.9831
  10   2.0000     -10.288875      -279.9745
  11   2.0000     -10.288424      -279.9623
  12   2.0000     -10.287047      -279.9248
  13   2.0000     -10.285996      -279.8962
  14   2.0000     -10.283025      -279.8153
  15   2.0000     -10.277854      -279.6746
  16   2.0000      -8.080704      -219.8871
  17   2.0000      -8.078476      -219.8265
  18   2.0000      -6.039094      -164.3321
  19   2.0000      -6.037153      -164.2793
  20   2.0000      -6.034959      -164.2196
  21   2.0000      -6.033020      -164.1668
  22   2.0000      -6.031613      -164.1285
  23   2.0000      -6.029050      -164.0588
  24   2.0000      -1.010328       -27.4924
  25   2.0000      -0.989821       -26.9344
  26   2.0000      -0.915579       -24.9142
  27   2.0000      -0.911380       -24.7999
  28   2.0000      -0.871700       -23.7202
  29   2.0000      -0.851638       -23.1743
  30   2.0000      -0.842598       -22.9283
  31   2.0000      -0.814958       -22.1761
  32   2.0000      -0.788574       -21.4582
  33   2.0000      -0.773857       -21.0577
  34   2.0000      -0.707792       -19.2600
  35   2.0000      -0.700205       -19.0535
  36   2.0000      -0.692802       -18.8521
  37   2.0000      -0.656661       -17.8686
  38   2.0000      -0.639266       -17.3953
  39   2.0000      -0.621929       -16.9235
  40   2.0000      -0.601236       -16.3605
  41   2.0000      -0.571969       -15.5641
  42   2.0000      -0.564221       -15.3532
  43   2.0000      -0.552983       -15.0474
  44   2.0000      -0.550362       -14.9761
  45   2.0000      -0.525105       -14.2888
  46   2.0000      -0.520664       -14.1680
  47   2.0000      -0.509453       -13.8629
  48   2.0000      -0.506605       -13.7854
  49   2.0000      -0.499125       -13.5819
  50   2.0000      -0.491048       -13.3621
  51   2.0000      -0.481456       -13.1011
  52   2.0000      -0.477259       -12.9869
  53   2.0000      -0.471725       -12.8363
  54   2.0000      -0.455308       -12.3896
  55   2.0000      -0.448541       -12.2054
  56   2.0000      -0.445577       -12.1248
  57   2.0000      -0.441140       -12.0040
  58   2.0000      -0.434867       -11.8333
  59   2.0000      -0.420445       -11.4409
  60   2.0000      -0.417221       -11.3532
  61   2.0000      -0.414055       -11.2670
  62   2.0000      -0.408814       -11.1244
  63   2.0000      -0.354973        -9.6593
  64   2.0000      -0.331361        -9.0168
  65   2.0000      -0.328977        -8.9519
  66   2.0000      -0.288364        -7.8468
  67   0.0000       0.027622         0.7516
  68   0.0000       0.074891         2.0379
  69   0.0000       0.112612         3.0643
  70   0.0000       0.120067         3.2672
  71   0.0000       0.134880         3.6703

MULLIKEN ATOMIC CHARGES
-----------------------
   0 S :    0.101139
   1 C :   -0.113177
   2 C :   -0.083266
   3 C :   -0.023808
   4 C :   -0.098296
   5 H :    0.028079
   6 C :    0.091100
   7 H :   -0.013347
   8 H :    0.025638
   9 C :   -0.086251
  10 H :    0.033449
  11 H :    0.032464
  12 C :   -0.052006
  13 H :    0.027679
  14 H :    0.036936
  15 H :    0.042656
  16 S :    0.114553
  17 C :   -0.081819
  18 C :   -0.048697
  19 C :   -0.068976
  20 C :   -0.154461
  21 H :    0.016205
  22 C :    0.091846
  23 H :    0.042431
  24 H :   -0.008956
  25 C :   -0.084610
  26 H :    0.025873
  27 H :    0.032471
  28 C :   -0.030247
  29 H :    0.024853
  30 H :    0.035504
  31 H :    0.038610
  32 H :    0.041847
  33 H :    0.064581
Sum of atomic charges:   -0.0000000

LOEWDIN ATOMIC CHARGES
----------------------
   0 S :    0.391606
   1 C :   -0.194926
   2 C :   -0.064296
   3 C :   -0.073043
   4 C :   -0.182849
   5 H :    0.032927
   6 C :   -0.026671
   7 H :    0.013385
   8 H :    0.032395
   9 C :   -0.043098
  10 H :    0.025516
  11 H :    0.023091
  12 C :   -0.062948
  13 H :    0.026600
  14 H :    0.025384
  15 H :    0.026856
  16 S :    0.433056
  17 C :   -0.209788
  18 C :   -0.072747
  19 C :   -0.048823
  20 C :   -0.197946
  21 H :    0.027757
  22 C :   -0.039736
  23 H :    0.039958
  24 H :    0.022876
  25 C :   -0.041604
  26 H :    0.021822
  27 H :    0.030091
  28 C :   -0.061411
  29 H :    0.032137
  30 H :    0.024290
  31 H :    0.025477
  32 H :    0.032198
  33 H :    0.032467

  Mayer bond orders larger than 0.100000
B(  0-S ,  1-C ) :   1.1302 B(  0-S ,  4-C ) :   1.1311 B(  1-C ,  2-C ) :   1.6308
B(  1-C , 32-H ) :   0.9703 B(  2-C ,  3-C ) :   1.2459 B(  2-C ,  6-C ) :   1.0117
B(  3-C ,  4-C ) :   1.6023 B(  3-C ,  5-H ) :   0.9828 B(  4-C , 20-C ) :   1.0335
B(  6-C ,  7-H ) :   0.9436 B(  6-C ,  8-H ) :   0.9384 B(  6-C ,  9-C ) :   1.0632
B(  9-C , 10-H ) :   0.9579 B(  9-C , 11-H ) :   0.9545 B(  9-C , 12-C ) :   1.0820
B( 12-C , 13-H ) :   0.9745 B( 12-C , 14-H ) :   0.9749 B( 12-C , 15-H ) :   0.9748
B( 16-S , 17-C ) :   1.1779 B( 16-S , 20-C ) :   1.1553 B( 17-C , 18-C ) :   1.5954
B( 17-C , 20-C ) :   0.1021 B( 17-C , 33-H ) :   0.9587 B( 18-C , 19-C ) :   1.2608
B( 18-C , 21-H ) :   0.9862 B( 19-C , 20-C ) :   1.5784 B( 19-C , 22-C ) :   1.0265
B( 22-C , 23-H ) :   0.9262 B( 22-C , 24-H ) :   0.9310 B( 22-C , 25-C ) :   1.0770
B( 25-C , 26-H ) :   0.9537 B( 25-C , 27-H ) :   0.9520 B( 25-C , 28-C ) :   1.0798
B( 28-C , 29-H ) :   0.9718 B( 28-C , 30-H ) :   0.9742 B( 28-C , 31-H ) :   0.9733

Dispersion correction           -0.013831898
FINAL SINGLE POINT ENERGY     -1339.876858263933

DIPOLE MOMENT
-------------
                                X             Y             Z
Electronic contribution:      7.50792     -17.98836      21.60817
Nuclear contribution   :     -7.69911      18.21239     -22.31605
                        -----------------------------------------
Total Dipole Moment    :     -0.19120       0.22402      -0.70787
                        -----------------------------------------
Magnitude (a.u.)       :      0.76670
Magnitude (Debye)      :      1.94879

Rotational constants in cm-1:     0.019135     0.008104     0.006201
Rotational constants in MHz :   573.653122   242.950788   185.915828

                             ****ORCA TERMINATED NORMALLY****
TOTAL RUN TIME: 0 days 0 hours 0 minutes 33 seconds 809 msec
