                         Program Version 4.2.1 -  RELEASE  -
|  1> ! wB97X-D3 SP def2-SVP
|  2> %pal
|  3> nprocs 16
|  4> end
|  5>
|  6> * xyz 0 1
|  7> S 	 47.009 	 3.51864 	 91.2048
|  8> C 	 46.5411 	 4.9545 	 90.3056
|  9> C 	 46.7475 	 4.8453 	 88.9204
| 10> C 	 47.3272 	 3.59305 	 88.5484
| 11> C 	 47.7086 	 2.89562 	 89.7096
| 12> H 	 47.6194 	 3.29049 	 87.5903
| 13> C 	 46.2427 	 5.80389 	 87.8709
| 14> H 	 46.8444 	 5.72316 	 86.9287
| 15> H 	 46.5656 	 6.72836 	 88.3474
| 16> C 	 44.7742 	 5.72688 	 87.5134
| 17> H 	 44.5577 	 4.68681 	 87.3212
| 18> H 	 44.0827 	 5.87811 	 88.3533
| 19> C 	 44.4875 	 6.62023 	 86.3141
| 20> H 	 44.6355 	 6.12788 	 85.3964
| 21> H 	 43.4655 	 6.96586 	 86.4284
| 22> H 	 45.0848 	 7.52765 	 86.3945
| 23> S 	 47.0087 	 0.284415 	 90.4016
| 24> C 	 48.1888 	 -0.920381 	 90.1401
| 25> C 	 49.3493 	 -0.451143 	 89.4644
| 26> C 	 49.2818 	 0.929448 	 89.2541
| 27> C 	 48.1154 	 1.48202 	 89.7417
| 28> H 	 50.2201 	 -1.02661 	 89.157
| 29> C 	 50.4391 	 1.74135 	 88.7003
| 30> H 	 51.2378 	 1.65439 	 89.3552
| 31> H 	 50.2086 	 2.81088 	 88.669
| 32> C 	 50.7698 	 1.34902 	 87.2143
| 33> H 	 49.8396 	 1.36676 	 86.7173
| 34> H 	 51.0001 	 0.329865 	 87.059
| 35> C 	 51.8845 	 2.34523 	 86.6282
| 36> H 	 51.52 	 3.32325 	 86.4928
| 37> H 	 52.341 	 1.97475 	 85.7559
| 38> H 	 52.692 	 2.2976 	 87.3928
| 39> H 	 46.1001 	 5.77564 	 90.8201
| 40> H 	 48.0698 	 -1.90722 	 90.4417
| 41> *
| 42>
| 43>                          ****END OF INPUT****

CARTESIAN COORDINATES (ANGSTROEM)
---------------------------------
  S     47.009000    3.518640   91.204800
  C     46.541100    4.954500   90.305600
  C     46.747500    4.845300   88.920400
  C     47.327200    3.593050   88.548400
  C     47.708600    2.895620   89.709600
  H     47.619400    3.290490   87.590300
  C     46.242700    5.803890   87.870900
  H     46.844400    5.723160   86.928700
  H     46.565600    6.728360   88.347400
  C     44.774200    5.726880   87.513400
  H     44.557700    4.686810   87.321200
  H     44.082700    5.878110   88.353300
  C     44.487500    6.620230   86.314100
  H     44.635500    6.127880   85.396400
  H     43.465500    6.965860   86.428400
  H     45.084800    7.527650   86.394500
  S     47.008700    0.284415   90.401600
  C     48.188800   -0.920381   90.140100
  C     49.349300   -0.451143   89.464400
  C     49.281800    0.929448   89.254100
  C     48.115400    1.482020   89.741700
  H     50.220100   -1.026610   89.157000
  C     50.439100    1.741350   88.700300
  H     51.237800    1.654390   89.355200
  H     50.208600    2.810880   88.669000
  C     50.769800    1.349020   87.214300
  H     49.839600    1.366760   86.717300
  H     51.000100    0.329865   87.059000
  C     51.884500    2.345230   86.628200
  H     51.520000    3.323250   86.492800
  H     52.341000    1.974750   85.755900
  H     52.692000    2.297600   87.392800
  H     46.100100    5.775640   90.820100
  H     48.069800   -1.907220   90.441700

 Total Charge           Charge          ....    0
 Multiplicity           Mult            ....    1
 Number of Electrons    NEL             ....  134
 Basis Dimension        Dim             ....  322

ORBITAL ENERGIES
----------------

  NO   OCC          E(Eh)            E(eV)
   0   2.0000     -88.968538     -2420.9570
   1   2.0000     -88.967517     -2420.9292
   2   2.0000     -10.328130      -281.0427
   3   2.0000     -10.317012      -280.7402
   4   2.0000     -10.313090      -280.6334
   5   2.0000     -10.311104      -280.5794
   6   2.0000     -10.301920      -280.3295
   7   2.0000     -10.294027      -280.1147
   8   2.0000     -10.292022      -280.0602
   9   2.0000     -10.291626      -280.0494
  10   2.0000     -10.290819      -280.0274
  11   2.0000     -10.284060      -279.8435
  12   2.0000     -10.283371      -279.8248
  13   2.0000     -10.282759      -279.8081
  14   2.0000     -10.277942      -279.6770
  15   2.0000     -10.273278      -279.5501
  16   2.0000      -8.082899      -219.9469
  17   2.0000      -8.082629      -219.9395
  18   2.0000      -6.041179      -164.3888
  19   2.0000      -6.040925      -164.3819
  20   2.0000      -6.037669      -164.2933
  21   2.0000      -6.037098      -164.2778
  22   2.0000      -6.033729      -164.1861
  23   2.0000      -6.033598      -164.1825
  24   2.0000      -1.004549       -27.3352
  25   2.0000      -0.980688       -26.6859
  26   2.0000      -0.914579       -24.8869
  27   2.0000      -0.903947       -24.5977
  28   2.0000      -0.862813       -23.4783
  29   2.0000      -0.853410       -23.2225
  30   2.0000      -0.847751       -23.0685
  31   2.0000      -0.807691       -21.9784
  32   2.0000      -0.782368       -21.2893
  33   2.0000      -0.766429       -20.8556
  34   2.0000      -0.713477       -19.4147
  35   2.0000      -0.706365       -19.2212
  36   2.0000      -0.695203       -18.9174
  37   2.0000      -0.662403       -18.0249
  38   2.0000      -0.645414       -17.5626
  39   2.0000      -0.615466       -16.7477
  40   2.0000      -0.599104       -16.3025
  41   2.0000      -0.572511       -15.5788
  42   2.0000      -0.562220       -15.2988
  43   2.0000      -0.552529       -15.0351
  44   2.0000      -0.524812       -14.2809
  45   2.0000      -0.520181       -14.1549
  46   2.0000      -0.517186       -14.0734
  47   2.0000      -0.511231       -13.9113
  48   2.0000      -0.507058       -13.7977
  49   2.0000      -0.499172       -13.5832
  50   2.0000      -0.487492       -13.2653
  51   2.0000      -0.475484       -12.9386
  52   2.0000      -0.468229       -12.7412
  53   2.0000      -0.463913       -12.6237
  54   2.0000      -0.459963       -12.5162
  55   2.0000      -0.454839       -12.3768
  56   2.0000      -0.448179       -12.1956
  57   2.0000      -0.441927       -12.0254
  58   2.0000      -0.435625       -11.8539
  59   2.0000      -0.426995       -11.6191
  60   2.0000      -0.425010       -11.5651
  61   2.0000      -0.418776       -11.3955
  62   2.0000      -0.408259       -11.1093
  63   2.0000      -0.340252        -9.2587
  64   2.0000      -0.334828        -9.1111
  65   2.0000      -0.325754        -8.8642
  66   2.0000      -0.286610        -7.7991
  67   0.0000       0.030458         0.8288
  68   0.0000       0.062412         1.6983
  69   0.0000       0.106783         2.9057
  70   0.0000       0.125870         3.4251
  71   0.0000       0.128926         3.5083

MULLIKEN ATOMIC CHARGES
-----------------------
   0 S :    0.104984
   1 C :   -0.122445
   2 C :   -0.084870
   3 C :    0.065752
   4 C :   -0.169382
   5 H :   -0.001217
   6 C :    0.039062
   7 H :    0.026006
   8 H :    0.026318
   9 C :   -0.056673
  10 H :    0.017807
  11 H :    0.023013
  12 C :   -0.011017
  13 H :    0.036711
  14 H :    0.027472
  15 H :    0.028229
  16 S :    0.133106
  17 C :   -0.074905
  18 C :   -0.033327
  19 C :   -0.040342
  20 C :   -0.175284
  21 H :    0.017594
  22 C :    0.093736
  23 H :    0.018474
  24 H :    0.023789
  25 C :   -0.083976
  26 H :    0.012448
  27 H :    0.013775
  28 C :   -0.014093
  29 H :    0.035225
  30 H :    0.023760
  31 H :    0.029469
  32 H :    0.038014
  33 H :    0.032785
Sum of atomic charges:   -0.0000000

LOEWDIN ATOMIC CHARGES
----------------------
   0 S :    0.402902
   1 C :   -0.194617
   2 C :   -0.058546
   3 C :   -0.043731
   4 C :   -0.183489
   5 H :    0.023831
   6 C :   -0.039994
   7 H :    0.033282
   8 H :    0.031265
   9 C :   -0.043548
  10 H :    0.024007
  11 H :    0.025153
  12 C :   -0.057312
  13 H :    0.021489
  14 H :    0.029523
  15 H :    0.027131
  16 S :    0.425370
  17 C :   -0.189983
  18 C :   -0.068488
  19 C :   -0.061437
  20 C :   -0.210001
  21 H :    0.031906
  22 C :   -0.019874
  23 H :    0.019622
  24 H :    0.031536
  25 C :   -0.032163
  26 H :    0.016083
  27 H :    0.014545
  28 C :   -0.053715
  29 H :    0.019771
  30 H :    0.018817
  31 H :    0.031214
  32 H :    0.017410
  33 H :    0.012038

  Mayer bond orders larger than 0.100000
B(  0-S ,  1-C ) :   1.1420 B(  0-S ,  4-C ) :   1.1648 B(  1-C ,  2-C ) :   1.5852
B(  1-C , 32-H ) :   0.9756 B(  2-C ,  3-C ) :   1.2507 B(  2-C ,  6-C ) :   1.0183
B(  3-C ,  4-C ) :   1.5479 B(  3-C ,  5-H ) :   0.9987 B(  4-C , 20-C ) :   1.0145
B(  6-C ,  7-H ) :   0.9459 B(  6-C ,  8-H ) :   0.9284 B(  6-C ,  9-C ) :   1.0640
B(  9-C , 10-H ) :   0.9526 B(  9-C , 11-H ) :   0.9562 B(  9-C , 12-C ) :   1.0708
B( 12-C , 13-H ) :   0.9769 B( 12-C , 14-H ) :   0.9733 B( 12-C , 15-H ) :   0.9749
B( 16-S , 17-C ) :   1.1784 B( 16-S , 20-C ) :   1.1495 B( 17-C , 18-C ) :   1.5532
B( 17-C , 20-C ) :   0.1006 B( 17-C , 33-H ) :   0.9772 B( 18-C , 19-C ) :   1.2825
B( 18-C , 21-H ) :   0.9898 B( 19-C , 20-C ) :   1.5933 B( 19-C , 22-C ) :   1.0423
B( 22-C , 23-H ) :   0.9362 B( 22-C , 24-H ) :   0.9346 B( 22-C , 25-C ) :   1.0404
B( 25-C , 26-H ) :   0.9576 B( 25-C , 27-H ) :   0.9619 B( 25-C , 28-C ) :   1.0666
B( 28-C , 29-H ) :   0.9796 B( 28-C , 30-H ) :   0.9772 B( 28-C , 31-H ) :   0.9762

Dispersion correction           -0.013907073
FINAL SINGLE POINT ENERGY     -1339.863039481898

DIPOLE MOMENT
-------------
                                X             Y             Z
Electronic contribution:     -6.19112     -13.77156      23.15556
Nuclear contribution   :      6.25804      13.96607     -23.64414
                        -----------------------------------------
Total Dipole Moment    :      0.06692       0.19450      -0.48858
                        -----------------------------------------
Magnitude (a.u.)       :      0.53011
Magnitude (Debye)      :      1.34743

Rotational constants in cm-1:     0.017248     0.008333     0.006510
Rotational constants in MHz :   517.074951   249.824141   195.159692

                             ****ORCA TERMINATED NORMALLY****
TOTAL RUN TIME: 0 days 0 hours 0 minutes 27 seconds 781 msec
