                         Program Version 4.2.1 -  RELEASE  -
|  1> ! wB97X-D3 SP def2-SVP
|  2> %pal
|  3> nprocs 16
|  4> end
|  5>
|  6> * xyz 0 1
|  7> S 	 -7.31986 	 60.4474 	 57.3395
|  8> C 	 -6.05416 	 59.9302 	 58.5103
|  9> C 	 -6.65825 	 59.0936 	 59.4656
| 10> C 	 -8.00892 	 58.8161 	 59.1945
| 11> C 	 -8.57604 	 59.5287 	 58.099
| 12> H 	 -8.56631 	 58.1434 	 59.8309
| 13> C 	 -5.90325 	 58.4219 	 60.6056
| 14> H 	 -6.54786 	 58.424 	 61.4192
| 15> H 	 -5.06868 	 59.0423 	 60.9152
| 16> C 	 -5.48032 	 56.9197 	 60.3604
| 17> H 	 -5.00143 	 56.5796 	 61.2324
| 18> H 	 -6.30659 	 56.2933 	 60.1012
| 19> C 	 -4.45869 	 56.8232 	 59.2273
| 20> H 	 -4.91861 	 56.7673 	 58.3281
| 21> H 	 -3.80696 	 57.7346 	 59.1292
| 22> H 	 -3.77129 	 56.0009 	 59.3827
| 23> S 	 -10.7644 	 57.9698 	 57.3641
| 24> C 	 -12.2867 	 58.8187 	 57.0464
| 25> C 	 -12.1834 	 60.2086 	 57.0836
| 26> C 	 -10.8805 	 60.6095 	 57.4389
| 27> C 	 -10.0143 	 59.5209 	 57.6818
| 28> H 	 -13.0806 	 60.7871 	 56.9086
| 29> C 	 -10.6567 	 62.146 	 57.5496
| 30> H 	 -11.2965 	 62.6733 	 56.8549
| 31> H 	 -9.63701 	 62.5209 	 57.3919
| 32> C 	 -10.9255 	 62.8058 	 58.8999
| 33> H 	 -11.9072 	 62.6717 	 59.2409
| 34> H 	 -10.6368 	 63.8952 	 58.7102
| 35> C 	 -10.058 	 62.2994 	 59.9895
| 36> H 	 -10.099 	 63.0106 	 60.7049
| 37> H 	 -9.06028 	 62.1158 	 59.6987
| 38> H 	 -10.4691 	 61.3958 	 60.3827
| 39> H 	 -5.05503 	 60.1849 	 58.5147
| 40> H 	 -13.2025 	 58.2784 	 56.9638
| 41> *
| 42>
| 43>                          ****END OF INPUT****

CARTESIAN COORDINATES (ANGSTROEM)
---------------------------------
  S     -7.319860   60.447400   57.339500
  C     -6.054160   59.930200   58.510300
  C     -6.658250   59.093600   59.465600
  C     -8.008920   58.816100   59.194500
  C     -8.576040   59.528700   58.099000
  H     -8.566310   58.143400   59.830900
  C     -5.903250   58.421900   60.605600
  H     -6.547860   58.424000   61.419200
  H     -5.068680   59.042300   60.915200
  C     -5.480320   56.919700   60.360400
  H     -5.001430   56.579600   61.232400
  H     -6.306590   56.293300   60.101200
  C     -4.458690   56.823200   59.227300
  H     -4.918610   56.767300   58.328100
  H     -3.806960   57.734600   59.129200
  H     -3.771290   56.000900   59.382700
  S    -10.764400   57.969800   57.364100
  C    -12.286700   58.818700   57.046400
  C    -12.183400   60.208600   57.083600
  C    -10.880500   60.609500   57.438900
  C    -10.014300   59.520900   57.681800
  H    -13.080600   60.787100   56.908600
  C    -10.656700   62.146000   57.549600
  H    -11.296500   62.673300   56.854900
  H     -9.637010   62.520900   57.391900
  C    -10.925500   62.805800   58.899900
  H    -11.907200   62.671700   59.240900
  H    -10.636800   63.895200   58.710200
  C    -10.058000   62.299400   59.989500
  H    -10.099000   63.010600   60.704900
  H     -9.060280   62.115800   59.698700
  H    -10.469100   61.395800   60.382700
  H     -5.055030   60.184900   58.514700
  H    -13.202500   58.278400   56.963800

 Total Charge           Charge          ....    0
 Multiplicity           Mult            ....    1
 Number of Electrons    NEL             ....  134
 Basis Dimension        Dim             ....  322

ORBITAL ENERGIES
----------------

  NO   OCC          E(Eh)            E(eV)
   0   2.0000     -88.972565     -2421.0666
   1   2.0000     -88.970299     -2421.0049
   2   2.0000     -10.337168      -281.2886
   3   2.0000     -10.335578      -281.2454
   4   2.0000     -10.318653      -280.7848
   5   2.0000     -10.314883      -280.6822
   6   2.0000     -10.309788      -280.5436
   7   2.0000     -10.301024      -280.3051
   8   2.0000     -10.296541      -280.1831
   9   2.0000     -10.294094      -280.1165
  10   2.0000     -10.288949      -279.9765
  11   2.0000     -10.288288      -279.9585
  12   2.0000     -10.283007      -279.8148
  13   2.0000     -10.276079      -279.6263
  14   2.0000     -10.266277      -279.3596
  15   2.0000     -10.247950      -278.8609
  16   2.0000      -8.086589      -220.0473
  17   2.0000      -8.083635      -219.9669
  18   2.0000      -6.045005      -164.4930
  19   2.0000      -6.042220      -164.4172
  20   2.0000      -6.041274      -164.3914
  21   2.0000      -6.038069      -164.3042
  22   2.0000      -6.037436      -164.2870
  23   2.0000      -6.034656      -164.2113
  24   2.0000      -1.000244       -27.2180
  25   2.0000      -0.980131       -26.6707
  26   2.0000      -0.912905       -24.8414
  27   2.0000      -0.908990       -24.7349
  28   2.0000      -0.864652       -23.5284
  29   2.0000      -0.854276       -23.2460
  30   2.0000      -0.842402       -22.9229
  31   2.0000      -0.809633       -22.0312
  32   2.0000      -0.788051       -21.4439
  33   2.0000      -0.777330       -21.1522
  34   2.0000      -0.707884       -19.2625
  35   2.0000      -0.700336       -19.0571
  36   2.0000      -0.681387       -18.5415
  37   2.0000      -0.665613       -18.1122
  38   2.0000      -0.634953       -17.2779
  39   2.0000      -0.620717       -16.8906
  40   2.0000      -0.603955       -16.4344
  41   2.0000      -0.573135       -15.5958
  42   2.0000      -0.552588       -15.0367
  43   2.0000      -0.551702       -15.0126
  44   2.0000      -0.547239       -14.8911
  45   2.0000      -0.543999       -14.8030
  46   2.0000      -0.519187       -14.1278
  47   2.0000      -0.510350       -13.8873
  48   2.0000      -0.501951       -13.6588
  49   2.0000      -0.494524       -13.4567
  50   2.0000      -0.486820       -13.2471
  51   2.0000      -0.475567       -12.9408
  52   2.0000      -0.471191       -12.8218
  53   2.0000      -0.463577       -12.6146
  54   2.0000      -0.459713       -12.5094
  55   2.0000      -0.450652       -12.2629
  56   2.0000      -0.443809       -12.0767
  57   2.0000      -0.434836       -11.8325
  58   2.0000      -0.429492       -11.6871
  59   2.0000      -0.423373       -11.5206
  60   2.0000      -0.423056       -11.5119
  61   2.0000      -0.414397       -11.2763
  62   2.0000      -0.412382       -11.2215
  63   2.0000      -0.342403        -9.3173
  64   2.0000      -0.334312        -9.0971
  65   2.0000      -0.331516        -9.0210
  66   2.0000      -0.290246        -7.8980
  67   0.0000       0.023966         0.6521
  68   0.0000       0.068332         1.8594
  69   0.0000       0.104594         2.8461
  70   0.0000       0.119111         3.2412
  71   0.0000       0.128541         3.4978

MULLIKEN ATOMIC CHARGES
-----------------------
   0 S :    0.114808
   1 C :   -0.105173
   2 C :   -0.093389
   3 C :    0.019866
   4 C :   -0.140519
   5 H :    0.005443
   6 C :    0.080559
   7 H :    0.005919
   8 H :    0.021413
   9 C :   -0.033317
  10 H :    0.021848
  11 H :    0.030169
  12 C :   -0.039859
  13 H :    0.021418
  14 H :    0.016330
  15 H :    0.030152
  16 S :    0.121938
  17 C :   -0.099427
  18 C :   -0.035227
  19 C :   -0.005641
  20 C :   -0.163714
  21 H :    0.028263
  22 C :    0.066063
  23 H :    0.020376
  24 H :    0.019802
  25 C :   -0.097487
  26 H :    0.010842
  27 H :    0.035155
  28 C :    0.037581
  29 H :    0.000952
  30 H :    0.014329
  31 H :    0.021278
  32 H :    0.019230
  33 H :    0.050019
Sum of atomic charges:    0.0000000

LOEWDIN ATOMIC CHARGES
----------------------
   0 S :    0.411972
   1 C :   -0.180243
   2 C :   -0.059186
   3 C :   -0.070419
   4 C :   -0.201115
   5 H :    0.026751
   6 C :   -0.022380
   7 H :    0.020007
   8 H :    0.029771
   9 C :   -0.023673
  10 H :    0.018683
  11 H :    0.023585
  12 C :   -0.059487
  13 H :    0.011454
  14 H :    0.025907
  15 H :    0.025558
  16 S :    0.409039
  17 C :   -0.173213
  18 C :   -0.064843
  19 C :   -0.054358
  20 C :   -0.201116
  21 H :    0.037218
  22 C :   -0.033059
  23 H :    0.028628
  24 H :    0.026163
  25 C :   -0.034070
  26 H :    0.011891
  27 H :    0.031345
  28 C :   -0.049322
  29 H :    0.012809
  30 H :    0.018097
  31 H :    0.024669
  32 H :    0.012547
  33 H :    0.020388

  Mayer bond orders larger than 0.100000
B(  0-S ,  1-C ) :   1.1386 B(  0-S ,  4-C ) :   1.1730 B(  1-C ,  2-C ) :   1.5559
B(  1-C ,  4-C ) :   0.1088 B(  1-C , 32-H ) :   0.9829 B(  2-C ,  3-C ) :   1.2997
B(  2-C ,  6-C ) :   1.0293 B(  3-C ,  4-C ) :   1.5092 B(  3-C ,  5-H ) :   0.9919
B(  4-C , 20-C ) :   1.0259 B(  6-C ,  7-H ) :   0.9339 B(  6-C ,  8-H ) :   0.9430
B(  6-C ,  9-C ) :   1.0763 B(  9-C , 10-H ) :   0.9596 B(  9-C , 11-H ) :   0.9588
B(  9-C , 12-C ) :   1.0692 B( 12-C , 13-H ) :   0.9775 B( 12-C , 14-H ) :   0.9759
B( 12-C , 15-H ) :   0.9756 B( 16-S , 17-C ) :   1.1575 B( 16-S , 20-C ) :   1.1559
B( 17-C , 18-C ) :   1.6007 B( 17-C , 20-C ) :   0.1040 B( 17-C , 33-H ) :   0.9688
B( 18-C , 19-C ) :   1.2464 B( 18-C , 21-H ) :   0.9926 B( 19-C , 20-C ) :   1.5702
B( 19-C , 22-C ) :   1.0296 B( 22-C , 23-H ) :   0.9375 B( 22-C , 24-H ) :   0.9407
B( 22-C , 25-C ) :   1.0782 B( 25-C , 26-H ) :   0.9527 B( 25-C , 27-H ) :   0.9578
B( 25-C , 28-C ) :   1.0897 B( 28-C , 29-H ) :   0.9668 B( 28-C , 30-H ) :   0.9706
B( 28-C , 31-H ) :   0.9690

Dispersion correction           -0.015619543
FINAL SINGLE POINT ENERGY     -1339.859504986818

DIPOLE MOMENT
-------------
                                X             Y             Z
Electronic contribution:     -8.96881      -3.68099     -13.91597
Nuclear contribution   :      8.88229       3.70156      14.34025
                        -----------------------------------------
Total Dipole Moment    :     -0.08652       0.02057       0.42428
                        -----------------------------------------
Magnitude (a.u.)       :      0.43350
Magnitude (Debye)      :      1.10186

Rotational constants in cm-1:     0.022122     0.008417     0.007138
Rotational constants in MHz :   663.206972   252.348497   214.002790

                             ****ORCA TERMINATED NORMALLY****
TOTAL RUN TIME: 0 days 0 hours 0 minutes 34 seconds 532 msec
