                         Program Version 4.2.1 -  RELEASE  -
|  1> ! wB97X-D3 SP def2-SVP
|  2> %pal
|  3> nprocs 16
|  4> end
|  5>
|  6> * xyz 0 1
|  7> S 	 -34.4234 	 56.3898 	 111.479
|  8> C 	 -33.8815 	 58.0246 	 111.439
|  9> C 	 -34.8893 	 58.9685 	 111.659
| 10> C 	 -36.1543 	 58.3609 	 111.672
| 11> C 	 -36.1527 	 56.9709 	 111.657
| 12> H 	 -37.1155 	 58.9061 	 111.767
| 13> C 	 -34.6983 	 60.48 	 111.715
| 14> H 	 -35.438 	 61.0676 	 111.156
| 15> H 	 -33.8087 	 60.651 	 111.165
| 16> C 	 -34.5841 	 60.933 	 113.196
| 17> H 	 -34.4805 	 60.0159 	 113.645
| 18> H 	 -33.6928 	 61.5012 	 113.295
| 19> C 	 -35.8168 	 61.5593 	 113.737
| 20> H 	 -35.7173 	 62.1674 	 114.656
| 21> H 	 -36.1655 	 62.3832 	 113.017
| 22> H 	 -36.6581 	 60.9446 	 113.939
| 23> S 	 -37.1 	 54.7799 	 112.972
| 24> C 	 -38.6963 	 54.1451 	 112.47
| 25> C 	 -39.3576 	 55.1236 	 111.751
| 26> C 	 -38.5295 	 56.1569 	 111.183
| 27> C 	 -37.239 	 56.0829 	 111.755
| 28> H 	 -40.3645 	 54.9635 	 111.4
| 29> C 	 -39.0149 	 57.0782 	 110.073
| 30> H 	 -38.0673 	 57.1125 	 109.561
| 31> H 	 -39.0368 	 58.1007 	 110.561
| 32> C 	 -40.3049 	 56.6684 	 109.313
| 33> H 	 -41.1347 	 56.7183 	 109.99
| 34> H 	 -40.4196 	 55.6206 	 109.054
| 35> C 	 -40.4632 	 57.4975 	 108.053
| 36> H 	 -39.7779 	 57.2394 	 107.204
| 37> H 	 -40.4645 	 58.6053 	 108.233
| 38> H 	 -41.4805 	 57.3864 	 107.711
| 39> H 	 -32.8642 	 58.3261 	 111.568
| 40> H 	 -39.096 	 53.3052 	 113.051
| 41> *
| 42>
| 43>                          ****END OF INPUT****

CARTESIAN COORDINATES (ANGSTROEM)
---------------------------------
  S    -34.423400   56.389800  111.479000
  C    -33.881500   58.024600  111.439000
  C    -34.889300   58.968500  111.659000
  C    -36.154300   58.360900  111.672000
  C    -36.152700   56.970900  111.657000
  H    -37.115500   58.906100  111.767000
  C    -34.698300   60.480000  111.715000
  H    -35.438000   61.067600  111.156000
  H    -33.808700   60.651000  111.165000
  C    -34.584100   60.933000  113.196000
  H    -34.480500   60.015900  113.645000
  H    -33.692800   61.501200  113.295000
  C    -35.816800   61.559300  113.737000
  H    -35.717300   62.167400  114.656000
  H    -36.165500   62.383200  113.017000
  H    -36.658100   60.944600  113.939000
  S    -37.100000   54.779900  112.972000
  C    -38.696300   54.145100  112.470000
  C    -39.357600   55.123600  111.751000
  C    -38.529500   56.156900  111.183000
  C    -37.239000   56.082900  111.755000
  H    -40.364500   54.963500  111.400000
  C    -39.014900   57.078200  110.073000
  H    -38.067300   57.112500  109.561000
  H    -39.036800   58.100700  110.561000
  C    -40.304900   56.668400  109.313000
  H    -41.134700   56.718300  109.990000
  H    -40.419600   55.620600  109.054000
  C    -40.463200   57.497500  108.053000
  H    -39.777900   57.239400  107.204000
  H    -40.464500   58.605300  108.233000
  H    -41.480500   57.386400  107.711000
  H    -32.864200   58.326100  111.568000
  H    -39.096000   53.305200  113.051000

 Total Charge           Charge          ....    0
 Multiplicity           Mult            ....    1
 Number of Electrons    NEL             ....  134
 Basis Dimension        Dim             ....  322

ORBITAL ENERGIES
----------------

  NO   OCC          E(Eh)            E(eV)
   0   2.0000     -88.967056     -2420.9167
   1   2.0000     -88.961000     -2420.7519
   2   2.0000     -10.329650      -281.0841
   3   2.0000     -10.324438      -280.9422
   4   2.0000     -10.320764      -280.8423
   5   2.0000     -10.311257      -280.5836
   6   2.0000     -10.307125      -280.4711
   7   2.0000     -10.299900      -280.2745
   8   2.0000     -10.298615      -280.2396
   9   2.0000     -10.296058      -280.1700
  10   2.0000     -10.294741      -280.1341
  11   2.0000     -10.294520      -280.1281
  12   2.0000     -10.288273      -279.9581
  13   2.0000     -10.285237      -279.8755
  14   2.0000     -10.279010      -279.7061
  15   2.0000     -10.274245      -279.5764
  16   2.0000      -8.080934      -219.8934
  17   2.0000      -8.074914      -219.7296
  18   2.0000      -6.039420      -164.3410
  19   2.0000      -6.035619      -164.2375
  20   2.0000      -6.033453      -164.1786
  21   2.0000      -6.031705      -164.1310
  22   2.0000      -6.029668      -164.0756
  23   2.0000      -6.025555      -163.9637
  24   2.0000      -0.999988       -27.2111
  25   2.0000      -0.976350       -26.5678
  26   2.0000      -0.915581       -24.9142
  27   2.0000      -0.909080       -24.7373
  28   2.0000      -0.872225       -23.7345
  29   2.0000      -0.853807       -23.2333
  30   2.0000      -0.846543       -23.0356
  31   2.0000      -0.812255       -22.1026
  32   2.0000      -0.782454       -21.2917
  33   2.0000      -0.766279       -20.8515
  34   2.0000      -0.718670       -19.5560
  35   2.0000      -0.705308       -19.1924
  36   2.0000      -0.701719       -19.0948
  37   2.0000      -0.654113       -17.7993
  38   2.0000      -0.639492       -17.4014
  39   2.0000      -0.618626       -16.8337
  40   2.0000      -0.595068       -16.1926
  41   2.0000      -0.572853       -15.5881
  42   2.0000      -0.563637       -15.3373
  43   2.0000      -0.554832       -15.0977
  44   2.0000      -0.540717       -14.7137
  45   2.0000      -0.530986       -14.4489
  46   2.0000      -0.510976       -13.9044
  47   2.0000      -0.503812       -13.7094
  48   2.0000      -0.503322       -13.6961
  49   2.0000      -0.494590       -13.4585
  50   2.0000      -0.489275       -13.3138
  51   2.0000      -0.482571       -13.1314
  52   2.0000      -0.479326       -13.0431
  53   2.0000      -0.461822       -12.5668
  54   2.0000      -0.455719       -12.4007
  55   2.0000      -0.448147       -12.1947
  56   2.0000      -0.444096       -12.0845
  57   2.0000      -0.435129       -11.8405
  58   2.0000      -0.429044       -11.6749
  59   2.0000      -0.425194       -11.5701
  60   2.0000      -0.421446       -11.4681
  61   2.0000      -0.417286       -11.3549
  62   2.0000      -0.414577       -11.2812
  63   2.0000      -0.349395        -9.5075
  64   2.0000      -0.330586        -8.9957
  65   2.0000      -0.325877        -8.8676
  66   2.0000      -0.281552        -7.6614
  67   0.0000       0.017006         0.4628
  68   0.0000       0.067083         1.8254
  69   0.0000       0.102463         2.7882
  70   0.0000       0.116965         3.1828
  71   0.0000       0.139038         3.7834

MULLIKEN ATOMIC CHARGES
-----------------------
   0 S :    0.112403
   1 C :   -0.086324
   2 C :   -0.145831
   3 C :    0.022393
   4 C :   -0.171588
   5 H :    0.022767
   6 C :    0.056938
   7 H :    0.027469
   8 H :    0.007987
   9 C :    0.020923
  10 H :    0.017091
  11 H :    0.025181
  12 C :   -0.074361
  13 H :    0.032490
  14 H :    0.022608
  15 H :    0.032372
  16 S :    0.081350
  17 C :   -0.099581
  18 C :   -0.030084
  19 C :   -0.082077
  20 C :   -0.144310
  21 H :    0.018132
  22 C :    0.077380
  23 H :    0.037496
  24 H :    0.045774
  25 C :   -0.063941
  26 H :    0.026437
  27 H :    0.034582
  28 C :   -0.045831
  29 H :    0.056589
  30 H :    0.032238
  31 H :    0.019838
  32 H :    0.040959
  33 H :    0.072531
Sum of atomic charges:   -0.0000000

LOEWDIN ATOMIC CHARGES
----------------------
   0 S :    0.388923
   1 C :   -0.203271
   2 C :   -0.067224
   3 C :   -0.060143
   4 C :   -0.178876
   5 H :    0.036340
   6 C :   -0.023852
   7 H :    0.029366
   8 H :    0.025521
   9 C :   -0.032667
  10 H :    0.018901
  11 H :    0.024534
  12 C :   -0.070899
  13 H :    0.030306
  14 H :    0.028485
  15 H :    0.021234
  16 S :    0.368259
  17 C :   -0.174068
  18 C :   -0.072102
  19 C :   -0.048083
  20 C :   -0.196860
  21 H :    0.025927
  22 C :   -0.036695
  23 H :    0.038758
  24 H :    0.042316
  25 C :   -0.043620
  26 H :    0.024743
  27 H :    0.029988
  28 C :   -0.069445
  29 H :    0.035379
  30 H :    0.030259
  31 H :    0.024218
  32 H :    0.023007
  33 H :    0.031341

  Mayer bond orders larger than 0.100000
B(  0-S ,  1-C ) :   1.1550 B(  0-S ,  4-C ) :   1.1196 B(  1-C ,  2-C ) :   1.6019
B(  1-C ,  4-C ) :   0.1060 B(  1-C , 32-H ) :   0.9563 B(  2-C ,  3-C ) :   1.2670
B(  2-C ,  6-C ) :   1.0334 B(  3-C ,  4-C ) :   1.5540 B(  3-C ,  5-H ) :   0.9825
B(  4-C , 20-C ) :   1.1103 B(  6-C ,  7-H ) :   0.9524 B(  6-C ,  8-H ) :   0.9379
B(  6-C ,  9-C ) :   1.0336 B(  9-C , 10-H ) :   0.9600 B(  9-C , 11-H ) :   0.9513
B(  9-C , 12-C ) :   1.0825 B( 12-C , 13-H ) :   0.9710 B( 12-C , 14-H ) :   0.9751
B( 12-C , 15-H ) :   0.9751 B( 16-S , 17-C ) :   1.1348 B( 16-S , 20-C ) :   1.1339
B( 17-C , 18-C ) :   1.6082 B( 17-C , 20-C ) :   0.1061 B( 17-C , 33-H ) :   0.9656
B( 18-C , 19-C ) :   1.2487 B( 18-C , 21-H ) :   0.9732 B( 19-C , 20-C ) :   1.5721
B( 19-C , 22-C ) :   1.0135 B( 22-C , 23-H ) :   0.9363 B( 22-C , 24-H ) :   0.9205
B( 22-C , 25-C ) :   1.0534 B( 25-C , 26-H ) :   0.9440 B( 25-C , 27-H ) :   0.9559
B( 25-C , 28-C ) :   1.0915 B( 28-C , 29-H ) :   0.9756 B( 28-C , 30-H ) :   0.9714
B( 28-C , 31-H ) :   0.9693

Dispersion correction           -0.013840790
FINAL SINGLE POINT ENERGY     -1339.849162604711

DIPOLE MOMENT
-------------
                                X             Y             Z
Electronic contribution:     11.99208     -22.74476       7.19973
Nuclear contribution   :    -12.48393      23.32354      -7.34326
                        -----------------------------------------
Total Dipole Moment    :     -0.49185       0.57877      -0.14354
                        -----------------------------------------
Magnitude (a.u.)       :      0.77298
Magnitude (Debye)      :      1.96476

Rotational constants in cm-1:     0.016551     0.008351     0.006754
Rotational constants in MHz :   496.191268   250.362820   202.487638

                             ****ORCA TERMINATED NORMALLY****
TOTAL RUN TIME: 0 days 0 hours 0 minutes 27 seconds 557 msec
