                         Program Version 4.2.1 -  RELEASE  -
|  1> ! wB97X-D3 SP def2-SVP
|  2> %pal
|  3> nprocs 16
|  4> end
|  5>
|  6> * xyz 0 1
|  7> S 	 10.7412 	 -17.0263 	 87.8375
|  8> C 	 12.3819 	 -17.4681 	 87.2917
|  9> C 	 13.2904 	 -16.4475 	 87.5827
| 10> C 	 12.6926 	 -15.3641 	 88.2915
| 11> C 	 11.3641 	 -15.5793 	 88.5805
| 12> H 	 13.2629 	 -14.5096 	 88.6719
| 13> C 	 14.6923 	 -16.5218 	 87.1223
| 14> H 	 14.93 	 -15.5748 	 86.5572
| 15> H 	 14.7902 	 -17.2789 	 86.3153
| 16> C 	 15.7381 	 -16.813 	 88.2184
| 17> H 	 15.7335 	 -15.9966 	 88.9857
| 18> H 	 15.557 	 -17.7791 	 88.706
| 19> C 	 17.1077 	 -16.9845 	 87.7069
| 20> H 	 17.133 	 -17.699 	 86.8252
| 21> H 	 17.5454 	 -16.1062 	 87.349
| 22> H 	 17.7912 	 -17.2724 	 88.5229
| 23> S 	 9.43587 	 -15.7583 	 90.495
| 24> C 	 8.83517 	 -14.2634 	 91.2325
| 25> C 	 9.13536 	 -13.1522 	 90.3795
| 26> C 	 10.0752 	 -13.4788 	 89.3186
| 27> C 	 10.3889 	 -14.8132 	 89.3345
| 28> H 	 8.81468 	 -12.1233 	 90.6943
| 29> C 	 10.6339 	 -12.462 	 88.3909
| 30> H 	 9.69906 	 -11.911 	 88.1451
| 31> H 	 10.8215 	 -12.9135 	 87.4795
| 32> C 	 11.7471 	 -11.4965 	 88.853
| 33> H 	 12.5426 	 -12.155 	 89.1797
| 34> H 	 11.2637 	 -11.018 	 89.6958
| 35> C 	 12.2756 	 -10.4245 	 87.8209
| 36> H 	 12.9556 	 -10.8997 	 87.0942
| 37> H 	 12.7883 	 -9.56383 	 88.2557
| 38> H 	 11.469 	 -10.0042 	 87.0878
| 39> H 	 12.6696 	 -18.4233 	 86.945
| 40> H 	 8.09983 	 -14.1839 	 92.0005
| 41> *
| 42>
| 43>                          ****END OF INPUT****

CARTESIAN COORDINATES (ANGSTROEM)
---------------------------------
  S     10.741200  -17.026300   87.837500
  C     12.381900  -17.468100   87.291700
  C     13.290400  -16.447500   87.582700
  C     12.692600  -15.364100   88.291500
  C     11.364100  -15.579300   88.580500
  H     13.262900  -14.509600   88.671900
  C     14.692300  -16.521800   87.122300
  H     14.930000  -15.574800   86.557200
  H     14.790200  -17.278900   86.315300
  C     15.738100  -16.813000   88.218400
  H     15.733500  -15.996600   88.985700
  H     15.557000  -17.779100   88.706000
  C     17.107700  -16.984500   87.706900
  H     17.133000  -17.699000   86.825200
  H     17.545400  -16.106200   87.349000
  H     17.791200  -17.272400   88.522900
  S      9.435870  -15.758300   90.495000
  C      8.835170  -14.263400   91.232500
  C      9.135360  -13.152200   90.379500
  C     10.075200  -13.478800   89.318600
  C     10.388900  -14.813200   89.334500
  H      8.814680  -12.123300   90.694300
  C     10.633900  -12.462000   88.390900
  H      9.699060  -11.911000   88.145100
  H     10.821500  -12.913500   87.479500
  C     11.747100  -11.496500   88.853000
  H     12.542600  -12.155000   89.179700
  H     11.263700  -11.018000   89.695800
  C     12.275600  -10.424500   87.820900
  H     12.955600  -10.899700   87.094200
  H     12.788300   -9.563830   88.255700
  H     11.469000  -10.004200   87.087800
  H     12.669600  -18.423300   86.945000
  H      8.099830  -14.183900   92.000500

 Total Charge           Charge          ....    0
 Multiplicity           Mult            ....    1
 Number of Electrons    NEL             ....  134
 Basis Dimension        Dim             ....  322

ORBITAL ENERGIES
----------------

  NO   OCC          E(Eh)            E(eV)
   0   2.0000     -88.967479     -2420.9282
   1   2.0000     -88.964714     -2420.8529
   2   2.0000     -10.329500      -281.0800
   3   2.0000     -10.326038      -280.9858
   4   2.0000     -10.323512      -280.9170
   5   2.0000     -10.311287      -280.5844
   6   2.0000     -10.306250      -280.4473
   7   2.0000     -10.305758      -280.4339
   8   2.0000     -10.300432      -280.2890
   9   2.0000     -10.296632      -280.1856
  10   2.0000     -10.296393      -280.1791
  11   2.0000     -10.294629      -280.1311
  12   2.0000     -10.294414      -280.1252
  13   2.0000     -10.287337      -279.9327
  14   2.0000     -10.285762      -279.8898
  15   2.0000     -10.274621      -279.5866
  16   2.0000      -8.081378      -219.9055
  17   2.0000      -8.079208      -219.8464
  18   2.0000      -6.039996      -164.3567
  19   2.0000      -6.037719      -164.2947
  20   2.0000      -6.036030      -164.2487
  21   2.0000      -6.033770      -164.1872
  22   2.0000      -6.032017      -164.1395
  23   2.0000      -6.029960      -164.0836
  24   2.0000      -1.005687       -27.3661
  25   2.0000      -0.978228       -26.6189
  26   2.0000      -0.917193       -24.9581
  27   2.0000      -0.907946       -24.7065
  28   2.0000      -0.871268       -23.7084
  29   2.0000      -0.851015       -23.1573
  30   2.0000      -0.843267       -22.9465
  31   2.0000      -0.815651       -22.1950
  32   2.0000      -0.783312       -21.3150
  33   2.0000      -0.769548       -20.9405
  34   2.0000      -0.711108       -19.3502
  35   2.0000      -0.700573       -19.0636
  36   2.0000      -0.694223       -18.8908
  37   2.0000      -0.662366       -18.0239
  38   2.0000      -0.642866       -17.4933
  39   2.0000      -0.621195       -16.9036
  40   2.0000      -0.592990       -16.1361
  41   2.0000      -0.568045       -15.4573
  42   2.0000      -0.563087       -15.3224
  43   2.0000      -0.558145       -15.1879
  44   2.0000      -0.531724       -14.4689
  45   2.0000      -0.522529       -14.2187
  46   2.0000      -0.518003       -14.0956
  47   2.0000      -0.514101       -13.9894
  48   2.0000      -0.506137       -13.7727
  49   2.0000      -0.503485       -13.7005
  50   2.0000      -0.494068       -13.4443
  51   2.0000      -0.474442       -12.9102
  52   2.0000      -0.466743       -12.7007
  53   2.0000      -0.462118       -12.5749
  54   2.0000      -0.456252       -12.4152
  55   2.0000      -0.450068       -12.2470
  56   2.0000      -0.447220       -12.1695
  57   2.0000      -0.435657       -11.8548
  58   2.0000      -0.432100       -11.7580
  59   2.0000      -0.426460       -11.6046
  60   2.0000      -0.425930       -11.5901
  61   2.0000      -0.415760       -11.3134
  62   2.0000      -0.412383       -11.2215
  63   2.0000      -0.342134        -9.3099
  64   2.0000      -0.331673        -9.0253
  65   2.0000      -0.329615        -8.9693
  66   2.0000      -0.291529        -7.9329
  67   0.0000       0.026026         0.7082
  68   0.0000       0.061320         1.6686
  69   0.0000       0.101909         2.7731
  70   0.0000       0.120121         3.2687
  71   0.0000       0.125939         3.4270

MULLIKEN ATOMIC CHARGES
-----------------------
   0 S :    0.094847
   1 C :   -0.103658
   2 C :   -0.075672
   3 C :    0.030547
   4 C :   -0.137564
   5 H :    0.014578
   6 C :    0.021899
   7 H :    0.036999
   8 H :    0.016837
   9 C :   -0.071440
  10 H :    0.034342
  11 H :    0.032560
  12 C :   -0.030692
  13 H :    0.030440
  14 H :    0.006052
  15 H :    0.037612
  16 S :    0.107908
  17 C :   -0.082466
  18 C :   -0.070104
  19 C :   -0.032582
  20 C :   -0.159486
  21 H :    0.041618
  22 C :    0.072981
  23 H :    0.021147
  24 H :    0.002881
  25 C :   -0.025862
  26 H :    0.030586
  27 H :    0.026029
  28 C :   -0.084234
  29 H :    0.035645
  30 H :    0.050105
  31 H :    0.040844
  32 H :    0.033396
  33 H :    0.053907
Sum of atomic charges:   -0.0000000

LOEWDIN ATOMIC CHARGES
----------------------
   0 S :    0.392027
   1 C :   -0.184540
   2 C :   -0.058799
   3 C :   -0.068815
   4 C :   -0.183338
   5 H :    0.033846
   6 C :   -0.040232
   7 H :    0.038433
   8 H :    0.031057
   9 C :   -0.045617
  10 H :    0.028027
  11 H :    0.029416
  12 C :   -0.067945
  13 H :    0.029979
  14 H :    0.011561
  15 H :    0.031943
  16 S :    0.389621
  17 C :   -0.178176
  18 C :   -0.070006
  19 C :   -0.054813
  20 C :   -0.193644
  21 H :    0.037148
  22 C :   -0.035516
  23 H :    0.038883
  24 H :    0.018235
  25 C :   -0.032793
  26 H :    0.022929
  27 H :    0.024427
  28 C :   -0.077910
  29 H :    0.027027
  30 H :    0.028908
  31 H :    0.036569
  32 H :    0.018220
  33 H :    0.023889

  Mayer bond orders larger than 0.100000
B(  0-S ,  1-C ) :   1.1170 B(  0-S ,  4-C ) :   1.1601 B(  1-C ,  2-C ) :   1.6170
B(  1-C , 32-H ) :   0.9721 B(  2-C ,  3-C ) :   1.2318 B(  2-C ,  6-C ) :   1.0369
B(  3-C ,  4-C ) :   1.5791 B(  3-C ,  5-H ) :   0.9943 B(  4-C , 20-C ) :   1.0281
B(  6-C ,  7-H ) :   0.9357 B(  6-C ,  8-H ) :   0.9405 B(  6-C ,  9-C ) :   1.0609
B(  9-C , 10-H ) :   0.9516 B(  9-C , 11-H ) :   0.9543 B(  9-C , 12-C ) :   1.0977
B( 12-C , 13-H ) :   0.9686 B( 12-C , 14-H ) :   0.9694 B( 12-C , 15-H ) :   0.9707
B( 16-S , 17-C ) :   1.1433 B( 16-S , 20-C ) :   1.1250 B( 17-C , 18-C ) :   1.6222
B( 17-C , 20-C ) :   0.1022 B( 17-C , 33-H ) :   0.9693 B( 18-C , 19-C ) :   1.2108
B( 18-C , 21-H ) :   0.9761 B( 19-C , 20-C ) :   1.6108 B( 19-C , 22-C ) :   1.0537
B( 22-C , 23-H ) :   0.9225 B( 22-C , 24-H ) :   0.9234 B( 22-C , 25-C ) :   1.0467
B( 25-C , 26-H ) :   0.9577 B( 25-C , 27-H ) :   0.9575 B( 25-C , 28-C ) :   1.0638
B( 28-C , 29-H ) :   0.9759 B( 28-C , 30-H ) :   0.9780 B( 28-C , 31-H ) :   0.9765

Dispersion correction           -0.013778968
FINAL SINGLE POINT ENERGY     -1339.869557625195

DIPOLE MOMENT
-------------
                                X             Y             Z
Electronic contribution:    -25.01092     -14.47001       7.63707
Nuclear contribution   :     25.47770      14.95895      -7.72432
                        -----------------------------------------
Total Dipole Moment    :      0.46679       0.48893      -0.08725
                        -----------------------------------------
Magnitude (a.u.)       :      0.68158
Magnitude (Debye)      :      1.73245

Rotational constants in cm-1:     0.016885     0.008564     0.006419
Rotational constants in MHz :   506.187957   256.754727   192.439500

                             ****ORCA TERMINATED NORMALLY****
TOTAL RUN TIME: 0 days 0 hours 0 minutes 30 seconds 434 msec
