                         Program Version 4.2.1 -  RELEASE  -
|  1> ! wB97X-D3 SP def2-SVP
|  2> %pal
|  3> nprocs 16
|  4> end
|  5>
|  6> * xyz 0 1
|  7> S 	 -53.0328 	 36.9697 	 88.7082
|  8> C 	 -52.7339 	 35.284 	 88.2377
|  9> C 	 -53.9302 	 34.5565 	 88.0231
| 10> C 	 -55.0407 	 35.4185 	 88.0028
| 11> C 	 -54.7843 	 36.6786 	 88.5831
| 12> H 	 -56.0741 	 35.2656 	 87.7004
| 13> C 	 -54.0339 	 33.0831 	 87.56
| 14> H 	 -54.9788 	 32.7381 	 88.0258
| 15> H 	 -53.2265 	 32.5875 	 87.9755
| 16> C 	 -54.0639 	 32.7831 	 86.0386
| 17> H 	 -53.1216 	 32.7471 	 85.5506
| 18> H 	 -54.518 	 31.8053 	 85.8822
| 19> C 	 -54.8844 	 33.7846 	 85.1444
| 20> H 	 -54.9722 	 33.5268 	 84.1421
| 21> H 	 -55.9022 	 34.0425 	 85.5951
| 22> H 	 -54.4363 	 34.7916 	 85.1861
| 23> S 	 -55.537 	 39.2867 	 88.165
| 24> C 	 -57.0799 	 39.8847 	 88.7028
| 25> C 	 -57.7656 	 38.8666 	 89.3612
| 26> C 	 -57.0526 	 37.6154 	 89.4983
| 27> C 	 -55.7519 	 37.6931 	 88.9504
| 28> H 	 -58.8009 	 39.1419 	 89.5562
| 29> C 	 -57.6877 	 36.4458 	 90.1536
| 30> H 	 -57.4018 	 36.353 	 91.2115
| 31> H 	 -57.3891 	 35.5447 	 89.6626
| 32> C 	 -59.2348 	 36.3993 	 90.222
| 33> H 	 -59.6337 	 36.4246 	 89.1859
| 34> H 	 -59.6284 	 37.3445 	 90.6697
| 35> C 	 -59.851 	 35.208 	 90.9997
| 36> H 	 -59.4233 	 35.0176 	 91.9643
| 37> H 	 -59.8109 	 34.2777 	 90.38
| 38> H 	 -60.9111 	 35.55 	 91.1109
| 39> H 	 -51.7887 	 34.8268 	 88.3952
| 40> H 	 -57.5165 	 40.803 	 88.4638
| 41> *
| 42>
| 43>                          ****END OF INPUT****

CARTESIAN COORDINATES (ANGSTROEM)
---------------------------------
  S    -53.032800   36.969700   88.708200
  C    -52.733900   35.284000   88.237700
  C    -53.930200   34.556500   88.023100
  C    -55.040700   35.418500   88.002800
  C    -54.784300   36.678600   88.583100
  H    -56.074100   35.265600   87.700400
  C    -54.033900   33.083100   87.560000
  H    -54.978800   32.738100   88.025800
  H    -53.226500   32.587500   87.975500
  C    -54.063900   32.783100   86.038600
  H    -53.121600   32.747100   85.550600
  H    -54.518000   31.805300   85.882200
  C    -54.884400   33.784600   85.144400
  H    -54.972200   33.526800   84.142100
  H    -55.902200   34.042500   85.595100
  H    -54.436300   34.791600   85.186100
  S    -55.537000   39.286700   88.165000
  C    -57.079900   39.884700   88.702800
  C    -57.765600   38.866600   89.361200
  C    -57.052600   37.615400   89.498300
  C    -55.751900   37.693100   88.950400
  H    -58.800900   39.141900   89.556200
  C    -57.687700   36.445800   90.153600
  H    -57.401800   36.353000   91.211500
  H    -57.389100   35.544700   89.662600
  C    -59.234800   36.399300   90.222000
  H    -59.633700   36.424600   89.185900
  H    -59.628400   37.344500   90.669700
  C    -59.851000   35.208000   90.999700
  H    -59.423300   35.017600   91.964300
  H    -59.810900   34.277700   90.380000
  H    -60.911100   35.550000   91.110900
  H    -51.788700   34.826800   88.395200
  H    -57.516500   40.803000   88.463800

 Total Charge           Charge          ....    0
 Multiplicity           Mult            ....    1
 Number of Electrons    NEL             ....  134
 Basis Dimension        Dim             ....  322

ORBITAL ENERGIES
----------------

  NO   OCC          E(Eh)            E(eV)
   0   2.0000     -88.969115     -2420.9727
   1   2.0000     -88.963988     -2420.8332
   2   2.0000     -10.333453      -281.1876
   3   2.0000     -10.331853      -281.1440
   4   2.0000     -10.317185      -280.7449
   5   2.0000     -10.316100      -280.7153
   6   2.0000     -10.312790      -280.6253
   7   2.0000     -10.307242      -280.4743
   8   2.0000     -10.296859      -280.1918
   9   2.0000     -10.296422      -280.1799
  10   2.0000     -10.295760      -280.1619
  11   2.0000     -10.293455      -280.0992
  12   2.0000     -10.288887      -279.9748
  13   2.0000     -10.288803      -279.9726
  14   2.0000     -10.286999      -279.9235
  15   2.0000     -10.276453      -279.6365
  16   2.0000      -8.082840      -219.9453
  17   2.0000      -8.078355      -219.8232
  18   2.0000      -6.041237      -164.3904
  19   2.0000      -6.037573      -164.2907
  20   2.0000      -6.036898      -164.2723
  21   2.0000      -6.033694      -164.1852
  22   2.0000      -6.032767      -164.1599
  23   2.0000      -6.029236      -164.0638
  24   2.0000      -0.999955       -27.2102
  25   2.0000      -0.977188       -26.5906
  26   2.0000      -0.909125       -24.7385
  27   2.0000      -0.904807       -24.6211
  28   2.0000      -0.866655       -23.5829
  29   2.0000      -0.850111       -23.1327
  30   2.0000      -0.842386       -22.9225
  31   2.0000      -0.812404       -22.1066
  32   2.0000      -0.785389       -21.3715
  33   2.0000      -0.772878       -21.0311
  34   2.0000      -0.705994       -19.2111
  35   2.0000      -0.703363       -19.1395
  36   2.0000      -0.699163       -19.0252
  37   2.0000      -0.651499       -17.7282
  38   2.0000      -0.641499       -17.4561
  39   2.0000      -0.616634       -16.7795
  40   2.0000      -0.598650       -16.2901
  41   2.0000      -0.568989       -15.4830
  42   2.0000      -0.565427       -15.3861
  43   2.0000      -0.552793       -15.0423
  44   2.0000      -0.543252       -14.7826
  45   2.0000      -0.529317       -14.4035
  46   2.0000      -0.513471       -13.9722
  47   2.0000      -0.510922       -13.9029
  48   2.0000      -0.500919       -13.6307
  49   2.0000      -0.496883       -13.5209
  50   2.0000      -0.490510       -13.3475
  51   2.0000      -0.477582       -12.9957
  52   2.0000      -0.471163       -12.8210
  53   2.0000      -0.465586       -12.6692
  54   2.0000      -0.457578       -12.4513
  55   2.0000      -0.450130       -12.2487
  56   2.0000      -0.443097       -12.0573
  57   2.0000      -0.440207       -11.9786
  58   2.0000      -0.428254       -11.6534
  59   2.0000      -0.424232       -11.5439
  60   2.0000      -0.418802       -11.3962
  61   2.0000      -0.415557       -11.3079
  62   2.0000      -0.411829       -11.2064
  63   2.0000      -0.345043        -9.3891
  64   2.0000      -0.333785        -9.0828
  65   2.0000      -0.328348        -8.9348
  66   2.0000      -0.285037        -7.7562
  67   0.0000       0.019089         0.5194
  68   0.0000       0.062043         1.6883
  69   0.0000       0.105627         2.8743
  70   0.0000       0.113500         3.0885
  71   0.0000       0.129157         3.5145

MULLIKEN ATOMIC CHARGES
-----------------------
   0 S :    0.108187
   1 C :   -0.102179
   2 C :   -0.115753
   3 C :    0.011968
   4 C :   -0.175733
   5 H :    0.026601
   6 C :    0.112739
   7 H :    0.033286
   8 H :    0.010202
   9 C :   -0.048665
  10 H :    0.026569
  11 H :    0.030993
  12 C :   -0.082775
  13 H :    0.030058
  14 H :    0.023776
  15 H :    0.043170
  16 S :    0.089412
  17 C :   -0.066268
  18 C :   -0.065483
  19 C :   -0.028383
  20 C :   -0.117259
  21 H :    0.026488
  22 C :    0.109990
  23 H :    0.039923
  24 H :    0.006437
  25 C :   -0.160053
  26 H :    0.031894
  27 H :    0.036160
  28 C :   -0.042540
  29 H :    0.035326
  30 H :    0.043556
  31 H :    0.044195
  32 H :    0.046020
  33 H :    0.038141
Sum of atomic charges:    0.0000000

LOEWDIN ATOMIC CHARGES
----------------------
   0 S :    0.389684
   1 C :   -0.188927
   2 C :   -0.058821
   3 C :   -0.062416
   4 C :   -0.185209
   5 H :    0.032172
   6 C :   -0.020358
   7 H :    0.036847
   8 H :    0.022094
   9 C :   -0.032710
  10 H :    0.021001
  11 H :    0.026340
  12 C :   -0.070744
  13 H :    0.015380
  14 H :    0.025806
  15 H :    0.029761
  16 S :    0.396538
  17 C :   -0.177357
  18 C :   -0.077404
  19 C :   -0.049018
  20 C :   -0.193260
  21 H :    0.033198
  22 C :   -0.037368
  23 H :    0.039517
  24 H :    0.024070
  25 C :   -0.047577
  26 H :    0.024408
  27 H :    0.021309
  28 C :   -0.065296
  29 H :    0.021043
  30 H :    0.029918
  31 H :    0.037343
  32 H :    0.019352
  33 H :    0.020685

  Mayer bond orders larger than 0.100000
B(  0-S ,  1-C ) :   1.1414 B(  0-S ,  4-C ) :   1.1531 B(  1-C ,  2-C ) :   1.5907
B(  1-C ,  4-C ) :   0.1126 B(  1-C , 32-H ) :   0.9685 B(  2-C ,  3-C ) :   1.2356
B(  2-C ,  6-C ) :   1.0286 B(  3-C ,  4-C ) :   1.5669 B(  3-C ,  5-H ) :   0.9800
B(  4-C , 20-C ) :   1.0564 B(  6-C ,  7-H ) :   0.9390 B(  6-C ,  8-H ) :   0.9381
B(  6-C ,  9-C ) :   1.0671 B(  9-C , 10-H ) :   0.9576 B(  9-C , 11-H ) :   0.9569
B(  9-C , 12-C ) :   1.0825 B( 12-C , 13-H ) :   0.9763 B( 12-C , 14-H ) :   0.9740
B( 12-C , 15-H ) :   0.9685 B( 16-S , 17-C ) :   1.1634 B( 16-S , 20-C ) :   1.1350
B( 17-C , 18-C ) :   1.6091 B( 17-C , 33-H ) :   0.9710 B( 18-C , 19-C ) :   1.2330
B( 18-C , 21-H ) :   0.9853 B( 19-C , 20-C ) :   1.5668 B( 19-C , 22-C ) :   1.0520
B( 22-C , 23-H ) :   0.9229 B( 22-C , 24-H ) :   0.9284 B( 22-C , 25-C ) :   1.0712
B( 25-C , 26-H ) :   0.9563 B( 25-C , 27-H ) :   0.9495 B( 25-C , 28-C ) :   1.0780
B( 28-C , 29-H ) :   0.9749 B( 28-C , 30-H ) :   0.9753 B( 28-C , 31-H ) :   0.9747

Dispersion correction           -0.014038895
FINAL SINGLE POINT ENERGY     -1339.862252347760

DIPOLE MOMENT
-------------
                                X             Y             Z
Electronic contribution:     17.05658      21.78605       2.10173
Nuclear contribution   :    -17.61455     -22.29366      -2.14737
                        -----------------------------------------
Total Dipole Moment    :     -0.55797      -0.50762      -0.04564
                        -----------------------------------------
Magnitude (a.u.)       :      0.75570
Magnitude (Debye)      :      1.92084

Rotational constants in cm-1:     0.016243     0.008951     0.006801
Rotational constants in MHz :   486.964901   268.346183   203.884384

                             ****ORCA TERMINATED NORMALLY****
TOTAL RUN TIME: 0 days 0 hours 0 minutes 29 seconds 712 msec
