                         Program Version 4.2.1 -  RELEASE  -
|  1> ! wB97X-D3 SP def2-SVP
|  2> %pal
|  3> nprocs 16
|  4> end
|  5>
|  6> * xyz 0 1
|  7> S 	 44.5889 	 21.6951 	 101.97
|  8> C 	 43.6457 	 22.9538 	 101.229
|  9> C 	 42.6631 	 22.5413 	 100.389
| 10> C 	 42.6519 	 21.1006 	 100.363
| 11> C 	 43.5262 	 20.5197 	 101.22
| 12> H 	 42.0808 	 20.4646 	 99.752
| 13> C 	 41.701 	 23.3269 	 99.5085
| 14> H 	 40.6402 	 23.2365 	 99.7086
| 15> H 	 41.8894 	 23.0545 	 98.4546
| 16> C 	 41.8865 	 24.812 	 99.5208
| 17> H 	 41.5807 	 25.0951 	 100.493
| 18> H 	 42.9554 	 25.0831 	 99.5179
| 19> C 	 41.1766 	 25.5603 	 98.4484
| 20> H 	 40.146 	 25.1208 	 98.4347
| 21> H 	 41.0463 	 26.6054 	 98.6889
| 22> H 	 41.512 	 25.4315 	 97.3135
| 23> S 	 43.7478 	 18.643 	 103.077
| 24> C 	 43.8957 	 16.9286 	 102.581
| 25> C 	 43.9983 	 16.8068 	 101.23
| 26> C 	 43.8597 	 18.0797 	 100.513
| 27> C 	 43.7539 	 19.1329 	 101.395
| 28> H 	 44.0925 	 15.8126 	 100.905
| 29> C 	 43.926 	 18.2107 	 99.0007
| 30> H 	 43.293 	 19.0768 	 98.515
| 31> H 	 43.4542 	 17.2504 	 98.6224
| 32> C 	 45.367 	 18.2085 	 98.5346
| 33> H 	 45.1481 	 18.0636 	 97.5
| 34> H 	 46.008 	 17.3644 	 98.789
| 35> C 	 46.2806 	 19.4021 	 98.8113
| 36> H 	 45.8731 	 20.3689 	 98.5055
| 37> H 	 47.3345 	 19.2625 	 98.4058
| 38> H 	 46.4591 	 19.4387 	 99.8378
| 39> H 	 43.8755 	 24.001 	 101.326
| 40> H 	 43.9227 	 16.0498 	 103.245
| 41> *
| 42>
| 43>                          ****END OF INPUT****

CARTESIAN COORDINATES (ANGSTROEM)
---------------------------------
  S     44.588900   21.695100  101.970000
  C     43.645700   22.953800  101.229000
  C     42.663100   22.541300  100.389000
  C     42.651900   21.100600  100.363000
  C     43.526200   20.519700  101.220000
  H     42.080800   20.464600   99.752000
  C     41.701000   23.326900   99.508500
  H     40.640200   23.236500   99.708600
  H     41.889400   23.054500   98.454600
  C     41.886500   24.812000   99.520800
  H     41.580700   25.095100  100.493000
  H     42.955400   25.083100   99.517900
  C     41.176600   25.560300   98.448400
  H     40.146000   25.120800   98.434700
  H     41.046300   26.605400   98.688900
  H     41.512000   25.431500   97.313500
  S     43.747800   18.643000  103.077000
  C     43.895700   16.928600  102.581000
  C     43.998300   16.806800  101.230000
  C     43.859700   18.079700  100.513000
  C     43.753900   19.132900  101.395000
  H     44.092500   15.812600  100.905000
  C     43.926000   18.210700   99.000700
  H     43.293000   19.076800   98.515000
  H     43.454200   17.250400   98.622400
  C     45.367000   18.208500   98.534600
  H     45.148100   18.063600   97.500000
  H     46.008000   17.364400   98.789000
  C     46.280600   19.402100   98.811300
  H     45.873100   20.368900   98.505500
  H     47.334500   19.262500   98.405800
  H     46.459100   19.438700   99.837800
  H     43.875500   24.001000  101.326000
  H     43.922700   16.049800  103.245000

 Total Charge           Charge          ....    0
 Multiplicity           Mult            ....    1
 Number of Electrons    NEL             ....  134
 Basis Dimension        Dim             ....  322

ORBITAL ENERGIES
----------------

  NO   OCC          E(Eh)            E(eV)
   0   2.0000     -88.966271     -2420.8953
   1   2.0000     -88.960737     -2420.7447
   2   2.0000     -10.319913      -280.8191
   3   2.0000     -10.319524      -280.8085
   4   2.0000     -10.318053      -280.7685
   5   2.0000     -10.310132      -280.5530
   6   2.0000     -10.307878      -280.4916
   7   2.0000     -10.306532      -280.4550
   8   2.0000     -10.301873      -280.3282
   9   2.0000     -10.293717      -280.1063
  10   2.0000     -10.293412      -280.0980
  11   2.0000     -10.290145      -280.0091
  12   2.0000     -10.285992      -279.8961
  13   2.0000     -10.280393      -279.7437
  14   2.0000     -10.279150      -279.7099
  15   2.0000     -10.271277      -279.4957
  16   2.0000      -8.081294      -219.9032
  17   2.0000      -8.075195      -219.7372
  18   2.0000      -6.039891      -164.3538
  19   2.0000      -6.035948      -164.2465
  20   2.0000      -6.033886      -164.1904
  21   2.0000      -6.031765      -164.1327
  22   2.0000      -6.029833      -164.0801
  23   2.0000      -6.025678      -163.9670
  24   2.0000      -1.010766       -27.5043
  25   2.0000      -0.981941       -26.7200
  26   2.0000      -0.923961       -25.1422
  27   2.0000      -0.909129       -24.7387
  28   2.0000      -0.877096       -23.8670
  29   2.0000      -0.854215       -23.2444
  30   2.0000      -0.841485       -22.8980
  31   2.0000      -0.816643       -22.2220
  32   2.0000      -0.785128       -21.3644
  33   2.0000      -0.775348       -21.0983
  34   2.0000      -0.712727       -19.3943
  35   2.0000      -0.699732       -19.0407
  36   2.0000      -0.684889       -18.6368
  37   2.0000      -0.662791       -18.0355
  38   2.0000      -0.642711       -17.4891
  39   2.0000      -0.619442       -16.8559
  40   2.0000      -0.596050       -16.2193
  41   2.0000      -0.580096       -15.7852
  42   2.0000      -0.570630       -15.5276
  43   2.0000      -0.547111       -14.8877
  44   2.0000      -0.537594       -14.6287
  45   2.0000      -0.523562       -14.2468
  46   2.0000      -0.521988       -14.2040
  47   2.0000      -0.508779       -13.8446
  48   2.0000      -0.502363       -13.6700
  49   2.0000      -0.495464       -13.4823
  50   2.0000      -0.485527       -13.2119
  51   2.0000      -0.483718       -13.1626
  52   2.0000      -0.474526       -12.9125
  53   2.0000      -0.470181       -12.7943
  54   2.0000      -0.460268       -12.5245
  55   2.0000      -0.447613       -12.1802
  56   2.0000      -0.445463       -12.1217
  57   2.0000      -0.436898       -11.8886
  58   2.0000      -0.434211       -11.8155
  59   2.0000      -0.422219       -11.4892
  60   2.0000      -0.416507       -11.3337
  61   2.0000      -0.413161       -11.2427
  62   2.0000      -0.402789       -10.9604
  63   2.0000      -0.351511        -9.5651
  64   2.0000      -0.332494        -9.0476
  65   2.0000      -0.326492        -8.8843
  66   2.0000      -0.292906        -7.9704
  67   0.0000       0.037142         1.0107
  68   0.0000       0.073358         1.9962
  69   0.0000       0.108119         2.9421
  70   0.0000       0.113023         3.0755
  71   0.0000       0.132574         3.6075

MULLIKEN ATOMIC CHARGES
-----------------------
   0 S :    0.119653
   1 C :   -0.122010
   2 C :   -0.061438
   3 C :    0.020410
   4 C :   -0.122108
   5 H :   -0.013823
   6 C :    0.074228
   7 H :    0.039971
   8 H :    0.031618
   9 C :   -0.092765
  10 H :    0.015606
  11 H :    0.023821
  12 C :   -0.060960
  13 H :    0.019195
  14 H :    0.039652
  15 H :    0.054664
  16 S :    0.088069
  17 C :   -0.095412
  18 C :   -0.025718
  19 C :   -0.012053
  20 C :   -0.164970
  21 H :    0.001375
  22 C :    0.012666
  23 H :    0.056276
  24 H :    0.033597
  25 C :   -0.059824
  26 H :    0.016783
  27 H :    0.026133
  28 C :   -0.028293
  29 H :    0.031905
  30 H :    0.037315
  31 H :    0.019508
  32 H :    0.035390
  33 H :    0.061539
Sum of atomic charges:    0.0000000

LOEWDIN ATOMIC CHARGES
----------------------
   0 S :    0.403915
   1 C :   -0.194653
   2 C :   -0.059431
   3 C :   -0.050267
   4 C :   -0.193127
   5 H :    0.020602
   6 C :   -0.029807
   7 H :    0.033434
   8 H :    0.035232
   9 C :   -0.053308
  10 H :    0.019569
  11 H :    0.020834
  12 C :   -0.074274
  13 H :    0.026285
  14 H :    0.027362
  15 H :    0.040046
  16 S :    0.377468
  17 C :   -0.173078
  18 C :   -0.065198
  19 C :   -0.056905
  20 C :   -0.198247
  21 H :    0.025834
  22 C :   -0.039129
  23 H :    0.044870
  24 H :    0.039853
  25 C :   -0.046681
  26 H :    0.020046
  27 H :    0.028735
  28 C :   -0.064282
  29 H :    0.023581
  30 H :    0.036460
  31 H :    0.016240
  32 H :    0.022435
  33 H :    0.035585

  Mayer bond orders larger than 0.100000
B(  0-S ,  1-C ) :   1.1193 B(  0-S ,  4-C ) :   1.1272 B(  1-C ,  2-C ) :   1.6738
B(  1-C , 32-H ) :   0.9572 B(  2-C ,  3-C ) :   1.1943 B(  2-C ,  6-C ) :   1.0064
B(  3-C ,  4-C ) :   1.6306 B(  3-C ,  5-H ) :   1.0097 B(  4-C , 20-C ) :   1.0380
B(  6-C ,  7-H ) :   0.9359 B(  6-C ,  8-H ) :   0.9416 B(  6-C ,  9-C ) :   1.0762
B(  9-C , 10-H ) :   0.9472 B(  9-C , 11-H ) :   0.9480 B(  9-C , 12-C ) :   1.0923
B( 12-C , 13-H ) :   0.9669 B( 12-C , 14-H ) :   0.9690 B( 12-C , 15-H ) :   0.9702
B( 16-S , 17-C ) :   1.1163 B( 16-S , 20-C ) :   1.1231 B( 17-C , 18-C ) :   1.6867
B( 17-C , 33-H ) :   0.9619 B( 18-C , 19-C ) :   1.1630 B( 18-C , 21-H ) :   0.9956
B( 19-C , 20-C ) :   1.6418 B( 19-C , 22-C ) :   1.0367 B( 22-C , 23-H ) :   0.9391
B( 22-C , 24-H ) :   0.9263 B( 22-C , 25-C ) :   1.0693 B( 25-C , 26-H ) :   0.9537
B( 25-C , 27-H ) :   0.9546 B( 25-C , 28-C ) :   1.0780 B( 28-C , 29-H ) :   0.9746
B( 28-C , 30-H ) :   0.9707 B( 28-C , 31-H ) :   0.9707

Dispersion correction           -0.014756608
FINAL SINGLE POINT ENERGY     -1339.862463480089

DIPOLE MOMENT
-------------
                                X             Y             Z
Electronic contribution:      3.65262     -11.30546      23.04216
Nuclear contribution   :     -3.84941      11.22785     -23.66789
                        -----------------------------------------
Total Dipole Moment    :     -0.19679      -0.07761      -0.62573
                        -----------------------------------------
Magnitude (a.u.)       :      0.66052
Magnitude (Debye)      :      1.67892

Rotational constants in cm-1:     0.023168     0.007739     0.006824
Rotational constants in MHz :   694.548904   231.997654   204.572761

                             ****ORCA TERMINATED NORMALLY****
TOTAL RUN TIME: 0 days 0 hours 0 minutes 31 seconds 521 msec
