                         Program Version 4.2.1 -  RELEASE  -
|  1> ! wB97X-D3 SP def2-SVP
|  2> %pal
|  3> nprocs 16
|  4> end
|  5>
|  6> * xyz 0 1
|  7> S 	 46.2904 	 9.39291 	 89.9951
|  8> C 	 47.3223 	 10.03 	 91.3263
|  9> C 	 47.8245 	 11.3023 	 90.9945
| 10> C 	 47.2804 	 11.8434 	 89.7542
| 11> C 	 46.4538 	 10.9257 	 89.087
| 12> H 	 47.4186 	 12.7533 	 89.2238
| 13> C 	 48.8765 	 12.0265 	 91.7581
| 14> H 	 49.5579 	 12.5159 	 91.026
| 15> H 	 49.5373 	 11.2842 	 92.2608
| 16> C 	 48.4118 	 13.1142 	 92.7467
| 17> H 	 49.2748 	 13.6317 	 93.0849
| 18> H 	 47.6667 	 13.7705 	 92.2911
| 19> C 	 47.6675 	 12.5553 	 94.0013
| 20> H 	 46.8287 	 12.0497 	 93.5632
| 21> H 	 48.2463 	 11.8003 	 94.5614
| 22> H 	 47.3817 	 13.2826 	 94.7841
| 23> S 	 45.8065 	 9.57464 	 86.8533
| 24> C 	 44.956 	 10.3424 	 85.5621
| 25> C 	 44.84 	 11.698 	 85.7914
| 26> C 	 45.2952 	 12.0982 	 87.1009
| 27> C 	 45.754 	 11.0086 	 87.8464
| 28> H 	 44.426 	 12.3777 	 85.0832
| 29> C 	 45.27 	 13.5297 	 87.559
| 30> H 	 46.3185 	 13.9295 	 87.3635
| 31> H 	 45.1026 	 13.4975 	 88.6741
| 32> C 	 44.2925 	 14.458 	 86.8538
| 33> H 	 44.4976 	 14.6898 	 85.7844
| 34> H 	 44.3612 	 15.4834 	 87.1867
| 35> C 	 42.7876 	 14.0228 	 87.1722
| 36> H 	 42.014 	 14.6834 	 86.8587
| 37> H 	 42.7549 	 13.8837 	 88.3085
| 38> H 	 42.533 	 13.1119 	 86.6128
| 39> H 	 47.5155 	 9.51396 	 92.2508
| 40> H 	 44.5599 	 9.94759 	 84.6403
| 41> *
| 42>
| 43>                          ****END OF INPUT****

CARTESIAN COORDINATES (ANGSTROEM)
---------------------------------
  S     46.290400    9.392910   89.995100
  C     47.322300   10.030000   91.326300
  C     47.824500   11.302300   90.994500
  C     47.280400   11.843400   89.754200
  C     46.453800   10.925700   89.087000
  H     47.418600   12.753300   89.223800
  C     48.876500   12.026500   91.758100
  H     49.557900   12.515900   91.026000
  H     49.537300   11.284200   92.260800
  C     48.411800   13.114200   92.746700
  H     49.274800   13.631700   93.084900
  H     47.666700   13.770500   92.291100
  C     47.667500   12.555300   94.001300
  H     46.828700   12.049700   93.563200
  H     48.246300   11.800300   94.561400
  H     47.381700   13.282600   94.784100
  S     45.806500    9.574640   86.853300
  C     44.956000   10.342400   85.562100
  C     44.840000   11.698000   85.791400
  C     45.295200   12.098200   87.100900
  C     45.754000   11.008600   87.846400
  H     44.426000   12.377700   85.083200
  C     45.270000   13.529700   87.559000
  H     46.318500   13.929500   87.363500
  H     45.102600   13.497500   88.674100
  C     44.292500   14.458000   86.853800
  H     44.497600   14.689800   85.784400
  H     44.361200   15.483400   87.186700
  C     42.787600   14.022800   87.172200
  H     42.014000   14.683400   86.858700
  H     42.754900   13.883700   88.308500
  H     42.533000   13.111900   86.612800
  H     47.515500    9.513960   92.250800
  H     44.559900    9.947590   84.640300

 Total Charge           Charge          ....    0
 Multiplicity           Mult            ....    1
 Number of Electrons    NEL             ....  134
 Basis Dimension        Dim             ....  322

ORBITAL ENERGIES
----------------

  NO   OCC          E(Eh)            E(eV)
   0   2.0000     -88.966838     -2420.9107
   1   2.0000     -88.965532     -2420.8752
   2   2.0000     -10.334297      -281.2105
   3   2.0000     -10.324234      -280.9367
   4   2.0000     -10.321361      -280.8585
   5   2.0000     -10.315879      -280.7093
   6   2.0000     -10.310504      -280.5631
   7   2.0000     -10.305514      -280.4273
   8   2.0000     -10.305374      -280.4235
   9   2.0000     -10.300007      -280.2775
  10   2.0000     -10.296051      -280.1698
  11   2.0000     -10.295629      -280.1583
  12   2.0000     -10.291853      -280.0555
  13   2.0000     -10.286906      -279.9209
  14   2.0000     -10.284612      -279.8585
  15   2.0000     -10.276053      -279.6256
  16   2.0000      -8.081939      -219.9208
  17   2.0000      -8.078952      -219.8394
  18   2.0000      -6.040545      -164.3716
  19   2.0000      -6.037601      -164.2915
  20   2.0000      -6.036378      -164.2582
  21   2.0000      -6.033693      -164.1851
  22   2.0000      -6.032562      -164.1544
  23   2.0000      -6.029582      -164.0733
  24   2.0000      -1.007505       -27.4156
  25   2.0000      -0.975710       -26.5504
  26   2.0000      -0.911953       -24.8155
  27   2.0000      -0.909275       -24.7426
  28   2.0000      -0.870048       -23.6752
  29   2.0000      -0.847919       -23.0731
  30   2.0000      -0.837948       -22.8017
  31   2.0000      -0.814232       -22.1564
  32   2.0000      -0.782035       -21.2802
  33   2.0000      -0.771513       -20.9939
  34   2.0000      -0.715025       -19.4568
  35   2.0000      -0.700740       -19.0681
  36   2.0000      -0.696883       -18.9632
  37   2.0000      -0.660192       -17.9647
  38   2.0000      -0.643974       -17.5234
  39   2.0000      -0.615849       -16.7581
  40   2.0000      -0.593148       -16.1404
  41   2.0000      -0.573157       -15.5964
  42   2.0000      -0.561158       -15.2699
  43   2.0000      -0.546125       -14.8608
  44   2.0000      -0.538507       -14.6535
  45   2.0000      -0.531360       -14.4590
  46   2.0000      -0.518270       -14.1028
  47   2.0000      -0.516286       -14.0489
  48   2.0000      -0.506720       -13.7886
  49   2.0000      -0.494018       -13.4429
  50   2.0000      -0.490989       -13.3605
  51   2.0000      -0.477407       -12.9909
  52   2.0000      -0.468734       -12.7549
  53   2.0000      -0.465730       -12.6732
  54   2.0000      -0.457264       -12.4428
  55   2.0000      -0.447449       -12.1757
  56   2.0000      -0.444724       -12.1015
  57   2.0000      -0.433504       -11.7962
  58   2.0000      -0.431956       -11.7541
  59   2.0000      -0.430229       -11.7071
  60   2.0000      -0.424847       -11.5607
  61   2.0000      -0.412833       -11.2338
  62   2.0000      -0.408484       -11.1154
  63   2.0000      -0.355293        -9.6680
  64   2.0000      -0.329797        -8.9742
  65   2.0000      -0.328109        -8.9283
  66   2.0000      -0.283573        -7.7164
  67   0.0000       0.018915         0.5147
  68   0.0000       0.072397         1.9700
  69   0.0000       0.102537         2.7902
  70   0.0000       0.117455         3.1961
  71   0.0000       0.125585         3.4173

MULLIKEN ATOMIC CHARGES
-----------------------
   0 S :    0.086875
   1 C :   -0.107547
   2 C :   -0.082168
   3 C :    0.039101
   4 C :   -0.162821
   5 H :   -0.003895
   6 C :    0.027115
   7 H :    0.037593
   8 H :    0.031095
   9 C :   -0.038009
  10 H :    0.027131
  11 H :    0.033498
  12 C :   -0.082265
  13 H :    0.033363
  14 H :    0.020051
  15 H :    0.045062
  16 S :    0.109676
  17 C :   -0.058825
  18 C :   -0.038630
  19 C :   -0.063454
  20 C :   -0.113467
  21 H :    0.009509
  22 C :    0.008768
  23 H :    0.061194
  24 H :    0.054080
  25 C :   -0.073185
  26 H :    0.031123
  27 H :    0.022391
  28 C :   -0.073502
  29 H :    0.030102
  30 H :    0.049238
  31 H :    0.039821
  32 H :    0.051389
  33 H :    0.049591
Sum of atomic charges:   -0.0000000

LOEWDIN ATOMIC CHARGES
----------------------
   0 S :    0.365872
   1 C :   -0.182673
   2 C :   -0.058106
   3 C :   -0.062489
   4 C :   -0.170788
   5 H :    0.027470
   6 C :   -0.039457
   7 H :    0.038602
   8 H :    0.034366
   9 C :   -0.032349
  10 H :    0.018067
  11 H :    0.026687
  12 C :   -0.073159
  13 H :    0.021984
  14 H :    0.020147
  15 H :    0.029572
  16 S :    0.421591
  17 C :   -0.192207
  18 C :   -0.067966
  19 C :   -0.055886
  20 C :   -0.208907
  21 H :    0.025368
  22 C :   -0.043162
  23 H :    0.042662
  24 H :    0.041145
  25 C :   -0.053021
  26 H :    0.026783
  27 H :    0.026023
  28 C :   -0.069011
  29 H :    0.019110
  30 H :    0.037647
  31 H :    0.025777
  32 H :    0.027762
  33 H :    0.032546

  Mayer bond orders larger than 0.100000
B(  0-S ,  1-C ) :   1.1163 B(  0-S ,  4-C ) :   1.1302 B(  1-C ,  2-C ) :   1.6179
B(  1-C , 32-H ) :   0.9717 B(  2-C ,  3-C ) :   1.1911 B(  2-C ,  6-C ) :   1.0325
B(  3-C ,  4-C ) :   1.5910 B(  3-C ,  5-H ) :   0.9910 B(  4-C , 20-C ) :   1.0694
B(  6-C ,  7-H ) :   0.9404 B(  6-C ,  8-H ) :   0.9440 B(  6-C ,  9-C ) :   1.0666
B(  9-C , 10-H ) :   0.9568 B(  9-C , 11-H ) :   0.9598 B(  9-C , 12-C ) :   1.0650
B( 12-C , 13-H ) :   0.9782 B( 12-C , 14-H ) :   0.9765 B( 12-C , 15-H ) :   0.9764
B( 16-S , 17-C ) :   1.1528 B( 16-S , 20-C ) :   1.1358 B( 17-C , 18-C ) :   1.5960
B( 17-C , 33-H ) :   0.9653 B( 18-C , 19-C ) :   1.2598 B( 18-C , 21-H ) :   0.9865
B( 19-C , 20-C ) :   1.5772 B( 19-C , 22-C ) :   1.0346 B( 22-C , 23-H ) :   0.9190
B( 22-C , 24-H ) :   0.9396 B( 22-C , 25-C ) :   1.0836 B( 25-C , 26-H ) :   0.9451
B( 25-C , 27-H ) :   0.9504 B( 25-C , 28-C ) :   1.0588 B( 28-C , 29-H ) :   0.9774
B( 28-C , 30-H ) :   0.9744 B( 28-C , 31-H ) :   0.9766

Dispersion correction           -0.014305003
FINAL SINGLE POINT ENERGY     -1339.876282533827

DIPOLE MOMENT
-------------
                                X             Y             Z
Electronic contribution:      1.04622     -23.57030     -11.41484
Nuclear contribution   :     -0.92239      24.32439      11.32099
                        -----------------------------------------
Total Dipole Moment    :      0.12383       0.75409      -0.09385
                        -----------------------------------------
Magnitude (a.u.)       :      0.76993
Magnitude (Debye)      :      1.95700

Rotational constants in cm-1:     0.020376     0.008192     0.006380
Rotational constants in MHz :   610.870961   245.577753   191.256136

                             ****ORCA TERMINATED NORMALLY****
TOTAL RUN TIME: 0 days 0 hours 0 minutes 30 seconds 355 msec
