                         Program Version 4.2.1 -  RELEASE  -
|  1> ! wB97X-D3 SP def2-SVP
|  2> %pal
|  3> nprocs 16
|  4> end
|  5>
|  6> * xyz 0 1
|  7> S 	 67.942 	 22.7769 	 72.7626
|  8> C 	 69.0699 	 21.4897 	 73.2075
|  9> C 	 69.3428 	 21.5081 	 74.5983
| 10> C 	 68.7521 	 22.6734 	 75.2282
| 11> C 	 68.0459 	 23.4895 	 74.361
| 12> H 	 68.7934 	 22.879 	 76.3246
| 13> C 	 70.0222 	 20.3841 	 75.317
| 14> H 	 71.1253 	 20.3589 	 75.1955
| 15> H 	 69.6815 	 19.4086 	 74.9835
| 16> C 	 69.8311 	 20.476 	 76.8351
| 17> H 	 70.216 	 21.4247 	 77.2493
| 18> H 	 68.7716 	 20.6409 	 77.1308
| 19> C 	 70.5369 	 19.3096 	 77.6203
| 20> H 	 71.5347 	 19.1535 	 77.321
| 21> H 	 70.5908 	 19.46 	 78.6782
| 22> H 	 69.9495 	 18.4298 	 77.3907
| 23> S 	 67.7717 	 25.863 	 73.0937
| 24> C 	 67.1557 	 27.2816 	 73.877
| 25> C 	 66.8995 	 26.9728 	 75.2142
| 26> C 	 67.1023 	 25.5758 	 75.5841
| 27> C 	 67.5831 	 24.8488 	 74.5005
| 28> H 	 66.5596 	 27.6942 	 75.9357
| 29> C 	 66.8766 	 25.0436 	 76.9642
| 30> H 	 66.878 	 23.9365 	 76.9505
| 31> H 	 65.9265 	 25.3509 	 77.3211
| 32> C 	 68.0026 	 25.4935 	 77.9526
| 33> H 	 68.1575 	 26.5574 	 77.8076
| 34> H 	 68.9362 	 25.132 	 77.5504
| 35> C 	 67.9079 	 25.0671 	 79.4075
| 36> H 	 68.7637 	 25.5446 	 79.9687
| 37> H 	 67.9886 	 23.9637 	 79.4248
| 38> H 	 66.9753 	 25.4483 	 79.8795
| 39> H 	 69.3408 	 20.4981 	 72.6692
| 40> H 	 67.146 	 28.2763 	 73.3922
| 41> *
| 42>
| 43>                          ****END OF INPUT****

CARTESIAN COORDINATES (ANGSTROEM)
---------------------------------
  S     67.942000   22.776900   72.762600
  C     69.069900   21.489700   73.207500
  C     69.342800   21.508100   74.598300
  C     68.752100   22.673400   75.228200
  C     68.045900   23.489500   74.361000
  H     68.793400   22.879000   76.324600
  C     70.022200   20.384100   75.317000
  H     71.125300   20.358900   75.195500
  H     69.681500   19.408600   74.983500
  C     69.831100   20.476000   76.835100
  H     70.216000   21.424700   77.249300
  H     68.771600   20.640900   77.130800
  C     70.536900   19.309600   77.620300
  H     71.534700   19.153500   77.321000
  H     70.590800   19.460000   78.678200
  H     69.949500   18.429800   77.390700
  S     67.771700   25.863000   73.093700
  C     67.155700   27.281600   73.877000
  C     66.899500   26.972800   75.214200
  C     67.102300   25.575800   75.584100
  C     67.583100   24.848800   74.500500
  H     66.559600   27.694200   75.935700
  C     66.876600   25.043600   76.964200
  H     66.878000   23.936500   76.950500
  H     65.926500   25.350900   77.321100
  C     68.002600   25.493500   77.952600
  H     68.157500   26.557400   77.807600
  H     68.936200   25.132000   77.550400
  C     67.907900   25.067100   79.407500
  H     68.763700   25.544600   79.968700
  H     67.988600   23.963700   79.424800
  H     66.975300   25.448300   79.879500
  H     69.340800   20.498100   72.669200
  H     67.146000   28.276300   73.392200

 Total Charge           Charge          ....    0
 Multiplicity           Mult            ....    1
 Number of Electrons    NEL             ....  134
 Basis Dimension        Dim             ....  322

ORBITAL ENERGIES
----------------

  NO   OCC          E(Eh)            E(eV)
   0   2.0000     -88.970198     -2421.0022
   1   2.0000     -88.964213     -2420.8393
   2   2.0000     -10.332372      -281.1581
   3   2.0000     -10.327255      -281.0189
   4   2.0000     -10.322990      -280.9028
   5   2.0000     -10.321834      -280.8714
   6   2.0000     -10.307462      -280.4803
   7   2.0000     -10.304810      -280.4081
   8   2.0000     -10.301958      -280.3305
   9   2.0000     -10.298560      -280.2381
  10   2.0000     -10.297372      -280.2057
  11   2.0000     -10.293217      -280.0927
  12   2.0000     -10.293144      -280.0907
  13   2.0000     -10.289844      -280.0009
  14   2.0000     -10.284867      -279.8654
  15   2.0000     -10.277342      -279.6607
  16   2.0000      -8.084238      -219.9833
  17   2.0000      -8.079351      -219.8503
  18   2.0000      -6.042844      -164.4341
  19   2.0000      -6.038856      -164.3256
  20   2.0000      -6.037880      -164.2991
  21   2.0000      -6.034885      -164.2176
  22   2.0000      -6.033673      -164.1846
  23   2.0000      -6.030144      -164.0886
  24   2.0000      -1.008208       -27.4347
  25   2.0000      -0.980035       -26.6681
  26   2.0000      -0.914406       -24.8822
  27   2.0000      -0.910497       -24.7759
  28   2.0000      -0.868426       -23.6311
  29   2.0000      -0.853656       -23.2291
  30   2.0000      -0.840908       -22.8823
  31   2.0000      -0.814837       -22.1728
  32   2.0000      -0.783373       -21.3167
  33   2.0000      -0.772246       -21.0139
  34   2.0000      -0.715354       -19.4658
  35   2.0000      -0.699722       -19.0404
  36   2.0000      -0.687203       -18.6997
  37   2.0000      -0.664874       -18.0921
  38   2.0000      -0.636956       -17.3324
  39   2.0000      -0.616486       -16.7754
  40   2.0000      -0.599301       -16.3078
  41   2.0000      -0.568205       -15.4617
  42   2.0000      -0.564366       -15.3572
  43   2.0000      -0.561338       -15.2748
  44   2.0000      -0.525730       -14.3058
  45   2.0000      -0.523016       -14.2320
  46   2.0000      -0.519321       -14.1315
  47   2.0000      -0.511529       -13.9194
  48   2.0000      -0.505523       -13.7560
  49   2.0000      -0.502042       -13.6612
  50   2.0000      -0.494209       -13.4481
  51   2.0000      -0.483005       -13.1432
  52   2.0000      -0.471235       -12.8230
  53   2.0000      -0.466186       -12.6856
  54   2.0000      -0.464545       -12.6409
  55   2.0000      -0.451610       -12.2889
  56   2.0000      -0.447951       -12.1894
  57   2.0000      -0.436222       -11.8702
  58   2.0000      -0.431109       -11.7311
  59   2.0000      -0.430419       -11.7123
  60   2.0000      -0.419408       -11.4127
  61   2.0000      -0.417473       -11.3600
  62   2.0000      -0.412106       -11.2140
  63   2.0000      -0.356243        -9.6939
  64   2.0000      -0.330157        -8.9840
  65   2.0000      -0.327902        -8.9227
  66   2.0000      -0.284299        -7.7362
  67   0.0000       0.021109         0.5744
  68   0.0000       0.074998         2.0408
  69   0.0000       0.097906         2.6642
  70   0.0000       0.115108         3.1323
  71   0.0000       0.119984         3.2649

MULLIKEN ATOMIC CHARGES
-----------------------
   0 S :    0.112504
   1 C :   -0.136539
   2 C :   -0.109679
   3 C :    0.001302
   4 C :   -0.129680
   5 H :    0.021731
   6 C :    0.084299
   7 H :    0.043685
   8 H :    0.027756
   9 C :   -0.162551
  10 H :    0.029436
  11 H :    0.032169
  12 C :    0.001857
  13 H :    0.019518
  14 H :    0.030638
  15 H :    0.030762
  16 S :    0.101164
  17 C :   -0.099293
  18 C :   -0.027064
  19 C :   -0.065287
  20 C :   -0.124860
  21 H :    0.014365
  22 C :    0.089744
  23 H :    0.019917
  24 H :    0.014271
  25 C :   -0.093177
  26 H :    0.015074
  27 H :    0.013326
  28 C :   -0.038188
  29 H :    0.048026
  30 H :    0.038722
  31 H :    0.040131
  32 H :    0.077232
  33 H :    0.078688
Sum of atomic charges:   -0.0000000

LOEWDIN ATOMIC CHARGES
----------------------
   0 S :    0.405575
   1 C :   -0.217296
   2 C :   -0.061131
   3 C :   -0.072282
   4 C :   -0.186603
   5 H :    0.035200
   6 C :   -0.034894
   7 H :    0.040089
   8 H :    0.030158
   9 C :   -0.049041
  10 H :    0.019811
  11 H :    0.023090
  12 C :   -0.056181
  13 H :    0.018990
  14 H :    0.025475
  15 H :    0.026144
  16 S :    0.415128
  17 C :   -0.199026
  18 C :   -0.067637
  19 C :   -0.057231
  20 C :   -0.199393
  21 H :    0.026143
  22 C :   -0.027184
  23 H :    0.029593
  24 H :    0.024102
  25 C :   -0.047418
  26 H :    0.020223
  27 H :    0.020251
  28 C :   -0.068558
  29 H :    0.037403
  30 H :    0.027947
  31 H :    0.027503
  32 H :    0.050713
  33 H :    0.040340

  Mayer bond orders larger than 0.100000
B(  0-S ,  1-C ) :   1.1296 B(  0-S ,  4-C ) :   1.1482 B(  1-C ,  2-C ) :   1.6097
B(  1-C ,  4-C ) :   0.1003 B(  1-C , 32-H ) :   0.9547 B(  2-C ,  3-C ) :   1.2643
B(  2-C ,  6-C ) :   1.0183 B(  3-C ,  4-C ) :   1.5477 B(  3-C ,  5-H ) :   0.9727
B(  4-C , 20-C ) :   1.0536 B(  6-C ,  7-H ) :   0.9275 B(  6-C ,  8-H ) :   0.9433
B(  6-C ,  9-C ) :   1.0795 B(  9-C , 10-H ) :   0.9450 B(  9-C , 11-H ) :   0.9562
B(  9-C , 12-C ) :   1.0715 B( 12-C , 13-H ) :   0.9744 B( 12-C , 14-H ) :   0.9751
B( 12-C , 15-H ) :   0.9767 B( 16-S , 17-C ) :   1.1524 B( 16-S , 20-C ) :   1.1489
B( 17-C , 18-C ) :   1.5795 B( 17-C , 33-H ) :   0.9689 B( 18-C , 19-C ) :   1.2497
B( 18-C , 21-H ) :   0.9893 B( 19-C , 20-C ) :   1.5778 B( 19-C , 22-C ) :   1.0646
B( 22-C , 23-H ) :   0.9313 B( 22-C , 24-H ) :   0.9257 B( 22-C , 25-C ) :   1.0529
B( 25-C , 26-H ) :   0.9548 B( 25-C , 27-H ) :   0.9482 B( 25-C , 28-C ) :   1.0811
B( 28-C , 29-H ) :   0.9709 B( 28-C , 30-H ) :   0.9731 B( 28-C , 31-H ) :   0.9742

Dispersion correction           -0.014030263
FINAL SINGLE POINT ENERGY     -1339.882874544694

DIPOLE MOMENT
-------------
                                X             Y             Z
Electronic contribution:     -7.90657      11.63968     -30.33380
Nuclear contribution   :      8.09260     -11.77297      31.05318
                        -----------------------------------------
Total Dipole Moment    :      0.18602      -0.13329       0.71938
                        -----------------------------------------
Magnitude (a.u.)       :      0.75490
Magnitude (Debye)      :      1.91880

Rotational constants in cm-1:     0.016708     0.009782     0.006392
Rotational constants in MHz :   500.886158   293.247014   191.625754

                             ****ORCA TERMINATED NORMALLY****
TOTAL RUN TIME: 0 days 0 hours 0 minutes 28 seconds 459 msec
