                         Program Version 4.2.1 -  RELEASE  -
|  1> ! wB97X-D3 SP def2-SVP
|  2> %pal
|  3> nprocs 16
|  4> end
|  5>
|  6> * xyz 0 1
|  7> S 	 66.6841 	 23.2845 	 71.3998
|  8> C 	 66.4955 	 21.6475 	 70.8126
|  9> C 	 67.1945 	 20.7981 	 71.7099
| 10> C 	 68.1089 	 21.495 	 72.5691
| 11> C 	 67.9995 	 22.8461 	 72.5267
| 12> H 	 68.7979 	 21.1023 	 73.3566
| 13> C 	 67.2618 	 19.2755 	 71.7066
| 14> H 	 68.2463 	 18.9676 	 71.3505
| 15> H 	 66.704 	 18.9118 	 70.8657
| 16> C 	 66.9669 	 18.6186 	 72.9628
| 17> H 	 67.4832 	 19.1807 	 73.7135
| 18> H 	 65.9369 	 18.7598 	 73.2046
| 19> C 	 67.2711 	 17.0562 	 72.9081
| 20> H 	 66.7621 	 16.5778 	 72.0832
| 21> H 	 68.3532 	 16.7654 	 73.084
| 22> H 	 66.8941 	 16.7304 	 73.8968
| 23> S 	 68.125 	 24.4424 	 74.7012
| 24> C 	 69.6621 	 25.186 	 75.114
| 25> C 	 70.6963 	 24.6963 	 74.3838
| 26> C 	 70.3275 	 23.805 	 73.3256
| 27> C 	 68.8968 	 23.714 	 73.2923
| 28> H 	 71.5942 	 25.1732 	 74.6047
| 29> C 	 71.3128 	 23.2476 	 72.4492
| 30> H 	 71.7769 	 22.34 	 72.8477
| 31> H 	 72.1297 	 23.9561 	 72.2953
| 32> C 	 70.8282 	 22.9129 	 70.9964
| 33> H 	 70.3135 	 23.7667 	 70.6408
| 34> H 	 70.1928 	 22.0155 	 70.9574
| 35> C 	 71.9291 	 22.5832 	 69.9969
| 36> H 	 71.6468 	 22.4125 	 68.9594
| 37> H 	 72.4003 	 21.6201 	 70.205
| 38> H 	 72.6955 	 23.3345 	 69.9746
| 39> H 	 65.8545 	 21.418 	 70.0166
| 40> H 	 69.7541 	 25.821 	 75.9608
| 41> *
| 42>
| 43>                          ****END OF INPUT****

CARTESIAN COORDINATES (ANGSTROEM)
---------------------------------
  S     66.684100   23.284500   71.399800
  C     66.495500   21.647500   70.812600
  C     67.194500   20.798100   71.709900
  C     68.108900   21.495000   72.569100
  C     67.999500   22.846100   72.526700
  H     68.797900   21.102300   73.356600
  C     67.261800   19.275500   71.706600
  H     68.246300   18.967600   71.350500
  H     66.704000   18.911800   70.865700
  C     66.966900   18.618600   72.962800
  H     67.483200   19.180700   73.713500
  H     65.936900   18.759800   73.204600
  C     67.271100   17.056200   72.908100
  H     66.762100   16.577800   72.083200
  H     68.353200   16.765400   73.084000
  H     66.894100   16.730400   73.896800
  S     68.125000   24.442400   74.701200
  C     69.662100   25.186000   75.114000
  C     70.696300   24.696300   74.383800
  C     70.327500   23.805000   73.325600
  C     68.896800   23.714000   73.292300
  H     71.594200   25.173200   74.604700
  C     71.312800   23.247600   72.449200
  H     71.776900   22.340000   72.847700
  H     72.129700   23.956100   72.295300
  C     70.828200   22.912900   70.996400
  H     70.313500   23.766700   70.640800
  H     70.192800   22.015500   70.957400
  C     71.929100   22.583200   69.996900
  H     71.646800   22.412500   68.959400
  H     72.400300   21.620100   70.205000
  H     72.695500   23.334500   69.974600
  H     65.854500   21.418000   70.016600
  H     69.754100   25.821000   75.960800

 Total Charge           Charge          ....    0
 Multiplicity           Mult            ....    1
 Number of Electrons    NEL             ....  134
 Basis Dimension        Dim             ....  322

ORBITAL ENERGIES
----------------

  NO   OCC          E(Eh)            E(eV)
   0   2.0000     -88.963650     -2420.8240
   1   2.0000     -88.963277     -2420.8138
   2   2.0000     -10.331478      -281.1338
   3   2.0000     -10.325329      -280.9665
   4   2.0000     -10.318746      -280.7874
   5   2.0000     -10.310873      -280.5731
   6   2.0000     -10.309583      -280.5380
   7   2.0000     -10.306023      -280.4411
   8   2.0000     -10.291762      -280.0531
   9   2.0000     -10.290855      -280.0284
  10   2.0000     -10.288591      -279.9668
  11   2.0000     -10.286901      -279.9208
  12   2.0000     -10.279691      -279.7246
  13   2.0000     -10.279462      -279.7184
  14   2.0000     -10.278441      -279.6906
  15   2.0000     -10.270912      -279.4857
  16   2.0000      -8.078038      -219.8146
  17   2.0000      -8.077718      -219.8059
  18   2.0000      -6.036394      -164.2586
  19   2.0000      -6.036279      -164.2555
  20   2.0000      -6.032700      -164.1581
  21   2.0000      -6.032315      -164.1476
  22   2.0000      -6.028808      -164.0522
  23   2.0000      -6.028447      -164.0424
  24   2.0000      -1.003059       -27.2946
  25   2.0000      -0.981349       -26.7039
  26   2.0000      -0.916996       -24.9527
  27   2.0000      -0.911914       -24.8144
  28   2.0000      -0.872689       -23.7471
  29   2.0000      -0.853444       -23.2234
  30   2.0000      -0.840524       -22.8718
  31   2.0000      -0.816067       -22.2063
  32   2.0000      -0.780434       -21.2367
  33   2.0000      -0.769198       -20.9310
  34   2.0000      -0.713766       -19.4226
  35   2.0000      -0.703316       -19.1382
  36   2.0000      -0.689262       -18.7558
  37   2.0000      -0.659773       -17.9533
  38   2.0000      -0.646946       -17.6043
  39   2.0000      -0.619444       -16.8559
  40   2.0000      -0.599655       -16.3174
  41   2.0000      -0.573959       -15.6182
  42   2.0000      -0.566398       -15.4125
  43   2.0000      -0.561237       -15.2720
  44   2.0000      -0.530966       -14.4483
  45   2.0000      -0.524921       -14.2838
  46   2.0000      -0.517678       -14.0867
  47   2.0000      -0.512701       -13.9513
  48   2.0000      -0.503548       -13.7022
  49   2.0000      -0.501617       -13.6497
  50   2.0000      -0.491517       -13.3749
  51   2.0000      -0.481477       -13.1016
  52   2.0000      -0.473256       -12.8779
  53   2.0000      -0.462263       -12.5788
  54   2.0000      -0.455962       -12.4074
  55   2.0000      -0.447339       -12.1727
  56   2.0000      -0.439824       -11.9682
  57   2.0000      -0.438451       -11.9309
  58   2.0000      -0.435474       -11.8499
  59   2.0000      -0.423790       -11.5319
  60   2.0000      -0.414442       -11.2775
  61   2.0000      -0.410470       -11.1695
  62   2.0000      -0.406550       -11.0628
  63   2.0000      -0.341866        -9.3026
  64   2.0000      -0.325872        -8.8674
  65   2.0000      -0.321673        -8.7532
  66   2.0000      -0.297156        -8.0860
  67   0.0000       0.033641         0.9154
  68   0.0000       0.056917         1.5488
  69   0.0000       0.110469         3.0060
  70   0.0000       0.119201         3.2436
  71   0.0000       0.126919         3.4536

MULLIKEN ATOMIC CHARGES
-----------------------
   0 S :    0.100348
   1 C :   -0.108912
   2 C :   -0.079228
   3 C :   -0.000808
   4 C :   -0.144843
   5 H :    0.043776
   6 C :    0.097294
   7 H :    0.016611
   8 H :   -0.010142
   9 C :   -0.057428
  10 H :    0.014009
  11 H :    0.019810
  12 C :   -0.063473
  13 H :    0.050706
  14 H :    0.044549
  15 H :    0.029595
  16 S :    0.096979
  17 C :   -0.078984
  18 C :   -0.018766
  19 C :    0.016767
  20 C :   -0.184330
  21 H :   -0.001768
  22 C :    0.052552
  23 H :    0.037898
  24 H :    0.021917
  25 C :   -0.080179
  26 H :    0.026543
  27 H :    0.049839
  28 C :   -0.032854
  29 H :    0.029156
  30 H :    0.015072
  31 H :    0.015454
  32 H :    0.039459
  33 H :    0.043381
Sum of atomic charges:    0.0000000

LOEWDIN ATOMIC CHARGES
----------------------
   0 S :    0.388047
   1 C :   -0.185851
   2 C :   -0.057799
   3 C :   -0.069445
   4 C :   -0.196287
   5 H :    0.042834
   6 C :   -0.042155
   7 H :    0.029946
   8 H :    0.020314
   9 C :   -0.037945
  10 H :    0.021367
  11 H :    0.023349
  12 C :   -0.068948
  13 H :    0.026819
  14 H :    0.034593
  15 H :    0.030784
  16 S :    0.396229
  17 C :   -0.170876
  18 C :   -0.064196
  19 C :   -0.048999
  20 C :   -0.188471
  21 H :    0.024837
  22 C :   -0.036236
  23 H :    0.038139
  24 H :    0.034970
  25 C :   -0.035132
  26 H :    0.020238
  27 H :    0.030613
  28 C :   -0.067917
  29 H :    0.028672
  30 H :    0.022267
  31 H :    0.015623
  32 H :    0.019927
  33 H :    0.020689

  Mayer bond orders larger than 0.100000
B(  0-S ,  1-C ) :   1.1450 B(  0-S ,  4-C ) :   1.1274 B(  1-C ,  2-C ) :   1.5793
B(  1-C , 32-H ) :   0.9850 B(  2-C ,  3-C ) :   1.2128 B(  2-C ,  6-C ) :   1.0337
B(  3-C ,  4-C ) :   1.6125 B(  3-C ,  5-H ) :   0.9806 B(  4-C , 20-C ) :   1.0247
B(  6-C ,  7-H ) :   0.9389 B(  6-C ,  8-H ) :   0.9281 B(  6-C ,  9-C ) :   1.0651
B(  9-C , 10-H ) :   0.9549 B(  9-C , 11-H ) :   0.9487 B(  9-C , 12-C ) :   1.0733
B( 12-C , 13-H ) :   0.9753 B( 12-C , 14-H ) :   0.9739 B( 12-C , 15-H ) :   0.9748
B( 16-S , 17-C ) :   1.1405 B( 16-S , 20-C ) :   1.1590 B( 17-C , 18-C ) :   1.6448
B( 17-C , 33-H ) :   0.9691 B( 18-C , 19-C ) :   1.2022 B( 18-C , 21-H ) :   0.9991
B( 19-C , 20-C ) :   1.5701 B( 19-C , 22-C ) :   1.0752 B( 22-C , 23-H ) :   0.9103
B( 22-C , 24-H ) :   0.9355 B( 22-C , 25-C ) :   1.0689 B( 25-C , 26-H ) :   0.9583
B( 25-C , 27-H ) :   0.9474 B( 25-C , 28-C ) :   1.0928 B( 28-C , 29-H ) :   0.9725
B( 28-C , 30-H ) :   0.9718 B( 28-C , 31-H ) :   0.9731

Dispersion correction           -0.014685540
FINAL SINGLE POINT ENERGY     -1339.849255310193

DIPOLE MOMENT
-------------
                                X             Y             Z
Electronic contribution:    -12.17627      22.47071       8.30384
Nuclear contribution   :     12.63291     -22.96755      -8.28357
                        -----------------------------------------
Total Dipole Moment    :      0.45664      -0.49684       0.02028
                        -----------------------------------------
Magnitude (a.u.)       :      0.67511
Magnitude (Debye)      :      1.71600

Rotational constants in cm-1:     0.016694     0.008748     0.007773
Rotational constants in MHz :   500.462499   262.249284   233.030104

                             ****ORCA TERMINATED NORMALLY****
TOTAL RUN TIME: 0 days 0 hours 0 minutes 29 seconds 621 msec
