                         Program Version 4.2.1 -  RELEASE  -
|  1> ! wB97X-D3 SP def2-SVP
|  2> %pal
|  3> nprocs 16
|  4> end
|  5>
|  6> * xyz 0 1
|  7> S 	 -54.1114 	 41.8962 	 111.565
|  8> C 	 -52.6668 	 41.2669 	 110.939
|  9> C 	 -52.6235 	 39.8856 	 110.893
| 10> C 	 -53.7769 	 39.3489 	 111.544
| 11> C 	 -54.655 	 40.3158 	 111.897
| 12> H 	 -54.0161 	 38.2866 	 111.671
| 13> C 	 -51.4322 	 38.94 	 110.381
| 14> H 	 -50.5447 	 39.1988 	 110.928
| 15> H 	 -51.2223 	 39.2855 	 109.354
| 16> C 	 -51.6891 	 37.4827 	 110.274
| 17> H 	 -52.086 	 37.2255 	 111.255
| 18> H 	 -52.4368 	 37.2625 	 109.54
| 19> C 	 -50.3953 	 36.7649 	 109.951
| 20> H 	 -49.5735 	 37.0092 	 110.552
| 21> H 	 -50.4755 	 35.656 	 110.039
| 22> H 	 -50.0613 	 36.8841 	 108.874
| 23> S 	 -55.8777 	 39.199 	 114.121
| 24> C 	 -57.546 	 39.2527 	 114.215
| 25> C 	 -58.1338 	 40.0868 	 113.321
| 26> C 	 -57.1749 	 40.5852 	 112.376
| 27> C 	 -55.9128 	 40.1094 	 112.64
| 28> H 	 -59.2279 	 40.2722 	 113.389
| 29> C 	 -57.5787 	 41.6975 	 111.333
| 30> H 	 -56.7793 	 41.8778 	 110.585
| 31> H 	 -57.6038 	 42.6306 	 111.905
| 32> C 	 -58.9511 	 41.4414 	 110.574
| 33> H 	 -59.7231 	 41.2337 	 111.364
| 34> H 	 -58.8078 	 40.5835 	 109.998
| 35> C 	 -59.2641 	 42.6839 	 109.652
| 36> H 	 -59.4665 	 43.6139 	 110.134
| 37> H 	 -60.1613 	 42.4769 	 108.959
| 38> H 	 -58.5189 	 42.6576 	 108.946
| 39> H 	 -51.8972 	 41.8936 	 110.55
| 40> H 	 -58.1007 	 38.9518 	 115.076
| 41> *
| 42>
| 43>                          ****END OF INPUT****

CARTESIAN COORDINATES (ANGSTROEM)
---------------------------------
  S    -54.111400   41.896200  111.565000
  C    -52.666800   41.266900  110.939000
  C    -52.623500   39.885600  110.893000
  C    -53.776900   39.348900  111.544000
  C    -54.655000   40.315800  111.897000
  H    -54.016100   38.286600  111.671000
  C    -51.432200   38.940000  110.381000
  H    -50.544700   39.198800  110.928000
  H    -51.222300   39.285500  109.354000
  C    -51.689100   37.482700  110.274000
  H    -52.086000   37.225500  111.255000
  H    -52.436800   37.262500  109.540000
  C    -50.395300   36.764900  109.951000
  H    -49.573500   37.009200  110.552000
  H    -50.475500   35.656000  110.039000
  H    -50.061300   36.884100  108.874000
  S    -55.877700   39.199000  114.121000
  C    -57.546000   39.252700  114.215000
  C    -58.133800   40.086800  113.321000
  C    -57.174900   40.585200  112.376000
  C    -55.912800   40.109400  112.640000
  H    -59.227900   40.272200  113.389000
  C    -57.578700   41.697500  111.333000
  H    -56.779300   41.877800  110.585000
  H    -57.603800   42.630600  111.905000
  C    -58.951100   41.441400  110.574000
  H    -59.723100   41.233700  111.364000
  H    -58.807800   40.583500  109.998000
  C    -59.264100   42.683900  109.652000
  H    -59.466500   43.613900  110.134000
  H    -60.161300   42.476900  108.959000
  H    -58.518900   42.657600  108.946000
  H    -51.897200   41.893600  110.550000
  H    -58.100700   38.951800  115.076000

 Total Charge           Charge          ....    0
 Multiplicity           Mult            ....    1
 Number of Electrons    NEL             ....  134
 Basis Dimension        Dim             ....  322

ORBITAL ENERGIES
----------------

  NO   OCC          E(Eh)            E(eV)
   0   2.0000     -88.966111     -2420.8910
   1   2.0000     -88.962811     -2420.8012
   2   2.0000     -10.319153      -280.7984
   3   2.0000     -10.318444      -280.7791
   4   2.0000     -10.305112      -280.4163
   5   2.0000     -10.302424      -280.3432
   6   2.0000     -10.302330      -280.3407
   7   2.0000     -10.301840      -280.3273
   8   2.0000     -10.296535      -280.1830
   9   2.0000     -10.292606      -280.0760
  10   2.0000     -10.290781      -280.0264
  11   2.0000     -10.289813      -280.0001
  12   2.0000     -10.287785      -279.9448
  13   2.0000     -10.283741      -279.8348
  14   2.0000     -10.281163      -279.7647
  15   2.0000     -10.278498      -279.6921
  16   2.0000      -8.082383      -219.9328
  17   2.0000      -8.079280      -219.8484
  18   2.0000      -6.040603      -164.3732
  19   2.0000      -6.037557      -164.2903
  20   2.0000      -6.036707      -164.2672
  21   2.0000      -6.033685      -164.1849
  22   2.0000      -6.033340      -164.1755
  23   2.0000      -6.030045      -164.0859
  24   2.0000      -1.016172       -27.6514
  25   2.0000      -0.995255       -27.0823
  26   2.0000      -0.917206       -24.9584
  27   2.0000      -0.896535       -24.3959
  28   2.0000      -0.869487       -23.6600
  29   2.0000      -0.853110       -23.2143
  30   2.0000      -0.845557       -23.0088
  31   2.0000      -0.811763       -22.0892
  32   2.0000      -0.781637       -21.2694
  33   2.0000      -0.772051       -21.0086
  34   2.0000      -0.709287       -19.3007
  35   2.0000      -0.703097       -19.1323
  36   2.0000      -0.685048       -18.6411
  37   2.0000      -0.658481       -17.9182
  38   2.0000      -0.637326       -17.3425
  39   2.0000      -0.619918       -16.8688
  40   2.0000      -0.595892       -16.2151
  41   2.0000      -0.576252       -15.6806
  42   2.0000      -0.565155       -15.3787
  43   2.0000      -0.564254       -15.3541
  44   2.0000      -0.520914       -14.1748
  45   2.0000      -0.518837       -14.1183
  46   2.0000      -0.511043       -13.9062
  47   2.0000      -0.505554       -13.7568
  48   2.0000      -0.501810       -13.6550
  49   2.0000      -0.498168       -13.5558
  50   2.0000      -0.487122       -13.2553
  51   2.0000      -0.476969       -12.9790
  52   2.0000      -0.472593       -12.8599
  53   2.0000      -0.465782       -12.6746
  54   2.0000      -0.463217       -12.6048
  55   2.0000      -0.454303       -12.3622
  56   2.0000      -0.448493       -12.2041
  57   2.0000      -0.444036       -12.0828
  58   2.0000      -0.437435       -11.9032
  59   2.0000      -0.423559       -11.5256
  60   2.0000      -0.421854       -11.4792
  61   2.0000      -0.413167       -11.2428
  62   2.0000      -0.411921       -11.2089
  63   2.0000      -0.345363        -9.3978
  64   2.0000      -0.334476        -9.1016
  65   2.0000      -0.328231        -8.9316
  66   2.0000      -0.293150        -7.9770
  67   0.0000       0.043815         1.1923
  68   0.0000       0.078272         2.1299
  69   0.0000       0.116402         3.1675
  70   0.0000       0.122527         3.3341
  71   0.0000       0.135216         3.6794

MULLIKEN ATOMIC CHARGES
-----------------------
   0 S :    0.134971
   1 C :   -0.132646
   2 C :   -0.059434
   3 C :   -0.028324
   4 C :   -0.141648
   5 H :    0.023435
   6 C :    0.048019
   7 H :    0.032760
   8 H :    0.020976
   9 C :   -0.051105
  10 H :    0.033207
  11 H :    0.035078
  12 C :   -0.051938
  13 H :    0.020826
  14 H :    0.033002
  15 H :    0.036118
  16 S :    0.129994
  17 C :   -0.074644
  18 C :   -0.070846
  19 C :   -0.014104
  20 C :   -0.167237
  21 H :    0.035511
  22 C :    0.021266
  23 H :    0.023505
  24 H :    0.042787
  25 C :   -0.084125
  26 H :    0.039715
  27 H :    0.028267
  28 C :   -0.026895
  29 H :    0.042367
  30 H :    0.031184
  31 H :    0.014263
  32 H :    0.031329
  33 H :    0.044367
Sum of atomic charges:    0.0000000

LOEWDIN ATOMIC CHARGES
----------------------
   0 S :    0.457221
   1 C :   -0.215061
   2 C :   -0.057421
   3 C :   -0.076085
   4 C :   -0.206932
   5 H :    0.034641
   6 C :   -0.028036
   7 H :    0.028269
   8 H :    0.030827
   9 C :   -0.043758
  10 H :    0.024162
  11 H :    0.027507
  12 C :   -0.064211
  13 H :    0.016666
  14 H :    0.030798
  15 H :    0.033030
  16 S :    0.441924
  17 C :   -0.210182
  18 C :   -0.079972
  19 C :   -0.058297
  20 C :   -0.207775
  21 H :    0.037907
  22 C :   -0.036394
  23 H :    0.019890
  24 H :    0.031897
  25 C :   -0.030504
  26 H :    0.023761
  27 H :    0.018491
  28 C :   -0.060751
  29 H :    0.023235
  30 H :    0.035614
  31 H :    0.014893
  32 H :    0.019658
  33 H :    0.024989

  Mayer bond orders larger than 0.100000
B(  0-S ,  1-C ) :   1.1598 B(  0-S ,  4-C ) :   1.1752 B(  1-C ,  2-C ) :   1.6161
B(  1-C , 32-H ) :   0.9750 B(  2-C ,  3-C ) :   1.2506 B(  2-C ,  6-C ) :   0.9786
B(  3-C ,  4-C ) :   1.5821 B(  3-C ,  5-H ) :   0.9909 B(  4-C , 20-C ) :   0.9956
B(  6-C ,  7-H ) :   0.9490 B(  6-C ,  8-H ) :   0.9385 B(  6-C ,  9-C ) :   1.0839
B(  9-C , 10-H ) :   0.9429 B(  9-C , 11-H ) :   0.9525 B(  9-C , 12-C ) :   1.0875
B( 12-C , 13-H ) :   0.9754 B( 12-C , 14-H ) :   0.9718 B( 12-C , 15-H ) :   0.9725
B( 16-S , 17-C ) :   1.1726 B( 16-S , 20-C ) :   1.1512 B( 17-C , 18-C ) :   1.6271
B( 17-C , 33-H ) :   0.9598 B( 18-C , 19-C ) :   1.2350 B( 18-C , 21-H ) :   0.9822
B( 19-C , 20-C ) :   1.6107 B( 19-C , 22-C ) :   1.0236 B( 22-C , 23-H ) :   0.9361
B( 22-C , 24-H ) :   0.9467 B( 22-C , 25-C ) :   1.0470 B( 25-C , 26-H ) :   0.9596
B( 25-C , 27-H ) :   0.9607 B( 25-C , 28-C ) :   1.0768 B( 28-C , 29-H ) :   0.9797
B( 28-C , 30-H ) :   0.9733 B( 28-C , 31-H ) :   0.9728

Dispersion correction           -0.013311192
FINAL SINGLE POINT ENERGY     -1339.871674936165

DIPOLE MOMENT
-------------
                                X             Y             Z
Electronic contribution:     -0.77714       4.85315      16.87118
Nuclear contribution   :      0.81766      -4.89125     -17.13220
                        -----------------------------------------
Total Dipole Moment    :      0.04052      -0.03810      -0.26102
                        -----------------------------------------
Magnitude (a.u.)       :      0.26688
Magnitude (Debye)      :      0.67836

Rotational constants in cm-1:     0.019834     0.007318     0.006245
Rotational constants in MHz :   594.598276   219.376754   187.221565

                             ****ORCA TERMINATED NORMALLY****
TOTAL RUN TIME: 0 days 0 hours 0 minutes 27 seconds 56 msec
