                         Program Version 4.2.1 -  RELEASE  -
|  1> ! wB97X-D3 SP def2-SVP
|  2> %pal
|  3> nprocs 16
|  4> end
|  5>
|  6> * xyz 0 1
|  7> S 	 21.4563 	 0.147467 	 76.7341
|  8> C 	 22.8447 	 0.368715 	 77.8736
|  9> C 	 22.5215 	 1.11975 	 79.0078
| 10> C 	 21.1718 	 1.60126 	 78.9344
| 11> C 	 20.5012 	 1.17132 	 77.8051
| 12> H 	 20.6546 	 2.25989 	 79.6604
| 13> C 	 23.4922 	 1.5776 	 80.1327
| 14> H 	 24.4249 	 1.26302 	 79.7086
| 15> H 	 23.175 	 1.16593 	 81.0684
| 16> C 	 23.5478 	 3.11796 	 80.3678
| 17> H 	 23.827 	 3.6989 	 79.409
| 18> H 	 22.5754 	 3.53128 	 80.6799
| 19> C 	 24.6184 	 3.45425 	 81.3755
| 20> H 	 24.6085 	 4.50477 	 81.5157
| 21> H 	 24.4712 	 3.10438 	 82.4308
| 22> H 	 25.6389 	 3.25448 	 81.069
| 23> S 	 17.9887 	 -0.135557 	 78.0664
| 24> C 	 16.5397 	 0.807648 	 77.767
| 25> C 	 16.8145 	 2.13234 	 77.5948
| 26> C 	 18.1885 	 2.42577 	 77.5836
| 27> C 	 19.008 	 1.26173 	 77.7116
| 28> H 	 15.9988 	 2.85126 	 77.4137
| 29> C 	 18.7515 	 3.87173 	 77.586
| 30> H 	 19.838 	 3.79179 	 77.6382
| 31> H 	 18.5217 	 4.41349 	 78.4663
| 32> C 	 18.2811 	 4.69258 	 76.3564
| 33> H 	 17.1823 	 4.61534 	 76.2355
| 34> H 	 18.7186 	 4.1286 	 75.5285
| 35> C 	 18.7151 	 6.17198 	 76.2968
| 36> H 	 19.2357 	 6.56598 	 77.1889
| 37> H 	 17.8448 	 6.79941 	 76.0438
| 38> H 	 19.4507 	 6.23092 	 75.4802
| 39> H 	 23.7967 	 -0.0179012 	 77.7254
| 40> H 	 15.5486 	 0.465197 	 77.7227
| 41> *
| 42>
| 43>                          ****END OF INPUT****

CARTESIAN COORDINATES (ANGSTROEM)
---------------------------------
  S     21.456300    0.147467   76.734100
  C     22.844700    0.368715   77.873600
  C     22.521500    1.119750   79.007800
  C     21.171800    1.601260   78.934400
  C     20.501200    1.171320   77.805100
  H     20.654600    2.259890   79.660400
  C     23.492200    1.577600   80.132700
  H     24.424900    1.263020   79.708600
  H     23.175000    1.165930   81.068400
  C     23.547800    3.117960   80.367800
  H     23.827000    3.698900   79.409000
  H     22.575400    3.531280   80.679900
  C     24.618400    3.454250   81.375500
  H     24.608500    4.504770   81.515700
  H     24.471200    3.104380   82.430800
  H     25.638900    3.254480   81.069000
  S     17.988700   -0.135557   78.066400
  C     16.539700    0.807648   77.767000
  C     16.814500    2.132340   77.594800
  C     18.188500    2.425770   77.583600
  C     19.008000    1.261730   77.711600
  H     15.998800    2.851260   77.413700
  C     18.751500    3.871730   77.586000
  H     19.838000    3.791790   77.638200
  H     18.521700    4.413490   78.466300
  C     18.281100    4.692580   76.356400
  H     17.182300    4.615340   76.235500
  H     18.718600    4.128600   75.528500
  C     18.715100    6.171980   76.296800
  H     19.235700    6.565980   77.188900
  H     17.844800    6.799410   76.043800
  H     19.450700    6.230920   75.480200
  H     23.796700   -0.017901   77.725400
  H     15.548600    0.465197   77.722700

 Total Charge           Charge          ....    0
 Multiplicity           Mult            ....    1
 Number of Electrons    NEL             ....  134
 Basis Dimension        Dim             ....  322

ORBITAL ENERGIES
----------------

  NO   OCC          E(Eh)            E(eV)
   0   2.0000     -88.971705     -2421.0432
   1   2.0000     -88.966249     -2420.8947
   2   2.0000     -10.331843      -281.1437
   3   2.0000     -10.329920      -281.0914
   4   2.0000     -10.318151      -280.7712
   5   2.0000     -10.309969      -280.5485
   6   2.0000     -10.306558      -280.4557
   7   2.0000     -10.302975      -280.3582
   8   2.0000     -10.299071      -280.2520
   9   2.0000     -10.297941      -280.2212
  10   2.0000     -10.297160      -280.2000
  11   2.0000     -10.289027      -279.9787
  12   2.0000     -10.286878      -279.9202
  13   2.0000     -10.284688      -279.8606
  14   2.0000     -10.280513      -279.7470
  15   2.0000     -10.278324      -279.6874
  16   2.0000      -8.085081      -220.0062
  17   2.0000      -8.080353      -219.8776
  18   2.0000      -6.043646      -164.4560
  19   2.0000      -6.039934      -164.3549
  20   2.0000      -6.038888      -164.3265
  21   2.0000      -6.035698      -164.2397
  22   2.0000      -6.034993      -164.2205
  23   2.0000      -6.031084      -164.1141
  24   2.0000      -0.997761       -27.1505
  25   2.0000      -0.977442       -26.5975
  26   2.0000      -0.910634       -24.7796
  27   2.0000      -0.899651       -24.4808
  28   2.0000      -0.865372       -23.5480
  29   2.0000      -0.848396       -23.0860
  30   2.0000      -0.843614       -22.9559
  31   2.0000      -0.812877       -22.1195
  32   2.0000      -0.783631       -21.3237
  33   2.0000      -0.769734       -20.9455
  34   2.0000      -0.704674       -19.1752
  35   2.0000      -0.695083       -18.9142
  36   2.0000      -0.693384       -18.8679
  37   2.0000      -0.648975       -17.6595
  38   2.0000      -0.640403       -17.4262
  39   2.0000      -0.616177       -16.7670
  40   2.0000      -0.594282       -16.1712
  41   2.0000      -0.578547       -15.7431
  42   2.0000      -0.562488       -15.3061
  43   2.0000      -0.558385       -15.1944
  44   2.0000      -0.525568       -14.3014
  45   2.0000      -0.519112       -14.1258
  46   2.0000      -0.511406       -13.9161
  47   2.0000      -0.507095       -13.7987
  48   2.0000      -0.502157       -13.6644
  49   2.0000      -0.496157       -13.5011
  50   2.0000      -0.492914       -13.4129
  51   2.0000      -0.475988       -12.9523
  52   2.0000      -0.471173       -12.8213
  53   2.0000      -0.466813       -12.7026
  54   2.0000      -0.457060       -12.4372
  55   2.0000      -0.451595       -12.2885
  56   2.0000      -0.444926       -12.1071
  57   2.0000      -0.431907       -11.7528
  58   2.0000      -0.428405       -11.6575
  59   2.0000      -0.425216       -11.5707
  60   2.0000      -0.424820       -11.5600
  61   2.0000      -0.419578       -11.4173
  62   2.0000      -0.408543       -11.1170
  63   2.0000      -0.342178        -9.3111
  64   2.0000      -0.330334        -8.9888
  65   2.0000      -0.324125        -8.8199
  66   2.0000      -0.298089        -8.1114
  67   0.0000       0.034357         0.9349
  68   0.0000       0.060098         1.6353
  69   0.0000       0.108110         2.9418
  70   0.0000       0.117353         3.1933
  71   0.0000       0.127938         3.4814

MULLIKEN ATOMIC CHARGES
-----------------------
   0 S :    0.112959
   1 C :   -0.101582
   2 C :   -0.087743
   3 C :    0.024091
   4 C :   -0.169286
   5 H :    0.034549
   6 C :    0.124330
   7 H :    0.013960
   8 H :    0.036911
   9 C :   -0.127939
  10 H :    0.044801
  11 H :    0.034346
  12 C :   -0.036394
  13 H :    0.016781
  14 H :    0.033056
  15 H :    0.031601
  16 S :    0.116835
  17 C :   -0.074606
  18 C :   -0.040069
  19 C :   -0.045298
  20 C :   -0.169631
  21 H :    0.029465
  22 C :    0.091907
  23 H :    0.019587
  24 H :    0.020057
  25 C :   -0.124933
  26 H :    0.032198
  27 H :    0.036100
  28 C :   -0.042051
  29 H :    0.036103
  30 H :    0.040984
  31 H :    0.035198
  32 H :    0.019547
  33 H :    0.034166
Sum of atomic charges:   -0.0000000

LOEWDIN ATOMIC CHARGES
----------------------
   0 S :    0.383228
   1 C :   -0.170773
   2 C :   -0.056954
   3 C :   -0.057627
   4 C :   -0.195043
   5 H :    0.038219
   6 C :   -0.019123
   7 H :    0.028310
   8 H :    0.032077
   9 C :   -0.044716
  10 H :    0.035792
  11 H :    0.022546
  12 C :   -0.071847
  13 H :    0.023053
  14 H :    0.029409
  15 H :    0.025002
  16 S :    0.403252
  17 C :   -0.178777
  18 C :   -0.076413
  19 C :   -0.054774
  20 C :   -0.200643
  21 H :    0.036715
  22 C :   -0.028913
  23 H :    0.027253
  24 H :    0.020629
  25 C :   -0.046955
  26 H :    0.021908
  27 H :    0.027397
  28 C :   -0.073184
  29 H :    0.026916
  30 H :    0.030809
  31 H :    0.030895
  32 H :    0.011318
  33 H :    0.021012

  Mayer bond orders larger than 0.100000
B(  0-S ,  1-C ) :   1.1230 B(  0-S ,  4-C ) :   1.1414 B(  1-C ,  2-C ) :   1.6420
B(  1-C , 32-H ) :   0.9710 B(  2-C ,  3-C ) :   1.2171 B(  2-C ,  6-C ) :   1.0131
B(  3-C ,  4-C ) :   1.6027 B(  3-C ,  5-H ) :   0.9812 B(  4-C , 20-C ) :   1.0100
B(  6-C ,  7-H ) :   0.9445 B(  6-C ,  8-H ) :   0.9342 B(  6-C ,  9-C ) :   1.0696
B(  9-C , 10-H ) :   0.9551 B(  9-C , 11-H ) :   0.9504 B(  9-C , 12-C ) :   1.0946
B( 12-C , 13-H ) :   0.9686 B( 12-C , 14-H ) :   0.9705 B( 12-C , 15-H ) :   0.9740
B( 16-S , 17-C ) :   1.1526 B( 16-S , 20-C ) :   1.1509 B( 17-C , 18-C ) :   1.6124
B( 17-C , 20-C ) :   0.1005 B( 17-C , 33-H ) :   0.9698 B( 18-C , 19-C ) :   1.2659
B( 18-C , 21-H ) :   0.9826 B( 19-C , 20-C ) :   1.5768 B( 19-C , 22-C ) :   1.0357
B( 22-C , 23-H ) :   0.9311 B( 22-C , 24-H ) :   0.9397 B( 22-C , 25-C ) :   1.0515
B( 25-C , 26-H ) :   0.9680 B( 25-C , 27-H ) :   0.9647 B( 25-C , 28-C ) :   1.0564
B( 28-C , 29-H ) :   0.9787 B( 28-C , 30-H ) :   0.9785 B( 28-C , 31-H ) :   0.9798

Dispersion correction           -0.013602569
FINAL SINGLE POINT ENERGY     -1339.869612578980

DIPOLE MOMENT
-------------
                                X             Y             Z
Electronic contribution:    -10.47007     -26.61583      -8.24039
Nuclear contribution   :     10.68076      27.22368       8.63477
                        -----------------------------------------
Total Dipole Moment    :      0.21069       0.60785       0.39438
                        -----------------------------------------
Magnitude (a.u.)       :      0.75459
Magnitude (Debye)      :      1.91802

Rotational constants in cm-1:     0.015795     0.008385     0.006552
Rotational constants in MHz :   473.527480   251.363248   196.424305

                             ****ORCA TERMINATED NORMALLY****
TOTAL RUN TIME: 0 days 0 hours 0 minutes 33 seconds 844 msec
