                         Program Version 4.2.1 -  RELEASE  -
|  1> ! wB97X-D3 SP def2-SVP
|  2> %pal
|  3> nprocs 16
|  4> end
|  5>
|  6> * xyz 0 1
|  7> S 	 34.7308 	 23.2265 	 47.0523
|  8> C 	 34.1476 	 23.8664 	 48.5542
|  9> C 	 33.5401 	 22.859 	 49.305
| 10> C 	 33.5844 	 21.5894 	 48.6261
| 11> C 	 34.0893 	 21.6441 	 47.3736
| 12> H 	 33.1677 	 20.5987 	 48.9071
| 13> C 	 32.9496 	 23.0174 	 50.7286
| 14> H 	 33.6569 	 23.3075 	 51.4977
| 15> H 	 32.7795 	 22.048 	 51.0969
| 16> C 	 31.603 	 23.6947 	 50.9661
| 17> H 	 31.6711 	 24.7907 	 50.764
| 18> H 	 30.8967 	 23.2941 	 50.2206
| 19> C 	 31.0876 	 23.4207 	 52.3962
| 20> H 	 31.0561 	 22.3704 	 52.6537
| 21> H 	 31.6379 	 24.0149 	 53.1835
| 22> H 	 30.0123 	 23.7659 	 52.4294
| 23> S 	 33.1809 	 19.2842 	 46.3052
| 24> C 	 34.2384 	 18.2526 	 45.4544
| 25> C 	 35.5521 	 18.7146 	 45.544
| 26> C 	 35.6145 	 20.0452 	 46.0563
| 27> C 	 34.456 	 20.4508 	 46.6562
| 28> H 	 36.3627 	 18.1667 	 45.0386
| 29> C 	 36.9783 	 20.7771 	 46.0171
| 30> H 	 37.4664 	 20.2893 	 46.8358
| 31> H 	 36.7189 	 21.8151 	 46.2398
| 32> C 	 37.8047 	 20.6047 	 44.7098
| 33> H 	 37.1912 	 21.0761 	 43.9281
| 34> H 	 37.8473 	 19.5875 	 44.2988
| 35> C 	 39.1769 	 21.2278 	 44.7169
| 36> H 	 39.837 	 20.809 	 43.9585
| 37> H 	 39.6118 	 21.1396 	 45.6807
| 38> H 	 39.1042 	 22.3298 	 44.6366
| 39> H 	 34.1365 	 24.9259 	 48.7591
| 40> H 	 33.9147 	 17.3805 	 44.9593
| 41> *
| 42>
| 43>                          ****END OF INPUT****

CARTESIAN COORDINATES (ANGSTROEM)
---------------------------------
  S     34.730800   23.226500   47.052300
  C     34.147600   23.866400   48.554200
  C     33.540100   22.859000   49.305000
  C     33.584400   21.589400   48.626100
  C     34.089300   21.644100   47.373600
  H     33.167700   20.598700   48.907100
  C     32.949600   23.017400   50.728600
  H     33.656900   23.307500   51.497700
  H     32.779500   22.048000   51.096900
  C     31.603000   23.694700   50.966100
  H     31.671100   24.790700   50.764000
  H     30.896700   23.294100   50.220600
  C     31.087600   23.420700   52.396200
  H     31.056100   22.370400   52.653700
  H     31.637900   24.014900   53.183500
  H     30.012300   23.765900   52.429400
  S     33.180900   19.284200   46.305200
  C     34.238400   18.252600   45.454400
  C     35.552100   18.714600   45.544000
  C     35.614500   20.045200   46.056300
  C     34.456000   20.450800   46.656200
  H     36.362700   18.166700   45.038600
  C     36.978300   20.777100   46.017100
  H     37.466400   20.289300   46.835800
  H     36.718900   21.815100   46.239800
  C     37.804700   20.604700   44.709800
  H     37.191200   21.076100   43.928100
  H     37.847300   19.587500   44.298800
  C     39.176900   21.227800   44.716900
  H     39.837000   20.809000   43.958500
  H     39.611800   21.139600   45.680700
  H     39.104200   22.329800   44.636600
  H     34.136500   24.925900   48.759100
  H     33.914700   17.380500   44.959300

 Total Charge           Charge          ....    0
 Multiplicity           Mult            ....    1
 Number of Electrons    NEL             ....  134
 Basis Dimension        Dim             ....  322

ORBITAL ENERGIES
----------------

  NO   OCC          E(Eh)            E(eV)
   0   2.0000     -88.967944     -2420.9408
   1   2.0000     -88.962916     -2420.8040
   2   2.0000     -10.323229      -280.9093
   3   2.0000     -10.322387      -280.8864
   4   2.0000     -10.317520      -280.7540
   5   2.0000     -10.313175      -280.6358
   6   2.0000     -10.309667      -280.5403
   7   2.0000     -10.300545      -280.2921
   8   2.0000     -10.294420      -280.1254
   9   2.0000     -10.293130      -280.0903
  10   2.0000     -10.291120      -280.0356
  11   2.0000     -10.290622      -280.0221
  12   2.0000     -10.287866      -279.9471
  13   2.0000     -10.286080      -279.8985
  14   2.0000     -10.285655      -279.8869
  15   2.0000     -10.274092      -279.5723
  16   2.0000      -8.082844      -219.9454
  17   2.0000      -8.078373      -219.8237
  18   2.0000      -6.041383      -164.3944
  19   2.0000      -6.037181      -164.2800
  20   2.0000      -6.036816      -164.2701
  21   2.0000      -6.033714      -164.1857
  22   2.0000      -6.032733      -164.1590
  23   2.0000      -6.029219      -164.0634
  24   2.0000      -1.013258       -27.5722
  25   2.0000      -0.988819       -26.9071
  26   2.0000      -0.909524       -24.7494
  27   2.0000      -0.906294       -24.6615
  28   2.0000      -0.875321       -23.8187
  29   2.0000      -0.854967       -23.2648
  30   2.0000      -0.846039       -23.0219
  31   2.0000      -0.811306       -22.0768
  32   2.0000      -0.781893       -21.2764
  33   2.0000      -0.773403       -21.0454
  34   2.0000      -0.706962       -19.2374
  35   2.0000      -0.699403       -19.0317
  36   2.0000      -0.696727       -18.9589
  37   2.0000      -0.667151       -18.1541
  38   2.0000      -0.640900       -17.4398
  39   2.0000      -0.613067       -16.6824
  40   2.0000      -0.594716       -16.1830
  41   2.0000      -0.570056       -15.5120
  42   2.0000      -0.561318       -15.2742
  43   2.0000      -0.560056       -15.2399
  44   2.0000      -0.535607       -14.5746
  45   2.0000      -0.520573       -14.1655
  46   2.0000      -0.518244       -14.1021
  47   2.0000      -0.511295       -13.9130
  48   2.0000      -0.509557       -13.8658
  49   2.0000      -0.502291       -13.6680
  50   2.0000      -0.490533       -13.3481
  51   2.0000      -0.474925       -12.9234
  52   2.0000      -0.474681       -12.9167
  53   2.0000      -0.470067       -12.7912
  54   2.0000      -0.459238       -12.4965
  55   2.0000      -0.450661       -12.2631
  56   2.0000      -0.448037       -12.1917
  57   2.0000      -0.436202       -11.8697
  58   2.0000      -0.431228       -11.7343
  59   2.0000      -0.422642       -11.5007
  60   2.0000      -0.415355       -11.3024
  61   2.0000      -0.413196       -11.2436
  62   2.0000      -0.407379       -11.0853
  63   2.0000      -0.356685        -9.7059
  64   2.0000      -0.331084        -9.0092
  65   2.0000      -0.328239        -8.9318
  66   2.0000      -0.290117        -7.8945
  67   0.0000       0.034063         0.9269
  68   0.0000       0.071474         1.9449
  69   0.0000       0.111355         3.0301
  70   0.0000       0.118040         3.2120
  71   0.0000       0.135335         3.6827

MULLIKEN ATOMIC CHARGES
-----------------------
   0 S :    0.098261
   1 C :   -0.124506
   2 C :   -0.052795
   3 C :   -0.014299
   4 C :   -0.103980
   5 H :    0.032474
   6 C :    0.084871
   7 H :    0.024770
   8 H :   -0.016529
   9 C :   -0.076138
  10 H :    0.033904
  11 H :    0.034132
  12 C :   -0.089085
  13 H :    0.037206
  14 H :    0.047934
  15 H :    0.042863
  16 S :    0.099999
  17 C :   -0.080143
  18 C :   -0.047179
  19 C :   -0.093330
  20 C :   -0.156631
  21 H :    0.032625
  22 C :    0.110955
  23 H :    0.037693
  24 H :    0.021580
  25 C :   -0.113800
  26 H :    0.026922
  27 H :    0.025639
  28 C :   -0.010762
  29 H :    0.040937
  30 H :    0.014014
  31 H :    0.029772
  32 H :    0.056398
  33 H :    0.046227
Sum of atomic charges:   -0.0000000

LOEWDIN ATOMIC CHARGES
----------------------
   0 S :    0.427933
   1 C :   -0.195342
   2 C :   -0.058016
   3 C :   -0.065938
   4 C :   -0.201354
   5 H :    0.036163
   6 C :   -0.041732
   7 H :    0.031258
   8 H :    0.022186
   9 C :   -0.042629
  10 H :    0.024100
  11 H :    0.027151
  12 C :   -0.072565
  13 H :    0.022614
  14 H :    0.032023
  15 H :    0.034920
  16 S :    0.417693
  17 C :   -0.187616
  18 C :   -0.076772
  19 C :   -0.057784
  20 C :   -0.197541
  21 H :    0.033615
  22 C :   -0.026288
  23 H :    0.032828
  24 H :    0.014723
  25 C :   -0.050278
  26 H :    0.027745
  27 H :    0.022494
  28 C :   -0.064970
  29 H :    0.030107
  30 H :    0.019906
  31 H :    0.030624
  32 H :    0.029814
  33 H :    0.020930

  Mayer bond orders larger than 0.100000
B(  0-S ,  1-C ) :   1.1507 B(  0-S ,  4-C ) :   1.1474 B(  1-C ,  2-C ) :   1.5885
B(  1-C , 32-H ) :   0.9768 B(  2-C ,  3-C ) :   1.2513 B(  2-C ,  6-C ) :   1.0123
B(  3-C ,  4-C ) :   1.5775 B(  3-C ,  5-H ) :   0.9829 B(  4-C , 20-C ) :   1.0210
B(  6-C ,  7-H ) :   0.9397 B(  6-C ,  8-H ) :   0.9330 B(  6-C ,  9-C ) :   1.0623
B(  9-C , 10-H ) :   0.9550 B(  9-C , 11-H ) :   0.9546 B(  9-C , 12-C ) :   1.0797
B( 12-C , 13-H ) :   0.9749 B( 12-C , 14-H ) :   0.9747 B( 12-C , 15-H ) :   0.9738
B( 16-S , 17-C ) :   1.1770 B( 16-S , 20-C ) :   1.1291 B( 17-C , 18-C ) :   1.5912
B( 17-C , 33-H ) :   0.9747 B( 18-C , 19-C ) :   1.2422 B( 18-C , 21-H ) :   0.9827
B( 19-C , 20-C ) :   1.6175 B( 19-C , 22-C ) :   1.0189 B( 22-C , 23-H ) :   0.9285
B( 22-C , 24-H ) :   0.9319 B( 22-C , 25-C ) :   1.0564 B( 25-C , 26-H ) :   0.9542
B( 25-C , 27-H ) :   0.9572 B( 25-C , 28-C ) :   1.0864 B( 28-C , 29-H ) :   0.9737
B( 28-C , 30-H ) :   0.9727 B( 28-C , 31-H ) :   0.9713

Dispersion correction           -0.013256629
FINAL SINGLE POINT ENERGY     -1339.874589221705

DIPOLE MOMENT
-------------
                                X             Y             Z
Electronic contribution:     -6.02199      -5.88560     -10.43734
Nuclear contribution   :      6.18780       5.84230      10.66882
                        -----------------------------------------
Total Dipole Moment    :      0.16581      -0.04330       0.23148
                        -----------------------------------------
Magnitude (a.u.)       :      0.28801
Magnitude (Debye)      :      0.73206

Rotational constants in cm-1:     0.023187     0.006929     0.005664
Rotational constants in MHz :   695.135512   207.724398   169.810095

                             ****ORCA TERMINATED NORMALLY****
TOTAL RUN TIME: 0 days 0 hours 0 minutes 31 seconds 563 msec
