                         Program Version 4.2.1 -  RELEASE  -
|  1> ! wB97X-D3 SP def2-SVP
|  2> %pal
|  3> nprocs 16
|  4> end
|  5>
|  6> * xyz 0 1
|  7> S 	 -21.8916 	 34.6712 	 40.1472
|  8> C 	 -20.4538 	 33.7781 	 40.3575
|  9> C 	 -20.414 	 33.0584 	 41.5135
| 10> C 	 -21.6299 	 33.1417 	 42.2309
| 11> C 	 -22.6059 	 33.8718 	 41.5868
| 12> H 	 -21.8379 	 32.6213 	 43.1237
| 13> C 	 -19.3607 	 32.0873 	 41.958
| 14> H 	 -18.4034 	 32.372 	 41.5149
| 15> H 	 -19.5776 	 31.1158 	 41.6054
| 16> C 	 -19.1598 	 31.9212 	 43.5025
| 17> H 	 -19.015 	 32.9234 	 43.8702
| 18> H 	 -20.0895 	 31.6852 	 44.0224
| 19> C 	 -17.9549 	 31.097 	 43.88
| 20> H 	 -17.1935 	 31.2286 	 43.1392
| 21> H 	 -17.4632 	 31.4488 	 44.7088
| 22> H 	 -18.2141 	 30.0704 	 43.9315
| 23> S 	 -25.2824 	 33.3603 	 41.0761
| 24> C 	 -26.4479 	 33.9663 	 42.2758
| 25> C 	 -25.8431 	 34.6108 	 43.3681
| 26> C 	 -24.42 	 34.7265 	 43.1942
| 27> C 	 -23.9336 	 34.1099 	 42.0031
| 28> H 	 -26.5376 	 34.9734 	 44.0737
| 29> C 	 -23.5216 	 35.4021 	 44.2304
| 30> H 	 -23.9224 	 36.3939 	 44.3632
| 31> H 	 -22.513 	 35.4103 	 43.8811
| 32> C 	 -23.5536 	 34.6585 	 45.615
| 33> H 	 -22.9654 	 33.6825 	 45.4861
| 34> H 	 -24.5853 	 34.4836 	 45.9668
| 35> C 	 -22.8246 	 35.3816 	 46.7622
| 36> H 	 -23.3573 	 36.3458 	 46.8962
| 37> H 	 -21.7501 	 35.4114 	 46.5698
| 38> H 	 -23.1053 	 34.8292 	 47.6335
| 39> H 	 -19.5336 	 33.8192 	 39.8101
| 40> H 	 -27.4572 	 33.7022 	 42.3301
| 41> *
| 42>
| 43>                          ****END OF INPUT****

CARTESIAN COORDINATES (ANGSTROEM)
---------------------------------
  S    -21.891600   34.671200   40.147200
  C    -20.453800   33.778100   40.357500
  C    -20.414000   33.058400   41.513500
  C    -21.629900   33.141700   42.230900
  C    -22.605900   33.871800   41.586800
  H    -21.837900   32.621300   43.123700
  C    -19.360700   32.087300   41.958000
  H    -18.403400   32.372000   41.514900
  H    -19.577600   31.115800   41.605400
  C    -19.159800   31.921200   43.502500
  H    -19.015000   32.923400   43.870200
  H    -20.089500   31.685200   44.022400
  C    -17.954900   31.097000   43.880000
  H    -17.193500   31.228600   43.139200
  H    -17.463200   31.448800   44.708800
  H    -18.214100   30.070400   43.931500
  S    -25.282400   33.360300   41.076100
  C    -26.447900   33.966300   42.275800
  C    -25.843100   34.610800   43.368100
  C    -24.420000   34.726500   43.194200
  C    -23.933600   34.109900   42.003100
  H    -26.537600   34.973400   44.073700
  C    -23.521600   35.402100   44.230400
  H    -23.922400   36.393900   44.363200
  H    -22.513000   35.410300   43.881100
  C    -23.553600   34.658500   45.615000
  H    -22.965400   33.682500   45.486100
  H    -24.585300   34.483600   45.966800
  C    -22.824600   35.381600   46.762200
  H    -23.357300   36.345800   46.896200
  H    -21.750100   35.411400   46.569800
  H    -23.105300   34.829200   47.633500
  H    -19.533600   33.819200   39.810100
  H    -27.457200   33.702200   42.330100

 Total Charge           Charge          ....    0
 Multiplicity           Mult            ....    1
 Number of Electrons    NEL             ....  134
 Basis Dimension        Dim             ....  322

ORBITAL ENERGIES
----------------

  NO   OCC          E(Eh)            E(eV)
   0   2.0000     -88.966092     -2420.8904
   1   2.0000     -88.965516     -2420.8748
   2   2.0000     -10.326886      -281.0088
   3   2.0000     -10.325334      -280.9666
   4   2.0000     -10.317940      -280.7654
   5   2.0000     -10.311628      -280.5937
   6   2.0000     -10.306205      -280.4461
   7   2.0000     -10.295838      -280.1640
   8   2.0000     -10.294102      -280.1168
   9   2.0000     -10.291883      -280.0564
  10   2.0000     -10.289176      -279.9827
  11   2.0000     -10.288932      -279.9761
  12   2.0000     -10.288624      -279.9677
  13   2.0000     -10.284854      -279.8651
  14   2.0000     -10.278701      -279.6977
  15   2.0000     -10.268239      -279.4130
  16   2.0000      -8.080346      -219.8774
  17   2.0000      -8.079495      -219.8542
  18   2.0000      -6.038805      -164.3242
  19   2.0000      -6.038037      -164.3033
  20   2.0000      -6.034911      -164.2183
  21   2.0000      -6.034224      -164.1996
  22   2.0000      -6.031060      -164.1135
  23   2.0000      -6.030273      -164.0921
  24   2.0000      -1.004075       -27.3223
  25   2.0000      -0.975975       -26.5576
  26   2.0000      -0.913451       -24.8563
  27   2.0000      -0.902535       -24.5592
  28   2.0000      -0.875201       -23.8154
  29   2.0000      -0.854891       -23.2628
  30   2.0000      -0.847605       -23.0645
  31   2.0000      -0.816554       -22.2196
  32   2.0000      -0.785302       -21.3691
  33   2.0000      -0.769540       -20.9403
  34   2.0000      -0.718048       -19.5391
  35   2.0000      -0.698744       -19.0138
  36   2.0000      -0.686760       -18.6877
  37   2.0000      -0.656903       -17.8752
  38   2.0000      -0.642149       -17.4738
  39   2.0000      -0.625857       -17.0304
  40   2.0000      -0.592302       -16.1173
  41   2.0000      -0.576185       -15.6788
  42   2.0000      -0.571292       -15.5457
  43   2.0000      -0.564370       -15.3573
  44   2.0000      -0.532398       -14.4873
  45   2.0000      -0.528042       -14.3688
  46   2.0000      -0.516256       -14.0480
  47   2.0000      -0.507122       -13.7995
  48   2.0000      -0.506337       -13.7781
  49   2.0000      -0.500332       -13.6147
  50   2.0000      -0.496203       -13.5024
  51   2.0000      -0.477180       -12.9847
  52   2.0000      -0.474319       -12.9069
  53   2.0000      -0.471835       -12.8393
  54   2.0000      -0.464047       -12.6274
  55   2.0000      -0.447267       -12.1708
  56   2.0000      -0.441649       -12.0179
  57   2.0000      -0.433880       -11.8065
  58   2.0000      -0.431339       -11.7373
  59   2.0000      -0.425173       -11.5695
  60   2.0000      -0.421846       -11.4790
  61   2.0000      -0.418611       -11.3910
  62   2.0000      -0.413586       -11.2542
  63   2.0000      -0.341244        -9.2857
  64   2.0000      -0.328975        -8.9519
  65   2.0000      -0.325272        -8.8511
  66   2.0000      -0.294651        -8.0179
  67   0.0000       0.032043         0.8719
  68   0.0000       0.057078         1.5532
  69   0.0000       0.113542         3.0896
  70   0.0000       0.117152         3.1879
  71   0.0000       0.127845         3.4788

MULLIKEN ATOMIC CHARGES
-----------------------
   0 S :    0.124739
   1 C :   -0.091099
   2 C :   -0.088377
   3 C :    0.051433
   4 C :   -0.179573
   5 H :   -0.007902
   6 C :    0.084838
   7 H :    0.009975
   8 H :    0.034082
   9 C :   -0.128916
  10 H :    0.013007
  11 H :    0.030281
  12 C :    0.042603
  13 H :    0.007183
  14 H :    0.012646
  15 H :    0.033537
  16 S :    0.104475
  17 C :   -0.077845
  18 C :   -0.042326
  19 C :   -0.005782
  20 C :   -0.172478
  21 H :    0.012035
  22 C :    0.119663
  23 H :    0.023973
  24 H :    0.024099
  25 C :   -0.159786
  26 H :    0.036399
  27 H :    0.035463
  28 C :   -0.019213
  29 H :    0.027567
  30 H :    0.046919
  31 H :    0.028779
  32 H :    0.029102
  33 H :    0.040499
Sum of atomic charges:    0.0000000

LOEWDIN ATOMIC CHARGES
----------------------
   0 S :    0.408693
   1 C :   -0.205476
   2 C :   -0.071467
   3 C :   -0.045223
   4 C :   -0.188500
   5 H :    0.023215
   6 C :   -0.024285
   7 H :    0.026419
   8 H :    0.026986
   9 C :   -0.043330
  10 H :    0.020237
  11 H :    0.020666
  12 C :   -0.051046
  13 H :    0.026407
  14 H :    0.019720
  15 H :    0.025015
  16 S :    0.379298
  17 C :   -0.163428
  18 C :   -0.068205
  19 C :   -0.037121
  20 C :   -0.200497
  21 H :    0.027911
  22 C :   -0.026289
  23 H :    0.029254
  24 H :    0.026446
  25 C :   -0.043190
  26 H :    0.027587
  27 H :    0.021993
  28 C :   -0.065443
  29 H :    0.026866
  30 H :    0.027240
  31 H :    0.024932
  32 H :    0.027204
  33 H :    0.017410

  Mayer bond orders larger than 0.100000
B(  0-S ,  1-C ) :   1.1403 B(  0-S ,  4-C ) :   1.1322 B(  1-C ,  2-C ) :   1.6333
B(  1-C , 32-H ) :   0.9602 B(  2-C ,  3-C ) :   1.2371 B(  2-C ,  6-C ) :   1.0277
B(  3-C ,  4-C ) :   1.5741 B(  3-C ,  5-H ) :   1.0052 B(  4-C , 20-C ) :   1.0740
B(  6-C ,  7-H ) :   0.9341 B(  6-C ,  8-H ) :   0.9398 B(  6-C ,  9-C ) :   1.0609
B(  9-C , 10-H ) :   0.9597 B(  9-C , 11-H ) :   0.9510 B(  9-C , 12-C ) :   1.0854
B( 12-C , 13-H ) :   0.9665 B( 12-C , 14-H ) :   0.9692 B( 12-C , 15-H ) :   0.9749
B( 16-S , 17-C ) :   1.1546 B( 16-S , 20-C ) :   1.1210 B( 17-C , 18-C ) :   1.6333
B( 17-C , 20-C ) :   0.1046 B( 17-C , 33-H ) :   0.9676 B( 18-C , 19-C ) :   1.2080
B( 18-C , 21-H ) :   0.9953 B( 19-C , 20-C ) :   1.5814 B( 19-C , 22-C ) :   1.0523
B( 22-C , 23-H ) :   0.9298 B( 22-C , 24-H ) :   0.9301 B( 22-C , 25-C ) :   1.0607
B( 25-C , 26-H ) :   0.9543 B( 25-C , 27-H ) :   0.9603 B( 25-C , 28-C ) :   1.0860
B( 28-C , 29-H ) :   0.9718 B( 28-C , 30-H ) :   0.9757 B( 28-C , 31-H ) :   0.9734

Dispersion correction           -0.014050543
FINAL SINGLE POINT ENERGY     -1339.864691029397

DIPOLE MOMENT
-------------
                                X             Y             Z
Electronic contribution:    -17.36173       4.78036     -25.77739
Nuclear contribution   :     17.63899      -4.94192      26.51869
                        -----------------------------------------
Total Dipole Moment    :      0.27726      -0.16156       0.74129
                        -----------------------------------------
Magnitude (a.u.)       :      0.80777
Magnitude (Debye)      :      2.05319

Rotational constants in cm-1:     0.015813     0.009274     0.006781
Rotational constants in MHz :   474.072416   278.031218   203.290671

                             ****ORCA TERMINATED NORMALLY****
TOTAL RUN TIME: 0 days 0 hours 0 minutes 33 seconds 136 msec
