                         Program Version 4.2.1 -  RELEASE  -
|  1> ! wB97X-D3 SP def2-SVP
|  2> %pal
|  3> nprocs 16
|  4> end
|  5>
|  6> * xyz 0 1
|  7> S 	 1.54895 	 -28.1275 	 65.8794
|  8> C 	 -0.104237 	 -28.5224 	 66.2802
|  9> C 	 -0.954084 	 -28.3623 	 65.2125
| 10> C 	 -0.269797 	 -27.8999 	 64.06
| 11> C 	 1.06682 	 -27.6822 	 64.2811
| 12> H 	 -0.693679 	 -27.7541 	 63.0764
| 13> C 	 -2.4834 	 -28.4912 	 65.2114
| 14> H 	 -2.80717 	 -28.074 	 66.1561
| 15> H 	 -2.68085 	 -29.5603 	 65.2904
| 16> C 	 -3.36378 	 -27.8194 	 64.1119
| 17> H 	 -3.06506 	 -28.3302 	 63.0877
| 18> H 	 -4.41988 	 -28.0667 	 64.1473
| 19> C 	 -3.39064 	 -26.2324 	 64.2329
| 20> H 	 -4.13046 	 -25.9781 	 65.006
| 21> H 	 -2.44109 	 -25.7829 	 64.4338
| 22> H 	 -3.72852 	 -25.6748 	 63.2884
| 23> S 	 3.14073 	 -28.5355 	 62.7919
| 24> C 	 3.53864 	 -27.6439 	 61.3869
| 25> C 	 2.83946 	 -26.4459 	 61.2626
| 26> C 	 1.87006 	 -26.3426 	 62.2611
| 27> C 	 1.93795 	 -27.3502 	 63.2193
| 28> H 	 3.08905 	 -25.7885 	 60.4289
| 29> C 	 1.03452 	 -25.0859 	 62.4406
| 30> H 	 0.619638 	 -24.9385 	 63.4235
| 31> H 	 0.176122 	 -25.2698 	 61.8373
| 32> C 	 1.63231 	 -23.7523 	 62.0347
| 33> H 	 0.805449 	 -23.0945 	 61.772
| 34> H 	 2.20002 	 -23.8558 	 61.1555
| 35> C 	 2.50514 	 -23.1517 	 63.1554
| 36> H 	 3.20651 	 -23.9179 	 63.5176
| 37> H 	 1.92683 	 -22.7498 	 63.9162
| 38> H 	 3.08257 	 -22.3253 	 62.8287
| 39> H 	 -0.441405 	 -28.7004 	 67.2885
| 40> H 	 4.31533 	 -27.8759 	 60.7094
| 41> *
| 42>
| 43>                          ****END OF INPUT****

CARTESIAN COORDINATES (ANGSTROEM)
---------------------------------
  S      1.548950  -28.127500   65.879400
  C     -0.104237  -28.522400   66.280200
  C     -0.954084  -28.362300   65.212500
  C     -0.269797  -27.899900   64.060000
  C      1.066820  -27.682200   64.281100
  H     -0.693679  -27.754100   63.076400
  C     -2.483400  -28.491200   65.211400
  H     -2.807170  -28.074000   66.156100
  H     -2.680850  -29.560300   65.290400
  C     -3.363780  -27.819400   64.111900
  H     -3.065060  -28.330200   63.087700
  H     -4.419880  -28.066700   64.147300
  C     -3.390640  -26.232400   64.232900
  H     -4.130460  -25.978100   65.006000
  H     -2.441090  -25.782900   64.433800
  H     -3.728520  -25.674800   63.288400
  S      3.140730  -28.535500   62.791900
  C      3.538640  -27.643900   61.386900
  C      2.839460  -26.445900   61.262600
  C      1.870060  -26.342600   62.261100
  C      1.937950  -27.350200   63.219300
  H      3.089050  -25.788500   60.428900
  C      1.034520  -25.085900   62.440600
  H      0.619638  -24.938500   63.423500
  H      0.176122  -25.269800   61.837300
  C      1.632310  -23.752300   62.034700
  H      0.805449  -23.094500   61.772000
  H      2.200020  -23.855800   61.155500
  C      2.505140  -23.151700   63.155400
  H      3.206510  -23.917900   63.517600
  H      1.926830  -22.749800   63.916200
  H      3.082570  -22.325300   62.828700
  H     -0.441405  -28.700400   67.288500
  H      4.315330  -27.875900   60.709400

 Total Charge           Charge          ....    0
 Multiplicity           Mult            ....    1
 Number of Electrons    NEL             ....  134
 Basis Dimension        Dim             ....  322

ORBITAL ENERGIES
----------------

  NO   OCC          E(Eh)            E(eV)
   0   2.0000     -88.967775     -2420.9362
   1   2.0000     -88.964527     -2420.8479
   2   2.0000     -10.319358      -280.8040
   3   2.0000     -10.316505      -280.7264
   4   2.0000     -10.310348      -280.5588
   5   2.0000     -10.308525      -280.5092
   6   2.0000     -10.306211      -280.4463
   7   2.0000     -10.300224      -280.2834
   8   2.0000     -10.298699      -280.2419
   9   2.0000     -10.295804      -280.1631
  10   2.0000     -10.290117      -280.0083
  11   2.0000     -10.289011      -279.9782
  12   2.0000     -10.286212      -279.9021
  13   2.0000     -10.279906      -279.7305
  14   2.0000     -10.278168      -279.6832
  15   2.0000     -10.264799      -279.3194
  16   2.0000      -8.082829      -219.9450
  17   2.0000      -8.080180      -219.8729
  18   2.0000      -6.041252      -164.3908
  19   2.0000      -6.038447      -164.3145
  20   2.0000      -6.037338      -164.2843
  21   2.0000      -6.034533      -164.2080
  22   2.0000      -6.033634      -164.1835
  23   2.0000      -6.031174      -164.1166
  24   2.0000      -1.013824       -27.5876
  25   2.0000      -0.988252       -26.8917
  26   2.0000      -0.911561       -24.8048
  27   2.0000      -0.904435       -24.6109
  28   2.0000      -0.872707       -23.7476
  29   2.0000      -0.851747       -23.1772
  30   2.0000      -0.843665       -22.9573
  31   2.0000      -0.811688       -22.0872
  32   2.0000      -0.785839       -21.3838
  33   2.0000      -0.773911       -21.0592
  34   2.0000      -0.712056       -19.3760
  35   2.0000      -0.701330       -19.0842
  36   2.0000      -0.696613       -18.9558
  37   2.0000      -0.654873       -17.8200
  38   2.0000      -0.638891       -17.3851
  39   2.0000      -0.622169       -16.9301
  40   2.0000      -0.603339       -16.4177
  41   2.0000      -0.561814       -15.2877
  42   2.0000      -0.557852       -15.1799
  43   2.0000      -0.550762       -14.9870
  44   2.0000      -0.540791       -14.7157
  45   2.0000      -0.535417       -14.5694
  46   2.0000      -0.521625       -14.1941
  47   2.0000      -0.507399       -13.8070
  48   2.0000      -0.498260       -13.5583
  49   2.0000      -0.491165       -13.3653
  50   2.0000      -0.486966       -13.2510
  51   2.0000      -0.476589       -12.9686
  52   2.0000      -0.469835       -12.7849
  53   2.0000      -0.465623       -12.6703
  54   2.0000      -0.457118       -12.4388
  55   2.0000      -0.452366       -12.3095
  56   2.0000      -0.449885       -12.2420
  57   2.0000      -0.440853       -11.9962
  58   2.0000      -0.434990       -11.8367
  59   2.0000      -0.429703       -11.6928
  60   2.0000      -0.425272       -11.5722
  61   2.0000      -0.414755       -11.2861
  62   2.0000      -0.406468       -11.0605
  63   2.0000      -0.345192        -9.3932
  64   2.0000      -0.331066        -9.0088
  65   2.0000      -0.330604        -8.9962
  66   2.0000      -0.287145        -7.8136
  67   0.0000       0.035045         0.9536
  68   0.0000       0.069067         1.8794
  69   0.0000       0.119135         3.2418
  70   0.0000       0.130513         3.5514
  71   0.0000       0.135098         3.6762

MULLIKEN ATOMIC CHARGES
-----------------------
   0 S :    0.119871
   1 C :   -0.132033
   2 C :   -0.067175
   3 C :    0.011270
   4 C :   -0.149639
   5 H :    0.015159
   6 C :    0.072637
   7 H :    0.017367
   8 H :    0.043373
   9 C :   -0.099099
  10 H :    0.045077
  11 H :    0.035534
  12 C :   -0.086063
  13 H :    0.042769
  14 H :    0.041048
  15 H :    0.044366
  16 S :    0.124658
  17 C :   -0.076848
  18 C :   -0.068355
  19 C :   -0.017656
  20 C :   -0.165523
  21 H :    0.027494
  22 C :    0.076402
  23 H :    0.021407
  24 H :    0.014390
  25 C :   -0.055857
  26 H :    0.021820
  27 H :    0.007933
  28 C :   -0.015562
  29 H :    0.042526
  30 H :    0.015853
  31 H :    0.017070
  32 H :    0.040527
  33 H :    0.035258
Sum of atomic charges:    0.0000000

LOEWDIN ATOMIC CHARGES
----------------------
   0 S :    0.417036
   1 C :   -0.201459
   2 C :   -0.059480
   3 C :   -0.058332
   4 C :   -0.207441
   5 H :    0.031985
   6 C :   -0.034353
   7 H :    0.028177
   8 H :    0.036823
   9 C :   -0.050879
  10 H :    0.032007
  11 H :    0.027845
  12 C :   -0.073499
  13 H :    0.029642
  14 H :    0.019037
  15 H :    0.036141
  16 S :    0.432351
  17 C :   -0.190944
  18 C :   -0.076853
  19 C :   -0.055483
  20 C :   -0.206678
  21 H :    0.035992
  22 C :   -0.030126
  23 H :    0.028233
  24 H :    0.028222
  25 C :   -0.033007
  26 H :    0.026154
  27 H :    0.011959
  28 C :   -0.056154
  29 H :    0.032754
  30 H :    0.015808
  31 H :    0.020590
  32 H :    0.025019
  33 H :    0.018915

  Mayer bond orders larger than 0.100000
B(  0-S ,  1-C ) :   1.1316 B(  0-S ,  4-C ) :   1.1565 B(  1-C ,  2-C ) :   1.6207
B(  1-C , 32-H ) :   0.9709 B(  2-C ,  3-C ) :   1.2548 B(  2-C ,  6-C ) :   0.9885
B(  3-C ,  4-C ) :   1.5549 B(  3-C ,  5-H ) :   0.9946 B(  4-C , 20-C ) :   1.0489
B(  6-C ,  7-H ) :   0.9445 B(  6-C ,  8-H ) :   0.9335 B(  6-C ,  9-C ) :   1.0783
B(  9-C , 10-H ) :   0.9526 B(  9-C , 11-H ) :   0.9583 B(  9-C , 12-C ) :   1.0456
B( 12-C , 13-H ) :   0.9759 B( 12-C , 14-H ) :   0.9834 B( 12-C , 15-H ) :   0.9767
B( 16-S , 17-C ) :   1.1853 B( 16-S , 20-C ) :   1.1484 B( 17-C , 18-C ) :   1.5858
B( 17-C , 20-C ) :   0.1073 B( 17-C , 33-H ) :   0.9670 B( 18-C , 19-C ) :   1.2585
B( 18-C , 21-H ) :   0.9897 B( 19-C , 20-C ) :   1.5750 B( 19-C , 22-C ) :   1.0275
B( 22-C , 23-H ) :   0.9446 B( 22-C , 24-H ) :   0.9140 B( 22-C , 25-C ) :   1.0901
B( 25-C , 26-H ) :   0.9496 B( 25-C , 27-H ) :   0.9522 B( 25-C , 28-C ) :   1.0794
B( 28-C , 29-H ) :   0.9771 B( 28-C , 30-H ) :   0.9734 B( 28-C , 31-H ) :   0.9733

Dispersion correction           -0.014851562
FINAL SINGLE POINT ENERGY     -1339.872310916951

DIPOLE MOMENT
-------------
                                X             Y             Z
Electronic contribution:     18.75036     -18.76676       4.98231
Nuclear contribution   :    -19.30991      19.11374      -5.19519
                        -----------------------------------------
Total Dipole Moment    :     -0.55954       0.34697      -0.21288
                        -----------------------------------------
Magnitude (a.u.)       :      0.69195
Magnitude (Debye)      :      1.75880

Rotational constants in cm-1:     0.017201     0.009649     0.007640
Rotational constants in MHz :   515.665382   289.275779   229.051320

                             ****ORCA TERMINATED NORMALLY****
TOTAL RUN TIME: 0 days 0 hours 0 minutes 34 seconds 647 msec
