                         Program Version 4.2.1 -  RELEASE  -
|  1> ! wB97X-D3 SP def2-SVP
|  2> %pal
|  3> nprocs 16
|  4> end
|  5>
|  6> * xyz 0 1
|  7> S 	 -11.645 	 56.4108 	 57.1381
|  8> C 	 -10.7284 	 55.8819 	 55.7132
|  9> C 	 -9.82143 	 56.9009 	 55.3627
| 10> C 	 -9.8537 	 57.9946 	 56.2308
| 11> C 	 -10.7621 	 57.8976 	 57.2546
| 12> H 	 -9.21728 	 58.8718 	 56.0925
| 13> C 	 -8.83862 	 56.7453 	 54.232
| 14> H 	 -8.96026 	 57.3877 	 53.3553
| 15> H 	 -9.12635 	 55.7532 	 53.8144
| 16> C 	 -7.34899 	 56.6777 	 54.5224
| 17> H 	 -6.82527 	 56.3351 	 53.5996
| 18> H 	 -7.01314 	 57.7299 	 54.7843
| 19> C 	 -7.01785 	 55.6543 	 55.6265
| 20> H 	 -5.93474 	 55.5178 	 55.5313
| 21> H 	 -7.28657 	 56.0762 	 56.6168
| 22> H 	 -7.38123 	 54.5746 	 55.3653
| 23> S 	 -11.1084 	 58.2501 	 59.9738
| 24> C 	 -11.3323 	 59.8149 	 60.6368
| 25> C 	 -11.531 	 60.7482 	 59.6768
| 26> C 	 -11.1665 	 60.285 	 58.3548
| 27> C 	 -10.9934 	 58.8686 	 58.3255
| 28> H 	 -11.782 	 61.7868 	 59.8857
| 29> C 	 -11.3542 	 61.1568 	 57.1334
| 30> H 	 -12.4057 	 61.1397 	 56.734
| 31> H 	 -10.7153 	 60.7878 	 56.3366
| 32> C 	 -11.0265 	 62.693 	 57.2682
| 33> H 	 -11.6938 	 63.3056 	 57.8398
| 34> H 	 -11.2349 	 63.1446 	 56.2817
| 35> C 	 -9.60786 	 62.8898 	 57.7241
| 36> H 	 -9.39367 	 63.8609 	 58.1881
| 37> H 	 -8.85134 	 62.5893 	 56.8797
| 38> H 	 -9.36365 	 62.1588 	 58.5116
| 39> H 	 -10.8015 	 54.8875 	 55.2478
| 40> H 	 -11.5965 	 60.0255 	 61.6573
| 41> *
| 42>
| 43>                          ****END OF INPUT****

CARTESIAN COORDINATES (ANGSTROEM)
---------------------------------
  S    -11.645000   56.410800   57.138100
  C    -10.728400   55.881900   55.713200
  C     -9.821430   56.900900   55.362700
  C     -9.853700   57.994600   56.230800
  C    -10.762100   57.897600   57.254600
  H     -9.217280   58.871800   56.092500
  C     -8.838620   56.745300   54.232000
  H     -8.960260   57.387700   53.355300
  H     -9.126350   55.753200   53.814400
  C     -7.348990   56.677700   54.522400
  H     -6.825270   56.335100   53.599600
  H     -7.013140   57.729900   54.784300
  C     -7.017850   55.654300   55.626500
  H     -5.934740   55.517800   55.531300
  H     -7.286570   56.076200   56.616800
  H     -7.381230   54.574600   55.365300
  S    -11.108400   58.250100   59.973800
  C    -11.332300   59.814900   60.636800
  C    -11.531000   60.748200   59.676800
  C    -11.166500   60.285000   58.354800
  C    -10.993400   58.868600   58.325500
  H    -11.782000   61.786800   59.885700
  C    -11.354200   61.156800   57.133400
  H    -12.405700   61.139700   56.734000
  H    -10.715300   60.787800   56.336600
  C    -11.026500   62.693000   57.268200
  H    -11.693800   63.305600   57.839800
  H    -11.234900   63.144600   56.281700
  C     -9.607860   62.889800   57.724100
  H     -9.393670   63.860900   58.188100
  H     -8.851340   62.589300   56.879700
  H     -9.363650   62.158800   58.511600
  H    -10.801500   54.887500   55.247800
  H    -11.596500   60.025500   61.657300

 Total Charge           Charge          ....    0
 Multiplicity           Mult            ....    1
 Number of Electrons    NEL             ....  134
 Basis Dimension        Dim             ....  322

ORBITAL ENERGIES
----------------

  NO   OCC          E(Eh)            E(eV)
   0   2.0000     -88.969425     -2420.9811
   1   2.0000     -88.966467     -2420.9006
   2   2.0000     -10.334198      -281.2078
   3   2.0000     -10.331427      -281.1324
   4   2.0000     -10.320962      -280.8476
   5   2.0000     -10.312886      -280.6279
   6   2.0000     -10.310700      -280.5684
   7   2.0000     -10.301633      -280.3217
   8   2.0000     -10.297437      -280.2075
   9   2.0000     -10.293930      -280.1121
  10   2.0000     -10.293201      -280.0922
  11   2.0000     -10.290865      -280.0287
  12   2.0000     -10.288974      -279.9772
  13   2.0000     -10.287786      -279.9449
  14   2.0000     -10.284844      -279.8648
  15   2.0000     -10.282448      -279.7996
  16   2.0000      -8.083870      -219.9733
  17   2.0000      -8.081664      -219.9133
  18   2.0000      -6.042379      -164.4215
  19   2.0000      -6.040209      -164.3624
  20   2.0000      -6.038307      -164.3107
  21   2.0000      -6.036043      -164.2491
  22   2.0000      -6.034749      -164.2139
  23   2.0000      -6.032417      -164.1504
  24   2.0000      -1.008606       -27.4456
  25   2.0000      -0.987323       -26.8664
  26   2.0000      -0.912405       -24.8278
  27   2.0000      -0.908261       -24.7150
  28   2.0000      -0.869012       -23.6470
  29   2.0000      -0.849526       -23.1168
  30   2.0000      -0.842691       -22.9308
  31   2.0000      -0.816415       -22.2158
  32   2.0000      -0.781110       -21.2551
  33   2.0000      -0.769156       -20.9298
  34   2.0000      -0.710587       -19.3360
  35   2.0000      -0.697131       -18.9699
  36   2.0000      -0.686811       -18.6891
  37   2.0000      -0.653346       -17.7785
  38   2.0000      -0.636912       -17.3313
  39   2.0000      -0.625518       -17.0212
  40   2.0000      -0.599040       -16.3007
  41   2.0000      -0.567897       -15.4533
  42   2.0000      -0.554422       -15.0866
  43   2.0000      -0.549909       -14.9638
  44   2.0000      -0.543976       -14.8023
  45   2.0000      -0.530038       -14.4231
  46   2.0000      -0.518867       -14.1191
  47   2.0000      -0.506803       -13.7908
  48   2.0000      -0.503038       -13.6884
  49   2.0000      -0.496598       -13.5131
  50   2.0000      -0.491994       -13.3878
  51   2.0000      -0.478163       -13.0115
  52   2.0000      -0.468472       -12.7478
  53   2.0000      -0.464677       -12.6445
  54   2.0000      -0.462014       -12.5720
  55   2.0000      -0.448570       -12.2062
  56   2.0000      -0.445126       -12.1125
  57   2.0000      -0.431937       -11.7536
  58   2.0000      -0.425122       -11.5682
  59   2.0000      -0.422056       -11.4847
  60   2.0000      -0.418749       -11.3948
  61   2.0000      -0.412746       -11.2314
  62   2.0000      -0.405661       -11.0386
  63   2.0000      -0.350761        -9.5447
  64   2.0000      -0.334936        -9.1141
  65   2.0000      -0.329593        -8.9687
  66   2.0000      -0.290443        -7.9034
  67   0.0000       0.024570         0.6686
  68   0.0000       0.070702         1.9239
  69   0.0000       0.110799         3.0150
  70   0.0000       0.121126         3.2960
  71   0.0000       0.128614         3.4998

MULLIKEN ATOMIC CHARGES
-----------------------
   0 S :    0.113898
   1 C :   -0.141021
   2 C :   -0.078862
   3 C :    0.020004
   4 C :   -0.135818
   5 H :    0.016525
   6 C :    0.064307
   7 H :    0.036000
   8 H :   -0.000127
   9 C :   -0.106065
  10 H :    0.036682
  11 H :    0.039587
  12 C :   -0.075118
  13 H :    0.030918
  14 H :    0.063313
  15 H :    0.040324
  16 S :    0.107406
  17 C :   -0.064674
  18 C :   -0.036127
  19 C :   -0.056563
  20 C :   -0.147511
  21 H :    0.026355
  22 C :    0.043178
  23 H :    0.056949
  24 H :    0.018555
  25 C :   -0.070301
  26 H :    0.018184
  27 H :    0.026500
  28 C :   -0.083304
  29 H :    0.038711
  30 H :    0.038799
  31 H :    0.039486
  32 H :    0.064745
  33 H :    0.055066
Sum of atomic charges:   -0.0000000

LOEWDIN ATOMIC CHARGES
----------------------
   0 S :    0.410750
   1 C :   -0.196369
   2 C :   -0.063505
   3 C :   -0.070580
   4 C :   -0.197903
   5 H :    0.033178
   6 C :   -0.044368
   7 H :    0.031181
   8 H :    0.028305
   9 C :   -0.047936
  10 H :    0.029603
  11 H :    0.026571
  12 C :   -0.077127
  13 H :    0.025152
  14 H :    0.033547
  15 H :    0.036017
  16 S :    0.417332
  17 C :   -0.194685
  18 C :   -0.069010
  19 C :   -0.058459
  20 C :   -0.193216
  21 H :    0.033067
  22 C :   -0.033060
  23 H :    0.044001
  24 H :    0.028427
  25 C :   -0.051567
  26 H :    0.016909
  27 H :    0.029133
  28 C :   -0.079872
  29 H :    0.026077
  30 H :    0.035510
  31 H :    0.027137
  32 H :    0.035419
  33 H :    0.030342

  Mayer bond orders larger than 0.100000
B(  0-S ,  1-C ) :   1.1409 B(  0-S ,  4-C ) :   1.1677 B(  1-C ,  2-C ) :   1.5706
B(  1-C ,  4-C ) :   0.1050 B(  1-C , 32-H ) :   0.9638 B(  2-C ,  3-C ) :   1.2791
B(  2-C ,  6-C ) :   1.0254 B(  3-C ,  4-C ) :   1.5440 B(  3-C ,  5-H ) :   0.9936
B(  4-C , 20-C ) :   1.0441 B(  6-C ,  7-H ) :   0.9394 B(  6-C ,  8-H ) :   0.9336
B(  6-C ,  9-C ) :   1.0776 B(  9-C , 10-H ) :   0.9555 B(  9-C , 11-H ) :   0.9515
B(  9-C , 12-C ) :   1.0755 B( 12-C , 13-H ) :   0.9747 B( 12-C , 14-H ) :   0.9702
B( 12-C , 15-H ) :   0.9723 B( 16-S , 17-C ) :   1.1589 B( 16-S , 20-C ) :   1.1506
B( 17-C , 18-C ) :   1.6149 B( 17-C , 33-H ) :   0.9624 B( 18-C , 19-C ) :   1.2439
B( 18-C , 21-H ) :   0.9831 B( 19-C , 20-C ) :   1.5617 B( 19-C , 22-C ) :   1.0510
B( 22-C , 23-H ) :   0.9348 B( 22-C , 24-H ) :   0.9360 B( 22-C , 25-C ) :   1.0710
B( 25-C , 26-H ) :   0.9532 B( 25-C , 27-H ) :   0.9523 B( 25-C , 28-C ) :   1.0692
B( 28-C , 29-H ) :   0.9745 B( 28-C , 30-H ) :   0.9712 B( 28-C , 31-H ) :   0.9736

Dispersion correction           -0.014488393
FINAL SINGLE POINT ENERGY     -1339.878161280201

DIPOLE MOMENT
-------------
                                X             Y             Z
Electronic contribution:    -16.03668     -11.77350      14.59212
Nuclear contribution   :     16.19551      12.16029     -14.92088
                        -----------------------------------------
Total Dipole Moment    :      0.15882       0.38679      -0.32877
                        -----------------------------------------
Magnitude (a.u.)       :      0.53190
Magnitude (Debye)      :      1.35198

Rotational constants in cm-1:     0.019232     0.008474     0.006921
Rotational constants in MHz :   576.550834   254.036152   207.478301

                             ****ORCA TERMINATED NORMALLY****
TOTAL RUN TIME: 0 days 0 hours 0 minutes 34 seconds 548 msec
