                         Program Version 4.2.1 -  RELEASE  -
|  1> ! wB97X-D3 SP def2-SVP
|  2> %pal
|  3> nprocs 16
|  4> end
|  5>
|  6> * xyz 0 1
|  7> S 	 -1.08489 	 -12.7532 	 86.3914
|  8> C 	 -2.41488 	 -13.6947 	 85.7351
|  9> C 	 -2.23657 	 -14.0504 	 84.4276
| 10> C 	 -0.949942 	 -13.5763 	 83.9379
| 11> C 	 -0.207367 	 -12.9186 	 84.902
| 12> H 	 -0.610072 	 -13.61 	 82.9078
| 13> C 	 -3.24724 	 -14.8209 	 83.5801
| 14> H 	 -3.22305 	 -15.8606 	 83.9567
| 15> H 	 -2.79628 	 -14.7871 	 82.6107
| 16> C 	 -4.67598 	 -14.2644 	 83.6689
| 17> H 	 -4.98711 	 -14.2439 	 84.7176
| 18> H 	 -4.67869 	 -13.2586 	 83.4252
| 19> C 	 -5.71215 	 -15.152 	 82.9082
| 20> H 	 -6.68683 	 -14.924 	 83.366
| 21> H 	 -5.84166 	 -15.0439 	 81.859
| 22> H 	 -5.41165 	 -16.2027 	 83.0017
| 23> S 	 2.12535 	 -12.8009 	 86.183
| 24> C 	 3.3361 	 -11.7458 	 85.5099
| 25> C 	 3.03693 	 -11.2937 	 84.2243
| 26> C 	 1.79877 	 -11.7951 	 83.7301
| 27> C 	 1.11715 	 -12.4159 	 84.7802
| 28> H 	 3.64771 	 -10.5687 	 83.7094
| 29> C 	 1.31254 	 -11.3488 	 82.3433
| 30> H 	 1.2941 	 -10.2912 	 82.4359
| 31> H 	 0.227005 	 -11.5099 	 82.2217
| 32> C 	 2.14655 	 -11.8208 	 81.222
| 33> H 	 3.1844 	 -11.5661 	 81.4723
| 34> H 	 1.93637 	 -11.1761 	 80.3167
| 35> C 	 2.09104 	 -13.2479 	 80.9366
| 36> H 	 2.20393 	 -13.8454 	 81.8159
| 37> H 	 2.86148 	 -13.468 	 80.2139
| 38> H 	 1.21423 	 -13.6186 	 80.4269
| 39> H 	 -3.18256 	 -13.9642 	 86.3979
| 40> H 	 4.23957 	 -11.5473 	 86.0238
| 41> *
| 42>
| 43>                          ****END OF INPUT****

CARTESIAN COORDINATES (ANGSTROEM)
---------------------------------
  S     -1.084890  -12.753200   86.391400
  C     -2.414880  -13.694700   85.735100
  C     -2.236570  -14.050400   84.427600
  C     -0.949942  -13.576300   83.937900
  C     -0.207367  -12.918600   84.902000
  H     -0.610072  -13.610000   82.907800
  C     -3.247240  -14.820900   83.580100
  H     -3.223050  -15.860600   83.956700
  H     -2.796280  -14.787100   82.610700
  C     -4.675980  -14.264400   83.668900
  H     -4.987110  -14.243900   84.717600
  H     -4.678690  -13.258600   83.425200
  C     -5.712150  -15.152000   82.908200
  H     -6.686830  -14.924000   83.366000
  H     -5.841660  -15.043900   81.859000
  H     -5.411650  -16.202700   83.001700
  S      2.125350  -12.800900   86.183000
  C      3.336100  -11.745800   85.509900
  C      3.036930  -11.293700   84.224300
  C      1.798770  -11.795100   83.730100
  C      1.117150  -12.415900   84.780200
  H      3.647710  -10.568700   83.709400
  C      1.312540  -11.348800   82.343300
  H      1.294100  -10.291200   82.435900
  H      0.227005  -11.509900   82.221700
  C      2.146550  -11.820800   81.222000
  H      3.184400  -11.566100   81.472300
  H      1.936370  -11.176100   80.316700
  C      2.091040  -13.247900   80.936600
  H      2.203930  -13.845400   81.815900
  H      2.861480  -13.468000   80.213900
  H      1.214230  -13.618600   80.426900
  H     -3.182560  -13.964200   86.397900
  H      4.239570  -11.547300   86.023800

 Total Charge           Charge          ....    0
 Multiplicity           Mult            ....    1
 Number of Electrons    NEL             ....  134
 Basis Dimension        Dim             ....  322

ORBITAL ENERGIES
----------------

  NO   OCC          E(Eh)            E(eV)
   0   2.0000     -88.966114     -2420.8910
   1   2.0000     -88.962107     -2420.7820
   2   2.0000     -10.323888      -280.9273
   3   2.0000     -10.321282      -280.8564
   4   2.0000     -10.312572      -280.6194
   5   2.0000     -10.304977      -280.4127
   6   2.0000     -10.304917      -280.4110
   7   2.0000     -10.299709      -280.2693
   8   2.0000     -10.293993      -280.1138
   9   2.0000     -10.291693      -280.0512
  10   2.0000     -10.291680      -280.0508
  11   2.0000     -10.289325      -279.9868
  12   2.0000     -10.285634      -279.8863
  13   2.0000     -10.284680      -279.8604
  14   2.0000     -10.279068      -279.7077
  15   2.0000     -10.267833      -279.4020
  16   2.0000      -8.080846      -219.8910
  17   2.0000      -8.077246      -219.7931
  18   2.0000      -6.039208      -164.3352
  19   2.0000      -6.035696      -164.2396
  20   2.0000      -6.035563      -164.2360
  21   2.0000      -6.031761      -164.1326
  22   2.0000      -6.031553      -164.1269
  23   2.0000      -6.027987      -164.0299
  24   2.0000      -1.007182       -27.4068
  25   2.0000      -0.980573       -26.6827
  26   2.0000      -0.924790       -25.1648
  27   2.0000      -0.910237       -24.7688
  28   2.0000      -0.867695       -23.6112
  29   2.0000      -0.857935       -23.3456
  30   2.0000      -0.844244       -22.9730
  31   2.0000      -0.809707       -22.0332
  32   2.0000      -0.790728       -21.5168
  33   2.0000      -0.772886       -21.0313
  34   2.0000      -0.713951       -19.4276
  35   2.0000      -0.704933       -19.1822
  36   2.0000      -0.692433       -18.8421
  37   2.0000      -0.663708       -18.0604
  38   2.0000      -0.642316       -17.4783
  39   2.0000      -0.615707       -16.7542
  40   2.0000      -0.601176       -16.3588
  41   2.0000      -0.569281       -15.4909
  42   2.0000      -0.563295       -15.3280
  43   2.0000      -0.556789       -15.1510
  44   2.0000      -0.541739       -14.7415
  45   2.0000      -0.529549       -14.4098
  46   2.0000      -0.522806       -14.2263
  47   2.0000      -0.512073       -13.9342
  48   2.0000      -0.504292       -13.7225
  49   2.0000      -0.495379       -13.4799
  50   2.0000      -0.490088       -13.3360
  51   2.0000      -0.476589       -12.9686
  52   2.0000      -0.472925       -12.8689
  53   2.0000      -0.468163       -12.7394
  54   2.0000      -0.457373       -12.4457
  55   2.0000      -0.452261       -12.3066
  56   2.0000      -0.449329       -12.2269
  57   2.0000      -0.440557       -11.9882
  58   2.0000      -0.437762       -11.9121
  59   2.0000      -0.423778       -11.5316
  60   2.0000      -0.420779       -11.4500
  61   2.0000      -0.417720       -11.3668
  62   2.0000      -0.412312       -11.2196
  63   2.0000      -0.346720        -9.4347
  64   2.0000      -0.333886        -9.0855
  65   2.0000      -0.326668        -8.8891
  66   2.0000      -0.281770        -7.6673
  67   0.0000       0.026181         0.7124
  68   0.0000       0.075067         2.0427
  69   0.0000       0.105622         2.8741
  70   0.0000       0.117235         3.1901
  71   0.0000       0.131012         3.5650

MULLIKEN ATOMIC CHARGES
-----------------------
   0 S :    0.106219
   1 C :   -0.142095
   2 C :   -0.090599
   3 C :    0.013398
   4 C :   -0.143512
   5 H :    0.005023
   6 C :    0.104910
   7 H :    0.043080
   8 H :    0.013072
   9 C :   -0.067867
  10 H :    0.026946
  11 H :    0.017061
  12 C :   -0.037237
  13 H :    0.036464
  14 H :    0.028468
  15 H :    0.026874
  16 S :    0.110770
  17 C :   -0.074379
  18 C :   -0.037884
  19 C :   -0.043759
  20 C :   -0.161760
  21 H :    0.020386
  22 C :    0.080195
  23 H :    0.022326
  24 H :    0.016326
  25 C :   -0.068464
  26 H :    0.019001
  27 H :    0.032529
  28 C :   -0.011145
  29 H :    0.037132
  30 H :    0.025444
  31 H :    0.018616
  32 H :    0.033321
  33 H :    0.041140
Sum of atomic charges:    0.0000000

LOEWDIN ATOMIC CHARGES
----------------------
   0 S :    0.402741
   1 C :   -0.191330
   2 C :   -0.058274
   3 C :   -0.069616
   4 C :   -0.200477
   5 H :    0.027693
   6 C :   -0.027943
   7 H :    0.037858
   8 H :    0.024994
   9 C :   -0.032107
  10 H :    0.026683
  11 H :    0.016233
  12 C :   -0.065220
  13 H :    0.030674
  14 H :    0.019323
  15 H :    0.027306
  16 S :    0.402477
  17 C :   -0.183091
  18 C :   -0.064988
  19 C :   -0.052230
  20 C :   -0.187266
  21 H :    0.029520
  22 C :   -0.033630
  23 H :    0.032714
  24 H :    0.030237
  25 C :   -0.047605
  26 H :    0.025825
  27 H :    0.032925
  28 C :   -0.063116
  29 H :    0.026926
  30 H :    0.029978
  31 H :    0.022291
  32 H :    0.013208
  33 H :    0.017287

  Mayer bond orders larger than 0.100000
B(  0-S ,  1-C ) :   1.1272 B(  0-S ,  4-C ) :   1.1530 B(  1-C ,  2-C ) :   1.6109
B(  1-C , 32-H ) :   0.9802 B(  2-C ,  3-C ) :   1.2335 B(  2-C ,  6-C ) :   1.0099
B(  3-C ,  4-C ) :   1.5732 B(  3-C ,  5-H ) :   0.9903 B(  4-C , 20-C ) :   1.0671
B(  6-C ,  7-H ) :   0.9287 B(  6-C ,  8-H ) :   0.9419 B(  6-C ,  9-C ) :   1.0714
B(  9-C , 10-H ) :   0.9559 B(  9-C , 11-H ) :   0.9598 B(  9-C , 12-C ) :   1.0662
B( 12-C , 13-H ) :   0.9775 B( 12-C , 14-H ) :   0.9789 B( 12-C , 15-H ) :   0.9746
B( 16-S , 17-C ) :   1.1420 B( 16-S , 20-C ) :   1.1481 B( 17-C , 18-C ) :   1.6132
B( 17-C , 20-C ) :   0.1046 B( 17-C , 33-H ) :   0.9735 B( 18-C , 19-C ) :   1.2242
B( 18-C , 21-H ) :   0.9865 B( 19-C , 20-C ) :   1.5836 B( 19-C , 22-C ) :   1.0254
B( 22-C , 23-H ) :   0.9304 B( 22-C , 24-H ) :   0.9347 B( 22-C , 25-C ) :   1.0782
B( 25-C , 26-H ) :   0.9501 B( 25-C , 27-H ) :   0.9447 B( 25-C , 28-C ) :   1.0970
B( 28-C , 29-H ) :   0.9681 B( 28-C , 30-H ) :   0.9660 B( 28-C , 31-H ) :   0.9671

Dispersion correction           -0.014078024
FINAL SINGLE POINT ENERGY     -1339.874773494677

DIPOLE MOMENT
-------------
                                X             Y             Z
Electronic contribution:     12.88021       5.69535      24.44919
Nuclear contribution   :    -13.01183      -5.63181     -25.06821
                        -----------------------------------------
Total Dipole Moment    :     -0.13162       0.06353      -0.61901
                        -----------------------------------------
Magnitude (a.u.)       :      0.63603
Magnitude (Debye)      :      1.61666

Rotational constants in cm-1:     0.020713     0.008041     0.006140
Rotational constants in MHz :   620.968412   241.062130   184.070493

                             ****ORCA TERMINATED NORMALLY****
TOTAL RUN TIME: 0 days 0 hours 0 minutes 33 seconds 705 msec
