                         Program Version 4.2.1 -  RELEASE  -
|  1> ! wB97X-D3 SP def2-SVP
|  2> %pal
|  3> nprocs 16
|  4> end
|  5>
|  6> * xyz 0 1
|  7> S 	 -67.7758 	 39.0643 	 142.277
|  8> C 	 -68.9768 	 37.7583 	 141.887
|  9> C 	 -68.4063 	 36.7183 	 141.148
| 10> C 	 -67.0083 	 36.9439 	 140.852
| 11> C 	 -66.5133 	 38.165 	 141.425
| 12> H 	 -66.4199 	 36.3026 	 140.311
| 13> C 	 -69.1713 	 35.4485 	 140.655
| 14> H 	 -69.1614 	 34.7194 	 141.545
| 15> H 	 -68.717 	 34.8954 	 139.782
| 16> C 	 -70.6075 	 35.6038 	 140.129
| 17> H 	 -71.0989 	 36.2138 	 140.885
| 18> H 	 -70.567 	 36.2066 	 139.162
| 19> C 	 -71.3191 	 34.255 	 139.908
| 20> H 	 -70.8519 	 33.6187 	 139.259
| 21> H 	 -71.4013 	 33.7122 	 140.823
| 22> H 	 -72.3855 	 34.2563 	 139.522
| 23> S 	 -64.4996 	 39.1244 	 143.089
| 24> C 	 -62.8739 	 39.453 	 142.425
| 25> C 	 -62.8773 	 39.2891 	 141.103
| 26> C 	 -64.1583 	 38.9074 	 140.532
| 27> C 	 -65.1279 	 38.5789 	 141.49
| 28> H 	 -62.0233 	 39.5151 	 140.448
| 29> C 	 -64.4457 	 38.8359 	 139.004
| 30> H 	 -65.5218 	 39.0156 	 138.982
| 31> H 	 -64.118 	 37.8191 	 138.784
| 32> C 	 -63.8556 	 39.9405 	 138.041
| 33> H 	 -64.2396 	 39.8933 	 137.022
| 34> H 	 -62.7686 	 39.8697 	 137.939
| 35> C 	 -64.2927 	 41.351 	 138.476
| 36> H 	 -63.7196 	 42.0869 	 138.037
| 37> H 	 -64.4516 	 41.5342 	 139.538
| 38> H 	 -65.2337 	 41.5204 	 138.052
| 39> H 	 -69.964 	 37.6341 	 142.315
| 40> H 	 -61.9664 	 39.7085 	 143.047
| 41> *
| 42>
| 43>                          ****END OF INPUT****

CARTESIAN COORDINATES (ANGSTROEM)
---------------------------------
  S    -67.775800   39.064300  142.277000
  C    -68.976800   37.758300  141.887000
  C    -68.406300   36.718300  141.148000
  C    -67.008300   36.943900  140.852000
  C    -66.513300   38.165000  141.425000
  H    -66.419900   36.302600  140.311000
  C    -69.171300   35.448500  140.655000
  H    -69.161400   34.719400  141.545000
  H    -68.717000   34.895400  139.782000
  C    -70.607500   35.603800  140.129000
  H    -71.098900   36.213800  140.885000
  H    -70.567000   36.206600  139.162000
  C    -71.319100   34.255000  139.908000
  H    -70.851900   33.618700  139.259000
  H    -71.401300   33.712200  140.823000
  H    -72.385500   34.256300  139.522000
  S    -64.499600   39.124400  143.089000
  C    -62.873900   39.453000  142.425000
  C    -62.877300   39.289100  141.103000
  C    -64.158300   38.907400  140.532000
  C    -65.127900   38.578900  141.490000
  H    -62.023300   39.515100  140.448000
  C    -64.445700   38.835900  139.004000
  H    -65.521800   39.015600  138.982000
  H    -64.118000   37.819100  138.784000
  C    -63.855600   39.940500  138.041000
  H    -64.239600   39.893300  137.022000
  H    -62.768600   39.869700  137.939000
  C    -64.292700   41.351000  138.476000
  H    -63.719600   42.086900  138.037000
  H    -64.451600   41.534200  139.538000
  H    -65.233700   41.520400  138.052000
  H    -69.964000   37.634100  142.315000
  H    -61.966400   39.708500  143.047000

 Total Charge           Charge          ....    0
 Multiplicity           Mult            ....    1
 Number of Electrons    NEL             ....  134
 Basis Dimension        Dim             ....  322

ORBITAL ENERGIES
----------------

  NO   OCC          E(Eh)            E(eV)
   0   2.0000     -88.973993     -2421.1054
   1   2.0000     -88.959931     -2420.7228
   2   2.0000     -10.339647      -281.3561
   3   2.0000     -10.331115      -281.1239
   4   2.0000     -10.322591      -280.8920
   5   2.0000     -10.321483      -280.8618
   6   2.0000     -10.312511      -280.6177
   7   2.0000     -10.309862      -280.5456
   8   2.0000     -10.307470      -280.4805
   9   2.0000     -10.299130      -280.2536
  10   2.0000     -10.297136      -280.1993
  11   2.0000     -10.295971      -280.1676
  12   2.0000     -10.293782      -280.1080
  13   2.0000     -10.292207      -280.0652
  14   2.0000     -10.277513      -279.6653
  15   2.0000     -10.262557      -279.2584
  16   2.0000      -8.086884      -220.0553
  17   2.0000      -8.073737      -219.6975
  18   2.0000      -6.045597      -164.5090
  19   2.0000      -6.041665      -164.4021
  20   2.0000      -6.037504      -164.2888
  21   2.0000      -6.032526      -164.1534
  22   2.0000      -6.028494      -164.0437
  23   2.0000      -6.024106      -163.9243
  24   2.0000      -0.996144       -27.1065
  25   2.0000      -0.972167       -26.4540
  26   2.0000      -0.907968       -24.7071
  27   2.0000      -0.900856       -24.5135
  28   2.0000      -0.869753       -23.6672
  29   2.0000      -0.848590       -23.0913
  30   2.0000      -0.839712       -22.8497
  31   2.0000      -0.812828       -22.1182
  32   2.0000      -0.782846       -21.3023
  33   2.0000      -0.771069       -20.9819
  34   2.0000      -0.710775       -19.3412
  35   2.0000      -0.703204       -19.1352
  36   2.0000      -0.694542       -18.8994
  37   2.0000      -0.653123       -17.7724
  38   2.0000      -0.636958       -17.3325
  39   2.0000      -0.612102       -16.6561
  40   2.0000      -0.587024       -15.9737
  41   2.0000      -0.575507       -15.6603
  42   2.0000      -0.561028       -15.2663
  43   2.0000      -0.557839       -15.1796
  44   2.0000      -0.542514       -14.7626
  45   2.0000      -0.518939       -14.1210
  46   2.0000      -0.513183       -13.9644
  47   2.0000      -0.508925       -13.8486
  48   2.0000      -0.501546       -13.6478
  49   2.0000      -0.499745       -13.5988
  50   2.0000      -0.486371       -13.2348
  51   2.0000      -0.479994       -13.0613
  52   2.0000      -0.470379       -12.7997
  53   2.0000      -0.467232       -12.7140
  54   2.0000      -0.456642       -12.4259
  55   2.0000      -0.450742       -12.2653
  56   2.0000      -0.441667       -12.0184
  57   2.0000      -0.437135       -11.8951
  58   2.0000      -0.434401       -11.8207
  59   2.0000      -0.425442       -11.5769
  60   2.0000      -0.419114       -11.4047
  61   2.0000      -0.412687       -11.2298
  62   2.0000      -0.405232       -11.0269
  63   2.0000      -0.346592        -9.4312
  64   2.0000      -0.334330        -9.0976
  65   2.0000      -0.325134        -8.8473
  66   2.0000      -0.290297        -7.8994
  67   0.0000       0.020474         0.5571
  68   0.0000       0.064376         1.7518
  69   0.0000       0.100181         2.7261
  70   0.0000       0.122466         3.3325
  71   0.0000       0.127084         3.4581

MULLIKEN ATOMIC CHARGES
-----------------------
   0 S :    0.117333
   1 C :   -0.133683
   2 C :   -0.051159
   3 C :    0.075561
   4 C :   -0.163591
   5 H :   -0.021351
   6 C :   -0.025586
   7 H :    0.056065
   8 H :    0.038866
   9 C :   -0.075391
  10 H :    0.022910
  11 H :    0.049935
  12 C :   -0.028976
  13 H :    0.008709
  14 H :    0.018419
  15 H :    0.041408
  16 S :    0.070073
  17 C :   -0.102407
  18 C :   -0.002952
  19 C :   -0.099244
  20 C :   -0.146030
  21 H :    0.026430
  22 C :    0.068040
  23 H :    0.041016
  24 H :    0.050125
  25 C :   -0.077989
  26 H :    0.034934
  27 H :    0.028535
  28 C :   -0.025732
  29 H :    0.012700
  30 H :    0.046814
  31 H :    0.007970
  32 H :    0.055633
  33 H :    0.082614
Sum of atomic charges:   -0.0000000

LOEWDIN ATOMIC CHARGES
----------------------
   0 S :    0.385694
   1 C :   -0.189441
   2 C :   -0.055498
   3 C :   -0.041439
   4 C :   -0.186816
   5 H :    0.015919
   6 C :   -0.044441
   7 H :    0.040645
   8 H :    0.034262
   9 C :   -0.043824
  10 H :    0.017554
  11 H :    0.034121
  12 C :   -0.065687
  13 H :    0.011508
  14 H :    0.023252
  15 H :    0.038342
  16 S :    0.355286
  17 C :   -0.173976
  18 C :   -0.081312
  19 C :   -0.051805
  20 C :   -0.190257
  21 H :    0.036277
  22 C :   -0.029730
  23 H :    0.035428
  24 H :    0.034315
  25 C :   -0.038982
  26 H :    0.030866
  27 H :    0.017050
  28 C :   -0.061077
  29 H :    0.017428
  30 H :    0.029784
  31 H :    0.020750
  32 H :    0.028393
  33 H :    0.047411

  Mayer bond orders larger than 0.100000
B(  0-S ,  1-C ) :   1.1147 B(  0-S ,  4-C ) :   1.1484 B(  1-C ,  2-C ) :   1.6266
B(  1-C , 32-H ) :   0.9623 B(  2-C ,  3-C ) :   1.2494 B(  2-C ,  6-C ) :   0.9960
B(  3-C ,  4-C ) :   1.5375 B(  3-C ,  5-H ) :   1.0066 B(  4-C , 20-C ) :   1.0776
B(  6-C ,  7-H ) :   0.9406 B(  6-C ,  8-H ) :   0.9591 B(  6-C ,  9-C ) :   1.0528
B(  9-C , 10-H ) :   0.9558 B(  9-C , 11-H ) :   0.9591 B(  9-C , 12-C ) :   1.0725
B( 12-C , 13-H ) :   0.9760 B( 12-C , 14-H ) :   0.9728 B( 12-C , 15-H ) :   0.9732
B( 16-S , 17-C ) :   1.1288 B( 16-S , 20-C ) :   1.1040 B( 17-C , 18-C ) :   1.6435
B( 17-C , 33-H ) :   0.9575 B( 18-C , 19-C ) :   1.2179 B( 18-C , 21-H ) :   0.9844
B( 19-C , 20-C ) :   1.6149 B( 19-C , 22-C ) :   1.0133 B( 22-C , 23-H ) :   0.9393
B( 22-C , 24-H ) :   0.9414 B( 22-C , 25-C ) :   1.0681 B( 25-C , 26-H ) :   0.9609
B( 25-C , 27-H ) :   0.9612 B( 25-C , 28-C ) :   1.0640 B( 28-C , 29-H ) :   0.9713
B( 28-C , 30-H ) :   0.9795 B( 28-C , 31-H ) :   0.9741

Dispersion correction           -0.013749106
FINAL SINGLE POINT ENERGY     -1339.849625806740

DIPOLE MOMENT
-------------
                                X             Y             Z
Electronic contribution:      9.34379       8.63250      20.78344
Nuclear contribution   :     -9.30839      -8.94090     -21.38562
                        -----------------------------------------
Total Dipole Moment    :      0.03540      -0.30839      -0.60218
                        -----------------------------------------
Magnitude (a.u.)       :      0.67748
Magnitude (Debye)      :      1.72201

Rotational constants in cm-1:     0.022423     0.006793     0.005914
Rotational constants in MHz :   672.221274   203.656933   177.302709

                             ****ORCA TERMINATED NORMALLY****
TOTAL RUN TIME: 0 days 0 hours 0 minutes 32 seconds 985 msec
