                         Program Version 4.2.1 -  RELEASE  -
|  1> ! wB97X-D3 SP def2-SVP
|  2> %pal
|  3> nprocs 16
|  4> end
|  5>
|  6> * xyz 0 1
|  7> S 	 -106.328 	 41.6058 	 129.409
|  8> C 	 -104.734 	 42.2972 	 129.485
|  9> C 	 -103.976 	 41.9519 	 128.345
| 10> C 	 -104.705 	 41.0434 	 127.504
| 11> C 	 -106.007 	 40.7141 	 127.85
| 12> H 	 -104.307 	 40.7586 	 126.563
| 13> C 	 -102.74 	 42.6803 	 127.889
| 14> H 	 -103.027 	 43.2868 	 127.083
| 15> H 	 -102.122 	 41.9049 	 127.485
| 16> C 	 -101.954 	 43.5265 	 128.859
| 17> H 	 -101 	 43.7463 	 128.358
| 18> H 	 -102.55 	 44.4204 	 129.095
| 19> C 	 -101.51 	 42.9118 	 130.19
| 20> H 	 -100.654 	 42.1686 	 130.021
| 21> H 	 -101.25 	 43.7658 	 130.878
| 22> H 	 -102.291 	 42.2922 	 130.526
| 23> S 	 -108.237 	 39.0758 	 128.145
| 24> C 	 -109.016 	 38.2435 	 126.775
| 25> C 	 -108.195 	 38.4549 	 125.673
| 26> C 	 -107.023 	 39.2584 	 125.912
| 27> C 	 -106.944 	 39.8121 	 127.194
| 28> H 	 -108.303 	 37.9215 	 124.709
| 29> C 	 -105.996 	 39.5149 	 124.811
| 30> H 	 -106.101 	 38.6667 	 124.146
| 31> H 	 -104.983 	 39.4614 	 125.152
| 32> C 	 -106.33 	 40.7635 	 124.041
| 33> H 	 -105.918 	 41.572 	 124.627
| 34> H 	 -107.346 	 40.9437 	 123.971
| 35> C 	 -105.642 	 40.8766 	 122.695
| 36> H 	 -105.574 	 41.8628 	 122.252
| 37> H 	 -106.275 	 40.3247 	 121.921
| 38> H 	 -104.615 	 40.5926 	 122.878
| 39> H 	 -104.604 	 43.1648 	 130.051
| 40> H 	 -109.899 	 37.7418 	 126.795
| 41> *
| 42>
| 43>                          ****END OF INPUT****

CARTESIAN COORDINATES (ANGSTROEM)
---------------------------------
  S    -106.328000   41.605800  129.409000
  C    -104.734000   42.297200  129.485000
  C    -103.976000   41.951900  128.345000
  C    -104.705000   41.043400  127.504000
  C    -106.007000   40.714100  127.850000
  H    -104.307000   40.758600  126.563000
  C    -102.740000   42.680300  127.889000
  H    -103.027000   43.286800  127.083000
  H    -102.122000   41.904900  127.485000
  C    -101.954000   43.526500  128.859000
  H    -101.000000   43.746300  128.358000
  H    -102.550000   44.420400  129.095000
  C    -101.510000   42.911800  130.190000
  H    -100.654000   42.168600  130.021000
  H    -101.250000   43.765800  130.878000
  H    -102.291000   42.292200  130.526000
  S    -108.237000   39.075800  128.145000
  C    -109.016000   38.243500  126.775000
  C    -108.195000   38.454900  125.673000
  C    -107.023000   39.258400  125.912000
  C    -106.944000   39.812100  127.194000
  H    -108.303000   37.921500  124.709000
  C    -105.996000   39.514900  124.811000
  H    -106.101000   38.666700  124.146000
  H    -104.983000   39.461400  125.152000
  C    -106.330000   40.763500  124.041000
  H    -105.918000   41.572000  124.627000
  H    -107.346000   40.943700  123.971000
  C    -105.642000   40.876600  122.695000
  H    -105.574000   41.862800  122.252000
  H    -106.275000   40.324700  121.921000
  H    -104.615000   40.592600  122.878000
  H    -104.604000   43.164800  130.051000
  H    -109.899000   37.741800  126.795000

 Total Charge           Charge          ....    0
 Multiplicity           Mult            ....    1
 Number of Electrons    NEL             ....  134
 Basis Dimension        Dim             ....  322

ORBITAL ENERGIES
----------------

  NO   OCC          E(Eh)            E(eV)
   0   2.0000     -88.966621     -2420.9048
   1   2.0000     -88.965215     -2420.8666
   2   2.0000     -10.343965      -281.4736
   3   2.0000     -10.336331      -281.2659
   4   2.0000     -10.321553      -280.8637
   5   2.0000     -10.314616      -280.6750
   6   2.0000     -10.308194      -280.5002
   7   2.0000     -10.307670      -280.4860
   8   2.0000     -10.302775      -280.3528
   9   2.0000     -10.297460      -280.2081
  10   2.0000     -10.289933      -280.0033
  11   2.0000     -10.288750      -279.9711
  12   2.0000     -10.288061      -279.9524
  13   2.0000     -10.280915      -279.7579
  14   2.0000     -10.280910      -279.7578
  15   2.0000     -10.274782      -279.5910
  16   2.0000      -8.080335      -219.8771
  17   2.0000      -8.079207      -219.8464
  18   2.0000      -6.039014      -164.3299
  19   2.0000      -6.037916      -164.3000
  20   2.0000      -6.034919      -164.2185
  21   2.0000      -6.033682      -164.1848
  22   2.0000      -6.031015      -164.1123
  23   2.0000      -6.029902      -164.0820
  24   2.0000      -1.001930       -27.2639
  25   2.0000      -0.981119       -26.6976
  26   2.0000      -0.918556       -24.9952
  27   2.0000      -0.917403       -24.9638
  28   2.0000      -0.872224       -23.7344
  29   2.0000      -0.853239       -23.2178
  30   2.0000      -0.846118       -23.0240
  31   2.0000      -0.817736       -22.2517
  32   2.0000      -0.785031       -21.3618
  33   2.0000      -0.776275       -21.1235
  34   2.0000      -0.712394       -19.3852
  35   2.0000      -0.701787       -19.0966
  36   2.0000      -0.697297       -18.9744
  37   2.0000      -0.670346       -18.2410
  38   2.0000      -0.644662       -17.5421
  39   2.0000      -0.619287       -16.8517
  40   2.0000      -0.603089       -16.4109
  41   2.0000      -0.581956       -15.8358
  42   2.0000      -0.567759       -15.4495
  43   2.0000      -0.562197       -15.2982
  44   2.0000      -0.543503       -14.7895
  45   2.0000      -0.538606       -14.6562
  46   2.0000      -0.519893       -14.1470
  47   2.0000      -0.515556       -14.0290
  48   2.0000      -0.512032       -13.9331
  49   2.0000      -0.507237       -13.8026
  50   2.0000      -0.489937       -13.3319
  51   2.0000      -0.485757       -13.2181
  52   2.0000      -0.480810       -13.0835
  53   2.0000      -0.464008       -12.6263
  54   2.0000      -0.456386       -12.4189
  55   2.0000      -0.448432       -12.2025
  56   2.0000      -0.443535       -12.0692
  57   2.0000      -0.440118       -11.9762
  58   2.0000      -0.431032       -11.7290
  59   2.0000      -0.426471       -11.6049
  60   2.0000      -0.415360       -11.3025
  61   2.0000      -0.410408       -11.1678
  62   2.0000      -0.402810       -10.9610
  63   2.0000      -0.365061        -9.9338
  64   2.0000      -0.331146        -9.0109
  65   2.0000      -0.326088        -8.8733
  66   2.0000      -0.285320        -7.7639
  67   0.0000       0.011205         0.3049
  68   0.0000       0.077072         2.0972
  69   0.0000       0.097489         2.6528
  70   0.0000       0.109847         2.9891
  71   0.0000       0.133449         3.6313

MULLIKEN ATOMIC CHARGES
-----------------------
   0 S :    0.097285
   1 C :   -0.098354
   2 C :   -0.129249
   3 C :    0.011710
   4 C :   -0.102061
   5 H :   -0.019771
   6 C :    0.102803
   7 H :    0.035506
   8 H :    0.018456
   9 C :   -0.102494
  10 H :    0.037262
  11 H :    0.032593
  12 C :   -0.061810
  13 H :    0.035816
  14 H :    0.053739
  15 H :    0.024268
  16 S :    0.083097
  17 C :   -0.046802
  18 C :   -0.024569
  19 C :   -0.101460
  20 C :   -0.106078
  21 H :    0.032625
  22 C :    0.060610
  23 H :    0.004067
  24 H :    0.029701
  25 C :   -0.019391
  26 H :    0.014150
  27 H :    0.014784
  28 C :   -0.052095
  29 H :    0.028383
  30 H :    0.042087
  31 H :    0.026715
  32 H :    0.049844
  33 H :    0.028634
Sum of atomic charges:   -0.0000000

LOEWDIN ATOMIC CHARGES
----------------------
   0 S :    0.384006
   1 C :   -0.198669
   2 C :   -0.056418
   3 C :   -0.062396
   4 C :   -0.163850
   5 H :    0.018983
   6 C :   -0.031891
   7 H :    0.034280
   8 H :    0.029461
   9 C :   -0.047383
  10 H :    0.033120
  11 H :    0.024123
  12 C :   -0.070242
  13 H :    0.032482
  14 H :    0.037023
  15 H :    0.013909
  16 S :    0.389432
  17 C :   -0.156698
  18 C :   -0.071859
  19 C :   -0.056042
  20 C :   -0.188206
  21 H :    0.036403
  22 C :   -0.027229
  23 H :    0.026585
  24 H :    0.023584
  25 C :   -0.036984
  26 H :    0.023832
  27 H :    0.016054
  28 C :   -0.068001
  29 H :    0.023942
  30 H :    0.033142
  31 H :    0.024488
  32 H :    0.017555
  33 H :    0.013464

  Mayer bond orders larger than 0.100000
B(  0-S ,  1-C ) :   1.1495 B(  0-S ,  4-C ) :   1.1286 B(  1-C ,  2-C ) :   1.5827
B(  1-C ,  4-C ) :   0.1009 B(  1-C , 32-H ) :   0.9613 B(  2-C ,  3-C ) :   1.2811
B(  2-C ,  6-C ) :   1.0075 B(  3-C ,  4-C ) :   1.5554 B(  3-C ,  5-H ) :   0.9886
B(  4-C , 20-C ) :   1.0984 B(  6-C ,  7-H ) :   0.9328 B(  6-C ,  8-H ) :   0.9288
B(  6-C ,  9-C ) :   1.0973 B(  9-C , 10-H ) :   0.9537 B(  9-C , 11-H ) :   0.9499
B(  9-C , 12-C ) :   1.0768 B( 12-C , 13-H ) :   0.9733 B( 12-C , 14-H ) :   0.9738
B( 12-C , 15-H ) :   0.9754 B( 16-S , 17-C ) :   1.1481 B( 16-S , 20-C ) :   1.1306
B( 17-C , 18-C ) :   1.5756 B( 17-C , 20-C ) :   0.1036 B( 17-C , 33-H ) :   0.9871
B( 18-C , 19-C ) :   1.2826 B( 18-C , 21-H ) :   0.9762 B( 19-C , 20-C ) :   1.5606
B( 19-C , 22-C ) :   1.0452 B( 22-C , 23-H ) :   0.9277 B( 22-C , 24-H ) :   0.9304
B( 22-C , 25-C ) :   1.0640 B( 25-C , 26-H ) :   0.9464 B( 25-C , 27-H ) :   0.9555
B( 25-C , 28-C ) :   1.0873 B( 28-C , 29-H ) :   0.9741 B( 28-C , 30-H ) :   0.9751
B( 28-C , 31-H ) :   0.9708

Dispersion correction           -0.014020941
FINAL SINGLE POINT ENERGY     -1339.855224048777

DIPOLE MOMENT
-------------
                                X             Y             Z
Electronic contribution:    -21.40872      -9.96599      14.65740
Nuclear contribution   :     21.81122      10.19456     -15.39263
                        -----------------------------------------
Total Dipole Moment    :      0.40251       0.22857      -0.73523
                        -----------------------------------------
Magnitude (a.u.)       :      0.86881
Magnitude (Debye)      :      2.20833

Rotational constants in cm-1:     0.019979     0.008213     0.006117
Rotational constants in MHz :   598.944926   246.226172   183.384128

                             ****ORCA TERMINATED NORMALLY****
TOTAL RUN TIME: 0 days 0 hours 0 minutes 33 seconds 428 msec
