                         Program Version 4.2.1 -  RELEASE  -
|  1> ! wB97X-D3 SP def2-SVP
|  2> %pal
|  3> nprocs 16
|  4> end
|  5>
|  6> * xyz 0 1
|  7> S 	 14.0161 	 22.0477 	 39.7791
|  8> C 	 14.3688 	 22.4771 	 38.1077
|  9> C 	 14.5628 	 21.3647 	 37.3076
| 10> C 	 14.4383 	 20.1692 	 38.0746
| 11> C 	 14.177 	 20.3503 	 39.4155
| 12> H 	 14.5618 	 19.1089 	 37.7252
| 13> C 	 15.0023 	 21.3949 	 35.8671
| 14> H 	 15.6116 	 20.4541 	 35.5788
| 15> H 	 15.6108 	 22.3188 	 35.694
| 16> C 	 13.8488 	 21.5675 	 34.8115
| 17> H 	 14.1908 	 21.7005 	 33.772
| 18> H 	 13.3336 	 20.658 	 34.7983
| 19> C 	 12.9775 	 22.8487 	 35.2306
| 20> H 	 12.2354 	 23.0406 	 34.4465
| 21> H 	 12.5439 	 22.7748 	 36.1784
| 22> H 	 13.6954 	 23.6782 	 35.2183
| 23> S 	 15.4587 	 19.4742 	 41.7002
| 24> C 	 14.7528 	 18.0542 	 42.4876
| 25> C 	 13.5461 	 17.672 	 41.8764
| 26> C 	 13.3107 	 18.3442 	 40.6797
| 27> C 	 14.1949 	 19.3928 	 40.5011
| 28> H 	 12.9583 	 16.8485 	 42.3333
| 29> C 	 11.9855 	 18.0513 	 39.9204
| 30> H 	 11.6535 	 17.0028 	 40.0108
| 31> H 	 12.381 	 18.0288 	 38.9626
| 32> C 	 10.8023 	 18.996 	 40.1368
| 33> H 	 10.0732 	 18.7484 	 39.4288
| 34> H 	 10.9327 	 20.0463 	 39.8487
| 35> C 	 10.1019 	 18.9291 	 41.4886
| 36> H 	 10.568 	 19.3353 	 42.3732
| 37> H 	 9.88805 	 17.8911 	 41.6993
| 38> H 	 9.19503 	 19.4149 	 41.4459
| 39> H 	 14.499 	 23.483 	 37.6897
| 40> H 	 15.0763 	 17.6721 	 43.4795
| 41> *
| 42>
| 43>                          ****END OF INPUT****

CARTESIAN COORDINATES (ANGSTROEM)
---------------------------------
  S     14.016100   22.047700   39.779100
  C     14.368800   22.477100   38.107700
  C     14.562800   21.364700   37.307600
  C     14.438300   20.169200   38.074600
  C     14.177000   20.350300   39.415500
  H     14.561800   19.108900   37.725200
  C     15.002300   21.394900   35.867100
  H     15.611600   20.454100   35.578800
  H     15.610800   22.318800   35.694000
  C     13.848800   21.567500   34.811500
  H     14.190800   21.700500   33.772000
  H     13.333600   20.658000   34.798300
  C     12.977500   22.848700   35.230600
  H     12.235400   23.040600   34.446500
  H     12.543900   22.774800   36.178400
  H     13.695400   23.678200   35.218300
  S     15.458700   19.474200   41.700200
  C     14.752800   18.054200   42.487600
  C     13.546100   17.672000   41.876400
  C     13.310700   18.344200   40.679700
  C     14.194900   19.392800   40.501100
  H     12.958300   16.848500   42.333300
  C     11.985500   18.051300   39.920400
  H     11.653500   17.002800   40.010800
  H     12.381000   18.028800   38.962600
  C     10.802300   18.996000   40.136800
  H     10.073200   18.748400   39.428800
  H     10.932700   20.046300   39.848700
  C     10.101900   18.929100   41.488600
  H     10.568000   19.335300   42.373200
  H      9.888050   17.891100   41.699300
  H      9.195030   19.414900   41.445900
  H     14.499000   23.483000   37.689700
  H     15.076300   17.672100   43.479500

 Total Charge           Charge          ....    0
 Multiplicity           Mult            ....    1
 Number of Electrons    NEL             ....  134
 Basis Dimension        Dim             ....  322

ORBITAL ENERGIES
----------------

  NO   OCC          E(Eh)            E(eV)
   0   2.0000     -88.970535     -2421.0113
   1   2.0000     -88.966790     -2420.9094
   2   2.0000     -10.324400      -280.9412
   3   2.0000     -10.323675      -280.9215
   4   2.0000     -10.320498      -280.8350
   5   2.0000     -10.315449      -280.6976
   6   2.0000     -10.302816      -280.3539
   7   2.0000     -10.301753      -280.3249
   8   2.0000     -10.299377      -280.2603
   9   2.0000     -10.296404      -280.1794
  10   2.0000     -10.293578      -280.1025
  11   2.0000     -10.289778      -279.9991
  12   2.0000     -10.288445      -279.9628
  13   2.0000     -10.280215      -279.7389
  14   2.0000     -10.277153      -279.6556
  15   2.0000     -10.264523      -279.3119
  16   2.0000      -8.084773      -219.9979
  17   2.0000      -8.081325      -219.9040
  18   2.0000      -6.043164      -164.4429
  19   2.0000      -6.039827      -164.3521
  20   2.0000      -6.039363      -164.3394
  21   2.0000      -6.035813      -164.2428
  22   2.0000      -6.035668      -164.2389
  23   2.0000      -6.032148      -164.1431
  24   2.0000      -1.007609       -27.4184
  25   2.0000      -0.983315       -26.7574
  26   2.0000      -0.907019       -24.6812
  27   2.0000      -0.905726       -24.6461
  28   2.0000      -0.862885       -23.4803
  29   2.0000      -0.854200       -23.2440
  30   2.0000      -0.842039       -22.9130
  31   2.0000      -0.808237       -21.9932
  32   2.0000      -0.786372       -21.3983
  33   2.0000      -0.774175       -21.0664
  34   2.0000      -0.713151       -19.4058
  35   2.0000      -0.701734       -19.0951
  36   2.0000      -0.691111       -18.8061
  37   2.0000      -0.658313       -17.9136
  38   2.0000      -0.638226       -17.3670
  39   2.0000      -0.613281       -16.6882
  40   2.0000      -0.589725       -16.0472
  41   2.0000      -0.564585       -15.3631
  42   2.0000      -0.558853       -15.2072
  43   2.0000      -0.546601       -14.8738
  44   2.0000      -0.542251       -14.7554
  45   2.0000      -0.537820       -14.6348
  46   2.0000      -0.512021       -13.9328
  47   2.0000      -0.508799       -13.8451
  48   2.0000      -0.493939       -13.4408
  49   2.0000      -0.488662       -13.2972
  50   2.0000      -0.482925       -13.1411
  51   2.0000      -0.477367       -12.9898
  52   2.0000      -0.473751       -12.8914
  53   2.0000      -0.466099       -12.6832
  54   2.0000      -0.461500       -12.5581
  55   2.0000      -0.451153       -12.2765
  56   2.0000      -0.444179       -12.0867
  57   2.0000      -0.442580       -12.0432
  58   2.0000      -0.431665       -11.7462
  59   2.0000      -0.425270       -11.5722
  60   2.0000      -0.418396       -11.3851
  61   2.0000      -0.414771       -11.2865
  62   2.0000      -0.410067       -11.1585
  63   2.0000      -0.341296        -9.2871
  64   2.0000      -0.333550        -9.0764
  65   2.0000      -0.328230        -8.9316
  66   2.0000      -0.295193        -8.0326
  67   0.0000       0.032728         0.8906
  68   0.0000       0.061289         1.6678
  69   0.0000       0.115848         3.1524
  70   0.0000       0.117784         3.2051
  71   0.0000       0.126702         3.4477

MULLIKEN ATOMIC CHARGES
-----------------------
   0 S :    0.114998
   1 C :   -0.126716
   2 C :   -0.072086
   3 C :    0.038238
   4 C :   -0.199675
   5 H :    0.028716
   6 C :   -0.003083
   7 H :    0.050577
   8 H :    0.036245
   9 C :   -0.057940
  10 H :    0.035595
  11 H :    0.017062
  12 C :   -0.065320
  13 H :    0.039221
  14 H :    0.051749
  15 H :    0.019825
  16 S :    0.133421
  17 C :   -0.121686
  18 C :   -0.045941
  19 C :   -0.034589
  20 C :   -0.172145
  21 H :    0.032997
  22 C :    0.124287
  23 H :    0.017472
  24 H :   -0.007936
  25 C :   -0.026678
  26 H :    0.008289
  27 H :    0.026446
  28 C :   -0.012346
  29 H :    0.034496
  30 H :    0.007859
  31 H :    0.009722
  32 H :    0.050891
  33 H :    0.068033
Sum of atomic charges:   -0.0000000

LOEWDIN ATOMIC CHARGES
----------------------
   0 S :    0.406158
   1 C :   -0.195687
   2 C :   -0.069419
   3 C :   -0.065386
   4 C :   -0.199447
   5 H :    0.039179
   6 C :   -0.039645
   7 H :    0.040700
   8 H :    0.032952
   9 C :   -0.032632
  10 H :    0.026011
  11 H :    0.010159
  12 C :   -0.059387
  13 H :    0.027253
  14 H :    0.017132
  15 H :    0.021863
  16 S :    0.413347
  17 C :   -0.191962
  18 C :   -0.071387
  19 C :   -0.055047
  20 C :   -0.210776
  21 H :    0.038353
  22 C :   -0.024371
  23 H :    0.034156
  24 H :    0.022579
  25 C :   -0.036045
  26 H :    0.022087
  27 H :    0.028514
  28 C :   -0.058117
  29 H :    0.025146
  30 H :    0.021004
  31 H :    0.017996
  32 H :    0.031151
  33 H :    0.033568

  Mayer bond orders larger than 0.100000
B(  0-S ,  1-C ) :   1.1378 B(  0-S ,  4-C ) :   1.1479 B(  1-C ,  2-C ) :   1.6105
B(  1-C , 32-H ) :   0.9620 B(  2-C ,  3-C ) :   1.2380 B(  2-C ,  6-C ) :   1.0168
B(  3-C ,  4-C ) :   1.6045 B(  3-C ,  5-H ) :   0.9817 B(  4-C , 20-C ) :   1.0228
B(  6-C ,  7-H ) :   0.9493 B(  6-C ,  8-H ) :   0.9478 B(  6-C ,  9-C ) :   1.0571
B(  9-C , 10-H ) :   0.9617 B(  9-C , 11-H ) :   0.9601 B(  9-C , 12-C ) :   1.0643
B( 12-C , 13-H ) :   0.9749 B( 12-C , 14-H ) :   0.9741 B( 12-C , 15-H ) :   0.9771
B( 16-S , 17-C ) :   1.1562 B( 16-S , 20-C ) :   1.1572 B( 17-C , 18-C ) :   1.5932
B( 17-C , 20-C ) :   0.1120 B( 17-C , 33-H ) :   0.9613 B( 18-C , 19-C ) :   1.2641
B( 18-C , 21-H ) :   0.9838 B( 19-C , 20-C ) :   1.5835 B( 19-C , 22-C ) :   1.0194
B( 22-C , 23-H ) :   0.9376 B( 22-C , 24-H ) :   0.9119 B( 22-C , 25-C ) :   1.0820
B( 25-C , 26-H ) :   0.9444 B( 25-C , 27-H ) :   0.9520 B( 25-C , 28-C ) :   1.0830
B( 28-C , 29-H ) :   0.9756 B( 28-C , 30-H ) :   0.9714 B( 28-C , 31-H ) :   0.9690

Dispersion correction           -0.014991114
FINAL SINGLE POINT ENERGY     -1339.865430888986

DIPOLE MOMENT
-------------
                                X             Y             Z
Electronic contribution:     16.50175       0.83955      17.00636
Nuclear contribution   :    -16.83166      -1.09053     -17.37109
                        -----------------------------------------
Total Dipole Moment    :     -0.32991      -0.25099      -0.36473
                        -----------------------------------------
Magnitude (a.u.)       :      0.55214
Magnitude (Debye)      :      1.40343

Rotational constants in cm-1:     0.021472     0.008332     0.007110
Rotational constants in MHz :   643.728301   249.798984   213.167377

                             ****ORCA TERMINATED NORMALLY****
TOTAL RUN TIME: 0 days 0 hours 0 minutes 35 seconds 346 msec
