                         Program Version 4.2.1 -  RELEASE  -
|  1> ! wB97X-D3 SP def2-SVP
|  2> %pal
|  3> nprocs 16
|  4> end
|  5>
|  6> * xyz 0 1
|  7> S 	 -71.4995 	 49.2605 	 124.787
|  8> C 	 -70.4589 	 50.6443 	 124.907
|  9> C 	 -71.0345 	 51.8266 	 124.51
| 10> C 	 -72.4497 	 51.5654 	 124.197
| 11> C 	 -72.8369 	 50.2651 	 124.405
| 12> H 	 -73.0403 	 52.3502 	 123.812
| 13> C 	 -70.4042 	 53.1752 	 124.504
| 14> H 	 -70.234 	 53.5068 	 123.502
| 15> H 	 -69.4449 	 52.9909 	 124.941
| 16> C 	 -71.1763 	 54.3314 	 125.125
| 17> H 	 -72.192 	 54.2061 	 124.732
| 18> H 	 -71.2176 	 54.235 	 126.222
| 19> C 	 -70.6088 	 55.6706 	 124.746
| 20> H 	 -70.9312 	 56.3981 	 125.506
| 21> H 	 -69.5234 	 55.7103 	 124.708
| 22> H 	 -71.0593 	 55.9651 	 123.753
| 23> S 	 -74.5303 	 48.8214 	 122.662
| 24> C 	 -76.2235 	 48.5048 	 123.331
| 25> C 	 -76.4374 	 49.3186 	 124.421
| 26> C 	 -75.2674 	 50.0171 	 124.827
| 27> C 	 -74.1816 	 49.805 	 124.121
| 28> H 	 -77.3738 	 49.257 	 124.902
| 29> C 	 -75.3512 	 51.0283 	 126.013
| 30> H 	 -74.3327 	 51.1071 	 126.39
| 31> H 	 -75.8873 	 50.6378 	 126.846
| 32> C 	 -75.8504 	 52.4485 	 125.616
| 33> H 	 -76.71 	 52.3643 	 125.01
| 34> H 	 -75.018 	 52.9039 	 125.009
| 35> C 	 -76.4156 	 53.2855 	 126.805
| 36> H 	 -76.8234 	 54.1662 	 126.348
| 37> H 	 -75.6753 	 53.6663 	 127.427
| 38> H 	 -77.2232 	 52.7945 	 127.332
| 39> H 	 -69.4134 	 50.6113 	 125.278
| 40> H 	 -76.9242 	 47.8893 	 122.935
| 41> *
| 42>
| 43>                          ****END OF INPUT****

CARTESIAN COORDINATES (ANGSTROEM)
---------------------------------
  S    -71.499500   49.260500  124.787000
  C    -70.458900   50.644300  124.907000
  C    -71.034500   51.826600  124.510000
  C    -72.449700   51.565400  124.197000
  C    -72.836900   50.265100  124.405000
  H    -73.040300   52.350200  123.812000
  C    -70.404200   53.175200  124.504000
  H    -70.234000   53.506800  123.502000
  H    -69.444900   52.990900  124.941000
  C    -71.176300   54.331400  125.125000
  H    -72.192000   54.206100  124.732000
  H    -71.217600   54.235000  126.222000
  C    -70.608800   55.670600  124.746000
  H    -70.931200   56.398100  125.506000
  H    -69.523400   55.710300  124.708000
  H    -71.059300   55.965100  123.753000
  S    -74.530300   48.821400  122.662000
  C    -76.223500   48.504800  123.331000
  C    -76.437400   49.318600  124.421000
  C    -75.267400   50.017100  124.827000
  C    -74.181600   49.805000  124.121000
  H    -77.373800   49.257000  124.902000
  C    -75.351200   51.028300  126.013000
  H    -74.332700   51.107100  126.390000
  H    -75.887300   50.637800  126.846000
  C    -75.850400   52.448500  125.616000
  H    -76.710000   52.364300  125.010000
  H    -75.018000   52.903900  125.009000
  C    -76.415600   53.285500  126.805000
  H    -76.823400   54.166200  126.348000
  H    -75.675300   53.666300  127.427000
  H    -77.223200   52.794500  127.332000
  H    -69.413400   50.611300  125.278000
  H    -76.924200   47.889300  122.935000

 Total Charge           Charge          ....    0
 Multiplicity           Mult            ....    1
 Number of Electrons    NEL             ....  134
 Basis Dimension        Dim             ....  322

ORBITAL ENERGIES
----------------

  NO   OCC          E(Eh)            E(eV)
   0   2.0000     -88.968153     -2420.9465
   1   2.0000     -88.959767     -2420.7183
   2   2.0000     -10.324611      -280.9470
   3   2.0000     -10.318842      -280.7900
   4   2.0000     -10.316677      -280.7311
   5   2.0000     -10.314127      -280.6617
   6   2.0000     -10.299355      -280.2597
   7   2.0000     -10.293865      -280.1103
   8   2.0000     -10.292264      -280.0667
   9   2.0000     -10.290001      -280.0052
  10   2.0000     -10.288043      -279.9519
  11   2.0000     -10.287453      -279.9358
  12   2.0000     -10.286489      -279.9096
  13   2.0000     -10.284505      -279.8556
  14   2.0000     -10.284294      -279.8499
  15   2.0000     -10.272337      -279.5245
  16   2.0000      -8.083602      -219.9660
  17   2.0000      -8.072838      -219.6731
  18   2.0000      -6.042179      -164.4160
  19   2.0000      -6.038067      -164.3042
  20   2.0000      -6.034181      -164.1984
  21   2.0000      -6.031643      -164.1293
  22   2.0000      -6.027857      -164.0263
  23   2.0000      -6.023107      -163.8971
  24   2.0000      -1.008228       -27.4353
  25   2.0000      -0.981217       -26.7003
  26   2.0000      -0.921631       -25.0789
  27   2.0000      -0.897599       -24.4249
  28   2.0000      -0.874107       -23.7857
  29   2.0000      -0.852880       -23.2080
  30   2.0000      -0.842109       -22.9150
  31   2.0000      -0.817579       -22.2475
  32   2.0000      -0.783647       -21.3241
  33   2.0000      -0.774704       -21.0808
  34   2.0000      -0.712497       -19.3880
  35   2.0000      -0.697532       -18.9808
  36   2.0000      -0.693962       -18.8837
  37   2.0000      -0.666797       -18.1445
  38   2.0000      -0.641981       -17.4692
  39   2.0000      -0.623961       -16.9788
  40   2.0000      -0.590625       -16.0717
  41   2.0000      -0.581187       -15.8149
  42   2.0000      -0.567903       -15.4534
  43   2.0000      -0.562837       -15.3156
  44   2.0000      -0.530026       -14.4227
  45   2.0000      -0.528349       -14.3771
  46   2.0000      -0.517039       -14.0693
  47   2.0000      -0.512764       -13.9530
  48   2.0000      -0.508669       -13.8416
  49   2.0000      -0.501877       -13.6568
  50   2.0000      -0.491784       -13.3821
  51   2.0000      -0.477217       -12.9857
  52   2.0000      -0.473302       -12.8792
  53   2.0000      -0.463870       -12.6225
  54   2.0000      -0.461517       -12.5585
  55   2.0000      -0.448466       -12.2034
  56   2.0000      -0.442487       -12.0407
  57   2.0000      -0.432999       -11.7825
  58   2.0000      -0.431300       -11.7363
  59   2.0000      -0.429636       -11.6910
  60   2.0000      -0.420944       -11.4545
  61   2.0000      -0.420454       -11.4411
  62   2.0000      -0.407639       -11.0924
  63   2.0000      -0.336926        -9.1682
  64   2.0000      -0.329505        -8.9663
  65   2.0000      -0.325417        -8.8551
  66   2.0000      -0.307827        -8.3764
  67   0.0000       0.041328         1.1246
  68   0.0000       0.063130         1.7178
  69   0.0000       0.106555         2.8995
  70   0.0000       0.120213         3.2712
  71   0.0000       0.125239         3.4079

MULLIKEN ATOMIC CHARGES
-----------------------
   0 S :    0.137813
   1 C :   -0.146410
   2 C :   -0.092982
   3 C :    0.025475
   4 C :   -0.163183
   5 H :    0.004006
   6 C :    0.119593
   7 H :    0.021548
   8 H :    0.002785
   9 C :   -0.098554
  10 H :    0.026664
  11 H :    0.035241
  12 C :   -0.055765
  13 H :    0.038132
  14 H :    0.037764
  15 H :    0.042824
  16 S :    0.075451
  17 C :   -0.056633
  18 C :   -0.006946
  19 C :   -0.025672
  20 C :   -0.159547
  21 H :    0.007102
  22 C :    0.091935
  23 H :    0.028237
  24 H :    0.005441
  25 C :   -0.078725
  26 H :    0.018014
  27 H :    0.030341
  28 C :   -0.012366
  29 H :    0.019706
  30 H :    0.020871
  31 H :    0.036811
  32 H :    0.054346
  33 H :    0.016685
Sum of atomic charges:   -0.0000000

LOEWDIN ATOMIC CHARGES
----------------------
   0 S :    0.429543
   1 C :   -0.205955
   2 C :   -0.061038
   3 C :   -0.049910
   4 C :   -0.206266
   5 H :    0.018988
   6 C :   -0.032449
   7 H :    0.031599
   8 H :    0.026256
   9 C :   -0.042921
  10 H :    0.024075
  11 H :    0.025077
  12 C :   -0.067889
  13 H :    0.031163
  14 H :    0.024786
  15 H :    0.033548
  16 S :    0.331188
  17 C :   -0.127135
  18 C :   -0.057919
  19 C :   -0.057497
  20 C :   -0.180916
  21 H :    0.027541
  22 C :   -0.026521
  23 H :    0.029470
  24 H :    0.019458
  25 C :   -0.034963
  26 H :    0.016682
  27 H :    0.027758
  28 C :   -0.055662
  29 H :    0.026721
  30 H :    0.015044
  31 H :    0.027392
  32 H :    0.033566
  33 H :    0.007186

  Mayer bond orders larger than 0.100000
B(  0-S ,  1-C ) :   1.1374 B(  0-S ,  4-C ) :   1.1472 B(  1-C ,  2-C ) :   1.6421
B(  1-C , 32-H ) :   0.9539 B(  2-C ,  3-C ) :   1.2199 B(  2-C ,  6-C ) :   1.0370
B(  3-C ,  4-C ) :   1.5853 B(  3-C ,  5-H ) :   0.9936 B(  4-C , 20-C ) :   1.0196
B(  6-C ,  7-H ) :   0.9266 B(  6-C ,  8-H ) :   0.9265 B(  6-C ,  9-C ) :   1.0610
B(  9-C , 10-H ) :   0.9549 B(  9-C , 11-H ) :   0.9576 B(  9-C , 12-C ) :   1.0844
B( 12-C , 13-H ) :   0.9743 B( 12-C , 14-H ) :   0.9759 B( 12-C , 15-H ) :   0.9727
B( 16-S , 17-C ) :   1.1115 B( 16-S , 20-C ) :   1.0937 B( 17-C , 18-C ) :   1.6655
B( 17-C , 33-H ) :   0.9802 B( 18-C , 19-C ) :   1.1815 B( 18-C , 21-H ) :   0.9971
B( 19-C , 20-C ) :   1.7143 B( 19-C , 22-C ) :   1.0377 B( 22-C , 23-H ) :   0.9249
B( 22-C , 24-H ) :   0.9410 B( 22-C , 25-C ) :   1.0592 B( 25-C , 26-H ) :   0.9622
B( 25-C , 27-H ) :   0.9507 B( 25-C , 28-C ) :   1.0782 B( 28-C , 29-H ) :   0.9723
B( 28-C , 30-H ) :   0.9771 B( 28-C , 31-H ) :   0.9746

Dispersion correction           -0.014472814
FINAL SINGLE POINT ENERGY     -1339.864319600886

DIPOLE MOMENT
-------------
                                X             Y             Z
Electronic contribution:      2.24941     -30.00088     -11.28222
Nuclear contribution   :     -2.38442      30.70502      11.61571
                        -----------------------------------------
Total Dipole Moment    :     -0.13501       0.70414       0.33349
                        -----------------------------------------
Magnitude (a.u.)       :      0.79074
Magnitude (Debye)      :      2.00989

Rotational constants in cm-1:     0.016834     0.009466     0.006854
Rotational constants in MHz :   504.665977   283.797082   205.471846

                             ****ORCA TERMINATED NORMALLY****
TOTAL RUN TIME: 0 days 0 hours 0 minutes 33 seconds 68 msec
